Title
42788
    1SAPS     N    1   5.846   5.092   6.890  0.7820  0.9482  0.0512
    1SAPS   HN1    2   5.869   5.031   6.971 -0.8974  0.3530  0.1121
    1SAPS   HN2    3   5.744   5.111   6.884  0.6405  0.7540  1.5052
    1SAPS   HN3    4   5.875   5.035   6.808 -2.1693 -2.8248  1.3773
    1SAPS   C12    5   5.917   5.225   6.897  0.2262 -0.4059 -0.0922
    1SAPS  H12A    6   5.910   5.281   6.805  1.4072  0.1964  0.1668
    1SAPS   C13    7   5.860   5.325   6.996  0.4961 -0.1741  1.0924
    1SAPS  O13A    8   5.759   5.286   7.061 -0.0023  0.2457 -0.4616
    1SAPS  O13B    9   5.906   5.444   7.011  0.2159  0.0531 -0.1977
    1SAPS   C11   10   6.065   5.204   6.943 -0.5749  0.5154  0.6040
    1SAPS  H11A   11   6.076   5.171   7.048 -2.5634 -0.0387  0.6727
    1SAPS  H11B   12   6.113   5.303   6.931 -0.2532  0.1254 -2.0805
    1SAPS     P   13   6.295   5.102   6.841 -0.0640  0.0719  0.0899
    1SAPS   O13   14   6.360   5.162   6.961  0.0306  0.1563  0.0188
    1SAPS   O14   15   6.335   4.966   6.803  0.0542 -0.0949 -0.2067
    1SAPS   O12   16   6.136   5.107   6.865 -0.0199  0.5674  0.6997
    1SAPS   O11   17   6.317   5.199   6.718  0.2848  0.3528  0.6719
    1SAPS    C1   18   6.233   5.174   6.599  0.4513 -0.7696 -1.1159
    1SAPS    HA   19   6.127   5.145   6.614  0.0230  1.3552  0.3613
    1SAPS    HB   20   6.239   5.267   6.537  2.6037 -0.1344 -0.0801
    1SAPS    C2   21   6.305   5.071   6.506 -0.0016  0.1247 -0.4200
    1SAPS    HS   22   6.366   5.004   6.572 -0.6264  1.5301  1.6606
    1SAPS   O21   23   6.379   5.144   6.401 -0.6161 -0.0912 -0.1586
    1SAPS   C21   24   6.507   5.160   6.412 -0.2489 -0.9011 -0.1778
    1SAPS   O22   25   6.580   5.115   6.500 -0.4517  1.0031 -0.1861
    1SAPS   C22   26   6.546   5.244   6.294  0.4202  0.2047 -1.1319
    1SAPS   H2R   27   6.656   5.242   6.275  0.4211  2.3587 -1.7008
    1SAPS   H2S   28   6.491   5.218   6.202  0.6739 -1.6788 -0.7760
    1SAPS    C3   29   6.205   4.977   6.429 -0.0373 -0.2116 -0.4718
    1SAPS    HX   30   6.138   5.045   6.372 -1.7753 -1.1349  0.3904
    1SAPS    HY   31   6.132   4.932   6.500  1.0626  0.3090  1.0501
    1SAPS   O31   32   6.275   4.873   6.355  0.0732 -0.2817  0.0505
    1SAPS   C31   33   6.239   4.842   6.241  0.2397 -0.5759 -0.7305
    1SAPS   O32   34   6.137   4.879   6.187 -0.2683 -0.5602  0.2762
    1SAPS   C32   35   6.328   4.734   6.179  0.5243 -0.7401  0.1296
    1SAPS   H2X   36   6.269   4.641   6.196  1.0246 -1.1273 -0.2129
    1SAPS   H2Y   37   6.420   4.727   6.242  2.1263  3.4306 -1.3561
    1SAPS   C23   38   6.518   5.393   6.325  0.2129  0.4694 -0.9505
    1SAPS   H3R   39   6.588   5.422   6.406  3.2562 -0.8202 -2.9245
    1SAPS   H3S   40   6.414   5.418   6.353 -0.0673  1.0218 -2.4157
    1SAPS   C24   41   6.557   5.485   6.205  0.3410  0.4620 -0.2645
    1SAPS   H4R   42   6.529   5.590   6.230 -2.5724  0.0073 -1.3340
    1SAPS   H4S   43   6.493   5.450   6.122  1.4304 -0.9051 -0.5555
    1SAPS   C25   44   6.704   5.486   6.171  0.3388 -0.3128  1.5019
    1SAPS   H5R   45   6.774   5.461   6.252  0.2058  1.4632  2.2062
    1SAPS   C26   46   6.762   5.519   6.055  0.2516 -0.7522  0.4618
    1SAPS   H6R   47   6.872   5.510   6.049  0.2714 -0.5261  0.4455
    1SAPS   C27   48   6.707   5.560   5.915  0.0371  0.3156 -0.9027
    1SAPS   H7R   49   6.629   5.490   5.877  1.2892 -0.1821 -2.6933
    1SAPS   H7S   50   6.787   5.538   5.841  0.6314 -0.0045 -0.1708
    1SAPS   C28   51   6.663   5.704   5.901  0.4889 -0.6681 -0.2264
    1SAPS   H8R   52   6.623   5.743   5.996 -0.8008 -1.7878 -0.2713
    1SAPS   C29   53   6.661   5.784   5.794  0.1183 -0.0131  0.3093
    1SAPS   H9R   54   6.609   5.880   5.803  1.1794  0.4573  1.9332
    1SAPS  C210   55   6.700   5.763   5.646  0.1267 -0.8738 -0.3501
    1SAPS  H10R   56   6.791   5.701   5.635  0.4984 -0.4135  0.0925
    1SAPS  H10S   57   6.719   5.867   5.612  1.5010 -0.5826  1.2134
    1SAPS  C211   58   6.582   5.706   5.574  1.1007  0.0309  0.2121
    1SAPS  H11R   59   6.523   5.627   5.622  1.0240  0.9001  1.6298
    1SAPS  C212   60   6.539   5.744   5.450 -0.7013 -0.6891  0.2362
    1SAPS  H12R   61   6.447   5.708   5.403 -2.6055  0.8772  2.4602
    1SAPS  C213   62   6.601   5.845   5.365 -0.8056 -1.0040  0.2457
    1SAPS  H13R   63   6.705   5.812   5.342 -1.3472 -1.9948 -0.8840
    1SAPS  H13S   64   6.612   5.938   5.425 -0.0709 -1.3605  0.6816
    1SAPS  C214   65   6.532   5.877   5.235  0.3423  0.2434 -0.3512
    1SAPS  H14R   66   6.449   5.949   5.241 -0.0915 -0.3268  0.9047
    1SAPS  C215   67   6.536   5.808   5.118  0.2681 -0.8100 -0.5818
    1SAPS  H15R   68   6.482   5.851   5.032  1.6593  0.7860 -0.7242
    1SAPS  C216   69   6.633   5.699   5.085 -0.0745  0.5295 -0.5619
    1SAPS  H16R   70   6.683   5.668   5.179 -0.1538  3.1508  0.4373
    1SAPS  H16S   71   6.711   5.734   5.014  0.1701  0.1101 -0.4995
    1SAPS  C217   72   6.550   5.583   5.025  0.1445  0.8176  0.4132
    1SAPS  H17R   73   6.481   5.552   5.107  0.0373  1.2333  0.4794
    1SAPS  H17S   74   6.622   5.498   5.036 -0.6593  0.2128  1.1573
    1SAPS  C218   75   6.475   5.601   4.892 -0.0583  0.0241 -0.1782
    1SAPS  H18R   76   6.416   5.695   4.890  0.9931  0.7002 -1.3611
    1SAPS  H18S   77   6.398   5.521   4.883  0.1804  0.0125 -3.7396
    1SAPS  C219   78   6.568   5.600   4.772 -0.0855  0.0056  0.1664
    1SAPS  H19R   79   6.659   5.663   4.780 -0.6663  1.0864 -1.2840
    1SAPS  H19S   80   6.511   5.644   4.687  1.1195 -1.0241 -1.2389
    1SAPS  C220   81   6.614   5.458   4.746 -0.6632 -0.0977 -0.5184
    1SAPS  H20R   82   6.656   5.408   4.836 -3.3435 -3.8269 -1.0978
    1SAPS  H20S   83   6.682   5.454   4.659 -0.0110 -0.6223  0.0064
    1SAPS  H20T   84   6.531   5.401   4.700 -0.3757  0.6049 -1.9527
    1SAPS   C33   85   6.368   4.766   6.031 -0.6076 -0.8652  0.2995
    1SAPS   H3X   86   6.274   4.785   5.975 -0.1625  0.1951 -0.1260
    1SAPS   H3Y   87   6.432   4.685   5.989 -2.2435 -1.5966 -0.8799
    1SAPS   C34   88   6.457   4.893   6.014  0.3934  0.0571 -0.2922
    1SAPS   H4X   89   6.542   4.878   6.083 -0.4142  0.0832  0.7407
    1SAPS   H4Y   90   6.402   4.980   6.056 -0.0950  1.1058 -2.9368
    1SAPS   C35   91   6.496   4.922   5.870  0.1281  0.3084  0.4120
    1SAPS   H5X   92   6.559   4.846   5.818 -0.8108  0.4926 -1.0469
    1SAPS   H5Y   93   6.561   5.012   5.860 -1.1445  0.9750 -3.2198
    1SAPS   C36   94   6.385   4.942   5.770 -0.2948  1.0312  0.3827
    1SAPS   H6X   95   6.322   5.028   5.803 -0.3985  0.9875  0.2974
    1SAPS   H6Y   96   6.314   4.856   5.767 -1.2990  1.8694 -0.7044
    1SAPS   C37   97   6.443   4.960   5.632 -0.6527  0.5996  0.0076
    1SAPS   H7X   98   6.519   4.882   5.612 -0.8044  0.5971 -0.6013
    1SAPS   H7Y   99   6.504   5.053   5.630 -1.3538  1.1216  1.6236
    1SAPS   C38  100   6.340   4.976   5.518  0.1692  0.1621 -0.6541
    1SAPS   H8X  101   6.274   5.058   5.554  0.3707 -0.2933  0.8239
    1SAPS   H8Y  102   6.281   4.883   5.509 -1.1799  0.9407 -0.0963
    1SAPS   C39  103   6.405   5.011   5.389  0.5265 -0.6764  0.5923
    1SAPS   H9X  104   6.473   4.929   5.361  0.1097 -0.1687 -2.3028
    1SAPS   H9Y  105   6.475   5.096   5.401  0.5851 -0.5745 -0.3447
    1SAPS  C310  106   6.316   5.038   5.266 -0.6662  0.5219  0.4387
    1SAPS  H10X  107   6.244   5.121   5.283 -2.6517 -0.4468 -2.3727
    1SAPS  H10Y  108   6.260   4.944   5.244  3.3622 -1.7521 -1.1131
    1SAPS  C311  109   6.416   5.079   5.148 -0.1273  0.1887  0.3568
    1SAPS  H11X  110   6.503   5.012   5.133 -0.2925  0.1117 -0.2969
    1SAPS  H11Y  111   6.439   5.187   5.158  1.1931 -0.1948  1.7158
    1SAPS  C312  112   6.336   5.073   5.011 -0.2318 -0.1138  0.1152
    1SAPS  H12X  113   6.245   5.135   5.027  0.5675  0.9794  0.6102
    1SAPS  H12Y  114   6.313   4.968   4.985  2.1469 -0.9492  1.0659
    1SAPS  C313  115   6.399   5.146   4.888 -0.2654  0.9792 -0.2254
    1SAPS  H13X  116   6.485   5.082   4.857 -0.8348 -0.3831  0.9301
    1SAPS  H13Y  117   6.438   5.247   4.915 -1.4982  1.6721 -0.9521
    1SAPS  C314  118   6.301   5.153   4.774  0.0591 -0.1855 -0.6484
    1SAPS  H14X  119   6.240   5.243   4.796  1.4332  0.6000  0.0615
    1SAPS  H14Y  120   6.238   5.062   4.789  0.4646 -0.3090  0.3862
    1SAPS  C315  121   6.355   5.173   4.629  0.2231  0.0347 -0.3363
    1SAPS  H15X  122   6.403   5.085   4.581  0.8438  1.0643 -1.6686
    1SAPS  H15Y  123   6.442   5.241   4.628  0.1191  0.3146  2.2276
    1SAPS  C316  124   6.251   5.232   4.540  0.6365  0.0646  0.3191
    1SAPS  H16X  125   6.306   5.277   4.455 -0.4999 -2.2235 -1.7448
    1SAPS  H16Y  126   6.192   5.306   4.599  1.8704  0.8114  0.6502
    1SAPS  C317  127   6.155   5.132   4.480  0.6281  0.4029 -0.2385
    1SAPS  H17X  128   6.088   5.108   4.565  1.6327 -1.1215  0.1750
    1SAPS  H17Y  129   6.215   5.044   4.447  0.7371  0.8927 -1.3990
    1SAPS  C318  130   6.080   5.187   4.360 -0.4055  0.5514 -0.4417
    1SAPS  H18X  131   5.988   5.131   4.332 -1.5199  2.5989 -1.0868
    1SAPS  H18Y  132   6.147   5.180   4.272  1.4972  0.3788  0.9554
    1SAPS  H18Z  133   6.054   5.293   4.377 -1.7697  0.0227  0.9951
    2SAPS     N  134   6.359   6.129   6.680  0.1092  0.1822 -0.4561
    2SAPS   HN1  135   6.266   6.149   6.722 -0.0470  2.1393 -1.5948
    2SAPS   HN2  136   6.435   6.173   6.736  1.2403 -1.8276 -0.3106
    2SAPS   HN3  137   6.350   6.179   6.589  0.3533  0.3479 -0.3928
    2SAPS   C12  138   6.376   5.987   6.657  0.2362  0.9602  0.2349
    2SAPS  H12A  139   6.452   5.971   6.583  0.7787 -0.6200  1.0798
    2SAPS   C13  140   6.419   5.895   6.772 -0.4923  0.1507  0.2511
    2SAPS  O13A  141   6.434   5.951   6.885  0.0687  0.6379 -0.0336
    2SAPS  O13B  142   6.458   5.780   6.748 -0.4747 -0.9683  0.5935
    2SAPS   C11  143   6.249   5.937   6.584 -0.0104 -0.1216 -0.5332
    2SAPS  H11A  144   6.273   5.834   6.549  2.3063 -0.1863  1.0033
    2SAPS  H11B  145   6.245   5.994   6.489  0.2017  0.2545 -0.3165
    2SAPS     P  146   5.991   5.925   6.588 -0.4106 -0.1915 -0.1775
    2SAPS   O13  147   5.892   5.865   6.681 -0.0085  0.8620 -0.3972
    2SAPS   O14  148   5.953   6.054   6.529  0.7035 -0.0135 -0.3733
    2SAPS   O12  149   6.129   5.946   6.661 -0.4994 -0.3415 -0.0611
    2SAPS   O11  150   6.026   5.829   6.477 -0.4385  0.6277 -0.0586
    2SAPS    C1  151   6.010   5.691   6.486 -0.1756  0.6456 -0.4701
    2SAPS    HA  152   6.025   5.646   6.586  1.9308  0.1741 -0.9413
    2SAPS    HB  153   5.909   5.667   6.445  0.4713  0.6340 -2.1505
    2SAPS    C2  154   6.114   5.609   6.406  0.1954 -0.7533 -0.0744
    2SAPS    HS  155   6.217   5.629   6.443  1.2988 -1.9180 -2.3289
    2SAPS   O21  156   6.091   5.645   6.261  0.6941 -0.0573  0.4839
    2SAPS   C21  157   6.197   5.691   6.195 -0.6402 -0.1680  0.3802
    2SAPS   O22  158   6.311   5.696   6.238  0.0826  0.1984 -0.2507
    2SAPS   C22  159   6.165   5.738   6.049 -0.6600 -0.7532 -0.1909
    2SAPS   H2R  160   6.105   5.658   6.001 -2.2859  0.1250  0.2794
    2SAPS   H2S  161   6.092   5.821   6.061 -0.9757 -0.6438 -2.4358
    2SAPS    C3  162   6.084   5.456   6.411 -0.0512  0.3338 -0.2343
    2SAPS    HX  163   5.977   5.435   6.388  0.9020 -1.8182 -3.4306
    2SAPS    HY  164   6.098   5.418   6.514  2.9137  1.7184 -0.0193
    2SAPS   O31  165   6.163   5.376   6.317  0.0820  0.1625 -0.4988
    2SAPS   C31  166   6.104   5.284   6.241  0.5380  0.0936  0.2675
    2SAPS   O32  167   5.988   5.251   6.250  0.6455 -0.1142 -0.6983
    2SAPS   C32  168   6.202   5.231   6.139 -0.5951  0.4787  0.4979
    2SAPS   H2X  169   6.154   5.148   6.084  2.9417  0.0232 -2.2806
    2SAPS   H2Y  170   6.285   5.182   6.193 -2.1229 -0.8780  1.7088
    2SAPS   C23  171   6.293   5.779   5.969  0.5084 -0.0156  0.6405
    2SAPS   H3R  172   6.374   5.703   5.967  2.6782  2.1422  1.3804
    2SAPS   H3S  173   6.345   5.865   6.016  2.1565 -1.1387  0.9394
    2SAPS   C24  174   6.255   5.813   5.824  0.4265  0.1567 -0.2649
    2SAPS   H4R  175   6.207   5.723   5.780 -1.6477 -0.0274  2.1385
    2SAPS   H4S  176   6.353   5.822   5.772 -0.1451  1.3734 -1.1730
    2SAPS   C25  177   6.161   5.934   5.805 -0.3524  0.9651  0.0884
    2SAPS   H5R  178   6.114   5.971   5.898 -1.6368 -0.1981 -0.0615
    2SAPS   C26  179   6.148   6.008   5.688 -0.2362 -0.5383 -0.4228
    2SAPS   H6R  180   6.082   6.095   5.690 -1.8389 -1.7041  0.0273
    2SAPS   C27  181   6.205   5.977   5.555 -0.0439 -0.4708  0.4835
    2SAPS   H7R  182   6.312   5.948   5.566  0.1689  0.5607  1.3720
    2SAPS   H7S  183   6.203   6.068   5.490  1.2463 -0.6643  0.1336
    2SAPS   C28  184   6.141   5.863   5.484 -0.3940 -0.5031 -0.0791
    2SAPS   H8R  185   6.093   5.789   5.550  1.7092 -1.0368  0.9284
    2SAPS   C29  186   6.126   5.860   5.349 -0.3451  0.1883 -0.3894
    2SAPS   H9R  187   6.080   5.766   5.316  1.5340 -1.7341  2.0969
    2SAPS  C210  188   6.156   5.966   5.242 -0.0382  0.5122  1.1590
    2SAPS  H10R  189   6.243   6.024   5.280  2.9077 -1.1349 -2.3880
    2SAPS  H10S  190   6.074   6.037   5.218  0.7075  0.5255 -1.8372
    2SAPS  C211  191   6.204   5.895   5.112 -0.7108  0.8349 -0.8491
    2SAPS  H11R  192   6.251   5.799   5.140 -1.7979  0.3953 -0.4663
    2SAPS  C212  193   6.217   5.942   4.994 -0.7744  0.9333 -0.5938
    2SAPS  H12R  194   6.259   5.877   4.916 -0.0463  0.8272 -0.1168
    2SAPS  C213  195   6.180   6.081   4.944  0.3701  0.1143 -0.5524
    2SAPS  H13R  196   6.261   6.123   4.880 -0.8841  1.2139 -1.4726
    2SAPS  H13S  197   6.172   6.162   5.020 -1.5542  0.8240 -1.4411
    2SAPS  C214  198   6.046   6.082   4.879 -0.8243 -0.4257  0.7675
    2SAPS  H14R  199   5.967   6.116   4.948 -0.7991  0.3955  0.4136
    2SAPS  C215  200   6.019   6.055   4.751 -0.7168  0.7766 -0.0495
    2SAPS  H15R  201   5.915   6.056   4.714 -1.3949 -3.8542  1.1049
    2SAPS  C216  202   6.124   6.025   4.643 -0.5538 -0.2612 -0.1015
    2SAPS  H16R  203   6.167   5.924   4.656 -0.9110 -0.3432  0.4732
    2SAPS  H16S  204   6.202   6.103   4.653 -1.3081  0.5482 -0.4103
    2SAPS  C217  205   6.061   6.018   4.503  0.5581 -0.4978 -0.5000
    2SAPS  H17R  206   5.976   5.946   4.496  0.1143  0.0392 -0.7495
    2SAPS  H17S  207   6.143   5.974   4.443  1.7287 -2.3287  2.2719
    2SAPS  C218  208   6.014   6.155   4.441 -0.3791  0.2587 -0.0759
    2SAPS  H18R  209   5.921   6.179   4.497  0.5599 -0.6700  2.0040
    2SAPS  H18S  210   5.984   6.135   4.336  0.3595  1.4688 -0.5331
    2SAPS  C219  211   6.108   6.275   4.458  0.4782  0.3546  0.5273
    2SAPS  H19R  212   6.214   6.243   4.445  0.8054  1.7031 -0.3267
    2SAPS  H19S  213   6.110   6.305   4.565 -0.4389 -0.9415  0.9313
    2SAPS  C220  214   6.082   6.387   4.356  0.2103  0.5198 -0.5106
    2SAPS  H20R  215   5.983   6.424   4.392  0.5286 -1.8223  3.1941
    2SAPS  H20S  216   6.075   6.348   4.252  2.3310 -2.3768  0.3213
    2SAPS  H20T  217   6.157   6.468   4.367  0.5962  0.4162 -2.0694
    2SAPS   C33  218   6.245   5.340   6.039  0.0120 -0.0642 -0.6723
    2SAPS   H3X  219   6.333   5.295   5.988  0.4633 -0.0799  0.1123
    2SAPS   H3Y  220   6.278   5.429   6.097 -2.0233  0.4210 -0.1677
    2SAPS   C34  221   6.132   5.365   5.942 -0.1619  0.1927 -0.2787
    2SAPS   H4X  222   6.058   5.427   5.997  1.1097  0.4477  1.1954
    2SAPS   H4Y  223   6.083   5.272   5.908  1.0580 -0.1519 -1.1642
    2SAPS   C35  224   6.176   5.447   5.819 -0.1015  0.7188  0.0819
    2SAPS   H5X  225   6.217   5.546   5.847  0.4191  1.1630 -2.0384
    2SAPS   H5Y  226   6.087   5.477   5.758 -0.7004 -2.9717 -1.1662
    2SAPS   C36  227   6.261   5.368   5.718  0.7561 -0.3073  0.0354
    2SAPS   H6X  228   6.208   5.270   5.711  1.4358 -0.7035  0.3081
    2SAPS   H6Y  229   6.364   5.352   5.757 -0.2463 -3.7388  1.6952
    2SAPS   C37  230   6.262   5.432   5.583  0.5382  0.2083  0.2360
    2SAPS   H7X  231   6.307   5.533   5.579  0.2154  0.3698  0.6118
    2SAPS   H7Y  232   6.153   5.444   5.564  0.0633  0.2054  2.6681
    2SAPS   C38  233   6.321   5.343   5.471  0.1552  0.7092 -0.3789
    2SAPS   H8X  234   6.256   5.254   5.463 -0.4197  1.3034 -3.0094
    2SAPS   H8Y  235   6.423   5.319   5.509 -0.0926  0.0007 -0.1470
    2SAPS   C39  236   6.332   5.431   5.340 -0.1512  0.7973 -0.3309
    2SAPS   H9X  237   6.392   5.366   5.273 -0.5797 -0.6352  0.6313
    2SAPS   H9Y  238   6.389   5.526   5.350 -0.7368  1.3477 -1.8572
    2SAPS  C310  239   6.196   5.455   5.273 -0.0541 -0.0664 -0.2297
    2SAPS  H10X  240   6.154   5.536   5.337 -0.2370 -1.1837  1.1157
    2SAPS  H10Y  241   6.121   5.375   5.287 -1.4995  1.3013  0.2054
    2SAPS  C311  242   6.194   5.510   5.130 -0.6837 -0.0633  0.4763
    2SAPS  H11X  243   6.242   5.435   5.063 -0.9549 -1.7245  2.0645
    2SAPS  H11Y  244   6.258   5.601   5.126  1.3907 -1.4992 -2.0171
    2SAPS  C312  245   6.051   5.529   5.093 -0.1935  0.3781  0.1345
    2SAPS  H12X  246   6.013   5.628   5.126 -1.7632 -0.0521 -0.2936
    2SAPS  H12Y  247   5.998   5.451   5.153 -0.3308  1.6108  1.7002
    2SAPS  C313  248   6.031   5.524   4.942 -0.3505  0.9441 -0.1115
    2SAPS  H13X  249   5.923   5.504   4.925 -0.2659  1.5440 -1.4679
    2SAPS  H13Y  250   6.084   5.434   4.906  0.1929  1.9256 -1.9090
    2SAPS  C314  251   6.077   5.650   4.864  0.0390  0.7078  0.1147
    2SAPS  H14X  252   6.187   5.661   4.860 -0.0847  1.8365 -2.4171
    2SAPS  H14Y  253   6.047   5.743   4.915 -2.9856  0.6953 -1.4081
    2SAPS  C315  254   6.037   5.643   4.714  0.2978  0.1311  0.7333
    2SAPS  H15X  255   6.010   5.742   4.672  0.1962  0.1698  0.8893
    2SAPS  H15Y  256   5.945   5.586   4.692  1.1116 -1.8722  2.1725
    2SAPS  C316  257   6.157   5.588   4.629 -0.9065 -0.5073  0.1625
    2SAPS  H16X  258   6.208   5.509   4.689 -1.5373 -2.3736 -1.6223
    2SAPS  H16Y  259   6.224   5.676   4.618 -1.0758 -0.2561  1.1073
    2SAPS  C317  260   6.105   5.524   4.494 -0.0054  0.5894 -0.1085
    2SAPS  H17X  261   6.039   5.440   4.525  0.8931  0.0733  0.4621
    2SAPS  H17Y  262   6.193   5.487   4.438 -1.3027 -1.8153 -0.7020
    2SAPS  C318  263   6.036   5.629   4.404  0.2104 -0.2477 -0.2403
    2SAPS  H18X  264   5.988   5.589   4.312 -1.2347  1.6287 -0.3572
    2SAPS  H18Y  265   6.099   5.712   4.366  1.0604 -0.9843 -0.4910
    2SAPS  H18Z  266   5.952   5.669   4.464  2.8475  2.2243  2.1641
    3SAPS     N  267   5.315   5.839   6.896  0.4636  0.3014 -0.3499
    3SAPS   HN1  268   5.401   5.873   6.850 -0.0880  3.6063  0.8253
    3SAPS   HN2  269   5.248   5.850   6.818  0.9431  0.9516 -0.6717
    3SAPS   HN3  270   5.282   5.895   6.977  1.9123  0.8422 -0.1060
    3SAPS   C12  271   5.334   5.698   6.949 -0.4728  0.3268  0.5520
    3SAPS  H12A  272   5.434   5.689   6.989 -0.6146 -2.9708  0.4647
    3SAPS   C13  273   5.230   5.634   7.046 -0.2974  0.2692 -0.4943
    3SAPS  O13A  274   5.130   5.698   7.080 -0.6386 -0.3351 -0.1121
    3SAPS  O13B  275   5.264   5.526   7.097 -0.3544  0.8127 -0.1870
    3SAPS   C11  276   5.351   5.589   6.830  0.5933  0.1003 -0.5513
    3SAPS  H11A  277   5.342   5.487   6.874  0.0811  0.7069  0.7954
    3SAPS  H11B  278   5.454   5.604   6.791  0.3348  0.0855 -1.2587
    3SAPS     P  279   5.272   5.515   6.591 -0.0131 -0.1708 -0.1397
    3SAPS   O13  280   5.255   5.372   6.631  0.6433 -0.4016  0.5010
    3SAPS   O14  281   5.175   5.562   6.485 -0.9822  0.0117  0.4025
    3SAPS   O12  282   5.250   5.603   6.727  0.3652  0.0404  0.4368
    3SAPS   O11  283   5.426   5.539   6.556 -0.1328  0.2513  0.1212
    3SAPS    C1  284   5.467   5.668   6.514 -1.0133  0.3346 -0.3578
    3SAPS    HA  285   5.415   5.747   6.573 -0.7426 -0.7684  1.4399
    3SAPS    HB  286   5.575   5.683   6.533 -0.7223  0.5295 -2.0679
    3SAPS    C2  287   5.456   5.706   6.361  0.4561  0.4676  0.0823
    3SAPS    HS  288   5.364   5.664   6.316  1.6301 -1.7781 -0.3503
    3SAPS   O21  289   5.572   5.662   6.289 -0.1558 -0.4755 -0.1286
    3SAPS   C21  290   5.575   5.555   6.218 -0.0845 -0.4216 -0.7584
    3SAPS   O22  291   5.480   5.482   6.204 -0.0684 -0.0566  0.2475
    3SAPS   C22  292   5.712   5.545   6.160 -0.0566 -0.1677 -0.5559
    3SAPS   H2R  293   5.777   5.466   6.205  2.2052  0.8193 -1.9337
    3SAPS   H2S  294   5.701   5.495   6.061  0.1963 -0.0735 -0.6326
    3SAPS    C3  295   5.428   5.857   6.336 -0.0063 -0.9131 -0.8545
    3SAPS    HX  296   5.516   5.907   6.382 -1.6977  0.8251  0.6708
    3SAPS    HY  297   5.341   5.900   6.390  0.0023 -3.0154  1.0143
    3SAPS   O31  298   5.431   5.893   6.201  0.6493  0.6252  0.8433
    3SAPS   C31  299   5.309   5.882   6.139 -0.3896  0.6196  0.0379
    3SAPS   O32  300   5.207   5.856   6.199  0.2158 -0.0719 -0.0160
    3SAPS   C32  301   5.328   5.916   5.990  0.0413  0.1897 -0.2027
    3SAPS   H2X  302   5.432   5.954   5.974  0.2854 -0.9804 -1.5900
    3SAPS   H2Y  303   5.249   5.993   5.976 -0.7262 -0.3475  1.0624
    3SAPS   C23  304   5.793   5.681   6.141  0.1146 -0.7172 -0.2863
    3SAPS   H3R  305   5.899   5.661   6.117  0.7786  1.7193  0.3153
    3SAPS   H3S  306   5.801   5.720   6.245  0.8708  0.5980 -0.8103
    3SAPS   C24  307   5.730   5.790   6.048 -0.0858 -0.6418  0.2436
    3SAPS   H4R  308   5.727   5.891   6.092 -0.7939 -0.4858 -0.1484
    3SAPS   H4S  309   5.623   5.764   6.029  0.0060 -1.7587  1.1469
    3SAPS   C25  310   5.803   5.785   5.914  0.0478 -0.6614  0.7605
    3SAPS   H5R  311   5.895   5.845   5.908  0.2074 -1.0058 -0.5101
    3SAPS   C26  312   5.764   5.728   5.796 -0.3371 -0.2100  0.4553
    3SAPS   H6R  313   5.836   5.739   5.714 -0.5334 -0.9608  0.1710
    3SAPS   C27  314   5.639   5.646   5.773 -0.0108  0.0785 -0.4010
    3SAPS   H7R  315   5.556   5.713   5.742 -0.9982 -0.3426  1.1794
    3SAPS   H7S  316   5.604   5.605   5.870 -0.3539  0.9957 -0.1316
    3SAPS   C28  317   5.644   5.541   5.670 -0.6577 -0.6097  0.3393
    3SAPS   H8R  318   5.617   5.440   5.705 -0.8110 -0.6974 -0.0164
    3SAPS   C29  319   5.662   5.568   5.536 -0.2034  0.1812  0.6357
    3SAPS   H9R  320   5.668   5.481   5.470 -1.5664 -0.1972  0.9843
    3SAPS  C210  321   5.688   5.701   5.459 -0.7066  0.3981 -0.5123
    3SAPS  H10R  322   5.784   5.686   5.405  0.3066 -0.9782  1.5747
    3SAPS  H10S  323   5.702   5.780   5.536 -0.6396 -1.3199  1.3100
    3SAPS  C211  324   5.572   5.725   5.367 -0.0680  0.3980  0.9435
    3SAPS  H11R  325   5.491   5.789   5.407 -0.0859  1.9784 -1.4110
    3SAPS  C212  326   5.540   5.672   5.250  0.2220 -0.2822 -0.5080
    3SAPS  H12R  327   5.443   5.700   5.206  1.2609 -0.3987 -3.0676
    3SAPS  C213  328   5.632   5.588   5.168 -0.1731  0.0068 -0.5767
    3SAPS  H13R  329   5.607   5.480   5.163 -0.4947 -0.0293  1.2797
    3SAPS  H13S  330   5.735   5.591   5.207 -1.0007  1.8386  1.6962
    3SAPS  C214  331   5.638   5.638   5.023  0.4135  0.4209 -0.0753
    3SAPS  H14R  332   5.696   5.731   5.014  1.7386  0.0579  3.2675
    3SAPS  C215  333   5.569   5.595   4.916  0.9843 -0.5054 -0.4184
    3SAPS  H15R  334   5.575   5.657   4.826 -0.3304  0.1687 -0.0795
    3SAPS  C216  335   5.472   5.471   4.913 -0.4781 -0.9429  0.3366
    3SAPS  H16R  336   5.430   5.442   5.011 -0.8707  0.7383  0.6887
    3SAPS  H16S  337   5.531   5.387   4.868  0.5767 -1.2597  2.2215
    3SAPS  C217  338   5.341   5.507   4.828 -0.4042  0.0039 -0.7268
    3SAPS  H17R  339   5.302   5.608   4.854  0.3536  0.5041 -1.4653
    3SAPS  H17S  340   5.278   5.419   4.851  0.3824 -0.4620 -0.3308
    3SAPS  C218  341   5.360   5.535   4.677 -0.4761 -0.1063  0.3843
    3SAPS  H18R  342   5.425   5.623   4.659  0.7892 -1.0510  0.1666
    3SAPS  H18S  343   5.261   5.543   4.626 -1.0059  0.7265  1.5225
    3SAPS  C219  344   5.433   5.408   4.603 -0.8072 -0.1320  0.5612
    3SAPS  H19R  345   5.536   5.407   4.644 -0.2339  0.5912 -0.7801
    3SAPS  H19S  346   5.368   5.319   4.618 -0.1839 -1.0890 -1.9164
    3SAPS  C220  347   5.458   5.442   4.452  0.0556 -0.8667  0.8904
    3SAPS  H20R  348   5.527   5.369   4.405 -1.4258 -1.9286  0.2820
    3SAPS  H20S  349   5.510   5.540   4.444 -0.5751 -0.6630 -1.0011
    3SAPS  H20T  350   5.359   5.445   4.401  0.3876 -0.5114  0.2597
    3SAPS   C33  351   5.304   5.796   5.896 -0.4738  0.5672 -0.0888
    3SAPS   H3X  352   5.213   5.742   5.930  1.2173 -1.6096  1.2191
    3SAPS   H3Y  353   5.388   5.726   5.912 -1.1369 -0.2759 -0.2189
    3SAPS   C34  354   5.285   5.832   5.752  0.1107 -0.1261 -0.9701
    3SAPS   H4X  355   5.385   5.839   5.703  2.1084 -0.4505  2.6751
    3SAPS   H4Y  356   5.228   5.925   5.731  0.0358 -0.1174 -0.7409
    3SAPS   C35  357   5.202   5.728   5.671 -0.2961 -0.1046 -0.2640
    3SAPS   H5X  358   5.268   5.639   5.673  1.1621  0.8335  3.6297
    3SAPS   H5Y  359   5.102   5.716   5.718  0.6659  1.1096  2.3380
    3SAPS   C36  360   5.185   5.791   5.533  0.7800  0.4034  0.3909
    3SAPS   H6X  361   5.282   5.827   5.493  1.4487 -1.4069  0.2931
    3SAPS   H6Y  362   5.100   5.862   5.539 -1.2351 -1.9597  1.7053
    3SAPS   C37  363   5.144   5.679   5.428  0.4042 -0.6826  0.3711
    3SAPS   H7X  364   5.051   5.633   5.468  0.0295  0.0642  0.3709
    3SAPS   H7Y  365   5.226   5.603   5.429  1.1701  0.1333  1.5105
    3SAPS   C38  366   5.136   5.722   5.279 -0.1317 -0.2725 -0.6399
    3SAPS   H8X  367   5.231   5.758   5.235 -0.4560  1.1893 -0.1838
    3SAPS   H8Y  368   5.073   5.812   5.269 -1.4191 -1.3622 -2.9012
    3SAPS   C39  369   5.064   5.617   5.193  0.2512  0.1298  1.1213
    3SAPS   H9X  370   4.962   5.605   5.235 -0.8478 -0.3515 -1.4803
    3SAPS   H9Y  371   5.113   5.518   5.187 -0.0317  0.0860 -1.8525
    3SAPS  C310  372   5.040   5.674   5.052 -0.0934 -0.9446  0.6168
    3SAPS  H10X  373   5.135   5.715   5.011 -0.6889 -0.9410 -0.8171
    3SAPS  H10Y  374   4.966   5.756   5.056 -1.0861 -1.6549 -1.6349
    3SAPS  C311  375   4.995   5.569   4.948 -0.5306 -1.2998 -0.0093
    3SAPS  H11X  376   4.894   5.525   4.964 -0.7131 -2.3009 -3.1747
    3SAPS  H11Y  377   5.060   5.480   4.966  0.5670 -0.1944  1.7829
    3SAPS  C312  378   5.002   5.616   4.803 -0.4285  0.3677  0.1671
    3SAPS  H12X  379   5.103   5.655   4.776 -0.3522 -1.0142 -1.7812
    3SAPS  H12Y  380   4.942   5.708   4.786  0.3036  0.9356  0.5994
    3SAPS  C313  381   4.953   5.506   4.715  0.4558  0.8980 -0.0307
    3SAPS  H13X  382   4.861   5.466   4.762 -0.0691  1.6639 -0.3794
    3SAPS  H13Y  383   5.019   5.417   4.712 -0.9700 -0.1775 -2.6787
    3SAPS  C314  384   4.911   5.566   4.577 -0.7746 -0.4054 -0.4240
    3SAPS  H14X  385   4.999   5.623   4.542 -0.9515 -0.2029 -0.5383
    3SAPS  H14Y  386   4.829   5.640   4.589  0.2597  0.6710  0.1337
    3SAPS  C315  387   4.876   5.458   4.476  0.6289 -0.0168 -0.2597
    3SAPS  H15X  388   4.792   5.404   4.525 -0.5591 -0.0182 -2.2277
    3SAPS  H15Y  389   4.949   5.374   4.466  0.1878 -0.2116 -2.4059
    3SAPS  C316  390   4.851   5.511   4.333 -0.4138 -0.7975 -0.2790
    3SAPS  H16X  391   4.915   5.449   4.267 -0.0379 -0.1963 -0.4860
    3SAPS  H16Y  392   4.886   5.617   4.333 -1.4352 -0.4402  0.6868
    3SAPS  C317  393   4.703   5.507   4.288 -0.3083  0.0384 -0.1411
    3SAPS  H17X  394   4.688   5.572   4.198  0.6634 -0.6236 -0.8089
    3SAPS  H17Y  395   4.630   5.547   4.361 -1.9634  1.0319 -2.2218
    3SAPS  C318  396   4.669   5.365   4.247  0.4886 -1.1272  0.6159
    3SAPS  H18X  397   4.561   5.362   4.221  0.3745  1.0828  0.6331
    3SAPS  H18Y  398   4.683   5.303   4.338  3.2743 -0.1488  0.9475
    3SAPS  H18Z  399   4.732   5.330   4.163 -0.4200  2.1663 -1.6226
    4SAPS     N  400   4.101   3.577   6.533 -0.9342 -0.0249  0.2209
    4SAPS   HN1  401   4.097   3.478   6.565 -0.2755 -0.7567 -1.7846
    4SAPS   HN2  402   4.133   3.565   6.435  0.5807  0.1002  0.6711
    4SAPS   HN3  403   4.179   3.620   6.588 -1.4715  1.5348 -0.2067
    4SAPS   C12  404   3.976   3.658   6.542 -0.1809  0.2830 -0.3273
    4SAPS  H12A  405   3.945   3.667   6.645  0.0299  1.8839 -0.3831
    4SAPS   C13  406   3.988   3.809   6.515  0.0043 -1.2422  0.4655
    4SAPS  O13A  407   4.105   3.856   6.502  0.3036  0.4042 -0.0754
    4SAPS  O13B  408   3.881   3.866   6.478  0.1493  0.7820  0.1406
    4SAPS   C11  409   3.863   3.586   6.460 -0.2423 -0.5104 -0.2060
    4SAPS  H11A  410   3.892   3.583   6.353 -2.9039 -0.6943 -1.0001
    4SAPS  H11B  411   3.769   3.644   6.469 -0.5528 -1.0908  0.4007
    4SAPS     P  412   3.707   3.399   6.575 -0.0096 -0.0250 -0.2940
    4SAPS   O13  413   3.719   3.257   6.597  0.0659  0.2842 -0.5964
    4SAPS   O14  414   3.682   3.478   6.695 -0.2143  0.3151 -0.0941
    4SAPS   O12  415   3.841   3.452   6.509  0.2478  0.2484 -0.3452
    4SAPS   O11  416   3.598   3.434   6.466  0.1597 -0.2367  0.3034
    4SAPS    C1  417   3.576   3.353   6.355  0.6176  1.6027  0.3808
    4SAPS    HA  418   3.588   3.244   6.367 -1.7297  1.0095 -1.8390
    4SAPS    HB  419   3.466   3.361   6.337  0.4833  3.5389  1.6396
    4SAPS    C2  420   3.653   3.391   6.230 -0.1688  0.5287 -0.7051
    4SAPS    HS  421   3.761   3.383   6.255 -0.7925 -2.5624  1.5162
    4SAPS   O21  422   3.608   3.522   6.203 -0.0077  0.2447  0.5044
    4SAPS   C21  423   3.696   3.606   6.139  0.8058  0.9804  0.2110
    4SAPS   O22  424   3.815   3.579   6.123  0.2921  0.1589  0.3425
    4SAPS   C22  425   3.623   3.733   6.108  0.4896 -0.0531 -0.9954
    4SAPS   H2R  426   3.518   3.705   6.087  0.5488 -0.9610 -0.1728
    4SAPS   H2S  427   3.623   3.798   6.199 -2.8274  0.4750 -1.2398
    4SAPS    C3  428   3.616   3.302   6.108  0.0393  0.1655 -0.4334
    4SAPS    HX  429   3.506   3.305   6.100 -0.7448 -1.2399  5.3376
    4SAPS    HY  430   3.643   3.197   6.133 -0.6058  0.4077  1.4995
    4SAPS   O31  431   3.684   3.344   5.992 -0.2772 -0.1523  0.1125
    4SAPS   C31  432   3.809   3.307   5.975  0.1461  0.0357 -0.1515
    4SAPS   O32  433   3.876   3.228   6.043  0.1916  0.2300  0.3731
    4SAPS   C32  434   3.872   3.380   5.855  0.1511 -0.9056 -1.0480
    4SAPS   H2X  435   3.956   3.308   5.841 -0.0360 -1.2409 -0.5120
    4SAPS   H2Y  436   3.905   3.480   5.891 -1.3778 -0.2398 -1.4264
    4SAPS   C23  437   3.681   3.821   6.001  0.7211  0.4653 -0.3633
    4SAPS   H3R  438   3.784   3.842   6.034  1.1508 -1.0192 -0.6703
    4SAPS   H3S  439   3.631   3.919   5.988  0.3764  0.6344  1.8065
    4SAPS   C24  440   3.695   3.742   5.862 -0.0695 -1.0905  0.1344
    4SAPS   H4R  441   3.765   3.657   5.876  1.7828  0.1320 -1.2008
    4SAPS   H4S  442   3.745   3.804   5.785  0.7968 -2.1508 -0.1671
    4SAPS   C25  443   3.562   3.686   5.818  0.0945  0.2955 -0.3177
    4SAPS   H5R  444   3.519   3.607   5.882  0.5088  2.0592  2.2464
    4SAPS   C26  445   3.485   3.742   5.722 -0.2534 -0.2129  0.4631
    4SAPS   H6R  446   3.391   3.690   5.699 -1.0480  1.8014 -1.1195
    4SAPS   C27  447   3.518   3.864   5.643  0.0682 -0.4087  0.4384
    4SAPS   H7R  448   3.540   3.944   5.717 -3.7253  0.8226  0.4569
    4SAPS   H7S  449   3.425   3.900   5.594  1.2604  2.1269 -0.0854
    4SAPS   C28  450   3.623   3.838   5.536 -1.2760 -0.4276 -0.5851
    4SAPS   H8R  451   3.721   3.798   5.568 -1.7134 -1.8367 -0.9290
    4SAPS   C29  452   3.617   3.878   5.411  0.1368 -0.5595  0.0545
    4SAPS   H9R  453   3.699   3.860   5.340  0.3156 -1.4717  0.4811
    4SAPS  C210  454   3.506   3.946   5.342  0.2862 -0.4859  0.5105
    4SAPS  H10R  455   3.438   4.003   5.409 -1.5722 -0.8171 -1.0141
    4SAPS  H10S  456   3.446   3.861   5.302 -0.5948  0.3191  0.1002
    4SAPS  C211  457   3.544   4.019   5.212  0.0835 -0.1440 -0.1917
    4SAPS  H11R  458   3.542   4.129   5.222 -0.0027 -0.1415 -0.2372
    4SAPS  C212  459   3.578   3.964   5.096 -0.2021 -0.0429  0.3284
    4SAPS  H12R  460   3.611   4.029   5.014 -1.3836  1.2246  0.8274
    4SAPS  C213  461   3.576   3.819   5.065 -0.1209 -0.1880  0.4560
    4SAPS  H13R  462   3.482   3.792   5.012  0.1803  1.2644 -0.9027
    4SAPS  H13S  463   3.571   3.762   5.160 -1.7617  2.3464  2.0388
    4SAPS  C214  464   3.698   3.781   4.988  0.0753 -0.2741  0.1960
    4SAPS  H14R  465   3.779   3.735   5.046 -0.0136  0.2753  0.7634
    4SAPS  C215  466   3.724   3.791   4.857 -0.2560 -0.0143  0.0607
    4SAPS  H15R  467   3.816   3.750   4.812  0.6076  1.6920  0.2097
    4SAPS  C216  468   3.637   3.850   4.743  0.1631  1.2084 -0.0728
    4SAPS  H16R  469   3.710   3.889   4.669  0.0851  0.5357 -0.5166
    4SAPS  H16S  470   3.584   3.937   4.788 -1.2532 -0.2822  1.3068
    4SAPS  C217  471   3.538   3.753   4.686  0.3692  0.8198  0.1460
    4SAPS  H17R  472   3.470   3.704   4.758  1.3360 -0.8470 -0.0059
    4SAPS  H17S  473   3.593   3.676   4.627 -1.5678  1.5866 -2.8850
    4SAPS  C218  474   3.456   3.828   4.581  0.6018 -0.1724 -0.4557
    4SAPS  H18R  475   3.509   3.865   4.490 -1.0347 -1.3366 -1.9382
    4SAPS  H18S  476   3.412   3.916   4.633  0.8639  1.2201 -2.4828
    4SAPS  C219  477   3.350   3.742   4.512  0.6384  0.1048 -0.0481
    4SAPS  H19R  478   3.291   3.676   4.579 -0.5926  1.7055  0.4995
    4SAPS  H19S  479   3.391   3.683   4.427  0.8080  0.0945  0.0405
    4SAPS  C220  480   3.250   3.844   4.453  0.1178 -0.5081 -0.2296
    4SAPS  H20R  481   3.215   3.927   4.518  1.1322  0.6649 -1.1062
    4SAPS  H20S  482   3.171   3.785   4.402 -1.0022 -1.2162  2.2112
    4SAPS  H20T  483   3.291   3.901   4.366  0.8806 -0.2209  0.3070
    4SAPS   C33  484   3.789   3.377   5.733 -0.1612 -0.0609 -0.5509
    4SAPS   H3X  485   3.705   3.450   5.736  0.6877  0.9299 -0.4466
    4SAPS   H3Y  486   3.752   3.275   5.709  0.8639 -0.4822 -0.3877
    4SAPS   C34  487   3.874   3.418   5.605  0.2629  0.3095  0.3492
    4SAPS   H4X  488   3.956   3.345   5.588  0.7424  0.7687  0.6450
    4SAPS   H4Y  489   3.918   3.519   5.622  2.0195 -0.6328  1.6939
    4SAPS   C35  490   3.770   3.433   5.487  0.8064  1.0541 -0.3907
    4SAPS   H5X  491   3.676   3.483   5.519 -0.2632 -0.5923 -0.8525
    4SAPS   H5Y  492   3.741   3.329   5.461 -1.6578  1.7601 -0.7254
    4SAPS   C36  493   3.833   3.490   5.364  0.2848  0.0100  0.1858
    4SAPS   H6X  494   3.944   3.489   5.371  0.3775 -0.9357 -1.0607
    4SAPS   H6Y  495   3.799   3.595   5.355  0.3017  0.1876  1.9075
    4SAPS   C37  496   3.801   3.418   5.232  0.1289  0.4562 -0.5786
    4SAPS   H7X  497   3.692   3.425   5.212 -0.2234 -2.9730 -0.4319
    4SAPS   H7Y  498   3.822   3.309   5.234 -0.8217  0.2727  1.2432
    4SAPS   C38  499   3.872   3.472   5.113  0.2500  0.5173  0.2753
    4SAPS   H8X  500   3.976   3.434   5.108 -0.0352 -0.6964  2.3690
    4SAPS   H8Y  501   3.881   3.583   5.116 -0.1337  0.5410  0.7419
    4SAPS   C39  502   3.809   3.440   4.976 -0.2925 -0.2063 -0.3243
    4SAPS   H9X  503   3.878   3.477   4.897  0.1619 -1.0777 -0.3481
    4SAPS   H9Y  504   3.709   3.490   4.968 -0.1994  0.2143  0.8994
    4SAPS  C310  505   3.783   3.286   4.949  0.2790  0.6658 -0.6782
    4SAPS  H10X  506   3.719   3.252   5.033  1.7216  2.0962  1.1212
    4SAPS  H10Y  507   3.877   3.227   4.946  1.0229  1.5043  2.1723
    4SAPS  C311  508   3.704   3.264   4.823 -0.2742 -0.0435  0.0800
    4SAPS  H11X  509   3.628   3.345   4.815 -1.3844 -1.2275 -3.7147
    4SAPS  H11Y  510   3.648   3.167   4.825 -0.8476  0.2947  0.7903
    4SAPS  C312  511   3.777   3.276   4.691 -0.6820 -0.5519 -0.1685
    4SAPS  H12X  512   3.851   3.198   4.663 -0.0033 -1.7089  4.1920
    4SAPS  H12Y  513   3.834   3.371   4.693 -1.3568 -0.0792 -1.5410
    4SAPS  C313  514   3.683   3.292   4.573 -1.1062  0.5165  0.5257
    4SAPS  H13X  515   3.629   3.389   4.583 -1.3853  0.6163 -1.5042
    4SAPS  H13Y  516   3.602   3.217   4.561  0.3871 -1.1889  0.7074
    4SAPS  C314  517   3.764   3.286   4.436  0.5173  0.0015  0.8735
    4SAPS  H14X  518   3.707   3.320   4.348 -0.8109 -1.6687  1.0564
    4SAPS  H14Y  519   3.789   3.180   4.417  0.3079 -0.0855  1.0739
    4SAPS  C315  520   3.886   3.369   4.435 -0.5145  0.1908  0.0895
    4SAPS  H15X  521   3.942   3.352   4.340 -0.8099 -1.4953  0.1895
    4SAPS  H15Y  522   3.956   3.358   4.520 -0.7595 -0.9458  0.1545
    4SAPS  C316  523   3.851   3.517   4.422  0.2940 -0.3119  0.4096
    4SAPS  H16X  524   3.780   3.546   4.502 -1.4179  0.7188 -1.3997
    4SAPS  H16Y  525   3.801   3.537   4.325 -2.6865 -0.2969  1.8614
    4SAPS  C317  526   3.969   3.622   4.431  0.1553  0.0000 -0.6403
    4SAPS  H17X  527   4.032   3.598   4.342  2.7324  2.5259  0.3815
    4SAPS  H17Y  528   4.030   3.599   4.521  2.0457  0.4200 -1.7639
    4SAPS  C318  529   3.915   3.763   4.419 -0.3775  0.0093 -0.1476
    4SAPS  H18X  530   3.858   3.790   4.510  1.6305 -2.4841  1.9989
    4SAPS  H18Y  531   3.858   3.777   4.325  1.5478 -1.3574 -1.6037
    4SAPS  H18Z  532   3.996   3.838   4.428 -2.2765  2.0462  0.7034
    5SAPS     N  533   6.183   4.279   6.634 -0.2845 -0.1821 -0.1700
    5SAPS   HN1  534   6.133   4.244   6.718  1.1692 -0.7001  0.5094
    5SAPS   HN2  535   6.136   4.351   6.577  1.7673  1.6751  0.3399
    5SAPS   HN3  536   6.207   4.203   6.567 -1.2726 -0.5280 -0.1404
    5SAPS   C12  537   6.311   4.331   6.695  0.5386 -0.0059  0.2703
    5SAPS  H12A  538   6.370   4.370   6.614  0.0467  0.3245  0.0633
    5SAPS   C13  539   6.296   4.448   6.784 -0.9465 -0.0997 -0.4845
    5SAPS  O13A  540   6.186   4.480   6.831  0.7357  0.5306 -0.0186
    5SAPS  O13B  541   6.405   4.507   6.826 -0.1285 -0.4414  0.4346
    5SAPS   C11  542   6.393   4.220   6.769  0.4755  1.1007 -0.1221
    5SAPS  H11A  543   6.326   4.168   6.840 -1.2594  0.2290 -2.2556
    5SAPS  H11B  544   6.478   4.260   6.827  0.9758 -1.5858  1.1559
    5SAPS     P  545   6.573   4.147   6.599  0.1326  0.2057  0.1092
    5SAPS   O13  546   6.541   4.254   6.505  0.2610  0.5865  0.7820
    5SAPS   O14  547   6.688   4.176   6.687 -0.2062  0.1758  0.5593
    5SAPS   O12  548   6.442   4.112   6.683  0.8648 -0.3646 -0.1298
    5SAPS   O11  549   6.601   4.016   6.513  0.0450  0.2773 -0.0147
    5SAPS    C1  550   6.501   3.936   6.445 -0.3227  0.4665  0.6346
    5SAPS    HA  551   6.499   3.832   6.484  0.6500  0.2911  0.2374
    5SAPS    HB  552   6.397   3.969   6.465 -0.5294  0.4561 -0.3635
    5SAPS    C2  553   6.532   3.937   6.291  0.2221  0.6759  0.4516
    5SAPS    HS  554   6.640   3.911   6.282 -0.1153 -0.1354 -1.8903
    5SAPS   O21  555   6.491   4.067   6.237  0.0681 -0.3852 -0.2459
    5SAPS   C21  556   6.592   4.149   6.230 -0.3792 -0.1190  0.0285
    5SAPS   O22  557   6.709   4.127   6.265 -0.3495  0.1341 -0.7521
    5SAPS   C22  558   6.535   4.274   6.155 -0.6226 -0.7278 -0.2880
    5SAPS   H2R  559   6.512   4.232   6.055  1.0999 -1.0841 -0.5725
    5SAPS   H2S  560   6.446   4.309   6.211  1.0207  1.4913  1.1478
    5SAPS    C3  561   6.459   3.825   6.198  1.3713 -0.5795 -0.1395
    5SAPS    HX  562   6.350   3.821   6.222  1.5676 -2.5654  0.5829
    5SAPS    HY  563   6.493   3.723   6.226  0.9367 -0.3820  1.2054
    5SAPS   O31  564   6.479   3.857   6.056 -0.9519  0.3337  0.5464
    5SAPS   C31  565   6.382   3.924   5.990 -0.1354 -0.7425  0.4447
    5SAPS   O32  566   6.266   3.937   6.027 -0.2946  0.0059  0.1044
    5SAPS   C32  567   6.438   3.967   5.854  0.5905  0.2051 -0.2938
    5SAPS   H2X  568   6.516   3.894   5.821 -0.9120 -1.0939 -1.1104
    5SAPS   H2Y  569   6.503   4.057   5.867  1.7935 -0.9813  2.7452
    5SAPS   C23  570   6.632   4.389   6.147 -1.1145 -0.2950  0.5391
    5SAPS   H3R  571   6.671   4.412   6.249 -0.7245 -0.6666  0.4738
    5SAPS   H3S  572   6.562   4.473   6.127 -0.6336  0.1293  0.6172
    5SAPS   C24  573   6.743   4.382   6.046 -0.0620 -0.6006  0.0490
    5SAPS   H4R  574   6.709   4.336   5.951 -1.8088  0.9151 -0.1187
    5SAPS   H4S  575   6.820   4.314   6.087  3.0410  1.6603 -1.6575
    5SAPS   C25  576   6.814   4.508   6.028 -0.0006 -0.6006 -0.0510
    5SAPS   H5R  577   6.812   4.576   6.115  0.5584 -0.3570 -0.2197
    5SAPS   C26  578   6.867   4.553   5.913 -0.7938 -0.1591 -0.7338
    5SAPS   H6R  579   6.932   4.640   5.904 -0.1433 -0.7547 -2.0604
    5SAPS   C27  580   6.862   4.478   5.780  0.2534  0.3944 -0.3209
    5SAPS   H7R  581   6.857   4.369   5.804 -0.2752  0.0443 -1.8943
    5SAPS   H7S  582   6.958   4.494   5.726  0.7666 -0.1524  0.4154
    5SAPS   C28  583   6.739   4.515   5.701 -0.0186  0.5142  0.2481
    5SAPS   H8R  584   6.646   4.457   5.709  0.2289  0.2635  1.6158
    5SAPS   C29  585   6.729   4.614   5.615 -0.4766 -0.9114 -0.7424
    5SAPS   H9R  586   6.635   4.641   5.565 -0.4602 -0.9018 -0.7691
    5SAPS  C210  587   6.848   4.709   5.598  0.5165  0.5061  0.8123
    5SAPS  H10R  588   6.938   4.647   5.583 -1.6215 -2.9870  1.3085
    5SAPS  H10S  589   6.860   4.765   5.694 -1.1101 -0.5730  1.6869
    5SAPS  C211  590   6.819   4.790   5.478 -0.2534  0.5072 -0.1002
    5SAPS  H11R  591   6.741   4.864   5.500 -1.5794 -0.7836 -0.2613
    5SAPS  C212  592   6.877   4.792   5.353  0.3251 -0.1480  0.0628
    5SAPS  H12R  593   6.844   4.879   5.295  0.7462 -0.0284 -0.0036
    5SAPS  C213  594   6.973   4.694   5.305 -0.2879 -0.2055  0.2780
    5SAPS  H13R  595   6.943   4.681   5.199  0.5485 -1.6267  0.1858
    5SAPS  H13S  596   6.949   4.597   5.353  1.0013 -0.8954 -0.3938
    5SAPS  C214  597   7.122   4.712   5.315  0.1960 -0.0102  0.4670
    5SAPS  H14R  598   7.164   4.683   5.412  0.3065  0.7493  0.6471
    5SAPS  C215  599   7.192   4.775   5.216 -0.2060  0.2542  0.1334
    5SAPS  H15R  600   7.301   4.781   5.228 -0.0727  1.3624 -1.3105
    5SAPS  C216  601   7.133   4.825   5.081 -0.3537  0.5673  0.2594
    5SAPS  H16R  602   7.185   4.918   5.050  0.0453  1.0076  2.1309
    5SAPS  H16S  603   7.023   4.838   5.093 -0.9006 -3.3052  0.7641
    5SAPS  C217  604   7.156   4.721   4.970 -0.6853  0.0951 -0.5093
    5SAPS  H17R  605   7.114   4.620   4.991  0.5631 -0.7938 -2.0878
    5SAPS  H17S  606   7.263   4.710   4.943 -0.7394  1.4969 -1.4000
    5SAPS  C218  607   7.091   4.772   4.847  0.2869  0.0494  0.6509
    5SAPS  H18R  608   7.107   4.879   4.826 -1.4961  0.1997 -0.1554
    5SAPS  H18S  609   6.981   4.759   4.842  0.2867  0.3472 -0.2738
    5SAPS  C219  610   7.126   4.693   4.719  0.3529  0.7244  0.1502
    5SAPS  H19R  611   7.130   4.587   4.754 -2.0513 -0.0483 -1.6825
    5SAPS  H19S  612   7.235   4.713   4.707  1.1885 -0.3525  4.2790
    5SAPS  C220  613   7.049   4.711   4.588  0.4249  0.3127 -0.4512
    5SAPS  H20R  614   6.940   4.690   4.590  0.4171  0.1080 -1.9467
    5SAPS  H20S  615   7.091   4.647   4.506 -0.4216 -0.2785 -0.4392
    5SAPS  H20T  616   7.068   4.815   4.556  0.5673 -0.2738 -2.4124
    5SAPS   C33  617   6.331   3.976   5.747  0.1035 -0.9883  0.1914
    5SAPS   H3X  618   6.252   4.053   5.753  0.8176 -0.1840 -0.4369
    5SAPS   H3Y  619   6.275   3.880   5.743  1.0495 -1.6004  0.9974
    5SAPS   C34  620   6.397   3.982   5.604  0.0323 -0.3909  0.3011
    5SAPS   H4X  621   6.461   3.892   5.599 -0.0849 -0.6367  2.3346
    5SAPS   H4Y  622   6.467   4.068   5.602  0.5032 -0.7692  0.3561
    5SAPS   C35  623   6.292   3.980   5.495  0.3449 -0.2063  0.1870
    5SAPS   H5X  624   6.231   4.072   5.484  0.9102  0.2841  0.9801
    5SAPS   H5Y  625   6.233   3.893   5.529  1.7037 -0.5048  1.9612
    5SAPS   C36  626   6.355   3.967   5.359  0.0146 -0.1423 -0.5286
    5SAPS   H6X  627   6.371   3.857   5.352  1.4979  0.0209  0.1577
    5SAPS   H6Y  628   6.447   4.029   5.357 -0.2819  0.4513  1.9387
    5SAPS   C37  629   6.277   4.018   5.242  0.8021  0.0357 -0.3190
    5SAPS   H7X  630   6.228   4.113   5.272  1.6520  0.4136 -0.1030
    5SAPS   H7Y  631   6.207   3.936   5.217  2.1048 -0.5401 -2.3239
    5SAPS   C38  632   6.356   4.051   5.113 -0.4050  0.6642 -0.2565
    5SAPS   H8X  633   6.429   3.968   5.100  1.0163  1.2736  2.8230
    5SAPS   H8Y  634   6.407   4.149   5.130  0.7810  0.0060  0.1106
    5SAPS   C39  635   6.259   4.058   4.989 -0.0535  1.5658 -0.2923
    5SAPS   H9X  636   6.197   4.147   5.013 -0.6258  0.7127  1.6032
    5SAPS   H9Y  637   6.196   3.967   4.992  2.6926 -0.5030 -0.4325
    5SAPS  C310  638   6.337   4.061   4.860  0.3729 -0.0749 -0.2143
    5SAPS  H10X  639   6.270   4.068   4.772  0.6347 -4.0829 -0.9056
    5SAPS  H10Y  640   6.384   3.961   4.857  0.0034 -0.3043  1.3030
    5SAPS  C311  641   6.450   4.169   4.863 -0.2978 -0.3439  0.2965
    5SAPS  H11X  642   6.526   4.151   4.942  0.0505  2.8488  0.8530
    5SAPS  H11Y  643   6.405   4.265   4.900  0.7785  0.5942 -0.7555
    5SAPS  C312  644   6.508   4.203   4.730 -0.5855 -0.3362 -0.2536
    5SAPS  H12X  645   6.425   4.202   4.657 -0.0544 -2.0891 -0.8983
    5SAPS  H12Y  646   6.584   4.128   4.699  0.9046  2.4320 -4.1519
    5SAPS  C313  647   6.578   4.339   4.715  0.6191  0.4178  0.1262
    5SAPS  H13X  648   6.670   4.338   4.777  1.3137  0.7494 -0.8671
    5SAPS  H13Y  649   6.505   4.416   4.749  0.4548  0.6827 -0.7860
    5SAPS  C314  650   6.622   4.379   4.572  0.7852  0.3609 -0.5454
    5SAPS  H14X  651   6.708   4.316   4.542  2.0082  0.8796  1.7030
    5SAPS  H14Y  652   6.667   4.480   4.580  1.2803  0.0788  0.2614
    5SAPS  C315  653   6.519   4.383   4.459  0.0383 -0.3374 -0.4642
    5SAPS  H15X  654   6.440   4.460   4.473 -0.5642 -0.6758 -1.8145
    5SAPS  H15Y  655   6.453   4.295   4.448 -0.4863 -0.0077 -0.0427
    5SAPS  C316  656   6.585   4.397   4.319 -0.1858 -0.4445  0.2561
    5SAPS  H16X  657   6.666   4.472   4.324 -2.3873  2.0372  0.3913
    5SAPS  H16Y  658   6.514   4.444   4.248  0.0811 -0.8451 -0.2884
    5SAPS  C317  659   6.614   4.266   4.246 -0.1208 -0.6220  0.2841
    5SAPS  H17X  660   6.634   4.287   4.139  1.2634  1.2178  0.8392
    5SAPS  H17Y  661   6.519   4.210   4.249 -2.2153  2.6336 -0.1338
    5SAPS  C318  662   6.728   4.180   4.306 -0.2835 -0.0211  0.0481
    5SAPS  H18X  663   6.825   4.233   4.312 -1.3451  1.9177  0.6678
    5SAPS  H18Y  664   6.745   4.086   4.248 -2.5704 -0.4709  0.0015
    5SAPS  H18Z  665   6.696   4.162   4.411  1.5780  0.8464  0.7934
    6SAPS     N  666   2.202   4.400   6.423 -0.2822  0.2074  0.3989
    6SAPS   HN1  667   2.138   4.321   6.442  1.4344 -1.0077  1.4911
    6SAPS   HN2  668   2.179   4.449   6.334  0.2462 -0.2792 -0.0161
    6SAPS   HN3  669   2.301   4.369   6.409  0.4494  1.1887  2.8346
    6SAPS   C12  670   2.183   4.491   6.536 -0.3542 -0.2222 -0.0552
    6SAPS  H12A  671   2.182   4.433   6.628  1.1980 -0.3077 -0.0648
    6SAPS   C13  672   2.283   4.601   6.548  0.0965 -0.0007 -0.2188
    6SAPS  O13A  673   2.379   4.606   6.468 -0.9950  0.6767  0.7512
    6SAPS  O13B  674   2.271   4.697   6.633 -0.0404 -0.6375  0.4066
    6SAPS   C11  675   2.043   4.555   6.528  0.5543  0.0845  0.1701
    6SAPS  H11A  676   2.042   4.626   6.442  3.5697  0.5966  0.4438
    6SAPS  H11B  677   2.024   4.608   6.624 -1.2674 -0.4507  0.1476
    6SAPS     P  678   1.794   4.496   6.487 -0.0609  0.2508  0.0650
    6SAPS   O13  679   1.692   4.387   6.506 -0.0532 -0.2314 -0.0314
    6SAPS   O14  680   1.766   4.617   6.569  0.1830  0.2979  0.1680
    6SAPS   O12  681   1.946   4.451   6.511 -0.4068  0.2925 -0.6416
    6SAPS   O11  682   1.816   4.531   6.336  0.2656 -0.5366 -0.0052
    6SAPS    C1  683   1.863   4.434   6.242 -0.5555  0.6535  0.1300
    6SAPS    HA  684   1.957   4.388   6.278 -1.2212  0.6356  2.0077
    6SAPS    HB  685   1.795   4.347   6.236  0.1390  0.0188  1.1113
    6SAPS    C2  686   1.892   4.491   6.101 -0.8069  0.8163  0.5126
    6SAPS    HS  687   1.948   4.407   6.053 -2.4197 -0.7135  1.1908
    6SAPS   O21  688   1.961   4.620   6.092 -0.2425  0.0535 -0.1773
    6SAPS   C21  689   2.078   4.620   6.159 -0.0127 -0.1609  0.0374
    6SAPS   O22  690   2.147   4.528   6.184 -0.2262  0.5948 -0.3664
    6SAPS   C22  691   2.127   4.763   6.199 -1.3455  0.4057  0.0312
    6SAPS   H2R  692   2.037   4.828   6.193 -0.5388  1.5311 -0.2694
    6SAPS   H2S  693   2.171   4.757   6.301 -2.7498  0.3697  0.6564
    6SAPS    C3  694   1.765   4.491   6.012  0.1553  0.6922  0.7238
    6SAPS    HX  695   1.690   4.560   6.057 -2.6862 -1.6696 -0.0840
    6SAPS    HY  696   1.719   4.390   6.020  1.8752 -0.3398 -1.4916
    6SAPS   O31  697   1.803   4.514   5.878  0.1857  0.3135 -0.7620
    6SAPS   C31  698   1.704   4.513   5.793  0.3644  0.6275 -0.7971
    6SAPS   O32  699   1.587   4.491   5.822  0.0703 -0.2383  0.4296
    6SAPS   C32  700   1.756   4.536   5.651  0.5330  0.1791 -0.1973
    6SAPS   H2X  701   1.736   4.440   5.598 -2.7079  0.4291  0.3574
    6SAPS   H2Y  702   1.864   4.559   5.657  1.1034 -2.2076 -0.2964
    6SAPS   C23  703   2.242   4.792   6.097 -0.3254 -0.1435  0.0873
    6SAPS   H3R  704   2.304   4.700   6.100 -2.1898 -1.4708 -0.2316
    6SAPS   H3S  705   2.297   4.874   6.148 -0.6832 -1.2866  2.4145
    6SAPS   C24  706   2.211   4.825   5.949  0.4150 -0.6141 -0.3380
    6SAPS   H4R  707   2.176   4.728   5.905 -1.7651 -0.3730  0.7006
    6SAPS   H4S  708   2.304   4.867   5.907 -1.2803  3.0951 -0.7699
    6SAPS   C25  709   2.117   4.932   5.929  0.1083 -0.5938  0.1790
    6SAPS   H5R  710   2.088   4.994   6.015 -2.8076 -0.4578 -0.7977
    6SAPS   C26  711   2.047   4.947   5.816  0.3049 -0.0192  0.0043
    6SAPS   H6R  712   1.967   5.021   5.806  0.0998 -0.3528 -0.9728
    6SAPS   C27  713   2.060   4.870   5.686 -0.1864  0.1116  0.2145
    6SAPS   H7R  714   1.969   4.810   5.666 -0.3745  0.2883  0.5210
    6SAPS   H7S  715   2.153   4.811   5.681  0.4318  1.1319 -0.7422
    6SAPS   C28  716   2.067   4.967   5.572 -0.3331  0.1307  0.2879
    6SAPS   H8R  717   2.026   5.067   5.589  0.3119  0.5301 -0.4496
    6SAPS   C29  718   2.092   4.931   5.443  0.4570 -0.2429  0.0003
    6SAPS   H9R  719   2.095   5.011   5.367  0.2506  1.9237  2.1490
    6SAPS  C210  720   2.136   4.797   5.391 -0.2822 -0.9094 -0.5527
    6SAPS  H10R  721   2.055   4.725   5.365 -0.6362 -1.6648  2.3787
    6SAPS  H10S  722   2.175   4.737   5.475  0.8206  0.1170 -0.2992
    6SAPS  C211  723   2.247   4.805   5.288  0.0733  0.2930 -0.7217
    6SAPS  H11R  724   2.352   4.822   5.318 -0.3036  0.5795  0.4938
    6SAPS  C212  725   2.225   4.805   5.155  0.1131 -0.5218 -0.0624
    6SAPS  H12R  726   2.311   4.831   5.092  0.2429  3.6795  1.4692
    6SAPS  C213  727   2.090   4.787   5.090 -0.4133  0.0676  0.2060
    6SAPS  H13R  728   2.009   4.830   5.152  0.1395 -1.9485  2.4727
    6SAPS  H13S  729   2.064   4.679   5.085  2.1658 -0.6088 -0.5721
    6SAPS  C214  730   2.097   4.856   4.962 -0.1469 -0.4036 -0.2770
    6SAPS  H14R  731   2.043   4.952   4.966  0.5577 -0.0235  0.4398
    6SAPS  C215  732   2.148   4.805   4.845 -0.2403  0.5704  0.2861
    6SAPS  H15R  733   2.143   4.872   4.758 -0.1285 -1.3214 -1.2339
    6SAPS  C216  734   2.217   4.667   4.822  0.6935  0.0759 -0.5493
    6SAPS  H16R  735   2.152   4.585   4.860  2.1823 -1.0339 -0.2869
    6SAPS  H16S  736   2.303   4.666   4.893  1.5980  1.0575 -1.5922
    6SAPS  C217  737   2.250   4.649   4.684  0.3991  0.2675  0.5371
    6SAPS  H17R  738   2.283   4.544   4.664 -0.8820  0.1845 -1.3899
    6SAPS  H17S  739   2.329   4.726   4.670 -0.9870  2.1597  2.5288
    6SAPS  C218  740   2.138   4.670   4.573 -0.2992 -0.0862 -0.0251
    6SAPS  H18R  741   2.100   4.774   4.579  1.0508  0.3203  2.9646
    6SAPS  H18S  742   2.063   4.594   4.606  1.1722 -1.9220 -0.7289
    6SAPS  C219  743   2.186   4.646   4.428 -0.1042 -0.5631 -0.4702
    6SAPS  H19R  744   2.274   4.582   4.408 -1.1778 -1.4933 -2.5815
    6SAPS  H19S  745   2.215   4.748   4.398 -3.2253  0.2204 -1.1765
    6SAPS  C220  746   2.077   4.605   4.327 -0.2420 -0.6924 -0.3813
    6SAPS  H20R  747   2.067   4.495   4.326 -0.5526 -0.6853  1.0947
    6SAPS  H20S  748   2.107   4.644   4.227 -0.2809 -0.8627 -0.4593
    6SAPS  H20T  749   1.983   4.662   4.342 -0.5550 -0.9044 -1.4663
    6SAPS   C33  750   1.675   4.643   5.567 -0.1331 -0.3249  1.1151
    6SAPS   H3X  751   1.687   4.741   5.618  0.7168  0.5077 -0.6124
    6SAPS   H3Y  752   1.567   4.617   5.564 -0.3368  0.5797 -0.5727
    6SAPS   C34  753   1.735   4.636   5.428 -0.5740  0.4274  0.1077
    6SAPS   H4X  754   1.706   4.534   5.393  0.3353  0.2669 -0.2219
    6SAPS   H4Y  755   1.845   4.645   5.447 -0.4363 -0.5626 -0.1420
    6SAPS   C35  756   1.698   4.757   5.343 -0.0960 -0.0768 -0.3829
    6SAPS   H5X  757   1.733   4.852   5.390 -0.1982  0.0570 -0.5792
    6SAPS   H5Y  758   1.587   4.757   5.336 -0.3212 -0.5648  2.0183
    6SAPS   C36  759   1.757   4.745   5.205 -0.6028  0.0677 -0.3332
    6SAPS   H6X  760   1.867   4.732   5.205 -0.6508 -0.4242  0.5432
    6SAPS   H6Y  761   1.730   4.836   5.148  3.4634  1.4208 -0.3883
    6SAPS   C37  762   1.705   4.630   5.127 -0.1574  0.0828 -0.5141
    6SAPS   H7X  763   1.594   4.620   5.126 -0.3981  2.1693 -2.6414
    6SAPS   H7Y  764   1.751   4.539   5.170  1.5379  0.8393 -0.6432
    6SAPS   C38  765   1.746   4.650   4.982  0.3101 -0.2557 -0.2830
    6SAPS   H8X  766   1.857   4.653   4.978  0.5955 -0.2363  3.4186
    6SAPS   H8Y  767   1.700   4.744   4.947  1.1132  1.4226  2.7736
    6SAPS   C39  768   1.694   4.534   4.888  0.1426 -0.6632  0.5114
    6SAPS   H9X  769   1.583   4.534   4.881  0.2440  0.3951 -2.9462
    6SAPS   H9Y  770   1.737   4.441   4.930 -0.9604 -1.5843 -0.3634
    6SAPS  C310  771   1.751   4.558   4.749 -0.6301  0.6584  0.2750
    6SAPS  H10X  772   1.857   4.528   4.763 -0.6718  0.7146  0.7368
    6SAPS  H10Y  773   1.749   4.667   4.725 -1.8457  0.2946 -1.4151
    6SAPS  C311  774   1.687   4.479   4.643  0.5320  0.2998  0.4508
    6SAPS  H11X  775   1.578   4.494   4.634  0.4363 -1.1278 -1.2588
    6SAPS  H11Y  776   1.696   4.369   4.658 -0.2399 -0.3098 -2.7521
    6SAPS  C312  777   1.752   4.488   4.503  0.5043  0.4911  0.0499
    6SAPS  H12X  778   1.705   4.415   4.433 -0.0522  0.8163  0.0762
    6SAPS  H12Y  779   1.859   4.460   4.507  0.5742 -0.3054 -3.5029
    6SAPS  C313  780   1.735   4.629   4.452 -0.3323 -0.3831  0.5208
    6SAPS  H13X  781   1.778   4.650   4.352 -3.4033  0.0451 -0.8019
    6SAPS  H13Y  782   1.789   4.703   4.515  0.8553 -0.0149 -0.8665
    6SAPS  C314  783   1.593   4.681   4.443 -0.1960 -0.1769 -0.0459
    6SAPS  H14X  784   1.549   4.696   4.544 -3.6117 -0.7336 -1.3159
    6SAPS  H14Y  785   1.527   4.607   4.391  1.0442 -2.1173  1.0099
    6SAPS  C315  786   1.582   4.811   4.366 -0.7544 -0.4810  0.1116
    6SAPS  H15X  787   1.632   4.803   4.267 -0.1077  0.9399  0.2874
    6SAPS  H15Y  788   1.639   4.885   4.426  2.5374 -1.1687 -1.9078
    6SAPS  C316  789   1.436   4.855   4.331 -0.0835 -0.2354  0.5424
    6SAPS  H16X  790   1.373   4.828   4.419 -2.3184 -2.0295 -1.4790
    6SAPS  H16Y  791   1.406   4.786   4.250  0.3891  0.3921 -0.1755
    6SAPS  C317  792   1.424   5.004   4.304  0.2225  0.3782 -0.0021
    6SAPS  H17X  793   1.470   5.029   4.206 -1.6204 -0.4989 -1.1478
    6SAPS  H17Y  794   1.458   5.062   4.392 -3.5103  1.0895  1.1298
    6SAPS  C318  795   1.281   5.053   4.292  0.2044 -0.4944  0.5452
    6SAPS  H18X  796   1.248   4.986   4.211 -0.6900 -1.1533  1.4374
    6SAPS  H18Y  797   1.268   5.158   4.259 -0.6363 -0.4814  0.9010
    6SAPS  H18Z  798   1.222   5.036   4.384 -2.7864 -0.3114 -1.2270
    7SAPS     N  799   5.515   0.187   6.438  0.6561  0.4392  0.5400
    7SAPS   HN1  800   5.558   0.220   6.349  0.0729 -1.2199 -0.4112
    7SAPS   HN2  801   5.425   0.151   6.402  0.3017  2.2266 -0.4658
    7SAPS   HN3  802   5.502   0.263   6.507  2.1642 -0.2249  1.6173
    7SAPS   C12  803   5.602   0.088   6.513  0.2335  1.5550 -0.0210
    7SAPS  H12A  804   5.702   0.128   6.512  1.1181 -0.4000 -3.2294
    7SAPS   C13  805   5.544   0.048   6.646  0.2220  0.4575  0.3454
    7SAPS  O13A  806   5.428   0.097   6.682  0.0540 -0.1187  0.3269
    7SAPS  O13B  807   5.606  -0.031   6.720  0.6553  0.2425  1.1560
    7SAPS   C11  808   5.616  -0.049   6.442  0.2815 -0.0272  0.3014
    7SAPS  H11A  809   5.676  -0.117   6.507 -0.3488 -0.6022  0.2915
    7SAPS  H11B  810   5.681  -0.027   6.355  1.5689  0.3257  1.3116
    7SAPS     P  811   5.469  -0.233   6.318  0.1553 -0.1450 -0.2014
    7SAPS   O13  812   5.446  -0.348   6.414  0.7489  0.5061  0.8482
    7SAPS   O14  813   5.357  -0.206   6.227 -0.2308  0.0586  0.4517
    7SAPS   O12  814   5.488  -0.102   6.395 -0.2787 -0.2871 -0.6930
    7SAPS   O11  815   5.604  -0.257   6.239 -0.2075  0.1135  0.9588
    7SAPS    C1  816   5.628  -0.186   6.118  0.0347 -0.2074  0.2220
    7SAPS    HA  817   5.552  -0.204   6.039 -0.0146 -2.6491  0.7424
    7SAPS    HB  818   5.632  -0.078   6.141  2.9362 -0.4996  1.5942
    7SAPS    C2  819   5.769  -0.211   6.055  0.1965 -0.2073  0.2888
    7SAPS    HS  820   5.772  -0.131   5.979 -1.1660  0.5179  0.9671
    7SAPS   O21  821   5.774  -0.343   5.993 -0.3536  0.4923  0.3797
    7SAPS   C21  822   5.731  -0.338   5.864  0.9013  0.0818 -0.5240
    7SAPS   O22  823   5.698  -0.242   5.804 -0.7337  0.2031  0.2954
    7SAPS   C22  824   5.727  -0.479   5.798  0.2555 -1.0903  0.0111
    7SAPS   H2R  825   5.810  -0.535   5.845 -2.1541 -2.7022  2.7073
    7SAPS   H2S  826   5.630  -0.519   5.837  0.3224 -1.4660 -0.2088
    7SAPS    C3  827   5.876  -0.184   6.160 -0.4653  0.0920 -0.0050
    7SAPS    HX  828   5.835  -0.228   6.254 -2.4918  3.9994  1.1865
    7SAPS    HY  829   5.875  -0.078   6.192  0.4121 -0.0912  0.6711
    7SAPS   O31  830   5.996  -0.246   6.121 -0.4309  0.0124 -0.0963
    7SAPS   C31  831   6.078  -0.178   6.049 -0.5610 -0.4012 -0.3321
    7SAPS   O32  832   6.072  -0.059   6.019  0.0977 -0.1109  0.0036
    7SAPS   C32  833   6.206  -0.266   6.023 -0.1815 -0.2860  0.1545
    7SAPS   H2X  834   6.205  -0.369   6.067 -1.8509  0.1508  1.2386
    7SAPS   H2Y  835   6.285  -0.205   6.072 -1.2336  1.3518 -0.1168
    7SAPS   C23  836   5.734  -0.459   5.638 -0.6295 -0.3028  0.5405
    7SAPS   H3R  837   5.831  -0.412   5.612 -0.9044 -0.8112 -1.5314
    7SAPS   H3S  838   5.653  -0.390   5.606  0.4721  0.7554 -0.0820
    7SAPS   C24  839   5.719  -0.595   5.562 -0.1873 -0.2169  0.1237
    7SAPS   H4R  840   5.806  -0.658   5.591  1.1038 -0.0689 -3.0126
    7SAPS   H4S  841   5.722  -0.582   5.452  1.6919  0.9274  0.2701
    7SAPS   C25  842   5.592  -0.665   5.595  0.1594  0.2162 -0.1788
    7SAPS   H5R  843   5.561  -0.661   5.701 -0.7446 -0.2791 -0.4115
    7SAPS   C26  844   5.506  -0.723   5.506  0.8501  1.1827 -0.2090
    7SAPS   H6R  845   5.407  -0.759   5.539  0.4842 -0.8209 -3.1272
    7SAPS   C27  846   5.514  -0.729   5.358 -0.3518 -0.1087 -0.5862
    7SAPS   H7R  847   5.435  -0.796   5.319  0.6040 -0.5697 -1.8192
    7SAPS   H7S  848   5.615  -0.770   5.335  0.6432  1.6599  0.3969
    7SAPS   C28  849   5.494  -0.595   5.288  0.5043  0.5147  0.4553
    7SAPS   H8R  850   5.395  -0.552   5.307  0.3433  0.7991 -0.8866
    7SAPS   C29  851   5.550  -0.539   5.178  0.9165  0.0222 -0.3226
    7SAPS   H9R  852   5.508  -0.449   5.131  1.3691  1.2450  1.5237
    7SAPS  C210  853   5.664  -0.595   5.106 -0.2050  0.1914 -0.2331
    7SAPS  H10R  854   5.637  -0.609   4.999  1.8216  1.3190 -0.9524
    7SAPS  H10S  855   5.697  -0.695   5.140  1.5075  0.2302 -1.6319
    7SAPS  C211  856   5.786  -0.499   5.113  1.5022 -0.2188  0.1019
    7SAPS  H11R  857   5.860  -0.520   5.192  0.8339  1.2357  1.1494
    7SAPS  C212  858   5.806  -0.405   5.018 -0.1621 -0.4501  0.6144
    7SAPS  H12R  859   5.889  -0.334   5.022 -1.9542  1.9264 -1.2717
    7SAPS  C213  860   5.717  -0.378   4.896  0.7366 -0.1476  0.0223
    7SAPS  H13R  861   5.712  -0.267   4.891 -0.5233 -0.1987  0.0102
    7SAPS  H13S  862   5.617  -0.422   4.915  0.9830 -1.4953 -1.6389
    7SAPS  C214  863   5.776  -0.418   4.766 -0.3928 -0.7816 -0.7132
    7SAPS  H14R  864   5.884  -0.400   4.763 -0.7472  1.6293 -0.6765
    7SAPS  C215  865   5.722  -0.479   4.668 -0.3755  0.3385  0.8459
    7SAPS  H15R  866   5.793  -0.511   4.590 -0.4282 -0.4022  1.0975
    7SAPS  C216  867   5.576  -0.515   4.663 -0.0217 -0.6875  0.1856
    7SAPS  H16R  868   5.534  -0.497   4.562  1.5268  1.7317 -0.1078
    7SAPS  H16S  869   5.522  -0.443   4.727  1.4932 -1.2572  2.2169
    7SAPS  C217  870   5.541  -0.659   4.710  0.2550 -0.5954  0.5439
    7SAPS  H17R  871   5.434  -0.683   4.693 -0.0054  1.3373 -0.8706
    7SAPS  H17S  872   5.551  -0.656   4.821  0.7888  1.7513  0.4844
    7SAPS  C218  873   5.615  -0.779   4.644 -0.1288 -0.1919  0.4624
    7SAPS  H18R  874   5.715  -0.754   4.602 -0.0674 -2.5451 -0.9854
    7SAPS  H18S  875   5.552  -0.800   4.554 -0.7398 -0.0855  0.8616
    7SAPS  C219  876   5.644  -0.904   4.735  0.3178 -0.0169 -0.3540
    7SAPS  H19R  877   5.554  -0.952   4.781  0.7384 -0.2926  0.1916
    7SAPS  H19S  878   5.703  -0.891   4.828  0.7620  0.7735 -0.7444
    7SAPS  C220  879   5.723  -1.010   4.654  0.1948 -0.6879 -1.1977
    7SAPS  H20R  880   5.653  -1.048   4.576 -1.2166 -0.0029 -0.3167
    7SAPS  H20S  881   5.768  -1.083   4.725  3.9368  2.5029  0.0448
    7SAPS  H20T  882   5.808  -0.959   4.603 -0.6827  0.5853 -1.4339
    7SAPS   C33  883   6.219  -0.292   5.876  0.1476  0.2900  0.9486
    7SAPS   H3X  884   6.320  -0.339   5.871  0.3272  0.7144  0.5036
    7SAPS   H3Y  885   6.222  -0.194   5.823 -0.3986 -1.1177 -1.8933
    7SAPS   C34  886   6.121  -0.393   5.809 -0.2755 -0.8641  0.7929
    7SAPS   H4X  887   6.021  -0.357   5.842  0.2087 -1.0749  2.6373
    7SAPS   H4Y  888   6.142  -0.497   5.841  0.0724 -1.4389 -1.1802
    7SAPS   C35  889   6.151  -0.392   5.655  0.4474 -0.2348  0.0451
    7SAPS   H5X  890   6.091  -0.473   5.607 -1.5053  1.0783  0.1543
    7SAPS   H5Y  891   6.256  -0.425   5.642  1.0580  0.8844  1.7440
    7SAPS   C36  892   6.130  -0.255   5.588 -0.1077 -0.3190 -0.5487
    7SAPS   H6X  893   6.209  -0.178   5.601 -1.6558  1.5546 -1.6852
    7SAPS   H6Y  894   6.043  -0.203   5.635 -1.6512 -4.0043  1.0628
    7SAPS   C37  895   6.123  -0.270   5.437 -0.0336  0.4096 -0.0784
    7SAPS   H7X  896   6.029  -0.321   5.407 -1.2480 -0.1933  4.0749
    7SAPS   H7Y  897   6.199  -0.345   5.406 -1.3040 -2.0324  2.2759
    7SAPS   C38  898   6.146  -0.138   5.365 -0.0208 -0.1625  0.5005
    7SAPS   H8X  899   6.253  -0.110   5.374  0.5832 -1.3000 -2.2909
    7SAPS   H8Y  900   6.075  -0.065   5.410  1.8966  2.4100 -0.4485
    7SAPS   C39  901   6.123  -0.137   5.210  0.4646  0.1468 -0.4185
    7SAPS   H9X  902   6.021  -0.179   5.197  0.1693  0.6757  0.1305
    7SAPS   H9Y  903   6.193  -0.204   5.156 -1.4722 -1.6735 -0.8000
    7SAPS  C310  904   6.126   0.012   5.158 -0.0432 -0.2707  0.1297
    7SAPS  H10X  905   6.218   0.051   5.207  1.2277 -1.8648 -0.8564
    7SAPS  H10Y  906   6.026   0.050   5.186  0.0506 -0.9029  1.3926
    7SAPS  C311  907   6.143   0.022   5.000  0.1532  0.0670  0.4410
    7SAPS  H11X  908   6.240  -0.021   4.966  0.2566 -0.1047  0.9367
    7SAPS  H11Y  909   6.150   0.129   4.971 -1.9268 -0.0201 -0.5700
    7SAPS  C312  910   6.026  -0.036   4.920  0.2265  0.0188  0.4836
    7SAPS  H12X  911   5.926  -0.012   4.961 -0.5296 -1.4448 -0.4239
    7SAPS  H12Y  912   6.024  -0.145   4.939 -1.9102  0.1548  1.3116
    7SAPS  C313  913   6.029  -0.006   4.770  0.1188 -0.3483 -0.0906
    7SAPS  H13X  914   6.124  -0.038   4.723  0.2033 -2.8955  1.6096
    7SAPS  H13Y  915   6.029   0.105   4.763  0.3795 -0.1145  2.5284
    7SAPS  C314  916   5.917  -0.072   4.695  0.1626 -0.2952 -0.1177
    7SAPS  H14X  917   5.817  -0.038   4.729  0.4299 -1.5852  2.1224
    7SAPS  H14Y  918   5.932  -0.182   4.693  2.5522  0.0008 -1.7256
    7SAPS  C315  919   5.921  -0.031   4.548 -0.0877  1.0154  1.3344
    7SAPS  H15X  920   6.015  -0.082   4.516  0.1898  2.1658  0.2310
    7SAPS  H15Y  921   5.912   0.079   4.538 -0.2562  0.8766 -0.3585
    7SAPS  C316  922   5.812  -0.111   4.468  0.1032 -0.6540  0.1445
    7SAPS  H16X  923   5.715  -0.075   4.508  0.0149  0.8229 -1.2915
    7SAPS  H16Y  924   5.823  -0.221   4.479 -0.3950 -0.7563 -0.3307
    7SAPS  C317  925   5.823  -0.084   4.316 -0.0073  0.8296  0.6086
    7SAPS  H17X  926   5.925  -0.106   4.279 -1.1745  0.2681 -2.5902
    7SAPS  H17Y  927   5.813   0.025   4.296  1.1219  0.8306  0.0017
    7SAPS  C318  928   5.726  -0.178   4.245 -0.0754 -0.3782  0.0192
    7SAPS  H18X  929   5.774  -0.278   4.247  0.1306 -0.2784  2.1697
    7SAPS  H18Y  930   5.709  -0.148   4.139  1.9029 -2.6884 -1.0400
    7SAPS  H18Z  931   5.628  -0.176   4.297  0.0007  1.2089  0.1485
    8SAPS     N  932   4.198   6.727   6.812  0.1750  0.0645  0.4042
    8SAPS   HN1  933   4.255   6.760   6.893  0.9125  1.9810 -0.8263
    8SAPS   HN2  934   4.118   6.673   6.850 -1.3188  2.5419  1.0113
    8SAPS   HN3  935   4.246   6.672   6.738  1.8000  1.8799  0.0263
    8SAPS   C12  936   4.134   6.832   6.729 -0.2308 -0.7123 -0.1950
    8SAPS  H12A  937   4.051   6.875   6.783 -0.2776  0.3679 -1.0918
    8SAPS   C13  938   4.221   6.955   6.689 -0.4559 -0.2157  0.0947
    8SAPS  O13A  939   4.338   6.975   6.738  0.2349  0.6334 -0.0631
    8SAPS  O13B  940   4.171   7.045   6.614 -0.2910  0.2563 -0.1839
    8SAPS   C11  941   4.074   6.767   6.603 -0.1335 -0.4165  0.9243
    8SAPS  H11A  942   4.152   6.708   6.550  0.1946 -0.0244  0.9649
    8SAPS  H11B  943   4.041   6.840   6.525  0.8305 -1.5414 -0.5745
    8SAPS     P  944   3.824   6.720   6.657 -0.2474  0.3245  0.1258
    8SAPS   O13  945   3.733   6.606   6.677  0.5514 -0.3120  0.1567
    8SAPS   O14  946   3.827   6.821   6.766  0.7571  0.8187  0.1959
    8SAPS   O12  947   3.973   6.672   6.637  0.0266 -0.0833  0.3178
    8SAPS   O11  948   3.785   6.787   6.519  0.2798  0.0245  0.4438
    8SAPS    C1  949   3.827   6.713   6.404  0.2283 -0.4471  0.3768
    8SAPS    HA  950   3.913   6.761   6.352  0.6818 -1.1410  0.4647
    8SAPS    HB  951   3.875   6.616   6.430  0.5682 -0.2726  0.4048
    8SAPS    C2  952   3.715   6.682   6.301 -0.6268 -0.9121  0.4703
    8SAPS    HS  953   3.650   6.772   6.299 -1.5099 -1.5243 -1.8312
    8SAPS   O21  954   3.637   6.559   6.329  0.3002  0.1655  0.3512
    8SAPS   C21  955   3.547   6.570   6.426 -0.7613  0.0792  0.4819
    8SAPS   O22  956   3.517   6.674   6.484 -0.2321  0.2934  0.5027
    8SAPS   C22  957   3.471   6.437   6.449 -0.0642 -0.9981 -0.6054
    8SAPS   H2R  958   3.524   6.351   6.403 -1.4669 -1.5055 -1.3457
    8SAPS   H2S  959   3.473   6.411   6.557  1.0580 -2.8542 -1.0208
    8SAPS    C3  960   3.777   6.677   6.155  0.4246 -1.1192 -0.5814
    8SAPS    HX  961   3.700   6.664   6.076  1.0040 -0.3171 -1.2910
    8SAPS    HY  962   3.831   6.583   6.134  1.7528 -0.1853 -1.4680
    8SAPS   O31  963   3.865   6.793   6.133 -0.1137  0.1014  0.4148
    8SAPS   C31  964   3.800   6.905   6.089  0.4814 -0.0875 -0.1661
    8SAPS   O32  965   3.688   6.912   6.059  0.4143 -0.7114  0.1543
    8SAPS   C32  966   3.911   7.009   6.075  0.1128  0.9120 -0.1162
    8SAPS   H2X  967   4.010   6.970   6.041 -0.9737 -2.1592 -0.0911
    8SAPS   H2Y  968   3.931   7.047   6.177 -1.2311  0.0950  0.4828
    8SAPS   C23  969   3.327   6.441   6.407 -0.3631 -0.4345 -0.5221
    8SAPS   H3R  970   3.280   6.540   6.428  1.1710  0.6047 -1.7445
    8SAPS   H3S  971   3.268   6.359   6.454 -0.5644 -0.3273 -0.5836
    8SAPS   C24  972   3.311   6.420   6.255 -0.6127 -0.5437 -0.2626
    8SAPS   H4R  973   3.360   6.324   6.231 -0.9196 -0.2931 -2.1019
    8SAPS   H4S  974   3.374   6.496   6.204  1.7247 -0.6893  2.1882
    8SAPS   C25  975   3.166   6.436   6.214  0.1602 -0.5900  0.2724
    8SAPS   H5R  976   3.100   6.512   6.259 -0.9686 -0.7893 -0.9557
    8SAPS   C26  977   3.109   6.368   6.108 -0.0816  0.1319  0.0365
    8SAPS   H6R  978   3.001   6.387   6.096 -0.5830 -2.5364 -0.4353
    8SAPS   C27  979   3.167   6.256   6.029 -0.2824  0.5807 -0.5386
    8SAPS   H7R  980   3.148   6.156   6.073  1.5994  0.1069 -0.7015
    8SAPS   H7S  981   3.278   6.260   6.033 -0.3489  2.6555  0.2289
    8SAPS   C28  982   3.122   6.262   5.884  0.0088  0.4948  0.2203
    8SAPS   H8R  983   3.155   6.353   5.831  1.3931 -0.7487 -1.1428
    8SAPS   C29  984   3.049   6.176   5.816  1.1518 -1.4540  0.3394
    8SAPS   H9R  985   3.025   6.200   5.711  2.4763 -0.4741  0.2238
    8SAPS  C210  986   2.978   6.058   5.864 -0.0060  0.1174 -0.2786
    8SAPS  H10R  987   2.878   6.099   5.889  0.5639  0.5504  1.3759
    8SAPS  H10S  988   3.005   6.013   5.962  0.5492 -0.2596 -0.6015
    8SAPS  C211  989   2.956   5.936   5.774  0.3503  0.3459 -0.0579
    8SAPS  H11R  990   3.029   5.856   5.790  0.0252  0.3106  1.3238
    8SAPS  C212  991   2.861   5.922   5.681 -0.0112 -0.1858 -0.4514
    8SAPS  H12R  992   2.861   5.824   5.631 -0.8260 -2.4872  3.6612
    8SAPS  C213  993   2.750   6.010   5.652  0.0019 -0.0345  0.6964
    8SAPS  H13R  994   2.786   6.111   5.623  1.7458 -0.5247  1.0176
    8SAPS  H13S  995   2.696   6.029   5.748  0.8099  2.4277  0.7178
    8SAPS  C214  996   2.654   5.961   5.550  0.1685 -0.0607 -0.1333
    8SAPS  H14R  997   2.592   5.875   5.580  1.1266 -0.2604  1.4037
    8SAPS  C215  998   2.635   6.001   5.426  0.7344 -0.8134 -0.0300
    8SAPS  H15R  999   2.575   5.935   5.362  0.8767 -0.7200 -0.2648
    8SAPS  C216 1000   2.706   6.109   5.348  0.1406 -0.1473 -0.7165
    8SAPS  H16R 1001   2.774   6.167   5.414 -1.7954  1.0762  0.3126
    8SAPS  H16S 1002   2.637   6.191   5.317  1.8715  0.6090 -2.8082
    8SAPS  C217 1003   2.780   6.049   5.227  0.4457 -0.6995  0.0537
    8SAPS  H17R 1004   2.847   5.968   5.260  0.1089 -1.4263 -0.9816
    8SAPS  H17S 1005   2.854   6.123   5.190 -1.1549 -0.5031 -3.2333
    8SAPS  C218 1006   2.688   6.014   5.104 -0.2500  0.4272  0.1332
    8SAPS  H18R 1007   2.637   6.100   5.055 -0.9675 -0.2997 -0.4165
    8SAPS  H18S 1008   2.614   5.938   5.137  0.9814 -1.5918 -1.5072
    8SAPS  C219 1009   2.764   5.947   4.992 -0.1578 -0.2335 -1.1310
    8SAPS  H19R 1010   2.692   5.894   4.926 -2.2650  2.7204 -1.4030
    8SAPS  H19S 1011   2.832   5.871   5.035 -0.8903  0.8911  2.3451
    8SAPS  C220 1012   2.847   6.045   4.909 -0.9608 -0.2717 -0.1839
    8SAPS  H20R 1013   2.934   6.084   4.967 -0.5146 -1.3740 -0.0861
    8SAPS  H20S 1014   2.779   6.129   4.883 -2.0341 -0.9086  0.5089
    8SAPS  H20T 1015   2.896   6.018   4.813  2.0438  0.8872  0.8985
    8SAPS   C33 1016   3.878   7.114   5.965  0.4080  0.1296 -0.2531
    8SAPS   H3X 1017   3.932   7.207   5.991  0.8015 -0.1104 -0.2006
    8SAPS   H3Y 1018   3.767   7.119   5.962  0.3484 -0.8088 -0.1135
    8SAPS   C34 1019   3.920   7.081   5.824 -0.0561  0.3794  0.1991
    8SAPS   H4X 1020   4.031   7.072   5.834 -0.1373  0.5691  1.3861
    8SAPS   H4Y 1021   3.889   7.167   5.761 -0.5486  0.3414  0.3849
    8SAPS   C35 1022   3.838   6.962   5.772  0.5122  0.5289  0.2985
    8SAPS   H5X 1023   3.736   7.006   5.761  0.0739 -0.2169  1.2446
    8SAPS   H5Y 1024   3.819   6.874   5.837  1.7561 -0.9130 -1.2316
    8SAPS   C36 1025   3.889   6.900   5.646 -1.0048 -0.8846  0.1426
    8SAPS   H6X 1026   3.833   6.808   5.622 -0.2375 -1.4215  0.3822
    8SAPS   H6Y 1027   3.992   6.868   5.673 -0.7776 -0.0155  0.3620
    8SAPS   C37 1028   3.894   6.981   5.514  0.0609 -0.8287 -0.2795
    8SAPS   H7X 1029   3.954   7.073   5.533  1.1122 -1.4998 -0.3214
    8SAPS   H7Y 1030   3.796   7.014   5.474  1.2365 -0.0744 -2.7204
    8SAPS   C38 1031   3.974   6.903   5.405  0.1516 -0.5716  0.4267
    8SAPS   H8X 1032   3.928   6.803   5.390  1.1958 -1.2365  1.4542
    8SAPS   H8Y 1033   4.072   6.893   5.457 -0.8727  0.5896  2.7178
    8SAPS   C39 1034   3.983   6.969   5.271 -0.6651 -0.0702  0.1950
    8SAPS   H9X 1035   4.056   6.927   5.198 -0.0281  0.1923  0.6629
    8SAPS   H9Y 1036   4.021   7.072   5.287 -1.1836  0.1403  0.0779
    8SAPS  C310 1037   3.854   6.995   5.201  0.7216  0.3734 -0.4972
    8SAPS  H10X 1038   3.791   7.068   5.256 -1.2252 -1.4991 -0.1257
    8SAPS  H10Y 1039   3.793   6.902   5.198  3.3583 -1.4722 -0.8163
    8SAPS  C311 1040   3.891   7.048   5.053 -0.3174  0.5017 -1.2260
    8SAPS  H11X 1041   3.959   6.980   4.996  0.9036 -0.9203  1.6962
    8SAPS  H11Y 1042   3.963   7.131   5.067 -1.3528  1.0989  1.0134
    8SAPS  C312 1043   3.767   7.085   4.963  0.4849  0.4344  0.4122
    8SAPS  H12X 1044   3.739   7.189   4.990 -0.2349 -0.1519  2.0019
    8SAPS  H12Y 1045   3.680   7.021   4.988 -0.1490  1.0999 -0.0498
    8SAPS  C313 1046   3.809   7.075   4.815 -0.3064  0.1541 -0.1037
    8SAPS  H13X 1047   3.863   6.978   4.805 -1.2043 -0.2412 -1.4722
    8SAPS  H13Y 1048   3.873   7.160   4.784 -0.9269  1.0545  1.0273
    8SAPS  C314 1049   3.684   7.078   4.723 -0.0545 -0.9458 -0.2580
    8SAPS  H14X 1050   3.652   7.182   4.703 -3.1675 -1.5709  0.9019
    8SAPS  H14Y 1051   3.598   7.036   4.778  0.1303 -1.0794 -0.0682
    8SAPS  C315 1052   3.696   6.994   4.590 -0.5640  1.2452 -1.0768
    8SAPS  H15X 1053   3.602   7.008   4.532 -2.0840 -0.4903  0.8154
    8SAPS  H15Y 1054   3.677   6.888   4.615  1.1835  1.7268  3.1163
    8SAPS  C316 1055   3.828   7.020   4.515  0.2990  0.6973 -0.0510
    8SAPS  H16X 1056   3.908   6.983   4.582  0.5689 -1.4810 -1.4752
    8SAPS  H16Y 1057   3.838   7.129   4.496  1.0544  0.6591  0.1086
    8SAPS  C317 1058   3.836   6.942   4.378 -0.2274 -0.1615  0.6488
    8SAPS  H17X 1059   3.929   6.967   4.321  0.0721  1.9849  1.9660
    8SAPS  H17Y 1060   3.753   6.975   4.310 -0.8371 -0.6115  1.1661
    8SAPS  C318 1061   3.837   6.784   4.394 -0.4444  0.2511 -0.0063
    8SAPS  H18X 1062   3.746   6.758   4.452  1.4511  1.0159  3.5746
    8SAPS  H18Y 1063   3.913   6.746   4.466 -3.5033 -1.4351  2.6241
    8SAPS  H18Z 1064   3.845   6.729   4.298 -0.1816 -0.1493  0.2455
    9SAPS     N 1065   1.106   5.336   6.813 -0.0159  0.3269  0.5381
    9SAPS   HN1 1066   1.167   5.253   6.815  1.0594  1.0968  0.3905
    9SAPS   HN2 1067   1.135   5.406   6.884  0.4907 -1.0123  1.6785
    9SAPS   HN3 1068   1.014   5.301   6.846 -0.0059  1.3190  1.6968
    9SAPS   C12 1069   1.093   5.393   6.678  0.0173  0.0014  0.0384
    9SAPS  H12A 1070   1.062   5.317   6.608 -0.5093  1.0497 -0.9092
    9SAPS   C13 1071   0.996   5.511   6.687  0.4270  0.0196  0.4308
    9SAPS  O13A 1072   0.970   5.571   6.793  0.1501 -0.5265  0.5279
    9SAPS  O13B 1073   0.973   5.579   6.582  0.6353 -0.3530 -0.0693
    9SAPS   C11 1074   1.239   5.430   6.630 -1.0627 -0.3871  0.3255
    9SAPS  H11A 1075   1.274   5.510   6.699  0.1193 -0.7985  0.2157
    9SAPS  H11B 1076   1.221   5.455   6.523 -1.1259 -0.2846  0.3603
    9SAPS     P 1077   1.489   5.332   6.672  0.1254  0.1408 -0.1131
    9SAPS   O13 1078   1.518   5.479   6.654 -0.2941  0.1692  0.0181
    9SAPS   O14 1079   1.528   5.268   6.799 -0.4446  0.0421  0.1808
    9SAPS   O12 1080   1.326   5.315   6.638  0.4044  0.0495  0.1982
    9SAPS   O11 1081   1.560   5.250   6.568 -0.3098 -0.1225 -0.3412
    9SAPS    C1 1082   1.527   5.109   6.533 -0.6912  0.2838  0.0525
    9SAPS    HA 1083   1.586   5.039   6.596 -1.8218  0.9447  1.9205
    9SAPS    HB 1084   1.418   5.090   6.537 -0.5672 -0.4327  0.1740
    9SAPS    C2 1085   1.557   5.083   6.381 -0.2880  0.1376 -0.5913
    9SAPS    HS 1086   1.666   5.102   6.369  0.1849 -1.7489  0.4408
    9SAPS   O21 1087   1.489   5.182   6.310 -0.2052  0.1401  0.1458
    9SAPS   C21 1088   1.557   5.284   6.247  0.2514 -0.4257 -0.5042
    9SAPS   O22 1089   1.676   5.302   6.258 -0.5366  0.1835 -0.3998
    9SAPS   C22 1090   1.462   5.367   6.168  0.6594 -0.5271 -1.0451
    9SAPS   H2R 1091   1.371   5.305   6.148 -0.7835  0.6779  1.3092
    9SAPS   H2S 1092   1.436   5.453   6.234  1.9652 -0.0304 -1.1570
    9SAPS    C3 1093   1.511   4.938   6.330  0.2548 -0.3180  0.1681
    9SAPS    HX 1094   1.405   4.940   6.362 -0.7762 -1.0326 -2.9016
    9SAPS    HY 1095   1.567   4.857   6.382  2.0387  0.6954 -0.0690
    9SAPS   O31 1096   1.527   4.921   6.186  0.2970  0.0179 -0.0034
    9SAPS   C31 1097   1.653   4.908   6.143 -0.0510 -0.6504 -0.3539
    9SAPS   O32 1098   1.746   4.880   6.217  0.1429  0.0412  0.0191
    9SAPS   C32 1099   1.664   4.916   5.990 -0.0181 -0.2650 -0.4256
    9SAPS   H2X 1100   1.625   4.821   5.946  0.4563  0.2072 -1.9176
    9SAPS   H2Y 1101   1.771   4.909   5.963  0.4871 -3.5559  1.8479
    9SAPS   C23 1102   1.527   5.426   6.043 -0.1553  0.1801 -0.7227
    9SAPS   H3R 1103   1.590   5.347   5.996 -0.7083 -0.6830 -0.0376
    9SAPS   H3S 1104   1.587   5.518   6.059 -3.1039  1.8999  1.3855
    9SAPS   C24 1105   1.421   5.467   5.945  0.4421 -0.4710  0.4935
    9SAPS   H4R 1106   1.365   5.378   5.910  0.3961 -0.8266  1.4312
    9SAPS   H4S 1107   1.472   5.514   5.858 -0.5424  1.1617  0.7560
    9SAPS   C25 1108   1.310   5.559   5.992 -0.7464 -0.4766 -0.1442
    9SAPS   H5R 1109   1.243   5.507   6.062  1.2812 -1.2842  1.2861
    9SAPS   C26 1110   1.285   5.687   5.955  0.3882  0.3432  0.1169
    9SAPS   H6R 1111   1.189   5.729   5.989 -0.6606 -2.8077  1.5144
    9SAPS   C27 1112   1.374   5.777   5.880  0.5253 -0.3820  0.1317
    9SAPS   H7R 1113   1.475   5.732   5.866  1.3370  1.5335 -0.5432
    9SAPS   H7S 1114   1.376   5.874   5.934  1.1619 -0.4644  0.2652
    9SAPS   C28 1115   1.307   5.792   5.749 -0.0484 -0.1757 -0.2562
    9SAPS   H8R 1116   1.217   5.855   5.753  0.3792  0.3941  0.6371
    9SAPS   C29 1117   1.352   5.754   5.627 -0.6758  0.3152  0.7903
    9SAPS   H9R 1118   1.293   5.782   5.539  1.6088  0.5326 -0.7719
    9SAPS  C210 1119   1.472   5.674   5.595  0.0943  0.4411  0.3969
    9SAPS  H10R 1120   1.515   5.634   5.689 -3.3248  0.1344  1.9709
    9SAPS  H10S 1121   1.556   5.738   5.559  0.0231  0.6600  0.6204
    9SAPS  C211 1122   1.450   5.560   5.490  0.3575 -0.5293  0.3375
    9SAPS  H11R 1123   1.456   5.463   5.541  1.2481 -2.3179 -2.9187
    9SAPS  C212 1124   1.426   5.572   5.358  0.2287 -0.3950  0.1612
    9SAPS  H12R 1125   1.410   5.477   5.306 -0.1375 -0.4076  0.2901
    9SAPS  C213 1126   1.422   5.700   5.282 -0.3839  0.2274  0.1545
    9SAPS  H13R 1127   1.432   5.786   5.352 -2.7609  1.1613 -0.5530
    9SAPS  H13S 1128   1.323   5.716   5.232 -1.3820  2.1358  2.5077
    9SAPS  C214 1129   1.536   5.713   5.188 -0.6890 -0.0352  0.8481
    9SAPS  H14R 1130   1.635   5.696   5.233  1.3214  1.5127 -2.6039
    9SAPS  C215 1131   1.532   5.742   5.055 -0.6629 -0.0051 -0.4364
    9SAPS  H15R 1132   1.623   5.735   4.993  2.0955 -0.9800  3.3684
    9SAPS  C216 1133   1.413   5.776   4.979  0.3505 -0.3998 -0.6853
    9SAPS  H16R 1134   1.439   5.856   4.907  1.6269  0.6635  0.8767
    9SAPS  H16S 1135   1.336   5.821   5.044  1.8971  0.5270  0.5860
    9SAPS  C217 1136   1.359   5.660   4.893  0.1099  0.2272 -1.0932
    9SAPS  H17R 1137   1.423   5.636   4.805 -0.9472 -2.2001 -1.2928
    9SAPS  H17S 1138   1.260   5.694   4.856 -0.3768  0.2637  0.2233
    9SAPS  C218 1139   1.337   5.520   4.958 -0.4689  0.2625  0.7089
    9SAPS  H18R 1140   1.249   5.516   5.025  0.9583 -0.2206  2.6338
    9SAPS  H18S 1141   1.414   5.485   5.029 -1.2551 -1.3680  0.8015
    9SAPS  C219 1142   1.311   5.404   4.858 -0.2866 -0.1756 -0.7302
    9SAPS  H19R 1143   1.225   5.444   4.800  1.0991  2.1127 -1.3490
    9SAPS  H19S 1144   1.270   5.313   4.906  0.8146 -0.3187 -0.0344
    9SAPS  C220 1145   1.423   5.360   4.767  0.2518 -0.4923 -0.2143
    9SAPS  H20R 1146   1.514   5.342   4.827 -0.0505  0.3450  0.5110
    9SAPS  H20S 1147   1.457   5.442   4.700  2.1146 -0.4520  0.7210
    9SAPS  H20T 1148   1.396   5.269   4.708 -2.2496 -1.4886  2.2385
    9SAPS   C33 1149   1.604   5.031   5.909 -0.8908 -0.3555 -0.5286
    9SAPS   H3X 1150   1.651   5.130   5.930 -0.9761 -0.2022 -1.0336
    9SAPS   H3Y 1151   1.494   5.022   5.926 -0.7264 -4.2095 -0.6034
    9SAPS   C34 1152   1.618   5.002   5.758  0.5198 -0.8055 -0.1976
    9SAPS   H4X 1153   1.547   4.925   5.722  0.1688 -0.8399  0.5404
    9SAPS   H4Y 1154   1.718   4.954   5.751  2.7264  3.2145  0.7048
    9SAPS   C35 1155   1.613   5.131   5.677 -0.1615  0.3524  0.0650
    9SAPS   H5X 1156   1.672   5.217   5.716 -0.3308  1.1014 -1.2637
    9SAPS   H5Y 1157   1.507   5.163   5.669 -0.8032 -2.0077 -1.6098
    9SAPS   C36 1158   1.677   5.113   5.536 -0.3259  0.0652  0.4059
    9SAPS   H6X 1159   1.627   5.030   5.483  0.3897  0.3246 -0.6982
    9SAPS   H6Y 1160   1.778   5.070   5.554 -1.8962 -3.0982  2.7822
    9SAPS   C37 1161   1.687   5.249   5.467 -0.1205  0.3092  0.5011
    9SAPS   H7X 1162   1.720   5.335   5.529  2.1335 -0.8084  0.9138
    9SAPS   H7Y 1163   1.588   5.279   5.425  0.2613  0.5996 -0.2048
    9SAPS   C38 1164   1.780   5.231   5.342 -0.0293 -0.2039 -0.8114
    9SAPS   H8X 1165   1.745   5.142   5.287  0.8056  0.0053 -1.7163
    9SAPS   H8Y 1166   1.883   5.207   5.376 -0.3205  2.1559  2.1310
    9SAPS   C39 1167   1.783   5.339   5.234 -0.2337 -0.5924 -0.4778
    9SAPS   H9X 1168   1.876   5.397   5.251 -0.5044 -0.4158  0.4529
    9SAPS   H9Y 1169   1.699   5.411   5.241 -0.2495 -0.5573 -0.9930
    9SAPS  C310 1170   1.791   5.294   5.089  0.0542  0.2841 -0.4306
    9SAPS  H10X 1171   1.718   5.216   5.058  0.3922  0.5002 -1.8500
    9SAPS  H10Y 1172   1.890   5.246   5.099 -0.0354  0.3346  0.9219
    9SAPS  C311 1173   1.785   5.407   4.985 -0.2385 -0.1393  0.2592
    9SAPS  H11X 1174   1.839   5.497   5.021  0.3941 -0.4520  0.1054
    9SAPS  H11Y 1175   1.680   5.435   4.960 -0.7687 -3.3774 -1.7382
    9SAPS  C312 1176   1.854   5.385   4.848 -0.2401  0.1626 -0.4577
    9SAPS  H12X 1177   1.850   5.280   4.811  1.1214  0.1333 -0.5677
    9SAPS  H12Y 1178   1.962   5.401   4.871  0.0764 -2.1975 -0.0907
    9SAPS  C313 1179   1.827   5.497   4.747 -0.4591  0.1987 -0.1395
    9SAPS  H13X 1180   1.859   5.590   4.798  1.2072 -0.1365 -0.5085
    9SAPS  H13Y 1181   1.717   5.504   4.735 -0.5939  0.0184  0.8921
    9SAPS  C314 1182   1.894   5.488   4.605 -0.2019 -0.1734 -0.0022
    9SAPS  H14X 1183   1.857   5.567   4.536 -1.0937  1.2869  2.0373
    9SAPS  H14Y 1184   1.850   5.393   4.568 -0.5218  0.0993 -0.3306
    9SAPS  C315 1185   2.046   5.487   4.602 -0.0329  0.2146  0.4115
    9SAPS  H15X 1186   2.077   5.398   4.661 -0.7578 -0.4243 -0.1361
    9SAPS  H15Y 1187   2.089   5.571   4.660  0.5340 -1.0660  1.9227
    9SAPS  C316 1188   2.105   5.493   4.461  0.7519 -0.3755 -0.0497
    9SAPS  H16X 1189   2.091   5.597   4.425 -1.3754 -1.1916 -1.7615
    9SAPS  H16Y 1190   2.048   5.428   4.392 -0.2675  0.0703  0.3483
    9SAPS  C317 1191   2.250   5.450   4.456  0.6029  0.5306 -0.1128
    9SAPS  H17X 1192   2.307   5.482   4.545  0.7538 -3.3357  1.3857
    9SAPS  H17Y 1193   2.295   5.493   4.364  0.6904 -0.0283 -0.3390
    9SAPS  C318 1194   2.254   5.297   4.459  0.3277 -0.5723 -0.0992
    9SAPS  H18X 1195   2.175   5.274   4.534  0.2888 -0.7453 -0.1929
    9SAPS  H18Y 1196   2.353   5.256   4.485  0.8177  0.0796 -0.8900
    9SAPS  H18Z 1197   2.218   5.256   4.362 -1.3832  1.1881 -0.2846
   10SAPS     N 1198   2.055   3.997   7.093 -0.3470 -0.1435  0.2956
   10SAPS   HN1 1199   2.134   3.947   7.137 -0.5531 -0.5655  0.1953
   10SAPS   HN2 1200   1.983   3.998   7.169  0.0148 -1.3353  0.6685
   10SAPS   HN3 1201   2.028   3.943   7.008  2.4503 -0.4205 -0.4987
   10SAPS   C12 1202   2.090   4.133   7.045 -0.5562 -0.3506 -0.0203
   10SAPS  H12A 1203   2.015   4.166   6.974  1.0132  1.4116 -0.9419
   10SAPS   C13 1204   2.081   4.238   7.156  0.4698  1.0841  0.5310
   10SAPS  O13A 1205   2.053   4.204   7.273 -0.0853  0.1403  0.3806
   10SAPS  O13B 1206   2.089   4.358   7.120 -0.6420  0.1376 -0.5557
   10SAPS   C11 1207   2.230   4.127   6.982 -0.6251  0.5650 -0.1625
   10SAPS  H11A 1208   2.317   4.107   7.049 -1.8890 -0.8963  1.1375
   10SAPS  H11B 1209   2.245   4.233   6.954  0.8693  0.0733 -1.3329
   10SAPS     P 1210   2.319   4.082   6.740 -0.3418 -0.2273  0.0332
   10SAPS   O13 1211   2.436   4.165   6.785  0.8086 -0.6247  0.2473
   10SAPS   O14 1212   2.352   3.952   6.670  0.2022  0.1610  0.0051
   10SAPS   O12 1213   2.234   4.034   6.867  0.0094 -0.1807  0.0245
   10SAPS   O11 1214   2.215   4.160   6.659  0.1349 -0.1735  0.1334
   10SAPS    C1 1215   2.076   4.135   6.653  0.7121 -0.7797  0.1483
   10SAPS    HA 1216   2.038   4.070   6.735 -0.5942 -0.4224 -0.1527
   10SAPS    HB 1217   2.023   4.232   6.654  2.4774  0.2925  2.9706
   10SAPS    C2 1218   2.046   4.069   6.513  0.0952 -0.5239  0.1483
   10SAPS    HS 1219   2.077   3.962   6.518 -3.6779 -1.9327 -2.4630
   10SAPS   O21 1220   2.118   4.138   6.410  0.0592  0.0696  1.0242
   10SAPS   C21 1221   2.178   4.064   6.314 -0.1597  0.1684  0.0117
   10SAPS   O22 1222   2.223   3.955   6.331  0.5882 -0.0638  0.0002
   10SAPS   C22 1223   2.174   4.137   6.178 -0.6487 -0.3340 -0.2190
   10SAPS   H2R 1224   2.077   4.132   6.124  0.0735  1.8201 -1.8611
   10SAPS   H2S 1225   2.206   4.243   6.185  0.5877 -0.5094 -2.2949
   10SAPS    C3 1226   1.897   4.077   6.477 -0.3370 -0.1169  0.0106
   10SAPS    HX 1227   1.870   4.177   6.517 -0.4527  0.2576 -0.9778
   10SAPS    HY 1228   1.823   4.020   6.537 -3.0734  3.3919  0.2328
   10SAPS   O31 1229   1.864   4.067   6.334  0.0711  0.3356  0.0305
   10SAPS   C31 1230   1.861   3.945   6.289  0.6929  0.1277  0.2853
   10SAPS   O32 1231   1.878   3.837   6.349 -0.0591 -0.2882  0.1175
   10SAPS   C32 1232   1.823   3.962   6.140 -0.0262  0.4200  0.7511
   10SAPS   H2X 1233   1.871   4.054   6.102  1.6326 -1.6103 -2.4670
   10SAPS   H2Y 1234   1.712   3.972   6.132 -0.0414 -0.1310  0.1966
   10SAPS   C23 1235   2.283   4.078   6.085  0.2400  0.5846 -0.1339
   10SAPS   H3R 1236   2.266   3.971   6.060  3.0568  0.1136 -0.3447
   10SAPS   H3S 1237   2.383   4.097   6.129  0.5582  0.3118 -0.7209
   10SAPS   C24 1238   2.265   4.163   5.948  0.4420 -0.1911  0.7242
   10SAPS   H4R 1239   2.155   4.167   5.937 -0.0962 -2.4628  3.9149
   10SAPS   H4S 1240   2.315   4.100   5.870  0.4619  1.9965 -1.1246
   10SAPS   C25 1241   2.321   4.306   5.955  0.0079  0.0747 -0.0317
   10SAPS   H5R 1242   2.419   4.311   6.004  0.9308 -3.3179 -1.2095
   10SAPS   C26 1243   2.267   4.420   5.905  0.3350 -0.2175  0.3698
   10SAPS   H6R 1244   2.311   4.517   5.931 -0.5878  0.9246 -1.9979
   10SAPS   C27 1245   2.144   4.430   5.811  0.2241 -0.0259 -0.5385
   10SAPS   H7R 1246   2.049   4.458   5.861  0.4840  0.1320 -0.1317
   10SAPS   H7S 1247   2.124   4.331   5.765  1.5888 -0.1167 -0.9920
   10SAPS   C28 1248   2.170   4.507   5.685 -0.4688 -0.6686 -0.0973
   10SAPS   H8R 1249   2.151   4.614   5.703  0.1664 -0.4688 -0.5684
   10SAPS   C29 1250   2.207   4.463   5.560 -0.5430  1.0124 -0.3394
   10SAPS   H9R 1251   2.217   4.532   5.475  3.1489  2.4363  1.0391
   10SAPS  C210 1252   2.230   4.318   5.521 -0.4575 -0.2378 -0.2144
   10SAPS  H10R 1253   2.145   4.282   5.458  0.5415 -0.8794 -1.2262
   10SAPS  H10S 1254   2.224   4.251   5.609 -0.8990 -0.2069 -0.2171
   10SAPS  C211 1255   2.356   4.276   5.448  0.1886  0.1091  0.3804
   10SAPS  H11R 1256   2.452   4.266   5.501 -0.1514 -0.9056  0.8386
   10SAPS  C212 1257   2.354   4.242   5.314  0.9131 -1.0738 -0.7415
   10SAPS  H12R 1258   2.452   4.230   5.266  1.8187  2.2941  0.0473
   10SAPS  C213 1259   2.236   4.243   5.228  0.0031 -0.2463  0.3000
   10SAPS  H13R 1260   2.165   4.172   5.275 -1.8741  0.1062 -1.8442
   10SAPS  H13S 1261   2.260   4.208   5.125  2.3852 -1.2332  1.1264
   10SAPS  C214 1262   2.172   4.379   5.209  0.9712 -0.1598  0.0571
   10SAPS  H14R 1263   2.199   4.463   5.275 -0.8059  0.7455 -0.3219
   10SAPS  C215 1264   2.055   4.389   5.133 -0.5630 -0.0505 -0.2955
   10SAPS  H15R 1265   2.007   4.487   5.121 -0.5813 -0.0169  0.0453
   10SAPS  C216 1266   2.002   4.279   5.042  0.8196 -0.1637  0.1462
   10SAPS  H16R 1267   1.895   4.296   5.016  1.1029  1.1077 -0.2458
   10SAPS  H16S 1268   2.011   4.183   5.097 -0.0143  0.8594  2.1948
   10SAPS  C217 1269   2.078   4.272   4.912  0.2247 -0.3376  0.1552
   10SAPS  H17R 1270   2.183   4.245   4.935  1.2717  2.2655 -1.1772
   10SAPS  H17S 1271   2.072   4.365   4.851 -2.2646 -0.2375  0.4410
   10SAPS  C218 1272   2.018   4.162   4.827  0.1762  0.4204  0.0128
   10SAPS  H18R 1273   1.918   4.178   4.780 -0.1588 -2.9816 -0.7250
   10SAPS  H18S 1274   2.016   4.069   4.888  1.5965 -0.9500 -1.9294
   10SAPS  C219 1275   2.104   4.099   4.715 -0.7155 -0.4682  0.2885
   10SAPS  H19R 1276   2.201   4.061   4.754 -1.0178  0.5754  2.1538
   10SAPS  H19S 1277   2.134   4.188   4.655  0.7699 -0.1538  1.4312
   10SAPS  C220 1278   2.048   3.999   4.615 -0.1897  0.2547 -0.3109
   10SAPS  H20R 1279   1.941   4.006   4.584  0.0398  1.3867 -0.8828
   10SAPS  H20S 1280   2.056   3.896   4.657 -1.0836  0.6075  0.7826
   10SAPS  H20T 1281   2.107   4.001   4.521  0.3737 -1.2645 -0.0290
   10SAPS   C33 1282   1.880   3.853   6.050 -0.2002  0.8208  0.0076
   10SAPS   H3X 1283   1.826   3.763   6.084  0.0514  0.4172 -0.6425
   10SAPS   H3Y 1284   1.989   3.835   6.062 -0.3835 -0.4098 -0.0229
   10SAPS   C34 1285   1.839   3.865   5.905  0.2610  1.2639  0.0111
   10SAPS   H4X 1286   1.728   3.873   5.894  0.5254  2.6280 -2.6986
   10SAPS   H4Y 1287   1.874   3.773   5.854 -0.4411  0.7878  0.3788
   10SAPS   C35 1288   1.900   3.987   5.837 -0.1792  0.0535  0.2231
   10SAPS   H5X 1289   2.010   3.993   5.846 -0.1207  1.2723 -0.9969
   10SAPS   H5Y 1290   1.855   4.075   5.888 -0.5903 -0.9991  1.7512
   10SAPS   C36 1291   1.865   3.991   5.689  0.1039  0.2166  0.0200
   10SAPS   H6X 1292   1.756   3.983   5.671 -0.3487  1.9094  1.6106
   10SAPS   H6Y 1293   1.919   3.907   5.640 -1.4553 -1.6692  1.4042
   10SAPS   C37 1294   1.910   4.126   5.626 -0.5175  0.7847 -0.7857
   10SAPS   H7X 1295   2.020   4.136   5.637 -0.2010 -1.3640 -1.5615
   10SAPS   H7Y 1296   1.857   4.204   5.685 -1.1200  0.9743 -1.5530
   10SAPS   C38 1297   1.876   4.146   5.478  0.1206  0.5906 -0.1276
   10SAPS   H8X 1298   1.916   4.057   5.424  1.0635  0.4686  0.7442
   10SAPS   H8Y 1299   1.930   4.233   5.437  1.1777  0.3150  0.6484
   10SAPS   C39 1300   1.728   4.180   5.447  0.5062  0.0218 -0.2059
   10SAPS   H9X 1301   1.689   4.269   5.502 -1.1452 -1.0291  0.3878
   10SAPS   H9Y 1302   1.655   4.098   5.465  0.7877 -0.3115 -0.5792
   10SAPS  C310 1303   1.712   4.210   5.295 -0.4695  0.5055 -0.4295
   10SAPS  H10X 1304   1.759   4.125   5.241 -1.8273 -0.3730 -0.2446
   10SAPS  H10Y 1305   1.776   4.297   5.265  0.7079 -0.3257 -0.3921
   10SAPS  C311 1306   1.570   4.225   5.256 -0.3651 -0.1720  0.6127
   10SAPS  H11X 1307   1.530   4.321   5.292  0.5602 -0.1563  1.6270
   10SAPS  H11Y 1308   1.510   4.144   5.304 -1.1627 -0.5890 -1.0140
   10SAPS  C312 1309   1.557   4.213   5.103  0.7068 -0.1484 -0.2746
   10SAPS  H12X 1310   1.625   4.281   5.047  0.8973  0.7233  0.9652
   10SAPS  H12Y 1311   1.455   4.251   5.083  0.4294 -0.9131 -0.3443
   10SAPS  C313 1312   1.568   4.077   5.050  0.5489  0.5193  0.6178
   10SAPS  H13X 1313   1.509   4.009   5.115  0.2437 -0.5523 -0.7457
   10SAPS  H13Y 1314   1.674   4.045   5.044  0.1075 -0.9213 -0.0550
   10SAPS  C314 1315   1.508   4.071   4.906 -0.6899  0.0980 -0.4701
   10SAPS  H14X 1316   1.401   4.091   4.926 -0.2779  1.9654  0.0533
   10SAPS  H14Y 1317   1.528   3.967   4.872 -1.1014 -0.0352 -0.3126
   10SAPS  C315 1318   1.551   4.172   4.798  0.7979 -0.2075  0.1846
   10SAPS  H15X 1319   1.661   4.191   4.791  0.7200  0.0934 -0.2977
   10SAPS  H15Y 1320   1.520   4.274   4.826  0.8442 -0.1745  0.1172
   10SAPS  C316 1321   1.493   4.136   4.662  0.1706 -0.1007  0.3491
   10SAPS  H16X 1322   1.471   4.228   4.603  1.0986  1.2108  1.9694
   10SAPS  H16Y 1323   1.398   4.084   4.688  0.3577 -0.3096  0.6276
   10SAPS  C317 1324   1.578   4.038   4.576  0.2922  0.0892 -0.2823
   10SAPS  H17X 1325   1.622   3.960   4.641  0.3067  0.1829 -0.1805
   10SAPS  H17Y 1326   1.670   4.090   4.541  1.4276 -0.2333  2.0731
   10SAPS  C318 1327   1.480   3.983   4.466 -0.9144 -0.0364  0.4717
   10SAPS  H18X 1328   1.537   3.925   4.391 -2.1559  0.7207 -1.1138
   10SAPS  H18Y 1329   1.433   4.073   4.420 -2.5063 -1.1929 -0.2494
   10SAPS  H18Z 1330   1.410   3.903   4.499 -1.4299 -1.4438 -3.5164
   11SAPS     N 1331   6.679   4.808   1.819  0.7969  0.2076 -0.8888
   11SAPS   HN1 1332   6.637   4.899   1.846 -2.4634 -1.7385  1.4125
   11SAPS   HN2 1333   6.603   4.737   1.811  0.1359  0.8021 -0.1326
   11SAPS   HN3 1334   6.733   4.763   1.896  0.4193  0.8058 -0.2584
   11SAPS   C12 1335   6.762   4.832   1.698 -0.5801  0.6203 -0.1269
   11SAPS  H12A 1336   6.816   4.739   1.687 -1.2434 -0.1421  2.3726
   11SAPS   C13 1337   6.679   4.851   1.569 -0.4156  0.9017 -0.5963
   11SAPS  O13A 1338   6.553   4.842   1.578 -0.6348 -0.7041  0.0398
   11SAPS  O13B 1339   6.735   4.921   1.478 -0.2270 -0.6265 -0.0967
   11SAPS   C11 1340   6.872   4.941   1.735  0.1217  0.5269 -0.2021
   11SAPS  H11A 1341   6.936   4.957   1.645 -0.6954  1.1296 -0.6984
   11SAPS  H11B 1342   6.942   4.888   1.802 -0.5645 -1.4037 -0.9517
   11SAPS     P 1343   6.904   5.155   1.871 -0.5346 -0.2908 -0.5719
   11SAPS   O13 1344   7.051   5.138   1.832 -0.2601 -0.1755 -0.0082
   11SAPS   O14 1345   6.858   5.297   1.878  0.7616  0.0789  0.1110
   11SAPS   O12 1346   6.812   5.066   1.776  0.1476 -0.3082  0.3759
   11SAPS   O11 1347   6.879   5.079   2.008  0.6219  0.5273  0.5703
   11SAPS    C1 1348   6.966   5.102   2.116 -0.7262 -0.9439 -1.0103
   11SAPS    HA 1349   7.075   5.094   2.093 -0.0796 -0.2323  1.4541
   11SAPS    HB 1350   6.960   5.208   2.148 -0.9998 -1.0476 -0.7123
   11SAPS    C2 1351   6.935   5.008   2.238  0.8640  0.2320 -0.4028
   11SAPS    HS 1352   6.957   4.906   2.202 -0.9658 -0.5956  0.7183
   11SAPS   O21 1353   6.794   5.019   2.280  0.3903  0.1303 -0.1454
   11SAPS   C21 1354   6.732   4.909   2.323 -1.2473 -0.4152  0.5021
   11SAPS   O22 1355   6.784   4.796   2.329 -0.2165 -0.7814 -0.0549
   11SAPS   C22 1356   6.582   4.938   2.365 -0.5937  0.1344 -0.1391
   11SAPS   H2R 1357   6.583   5.014   2.446 -1.2103 -1.3255  1.2883
   11SAPS   H2S 1358   6.531   4.981   2.276 -1.5072  1.4762  0.9971
   11SAPS    C3 1359   7.036   5.046   2.355 -0.3819 -0.4432  0.1968
   11SAPS    HX 1360   7.021   5.157   2.361 -0.3861 -0.3163 -1.7656
   11SAPS    HY 1361   7.138   5.034   2.313 -0.2463  1.4073 -0.0989
   11SAPS   O31 1362   7.011   4.981   2.481  0.9226  0.6400  0.1472
   11SAPS   C31 1363   7.047   4.848   2.469  0.4789  0.6102 -0.3063
   11SAPS   O32 1364   7.087   4.795   2.372 -0.1034 -0.2560  0.3427
   11SAPS   C32 1365   7.052   4.797   2.615 -0.9031  0.3208  0.1003
   11SAPS   H2X 1366   6.978   4.852   2.677 -0.1802  0.6942  0.6423
   11SAPS   H2Y 1367   7.152   4.819   2.658 -0.6420  0.3079 -0.4955
   11SAPS   C23 1368   6.506   4.810   2.419  0.6145 -0.1905 -0.1618
   11SAPS   H3R 1369   6.535   4.715   2.367  0.1450 -0.1345 -0.5317
   11SAPS   H3S 1370   6.397   4.826   2.412  0.9090  1.8945 -0.6673
   11SAPS   C24 1371   6.536   4.772   2.568 -0.8667  0.1857 -0.4137
   11SAPS   H4R 1372   6.643   4.744   2.581 -1.2622 -0.5836  1.7142
   11SAPS   H4S 1373   6.477   4.679   2.587  1.1303 -1.7164 -2.8413
   11SAPS   C25 1374   6.494   4.869   2.674 -0.3624 -0.2501 -0.4070
   11SAPS   H5R 1375   6.386   4.889   2.674 -0.4140 -0.5013 -0.0008
   11SAPS   C26 1376   6.570   4.918   2.776  0.3433  0.2091 -0.5356
   11SAPS   H6R 1377   6.537   4.998   2.845  2.8982  0.8028  0.1010
   11SAPS   C27 1378   6.713   4.892   2.797 -0.6558 -0.5118  0.4904
   11SAPS   H7R 1379   6.760   4.874   2.698 -0.4028  1.6367  0.1736
   11SAPS   H7S 1380   6.717   4.800   2.860 -1.6791 -2.2028 -1.7682
   11SAPS   C28 1381   6.802   5.003   2.872 -0.2992  0.5987 -0.5688
   11SAPS   H8R 1382   6.868   5.065   2.809  0.0034  1.5089  0.6098
   11SAPS   C29 1383   6.802   5.021   3.007 -0.1888  0.8618 -0.0055
   11SAPS   H9R 1384   6.847   5.112   3.048 -0.1001 -0.1525  2.2867
   11SAPS  C210 1385   6.720   4.944   3.112  0.6556 -0.0031 -0.4126
   11SAPS  H10R 1386   6.774   4.936   3.209  0.4240  1.5071 -0.1272
   11SAPS  H10S 1387   6.702   4.839   3.080  2.1741 -0.5319  0.3584
   11SAPS  C211 1388   6.581   5.003   3.132 -0.3072  0.0394  0.7213
   11SAPS  H11R 1389   6.543   5.042   3.036  1.1851 -1.0936 -0.3968
   11SAPS  C212 1390   6.517   5.039   3.247  0.0203  0.2171 -0.5042
   11SAPS  H12R 1391   6.420   5.091   3.240 -0.2006 -0.2347 -0.8341
   11SAPS  C213 1392   6.565   5.002   3.382 -0.1860  0.2269  0.0236
   11SAPS  H13R 1393   6.493   5.064   3.438 -0.5466  3.6291 -3.7059
   11SAPS  H13S 1394   6.671   5.035   3.393 -0.1457 -0.3602  1.6527
   11SAPS  C214 1395   6.561   4.854   3.418 -0.0213 -0.2122 -0.1635
   11SAPS  H14R 1396   6.577   4.773   3.345  0.9506 -0.9768  0.8604
   11SAPS  C215 1397   6.536   4.794   3.536 -0.7250  0.4320 -0.7057
   11SAPS  H15R 1398   6.533   4.685   3.544 -3.8681  0.4254 -0.7325
   11SAPS  C216 1399   6.524   4.863   3.672 -0.5880  0.3098  0.1316
   11SAPS  H16R 1400   6.424   4.845   3.717 -1.3409 -2.2443 -2.2351
   11SAPS  H16S 1401   6.549   4.971   3.671  2.5270 -0.2574  2.0632
   11SAPS  C217 1402   6.624   4.798   3.771  1.0800  0.1095  0.0925
   11SAPS  H17R 1403   6.651   4.878   3.843 -1.7567  1.4469 -0.1926
   11SAPS  H17S 1404   6.720   4.772   3.722  1.5725 -1.0327  1.5967
   11SAPS  C218 1405   6.555   4.674   3.834  0.2998  0.0141 -0.4505
   11SAPS  H18R 1406   6.545   4.596   3.756  3.1414 -1.6800  0.6992
   11SAPS  H18S 1407   6.452   4.702   3.864 -0.1662 -0.3396 -1.6695
   11SAPS  C219 1408   6.629   4.610   3.955  0.0897  0.1151 -0.0204
   11SAPS  H19R 1409   6.568   4.523   3.986  1.4215 -0.7092  0.3576
   11SAPS  H19S 1410   6.620   4.691   4.031 -2.1369  0.2921 -0.4072
   11SAPS  C220 1411   6.774   4.565   3.921  0.0859 -0.2914 -0.3075
   11SAPS  H20R 1412   6.828   4.655   3.885  1.2445 -0.5538  0.6985
   11SAPS  H20S 1413   6.778   4.484   3.846  2.0198  0.1000 -0.6648
   11SAPS  H20T 1414   6.803   4.530   4.022 -2.4921 -2.7264 -0.2701
   11SAPS   C33 1415   7.024   4.641   2.622 -0.4577 -0.2433 -0.5007
   11SAPS   H3X 1416   7.111   4.595   2.570  0.1786 -0.5900  0.8173
   11SAPS   H3Y 1417   6.933   4.606   2.570 -1.3267 -3.2871  2.6559
   11SAPS   C34 1418   7.005   4.603   2.770 -0.0976 -0.0047  0.6968
   11SAPS   H4X 1419   6.979   4.496   2.780  1.9442 -0.5966  0.0657
   11SAPS   H4Y 1420   6.926   4.674   2.804  1.4271  2.2610 -0.2603
   11SAPS   C35 1421   7.114   4.633   2.874 -0.3078  0.4045  0.6146
   11SAPS   H5X 1422   7.142   4.740   2.861 -1.7866  0.8450  0.7658
   11SAPS   H5Y 1423   7.206   4.575   2.853 -0.5927  0.7249 -1.8025
   11SAPS   C36 1424   7.070   4.601   3.018  0.4525  0.2371  0.8047
   11SAPS   H6X 1425   7.155   4.607   3.089 -0.1085 -1.0982  1.6387
   11SAPS   H6Y 1426   7.031   4.497   3.013 -0.0137  0.3933  1.0371
   11SAPS   C37 1427   6.960   4.681   3.078  0.4560 -0.1552  0.3378
   11SAPS   H7X 1428   6.857   4.646   3.058  0.3621  0.0206  0.5054
   11SAPS   H7Y 1429   6.968   4.783   3.035  3.9295 -0.6634 -0.5462
   11SAPS   C38 1430   6.959   4.688   3.232 -0.0377  0.0940  0.8770
   11SAPS   H8X 1431   6.959   4.584   3.272  0.3274  0.6742  2.4949
   11SAPS   H8Y 1432   6.869   4.747   3.260  0.1247  1.3874 -1.1484
   11SAPS   C39 1433   7.083   4.757   3.305 -0.1614  0.7978  0.0962
   11SAPS   H9X 1434   7.115   4.834   3.232  0.5108  1.5689  1.1679
   11SAPS   H9Y 1435   7.172   4.695   3.326  0.2611  1.5545  0.6184
   11SAPS  C310 1436   7.040   4.826   3.436 -0.1413  0.8314 -0.7011
   11SAPS  H10X 1437   6.974   4.757   3.492  0.0017  2.1770  1.2524
   11SAPS  H10Y 1438   6.968   4.907   3.411 -1.0368  0.1592 -0.3234
   11SAPS  C311 1439   7.154   4.872   3.527  0.0898 -0.1489  0.1475
   11SAPS  H11X 1440   7.212   4.958   3.487 -0.4413 -0.0754 -0.4891
   11SAPS  H11Y 1441   7.228   4.790   3.536 -1.9409 -1.9331  1.4138
   11SAPS  C312 1442   7.112   4.907   3.671 -0.7942  0.1053 -0.5631
   11SAPS  H12X 1443   7.078   4.813   3.720  3.1115 -1.9068 -1.2547
   11SAPS  H12Y 1444   7.027   4.977   3.659  0.7846  2.4854  1.1440
   11SAPS  C313 1445   7.224   4.973   3.748  0.1161 -0.5939 -0.7879
   11SAPS  H13X 1446   7.284   5.034   3.677  1.3353  0.5990  1.2004
   11SAPS  H13Y 1447   7.296   4.898   3.787 -0.0542  0.6005  1.9746
   11SAPS  C314 1448   7.172   5.060   3.860  0.1051  0.2492 -0.2747
   11SAPS  H14X 1449   7.108   5.142   3.822  2.8651  2.9318  0.4025
   11SAPS  H14Y 1450   7.255   5.123   3.899 -0.1859  0.1848  0.4493
   11SAPS  C315 1451   7.083   5.001   3.975 -0.1534 -0.2598 -0.2032
   11SAPS  H15X 1452   6.990   4.955   3.937 -0.2872 -0.5039  0.4080
   11SAPS  H15Y 1453   7.070   5.090   4.041  1.7077 -0.8038  0.9852
   11SAPS  C316 1454   7.152   4.895   4.063 -0.7655 -0.0164  0.1373
   11SAPS  H16X 1455   7.240   4.948   4.105 -0.2913 -2.7562  2.9383
   11SAPS  H16Y 1456   7.201   4.820   3.998 -3.4004  0.8248 -3.0737
   11SAPS  C317 1457   7.069   4.850   4.181  0.6887  0.2859  0.1859
   11SAPS  H17X 1458   6.960   4.844   4.157  0.8260  0.4962 -0.5134
   11SAPS  H17Y 1459   7.069   4.930   4.258 -2.2343  0.1883  0.4297
   11SAPS  C318 1460   7.115   4.714   4.241 -0.2241  0.5908  0.1762
   11SAPS  H18X 1461   7.208   4.733   4.298  1.0624 -1.5285 -1.0643
   11SAPS  H18Y 1462   7.145   4.641   4.163  2.8005  0.7547  1.0529
   11SAPS  H18Z 1463   7.037   4.661   4.299  0.9084  0.0281  1.2291
   12SAPS     N 1464   2.058   3.780   1.625  0.1725  0.3131  0.0664
   12SAPS   HN1 1465   2.029   3.761   1.527  2.1462 -0.3958 -0.4203
   12SAPS   HN2 1466   2.034   3.696   1.682  1.3954  0.1154  0.3069
   12SAPS   HN3 1467   2.014   3.866   1.664  2.3903  0.0128  3.6624
   12SAPS   C12 1468   2.203   3.803   1.627  0.6540  0.8940  0.2025
   12SAPS  H12A 1469   2.249   3.708   1.603  0.9221  1.1905 -0.4937
   12SAPS   C13 1470   2.240   3.906   1.520  0.5694  0.0393  0.3276
   12SAPS  O13A 1471   2.150   3.968   1.456  0.6250 -0.5426 -0.4236
   12SAPS  O13B 1472   2.359   3.941   1.503  0.2431 -0.3578  0.2558
   12SAPS   C11 1473   2.251   3.832   1.768  0.1661  0.5036  0.4583
   12SAPS  H11A 1474   2.200   3.924   1.804 -0.6237  0.1921  0.1607
   12SAPS  H11B 1475   2.359   3.859   1.766 -0.4015  3.1029  0.7184
   12SAPS     P 1476   2.247   3.741   2.006 -0.5273  0.0139  0.2510
   12SAPS   O13 1477   2.209   3.625   2.086 -0.4634  0.4657  0.3181
   12SAPS   O14 1478   2.380   3.810   2.025 -0.5556 -0.1304  0.1361
   12SAPS   O12 1479   2.230   3.717   1.853  0.2443  0.7324 -0.5476
   12SAPS   O11 1480   2.141   3.855   2.028  0.1877  0.2078 -0.5953
   12SAPS    C1 1481   2.003   3.830   1.992 -0.0202  0.6105  0.0862
   12SAPS    HA 1482   1.963   3.920   1.940  1.0973  0.2612 -1.4645
   12SAPS    HB 1483   1.979   3.749   1.920  0.1785 -0.6271  1.3734
   12SAPS    C2 1484   1.913   3.807   2.119  0.2053 -0.2463 -0.0161
   12SAPS    HS 1485   1.867   3.901   2.158 -0.9009 -0.1386 -1.5064
   12SAPS   O21 1486   1.984   3.739   2.220 -0.1932  0.3599 -0.5903
   12SAPS   C21 1487   2.019   3.814   2.324 -0.2538  0.6307  0.0865
   12SAPS   O22 1488   1.999   3.927   2.336  0.2064 -0.6127  0.3059
   12SAPS   C22 1489   2.067   3.724   2.435  0.5726  0.2252 -0.4212
   12SAPS   H2R 1490   2.050   3.617   2.409 -2.0092  0.0941  1.3758
   12SAPS   H2S 1491   2.176   3.737   2.449  0.8512 -1.0784 -1.2344
   12SAPS    C3 1492   1.782   3.739   2.067 -0.2462 -0.2737  0.2633
   12SAPS    HX 1493   1.813   3.637   2.034 -0.2434  0.1457 -1.0755
   12SAPS    HY 1494   1.734   3.795   1.984 -0.0377  0.0835  0.3806
   12SAPS   O31 1495   1.685   3.732   2.172 -0.1047 -0.0378  0.7853
   12SAPS   C31 1496   1.690   3.635   2.260 -0.3703  0.2589 -0.3929
   12SAPS   O32 1497   1.774   3.542   2.259  1.4195 -0.4672  0.8670
   12SAPS   C32 1498   1.574   3.642   2.349  0.6432 -0.7746  0.6130
   12SAPS   H2X 1499   1.487   3.583   2.314  0.8831  0.0992 -1.5845
   12SAPS   H2Y 1500   1.549   3.750   2.347  1.0677 -0.6553  1.2615
   12SAPS   C23 1501   1.980   3.748   2.567 -0.1071 -0.3088 -0.2881
   12SAPS   H3R 1502   1.957   3.667   2.640 -0.1561 -0.2529 -0.2418
   12SAPS   H3S 1503   1.879   3.775   2.532 -0.0671 -0.1109 -0.2498
   12SAPS   C24 1504   2.034   3.863   2.649  0.3898 -0.0330 -0.2970
   12SAPS   H4R 1505   1.949   3.901   2.710  0.8056 -1.5700  1.3260
   12SAPS   H4S 1506   2.065   3.948   2.584 -2.0156  0.5781 -0.7127
   12SAPS   C25 1507   2.146   3.827   2.736 -0.8066 -0.2027  0.5061
   12SAPS   H5R 1508   2.206   3.739   2.710  1.0608  1.1835 -0.1591
   12SAPS   C26 1509   2.188   3.883   2.849 -0.6552 -0.0150 -1.0263
   12SAPS   H6R 1510   2.279   3.850   2.902 -0.2432  1.6297 -0.6780
   12SAPS   C27 1511   2.123   4.010   2.902  0.6311 -0.0402 -0.3097
   12SAPS   H7R 1512   2.018   3.987   2.932 -0.1353  1.6363 -1.5012
   12SAPS   H7S 1513   2.109   4.083   2.819  1.9887 -0.0407 -0.5553
   12SAPS   C28 1514   2.194   4.074   3.016  0.0127 -0.9215 -0.1951
   12SAPS   H8R 1515   2.303   4.076   3.009 -0.0744  1.3091 -2.8952
   12SAPS   C29 1516   2.135   4.106   3.134 -1.2133  0.0930  0.1204
   12SAPS   H9R 1517   2.209   4.133   3.211  0.0940 -2.8780  0.0429
   12SAPS  C210 1518   1.990   4.094   3.173  0.5174 -0.0956 -0.0472
   12SAPS  H10R 1519   1.929   4.072   3.082  0.9126 -0.0864 -0.3144
   12SAPS  H10S 1520   1.950   4.185   3.223 -0.6408 -0.2552 -0.6324
   12SAPS  C211 1521   1.995   3.979   3.270  1.1338  0.9118 -0.2484
   12SAPS  H11R 1522   1.998   3.884   3.215 -0.1908  1.4971 -1.4068
   12SAPS  C212 1523   1.980   3.977   3.408  0.3570  0.9365  0.8430
   12SAPS  H12R 1524   1.978   3.885   3.468 -0.1032  0.2301 -0.2294
   12SAPS  C213 1525   1.977   4.103   3.495 -0.2454  0.9137  0.6148
   12SAPS  H13R 1526   1.897   4.070   3.564 -2.0038  0.4906 -1.5306
   12SAPS  H13S 1527   1.933   4.190   3.442 -2.8522 -1.2090 -0.9611
   12SAPS  C214 1528   2.105   4.137   3.556  0.0233 -0.3324 -0.0140
   12SAPS  H14R 1529   2.201   4.109   3.511  2.0579  2.3915  2.2404
   12SAPS  C215 1530   2.103   4.206   3.671  0.6308 -0.2766  0.8947
   12SAPS  H15R 1531   2.197   4.231   3.722  0.3982 -0.1392  1.2638
   12SAPS  C216 1532   1.975   4.272   3.728 -0.1453 -0.2634  0.2984
   12SAPS  H16R 1533   1.883   4.246   3.672  1.5470 -0.5758 -2.5859
   12SAPS  H16S 1534   1.993   4.381   3.738  1.8258 -0.7071  2.6260
   12SAPS  C217 1535   1.948   4.220   3.872 -0.7902  0.2348 -0.8712
   12SAPS  H17R 1536   1.956   4.110   3.889 -1.3069  0.2512 -0.5119
   12SAPS  H17S 1537   1.851   4.266   3.899 -0.0024  1.7038 -0.4313
   12SAPS  C218 1538   2.052   4.265   3.974  0.4024 -0.3112  0.1751
   12SAPS  H18R 1539   2.084   4.370   3.955  0.1338  0.1333  1.9796
   12SAPS  H18S 1540   2.147   4.207   3.972 -0.8986 -2.5893  1.5356
   12SAPS  C219 1541   2.002   4.252   4.119 -0.2794 -0.5750  1.2761
   12SAPS  H19R 1542   2.083   4.276   4.192  0.1677  2.2855 -0.0012
   12SAPS  H19S 1543   1.996   4.142   4.130 -0.2934 -0.6648  0.4014
   12SAPS  C220 1544   1.867   4.326   4.151 -0.1729 -0.2006 -0.6511
   12SAPS  H20R 1545   1.841   4.396   4.070 -0.4016 -0.6523 -0.9746
   12SAPS  H20S 1546   1.887   4.389   4.240 -0.8280 -1.5914  0.5240
   12SAPS  H20T 1547   1.792   4.250   4.180 -1.6941  1.9090  1.2402
   12SAPS   C33 1548   1.581   3.594   2.497 -0.0109 -0.1953 -0.0556
   12SAPS   H3X 1549   1.657   3.664   2.538  0.7967  0.3135 -2.2648
   12SAPS   H3Y 1550   1.632   3.498   2.520  0.2720  0.4602  2.3851
   12SAPS   C34 1551   1.445   3.630   2.570  0.3495 -0.2409 -0.1072
   12SAPS   H4X 1552   1.362   3.563   2.541  0.0370 -0.3546  1.0168
   12SAPS   H4Y 1553   1.430   3.735   2.539  2.6920  0.2412  0.1505
   12SAPS   C35 1554   1.456   3.633   2.718  0.4987 -0.5813  0.4446
   12SAPS   H5X 1555   1.366   3.686   2.756 -0.7651 -0.9558 -1.8439
   12SAPS   H5Y 1556   1.546   3.688   2.755  1.2917 -1.7374  0.2957
   12SAPS   C36 1557   1.449   3.490   2.770  0.1557  0.3464 -0.2995
   12SAPS   H6X 1558   1.510   3.422   2.707 -0.5904 -0.1537 -0.4873
   12SAPS   H6Y 1559   1.340   3.470   2.765 -0.1725  1.4648  1.4752
   12SAPS   C37 1560   1.485   3.478   2.918  0.0554 -0.2636 -0.2240
   12SAPS   H7X 1561   1.583   3.522   2.945  0.0795  0.0586 -0.8108
   12SAPS   H7Y 1562   1.487   3.368   2.930  2.4300 -0.2445  0.0703
   12SAPS   C38 1563   1.382   3.542   3.013  0.0945  0.4096 -0.4357
   12SAPS   H8X 1564   1.286   3.497   2.981  1.0665 -1.2200 -1.2139
   12SAPS   H8Y 1565   1.369   3.650   2.992  1.3240  0.8351  0.8138
   12SAPS   C39 1566   1.418   3.540   3.156  0.2301 -0.0729  0.6162
   12SAPS   H9X 1567   1.514   3.595   3.166 -0.5489  1.6440 -0.7699
   12SAPS   H9Y 1568   1.433   3.437   3.195 -1.4839 -0.7583 -0.4007
   12SAPS  C310 1569   1.317   3.616   3.240 -0.5045 -0.5380  0.5953
   12SAPS  H10X 1570   1.222   3.557   3.244 -0.5147 -0.4860  2.9095
   12SAPS  H10Y 1571   1.303   3.714   3.189 -2.4388 -0.4661  1.1601
   12SAPS  C311 1572   1.365   3.645   3.383 -0.1271  0.6311 -0.1446
   12SAPS  H11X 1573   1.469   3.683   3.377  0.7314 -1.5393  0.0897
   12SAPS  H11Y 1574   1.377   3.540   3.418 -0.2661  0.7520  0.2742
   12SAPS  C312 1575   1.264   3.710   3.466 -0.2551 -0.4948  0.0247
   12SAPS  H12X 1576   1.225   3.800   3.414  2.1750  1.1147  0.8034
   12SAPS  H12Y 1577   1.314   3.735   3.562  0.6077  3.0177 -1.1921
   12SAPS  C313 1578   1.140   3.619   3.470 -0.2495 -0.3425 -0.1346
   12SAPS  H13X 1579   1.162   3.515   3.503  3.1700 -0.2365 -1.6442
   12SAPS  H13Y 1580   1.079   3.622   3.377  0.1380 -0.9647 -0.4152
   12SAPS  C314 1581   1.038   3.673   3.569  0.3506 -0.1262 -0.4019
   12SAPS  H14X 1582   0.951   3.604   3.564 -0.1432  0.5614 -1.3891
   12SAPS  H14Y 1583   0.986   3.764   3.534 -1.6908 -1.0702  0.0013
   12SAPS  C315 1584   1.090   3.694   3.712  0.5311  0.4858  0.1136
   12SAPS  H15X 1585   1.172   3.769   3.716  0.6779  0.2712  1.8351
   12SAPS  H15Y 1586   1.119   3.606   3.772  0.2768  0.6221  0.4406
   12SAPS  C316 1587   0.970   3.751   3.790 -0.0166 -0.4469 -0.0831
   12SAPS  H16X 1588   0.882   3.684   3.776  0.1107 -1.5527  3.4528
   12SAPS  H16Y 1589   0.933   3.846   3.745 -0.0023  0.2714  1.3660
   12SAPS  C317 1590   0.999   3.783   3.939  0.6061 -0.1407 -0.4314
   12SAPS  H17X 1591   1.075   3.864   3.946 -0.8833  1.3923 -1.3026
   12SAPS  H17Y 1592   1.054   3.691   3.968  3.4593  1.7020  0.4803
   12SAPS  C318 1593   0.878   3.809   4.021  0.5733  0.0979  0.8042
   12SAPS  H18X 1594   0.800   3.877   3.978 -1.2785 -1.2347  1.9149
   12SAPS  H18Y 1595   0.902   3.860   4.117 -0.0974 -3.1526  2.8384
   12SAPS  H18Z 1596   0.832   3.711   4.045  1.9229 -0.2039  2.3627
   13SAPS     N 1597   3.399   4.032   1.772  1.2921  0.5219 -0.1137
   13SAPS   HN1 1598   3.496   4.014   1.740  1.5768  2.8118 -0.7090
   13SAPS   HN2 1599   3.354   3.941   1.797  1.6304  0.3599 -0.0831
   13SAPS   HN3 1600   3.343   4.065   1.690 -0.7296  2.2035  1.8103
   13SAPS   C12 1601   3.390   4.134   1.877 -0.5278 -0.2267 -0.1749
   13SAPS  H12A 1602   3.470   4.123   1.949  0.8032  0.1945 -1.5491
   13SAPS   C13 1603   3.393   4.280   1.818  0.0866  0.3084  0.0243
   13SAPS  O13A 1604   3.411   4.381   1.898 -0.6377 -0.1788 -0.0154
   13SAPS  O13B 1605   3.387   4.304   1.699  0.7796 -0.5660  0.0156
   13SAPS   C11 1606   3.257   4.112   1.950 -0.7743  0.2659 -0.4568
   13SAPS  H11A 1607   3.184   4.131   1.869  1.2555  1.1366 -2.1858
   13SAPS  H11B 1608   3.251   4.187   2.031 -1.0146  0.9926 -1.1335
   13SAPS     P 1609   3.138   3.943   2.109 -0.0711  0.4111 -0.3134
   13SAPS   O13 1610   3.013   3.989   2.051  0.5761 -0.1377 -0.6801
   13SAPS   O14 1611   3.148   3.800   2.145  0.3722  0.1861 -0.0369
   13SAPS   O12 1612   3.248   3.981   2.006  0.6244 -0.3186 -0.1430
   13SAPS   O11 1613   3.175   4.033   2.231  0.2717 -0.1603 -0.1511
   13SAPS    C1 1614   3.089   4.141   2.269  0.4087 -0.0327 -0.1658
   13SAPS    HA 1615   3.128   4.236   2.227  0.1443 -0.1956 -0.7951
   13SAPS    HB 1616   2.983   4.126   2.240  0.2683 -1.1147  0.8263
   13SAPS    C2 1617   3.114   4.157   2.419 -0.0032 -0.0726 -0.3876
   13SAPS    HS 1618   3.031   4.222   2.453  2.2198  2.6798  0.1527
   13SAPS   O21 1619   3.244   4.217   2.445 -0.0165  0.5295  0.3120
   13SAPS   C21 1620   3.255   4.344   2.428  0.9334 -0.2552  0.3814
   13SAPS   O22 1621   3.171   4.425   2.400  1.0668 -0.4751  0.2842
   13SAPS   C22 1622   3.393   4.393   2.476 -0.3472  0.5543  0.4140
   13SAPS   H2R 1623   3.462   4.330   2.415  0.8584  2.3407 -0.1669
   13SAPS   H2S 1624   3.404   4.496   2.435  0.7642  0.5163  0.5857
   13SAPS    C3 1625   3.090   4.033   2.502 -0.1036  0.5870  0.9120
   13SAPS    HX 1626   3.184   3.974   2.504  1.5791  3.1198  1.9180
   13SAPS    HY 1627   3.005   3.979   2.454  1.0267  1.3671 -2.2266
   13SAPS   O31 1628   3.049   4.068   2.631 -0.3468 -0.4556  0.3495
   13SAPS   C31 1629   3.153   4.080   2.715 -0.8318 -0.3132  0.6822
   13SAPS   O32 1630   3.269   4.047   2.696  0.5314  0.0713  0.5980
   13SAPS   C32 1631   3.111   4.161   2.844 -0.1778  1.0664  1.1664
   13SAPS   H2X 1632   3.051   4.095   2.910 -1.5970 -2.0751 -2.8625
   13SAPS   H2Y 1633   3.038   4.227   2.793 -1.3955 -0.5680  0.6969
   13SAPS   C23 1634   3.415   4.410   2.621 -0.6034 -0.2887  0.1411
   13SAPS   H3R 1635   3.380   4.316   2.668 -3.3593  0.4197 -0.3530
   13SAPS   H3S 1636   3.347   4.493   2.648  1.6398  1.7769 -0.1621
   13SAPS   C24 1637   3.557   4.460   2.662 -0.0621  0.3897  0.2782
   13SAPS   H4R 1638   3.564   4.554   2.603  0.3126 -0.2211 -0.6788
   13SAPS   H4S 1639   3.635   4.387   2.629 -0.6534 -0.0454 -0.1749
   13SAPS   C25 1640   3.568   4.474   2.809 -1.1539 -1.2670  0.7318
   13SAPS   H5R 1641   3.536   4.577   2.833 -0.4311 -0.2784 -2.1071
   13SAPS   C26 1642   3.635   4.379   2.887  0.2358 -1.0252  0.0459
   13SAPS   H6R 1643   3.624   4.399   2.995  4.4919 -0.5925  0.5618
   13SAPS   C27 1644   3.671   4.238   2.848  0.3856  0.1237 -0.2652
   13SAPS   H7R 1645   3.782   4.234   2.858  0.4648 -1.3790 -1.5244
   13SAPS   H7S 1646   3.653   4.224   2.740 -0.9015  0.1110 -0.0685
   13SAPS   C28 1647   3.592   4.139   2.927  0.2906  0.1360 -0.5705
   13SAPS   H8R 1648   3.518   4.088   2.863 -0.5277  0.0968  0.3771
   13SAPS   C29 1649   3.593   4.104   3.058 -0.3295  0.0864 -0.3021
   13SAPS   H9R 1650   3.516   4.033   3.093 -0.6076  0.6184  0.1906
   13SAPS  C210 1651   3.694   4.163   3.162 -0.4744  0.1055  0.0484
   13SAPS  H10R 1652   3.730   4.265   3.135  2.0101 -1.2556 -2.2859
   13SAPS  H10S 1653   3.790   4.108   3.149 -0.7288 -0.4089  0.3402
   13SAPS  C211 1654   3.652   4.167   3.304 -0.3153  0.2499  0.4029
   13SAPS  H11R 1655   3.595   4.256   3.335  1.7418  1.5872  0.4538
   13SAPS  C212 1656   3.670   4.066   3.394  0.2034  0.7137 -0.3296
   13SAPS  H12R 1657   3.626   4.086   3.493  0.4238 -2.5433  0.5329
   13SAPS  C213 1658   3.731   3.925   3.368 -0.3111 -0.6216 -0.1643
   13SAPS  H13R 1659   3.835   3.920   3.406  0.2507 -2.2130 -1.8001
   13SAPS  H13S 1660   3.731   3.897   3.260  2.0958 -1.3097 -0.0427
   13SAPS  C214 1661   3.658   3.813   3.442 -0.1249 -0.0536 -0.5991
   13SAPS  H14R 1662   3.584   3.771   3.373  0.7665  0.1506 -1.7330
   13SAPS  C215 1663   3.685   3.770   3.566 -0.3054 -0.2563 -0.3962
   13SAPS  H15R 1664   3.624   3.693   3.615  0.4337  0.1736  1.2922
   13SAPS  C216 1665   3.797   3.815   3.655 -0.2662 -0.1919 -0.3041
   13SAPS  H16R 1666   3.771   3.897   3.725  0.9598  0.5935 -0.7239
   13SAPS  H16S 1667   3.874   3.868   3.594 -0.3151 -2.1821 -2.2140
   13SAPS  C217 1668   3.859   3.701   3.728 -0.1739  0.6350  0.7546
   13SAPS  H17R 1669   3.961   3.721   3.768 -0.4883  1.6129  1.0929
   13SAPS  H17S 1670   3.870   3.613   3.660  0.0054  1.3245 -0.1240
   13SAPS  C218 1671   3.784   3.647   3.853 -0.2925  0.8190 -0.6549
   13SAPS  H18R 1672   3.677   3.626   3.828 -0.7067 -1.2119  2.3501
   13SAPS  H18S 1673   3.794   3.730   3.925  1.6179  1.3093 -1.4208
   13SAPS  C219 1674   3.845   3.520   3.916 -0.0822 -0.7676 -0.7940
   13SAPS  H19R 1675   3.948   3.551   3.945 -0.5330  1.8927 -1.8287
   13SAPS  H19S 1676   3.856   3.442   3.837 -1.0189 -2.5103  0.7034
   13SAPS  C220 1677   3.770   3.471   4.041  0.0630  0.1332  0.1706
   13SAPS  H20R 1678   3.835   3.406   4.102  1.2768  0.2434 -0.9700
   13SAPS  H20S 1679   3.689   3.404   4.003 -0.4842 -0.3589  2.0843
   13SAPS  H20T 1680   3.738   3.551   4.112 -0.1859 -0.0756  0.2973
   13SAPS   C33 1681   3.219   4.228   2.929 -0.2471  0.6575 -0.1751
   13SAPS   H3X 1682   3.269   4.295   2.856 -2.6234  1.0676 -1.5422
   13SAPS   H3Y 1683   3.292   4.150   2.963  0.6096  1.0249 -1.1272
   13SAPS   C34 1684   3.171   4.295   3.053  0.5210  0.0348 -0.1468
   13SAPS   H4X 1685   3.096   4.235   3.109  0.8152 -0.8387 -0.6728
   13SAPS   H4Y 1686   3.115   4.385   3.018 -1.0446 -1.8406 -2.8515
   13SAPS   C35 1687   3.296   4.335   3.130  0.1954 -0.5062  0.6038
   13SAPS   H5X 1688   3.341   4.402   3.053 -0.5944  0.2322  0.7664
   13SAPS   H5Y 1689   3.364   4.248   3.144 -0.2049 -0.8732  0.2978
   13SAPS   C36 1690   3.266   4.416   3.258  0.1805 -0.2029 -0.6490
   13SAPS   H6X 1691   3.183   4.488   3.246 -0.0812 -0.5308 -0.8310
   13SAPS   H6Y 1692   3.354   4.476   3.289 -0.5280  0.0801  0.8732
   13SAPS   C37 1693   3.211   4.318   3.363  0.2888 -0.1686 -0.4822
   13SAPS   H7X 1694   3.273   4.229   3.387  0.6274  0.1149 -0.2955
   13SAPS   H7Y 1695   3.111   4.285   3.328 -0.1904 -0.8412  1.3890
   13SAPS   C38 1696   3.182   4.391   3.495  0.4089 -0.6118 -0.3090
   13SAPS   H8X 1697   3.080   4.368   3.530  0.5423 -1.1742 -0.2843
   13SAPS   H8Y 1698   3.186   4.501   3.479  1.4879  0.0135  3.3066
   13SAPS   C39 1699   3.284   4.353   3.608 -0.3522 -0.2024 -0.4824
   13SAPS   H9X 1700   3.278   4.243   3.622 -1.5568  0.0622  1.5046
   13SAPS   H9Y 1701   3.249   4.398   3.704 -0.4308  1.9335 -1.4511
   13SAPS  C310 1702   3.426   4.402   3.588 -0.8985 -0.2221 -0.3509
   13SAPS  H10X 1703   3.443   4.511   3.587  2.7447 -0.6481 -1.8342
   13SAPS  H10Y 1704   3.475   4.346   3.506 -0.9037 -1.0875  0.2185
   13SAPS  C311 1705   3.520   4.376   3.714 -0.7391  0.1493  0.4021
   13SAPS  H11X 1706   3.622   4.384   3.672 -1.2736  1.7670 -0.6656
   13SAPS  H11Y 1707   3.499   4.276   3.759 -0.2468 -0.4061 -0.5856
   13SAPS  C312 1708   3.503   4.474   3.827  0.3243 -0.7488  0.4991
   13SAPS  H12X 1709   3.399   4.479   3.866 -0.5440 -1.1604 -1.6396
   13SAPS  H12Y 1710   3.523   4.576   3.786  1.1140 -1.2111 -0.2976
   13SAPS  C313 1711   3.604   4.453   3.947  0.1111  0.3755  0.8913
   13SAPS  H13X 1712   3.702   4.453   3.896  1.1871  1.8567  2.8355
   13SAPS  H13Y 1713   3.595   4.352   3.993  1.5645  0.9326  2.5316
   13SAPS  C314 1714   3.616   4.553   4.065 -0.4495 -0.6266  0.0595
   13SAPS  H14X 1715   3.698   4.524   4.135 -0.6767  0.5317  0.8353
   13SAPS  H14Y 1716   3.527   4.546   4.130 -1.1018  1.8247 -0.4752
   13SAPS  C315 1717   3.644   4.696   4.016 -0.0686 -0.9138  0.0073
   13SAPS  H15X 1718   3.548   4.736   3.977  1.2935  0.8195 -1.7444
   13SAPS  H15Y 1719   3.722   4.681   3.938 -0.7591  1.7816 -1.3260
   13SAPS  C316 1720   3.692   4.791   4.132 -0.2653  0.1936 -0.7122
   13SAPS  H16X 1721   3.682   4.898   4.103  0.1155  0.1187 -1.1278
   13SAPS  H16Y 1722   3.794   4.766   4.168 -1.0577 -1.9184  0.2649
   13SAPS  C317 1723   3.618   4.772   4.264 -1.2401 -0.1317 -0.0767
   13SAPS  H17X 1724   3.650   4.675   4.308  0.6896 -0.3836 -1.8593
   13SAPS  H17Y 1725   3.512   4.752   4.238 -1.6935  1.7960  0.1405
   13SAPS  C318 1726   3.625   4.886   4.368 -0.1213  0.3910 -0.9793
   13SAPS  H18X 1727   3.593   4.978   4.314  1.0865  1.4195 -0.0226
   13SAPS  H18Y 1728   3.727   4.907   4.408  0.7416 -0.9460 -2.3860
   13SAPS  H18Z 1729   3.556   4.856   4.449  0.3729  1.1904 -0.2418
   14SAPS     N 1730   3.456   5.038   1.694  0.1802  0.1969  0.1454
   14SAPS   HN1 1731   3.466   4.954   1.634  0.5041  0.4788 -0.1990
   14SAPS   HN2 1732   3.378   5.096   1.659 -1.7284 -1.8537  0.7536
   14SAPS   HN3 1733   3.538   5.103   1.693 -0.6598  1.2791  0.1400
   14SAPS   C12 1734   3.424   4.998   1.837 -0.4774  0.2674  0.1475
   14SAPS  H12A 1735   3.341   5.060   1.869 -0.7342  0.1433 -0.2657
   14SAPS   C13 1736   3.381   4.851   1.847 -0.2823 -0.3602  0.2438
   14SAPS  O13A 1737   3.400   4.771   1.753 -0.4000  0.5377  0.6342
   14SAPS  O13B 1738   3.345   4.812   1.959 -0.8549 -0.9493 -0.8817
   14SAPS   C11 1739   3.536   5.029   1.932 -0.3098  0.4101 -0.7966
   14SAPS  H11A 1740   3.622   4.959   1.920  1.9199  2.5021  1.7380
   14SAPS  H11B 1741   3.503   4.997   2.033  1.3665  0.2128 -0.2681
   14SAPS     P 1742   3.492   5.273   2.018  0.3256  0.1171  0.5623
   14SAPS   O13 1743   3.514   5.401   1.946 -0.1682 -0.8558 -0.4506
   14SAPS   O14 1744   3.351   5.242   2.047 -0.4402  0.2516 -0.0253
   14SAPS   O12 1745   3.567   5.162   1.935 -0.1557  0.2966  0.3737
   14SAPS   O11 1746   3.571   5.270   2.148 -0.3806  0.8534 -0.1886
   14SAPS    C1 1747   3.568   5.153   2.233 -0.6580  0.1854 -0.0779
   14SAPS    HA 1748   3.473   5.097   2.225 -0.5370 -0.0882  0.4058
   14SAPS    HB 1749   3.630   5.072   2.189 -0.2153  0.8329 -0.6783
   14SAPS    C2 1750   3.600   5.189   2.381 -0.0995  0.1163 -0.2910
   14SAPS    HS 1751   3.614   5.106   2.453 -0.3463  2.2074  2.3110
   14SAPS   O21 1752   3.491   5.269   2.431  0.3303  0.0796  0.1919
   14SAPS   C21 1753   3.369   5.204   2.461  0.6503  0.1732  0.2160
   14SAPS   O22 1754   3.358   5.083   2.453 -0.1387 -0.4349  0.2032
   14SAPS   C22 1755   3.276   5.315   2.500  0.0579 -0.1096 -0.2864
   14SAPS   H2R 1756   3.266   5.384   2.414 -1.8351  0.4613  0.3228
   14SAPS   H2S 1757   3.178   5.272   2.531 -0.8405  1.9677 -0.0525
   14SAPS    C3 1758   3.735   5.270   2.391 -0.1249 -0.2735  0.1513
   14SAPS    HX 1759   3.741   5.348   2.312 -1.1536 -1.8002 -1.5128
   14SAPS    HY 1760   3.808   5.194   2.358 -0.6401 -0.6927 -0.0362
   14SAPS   O31 1761   3.752   5.315   2.525 -0.2414 -0.2519 -0.6506
   14SAPS   C31 1762   3.739   5.444   2.537 -0.9545  1.0380 -0.0138
   14SAPS   O32 1763   3.721   5.523   2.443  0.2627  0.8960  0.0138
   14SAPS   C32 1764   3.737   5.485   2.683 -0.7557 -0.2593 -0.6231
   14SAPS   H2X 1765   3.746   5.395   2.748  0.0653  1.2330  1.4515
   14SAPS   H2Y 1766   3.638   5.534   2.699 -0.6926 -0.3060 -0.0675
   14SAPS   C23 1767   3.310   5.411   2.620  0.0134 -0.1659  0.7090
   14SAPS   H3R 1768   3.221   5.478   2.623 -0.0759 -0.2851  0.7535
   14SAPS   H3S 1769   3.395   5.476   2.593  0.9665 -1.6859 -0.0868
   14SAPS   C24 1770   3.313   5.344   2.764 -0.5923 -0.0949  0.0470
   14SAPS   H4R 1771   3.378   5.254   2.759  0.6061  0.7044  0.6796
   14SAPS   H4S 1772   3.211   5.316   2.798 -0.3512 -0.5479  0.4283
   14SAPS   C25 1773   3.365   5.439   2.874 -0.1860 -0.2738 -0.3254
   14SAPS   H5R 1774   3.308   5.534   2.867 -2.6495 -1.7198 -1.4728
   14SAPS   C26 1775   3.450   5.413   2.975  1.2491  0.0525 -0.3255
   14SAPS   H6R 1776   3.465   5.488   3.054  1.0650  1.5996 -1.7171
   14SAPS   C27 1777   3.512   5.285   3.007  0.7976  0.7228  0.2644
   14SAPS   H7R 1778   3.613   5.326   3.026  0.4402  1.5225  0.5077
   14SAPS   H7S 1779   3.528   5.220   2.919 -4.7551 -0.2178 -0.4086
   14SAPS   C28 1780   3.459   5.204   3.128 -0.2312 -0.5615 -0.2591
   14SAPS   H8R 1781   3.354   5.233   3.144 -1.4442 -3.5324 -2.0213
   14SAPS   C29 1782   3.527   5.126   3.216  0.1284 -0.2706 -0.1867
   14SAPS   H9R 1783   3.476   5.081   3.303  0.5741  2.3912  1.5872
   14SAPS  C210 1784   3.664   5.084   3.203 -0.5574  0.2675  0.3316
   14SAPS  H10R 1785   3.682   5.072   3.094  0.0511  0.4656  0.4080
   14SAPS  H10S 1786   3.666   4.980   3.243 -0.9241  0.6282  1.3268
   14SAPS  C211 1787   3.778   5.168   3.258  0.5227  0.6667  0.0812
   14SAPS  H11R 1788   3.782   5.271   3.217 -1.6904  0.1462 -1.6516
   14SAPS  C212 1789   3.863   5.124   3.356 -0.0795  0.0643  0.2455
   14SAPS  H12R 1790   3.953   5.184   3.380  1.0269 -0.3531 -2.4885
   14SAPS  C213 1791   3.863   4.991   3.420  0.5465  0.7669  0.0761
   14SAPS  H13R 1792   3.786   4.919   3.384 -0.1443  0.8478  1.3356
   14SAPS  H13S 1793   3.814   5.007   3.519  0.5657  1.4373 -0.0204
   14SAPS  C214 1794   3.995   4.935   3.420 -0.0043  0.1094  0.0798
   14SAPS  H14R 1795   4.035   4.888   3.329  0.8509 -0.8161  0.9034
   14SAPS  C215 1796   4.076   4.940   3.530 -0.1469 -0.5421  0.6816
   14SAPS  H15R 1797   4.182   4.909   3.527 -0.2505 -0.9114 -2.3927
   14SAPS  C216 1798   4.029   4.992   3.664  0.6700 -0.6357 -0.3186
   14SAPS  H16R 1799   3.967   4.910   3.706 -4.0462  1.9197 -1.6453
   14SAPS  H16S 1800   3.963   5.080   3.651  1.2717 -0.4725 -2.6249
   14SAPS  C217 1801   4.145   5.022   3.763 -0.9670 -0.1376 -0.2682
   14SAPS  H17R 1802   4.205   5.104   3.719 -2.8764  1.1204 -0.6597
   14SAPS  H17S 1803   4.213   4.935   3.775 -1.1060 -0.4898 -1.7674
   14SAPS  C218 1804   4.094   5.057   3.906 -0.1335  0.5852 -0.4957
   14SAPS  H18R 1805   4.023   4.983   3.949 -0.1477  1.9241  1.9628
   14SAPS  H18S 1806   4.029   5.148   3.907 -0.3479  0.4337 -0.5043
   14SAPS  C219 1807   4.202   5.063   4.016 -0.8993  0.2069 -0.0163
   14SAPS  H19R 1808   4.292   5.120   3.985 -1.5963  1.1208 -0.4128
   14SAPS  H19S 1809   4.250   4.968   4.048 -0.6499  0.3122 -0.0838
   14SAPS  C220 1810   4.140   5.128   4.140 -0.0017 -0.1974 -0.3853
   14SAPS  H20R 1811   4.084   5.214   4.099 -0.0614 -0.0751 -0.0467
   14SAPS  H20S 1812   4.212   5.173   4.211 -0.6338  0.6406 -0.2550
   14SAPS  H20T 1813   4.072   5.063   4.199 -0.6901 -0.5089 -1.4961
   14SAPS   C33 1814   3.846   5.587   2.724  0.1530  0.0445  0.0438
   14SAPS   H3X 1815   3.851   5.665   2.645 -2.0633 -0.7650 -1.0023
   14SAPS   H3Y 1816   3.940   5.530   2.712  0.5111  0.6705 -0.1715
   14SAPS   C34 1817   3.816   5.647   2.859 -0.3816  0.0885 -0.3478
   14SAPS   H4X 1818   3.705   5.648   2.857 -0.3725  1.2171 -0.7968
   14SAPS   H4Y 1819   3.855   5.748   2.881  0.4167 -0.1990 -0.3892
   14SAPS   C35 1820   3.864   5.558   2.978  0.1071  0.6829  0.2315
   14SAPS   H5X 1821   3.975   5.563   2.991  0.4847 -0.1617 -2.1696
   14SAPS   H5Y 1822   3.835   5.454   2.950 -1.0261  0.9871  0.2396
   14SAPS   C36 1823   3.783   5.586   3.109  0.4333 -0.0005 -0.1220
   14SAPS   H6X 1824   3.691   5.524   3.104  0.6399 -0.2369 -1.2858
   14SAPS   H6Y 1825   3.757   5.693   3.103 -1.6105 -0.4753 -0.2289
   14SAPS   C37 1826   3.857   5.569   3.234  0.1387  0.2194  0.3437
   14SAPS   H7X 1827   3.922   5.655   3.259 -0.7961  0.4343  2.1952
   14SAPS   H7Y 1828   3.915   5.474   3.232 -0.9543 -0.4789  0.3213
   14SAPS   C38 1829   3.752   5.558   3.345  0.6386  0.2743 -0.5786
   14SAPS   H8X 1830   3.698   5.464   3.326  0.1085  0.6211 -0.8170
   14SAPS   H8Y 1831   3.672   5.634   3.328 -0.1303  0.0079  1.5309
   14SAPS   C39 1832   3.807   5.583   3.482 -0.0775 -0.2921  0.2119
   14SAPS   H9X 1833   3.719   5.579   3.549 -1.2728  0.8644 -1.2110
   14SAPS   H9Y 1834   3.845   5.687   3.491 -1.9688  0.5910 -1.2305
   14SAPS  C310 1835   3.901   5.473   3.520  0.1852  0.8969 -0.4143
   14SAPS  H10X 1836   3.991   5.468   3.455  1.0785  0.0704  0.8277
   14SAPS  H10Y 1837   3.855   5.372   3.529  1.9280  0.1198  0.3963
   14SAPS  C311 1838   3.952   5.502   3.665  0.4295 -0.9180  0.9349
   14SAPS  H11X 1839   3.867   5.491   3.735  1.2049  1.0913  2.2533
   14SAPS  H11Y 1840   3.972   5.610   3.676 -1.9230 -0.2796 -0.2625
   14SAPS  C312 1841   4.078   5.423   3.696 -0.6435  0.6850 -0.2881
   14SAPS  H12X 1842   4.159   5.447   3.624  1.0748 -1.1352  0.9242
   14SAPS  H12Y 1843   4.057   5.314   3.683 -0.7945  0.5801  0.7525
   14SAPS  C313 1844   4.124   5.450   3.833  0.8345  0.1306 -0.4215
   14SAPS  H13X 1845   4.071   5.391   3.911  0.0614 -0.2772 -1.2416
   14SAPS  H13Y 1846   4.103   5.556   3.862  0.0486  0.0632 -0.7159
   14SAPS  C314 1847   4.273   5.418   3.848 -0.6505  0.2567  0.5203
   14SAPS  H14X 1848   4.305   5.343   3.773 -1.5518  1.1253 -0.7843
   14SAPS  H14Y 1849   4.299   5.373   3.947 -1.3811 -1.9745 -0.2429
   14SAPS  C315 1850   4.352   5.538   3.813  0.1124  0.1125 -0.6300
   14SAPS  H15X 1851   4.358   5.612   3.895  2.8916 -1.0706  0.3632
   14SAPS  H15Y 1852   4.305   5.585   3.725 -1.9875  0.3237  0.5468
   14SAPS  C316 1853   4.506   5.509   3.785  0.3113 -0.0161 -0.4480
   14SAPS  H16X 1854   4.553   5.610   3.792 -1.9797  1.0050  2.1397
   14SAPS  H16Y 1855   4.516   5.466   3.683  0.7554  1.7285 -1.1704
   14SAPS  C317 1856   4.588   5.420   3.880 -0.5893  0.4845 -0.4930
   14SAPS  H17X 1857   4.544   5.319   3.889 -1.0931  0.7615  0.1916
   14SAPS  H17Y 1858   4.590   5.458   3.984  0.3605 -1.9509  0.4402
   14SAPS  C318 1859   4.733   5.408   3.829  0.6588 -0.0747 -0.0327
   14SAPS  H18X 1860   4.785   5.506   3.832  0.0288  0.2887 -0.6712
   14SAPS  H18Y 1861   4.727   5.377   3.723  1.0405 -0.0707 -0.0564
   14SAPS  H18Z 1862   4.794   5.335   3.886  1.3422 -0.7421 -1.5807
   15SAPS     N 1863   1.059   3.636   1.517  0.6322 -0.0424  0.1942
   15SAPS   HN1 1864   1.032   3.735   1.506 -0.6498 -0.1692  1.8752
   15SAPS   HN2 1865   1.142   3.626   1.455  2.2845  0.5751  2.1862
   15SAPS   HN3 1866   0.984   3.566   1.496  2.0520 -1.0985 -1.7069
   15SAPS   C12 1867   1.126   3.609   1.651  0.0999 -0.1209 -0.8009
   15SAPS  H12A 1868   1.134   3.501   1.657  1.1430 -0.0290 -0.4132
   15SAPS   C13 1869   1.267   3.660   1.655 -0.1347 -0.4224  0.5610
   15SAPS  O13A 1870   1.330   3.681   1.546 -0.1163  0.1505 -0.6651
   15SAPS  O13B 1871   1.323   3.679   1.764 -0.2836  0.0721 -0.1492
   15SAPS   C11 1872   1.033   3.654   1.772 -0.0998 -0.2614 -0.3098
   15SAPS  H11A 1873   1.022   3.765   1.763 -1.3002 -0.4455 -1.5056
   15SAPS  H11B 1874   1.091   3.629   1.863 -0.3089 -0.1317 -0.1396
   15SAPS     P 1875   0.844   3.492   1.863  0.3589 -0.0695 -0.4030
   15SAPS   O13 1876   0.759   3.398   1.789 -0.0196 -0.0716  0.2815
   15SAPS   O14 1877   0.953   3.436   1.946  0.2702  0.0168 -0.0394
   15SAPS   O12 1878   0.897   3.599   1.761  0.1218  0.4340  0.1492
   15SAPS   O11 1879   0.752   3.568   1.963 -0.3318 -0.4652 -0.2941
   15SAPS    C1 1880   0.788   3.704   1.997 -0.0808  0.2409 -0.4802
   15SAPS    HA 1881   0.804   3.769   1.908  1.5268  1.7355  0.8276
   15SAPS    HB 1882   0.698   3.748   2.045  1.4316 -1.0102  3.9895
   15SAPS    C2 1883   0.897   3.723   2.103  0.4902 -0.5969 -0.1924
   15SAPS    HS 1884   0.985   3.675   2.054  0.9399  0.1600 -0.1388
   15SAPS   O21 1885   0.865   3.649   2.223 -0.0511 -0.3862 -0.8859
   15SAPS   C21 1886   0.976   3.631   2.303  0.7128  0.0527  0.9653
   15SAPS   O22 1887   1.091   3.644   2.263 -0.0564 -0.6334  0.6585
   15SAPS   C22 1888   0.938   3.593   2.440 -0.1305  0.2926  1.0243
   15SAPS   H2R 1889   0.833   3.629   2.449  0.2758  1.0494  3.5662
   15SAPS   H2S 1890   0.937   3.482   2.448 -1.0505  0.0490 -1.5568
   15SAPS    C3 1891   0.941   3.867   2.122 -0.4918  0.8268  0.1646
   15SAPS    HX 1892   0.960   3.916   2.024 -3.1476  1.3051 -0.1883
   15SAPS    HY 1893   1.039   3.862   2.175 -0.5678  0.6792  0.2903
   15SAPS   O31 1894   0.853   3.940   2.205 -0.9207 -0.0975  0.9733
   15SAPS   C31 1895   0.877   4.074   2.194 -0.3341  0.0723 -0.0817
   15SAPS   O32 1896   0.973   4.120   2.131 -0.2554  0.0388  0.5008
   15SAPS   C32 1897   0.788   4.166   2.282  0.1011 -0.6807  0.2757
   15SAPS   H2X 1898   0.771   4.108   2.375  0.7231  0.3955  1.0808
   15SAPS   H2Y 1899   0.685   4.188   2.246 -0.0246 -2.1254 -0.3466
   15SAPS   C23 1900   1.030   3.654   2.549  0.1209  0.4884  0.0800
   15SAPS   H3R 1901   1.138   3.630   2.541  0.4326  1.9827 -0.5315
   15SAPS   H3S 1902   0.996   3.611   2.646 -2.0200  1.3051 -0.2365
   15SAPS   C24 1903   1.020   3.811   2.566  0.2080  0.0673 -0.5395
   15SAPS   H4R 1904   1.061   3.858   2.475  1.2201 -0.2470 -0.2534
   15SAPS   H4S 1905   1.091   3.829   2.650  0.0924  1.0240 -0.6434
   15SAPS   C25 1906   0.888   3.873   2.605  0.1431 -0.0713  0.4466
   15SAPS   H5R 1907   0.802   3.857   2.538 -0.0584 -0.4553  0.7933
   15SAPS   C26 1908   0.866   3.980   2.686  0.2356 -0.3214 -0.0293
   15SAPS   H6R 1909   0.761   4.007   2.704  0.0025  1.2681 -2.9930
   15SAPS   C27 1910   0.967   4.048   2.768  0.4540 -0.2481 -0.4030
   15SAPS   H7R 1911   0.941   4.156   2.776  1.6125 -0.0909  2.1554
   15SAPS   H7S 1912   1.066   4.048   2.718  0.9380 -0.6219  0.5416
   15SAPS   C28 1913   0.979   3.988   2.903  0.1129 -0.1593 -0.1673
   15SAPS   H8R 1914   1.012   3.883   2.904  0.1092 -0.2275 -2.0372
   15SAPS   C29 1915   0.942   4.053   3.015 -0.3000 -0.0480 -0.1142
   15SAPS   H9R 1916   0.947   4.000   3.112 -0.7904 -0.4296 -0.2905
   15SAPS  C210 1917   0.884   4.191   3.027 -0.3546  0.6718 -0.6626
   15SAPS  H10R 1918   0.802   4.189   3.101  0.7937  3.4743  0.8261
   15SAPS  H10S 1919   0.825   4.222   2.939  0.1445  0.0782 -1.2202
   15SAPS  C211 1920   0.995   4.270   3.074  0.3622  0.7601  0.3424
   15SAPS  H11R 1921   1.069   4.290   2.995 -1.6276  1.4128 -1.4656
   15SAPS  C212 1922   1.020   4.311   3.202 -0.2662 -0.0450 -0.6724
   15SAPS  H12R 1923   1.113   4.368   3.216 -0.7554 -0.1493  5.6651
   15SAPS  C213 1924   0.939   4.293   3.326 -0.4376 -0.0063 -0.3962
   15SAPS  H13R 1925   0.830   4.286   3.305 -0.5545 -0.8729  0.3952
   15SAPS  H13S 1926   0.941   4.383   3.391 -0.2567 -1.1375  1.2268
   15SAPS  C214 1927   0.987   4.176   3.413 -0.2123  0.2391  0.1392
   15SAPS  H14R 1928   0.958   4.077   3.374 -2.4648  0.8267  0.1728
   15SAPS  C215 1929   1.058   4.188   3.526  0.1713  0.6780 -0.4762
   15SAPS  H15R 1930   1.072   4.099   3.589 -0.3033  0.8306 -0.1500
   15SAPS  C216 1931   1.105   4.308   3.601 -0.4403  0.3854  0.1170
   15SAPS  H16R 1932   1.113   4.391   3.527 -0.7844 -0.1209 -0.5023
   15SAPS  H16S 1933   1.209   4.291   3.636  0.2280  0.2214 -1.8239
   15SAPS  C217 1934   1.003   4.351   3.710 -0.5051  0.4767 -0.4988
   15SAPS  H17R 1935   0.897   4.347   3.678 -0.4114 -0.6794 -0.7149
   15SAPS  H17S 1936   1.033   4.452   3.746  0.2687  0.1684 -0.2452
   15SAPS  C218 1937   1.013   4.253   3.826  0.2649 -0.3568 -0.2551
   15SAPS  H18R 1938   1.118   4.264   3.859  0.6993 -2.0214 -0.9831
   15SAPS  H18S 1939   1.001   4.149   3.788 -1.7542  0.1732 -1.1864
   15SAPS  C219 1940   0.904   4.280   3.936 -0.2232  0.0857  0.4336
   15SAPS  H19R 1941   0.807   4.245   3.895 -0.5883  0.7734  0.7008
   15SAPS  H19S 1942   0.895   4.386   3.967  0.7627  0.1358  0.5911
   15SAPS  C220 1943   0.945   4.203   4.070 -0.7200 -0.0689  0.0320
   15SAPS  H20R 1944   0.912   4.097   4.082 -2.9849  0.8056  2.2195
   15SAPS  H20S 1945   0.906   4.264   4.154 -1.4385  0.6001 -0.7708
   15SAPS  H20T 1946   1.056   4.209   4.079 -0.9435  2.2723  2.4209
   15SAPS   C33 1947   0.859   4.302   2.309  0.6479  0.4321  0.0402
   15SAPS   H3X 1948   0.776   4.362   2.352 -0.2115 -1.1470  0.6513
   15SAPS   H3Y 1949   0.905   4.342   2.215  1.3733 -0.7729 -0.1425
   15SAPS   C34 1950   0.966   4.281   2.418 -0.0456  0.2423 -0.1273
   15SAPS   H4X 1951   1.054   4.343   2.388 -1.8013  2.0694 -1.8567
   15SAPS   H4Y 1952   1.001   4.176   2.416  0.7151  0.4858 -1.2799
   15SAPS   C35 1953   0.921   4.333   2.557 -0.3930 -0.1995  0.4798
   15SAPS   H5X 1954   1.010   4.301   2.615 -0.0721 -1.1647 -0.5315
   15SAPS   H5Y 1955   0.837   4.271   2.595 -0.4939 -1.9055 -2.2772
   15SAPS   C36 1956   0.872   4.474   2.564 -0.5309  0.0271  0.1356
   15SAPS   H6X 1957   0.785   4.497   2.499  0.8706  2.7383 -0.9696
   15SAPS   H6Y 1958   0.953   4.544   2.533  0.4118 -1.1050 -0.0445
   15SAPS   C37 1959   0.817   4.525   2.701 -1.1948  0.0710 -0.2886
   15SAPS   H7X 1960   0.731   4.469   2.744 -0.0456  0.1334  2.2212
   15SAPS   H7Y 1961   0.796   4.633   2.684  1.6015  0.5759 -1.1153
   15SAPS   C38 1962   0.931   4.530   2.814  0.4284 -0.4358 -0.3069
   15SAPS   H8X 1963   1.010   4.587   2.762 -0.2850 -0.4901 -1.4721
   15SAPS   H8Y 1964   0.962   4.425   2.835  1.1243 -0.3586 -0.9206
   15SAPS   C39 1965   0.890   4.612   2.935 -0.0424  0.3313  0.6348
   15SAPS   H9X 1966   0.870   4.719   2.913 -1.7630  0.4748  2.6126
   15SAPS   H9Y 1967   0.979   4.631   2.999  0.3110  1.2890 -0.1241
   15SAPS  C310 1968   0.768   4.556   3.017  0.2292 -0.7064 -1.1950
   15SAPS  H10X 1969   0.787   4.449   3.039  0.1541 -0.0974  2.3345
   15SAPS  H10Y 1970   0.674   4.586   2.967  0.7833  1.3988 -1.0786
   15SAPS  C311 1971   0.776   4.622   3.165 -0.9598  0.1961  0.1842
   15SAPS  H11X 1972   0.781   4.732   3.153  1.1334  0.0513 -0.6748
   15SAPS  H11Y 1973   0.881   4.599   3.191 -0.4537 -0.0536 -1.8855
   15SAPS  C312 1974   0.679   4.585   3.270  0.7287  0.2478  0.0511
   15SAPS  H12X 1975   0.690   4.479   3.303  2.7741  0.5049  0.2819
   15SAPS  H12Y 1976   0.580   4.603   3.222  1.1032  1.2401 -0.3795
   15SAPS  C313 1977   0.679   4.680   3.390  0.0826  0.8243 -0.0965
   15SAPS  H13X 1978   0.585   4.665   3.447 -0.2702  2.4257 -0.2277
   15SAPS  H13Y 1979   0.690   4.785   3.355  2.5495  0.5005 -0.4581
   15SAPS  C314 1980   0.800   4.658   3.480 -0.5497  0.3666 -0.0271
   15SAPS  H14X 1981   0.894   4.678   3.425 -1.1955 -1.3119 -1.8752
   15SAPS  H14Y 1982   0.798   4.549   3.502 -1.4303  0.0625 -1.4548
   15SAPS  C315 1983   0.807   4.739   3.608  1.0463  0.1687  0.5242
   15SAPS  H15X 1984   0.801   4.845   3.575  0.5122 -0.3548 -1.1433
   15SAPS  H15Y 1985   0.905   4.728   3.660  0.5739  0.7654  1.5731
   15SAPS  C316 1986   0.701   4.725   3.718 -0.5537  0.1274  0.4367
   15SAPS  H16X 1987   0.603   4.739   3.669 -0.0342  0.7033 -0.4693
   15SAPS  H16Y 1988   0.715   4.813   3.785 -0.2909  0.4441 -0.0302
   15SAPS  C317 1989   0.702   4.585   3.781 -0.7107 -0.0244 -0.4336
   15SAPS  H17X 1990   0.805   4.545   3.796 -0.9033 -0.2700  0.2780
   15SAPS  H17Y 1991   0.651   4.512   3.714 -0.6186 -1.6177  1.1506
   15SAPS  C318 1992   0.629   4.594   3.915  0.5161  0.1803  0.3108
   15SAPS  H18X 1993   0.705   4.625   3.990 -0.0229  1.7782  0.2170
   15SAPS  H18Y 1994   0.589   4.496   3.950 -2.1491 -0.3840 -3.6846
   15SAPS  H18Z 1995   0.542   4.663   3.915 -0.6887 -1.1648  3.1224
   16SAPS     N 1996   1.044   4.279   1.904  0.4512 -0.1843 -0.0703
   16SAPS   HN1 1997   1.117   4.215   1.866 -0.6096  0.2197 -3.0006
   16SAPS   HN2 1998   1.023   4.240   1.998  1.1484  0.9957  0.6037
   16SAPS   HN3 1999   0.960   4.268   1.845 -0.0942 -2.6649  1.0382
   16SAPS   C12 2000   1.086   4.421   1.905 -0.5478 -0.5128  0.2016
   16SAPS  H12A 2001   1.017   4.478   1.966  0.6598 -0.1259  1.2690
   16SAPS   C13 2002   1.233   4.443   1.954  0.0186 -0.5596  0.1915
   16SAPS  O13A 2003   1.296   4.344   2.004 -0.1080 -0.7659 -0.1617
   16SAPS  O13B 2004   1.285   4.559   1.955 -0.2629 -0.3034  0.4302
   16SAPS   C11 2005   1.072   4.484   1.765  0.0173 -0.2866 -0.6297
   16SAPS  H11A 2006   1.149   4.450   1.692  0.0603  0.7803 -1.1118
   16SAPS  H11B 2007   1.094   4.591   1.784  1.7119 -0.8994  1.2313
   16SAPS     P 2008   0.821   4.568   1.736  0.2078  0.1948  0.3657
   16SAPS   O13 2009   0.855   4.687   1.660 -0.3786  0.1875  0.5288
   16SAPS   O14 2010   0.699   4.494   1.702 -0.5960  0.3566 -0.3663
   16SAPS   O12 2011   0.938   4.463   1.716 -0.0088  0.2121  0.1099
   16SAPS   O11 2012   0.830   4.608   1.888 -0.4749  0.6109  0.2559
   16SAPS    C1 2013   0.728   4.573   1.979  0.1300 -0.3836 -0.0509
   16SAPS    HA 2014   0.633   4.616   1.942  1.8141  3.2505 -0.6195
   16SAPS    HB 2015   0.728   4.463   1.993  0.5805 -0.4365 -0.4595
   16SAPS    C2 2016   0.765   4.636   2.113 -0.2004 -0.0360  0.6388
   16SAPS    HS 2017   0.757   4.746   2.100 -0.0359 -0.0413  0.4908
   16SAPS   O21 2018   0.891   4.596   2.157  0.6904  0.1098  0.1378
   16SAPS   C21 2019   0.961   4.685   2.227  0.4100  0.4811  0.7375
   16SAPS   O22 2020   0.932   4.794   2.270  1.0017  0.1189  0.1664
   16SAPS   C22 2021   1.092   4.623   2.264 -0.2343  0.5083  0.7036
   16SAPS   H2R 2022   1.073   4.542   2.337 -0.2244  0.3427  0.5226
   16SAPS   H2S 2023   1.135   4.564   2.180  0.9917 -0.0773  1.7098
   16SAPS    C3 2024   0.648   4.612   2.219 -0.5209 -0.3040 -0.2574
   16SAPS    HX 2025   0.639   4.502   2.232  2.4034 -0.5937  0.1769
   16SAPS    HY 2026   0.556   4.658   2.178 -1.2607 -0.4540  1.1713
   16SAPS   O31 2027   0.677   4.659   2.349  0.2344 -0.4330 -0.2950
   16SAPS   C31 2028   0.628   4.774   2.384  0.4225 -0.8449  1.2380
   16SAPS   O32 2029   0.565   4.853   2.312  0.6726  0.0410 -0.0192
   16SAPS   C32 2030   0.676   4.812   2.521 -0.2551 -0.2466 -0.1731
   16SAPS   H2X 2031   0.781   4.780   2.534 -0.9753 -2.6049  0.3675
   16SAPS   H2Y 2032   0.606   4.773   2.598 -1.6324  0.3607 -1.0759
   16SAPS   C23 2033   1.204   4.717   2.329 -0.4811  0.0290 -0.0376
   16SAPS   H3R 2034   1.162   4.778   2.412  2.3743  1.7808  0.2416
   16SAPS   H3S 2035   1.235   4.783   2.245  0.1466 -0.7990 -0.4718
   16SAPS   C24 2036   1.313   4.637   2.398 -0.4330 -0.2323 -0.8452
   16SAPS   H4R 2037   1.352   4.581   2.311  0.7785 -1.7605  0.6147
   16SAPS   H4S 2038   1.269   4.570   2.475 -0.6921 -0.0479 -0.8313
   16SAPS   C25 2039   1.420   4.732   2.449 -0.7354 -0.0339 -0.0284
   16SAPS   H5R 2040   1.488   4.772   2.373 -0.0045  1.7638  1.4824
   16SAPS   C26 2041   1.436   4.784   2.576  0.7680  0.4726  0.2240
   16SAPS   H6R 2042   1.521   4.849   2.603  1.0257 -0.3238  1.3794
   16SAPS   C27 2043   1.352   4.756   2.700 -0.4051 -0.3916 -0.1094
   16SAPS   H7R 2044   1.422   4.761   2.786 -1.7853 -1.8656  1.1581
   16SAPS   H7S 2045   1.325   4.649   2.699  0.0674 -0.5477  1.4178
   16SAPS   C28 2046   1.225   4.834   2.717  0.5021  0.5877 -0.8958
   16SAPS   H8R 2047   1.161   4.849   2.628 -2.2801 -2.6247  0.3463
   16SAPS   C29 2048   1.169   4.861   2.833 -0.0317 -0.0468 -0.4013
   16SAPS   H9R 2049   1.069   4.905   2.822  0.0954  0.2567 -0.3590
   16SAPS  C210 2050   1.223   4.837   2.975  0.7613  0.1073 -0.5149
   16SAPS  H10R 2051   1.313   4.900   2.987 -0.8035  2.2094  0.8280
   16SAPS  H10S 2052   1.268   4.737   2.990  0.8925  0.1227 -0.8061
   16SAPS  C211 2053   1.122   4.866   3.086 -0.6423  0.2443  0.0167
   16SAPS  H11R 2054   1.028   4.913   3.052  0.4364  1.4532 -1.4805
   16SAPS  C212 2055   1.137   4.830   3.214 -0.4916 -0.8493 -0.3138
   16SAPS  H12R 2056   1.065   4.861   3.291  0.4111  0.4876  0.0332
   16SAPS  C213 2057   1.264   4.785   3.275 -0.1442  0.0019 -0.0855
   16SAPS  H13R 2058   1.313   4.882   3.299 -0.2347  0.8768 -3.0038
   16SAPS  H13S 2059   1.336   4.739   3.204  0.2199  0.2534  0.1181
   16SAPS  C214 2060   1.263   4.702   3.390  0.2474  0.6022 -0.7380
   16SAPS  H14R 2061   1.309   4.605   3.364  1.6172  1.0538 -0.0850
   16SAPS  C215 2062   1.213   4.726   3.511 -0.0643  0.0070 -0.8403
   16SAPS  H15R 2063   1.212   4.641   3.581 -1.9691 -3.1275 -4.2915
   16SAPS  C216 2064   1.163   4.856   3.570 -0.3448  0.7817 -0.8328
   16SAPS  H16R 2065   1.055   4.844   3.595  0.2454 -0.0278  1.6278
   16SAPS  H16S 2066   1.156   4.932   3.489 -1.2913 -0.2195 -1.7213
   16SAPS  C217 2067   1.248   4.913   3.686  0.0978 -0.0567 -0.0035
   16SAPS  H17R 2068   1.196   5.005   3.720 -0.4145 -1.1143  2.2797
   16SAPS  H17S 2069   1.348   4.941   3.647  0.3299  1.2643  1.4466
   16SAPS  C218 2070   1.269   4.825   3.811 -0.6816 -0.2701  0.4910
   16SAPS  H18R 2071   1.346   4.881   3.868 -0.5355  1.2720 -1.1114
   16SAPS  H18S 2072   1.317   4.732   3.773  0.7543  0.2246  1.0289
   16SAPS  C219 2073   1.144   4.795   3.888  0.1511  0.2440  0.6438
   16SAPS  H19R 2074   1.071   4.753   3.815  3.0122 -1.7697 -1.2558
   16SAPS  H19S 2075   1.105   4.888   3.935 -0.9834 -0.4400  1.0963
   16SAPS  C220 2076   1.175   4.691   4.004 -0.1759  0.1813 -0.0929
   16SAPS  H20R 2077   1.275   4.710   4.049 -0.6094  0.1089  0.9357
   16SAPS  H20S 2078   1.178   4.585   3.972  2.0825 -0.3713  1.6304
   16SAPS  H20T 2079   1.094   4.709   4.078 -0.3812 -1.6950  0.1711
   16SAPS   C33 2080   0.663   4.967   2.534 -0.3669 -0.8169 -0.0656
   16SAPS   H3X 2081   0.562   5.011   2.524 -0.0618  0.0189  0.4720
   16SAPS   H3Y 2082   0.721   5.007   2.448 -1.9335  2.2138  0.1788
   16SAPS   C34 2083   0.727   5.021   2.661  1.0132 -0.4822  0.0785
   16SAPS   H4X 2084   0.717   5.132   2.657 -0.8711 -0.6542 -1.5087
   16SAPS   H4Y 2085   0.835   4.996   2.668  1.1953  0.3534  0.3882
   16SAPS   C35 2086   0.648   4.978   2.780  0.2979  0.0818  0.2832
   16SAPS   H5X 2087   0.648   4.869   2.801  0.0093  0.2334  1.1188
   16SAPS   H5Y 2088   0.541   5.006   2.767 -0.2413 -1.6229  0.8219
   16SAPS   C36 2089   0.691   5.046   2.916  0.0131 -0.7148 -0.2684
   16SAPS   H6X 2090   0.688   5.156   2.907  1.8238 -0.2149  3.2561
   16SAPS   H6Y 2091   0.798   5.018   2.925  0.0089 -1.2730 -1.7820
   16SAPS   C37 2092   0.601   5.001   3.030 -0.4825 -0.3652  0.3960
   16SAPS   H7X 2093   0.630   4.897   3.058  0.0742 -0.1253  0.7330
   16SAPS   H7Y 2094   0.494   5.002   3.001 -0.1787  0.6646 -0.7586
   16SAPS   C38 2095   0.613   5.081   3.165  0.3867  0.2171 -0.3414
   16SAPS   H8X 2096   0.560   5.020   3.242 -0.9100  0.4701 -1.0057
   16SAPS   H8Y 2097   0.563   5.179   3.155  0.2692  0.3994  1.6277
   16SAPS   C39 2098   0.765   5.099   3.199  0.4450 -0.1569  0.4665
   16SAPS   H9X 2099   0.825   5.141   3.115 -0.1503 -0.1247  0.0565
   16SAPS   H9Y 2100   0.809   4.997   3.203 -1.2854 -0.9092  1.6971
   16SAPS  C310 2101   0.783   5.202   3.312  0.7544 -0.8009 -0.4020
   16SAPS  H10X 2102   0.709   5.285   3.318  1.0503 -0.6154  1.1349
   16SAPS  H10Y 2103   0.881   5.251   3.294  0.6614 -0.2277  0.5558
   16SAPS  C311 2104   0.776   5.147   3.454 -0.4454 -0.1189 -0.2152
   16SAPS  H11X 2105   0.842   5.057   3.454 -1.2097 -0.7435  2.0562
   16SAPS  H11Y 2106   0.671   5.118   3.475 -0.5387  0.4754  0.1602
   16SAPS  C312 2107   0.832   5.239   3.566  0.2834 -0.1395 -0.6956
   16SAPS  H12X 2108   0.750   5.308   3.594 -0.5113 -0.9846 -0.8736
   16SAPS  H12Y 2109   0.915   5.303   3.533  1.2733 -0.2628  1.3795
   16SAPS  C313 2110   0.877   5.170   3.694  0.2504  0.0238 -0.1266
   16SAPS  H13X 2111   0.976   5.121   3.682  1.1637  0.4594  3.9715
   16SAPS  H13Y 2112   0.807   5.085   3.713  0.1043 -0.0506 -0.9597
   16SAPS  C314 2113   0.896   5.264   3.811 -0.6944  0.3874 -0.5952
   16SAPS  H14X 2114   0.795   5.308   3.828 -0.8811 -0.2716  0.0317
   16SAPS  H14Y 2115   0.966   5.347   3.787  1.8819 -1.1904  1.0258
   16SAPS  C315 2116   0.953   5.189   3.935  0.2880 -0.4836  0.6331
   16SAPS  H15X 2117   0.963   5.262   4.018 -1.3683 -0.9274  1.2724
   16SAPS  H15Y 2118   1.048   5.139   3.910  0.5967  0.0650  0.6793
   16SAPS  C316 2119   0.858   5.078   3.976 -0.7403  0.1018 -0.3048
   16SAPS  H16X 2120   0.849   4.996   3.902 -2.2093  0.2684 -0.3408
   16SAPS  H16Y 2121   0.753   5.114   3.989 -0.4666  1.1364 -0.8526
   16SAPS  C317 2122   0.896   5.020   4.112 -0.2765 -0.2133  0.2813
   16SAPS  H17X 2123   0.890   5.104   4.185 -2.1472 -0.4439  0.4326
   16SAPS  H17Y 2124   1.000   4.982   4.103  0.3765  1.5277  0.0274
   16SAPS  C318 2125   0.807   4.909   4.158  0.3133 -0.0164 -0.1690
   16SAPS  H18X 2126   0.702   4.944   4.164  0.9972  2.1656 -0.0438
   16SAPS  H18Y 2127   0.832   4.884   4.264  1.4863  1.2734 -0.0972
   16SAPS  H18Z 2128   0.818   4.820   4.093  0.8130  0.0956 -0.2489
   17SAPS     N 2129   5.138   4.154   1.722  0.5455 -0.4379 -0.2119
   17SAPS   HN1 2130   5.114   4.245   1.678 -1.1143 -1.4487 -1.5210
   17SAPS   HN2 2131   5.140   4.165   1.826  0.5399  0.6099 -0.3118
   17SAPS   HN3 2132   5.237   4.131   1.702  0.8341  1.0589 -0.6252
   17SAPS   C12 2133   5.040   4.045   1.686 -0.1499 -0.9347 -0.9907
   17SAPS  H12A 2134   4.937   4.078   1.695 -0.8650 -3.4854  2.6872
   17SAPS   C13 2135   5.050   3.993   1.548  0.0621 -0.0622  0.3838
   17SAPS  O13A 2136   5.133   4.042   1.464 -0.5588 -0.3641 -0.5661
   17SAPS  O13B 2137   4.987   3.891   1.512  0.7073  0.5389 -0.1550
   17SAPS   C11 2138   5.059   3.930   1.794  0.6099  0.2950 -0.8510
   17SAPS  H11A 2139   5.153   3.874   1.775 -0.2217 -1.2802 -0.4788
   17SAPS  H11B 2140   4.982   3.852   1.776  0.1916  0.6882 -0.7922
   17SAPS     P 2141   4.934   3.962   2.018  0.0778  0.1848  0.7613
   17SAPS   O13 2142   4.821   3.973   1.920 -0.3892  0.7735  0.1774
   17SAPS   O14 2143   4.942   3.833   2.089  0.0862  0.4789  0.2935
   17SAPS   O12 2144   5.064   3.971   1.932  0.4786 -0.5126  0.0141
   17SAPS   O11 2145   4.947   4.081   2.118  0.0908 -0.5890  0.5036
   17SAPS    C1 2146   4.919   4.216   2.070 -0.2523  0.5004  0.0843
   17SAPS    HA 2147   4.936   4.233   1.961 -3.8282  1.0995 -0.4982
   17SAPS    HB 2148   4.812   4.240   2.085 -0.1812  0.2761  0.9775
   17SAPS    C2 2149   5.007   4.318   2.148  0.3791  0.8484  0.1907
   17SAPS    HS 2150   5.017   4.407   2.082 -0.1139  0.2560 -0.7005
   17SAPS   O21 2151   5.138   4.272   2.188 -0.5900  0.0581 -0.1258
   17SAPS   C21 2152   5.220   4.258   2.089  0.1158  0.0780 -0.1540
   17SAPS   O22 2153   5.194   4.256   1.970  0.0823 -0.0842  0.3143
   17SAPS   C22 2154   5.367   4.253   2.139 -0.5139 -0.2340  0.0507
   17SAPS   H2R 2155   5.360   4.241   2.249 -2.3574  0.0538  0.0020
   17SAPS   H2S 2156   5.409   4.163   2.088 -0.6357 -0.8774  1.0734
   17SAPS    C3 2157   4.935   4.374   2.276 -0.1385  0.3675 -0.0213
   17SAPS    HX 2158   4.940   4.300   2.358 -1.1445  1.6244  1.2451
   17SAPS    HY 2159   4.829   4.396   2.250 -0.3204  0.3477  0.6805
   17SAPS   O31 2160   5.004   4.492   2.318 -0.2356 -0.6212  0.5724
   17SAPS   C31 2161   4.927   4.585   2.378  0.1963  0.5304 -0.3321
   17SAPS   O32 2162   4.808   4.561   2.406 -0.6682 -0.0510  0.2729
   17SAPS   C32 2163   5.004   4.711   2.402 -0.3126 -0.0677  0.0726
   17SAPS   H2X 2164   4.947   4.805   2.387  1.0542  0.4068 -2.6159
   17SAPS   H2Y 2165   5.087   4.704   2.328  1.1730  0.9643  1.5548
   17SAPS   C23 2166   5.440   4.388   2.086  0.2760  0.2679  0.3495
   17SAPS   H3R 2167   5.455   4.376   1.977 -1.7099 -2.1735  0.2549
   17SAPS   H3S 2168   5.541   4.376   2.131  0.7457  2.6281  0.0584
   17SAPS   C24 2169   5.377   4.522   2.145  0.1575 -0.1537  0.4807
   17SAPS   H4R 2170   5.283   4.539   2.089  0.3440 -1.2380 -0.1930
   17SAPS   H4S 2171   5.442   4.608   2.120 -2.1628  1.7319  0.5972
   17SAPS   C25 2172   5.365   4.509   2.295  0.6410 -0.8472 -0.2773
   17SAPS   H5R 2173   5.307   4.426   2.338  2.4827 -1.6065  0.8977
   17SAPS   C26 2174   5.431   4.587   2.388  0.1617  0.0412  0.2927
   17SAPS   H6R 2175   5.422   4.554   2.493 -0.4817 -2.5416 -0.5121
   17SAPS   C27 2176   5.527   4.701   2.367  0.5114  0.4397 -0.6269
   17SAPS   H7R 2177   5.492   4.798   2.407  0.2426  0.1492 -0.1508
   17SAPS   H7S 2178   5.555   4.725   2.262  0.0605  0.4257 -0.7513
   17SAPS   C28 2179   5.657   4.660   2.435  0.2363 -0.4295 -0.5895
   17SAPS   H8R 2180   5.735   4.626   2.365  0.1071 -2.2007  0.0770
   17SAPS   C29 2181   5.687   4.678   2.568 -0.4863 -0.1941 -0.6534
   17SAPS   H9R 2182   5.788   4.644   2.596 -0.9833  0.1427  1.7819
   17SAPS  C210 2183   5.601   4.744   2.674  0.2852 -1.0505 -0.5947
   17SAPS  H10R 2184   5.548   4.667   2.734 -2.3108  1.4317  0.5887
   17SAPS  H10S 2185   5.520   4.805   2.627  2.4255 -0.1152 -3.3736
   17SAPS  C211 2186   5.697   4.829   2.754 -0.7209 -0.7756 -0.1068
   17SAPS  H11R 2187   5.726   4.923   2.704 -2.6088  1.4292  2.5781
   17SAPS  C212 2188   5.735   4.806   2.885  0.3850 -0.3354  0.3511
   17SAPS  H12R 2189   5.799   4.883   2.930 -0.3298  0.6036 -0.2172
   17SAPS  C213 2190   5.682   4.698   2.979 -0.6025 -0.2866 -0.1047
   17SAPS  H13R 2191   5.611   4.626   2.932 -2.8402  1.7478 -0.0194
   17SAPS  H13S 2192   5.615   4.750   3.050  0.8353  2.0477 -0.3659
   17SAPS  C214 2193   5.796   4.619   3.036 -0.0587  0.3752  0.5897
   17SAPS  H14R 2194   5.867   4.575   2.964  0.7330  0.6914  1.1566
   17SAPS  C215 2195   5.829   4.605   3.163 -0.1101  0.2537 -0.3135
   17SAPS  H15R 2196   5.915   4.537   3.174 -0.0437  0.5625  1.2610
   17SAPS  C216 2197   5.756   4.658   3.283 -0.4002 -0.0469 -0.1202
   17SAPS  H16R 2198   5.650   4.626   3.280  0.2464 -2.4670  0.5176
   17SAPS  H16S 2199   5.755   4.769   3.284 -0.0665  0.0184  3.0074
   17SAPS  C217 2200   5.818   4.608   3.409 -0.0807 -0.0245 -0.0228
   17SAPS  H17R 2201   5.915   4.661   3.410  0.1757 -0.4891  1.0710
   17SAPS  H17S 2202   5.830   4.497   3.412  1.4013  0.1231  0.2014
   17SAPS  C218 2203   5.744   4.656   3.541  0.1467  0.3892  0.9463
   17SAPS  H18R 2204   5.644   4.608   3.545  0.1218  0.4738  1.4226
   17SAPS  H18S 2205   5.738   4.767   3.538 -0.3268  0.3482 -0.8102
   17SAPS  C219 2206   5.822   4.604   3.667  0.0001  0.1703  0.5001
   17SAPS  H19R 2207   5.924   4.647   3.673  0.3405 -0.5306 -0.0952
   17SAPS  H19S 2208   5.832   4.494   3.672  0.4860  0.2696  3.1727
   17SAPS  C220 2209   5.751   4.655   3.787  0.5674 -0.4214 -0.1522
   17SAPS  H20R 2210   5.734   4.764   3.775  3.2066  0.1950  0.8527
   17SAPS  H20S 2211   5.809   4.642   3.881  0.7400 -0.5533 -0.2753
   17SAPS  H20T 2212   5.647   4.616   3.792  0.6323 -0.5019  0.7888
   17SAPS   C33 2213   5.063   4.703   2.546  0.4269  0.5012  0.0552
   17SAPS   H3X 2214   5.154   4.639   2.546  0.4546  0.5360 -0.4897
   17SAPS   H3Y 2215   4.992   4.666   2.624 -0.1921  1.6554  0.0646
   17SAPS   C34 2216   5.106   4.840   2.593  0.3651  0.7852  0.6797
   17SAPS   H4X 2217   5.019   4.909   2.600 -0.3720  0.0676 -0.9517
   17SAPS   H4Y 2218   5.171   4.879   2.512 -0.1861  1.0659  0.3675
   17SAPS   C35 2219   5.165   4.823   2.732  0.6412  0.0782  0.1216
   17SAPS   H5X 2220   5.239   4.741   2.723  0.4239  0.0031 -1.2569
   17SAPS   H5Y 2221   5.089   4.807   2.811  0.6653 -1.0250 -0.0665
   17SAPS   C36 2222   5.248   4.952   2.770 -0.3484 -0.4407  0.0058
   17SAPS   H6X 2223   5.180   5.040   2.767 -0.8594 -0.6512  2.6210
   17SAPS   H6Y 2224   5.320   4.961   2.686 -2.1957  1.2229 -1.4851
   17SAPS   C37 2225   5.320   4.941   2.907 -1.1818 -0.3436 -0.2566
   17SAPS   H7X 2226   5.404   4.871   2.894  1.1652  2.0758  0.9591
   17SAPS   H7Y 2227   5.251   4.904   2.985 -1.1906  1.1653  0.5006
   17SAPS   C38 2228   5.404   5.068   2.949  0.4897  0.0619 -0.7305
   17SAPS   H8X 2229   5.335   5.145   2.989  0.9200 -0.4566  1.1008
   17SAPS   H8Y 2230   5.458   5.114   2.863 -2.0608  0.8732 -1.9970
   17SAPS   C39 2231   5.510   5.041   3.059  0.4381  0.2471 -0.1541
   17SAPS   H9X 2232   5.602   5.077   3.009 -0.0574  2.2250  0.2863
   17SAPS   H9Y 2233   5.519   4.936   3.097 -0.9628  0.2499  0.2639
   17SAPS  C310 2234   5.478   5.120   3.185 -0.2640 -0.8138 -1.1805
   17SAPS  H10X 2235   5.370   5.112   3.210 -0.1380  1.9627  0.6531
   17SAPS  H10Y 2236   5.478   5.228   3.159 -2.0710 -0.3004  0.6472
   17SAPS  C311 2237   5.575   5.089   3.299 -0.5183  0.1576  0.0413
   17SAPS  H11X 2238   5.672   5.143   3.285 -1.3729  1.6450 -0.2987
   17SAPS  H11Y 2239   5.599   4.980   3.295  0.9138  0.3578  1.7132
   17SAPS  C312 2240   5.520   5.126   3.441  0.2763  0.0316 -0.2738
   17SAPS  H12X 2241   5.416   5.091   3.457  0.4448 -0.9143 -1.1127
   17SAPS  H12Y 2242   5.519   5.236   3.431  0.8399  0.1439  0.8098
   17SAPS  C313 2243   5.618   5.103   3.557 -0.3880 -0.3750 -0.2320
   17SAPS  H13X 2244   5.724   5.109   3.524  0.0017 -1.2055  0.8388
   17SAPS  H13Y 2245   5.599   4.999   3.590 -0.9643 -0.2349 -0.1091
   17SAPS  C314 2246   5.587   5.193   3.678 -0.1759  0.1087 -0.6180
   17SAPS  H14X 2247   5.482   5.174   3.709  0.4950 -3.6574 -0.1515
   17SAPS  H14Y 2248   5.598   5.301   3.655 -3.4343  0.7919  0.5113
   17SAPS  C315 2249   5.667   5.167   3.809 -0.5315  0.1747  0.0030
   17SAPS  H15X 2250   5.771   5.203   3.792  0.5519 -1.4723  2.5598
   17SAPS  H15Y 2251   5.680   5.058   3.823  0.6746  0.1299 -1.2277
   17SAPS  C316 2252   5.608   5.242   3.927  0.9022  0.4926 -0.4640
   17SAPS  H16X 2253   5.508   5.203   3.957  1.6646 -0.2135  1.3053
   17SAPS  H16Y 2254   5.597   5.349   3.897  2.8208  1.3285  1.5080
   17SAPS  C317 2255   5.702   5.246   4.049  0.2498  0.1147 -0.0488
   17SAPS  H17X 2256   5.784   5.317   4.025 -0.5308  1.1727  0.3113
   17SAPS  H17Y 2257   5.734   5.144   4.075 -0.7833 -0.2511 -0.1395
   17SAPS  C318 2258   5.626   5.305   4.174  0.3554 -0.7493 -0.3788
   17SAPS  H18X 2259   5.683   5.279   4.266 -1.1029 -1.1051  0.4552
   17SAPS  H18Y 2260   5.527   5.255   4.170 -0.0434 -0.2370  1.8630
   17SAPS  H18Z 2261   5.620   5.415   4.162 -1.0712 -0.4069  2.5854
   18SAPS     N 2262   4.708   3.246   1.870 -0.1294 -0.4221  0.2077
   18SAPS   HN1 2263   4.767   3.216   1.790 -0.3895  1.1531 -0.6121
   18SAPS   HN2 2264   4.612   3.244   1.829 -1.1365  3.0747  2.0182
   18SAPS   HN3 2265   4.729   3.343   1.901 -0.7962 -1.1866  3.3567
   18SAPS   C12 2266   4.724   3.152   1.991 -0.9507 -1.0564  0.9165
   18SAPS  H12A 2267   4.702   3.055   1.951 -2.1410 -1.1472  1.7298
   18SAPS   C13 2268   4.870   3.146   2.045  0.2398 -0.1229  0.8207
   18SAPS  O13A 2269   4.967   3.205   1.995  1.0114  0.0336 -0.0985
   18SAPS  O13B 2270   4.891   3.047   2.123  0.0147  0.0215 -0.1066
   18SAPS   C11 2271   4.628   3.186   2.105  0.1960 -0.3153  0.4690
   18SAPS  H11A 2272   4.675   3.279   2.144  0.0761  0.0278 -0.2015
   18SAPS  H11B 2273   4.633   3.116   2.191  2.0241 -0.0288  0.6465
   18SAPS     P 2274   4.415   3.338   2.093 -0.0195  0.1443  0.0392
   18SAPS   O13 2275   4.508   3.452   2.071 -0.5979  0.2892  0.2843
   18SAPS   O14 2276   4.288   3.344   2.021  0.1043  0.1522 -0.8558
   18SAPS   O12 2277   4.493   3.207   2.068 -0.0090  0.1146  0.3161
   18SAPS   O11 2278   4.395   3.328   2.245 -0.4293  0.4052  0.0312
   18SAPS    C1 2279   4.271   3.300   2.303  0.7083  0.4385 -0.1476
   18SAPS    HA 2280   4.186   3.355   2.257  1.8443  2.5295  0.1172
   18SAPS    HB 2281   4.249   3.191   2.297  0.6580  0.4266  0.2140
   18SAPS    C2 2282   4.281   3.326   2.453 -0.7026 -0.1096  0.2499
   18SAPS    HS 2283   4.182   3.333   2.503 -0.7200  0.4332  0.1546
   18SAPS   O21 2284   4.349   3.443   2.497 -0.3966 -0.0382 -0.7588
   18SAPS   C21 2285   4.294   3.555   2.446 -0.8396  0.6345 -0.1020
   18SAPS   O22 2286   4.186   3.561   2.395  0.3646  0.2644  0.1684
   18SAPS   C22 2287   4.392   3.664   2.446  0.0720  0.4117 -0.1636
   18SAPS   H2R 2288   4.491   3.628   2.480 -0.8825  0.4900  3.0375
   18SAPS   H2S 2289   4.388   3.700   2.341  0.1485  0.3233 -0.1968
   18SAPS    C3 2290   4.362   3.207   2.525 -0.1616 -0.3114 -0.3371
   18SAPS    HX 2291   4.459   3.184   2.475 -0.4054 -0.8420 -0.5793
   18SAPS    HY 2292   4.295   3.119   2.512  0.3074 -0.4886 -1.7459
   18SAPS   O31 2293   4.369   3.224   2.671 -0.0054  0.0673  0.1135
   18SAPS   C31 2294   4.488   3.270   2.709 -0.5707 -0.0042 -0.1610
   18SAPS   O32 2295   4.585   3.295   2.640  0.0305 -0.5364  0.0085
   18SAPS   C32 2296   4.483   3.297   2.861 -0.4940 -0.8058 -0.2925
   18SAPS   H2X 2297   4.442   3.210   2.917 -1.6366  1.1743  2.1379
   18SAPS   H2Y 2298   4.411   3.379   2.878  1.7288  2.0942 -3.5984
   18SAPS   C23 2299   4.355   3.777   2.540 -0.4149  0.5584  0.5855
   18SAPS   H3R 2300   4.247   3.801   2.527  0.3702  3.6066 -1.2976
   18SAPS   H3S 2301   4.419   3.860   2.504 -2.1334  0.6454 -2.6537
   18SAPS   C24 2302   4.374   3.736   2.684 -0.4165  0.1597  0.4605
   18SAPS   H4R 2303   4.317   3.643   2.708 -0.1331 -0.2158 -0.2768
   18SAPS   H4S 2304   4.350   3.827   2.742  1.0711  1.0637 -0.2811
   18SAPS   C25 2305   4.520   3.722   2.726  0.1714  0.4710  0.7537
   18SAPS   H5R 2306   4.582   3.666   2.655 -3.7374 -2.8677 -0.3877
   18SAPS   C26 2307   4.578   3.766   2.839  0.2826  0.4070 -0.1503
   18SAPS   H6R 2308   4.685   3.748   2.854  0.1738 -0.0960  0.0618
   18SAPS   C27 2309   4.508   3.809   2.965 -0.8400  0.4249 -0.7526
   18SAPS   H7R 2310   4.576   3.766   3.042  1.2620  0.3625 -2.5418
   18SAPS   H7S 2311   4.409   3.760   2.978 -0.2801 -0.3464  1.0098
   18SAPS   C28 2312   4.478   3.958   2.963  0.1124  0.0067 -0.7496
   18SAPS   H8R 2313   4.460   4.002   2.863 -0.2156  0.2541 -0.5825
   18SAPS   C29 2314   4.445   4.026   3.072  0.1261 -0.5879 -0.0706
   18SAPS   H9R 2315   4.419   4.132   3.058  2.0277 -0.3678 -2.7357
   18SAPS  C210 2316   4.467   3.985   3.215 -0.0283 -0.5136  0.1049
   18SAPS  H10R 2317   4.466   3.876   3.236  0.7653 -0.3203  1.2459
   18SAPS  H10S 2318   4.383   4.032   3.270  0.2927 -0.0248  0.1850
   18SAPS  C211 2319   4.595   4.050   3.268  0.6313 -0.2675  0.8300
   18SAPS  H11R 2320   4.677   3.980   3.246  0.5339 -0.2479  0.3954
   18SAPS  C212 2321   4.614   4.162   3.336  0.1088  0.0398 -0.1945
   18SAPS  H12R 2322   4.714   4.195   3.366 -0.1116  1.7701 -1.1949
   18SAPS  C213 2323   4.511   4.265   3.361  0.0614 -0.2327  0.6623
   18SAPS  H13R 2324   4.410   4.226   3.341  0.1594  0.1610 -0.7045
   18SAPS  H13S 2325   4.525   4.330   3.272  2.9942  1.0576  1.9143
   18SAPS  C214 2326   4.506   4.343   3.487  0.4142  0.1671  0.0813
   18SAPS  H14R 2327   4.529   4.287   3.578 -1.8364  0.1392  0.6948
   18SAPS  C215 2328   4.454   4.466   3.493  0.7478 -0.2682 -0.2774
   18SAPS  H15R 2329   4.472   4.526   3.583 -0.9099 -0.4298  0.1991
   18SAPS  C216 2330   4.399   4.551   3.385 -0.3953 -0.1178 -0.5370
   18SAPS  H16R 2331   4.310   4.601   3.429  0.1802  0.4756 -0.0223
   18SAPS  H16S 2332   4.359   4.480   3.310 -3.6898 -2.3520  2.9496
   18SAPS  C217 2333   4.491   4.658   3.328  0.1139  0.5763 -0.1391
   18SAPS  H17R 2334   4.568   4.608   3.265 -0.6892 -2.0909  0.8283
   18SAPS  H17S 2335   4.535   4.715   3.412 -1.9177 -0.4677  1.7244
   18SAPS  C218 2336   4.416   4.763   3.245  0.2153  0.1367 -0.2705
   18SAPS  H18R 2337   4.481   4.844   3.207 -1.8736  1.3195 -1.5729
   18SAPS  H18S 2338   4.325   4.812   3.288 -0.6644 -1.4839 -0.1813
   18SAPS  C219 2339   4.380   4.697   3.110 -0.0012  0.3924  0.1234
   18SAPS  H19R 2340   4.310   4.611   3.123 -1.1781  1.3486  0.2551
   18SAPS  H19S 2341   4.471   4.650   3.065 -1.3442 -0.1788 -2.1625
   18SAPS  C220 2342   4.332   4.805   3.010  0.1601 -0.2638  0.4860
   18SAPS  H20R 2343   4.322   4.756   2.911 -0.5464  0.1509  0.3481
   18SAPS  H20S 2344   4.415   4.879   3.008  2.6331 -2.8819 -0.6754
   18SAPS  H20T 2345   4.238   4.853   3.045 -0.8085 -1.8479  0.1884
   18SAPS   C33 2346   4.612   3.362   2.924  0.0819  0.1972 -0.6076
   18SAPS   H3X 2347   4.650   3.444   2.861  0.5407 -0.2776 -0.9555
   18SAPS   H3Y 2348   4.688   3.281   2.914 -1.1091 -1.2649  1.3910
   18SAPS   C34 2349   4.615   3.400   3.070  0.3906 -0.1581 -0.1977
   18SAPS   H4X 2350   4.569   3.500   3.084  0.6164 -0.2906  1.6336
   18SAPS   H4Y 2351   4.719   3.400   3.110 -0.1732 -0.0269  1.3328
   18SAPS   C35 2352   4.535   3.306   3.158  0.3876 -1.2468 -1.0546
   18SAPS   H5X 2353   4.539   3.197   3.135 -3.8004 -1.5830 -1.0071
   18SAPS   H5Y 2354   4.428   3.331   3.137  0.9969  1.1290 -1.6104
   18SAPS   C36 2355   4.557   3.333   3.307 -0.1833 -0.3828  0.2603
   18SAPS   H6X 2356   4.477   3.284   3.367 -1.5192  1.3496 -0.0242
   18SAPS   H6Y 2357   4.539   3.439   3.335  2.3699 -0.3024  1.9329
   18SAPS   C37 2358   4.683   3.281   3.372 -0.1265 -0.6606  0.6194
   18SAPS   H7X 2359   4.776   3.316   3.320 -0.7025 -0.3297 -0.2146
   18SAPS   H7Y 2360   4.670   3.170   3.372 -3.3697 -0.4030 -1.3351
   18SAPS   C38 2361   4.704   3.317   3.511 -0.2364  0.1614 -0.3678
   18SAPS   H8X 2362   4.619   3.299   3.581  0.8842  1.3401  1.3806
   18SAPS   H8Y 2363   4.722   3.426   3.515 -2.9495  0.6491  0.5937
   18SAPS   C39 2364   4.830   3.251   3.574  0.7121 -0.0568  0.0417
   18SAPS   H9X 2365   4.849   3.316   3.662  1.3655  1.0260 -0.8735
   18SAPS   H9Y 2366   4.913   3.273   3.503 -0.6035 -0.9608 -1.8704
   18SAPS  C310 2367   4.812   3.106   3.613 -0.0466 -0.2353 -0.6855
   18SAPS  H10X 2368   4.791   3.038   3.527  0.1815 -1.6093  0.3001
   18SAPS  H10Y 2369   4.726   3.098   3.682 -0.7040 -0.0820 -1.4762
   18SAPS  C311 2370   4.934   3.050   3.692  1.0174 -0.7279 -0.1065
   18SAPS  H11X 2371   4.966   3.119   3.773  1.0291 -0.6454 -0.1814
   18SAPS  H11Y 2372   5.008   3.055   3.610 -1.1954 -0.6245 -2.2063
   18SAPS  C312 2373   4.937   2.905   3.728 -0.2245 -0.2615  0.0176
   18SAPS  H12X 2374   5.044   2.881   3.748 -0.1658 -1.2677 -1.3529
   18SAPS  H12Y 2375   4.898   2.841   3.646  0.8708  1.4777 -1.9939
   18SAPS  C313 2376   4.857   2.873   3.855 -0.5266  0.1345  0.4799
   18SAPS  H13X 2377   4.884   2.769   3.885 -0.3200  0.3352  0.9983
   18SAPS  H13Y 2378   4.749   2.880   3.830  0.0485 -0.2738 -2.5104
   18SAPS  C314 2379   4.890   2.963   3.977 -0.2115 -0.3618  0.6956
   18SAPS  H14X 2380   4.826   2.938   4.064 -0.4577  1.8794  1.2375
   18SAPS  H14Y 2381   4.873   3.072   3.960  0.8831 -0.6673 -3.1296
   18SAPS  C315 2382   5.036   2.960   4.021  0.1963  0.4464 -0.1303
   18SAPS  H15X 2383   5.102   2.994   3.939  0.9594  0.7918  0.6080
   18SAPS  H15Y 2384   5.055   2.857   4.058 -0.1293  1.2765  2.5763
   18SAPS  C316 2385   5.061   3.042   4.153 -0.1872  0.9411  0.6588
   18SAPS  H16X 2386   5.017   2.988   4.240  1.0239 -1.0066  0.1308
   18SAPS  H16Y 2387   5.008   3.139   4.145  0.5196  1.3356  0.6814
   18SAPS  C317 2388   5.205   3.053   4.183  0.5882 -0.4967  0.2906
   18SAPS  H17X 2389   5.221   3.111   4.277  0.8360 -1.6680  0.9916
   18SAPS  H17Y 2390   5.251   3.105   4.097 -3.1172  1.3369 -0.7902
   18SAPS  C318 2391   5.277   2.914   4.189 -0.2965  0.6147 -0.6339
   18SAPS  H18X 2392   5.206   2.830   4.208 -2.2333  2.0051 -1.3358
   18SAPS  H18Y 2393   5.361   2.913   4.261 -0.9927  0.9075  0.2054
   18SAPS  H18Z 2394   5.326   2.897   4.091  0.4323 -0.2589 -0.1291
   19SAPS     N 2395   0.538   6.385   2.071  0.4917  0.2999 -0.1240
   19SAPS   HN1 2396   0.624   6.442   2.060  1.0775 -0.7111 -0.8823
   19SAPS   HN2 2397   0.550   6.296   2.123 -1.2421 -0.8146 -1.4904
   19SAPS   HN3 2398   0.496   6.368   1.977  0.5785 -2.2925  0.2302
   19SAPS   C12 2399   0.447   6.473   2.140 -0.0982 -0.2705  0.5997
   19SAPS  H12A 2400   0.450   6.462   2.247  0.8929  0.2867  0.6433
   19SAPS   C13 2401   0.489   6.621   2.124  1.1048  0.7938 -0.2601
   19SAPS  O13A 2402   0.567   6.646   2.030 -0.0063  0.1193  0.3274
   19SAPS  O13B 2403   0.401   6.706   2.160 -0.4792 -0.3383  0.0421
   19SAPS   C11 2404   0.291   6.446   2.098 -0.2699  0.5618 -0.8440
   19SAPS  H11A 2405   0.282   6.467   1.990  3.4983  0.0461 -1.3901
   19SAPS  H11B 2406   0.225   6.520   2.149  0.4154  2.0726 -2.0792
   19SAPS     P 2407   0.151   6.266   2.244 -0.3660 -0.8223 -0.0554
   19SAPS   O13 2408   0.033   6.355   2.231  0.6187  0.0404  0.3770
   19SAPS   O14 2409   0.129   6.120   2.231  0.4709 -0.1879  0.6848
   19SAPS   O12 2410   0.251   6.307   2.129 -0.1794  0.2190 -0.1631
   19SAPS   O11 2411   0.225   6.299   2.383  0.0280 -0.0086 -0.3942
   19SAPS    C1 2412   0.344   6.234   2.419  0.8812  0.5300  0.0139
   19SAPS    HA 2413   0.343   6.135   2.369  0.4899  0.4683  0.1392
   19SAPS    HB 2414   0.433   6.286   2.379  0.4414  1.5058  0.2631
   19SAPS    C2 2415   0.359   6.209   2.574  0.5004 -0.0860 -0.0917
   19SAPS    HS 2416   0.262   6.158   2.597  0.6094 -1.0166 -1.5550
   19SAPS   O21 2417   0.390   6.335   2.639 -0.0397 -0.0264  0.4080
   19SAPS   C21 2418   0.338   6.367   2.753 -0.3266  0.3445  0.2448
   19SAPS   O22 2419   0.268   6.288   2.818 -0.2555  0.6105  0.0171
   19SAPS   C22 2420   0.401   6.499   2.808 -0.3798 -0.5619 -0.3751
   19SAPS   H2R 2421   0.497   6.513   2.754 -0.5266 -2.0543 -1.0857
   19SAPS   H2S 2422   0.331   6.576   2.770  0.7364  0.8007  0.2646
   19SAPS    C3 2423   0.468   6.100   2.587 -0.3855  0.6645  0.8091
   19SAPS    HX 2424   0.565   6.132   2.543  0.3458  0.4013  2.1553
   19SAPS    HY 2425   0.431   6.018   2.522  0.6318  0.8742 -0.0631
   19SAPS   O31 2426   0.482   6.058   2.725  0.4913 -0.3407 -0.3070
   19SAPS   C31 2427   0.576   6.118   2.796  0.0544  0.5624  0.1560
   19SAPS   O32 2428   0.650   6.204   2.756 -0.0289  0.0814  0.2986
   19SAPS   C32 2429   0.602   6.044   2.928 -0.2083  0.2679  0.4949
   19SAPS   H2X 2430   0.581   5.936   2.913 -0.1501  0.0078  2.1954
   19SAPS   H2Y 2431   0.532   6.093   3.000 -1.4451  2.8407 -2.2026
   19SAPS   C23 2432   0.421   6.500   2.965  0.7029  0.7279  0.3055
   19SAPS   H3R 2433   0.471   6.407   3.000 -1.1822 -1.0045 -1.3419
   19SAPS   H3S 2434   0.324   6.492   3.019  0.0905  2.2602 -0.4985
   19SAPS   C24 2435   0.483   6.628   3.021  0.2076  0.0963 -0.6575
   19SAPS   H4R 2436   0.463   6.625   3.130  1.5223 -0.5345 -0.4086
   19SAPS   H4S 2437   0.430   6.723   2.999  0.0771  0.5594  1.4585
   19SAPS   C25 2438   0.633   6.648   2.989  0.2925 -0.0830  0.4706
   19SAPS   H5R 2439   0.666   6.701   2.898 -1.7992 -0.3928 -0.5165
   19SAPS   C26 2440   0.738   6.616   3.071 -0.4535  0.5500  0.1115
   19SAPS   H6R 2441   0.842   6.633   3.040 -0.9155 -0.4729 -2.2079
   19SAPS   C27 2442   0.727   6.531   3.196  0.5061 -0.0158 -0.8485
   19SAPS   H7R 2443   0.631   6.475   3.206  1.5419 -1.6489  0.6457
   19SAPS   H7S 2444   0.730   6.594   3.287 -0.1687 -3.9119  2.1525
   19SAPS   C28 2445   0.837   6.424   3.197  0.2942 -0.5811  0.4232
   19SAPS   H8R 2446   0.820   6.335   3.134  1.7772 -0.3981 -0.2727
   19SAPS   C29 2447   0.958   6.441   3.254 -0.2686  0.5083 -0.4677
   19SAPS   H9R 2448   1.034   6.361   3.242 -0.5720 -0.2074  1.8442
   19SAPS  C210 2449   1.000   6.551   3.339 -0.6041 -0.3048  0.2875
   19SAPS  H10R 2450   0.930   6.634   3.361 -0.3067 -0.5038  2.2006
   19SAPS  H10S 2451   1.093   6.594   3.294  0.4347 -3.5238 -0.9903
   19SAPS  C211 2452   1.050   6.503   3.473 -0.2752 -0.2276  0.3764
   19SAPS  H11R 2453   1.108   6.410   3.468 -1.7231 -1.2216  1.1546
   19SAPS  C212 2454   1.013   6.556   3.591  0.0716 -0.4355 -0.3648
   19SAPS  H12R 2455   1.048   6.509   3.684  0.9902  0.6997 -0.1106
   19SAPS  C213 2456   0.933   6.678   3.629 -0.5521 -0.6780  0.3563
   19SAPS  H13R 2457   0.916   6.745   3.541  0.2561  1.7185  1.9069
   19SAPS  H13S 2458   0.994   6.734   3.704  0.6531  1.3927 -1.9946
   19SAPS  C214 2459   0.804   6.627   3.678  0.4434  0.6185 -0.0391
   19SAPS  H14R 2460   0.742   6.553   3.625  0.2547 -0.2882  1.3933
   19SAPS  C215 2461   0.751   6.665   3.799  0.4084 -0.8811 -0.2303
   19SAPS  H15R 2462   0.652   6.631   3.831 -0.1605 -0.7219 -1.7336
   19SAPS  C216 2463   0.808   6.760   3.899  0.1267  0.5008 -0.1348
   19SAPS  H16R 2464   0.912   6.726   3.923 -0.0588 -0.4149 -0.5966
   19SAPS  H16S 2465   0.753   6.750   3.995  2.3651 -2.5819  1.0195
   19SAPS  C217 2466   0.781   6.908   3.868  0.2528  0.8347  0.0093
   19SAPS  H17R 2467   0.769   6.921   3.758 -0.3602 -2.8260 -0.4709
   19SAPS  H17S 2468   0.875   6.964   3.886  1.1001  0.0276 -1.6559
   19SAPS  C218 2469   0.653   6.965   3.937 -0.0299 -0.6060  0.8462
   19SAPS  H18R 2470   0.650   6.950   4.047 -0.7103 -2.1231  0.6517
   19SAPS  H18S 2471   0.568   6.903   3.899  0.4990 -0.4219 -0.7278
   19SAPS  C219 2472   0.629   7.113   3.896 -0.4634  0.2053 -0.3003
   19SAPS  H19R 2473   0.663   7.112   3.790  0.5160  0.2093  0.0067
   19SAPS  H19S 2474   0.691   7.185   3.953  2.0313 -0.5122 -1.9593
   19SAPS  C220 2475   0.480   7.162   3.884 -0.2459  0.5195  0.2358
   19SAPS  H20R 2476   0.420   7.089   3.826 -2.0915  2.1349  0.0075
   19SAPS  H20S 2477   0.496   7.259   3.833  0.1820 -0.1671 -0.9928
   19SAPS  H20T 2478   0.442   7.167   3.988  1.1085  0.4527  0.7632
   19SAPS   C33 2479   0.755   6.050   2.975  0.5019  0.0872  0.6051
   19SAPS   H3X 2480   0.779   6.158   2.976  0.9470  0.0550 -1.8519
   19SAPS   H3Y 2481   0.812   5.999   2.895  2.6635  0.7931  1.6133
   19SAPS   C34 2482   0.771   5.976   3.102 -0.4874 -0.5908  0.1051
   19SAPS   H4X 2483   0.859   5.910   3.086 -2.2624 -2.8811 -0.7520
   19SAPS   H4Y 2484   0.682   5.915   3.129 -1.9306  0.8626 -1.1550
   19SAPS   C35 2485   0.805   6.069   3.218 -1.1366  0.0346 -0.2077
   19SAPS   H5X 2486   0.735   6.155   3.223 -0.4161  0.5946  0.5122
   19SAPS   H5Y 2487   0.901   6.116   3.187 -2.0301  0.5447 -2.3605
   19SAPS   C36 2488   0.821   5.997   3.348  0.7922  0.2931 -0.0516
   19SAPS   H6X 2489   0.892   5.913   3.335 -0.8159 -1.0055 -0.7659
   19SAPS   H6Y 2490   0.721   5.954   3.369  1.4161 -1.6680 -0.8901
   19SAPS   C37 2491   0.845   6.082   3.477 -0.0704  0.0601  0.4655
   19SAPS   H7X 2492   0.852   6.020   3.570 -2.1833 -0.7499  0.1343
   19SAPS   H7Y 2493   0.762   6.155   3.482 -0.3036 -0.1838  0.1397
   19SAPS   C38 2494   0.986   6.139   3.478 -0.2508  0.1079 -0.6503
   19SAPS   H8X 2495   0.977   6.227   3.411  0.0106 -0.2124 -1.1145
   19SAPS   H8Y 2496   1.058   6.071   3.428  2.4397  3.0555 -1.0852
   19SAPS   C39 2497   1.046   6.176   3.615 -0.7407  0.6635 -0.3921
   19SAPS   H9X 2498   1.137   6.237   3.601  1.4551 -1.8173  1.9698
   19SAPS   H9Y 2499   1.078   6.084   3.668 -3.3582  0.8767  1.8005
   19SAPS  C310 2500   0.966   6.244   3.728  0.2157 -0.8470 -0.0055
   19SAPS  H10X 2501   0.886   6.172   3.757 -1.2363  0.7845  0.2598
   19SAPS  H10Y 2502   0.914   6.337   3.695  3.6525  1.8084  1.4300
   19SAPS  C311 2503   1.062   6.273   3.846 -0.0573  0.0270  0.2388
   19SAPS  H11X 2504   1.152   6.317   3.800 -0.2044  0.6328  0.5159
   19SAPS  H11Y 2505   1.082   6.177   3.897  0.5219  1.5460  3.0932
   19SAPS  C312 2506   1.014   6.380   3.938  0.3141  0.4765  0.5308
   19SAPS  H12X 2507   0.903   6.380   3.934  0.2781  2.2186  0.7239
   19SAPS  H12Y 2508   1.045   6.476   3.892  1.3974  0.1233  0.5027
   19SAPS  C313 2509   1.071   6.376   4.080 -0.0746 -0.6065 -0.8737
   19SAPS  H13X 2510   1.174   6.334   4.075  0.1037 -0.2770 -0.1384
   19SAPS  H13Y 2511   1.006   6.308   4.139  0.1096 -0.0432  0.0030
   19SAPS  C314 2512   1.062   6.519   4.136 -0.0400  0.5257  0.3311
   19SAPS  H14X 2513   0.958   6.557   4.130 -0.2441  0.0424  0.7229
   19SAPS  H14Y 2514   1.118   6.577   4.061 -1.6696 -1.2989 -2.4775
   19SAPS  C315 2515   1.105   6.545   4.280  0.1934 -0.4275  0.5356
   19SAPS  H15X 2516   1.021   6.509   4.344  1.7871 -0.3325  2.7835
   19SAPS  H15Y 2517   1.107   6.655   4.294  1.2037 -0.0654 -1.8818
   19SAPS  C316 2518   1.249   6.491   4.317  0.4231  0.1245  0.5855
   19SAPS  H16X 2519   1.246   6.381   4.303 -1.5953  0.0284  1.4299
   19SAPS  H16Y 2520   1.249   6.506   4.427 -2.8624  2.1822  0.4638
   19SAPS  C317 2521   1.365   6.562   4.245  0.4505 -0.2005  0.4078
   19SAPS  H17X 2522   1.363   6.673   4.242 -2.3771 -0.1119  1.9285
   19SAPS  H17Y 2523   1.376   6.522   4.142  1.8310 -1.7207  1.1081
   19SAPS  C318 2524   1.495   6.539   4.331  0.2054 -0.0269 -0.1345
   19SAPS  H18X 2525   1.482   6.579   4.434 -3.6516  0.0813 -0.5029
   19SAPS  H18Y 2526   1.579   6.603   4.297 -2.0392  3.1716 -0.1528
   19SAPS  H18Z 2527   1.527   6.433   4.338 -0.3860 -0.1989  0.0473
   20SAPS     N 2528   3.541   0.771   1.799 -0.5376  0.5333 -0.1650
   20SAPS   HN1 2529   3.628   0.752   1.745  0.7153 -1.2083  2.2504
   20SAPS   HN2 2530   3.481   0.825   1.734  0.7824 -0.7347 -2.5846
   20SAPS   HN3 2531   3.569   0.827   1.882  0.6450  5.7391 -3.5763
   20SAPS   C12 2532   3.478   0.638   1.828 -0.2452  0.1028 -0.6184
   20SAPS  H12A 2533   3.380   0.654   1.871 -0.2688  0.7288 -0.8910
   20SAPS   C13 2534   3.441   0.565   1.698 -0.6462 -0.2024 -0.3334
   20SAPS  O13A 2535   3.448   0.627   1.588 -0.3471  0.1696 -0.7486
   20SAPS  O13B 2536   3.386   0.453   1.710  0.6134  0.2275  0.1599
   20SAPS   C11 2537   3.554   0.551   1.929 -0.5044  0.3119  0.4522
   20SAPS  H11A 2538   3.658   0.541   1.891 -1.2830 -0.0812 -1.7160
   20SAPS  H11B 2539   3.504   0.452   1.927  1.7733 -0.8980  0.9373
   20SAPS     P 2540   3.665   0.556   2.162  0.1169 -0.0359  0.3953
   20SAPS   O13 2541   3.603   0.524   2.289 -0.3045 -0.1034  0.1246
   20SAPS   O14 2542   3.749   0.444   2.103  0.1494  0.4541 -0.6517
   20SAPS   O12 2543   3.552   0.603   2.064 -0.2385  0.0867 -0.0974
   20SAPS   O11 2544   3.755   0.686   2.169 -0.3782 -0.5463  0.2147
   20SAPS    C1 2545   3.862   0.699   2.265  0.3380 -0.3809  0.4204
   20SAPS    HA 2546   3.914   0.603   2.284 -0.7036 -1.0177  0.1667
   20SAPS    HB 2547   3.942   0.769   2.232  0.1987 -1.5470 -2.8116
   20SAPS    C2 2548   3.800   0.755   2.403 -0.1738  0.3394  0.1676
   20SAPS    HS 2549   3.727   0.683   2.444  0.4245 -0.0230  0.6132
   20SAPS   O21 2550   3.746   0.891   2.380  0.5035  0.3789  0.1524
   20SAPS   C21 2551   3.636   0.918   2.452 -0.5352  0.8513 -0.5334
   20SAPS   O22 2552   3.562   0.843   2.510 -0.5207  0.7528 -0.3315
   20SAPS   C22 2553   3.623   1.063   2.441 -0.0236  0.1195 -0.7103
   20SAPS   H2R 2554   3.710   1.110   2.492 -0.6664  0.1255  0.4174
   20SAPS   H2S 2555   3.632   1.104   2.338  0.8663 -0.9317 -1.0652
   20SAPS    C3 2556   3.911   0.772   2.513 -0.4017  0.8028 -0.0303
   20SAPS    HX 2557   3.977   0.853   2.474  0.6937 -0.3893 -0.6960
   20SAPS    HY 2558   3.968   0.678   2.520 -0.7044  0.6018 -0.2507
   20SAPS   O31 2559   3.848   0.810   2.633 -0.5833 -0.0096 -0.4989
   20SAPS   C31 2560   3.798   0.713   2.708 -0.4323 -0.4328  0.2463
   20SAPS   O32 2561   3.804   0.593   2.687  0.1226 -0.8199  0.3156
   20SAPS   C32 2562   3.706   0.783   2.812  0.7312 -0.3374  0.3244
   20SAPS   H2X 2563   3.606   0.790   2.764 -0.1506 -1.0446  1.9894
   20SAPS   H2Y 2564   3.743   0.885   2.836  1.1050 -0.1975 -0.7861
   20SAPS   C23 2565   3.497   1.110   2.520 -0.4014 -0.0421  0.2207
   20SAPS   H3R 2566   3.507   1.076   2.626 -0.3422 -1.9310 -0.3481
   20SAPS   H3S 2567   3.404   1.066   2.479 -1.1139  3.1382 -1.8941
   20SAPS   C24 2568   3.483   1.261   2.516 -0.1352 -0.0241 -0.3176
   20SAPS   H4R 2569   3.477   1.295   2.410 -0.3003 -1.3729 -0.7611
   20SAPS   H4S 2570   3.573   1.313   2.556  0.7486 -2.0403  0.4592
   20SAPS   C25 2571   3.356   1.298   2.592 -0.0308 -0.3948  0.1018
   20SAPS   H5R 2572   3.266   1.298   2.529  0.7977  0.1581 -1.1256
   20SAPS   C26 2573   3.351   1.324   2.721 -0.0921  0.2925 -0.1831
   20SAPS   H6R 2574   3.251   1.333   2.765 -0.6930  0.3469 -1.5300
   20SAPS   C27 2575   3.464   1.318   2.819  0.0934 -0.6513  0.2668
   20SAPS   H7R 2576   3.520   1.223   2.808  0.5804 -0.1802 -1.9377
   20SAPS   H7S 2577   3.418   1.305   2.919  0.1026  1.9576  0.6967
   20SAPS   C28 2578   3.552   1.445   2.828 -0.1103  0.0025  0.4675
   20SAPS   H8R 2579   3.582   1.487   2.731  0.8488 -0.7292  0.4348
   20SAPS   C29 2580   3.626   1.491   2.930 -0.0917  0.2901 -0.4038
   20SAPS   H9R 2581   3.687   1.581   2.914 -0.8276  0.9132  0.2098
   20SAPS  C210 2582   3.625   1.438   3.074  0.3121  0.4213  0.2254
   20SAPS  H10R 2583   3.700   1.496   3.132 -1.2877  2.7426  0.1386
   20SAPS  H10S 2584   3.658   1.332   3.074  0.3398  0.4290  0.4761
   20SAPS  C211 2585   3.484   1.444   3.139  0.1166  0.8620  0.0224
   20SAPS  H11R 2586   3.402   1.432   3.067  0.9280  0.2819 -0.8299
   20SAPS  C212 2587   3.466   1.476   3.266  0.3311 -0.2835 -0.4512
   20SAPS  H12R 2588   3.370   1.477   3.320 -0.1865  0.8066 -1.3608
   20SAPS  C213 2589   3.590   1.496   3.358  0.6669 -0.1226 -0.1270
   20SAPS  H13R 2590   3.663   1.571   3.321  1.6798 -0.6291  0.7867
   20SAPS  H13S 2591   3.649   1.402   3.355 -0.2004 -0.6479 -2.2789
   20SAPS  C214 2592   3.567   1.527   3.501  0.5963 -0.4712 -0.9068
   20SAPS  H14R 2593   3.575   1.631   3.538 -2.7130 -0.6716  0.7469
   20SAPS  C215 2594   3.518   1.443   3.594 -0.0361  0.4114  0.4698
   20SAPS  H15R 2595   3.489   1.477   3.695  0.3919 -1.3918  1.2479
   20SAPS  C216 2596   3.492   1.291   3.573 -0.1755 -0.5581 -0.0509
   20SAPS  H16R 2597   3.566   1.228   3.626  1.8032  2.9447  1.7395
   20SAPS  H16S 2598   3.502   1.262   3.466  1.7341 -1.1614  0.2522
   20SAPS  C217 2599   3.346   1.254   3.627 -1.0525 -0.4159 -0.2987
   20SAPS  H17R 2600   3.344   1.146   3.601  0.6154 -0.3196 -0.9764
   20SAPS  H17S 2601   3.270   1.313   3.571 -1.4071 -0.4851  0.1069
   20SAPS  C218 2602   3.342   1.268   3.781  0.0181  0.1069  0.1340
   20SAPS  H18R 2603   3.290   1.361   3.814 -0.0004  0.8074 -1.7590
   20SAPS  H18S 2604   3.443   1.265   3.826 -0.6013 -0.0273  1.5626
   20SAPS  C219 2605   3.255   1.155   3.844 -0.3190  0.3852 -0.0081
   20SAPS  H19R 2606   3.314   1.062   3.829  1.1770  1.5601 -1.8507
   20SAPS  H19S 2607   3.158   1.136   3.793 -0.1538 -2.1404  0.4788
   20SAPS  C220 2608   3.225   1.156   3.998  0.0023  0.3302 -0.2505
   20SAPS  H20R 2609   3.320   1.161   4.055 -0.8510  3.7494  1.1357
   20SAPS  H20S 2610   3.162   1.069   4.025  0.9937 -1.3997 -3.0933
   20SAPS  H20T 2611   3.172   1.250   4.026 -3.1709 -1.5912  0.6505
   20SAPS   C33 2612   3.704   0.716   2.946  0.4118 -0.4235 -0.1765
   20SAPS   H3X 2613   3.801   0.725   3.000  0.2390 -3.1138  0.7658
   20SAPS   H3Y 2614   3.681   0.608   2.933 -2.3990 -0.1478  1.5724
   20SAPS   C34 2615   3.601   0.774   3.042  0.4636  0.6559 -0.0159
   20SAPS   H4X 2616   3.497   0.755   3.009 -0.7637  1.1431  3.2302
   20SAPS   H4Y 2617   3.603   0.885   3.045 -2.6400  0.7757  0.0908
   20SAPS   C35 2618   3.630   0.718   3.183  0.3731 -0.0851 -0.1255
   20SAPS   H5X 2619   3.724   0.762   3.223 -0.1376  1.7303 -0.8325
   20SAPS   H5Y 2620   3.627   0.608   3.169  1.4727 -0.0299 -0.9903
   20SAPS   C36 2621   3.516   0.742   3.284 -0.6710 -1.0574 -1.1557
   20SAPS   H6X 2622   3.431   0.685   3.240 -0.2790 -1.9957 -0.7396
   20SAPS   H6Y 2623   3.492   0.850   3.279  0.2803 -0.8173 -0.7683
   20SAPS   C37 2624   3.550   0.708   3.428 -0.4569 -0.0096  0.5198
   20SAPS   H7X 2625   3.642   0.760   3.462  0.1268  1.2204 -2.6364
   20SAPS   H7Y 2626   3.565   0.598   3.436  2.9993  0.4176  1.4290
   20SAPS   C38 2627   3.439   0.737   3.531 -0.7448 -0.5430  0.1392
   20SAPS   H8X 2628   3.338   0.721   3.486 -1.0541  2.9988 -0.7370
   20SAPS   H8Y 2629   3.441   0.846   3.552  1.3960 -0.1422 -1.7423
   20SAPS   C39 2630   3.463   0.674   3.661 -0.1637  0.1990  0.1634
   20SAPS   H9X 2631   3.572   0.680   3.684 -0.4547  0.5332  1.5055
   20SAPS   H9Y 2632   3.438   0.566   3.667 -0.7351  0.3125 -0.1896
   20SAPS  C310 2633   3.386   0.742   3.774  0.0035 -0.7221 -0.2751
   20SAPS  H10X 2634   3.277   0.731   3.754 -0.3835  2.2919 -0.3268
   20SAPS  H10Y 2635   3.411   0.850   3.789 -0.8507 -0.2836 -1.7941
   20SAPS  C311 2636   3.419   0.682   3.919 -0.3512 -0.4955 -0.7204
   20SAPS  H11X 2637   3.530   0.684   3.927 -0.3888  1.0784 -0.3300
   20SAPS  H11Y 2638   3.385   0.578   3.936 -1.0633 -0.1978 -0.3253
   20SAPS  C312 2639   3.336   0.760   4.025  0.2349  0.4493  0.4736
   20SAPS  H12X 2640   3.232   0.725   4.007 -0.0744  1.3050  0.5649
   20SAPS  H12Y 2641   3.331   0.870   4.015 -5.4392  0.5648  1.0622
   20SAPS  C313 2642   3.368   0.709   4.169  0.3026  0.2973  0.5401
   20SAPS  H13X 2643   3.475   0.738   4.181  0.8382 -0.1613 -2.3666
   20SAPS  H13Y 2644   3.354   0.599   4.165 -0.9550  0.4397  0.5606
   20SAPS  C314 2645   3.274   0.771   4.276 -0.8557  0.0992 -0.5000
   20SAPS  H14X 2646   3.255   0.689   4.348 -0.1963 -0.7020 -1.2223
   20SAPS  H14Y 2647   3.176   0.812   4.243 -2.3011 -0.1983  2.9356
   20SAPS  C315 2648   3.358   0.878   4.347  0.0503  0.4591  0.5627
   20SAPS  H15X 2649   3.375   0.964   4.279 -1.5695  0.7759  0.5338
   20SAPS  H15Y 2650   3.460   0.837   4.366 -0.4882 -1.5243 -0.5934
   20SAPS  C316 2651   3.292   0.928   4.470  0.8250 -0.5188 -0.1469
   20SAPS  H16X 2652   3.279   0.836   4.531 -2.5521 -2.0964 -2.9183
   20SAPS  H16Y 2653   3.192   0.972   4.449  0.8836 -0.1164  0.3985
   20SAPS  C317 2654   3.365   1.039   4.557 -0.2539  0.8784  0.8411
   20SAPS  H17X 2655   3.465   1.006   4.592 -0.0678  2.7730  2.2378
   20SAPS  H17Y 2656   3.310   1.027   4.653  1.4779 -1.5337  1.6301
   20SAPS  C318 2657   3.365   1.176   4.498  0.3433 -0.4708  0.3018
   20SAPS  H18X 2658   3.418   1.241   4.571  1.9306 -0.7525 -0.5516
   20SAPS  H18Y 2659   3.257   1.204   4.492 -0.3159 -2.5457  1.3680
   20SAPS  H18Z 2660   3.414   1.179   4.399 -1.0330  2.0587 -0.3851
   21CHL1    C3 2661   1.714   2.025   5.827 -0.4217  0.1010 -0.0054
   21CHL1    H3 2662   1.604   2.036   5.824 -0.5078 -0.8595 -1.4032
   21CHL1    O3 2663   1.759   2.001   5.956 -0.4262  0.0337  0.5954
   21CHL1   H3' 2664   1.855   2.006   5.954 -0.2175 -2.5630 -0.0871
   21CHL1    C4 2665   1.739   1.892   5.756  0.3873 -0.0850 -0.4694
   21CHL1   H4A 2666   1.849   1.879   5.759  0.5496  0.9313 -1.2466
   21CHL1   H4B 2667   1.691   1.809   5.811 -0.1108 -0.4022 -1.3595
   21CHL1    C5 2668   1.702   1.897   5.607  0.7356 -0.7175 -0.6610
   21CHL1    C6 2669   1.606   1.817   5.556  0.2297  0.8689  0.4070
   21CHL1    H6 2670   1.567   1.734   5.616  0.9341  0.1439 -0.1175
   21CHL1    C7 2671   1.550   1.824   5.421 -0.1927 -0.1528 -0.0401
   21CHL1   H7A 2672   1.525   1.724   5.378 -3.3862  1.4402 -2.2834
   21CHL1   H7B 2673   1.449   1.870   5.423 -0.0818  0.1428 -0.9841
   21CHL1    C8 2674   1.636   1.910   5.325  0.1901  0.0308  0.0797
   21CHL1    H8 2675   1.732   1.858   5.304  0.8272 -0.1114  2.9985
   21CHL1   C14 2676   1.558   1.944   5.196 -0.9320 -0.4081 -1.2932
   21CHL1   H14 2677   1.475   2.011   5.226  1.4787  1.0996  2.8996
   21CHL1   C15 2678   1.497   1.823   5.120  0.0907  0.6936  0.5989
   21CHL1  H15A 2679   1.568   1.739   5.112 -1.3688 -0.6157  0.8060
   21CHL1  H15B 2680   1.399   1.792   5.163 -0.4802  2.1925  0.4515
   21CHL1   C16 2681   1.483   1.870   4.979  0.9401  0.2868  0.1611
   21CHL1  H16A 2682   1.528   1.792   4.914  0.2204 -0.9284  1.0691
   21CHL1  H16B 2683   1.375   1.883   4.955  1.0581 -2.7255 -2.8569
   21CHL1   C17 2684   1.545   2.015   4.973  0.4341  0.7594  0.5655
   21CHL1   H17 2685   1.461   2.083   4.998 -0.5120  0.4447 -1.5103
   21CHL1   C13 2686   1.640   2.020   5.096 -0.3004 -0.2942  0.2844
   21CHL1   C18 2687   1.776   1.960   5.052 -0.3984  0.1965  0.2693
   21CHL1  H18A 2688   1.854   1.980   5.128 -2.0494  1.8837  1.5929
   21CHL1  H18B 2689   1.759   1.852   5.031  0.7572 -0.4528  2.3694
   21CHL1  H18C 2690   1.823   2.005   4.962 -1.7019 -0.7483 -0.9311
   21CHL1   C12 2691   1.657   2.165   5.156  0.1767  0.0988  0.2726
   21CHL1  H12A 2692   1.732   2.210   5.088  0.7307  0.4407  1.1006
   21CHL1  H12B 2693   1.560   2.221   5.157  1.3222  2.2000  0.1391
   21CHL1   C11 2694   1.724   2.157   5.293  0.4335  0.0290 -0.0766
   21CHL1  H11A 2695   1.832   2.135   5.277  0.3253 -1.5407  1.1317
   21CHL1  H11B 2696   1.716   2.258   5.340  1.1423 -0.9851  2.3804
   21CHL1    C9 2697   1.671   2.047   5.394  0.7510  0.4504 -0.3725
   21CHL1    H9 2698   1.579   2.092   5.436  1.1922 -0.1673  1.3553
   21CHL1   C10 2699   1.755   2.023   5.523  0.3075 -0.5906 -0.2601
   21CHL1   C19 2700   1.903   1.982   5.485 -0.5671 -0.3819 -0.5171
   21CHL1  H19A 2701   1.952   2.061   5.424 -1.5771 -0.3512 -1.3125
   21CHL1  H19B 2702   1.959   1.965   5.579  2.7555 -0.6042 -2.3695
   21CHL1  H19C 2703   1.901   1.888   5.426  0.2353 -0.9339  0.3126
   21CHL1    C1 2704   1.748   2.161   5.606 -0.4920  1.0392  0.5178
   21CHL1   H1A 2705   1.802   2.246   5.558  3.2281 -2.5681 -2.4555
   21CHL1   H1B 2706   1.641   2.189   5.610 -0.9257 -0.6424  2.4958
   21CHL1    C2 2707   1.783   2.150   5.757  0.3182 -0.0835 -0.5637
   21CHL1   H2A 2708   1.754   2.246   5.805  0.1331  0.3160 -1.4531
   21CHL1   H2B 2709   1.892   2.132   5.764  0.6548  1.6212 -1.0343
   21CHL1   C20 2710   1.592   2.059   4.842 -0.7391 -0.2936 -0.1619
   21CHL1   H20 2711   1.674   1.997   4.801 -1.0558 -0.1899 -0.9646
   21CHL1   C21 2712   1.640   2.211   4.850  0.2188  0.4830 -0.3480
   21CHL1  H21A 2713   1.740   2.224   4.896 -0.2616 -0.9704  1.2069
   21CHL1  H21B 2714   1.565   2.269   4.908 -0.5388 -2.4417  1.8064
   21CHL1  H21C 2715   1.638   2.268   4.755  0.5779  0.4917 -0.3535
   21CHL1   C22 2716   1.469   2.042   4.742  0.2291 -0.6832  0.3610
   21CHL1  H22A 2717   1.427   1.941   4.724 -1.0060  0.0208 -0.9073
   21CHL1  H22B 2718   1.394   2.118   4.772  2.7331  1.3029  1.9976
   21CHL1   C23 2719   1.508   2.090   4.599  0.3450 -0.5444  0.9324
   21CHL1  H23A 2720   1.519   2.200   4.595 -0.4252 -0.5033 -1.6240
   21CHL1  H23B 2721   1.607   2.045   4.578  0.4890 -0.2812  1.0508
   21CHL1   C24 2722   1.401   2.039   4.499  0.3251 -0.0264  0.0546
   21CHL1  H24A 2723   1.385   1.930   4.515 -1.4773  0.5142  2.7080
   21CHL1  H24B 2724   1.306   2.094   4.520 -0.7924 -0.4895 -3.1748
   21CHL1   C25 2725   1.422   2.047   4.345 -0.3161  0.4239 -0.7167
   21CHL1   H25 2726   1.322   2.024   4.302  0.3942  0.2407 -2.3197
   21CHL1   C26 2727   1.463   2.191   4.316 -0.4072  0.4600 -0.5918
   21CHL1  H26A 2728   1.393   2.252   4.377  0.4666 -0.5980  1.5693
   21CHL1  H26B 2729   1.572   2.202   4.334 -0.3897  1.1439 -1.0496
   21CHL1  H26C 2730   1.442   2.211   4.208  1.4245 -2.0571 -1.4948
   21CHL1   C27 2731   1.510   1.942   4.287  0.0150  0.4047 -0.4686
   21CHL1  H27A 2732   1.617   1.957   4.312 -0.0711  2.8368 -1.2798
   21CHL1  H27B 2733   1.473   1.841   4.313  2.4589 -0.2138  0.8704
   21CHL1  H27C 2734   1.514   1.948   4.176 -0.3636  0.7296 -0.4669
   22CHL1    C3 2735   5.418   3.807   5.992 -0.0043  0.2119  0.1242
   22CHL1    H3 2736   5.357   3.895   5.962 -1.2763 -0.8279 -0.4546
   22CHL1    O3 2737   5.444   3.798   6.135 -0.6855 -0.0506  0.5040
   22CHL1   H3' 2738   5.515   3.734   6.144 -1.8610 -1.3757  0.8202
   22CHL1    C4 2739   5.345   3.684   5.940  0.2882  0.6088  0.5929
   22CHL1   H4A 2740   5.401   3.602   5.991  0.4655  0.2472 -0.1753
   22CHL1   H4B 2741   5.242   3.683   5.982 -0.1679  1.6739 -0.4471
   22CHL1    C5 2742   5.331   3.671   5.785  0.3797  0.6304  0.0959
   22CHL1    C6 2743   5.213   3.661   5.733 -0.1833  1.3178  0.1286
   22CHL1    H6 2744   5.122   3.652   5.795 -0.5112  0.0910 -0.4915
   22CHL1    C7 2745   5.193   3.650   5.579 -0.3771  0.1747 -0.0082
   22CHL1   H7A 2746   5.119   3.570   5.557 -0.4046  0.5315 -1.2791
   22CHL1   H7B 2747   5.156   3.748   5.542  1.2592  0.4824 -0.9042
   22CHL1    C8 2748   5.326   3.608   5.507  0.7483  0.1617 -0.4570
   22CHL1    H8 2749   5.351   3.501   5.524 -0.2060 -0.6419 -3.4308
   22CHL1   C14 2750   5.308   3.632   5.362 -0.1682 -0.3208  0.0357
   22CHL1   H14 2751   5.285   3.739   5.345 -1.5881 -0.5421  0.4610
   22CHL1   C15 2752   5.190   3.564   5.289 -0.5400 -0.3155  0.3391
   22CHL1  H15A 2753   5.199   3.459   5.324  2.6329  0.4249  2.1735
   22CHL1  H15B 2754   5.087   3.596   5.317 -1.8726 -2.9546 -1.1969
   22CHL1   C16 2755   5.233   3.558   5.140  0.7089  0.0935 -0.2339
   22CHL1  H16A 2756   5.226   3.454   5.100  2.5280  0.6098 -2.0888
   22CHL1  H16B 2757   5.163   3.628   5.088 -1.1842 -1.1839  0.4954
   22CHL1   C17 2758   5.378   3.608   5.134 -0.1753  0.6635 -0.2027
   22CHL1   H17 2759   5.377   3.718   5.115 -0.1518  0.5397 -0.9179
   22CHL1   C13 2760   5.428   3.595   5.277 -0.3053 -0.1927 -0.6697
   22CHL1   C18 2761   5.478   3.446   5.294 -0.1609 -0.5178  0.3095
   22CHL1  H18A 2762   5.411   3.375   5.242 -0.7922  0.3151 -0.0520
   22CHL1  H18B 2763   5.579   3.449   5.248 -1.2540  3.5832 -2.3837
   22CHL1  H18C 2764   5.493   3.419   5.401  0.8208  0.5103  0.4491
   22CHL1   C12 2765   5.529   3.702   5.317 -0.2454  0.5857  0.4410
   22CHL1  H12A 2766   5.626   3.679   5.269 -1.0544 -1.9502 -0.1327
   22CHL1  H12B 2767   5.500   3.803   5.281  1.4811  0.8898 -0.1631
   22CHL1   C11 2768   5.567   3.706   5.468 -0.1324  0.6198  0.1625
   22CHL1  H11A 2769   5.619   3.610   5.488 -1.2805  0.0421  0.4685
   22CHL1  H11B 2770   5.627   3.796   5.493 -0.6404  1.0105 -0.0150
   22CHL1    C9 2771   5.438   3.705   5.554 -0.1795 -0.2181 -0.4405
   22CHL1    H9 2772   5.395   3.805   5.532  4.0758  1.6970 -0.9180
   22CHL1   C10 2773   5.454   3.691   5.707 -0.5501  0.3098 -0.4476
   22CHL1   C19 2774   5.535   3.561   5.731  0.3336 -0.8551  0.0866
   22CHL1  H19A 2775   5.487   3.468   5.695  2.1288 -1.1130 -1.7593
   22CHL1  H19B 2776   5.630   3.575   5.677  1.1393  1.6745  1.9164
   22CHL1  H19C 2777   5.576   3.563   5.835  2.8793 -1.4071 -0.8513
   22CHL1    C1 2778   5.536   3.812   5.759  0.2022  0.5881  0.2651
   22CHL1   H1A 2779   5.640   3.813   5.722  0.6536  1.3484  1.4753
   22CHL1   H1B 2780   5.485   3.902   5.719 -0.6866 -0.0512 -0.0937
   22CHL1    C2 2781   5.552   3.822   5.910 -0.1354  0.5794 -0.5567
   22CHL1   H2A 2782   5.604   3.914   5.945  1.5367 -0.8600  0.9280
   22CHL1   H2B 2783   5.620   3.740   5.941 -0.1662  0.2549 -1.3313
   22CHL1   C20 2784   5.461   3.555   5.019  0.0589  0.1918  0.3867
   22CHL1   H20 2785   5.479   3.446   5.026  0.4828  0.1803 -0.6924
   22CHL1   C21 2786   5.606   3.616   5.019  0.0983 -0.1683  0.6805
   22CHL1  H21A 2787   5.660   3.589   5.113  1.7669  0.5009 -0.0408
   22CHL1  H21B 2788   5.603   3.727   5.020 -0.7906 -0.1715 -0.4838
   22CHL1  H21C 2789   5.665   3.571   4.936  0.8924 -1.1045  1.7221
   22CHL1   C22 2790   5.391   3.573   4.880  0.0314  0.0578  0.4736
   22CHL1  H22A 2791   5.284   3.544   4.887 -0.1087 -0.8288 -3.1604
   22CHL1  H22B 2792   5.384   3.679   4.846  0.6983 -0.2083 -0.5411
   22CHL1   C23 2793   5.452   3.481   4.770 -0.1906 -0.5279 -1.2981
   22CHL1  H23A 2794   5.555   3.516   4.750 -0.1814 -0.3209 -0.8852
   22CHL1  H23B 2795   5.462   3.378   4.809 -1.1149 -1.0545 -2.3705
   22CHL1   C24 2796   5.374   3.461   4.641  0.5653 -0.0031 -0.1081
   22CHL1  H24A 2797   5.286   3.396   4.661  1.5995 -1.4271 -0.0613
   22CHL1  H24B 2798   5.343   3.562   4.607  2.0653  1.4506  2.5119
   22CHL1   C25 2799   5.449   3.386   4.529  0.2190  0.8100 -0.1116
   22CHL1   H25 2800   5.498   3.300   4.577 -0.4673  0.6354  0.3004
   22CHL1   C26 2801   5.359   3.336   4.414  0.0923  0.4975  0.4083
   22CHL1  H26A 2802   5.314   3.420   4.356  1.1415  0.9003  0.1385
   22CHL1  H26B 2803   5.413   3.271   4.342  1.1810  1.4818  0.2967
   22CHL1  H26C 2804   5.276   3.270   4.444 -0.2036 -0.0936 -1.5738
   22CHL1   C27 2805   5.558   3.466   4.461 -0.1909 -0.0015  0.2588
   22CHL1  H27A 2806   5.631   3.509   4.534 -0.9716  1.7903  0.0340
   22CHL1  H27B 2807   5.615   3.392   4.401 -1.4159  0.8555 -2.0778
   22CHL1  H27C 2808   5.519   3.551   4.402  1.0914 -0.7634 -1.7747
   23CHL1    C3 2809   0.602   3.716   5.992  0.2554  0.1636  0.1385
   23CHL1    H3 2810   0.703   3.672   6.008  0.8517  1.3908 -0.0981
   23CHL1    O3 2811   0.539   3.741   6.118  0.1710  0.0756  0.3391
   23CHL1   H3' 2812   0.465   3.681   6.111  0.2171  0.0144  0.3783
   23CHL1    C4 2813   0.629   3.851   5.918 -0.0402 -0.2403  0.7897
   23CHL1   H4A 2814   0.535   3.909   5.912  0.3443  0.4876  1.5698
   23CHL1   H4B 2815   0.702   3.913   5.974  0.0450  0.7156 -0.3211
   23CHL1    C5 2816   0.676   3.835   5.775 -0.5081 -0.2368 -0.6309
   23CHL1    C6 2817   0.790   3.894   5.733  0.3928 -0.0529  0.1530
   23CHL1    H6 2818   0.830   3.977   5.793 -1.0183  1.0157 -0.3337
   23CHL1    C7 2819   0.844   3.884   5.587  0.4216 -0.2787 -0.6178
   23CHL1   H7A 2820   0.889   3.985   5.574  1.3512 -0.3830  1.3955
   23CHL1   H7B 2821   0.925   3.808   5.589 -0.7752 -1.6838  3.1970
   23CHL1    C8 2822   0.728   3.839   5.497  0.3277 -0.8163 -0.5833
   23CHL1    H8 2823   0.656   3.923   5.494  0.2684 -0.5124  3.8831
   23CHL1   C14 2824   0.769   3.828   5.348 -0.1171  0.1865  0.4033
   23CHL1   H14 2825   0.851   3.753   5.353 -0.7709 -0.5178  0.9118
   23CHL1   C15 2826   0.835   3.951   5.288  0.3439 -0.4482  0.1462
   23CHL1  H15A 2827   0.772   4.042   5.289  1.3943  0.2959  0.2348
   23CHL1  H15B 2828   0.933   3.979   5.333 -0.0073  1.1417 -0.0454
   23CHL1   C16 2829   0.834   3.917   5.143 -0.1755 -0.3254  0.2946
   23CHL1  H16A 2830   0.792   3.995   5.076 -0.7805  0.1482  1.2174
   23CHL1  H16B 2831   0.936   3.891   5.106 -1.0226 -1.2570 -1.5369
   23CHL1   C17 2832   0.741   3.793   5.119 -0.7796 -0.4267  0.1008
   23CHL1   H17 2833   0.809   3.705   5.116 -0.0752  0.0919  0.5166
   23CHL1   C13 2834   0.664   3.777   5.250  0.0904  0.0304 -0.2581
   23CHL1   C18 2835   0.536   3.875   5.241  0.2467  0.0243 -0.6639
   23CHL1  H18A 2836   0.500   3.896   5.344 -0.4897 -3.7094 -0.0184
   23CHL1  H18B 2837   0.568   3.967   5.187  0.0517  0.2916 -0.3269
   23CHL1  H18C 2838   0.450   3.835   5.183 -0.8078 -1.6255  1.8745
   23CHL1   C12 2839   0.618   3.638   5.296 -0.3020  0.3709  0.1314
   23CHL1  H12A 2840   0.539   3.601   5.227 -1.2943  0.5780  1.1354
   23CHL1  H12B 2841   0.699   3.565   5.277 -0.5862 -0.2651  1.2983
   23CHL1   C11 2842   0.554   3.658   5.436  0.1070 -0.6112 -0.2155
   23CHL1  H11A 2843   0.468   3.727   5.433  1.1868  0.8343 -4.3271
   23CHL1  H11B 2844   0.524   3.552   5.452  0.1242 -0.5710  0.0889
   23CHL1    C9 2845   0.653   3.721   5.549 -0.6942 -0.3298  0.2759
   23CHL1    H9 2846   0.736   3.650   5.570 -0.5909 -0.6976 -1.2422
   23CHL1   C10 2847   0.588   3.747   5.688 -0.2335  0.1823 -0.8610
   23CHL1   C19 2848   0.455   3.825   5.672 -0.2166 -0.2648 -0.1307
   23CHL1  H19A 2849   0.410   3.857   5.769 -3.2466 -1.2087 -1.1364
   23CHL1  H19B 2850   0.450   3.915   5.608  1.3413  0.9065  1.2835
   23CHL1  H19C 2851   0.379   3.754   5.633 -0.5802  1.2727 -2.4494
   23CHL1    C1 2852   0.566   3.611   5.767 -0.5397  0.0652  0.5769
   23CHL1   H1A 2853   0.501   3.559   5.693  3.0990 -0.4814 -2.5540
   23CHL1   H1B 2854   0.661   3.554   5.770 -2.0233 -2.5426  0.7451
   23CHL1    C2 2855   0.507   3.617   5.909 -0.0706 -0.3549  0.5964
   23CHL1   H2A 2856   0.507   3.517   5.958  1.2727 -0.6750 -0.0329
   23CHL1   H2B 2857   0.402   3.653   5.901 -0.3141 -1.4150 -2.0528
   23CHL1   C20 2858   0.676   3.797   4.984 -0.2576 -0.1370  0.0933
   23CHL1   H20 2859   0.606   3.884   4.985 -1.7273 -1.2898  0.7108
   23CHL1   C21 2860   0.581   3.670   4.977  0.1894 -0.6486  0.4016
   23CHL1  H21A 2861   0.491   3.691   5.038 -0.8154 -1.6824 -0.6754
   23CHL1  H21B 2862   0.635   3.582   5.020 -1.3164 -2.3592 -1.0309
   23CHL1  H21C 2863   0.568   3.647   4.869  0.9543  0.5189  0.0351
   23CHL1   C22 2864   0.782   3.796   4.872  0.2631 -0.2367 -0.7963
   23CHL1  H22A 2865   0.847   3.884   4.892 -1.8982  1.1321  0.6951
   23CHL1  H22B 2866   0.840   3.701   4.875 -0.0175 -0.5984 -3.7211
   23CHL1   C23 2867   0.715   3.823   4.727  0.2102  0.3188 -0.0084
   23CHL1  H23A 2868   0.607   3.801   4.736  0.0760  1.2998  1.0116
   23CHL1  H23B 2869   0.727   3.930   4.700  0.0061  0.3590  0.0594
   23CHL1   C24 2870   0.778   3.740   4.618  0.6167 -0.1611  0.1459
   23CHL1  H24A 2871   0.887   3.743   4.643  0.4029  1.0623  1.0129
   23CHL1  H24B 2872   0.748   3.634   4.633  0.4336  0.1486  2.3183
   23CHL1   C25 2873   0.755   3.787   4.479  0.2385  0.3308 -0.1918
   23CHL1   H25 2874   0.819   3.878   4.474  1.5168 -0.6043 -1.2698
   23CHL1   C26 2875   0.791   3.681   4.368 -0.0901  0.1439  0.3330
   23CHL1  H26A 2876   0.888   3.635   4.396 -0.6996  0.3297  3.0613
   23CHL1  H26B 2877   0.725   3.592   4.367  0.5213 -0.3547  1.7991
   23CHL1  H26C 2878   0.779   3.733   4.270  3.6688 -1.2305 -1.0214
   23CHL1   C27 2879   0.613   3.831   4.453 -1.2062 -0.7895 -0.1850
   23CHL1  H27A 2880   0.600   3.924   4.511  2.9907 -0.6550  0.8995
   23CHL1  H27B 2881   0.606   3.863   4.347  0.5797  1.3424  0.2746
   23CHL1  H27C 2882   0.529   3.760   4.471 -2.2772 -0.6197 -3.7250
   24CHL1    C3 2883   4.246   3.627   6.159 -0.2146  0.3344  0.0514
   24CHL1    H3 2884   4.281   3.727   6.192 -0.7977  0.4401  0.3587
   24CHL1    O3 2885   4.224   3.543   6.273 -0.5356 -0.3616 -0.2985
   24CHL1   H3' 2886   4.211   3.460   6.228 -1.7460 -0.0570 -0.5334
   24CHL1    C4 2887   4.114   3.646   6.081  0.3591 -0.3480  0.3725
   24CHL1   H4A 2888   4.074   3.544   6.069 -0.3905 -0.0262  0.1225
   24CHL1   H4B 2889   4.049   3.706   6.148 -2.3360 -1.3525 -1.1820
   24CHL1    C5 2890   4.135   3.715   5.952  0.4445 -0.2619  0.1089
   24CHL1    C6 2891   4.064   3.826   5.919 -0.1428  0.3047 -0.2039
   24CHL1    H6 2892   4.004   3.873   5.998  0.7136  0.2332  0.5136
   24CHL1    C7 2893   4.073   3.896   5.783  0.3675 -0.0597 -0.5621
   24CHL1   H7A 2894   3.974   3.931   5.748  0.4124  0.5101 -0.1354
   24CHL1   H7B 2895   4.148   3.975   5.805 -0.8052  0.5847  1.3687
   24CHL1    C8 2896   4.135   3.793   5.679 -0.7420 -0.2411 -0.6304
   24CHL1    H8 2897   4.056   3.716   5.667 -0.1144 -0.6758 -2.2712
   24CHL1   C14 2898   4.154   3.865   5.542 -0.3181 -0.8083  0.1377
   24CHL1   H14 2899   4.222   3.951   5.565  3.1461 -1.8975 -4.6450
   24CHL1   C15 2900   4.024   3.928   5.480 -0.6038 -0.4713  0.2452
   24CHL1  H15A 2901   3.950   3.849   5.504  0.8538 -1.8172  0.4987
   24CHL1  H15B 2902   4.011   4.021   5.540  0.6895  0.4837 -0.8833
   24CHL1   C16 2903   4.066   3.948   5.334  0.7680  0.3302  0.1485
   24CHL1  H16A 2904   3.982   3.914   5.270 -1.0771  1.2175  1.9875
   24CHL1  H16B 2905   4.090   4.056   5.321  1.8266 -0.0567 -1.4055
   24CHL1   C17 2906   4.205   3.887   5.314 -0.0831  0.6706 -0.1033
   24CHL1   H17 2907   4.275   3.967   5.347 -1.9726  2.2579  0.2370
   24CHL1   C13 2908   4.219   3.784   5.431 -0.8938  0.7130 -0.0180
   24CHL1   C18 2909   4.138   3.660   5.399  0.0863 -0.2407  0.0800
   24CHL1  H18A 2910   4.031   3.678   5.377  0.3994  0.8148 -0.6216
   24CHL1  H18B 2911   4.185   3.608   5.313  2.8162  0.9295  0.7488
   24CHL1  H18C 2912   4.132   3.592   5.487 -1.9175  2.0271  1.8105
   24CHL1   C12 2913   4.354   3.744   5.494 -0.1423 -0.1966 -0.3095
   24CHL1  H12A 2914   4.405   3.679   5.420 -0.6011  1.2480 -1.9587
   24CHL1  H12B 2915   4.417   3.833   5.516 -1.3127  0.7031 -0.5000
   24CHL1   C11 2916   4.347   3.667   5.626 -0.1345  0.1390  0.7751
   24CHL1  H11A 2917   4.303   3.568   5.602 -1.2685  0.8739 -0.3035
   24CHL1  H11B 2918   4.451   3.649   5.659 -0.4108 -1.7721  0.7452
   24CHL1    C9 2919   4.268   3.742   5.737 -0.1603  0.5029 -0.1200
   24CHL1    H9 2920   4.327   3.830   5.768 -1.0223  0.5120  1.5893
   24CHL1   C10 2921   4.244   3.659   5.862 -0.0179  0.1419  0.7910
   24CHL1   C19 2922   4.192   3.522   5.822 -0.4974  0.0429  0.0151
   24CHL1  H19A 2923   4.158   3.454   5.904  2.0844  0.0820  1.2176
   24CHL1  H19B 2924   4.111   3.522   5.746 -1.6417 -3.5859  1.0043
   24CHL1  H19C 2925   4.275   3.462   5.780 -2.4758 -1.9474 -1.3208
   24CHL1    C1 2926   4.376   3.629   5.934 -0.1168  0.2694  0.1123
   24CHL1   H1A 2927   4.451   3.576   5.871  0.4277  0.1778  0.8143
   24CHL1   H1B 2928   4.427   3.725   5.954  0.3346  0.1976 -0.6774
   24CHL1    C2 2929   4.358   3.556   6.068  0.3202  0.3142  0.0240
   24CHL1   H2A 2930   4.447   3.566   6.133 -0.8318  0.6902  1.5882
   24CHL1   H2B 2931   4.332   3.448   6.061 -0.6777  0.6223 -1.7512
   24CHL1   C20 2932   4.241   3.851   5.172 -0.6474  0.5696 -0.9341
   24CHL1   H20 2933   4.170   3.773   5.138  0.1083 -0.4980 -0.1576
   24CHL1   C21 2934   4.379   3.790   5.159  0.0060 -0.2210 -0.5218
   24CHL1  H21A 2935   4.380   3.689   5.205 -0.5386 -0.0878 -0.2079
   24CHL1  H21B 2936   4.453   3.842   5.224 -1.5301  2.6547 -0.9144
   24CHL1  H21C 2937   4.403   3.784   5.051 -1.4532  0.2425 -0.8923
   24CHL1   C22 2938   4.230   3.979   5.078 -0.5908 -0.4520  0.1277
   24CHL1  H22A 2939   4.127   4.016   5.102 -0.2024  0.3163  0.6655
   24CHL1  H22B 2940   4.299   4.061   5.106 -0.7543 -0.7061  1.3494
   24CHL1   C23 2941   4.245   3.946   4.933 -0.2108 -0.1855  0.9275
   24CHL1  H23A 2942   4.349   3.927   4.899 -1.3972 -0.0476 -3.4116
   24CHL1  H23B 2943   4.183   3.858   4.908 -3.7030  2.0929  0.9016
   24CHL1   C24 2944   4.188   4.062   4.853  0.5905 -0.0436 -0.0954
   24CHL1  H24A 2945   4.104   4.113   4.904 -0.4891 -1.6622 -0.1936
   24CHL1  H24B 2946   4.266   4.139   4.832  1.4831 -1.0106 -0.4160
   24CHL1   C25 2947   4.123   4.017   4.715 -0.2278 -0.0166 -0.4810
   24CHL1   H25 2948   4.184   3.942   4.659  0.0730  1.5493 -2.3750
   24CHL1   C26 2949   3.979   3.962   4.744 -0.3802  0.0959 -0.1780
   24CHL1  H26A 2950   3.901   4.037   4.770 -2.0156 -1.2133 -1.1232
   24CHL1  H26B 2951   3.935   3.898   4.665 -2.2112  0.9219  0.1197
   24CHL1  H26C 2952   3.996   3.888   4.825 -0.0539 -0.7220 -0.9768
   24CHL1   C27 2953   4.109   4.136   4.624  0.2061 -0.6947 -0.6604
   24CHL1  H27A 2954   4.205   4.190   4.613 -1.6318  2.9089 -0.4347
   24CHL1  H27B 2955   4.086   4.090   4.525  0.6215  1.1404 -1.6431
   24CHL1  H27C 2956   4.036   4.209   4.665  1.3490 -0.2564  0.7038
   25CHL1    C3 2957   6.587   0.545   6.190  0.1263  0.1691 -0.4190
   25CHL1    H3 2958   6.618   0.441   6.168 -3.2083 -1.6475  2.4635
   25CHL1    O3 2959   6.564   0.564   6.331 -0.0098 -0.0155 -0.1008
   25CHL1   H3' 2960   6.646   0.552   6.380  0.6632 -0.5317 -1.2985
   25CHL1    C4 2961   6.692   0.644   6.153  0.3138  0.0790  0.1551
   25CHL1   H4A 2962   6.667   0.746   6.189  0.9530 -0.0957  1.1773
   25CHL1   H4B 2963   6.787   0.624   6.208  0.8768 -0.1914 -0.8940
   25CHL1    C5 2964   6.716   0.661   6.004  0.6117  0.6921 -1.0397
   25CHL1    C6 2965   6.839   0.644   5.948  0.1912  0.0237 -0.5459
   25CHL1    H6 2966   6.921   0.616   6.015 -1.8516  0.1463  2.1784
   25CHL1    C7 2967   6.862   0.634   5.800 -0.9639 -0.3140 -0.1611
   25CHL1   H7A 2968   6.957   0.686   5.777  0.7819 -1.3128  3.9393
   25CHL1   H7B 2969   6.890   0.533   5.761  1.5544  0.7254 -1.2485
   25CHL1    C8 2970   6.752   0.697   5.718 -0.1557 -0.2989  0.3248
   25CHL1    H8 2971   6.761   0.806   5.739 -0.9039 -0.1755  0.0567
   25CHL1   C14 2972   6.771   0.661   5.569  0.3168 -0.5323 -0.0036
   25CHL1   H14 2973   6.755   0.553   5.553  2.5809 -0.8033 -0.7266
   25CHL1   C15 2974   6.912   0.698   5.515 -0.1326 -0.3117  0.3888
   25CHL1  H15A 2975   6.934   0.804   5.543 -0.0406  0.6066 -2.7874
   25CHL1  H15B 2976   7.003   0.645   5.549  0.1423 -0.4039 -0.4709
   25CHL1   C16 2977   6.881   0.678   5.368 -0.1023  0.7307 -0.6081
   25CHL1  H16A 2978   6.921   0.768   5.316  0.8387  0.3146 -0.6213
   25CHL1  H16B 2979   6.916   0.582   5.323  2.1626  2.0183 -1.7669
   25CHL1   C17 2980   6.726   0.673   5.348 -0.0650 -0.4147 -0.7459
   25CHL1   H17 2981   6.699   0.566   5.339  0.4788 -0.6145 -0.0819
   25CHL1   C13 2982   6.663   0.730   5.476 -0.1486 -0.3144  0.3172
   25CHL1   C18 2983   6.677   0.882   5.480 -0.0192  0.3680 -0.1502
   25CHL1  H18A 2984   6.600   0.938   5.422 -0.5053  0.0399  0.1738
   25CHL1  H18B 2985   6.668   0.924   5.582 -0.7448  0.4932 -0.2635
   25CHL1  H18C 2986   6.779   0.914   5.448  0.4088 -1.6236 -0.9313
   25CHL1   C12 2987   6.524   0.680   5.526  0.0480 -0.3631  0.3954
   25CHL1  H12A 2988   6.447   0.718   5.455 -0.2710  0.6113  1.2378
   25CHL1  H12B 2989   6.519   0.571   5.508 -1.0043 -0.1720 -0.5897
   25CHL1   C11 2990   6.499   0.712   5.668  0.2978  0.0660 -0.1854
   25CHL1  H11A 2991   6.485   0.821   5.687 -1.3060 -0.4878  2.2613
   25CHL1  H11B 2992   6.409   0.655   5.699  1.4732 -2.4274 -1.0655
   25CHL1    C9 2993   6.616   0.656   5.767  0.8506  0.6746  0.1804
   25CHL1    H9 2994   6.616   0.545   5.757  1.5501  0.6794  0.1137
   25CHL1   C10 2995   6.594   0.690   5.918 -0.4033 -0.0867  0.7493
   25CHL1   C19 2996   6.555   0.842   5.936 -0.0876  0.2238  0.9795
   25CHL1  H19A 2997   6.635   0.906   5.892  0.6006  0.2337  2.2165
   25CHL1  H19B 2998   6.458   0.858   5.883  0.4112  1.3694  0.3598
   25CHL1  H19C 2999   6.557   0.868   6.044  1.0483  1.3435  0.7106
   25CHL1    C1 3000   6.480   0.594   5.959  0.8996 -0.6103  0.0074
   25CHL1   H1A 3001   6.377   0.630   5.940  0.6922 -0.2233  1.7454
   25CHL1   H1B 3002   6.485   0.489   5.920  0.0155 -1.2180  1.4548
   25CHL1    C2 3003   6.457   0.584   6.116  0.2260  0.2152 -0.7231
   25CHL1   H2A 3004   6.375   0.510   6.126  0.5093  0.0157  0.2108
   25CHL1   H2B 3005   6.423   0.685   6.145 -0.5538  1.0191 -4.0068
   25CHL1   C20 3006   6.680   0.738   5.221 -0.0020 -0.3478  0.3398
   25CHL1   H20 3007   6.710   0.845   5.211  1.8450 -0.7566  1.2033
   25CHL1   C21 3008   6.531   0.732   5.209  0.5435 -0.0361 -0.3398
   25CHL1  H21A 3009   6.512   0.625   5.233  0.2603 -0.2666 -1.5366
   25CHL1  H21B 3010   6.491   0.754   5.108 -0.7997 -1.9768 -0.2919
   25CHL1  H21C 3011   6.485   0.807   5.278 -0.2545 -1.1348  0.3621
   25CHL1   C22 3012   6.734   0.659   5.091  0.2840 -0.0646 -0.0192
   25CHL1  H22A 3013   6.832   0.607   5.097  0.9824  1.1317 -0.7875
   25CHL1  H22B 3014   6.658   0.579   5.073 -0.9442  1.2340 -0.7807
   25CHL1   C23 3015   6.742   0.756   4.969 -0.7194  0.0955 -0.3133
   25CHL1  H23A 3016   6.662   0.833   4.969 -0.0147  0.8517  0.4696
   25CHL1  H23B 3017   6.837   0.804   5.001 -0.6776 -0.3577  0.2493
   25CHL1   C24 3018   6.766   0.685   4.836  0.0171  0.9249 -0.5923
   25CHL1  H24A 3019   6.837   0.745   4.775  0.2674  0.3961 -0.8294
   25CHL1  H24B 3020   6.819   0.589   4.856 -1.0320  0.6324  1.0038
   25CHL1   C25 3021   6.651   0.654   4.744 -0.1275  0.2602 -0.6413
   25CHL1   H25 3022   6.567   0.599   4.791  1.1143 -1.7920 -0.6855
   25CHL1   C26 3023   6.606   0.789   4.694  1.1580 -0.7375  0.7636
   25CHL1  H26A 3024   6.559   0.853   4.772  1.1294 -0.2872  0.3847
   25CHL1  H26B 3025   6.694   0.845   4.657  0.1579  0.2481 -0.2217
   25CHL1  H26C 3026   6.536   0.782   4.608  1.3075  0.3646  0.5295
   25CHL1   C27 3027   6.697   0.564   4.628 -0.4383 -0.0282 -0.4934
   25CHL1  H27A 3028   6.785   0.612   4.579 -0.2360 -1.1327 -1.2619
   25CHL1  H27B 3029   6.729   0.467   4.672 -1.2440  0.3834  1.0672
   25CHL1  H27C 3030   6.616   0.553   4.553 -1.7530  0.3683  0.8251
   26CHL1    C3 3031   3.881   4.366   5.971 -0.0162 -0.9257  0.6022
   26CHL1    H3 3032   3.810   4.444   5.939  1.9330  0.9984  0.7318
   26CHL1    O3 3033   3.869   4.331   6.108  0.1581  0.0700  0.2603
   26CHL1   H3' 3034   3.780   4.300   6.125  0.3546 -1.7935 -1.7716
   26CHL1    C4 3035   3.854   4.246   5.883  0.5476 -0.2128 -0.6010
   26CHL1   H4A 3036   3.928   4.168   5.911  1.8426  1.0620 -0.3392
   26CHL1   H4B 3037   3.754   4.206   5.911 -0.0207  1.8980  0.5530
   26CHL1    C5 3038   3.866   4.270   5.731 -1.0186  0.4258  0.1818
   26CHL1    C6 3039   3.774   4.225   5.643 -0.4564  0.2871  0.2312
   26CHL1    H6 3040   3.700   4.160   5.692  0.1083 -0.8589 -0.4025
   26CHL1    C7 3041   3.775   4.252   5.492  0.3731 -0.4014 -0.2623
   26CHL1   H7A 3042   3.741   4.162   5.436  2.8817  0.1387 -2.8573
   26CHL1   H7B 3043   3.698   4.329   5.475  1.0914  0.7591  1.3931
   26CHL1    C8 3044   3.907   4.311   5.442  0.1631  0.9743  0.5190
   26CHL1    H8 3045   3.980   4.228   5.424 -1.4582 -0.0664 -1.7363
   26CHL1   C14 3046   3.882   4.378   5.306  0.4188  0.7732 -0.9681
   26CHL1   H14 3047   3.811   4.461   5.324  1.0468  1.1042  0.0938
   26CHL1   C15 3048   3.812   4.297   5.201  0.4591  0.5537 -0.1828
   26CHL1  H15A 3049   3.843   4.191   5.194 -2.7722 -0.4279 -2.0620
   26CHL1  H15B 3050   3.703   4.306   5.219 -0.1214 -0.5501 -2.6852
   26CHL1   C16 3051   3.842   4.367   5.070 -0.2463 -0.1479 -0.6283
   26CHL1  H16A 3052   3.895   4.304   4.995 -0.7814 -1.0516 -0.2664
   26CHL1  H16B 3053   3.744   4.403   5.032 -0.3608 -0.6244 -0.7895
   26CHL1   C17 3054   3.933   4.488   5.107  0.3749  0.3088  0.5379
   26CHL1   H17 3055   3.864   4.572   5.130  1.3802  1.3186 -0.0887
   26CHL1   C13 3056   4.003   4.444   5.246 -0.4168  0.9019  0.4373
   26CHL1   C18 3057   4.111   4.337   5.209  0.1355 -0.3818 -0.1723
   26CHL1  H18A 3058   4.206   4.381   5.170  2.4295 -4.3203  0.3864
   26CHL1  H18B 3059   4.140   4.283   5.302  0.8591  0.9615  0.4180
   26CHL1  H18C 3060   4.069   4.265   5.135 -0.0641 -1.3974  0.8880
   26CHL1   C12 3061   4.050   4.549   5.339 -0.0162  0.7166 -0.2020
   26CHL1  H12A 3062   4.143   4.593   5.298  0.2500 -0.9644 -1.5018
   26CHL1  H12B 3063   3.976   4.633   5.335 -1.0302 -0.1639 -3.4539
   26CHL1   C11 3064   4.082   4.500   5.482 -0.4381 -0.4522 -0.0844
   26CHL1  H11A 3065   4.174   4.439   5.471  0.8779  1.5595 -0.8725
   26CHL1  H11B 3066   4.102   4.576   5.560  1.0044 -0.6192 -0.2729
   26CHL1    C9 3067   3.962   4.409   5.541  0.5320  0.4364  0.0293
   26CHL1    H9 3068   3.881   4.483   5.555 -0.7821 -0.8456 -0.4790
   26CHL1   C10 3069   3.986   4.351   5.683 -0.0754 -0.3013  0.1566
   26CHL1   C19 3070   4.106   4.256   5.689 -0.5858  0.1331  0.3909
   26CHL1  H19A 3071   4.197   4.320   5.694  1.7303 -3.0179  1.0407
   26CHL1  H19B 3072   4.119   4.208   5.788  0.1940 -2.5398 -0.9218
   26CHL1  H19C 3073   4.120   4.183   5.607  1.6061  0.5701  0.3158
   26CHL1    C1 3074   4.013   4.466   5.785  0.9358  1.0135  0.2133
   26CHL1   H1A 3075   4.107   4.520   5.760  0.2957  1.6630 -0.8894
   26CHL1   H1B 3076   3.936   4.545   5.777  0.8996  0.9465 -0.1121
   26CHL1    C2 3077   4.019   4.420   5.934  0.3032 -0.5444  0.3317
   26CHL1   H2A 3078   4.028   4.507   6.003  0.4136 -0.5447  0.3187
   26CHL1   H2B 3079   4.101   4.350   5.962 -1.2842 -2.4973  0.3177
   26CHL1   C20 3080   4.013   4.536   4.992  0.3199 -0.1393 -0.6320
   26CHL1   H20 3081   4.096   4.464   4.983  1.2529  0.9795 -1.2573
   26CHL1   C21 3082   4.073   4.671   5.020  0.5224 -0.2217 -0.0705
   26CHL1  H21A 3083   4.129   4.713   4.935 -0.9955  0.8014 -0.6044
   26CHL1  H21B 3084   4.142   4.671   5.108 -0.2075  1.6568  0.5388
   26CHL1  H21C 3085   3.990   4.742   5.038 -0.5010 -0.8298 -2.1055
   26CHL1   C22 3086   3.940   4.532   4.854 -0.0087  0.0464 -0.0871
   26CHL1  H22A 3087   3.885   4.440   4.825 -2.0200  1.0001  0.4820
   26CHL1  H22B 3088   3.872   4.620   4.863 -0.2737 -0.0285 -1.2923
   26CHL1   C23 3089   4.026   4.572   4.733  0.1237  0.4807 -0.0469
   26CHL1  H23A 3090   4.064   4.676   4.742 -0.1458  0.5839 -0.0825
   26CHL1  H23B 3091   4.112   4.503   4.721 -1.3277 -1.6103  0.8943
   26CHL1   C24 3092   3.952   4.567   4.590 -0.0288  0.1750 -0.0662
   26CHL1  H24A 3093   3.916   4.464   4.570  1.1610 -0.8637  2.6061
   26CHL1  H24B 3094   3.861   4.628   4.601 -1.6225 -1.3675 -3.3227
   26CHL1   C25 3095   4.032   4.609   4.465  1.0122  0.3133  0.0944
   26CHL1   H25 3096   4.062   4.714   4.482 -1.0319  1.0291 -0.4379
   26CHL1   C26 3097   4.148   4.510   4.459  0.2279  0.1261  0.3895
   26CHL1  H26A 3098   4.219   4.512   4.544  2.6928  1.5939 -1.5259
   26CHL1  H26B 3099   4.117   4.403   4.452  1.3381 -0.2730  1.3944
   26CHL1  H26C 3100   4.208   4.523   4.366  0.1543 -1.0895  0.1578
   26CHL1   C27 3101   3.937   4.596   4.343 -1.0629 -0.4558 -0.4768
   26CHL1  H27A 3102   3.924   4.489   4.317  0.7272 -0.6086 -0.8986
   26CHL1  H27B 3103   3.844   4.651   4.369 -0.3161  0.8813 -0.5558
   26CHL1  H27C 3104   3.984   4.635   4.250  3.0269 -1.6214  0.8619
   27CHL1    C3 3105   1.573   2.542   5.981  0.0984  0.5246  0.3929
   27CHL1    H3 3106   1.676   2.502   5.991  0.3428  0.9954 -0.1650
   27CHL1    O3 3107   1.499   2.531   6.104  0.1010  0.3902 -0.0465
   27CHL1   H3' 3108   1.427   2.472   6.078  1.6006 -1.0277 -1.2955
   27CHL1    C4 3109   1.575   2.691   5.943 -0.6962  0.0803 -0.4002
   27CHL1   H4A 3110   1.472   2.733   5.950 -0.4805  0.3279  2.6386
   27CHL1   H4B 3111   1.638   2.740   6.020  0.6387 -0.5154 -1.0807
   27CHL1    C5 3112   1.628   2.711   5.798 -0.1617 -0.5904  0.1494
   27CHL1    C6 3113   1.729   2.799   5.767 -0.0148  0.4196 -0.3629
   27CHL1    H6 3114   1.779   2.860   5.843  0.1512  1.9886 -1.6889
   27CHL1    C7 3115   1.790   2.805   5.629 -0.1263  0.3269 -0.1452
   27CHL1   H7A 3116   1.843   2.902   5.618  1.5990 -0.2681  2.3174
   27CHL1   H7B 3117   1.878   2.738   5.634  0.1738  0.4669 -2.4314
   27CHL1    C8 3118   1.688   2.758   5.520  0.6288  0.3081  0.2611
   27CHL1    H8 3119   1.599   2.823   5.505  0.5018 -0.5288 -4.0070
   27CHL1   C14 3120   1.766   2.751   5.393 -0.1464 -0.0109  0.0115
   27CHL1   H14 3121   1.840   2.670   5.412  0.8825 -0.2903 -4.2833
   27CHL1   C15 3122   1.851   2.870   5.346  0.8993  0.4937  0.6113
   27CHL1  H15A 3123   1.813   2.973   5.368  0.7971  0.6128 -0.1122
   27CHL1  H15B 3124   1.954   2.860   5.387  1.1666 -2.4695 -0.5641
   27CHL1   C16 3125   1.866   2.856   5.200 -0.0044 -0.7155 -0.5934
   27CHL1  H16A 3126   1.814   2.939   5.147  1.0722 -0.2245 -0.9303
   27CHL1  H16B 3127   1.973   2.847   5.169  0.0121 -0.0467 -0.7657
   27CHL1   C17 3128   1.803   2.715   5.167 -0.0170  0.5291  0.1621
   27CHL1   H17 3129   1.878   2.637   5.194 -1.8542 -0.7723  1.7139
   27CHL1   C13 3130   1.687   2.700   5.274  0.9201  0.3347  0.2652
   27CHL1   C18 3131   1.564   2.786   5.238 -0.5843 -0.0059 -0.1056
   27CHL1  H18A 3132   1.492   2.730   5.175 -1.8261 -1.0648  2.1166
   27CHL1  H18B 3133   1.506   2.816   5.328 -0.2241 -1.4696  0.6379
   27CHL1  H18C 3134   1.604   2.872   5.181  1.8327 -2.5785 -2.6228
   27CHL1   C12 3135   1.636   2.558   5.300  0.1438 -0.2736  0.3902
   27CHL1  H12A 3136   1.554   2.530   5.231  0.4795  1.0651 -0.5857
   27CHL1  H12B 3137   1.716   2.481   5.291 -0.2633 -0.4925 -1.8890
   27CHL1   C11 3138   1.566   2.550   5.444 -0.4658 -0.3832 -0.1153
   27CHL1  H11A 3139   1.465   2.593   5.430 -0.5943 -0.9123 -0.8508
   27CHL1  H11B 3140   1.553   2.442   5.468  0.7559 -0.6545 -0.6209
   27CHL1    C9 3141   1.639   2.618   5.558 -0.1027 -0.2998 -0.4180
   27CHL1    H9 3142   1.729   2.558   5.582  0.2440  0.7613  1.0984
   27CHL1   C10 3143   1.562   2.623   5.689 -0.0955  0.4709 -0.3586
   27CHL1   C19 3144   1.420   2.677   5.670  0.6376  0.5716  0.1713
   27CHL1  H19A 3145   1.413   2.782   5.633  0.6348  1.6520  2.9861
   27CHL1  H19B 3146   1.362   2.598   5.618  2.1992 -1.4218  1.3127
   27CHL1  H19C 3147   1.373   2.685   5.771  2.4874  0.2843  1.1022
   27CHL1    C1 3148   1.559   2.475   5.741 -0.2062 -0.1103 -0.2307
   27CHL1   H1A 3149   1.492   2.420   5.672 -0.6050  0.4459 -0.2952
   27CHL1   H1B 3150   1.663   2.438   5.755  0.0845  1.0520  0.9292
   27CHL1    C2 3151   1.501   2.457   5.885 -0.2476 -0.6373 -0.5659
   27CHL1   H2A 3152   1.515   2.350   5.907  1.1907 -0.4560 -0.5192
   27CHL1   H2B 3153   1.393   2.484   5.877 -0.6292 -1.3283  1.6394
   27CHL1   C20 3154   1.778   2.689   5.011 -0.6089 -0.0655 -1.2283
   27CHL1   H20 3155   1.707   2.766   4.972  0.2944  1.2000 -0.4580
   27CHL1   C21 3156   1.718   2.550   4.996  0.8446  0.3471  0.3694
   27CHL1  H21A 3157   1.777   2.474   5.053 -0.2473  0.6467  1.9642
   27CHL1  H21B 3158   1.699   2.530   4.889 -2.4278  5.2742 -0.3023
   27CHL1  H21C 3159   1.627   2.551   5.059  0.3774 -0.6034 -0.2648
   27CHL1   C22 3160   1.917   2.694   4.935  0.3636  0.5101  0.1706
   27CHL1  H22A 3161   1.976   2.779   4.976 -0.6615  1.1937  0.2648
   27CHL1  H22B 3162   1.975   2.604   4.967 -1.5351 -0.6954  0.3402
   27CHL1   C23 3163   1.899   2.704   4.784  0.2602 -0.3886 -0.5482
   27CHL1  H23A 3164   1.841   2.613   4.757 -1.9060  0.0699  2.1897
   27CHL1  H23B 3165   1.839   2.797   4.768  0.9064  0.0741 -0.2925
   27CHL1   C24 3166   2.033   2.711   4.714  0.2721  0.0318  0.6264
   27CHL1  H24A 3167   2.081   2.796   4.767  1.1926 -1.3806  2.1798
   27CHL1  H24B 3168   2.090   2.620   4.744  0.4120 -1.5404 -3.7489
   27CHL1   C25 3169   2.021   2.729   4.561 -0.6047 -0.0896 -0.3376
   27CHL1   H25 3170   1.965   2.824   4.547 -0.6969 -0.1013 -0.0535
   27CHL1   C26 3171   2.163   2.744   4.501 -0.1393 -0.6387  0.3326
   27CHL1  H26A 3172   2.213   2.645   4.495 -0.7587 -0.9056 -0.8319
   27CHL1  H26B 3173   2.163   2.784   4.398 -0.6236  0.5834  0.7888
   27CHL1  H26C 3174   2.222   2.808   4.569 -2.3320  3.1918 -1.0783
   27CHL1   C27 3175   1.964   2.617   4.487  0.8245  0.6763 -0.0432
   27CHL1  H27A 3176   2.014   2.526   4.527 -0.1543 -0.2741 -0.9478
   27CHL1  H27B 3177   1.962   2.624   4.377 -1.9219  1.1836 -0.0349
   27CHL1  H27C 3178   1.858   2.605   4.516  0.6823 -0.8250 -1.1264
   28CHL1    C3 3179   4.817   2.766   6.013  0.4576 -0.5808  0.7033
   28CHL1    H3 3180   4.746   2.848   5.988  2.0857  0.8097  0.5091
   28CHL1    O3 3181   4.817   2.755   6.148  0.5168  0.5603 -0.5030
   28CHL1   H3' 3182   4.866   2.675   6.167 -0.5364  0.3911  1.8422
   28CHL1    C4 3183   4.754   2.636   5.953 -0.1123  0.7773  0.6756
   28CHL1   H4A 3184   4.814   2.546   5.981 -0.8553  0.3421  0.8860
   28CHL1   H4B 3185   4.652   2.621   5.994  0.4526 -0.1900  1.7913
   28CHL1    C5 3186   4.753   2.634   5.799 -0.0759  0.8685 -0.1399
   28CHL1    C6 3187   4.645   2.601   5.726  0.2520  0.2015 -0.1864
   28CHL1    H6 3188   4.546   2.585   5.771  0.5966  0.8031  0.8253
   28CHL1    C7 3189   4.643   2.593   5.573 -0.2868 -0.1586  0.0198
   28CHL1   H7A 3190   4.589   2.505   5.532 -2.7889  0.9108  0.8210
   28CHL1   H7B 3191   4.593   2.686   5.540 -0.2429 -0.3625 -0.6348
   28CHL1    C8 3192   4.790   2.593   5.518 -1.2835  0.5609 -0.5143
   28CHL1    H8 3193   4.827   2.490   5.535  0.6759  1.1935 -0.7220
   28CHL1   C14 3194   4.781   2.626   5.365 -0.5787 -0.9394 -0.6304
   28CHL1   H14 3195   4.735   2.726   5.371 -0.2977 -0.8962  1.4097
   28CHL1   C15 3196   4.685   2.545   5.283 -1.0642 -0.2478 -0.0190
   28CHL1  H15A 3197   4.698   2.442   5.322 -0.0341  0.4504  1.5446
   28CHL1  H15B 3198   4.579   2.576   5.299 -0.3366  2.2396  0.4354
   28CHL1   C16 3199   4.731   2.583   5.145 -0.2345  0.2158  0.0262
   28CHL1  H16A 3200   4.746   2.491   5.085  2.2767  0.1953  0.5680
   28CHL1  H16B 3201   4.664   2.654   5.092  1.5464  0.4799 -2.0113
   28CHL1   C17 3202   4.865   2.657   5.149 -0.3281  0.3851 -0.1899
   28CHL1   H17 3203   4.853   2.767   5.139  0.4303  0.4360 -0.5651
   28CHL1   C13 3204   4.914   2.637   5.295  0.2457  0.5376 -0.0431
   28CHL1   C18 3205   4.979   2.493   5.309  0.1115 -0.4274 -0.1912
   28CHL1  H18A 3206   4.994   2.461   5.414  1.5256 -1.7906 -0.7628
   28CHL1  H18B 3207   4.921   2.413   5.259 -1.0278  0.1793  0.1403
   28CHL1  H18C 3208   5.081   2.505   5.267  0.9488 -0.8400  1.6201
   28CHL1   C12 3209   5.004   2.750   5.361  0.4675 -0.1977  0.2565
   28CHL1  H12A 3210   5.104   2.746   5.313  0.0444  0.7206 -0.7474
   28CHL1  H12B 3211   4.951   2.846   5.342  0.3855 -0.4256 -0.7333
   28CHL1   C11 3212   5.009   2.715   5.511 -0.3718 -0.1407  0.6052
   28CHL1  H11A 3213   5.071   2.623   5.523 -1.4328 -0.9239  0.2477
   28CHL1  H11B 3214   5.063   2.795   5.566 -1.1320 -1.0930  2.8866
   28CHL1    C9 3215   4.880   2.693   5.587  0.4258 -0.0213 -0.3070
   28CHL1    H9 3216   4.827   2.790   5.574 -0.4648 -0.4210  0.2409
   28CHL1   C10 3217   4.889   2.671   5.740 -0.2081  0.6833  0.2173
   28CHL1   C19 3218   4.995   2.552   5.769 -0.2739 -0.0927 -0.3913
   28CHL1  H19A 3219   4.957   2.467   5.708 -2.8412  0.5236  0.2218
   28CHL1  H19B 3220   5.098   2.582   5.742 -0.8893  1.1079 -1.5264
   28CHL1  H19C 3221   4.996   2.520   5.875  0.0384 -1.1422 -0.6956
   28CHL1    C1 3222   4.948   2.804   5.802  0.3196  0.3849  0.0889
   28CHL1   H1A 3223   5.046   2.830   5.758  0.1835 -3.0423 -2.6847
   28CHL1   H1B 3224   4.882   2.891   5.780  0.7033  1.5047  2.8591
   28CHL1    C2 3225   4.957   2.802   5.956 -0.0031  1.0265 -0.3236
   28CHL1   H2A 3226   4.999   2.899   5.991 -0.0391  0.5731  1.0209
   28CHL1   H2B 3227   5.038   2.737   5.995 -0.3211  1.9720  2.0660
   28CHL1   C20 3228   4.947   2.613   5.028  1.0264  0.9215 -0.4593
   28CHL1   H20 3229   4.980   2.507   5.028 -0.3870  0.4371 -2.1372
   28CHL1   C21 3230   5.086   2.682   5.026 -0.4253  0.1127  0.5800
   28CHL1  H21A 3231   5.129   2.668   4.925  1.9686 -1.1600  1.6772
   28CHL1  H21B 3232   5.144   2.641   5.112  0.0941  0.3327  0.3395
   28CHL1  H21C 3233   5.071   2.791   5.041  1.3443  0.2316  1.8583
   28CHL1   C22 3234   4.865   2.628   4.896  0.1781 -0.4569 -0.6218
   28CHL1  H22A 3235   4.767   2.575   4.900 -0.3869  0.5196  4.3424
   28CHL1  H22B 3236   4.853   2.737   4.879 -0.4765 -0.6279 -1.3178
   28CHL1   C23 3237   4.932   2.571   4.767 -0.6637 -0.4320 -0.2751
   28CHL1  H23A 3238   5.011   2.645   4.742  0.4911 -0.2856  3.2544
   28CHL1  H23B 3239   4.977   2.473   4.793 -1.0852 -0.1317  1.7915
   28CHL1   C24 3240   4.837   2.540   4.652 -0.4258  0.3687  0.4439
   28CHL1  H24A 3241   4.757   2.474   4.692 -0.8217  0.6931  0.1899
   28CHL1  H24B 3242   4.798   2.632   4.603  0.3829 -0.8371 -2.7619
   28CHL1   C25 3243   4.896   2.452   4.536 -0.2211  0.3489  0.3573
   28CHL1   H25 3244   4.822   2.452   4.453 -0.1865 -0.5206  0.3209
   28CHL1   C26 3245   5.035   2.501   4.487  0.4752 -0.3609 -0.1752
   28CHL1  H26A 3246   5.054   2.445   4.393 -1.7533  0.5074 -1.1890
   28CHL1  H26B 3247   5.022   2.609   4.465  1.2081 -0.2145  0.0743
   28CHL1  H26C 3248   5.113   2.470   4.561  1.9236 -0.8422 -1.8231
   28CHL1   C27 3249   4.906   2.309   4.588 -0.1663  0.1564 -0.1731
   28CHL1  H27A 3250   4.989   2.304   4.661  0.5079  1.1684 -0.8397
   28CHL1  H27B 3251   4.809   2.286   4.638  0.4392 -0.1590  0.8759
   28CHL1  H27C 3252   4.927   2.232   4.510  1.0001 -0.2548  0.5243
   29CHL1    C3 3253   0.467   3.039   6.050  0.0253  0.5665 -0.0847
   29CHL1    H3 3254   0.482   2.929   6.056  5.8176  1.0400  0.1242
   29CHL1    O3 3255   0.473   3.079   6.185  0.5784 -0.0056 -0.2773
   29CHL1   H3' 3256   0.445   3.170   6.173 -0.3370 -0.3663 -0.9987
   29CHL1    C4 3257   0.588   3.093   5.972 -0.5029 -0.4066  0.5956
   29CHL1   H4A 3258   0.589   3.204   5.981  1.4262 -0.0922 -2.0756
   29CHL1   H4B 3259   0.682   3.057   6.020 -0.4254  2.0471  2.4774
   29CHL1    C5 3260   0.574   3.058   5.823 -0.6571 -0.3675 -0.6944
   29CHL1    C6 3261   0.664   2.984   5.756 -0.8151 -0.5075 -0.1473
   29CHL1    H6 3262   0.758   2.958   5.808 -1.1113 -1.8058 -0.2098
   29CHL1    C7 3263   0.653   2.959   5.606 -0.1816  0.0529  0.0984
   29CHL1   H7A 3264   0.755   2.976   5.564  0.6453 -1.1360  1.5294
   29CHL1   H7B 3265   0.628   2.851   5.597  0.4004 -0.0356 -0.5845
   29CHL1    C8 3266   0.552   3.038   5.531  1.3369  0.0827 -0.5407
   29CHL1    H8 3267   0.602   3.137   5.521  1.1689  0.1622 -0.5863
   29CHL1   C14 3268   0.517   2.977   5.394  0.3297  0.5375 -0.5545
   29CHL1   H14 3269   0.467   2.881   5.418 -0.1404  0.4747 -1.7213
   29CHL1   C15 3270   0.642   2.926   5.314  0.6733 -0.8049  0.0305
   29CHL1  H15A 3271   0.718   3.006   5.308 -0.1581 -0.0382 -0.5040
   29CHL1  H15B 3272   0.698   2.836   5.347  1.4294 -0.3694 -0.0565
   29CHL1   C16 3273   0.576   2.908   5.173 -0.0518  0.2604 -0.2153
   29CHL1  H16A 3274   0.626   2.977   5.101 -1.4849  0.0099 -1.5155
   29CHL1  H16B 3275   0.577   2.804   5.134  1.2470 -1.0222  2.9851
   29CHL1   C17 3276   0.427   2.953   5.193  0.5203  0.3148  0.5377
   29CHL1   H17 3277   0.376   2.855   5.210  0.8634 -0.5676 -2.8194
   29CHL1   C13 3278   0.424   3.052   5.307 -0.0155  0.6773  0.2384
   29CHL1   C18 3279   0.487   3.182   5.268  0.0382  0.1490 -0.3811
   29CHL1  H18A 3280   0.575   3.175   5.200 -0.2441  1.8021 -0.9669
   29CHL1  H18B 3281   0.419   3.260   5.226  0.1122 -0.5986 -1.9587
   29CHL1  H18C 3282   0.537   3.228   5.356  2.4420 -0.8256 -1.1686
   29CHL1   C12 3283   0.293   3.067   5.390  0.5232 -0.1102  0.5195
   29CHL1  H12A 3284   0.222   3.135   5.338  0.1657 -0.7557  0.1447
   29CHL1  H12B 3285   0.247   2.965   5.390  2.5677 -1.1035  1.9038
   29CHL1   C11 3286   0.316   3.124   5.530 -0.3231  0.4979  0.1718
   29CHL1  H11A 3287   0.345   3.227   5.500  0.5551  0.5436  1.1032
   29CHL1  H11B 3288   0.225   3.134   5.593 -0.8249  0.2888 -0.5191
   29CHL1    C9 3289   0.422   3.052   5.610 -0.2865 -0.4575 -0.1624
   29CHL1    H9 3290   0.377   2.951   5.617 -2.8142  0.4680 -1.5306
   29CHL1   C10 3291   0.443   3.109   5.756 -0.6695 -0.1913 -0.4248
   29CHL1   C19 3292   0.457   3.269   5.751  1.1421  0.0762 -0.3918
   29CHL1  H19A 3293   0.367   3.312   5.704 -1.2474 -1.2058  2.6567
   29CHL1  H19B 3294   0.475   3.315   5.850  0.6539  1.2743 -0.8458
   29CHL1  H19C 3295   0.544   3.297   5.688  1.9556  0.0578  0.6949
   29CHL1    C1 3296   0.325   3.060   5.850  0.2276 -0.0255  1.3294
   29CHL1   H1A 3297   0.233   3.100   5.802  1.1372 -1.8092 -2.1802
   29CHL1   H1B 3298   0.308   2.951   5.839 -1.7094  0.2511  1.0810
   29CHL1    C2 3299   0.332   3.085   5.992  0.5510 -0.6495  0.6424
   29CHL1   H2A 3300   0.254   3.026   6.043  1.2264 -0.8563  1.4539
   29CHL1   H2B 3301   0.324   3.195   6.009 -1.9556 -0.5846 -0.5122
   29CHL1   C20 3302   0.368   3.017   5.059 -1.1600 -0.1806  0.4617
   29CHL1   H20 3303   0.436   3.094   5.016  2.4645 -2.9335  0.7478
   29CHL1   C21 3304   0.224   3.071   5.080  0.7063  0.0140  0.3823
   29CHL1  H21A 3305   0.152   2.992   5.112  0.0890  0.0364 -0.8795
   29CHL1  H21B 3306   0.197   3.106   4.978  1.2389  1.8000  0.8283
   29CHL1  H21C 3307   0.215   3.161   5.144 -2.7448  0.8311 -1.0396
   29CHL1   C22 3308   0.378   2.901   4.952 -0.2128 -0.5080 -0.1632
   29CHL1  H22A 3309   0.475   2.849   4.951 -0.7633 -1.5492 -0.9751
   29CHL1  H22B 3310   0.305   2.823   4.981  1.3769 -1.2698  1.9887
   29CHL1   C23 3311   0.356   2.962   4.807  0.0339 -0.6288 -0.3129
   29CHL1  H23A 3312   0.254   3.004   4.792  0.3936 -0.0000 -1.0562
   29CHL1  H23B 3313   0.434   3.035   4.775 -0.0681 -0.2695  0.2417
   29CHL1   C24 3314   0.369   2.853   4.705  0.0954 -0.3312  0.0424
   29CHL1  H24A 3315   0.473   2.812   4.711  0.2882  0.1596  0.0972
   29CHL1  H24B 3316   0.291   2.778   4.731 -0.8926  1.1706  1.6339
   29CHL1   C25 3317   0.333   2.906   4.555  0.2516  0.2356 -0.3921
   29CHL1   H25 3318   0.344   2.819   4.487  1.1931  2.5703 -3.4581
   29CHL1   C26 3319   0.187   2.958   4.542  0.1246  0.1524  0.4674
   29CHL1  H26A 3320   0.125   2.867   4.534 -1.9139  1.6025 -1.1641
   29CHL1  H26B 3321   0.146   3.004   4.634 -0.0280  2.7222 -0.7972
   29CHL1  H26C 3322   0.168   3.020   4.452 -3.5008 -1.4948 -0.0401
   29CHL1   C27 3323   0.440   2.996   4.492  0.0912  0.9539 -0.0371
   29CHL1  H27A 3324   0.406   3.011   4.388 -3.2252 -1.4549  0.5464
   29CHL1  H27B 3325   0.445   3.091   4.550  1.0574  1.0303 -0.2260
   29CHL1  H27C 3326   0.541   2.951   4.506 -0.3658 -0.1407 -0.1956
   30CHL1    C3 3327   5.249   4.221   5.706 -0.0953  0.3484 -0.5327
   30CHL1    H3 3328   5.160   4.287   5.694 -1.3398 -1.0096  0.8217
   30CHL1    O3 3329   5.279   4.206   5.844 -0.0304  0.2417  0.7028
   30CHL1   H3' 3330   5.374   4.217   5.854  0.5461 -0.7435 -2.6851
   30CHL1    C4 3331   5.236   4.076   5.645  0.7899 -0.1066  0.6407
   30CHL1   H4A 3332   5.325   4.028   5.692  2.0445  0.6509 -0.8843
   30CHL1   H4B 3333   5.147   4.030   5.693  0.1441 -1.6290 -1.8792
   30CHL1    C5 3334   5.229   4.073   5.493 -0.0107 -0.7105 -0.5001
   30CHL1    C6 3335   5.129   4.018   5.426  0.4366 -0.0673 -0.1215
   30CHL1    H6 3336   5.041   3.979   5.480 -0.6153  1.7111 -0.4625
   30CHL1    C7 3337   5.129   3.997   5.278 -0.6819 -0.3033 -0.0537
   30CHL1   H7A 3338   5.094   3.895   5.250 -0.3109 -0.4904  0.1448
   30CHL1   H7B 3339   5.064   4.077   5.237 -1.1507 -0.1966  0.8691
   30CHL1    C8 3340   5.267   4.027   5.207  0.3869  0.2540  0.0853
   30CHL1    H8 3341   5.326   3.934   5.226 -0.2336 -0.2097 -0.2457
   30CHL1   C14 3342   5.251   4.054   5.059 -0.5403 -0.1241  0.0125
   30CHL1   H14 3343   5.181   4.139   5.044 -0.8938 -0.6916 -1.7686
   30CHL1   C15 3344   5.179   3.952   4.976 -0.3657  0.0437  0.1601
   30CHL1  H15A 3345   5.211   3.847   4.990 -2.8853 -1.0922 -1.8008
   30CHL1  H15B 3346   5.074   3.957   5.012 -0.4281 -2.3599  0.5009
   30CHL1   C16 3347   5.210   3.996   4.830 -0.3413 -0.8564  0.7143
   30CHL1  H16A 3348   5.242   3.910   4.768  0.0509  1.6437 -2.8650
   30CHL1  H16B 3349   5.128   4.047   4.774  2.3976  0.9275 -1.9672
   30CHL1   C17 3350   5.328   4.103   4.840  0.1199  0.1709 -0.0400
   30CHL1   H17 3351   5.266   4.196   4.832  1.4722  1.0425 -0.7273
   30CHL1   C13 3352   5.383   4.083   4.985  0.0254 -0.3950  0.6501
   30CHL1   C18 3353   5.481   3.962   4.986  0.1742 -0.0389  0.1233
   30CHL1  H18A 3354   5.431   3.869   4.953  0.6595  0.0488 -0.8954
   30CHL1  H18B 3355   5.565   3.982   4.916  1.8797 -0.6007  1.9456
   30CHL1  H18C 3356   5.517   3.947   5.090  0.1002  3.0685  0.6993
   30CHL1   C12 3357   5.442   4.208   5.041 -0.1073  0.4281 -0.1496
   30CHL1  H12A 3358   5.537   4.235   4.989 -1.0138  1.1815 -1.4643
   30CHL1  H12B 3359   5.375   4.295   5.024 -0.5771 -0.2142 -1.6739
   30CHL1   C11 3360   5.458   4.205   5.193 -0.6976 -0.1535 -0.3780
   30CHL1  H11A 3361   5.542   4.135   5.211 -1.0354 -0.8202 -1.3141
   30CHL1  H11B 3362   5.503   4.298   5.232 -0.6288 -0.9320  1.5091
   30CHL1    C9 3363   5.332   4.155   5.271 -0.3592 -0.1555 -0.2017
   30CHL1    H9 3364   5.250   4.227   5.254  0.4142  0.4646 -1.4301
   30CHL1   C10 3365   5.347   4.144   5.427 -0.2889 -0.1202  0.4241
   30CHL1   C19 3366   5.479   4.072   5.448  0.2497 -0.2612 -0.6155
   30CHL1  H19A 3367   5.499   4.038   5.552  1.8945 -0.6983 -1.0405
   30CHL1  H19B 3368   5.473   3.979   5.388  0.8172  0.6595 -2.1679
   30CHL1  H19C 3369   5.567   4.131   5.413 -0.2471  1.1549  0.4405
   30CHL1    C1 3370   5.356   4.284   5.485  0.1637 -0.8813 -0.0548
   30CHL1   H1A 3371   5.442   4.337   5.439  0.5692 -1.6970 -0.2681
   30CHL1   H1B 3372   5.264   4.335   5.449  0.0640 -0.3467  0.9202
   30CHL1    C2 3373   5.368   4.290   5.640  0.0600 -0.1172 -0.0986
   30CHL1   H2A 3374   5.389   4.395   5.668  1.5080 -0.2107 -0.7679
   30CHL1   H2B 3375   5.463   4.242   5.672 -0.7827 -0.4598  2.0727
   30CHL1   C20 3376   5.432   4.104   4.721 -0.8582 -0.1796 -0.3735
   30CHL1   H20 3377   5.525   4.133   4.774 -1.3353 -0.1102  0.4409
   30CHL1   C21 3378   5.396   4.220   4.628  0.0007  0.3650 -0.0949
   30CHL1  H21A 3379   5.454   4.230   4.534 -1.6614  0.7694 -1.1111
   30CHL1  H21B 3380   5.394   4.313   4.688  1.1223  0.7905 -0.6906
   30CHL1  H21C 3381   5.289   4.206   4.600 -0.5118  2.1348  0.8587
   30CHL1   C22 3382   5.442   3.970   4.641  0.4001  0.0322  0.0277
   30CHL1  H22A 3383   5.439   3.878   4.702  0.8175 -0.5692 -0.8244
   30CHL1  H22B 3384   5.353   3.962   4.575 -1.6941 -0.4613  2.7653
   30CHL1   C23 3385   5.572   3.959   4.556 -0.5024 -0.0359 -0.2242
   30CHL1  H23A 3386   5.595   4.053   4.502 -2.6480 -0.2872 -1.7191
   30CHL1  H23B 3387   5.661   3.950   4.622 -1.0230  1.2819  0.6857
   30CHL1   C24 3388   5.561   3.847   4.453  0.1204 -0.4192  0.5014
   30CHL1  H24A 3389   5.522   3.760   4.509 -0.7723  0.3998  1.1787
   30CHL1  H24B 3390   5.493   3.887   4.375 -0.4607  1.1787  1.7764
   30CHL1   C25 3391   5.701   3.818   4.393  0.4739  0.3379 -0.2047
   30CHL1   H25 3392   5.690   3.735   4.320 -1.2532 -0.2141  0.6186
   30CHL1   C26 3393   5.758   3.937   4.323 -0.8296 -0.4450 -0.0202
   30CHL1  H26A 3394   5.853   3.907   4.274  0.0802  0.9635  0.8164
   30CHL1  H26B 3395   5.695   3.970   4.238  0.7594  0.2617 -0.9665
   30CHL1  H26C 3396   5.783   4.018   4.394 -0.0733  1.0360 -1.8789
   30CHL1   C27 3397   5.792   3.759   4.490  0.3919 -0.0365 -0.3754
   30CHL1  H27A 3398   5.880   3.711   4.443 -0.3879 -0.9195 -0.9561
   30CHL1  H27B 3399   5.820   3.839   4.563  0.7089  0.2603 -0.8148
   30CHL1  H27C 3400   5.736   3.683   4.548 -1.3670 -1.1824 -3.3768
   31CHL1    C3 3401   2.075   3.210   6.211  0.9125  0.3828  0.0485
   31CHL1    H3 3402   2.120   3.312   6.212 -1.0992  1.3251  0.7749
   31CHL1    O3 3403   2.039   3.157   6.338 -1.1751 -0.2446  0.3830
   31CHL1   H3' 3404   2.005   3.069   6.318  1.0226 -0.7696 -1.4421
   31CHL1    C4 3405   1.953   3.208   6.125 -0.3434  0.2424  0.7179
   31CHL1   H4A 3406   1.901   3.110   6.129  0.7326 -0.3722  0.0994
   31CHL1   H4B 3407   1.881   3.285   6.161 -1.5172  1.5808 -3.7963
   31CHL1    C5 3408   1.991   3.251   5.985 -1.0414  0.0404  0.1844
   31CHL1    C6 3409   1.953   3.363   5.923 -0.0650 -0.0637  0.1020
   31CHL1    H6 3410   1.878   3.425   5.976  1.4657  2.2815 -0.2869
   31CHL1    C7 3411   1.986   3.397   5.784 -0.3263 -0.9674  0.1389
   31CHL1   H7A 3412   1.893   3.432   5.733 -1.1967 -2.5671  0.5724
   31CHL1   H7B 3413   2.064   3.475   5.772  1.1288 -2.3336  0.4917
   31CHL1    C8 3414   2.034   3.275   5.706  0.3584  0.6148  0.6152
   31CHL1    H8 3415   1.946   3.211   5.685  0.3294  1.2180 -1.2487
   31CHL1   C14 3416   2.082   3.325   5.571 -0.2101  0.1507 -0.1570
   31CHL1   H14 3417   2.160   3.398   5.600 -0.3319  0.5964 -0.9085
   31CHL1   C15 3418   1.985   3.407   5.487 -0.1617 -0.4564  0.0706
   31CHL1  H15A 3419   1.885   3.358   5.487 -0.3928  0.0042 -0.4293
   31CHL1  H15B 3420   1.961   3.510   5.520 -1.9527 -1.1224  1.0001
   31CHL1   C16 3421   2.052   3.400   5.347 -0.2680 -0.2861  0.5200
   31CHL1  H16A 3422   1.983   3.364   5.268  1.0727  0.4377 -1.0349
   31CHL1  H16B 3423   2.079   3.505   5.323  0.1867 -0.7494 -1.1062
   31CHL1   C17 3424   2.180   3.312   5.349 -0.5011  0.0544  0.2930
   31CHL1   H17 3425   2.255   3.388   5.381 -0.3886  0.4036 -0.7501
   31CHL1   C13 3426   2.157   3.226   5.475  0.4992  0.3053  0.6815
   31CHL1   C18 3427   2.054   3.117   5.442  0.3468  0.1806  0.2028
   31CHL1  H18A 3428   1.960   3.152   5.394 -0.3872 -1.8969  0.0257
   31CHL1  H18B 3429   2.109   3.044   5.379 -2.8106 -2.2460  0.0150
   31CHL1  H18C 3430   2.032   3.057   5.533  1.6379 -0.7702 -0.0781
   31CHL1   C12 3431   2.276   3.183   5.555 -0.0825  0.7400 -0.1096
   31CHL1  H12A 3432   2.329   3.102   5.499  1.3119  1.7175 -0.2673
   31CHL1  H12B 3433   2.348   3.262   5.584  2.0010 -0.7663 -0.8699
   31CHL1   C11 3434   2.231   3.113   5.690 -0.4750 -0.8066 -0.2691
   31CHL1  H11A 3435   2.155   3.033   5.677 -2.4187  1.1673 -1.7007
   31CHL1  H11B 3436   2.320   3.077   5.746  0.0313  1.9234  0.8311
   31CHL1    C9 3437   2.150   3.212   5.779  0.0408 -0.6323  0.8974
   31CHL1    H9 3438   2.222   3.290   5.812 -0.5851 -0.3905  1.7169
   31CHL1   C10 3439   2.092   3.160   5.911  0.3998  0.2991  0.4887
   31CHL1   C19 3440   2.022   3.029   5.890 -0.4746  0.2048  0.6888
   31CHL1  H19A 3441   1.948   3.022   5.807  1.8929 -0.1313 -1.5306
   31CHL1  H19B 3442   2.102   2.954   5.868 -1.4330 -1.0517  1.3350
   31CHL1  H19C 3443   1.976   2.989   5.982 -0.0665  0.4738  1.0117
   31CHL1    C1 3444   2.214   3.142   6.008  0.6053  0.0476  0.5551
   31CHL1   H1A 3445   2.278   3.062   5.966 -0.1410 -0.2253 -0.0795
   31CHL1   H1B 3446   2.272   3.237   6.004 -0.3812  0.7131  1.5369
   31CHL1    C2 3447   2.180   3.110   6.160  0.2733 -0.1734  0.7077
   31CHL1   H2A 3448   2.273   3.105   6.220  0.2311 -2.0792  0.6884
   31CHL1   H2B 3449   2.150   3.003   6.154  2.1874 -0.6941 -0.6335
   31CHL1   C20 3450   2.203   3.245   5.206  0.0263  0.1206 -0.2352
   31CHL1   H20 3451   2.116   3.179   5.188  1.0890 -1.8897  1.5133
   31CHL1   C21 3452   2.331   3.169   5.227 -0.1602  0.2010  0.4332
   31CHL1  H21A 3453   2.405   3.244   5.262 -1.3694  1.4671  0.3999
   31CHL1  H21B 3454   2.372   3.135   5.130 -1.5077  1.3438 -0.5853
   31CHL1  H21C 3455   2.323   3.081   5.294  1.1865 -1.0406 -0.9852
   31CHL1   C22 3456   2.227   3.353   5.095 -0.0431 -0.2917 -0.3110
   31CHL1  H22A 3457   2.151   3.434   5.082  1.8113  1.6701  0.5621
   31CHL1  H22B 3458   2.325   3.402   5.115 -0.0901 -0.0272 -0.7167
   31CHL1   C23 3459   2.242   3.304   4.952  0.1391 -0.6329 -0.6399
   31CHL1  H23A 3460   2.289   3.386   4.893 -1.0355 -0.7053 -1.7159
   31CHL1  H23B 3461   2.312   3.219   4.944  0.6526 -0.3293  0.5565
   31CHL1   C24 3462   2.100   3.272   4.898 -0.0448 -0.4571  0.0997
   31CHL1  H24A 3463   2.046   3.192   4.954 -0.4722 -0.9539 -0.9837
   31CHL1  H24B 3464   2.029   3.357   4.897  1.1947  0.6261  0.7994
   31CHL1   C25 3465   2.110   3.210   4.751 -0.8377  0.2384 -0.0079
   31CHL1   H25 3466   2.172   3.283   4.696 -0.4253 -0.4362 -0.4539
   31CHL1   C26 3467   2.180   3.069   4.742 -0.7157  0.1225 -0.0802
   31CHL1  H26A 3468   2.195   3.051   4.633 -0.2155  1.6651 -0.2916
   31CHL1  H26B 3469   2.272   3.066   4.804 -2.1303 -2.0646  2.0884
   31CHL1  H26C 3470   2.112   2.994   4.788  0.1942  0.4222  1.8579
   31CHL1   C27 3471   1.972   3.207   4.679 -0.2006 -0.3801  0.8354
   31CHL1  H27A 3472   1.989   3.180   4.572 -2.5312  2.1748 -0.3073
   31CHL1  H27B 3473   1.900   3.139   4.730  0.2940 -3.0318 -1.7030
   31CHL1  H27C 3474   1.929   3.309   4.679  0.4334 -0.0965  1.9880
   32CHL1    C3 3475   3.261   4.041   5.850 -0.6361  0.1914 -0.3201
   32CHL1    H3 3476   3.371   4.026   5.845 -0.5836 -0.0881  1.2668
   32CHL1    O3 3477   3.197   3.946   5.932  0.2123 -0.1063  0.2039
   32CHL1   H3' 3478   3.130   3.923   5.867  1.6644 -0.6573 -1.1955
   32CHL1    C4 3479   3.237   4.181   5.916  0.0696  0.1988  0.2540
   32CHL1   H4A 3480   3.129   4.205   5.929 -0.2632 -0.2294 -1.4136
   32CHL1   H4B 3481   3.282   4.165   6.016  0.2701  2.4168  0.5848
   32CHL1    C5 3482   3.332   4.273   5.838  0.0623  0.6139  0.5117
   32CHL1    C6 3483   3.436   4.345   5.894  1.0303 -0.1589  0.4122
   32CHL1    H6 3484   3.456   4.343   6.002  3.9743  0.4926 -0.0436
   32CHL1    C7 3485   3.514   4.451   5.813  0.4488  0.2087 -0.6559
   32CHL1   H7A 3486   3.538   4.542   5.873  2.9381 -1.4302  1.0115
   32CHL1   H7B 3487   3.609   4.413   5.770  0.2317  0.9990 -1.8726
   32CHL1    C8 3488   3.441   4.503   5.680  0.2650  0.7708 -0.9346
   32CHL1    H8 3489   3.355   4.564   5.715  0.9896  0.3251  1.9360
   32CHL1   C14 3490   3.537   4.579   5.592 -0.1632  0.1488  0.3534
   32CHL1   H14 3491   3.618   4.504   5.576 -0.5786 -0.1527 -0.3649
   32CHL1   C15 3492   3.622   4.698   5.644 -0.3192 -0.3426 -0.8785
   32CHL1  H15A 3493   3.555   4.760   5.706 -1.1632 -0.2748 -1.8298
   32CHL1  H15B 3494   3.711   4.672   5.706 -1.2741  0.1734  0.7720
   32CHL1   C16 3495   3.668   4.769   5.518  0.0756  0.4165 -0.2315
   32CHL1  H16A 3496   3.630   4.872   5.530 -0.6058  0.2142 -0.5888
   32CHL1  H16B 3497   3.778   4.781   5.504  0.1515  1.1219  0.9094
   32CHL1   C17 3498   3.603   4.692   5.395  0.7828  0.1679  0.7333
   32CHL1   H17 3499   3.669   4.606   5.371 -0.3995 -0.4511 -0.4246
   32CHL1   C13 3500   3.479   4.621   5.450 -0.1415  0.4798 -0.3920
   32CHL1   C18 3501   3.363   4.726   5.477 -0.0864  0.5271  0.1996
   32CHL1  H18A 3502   3.404   4.827   5.494  0.6742  0.3411 -0.4661
   32CHL1  H18B 3503   3.307   4.731   5.381  0.8311  1.6118 -0.2834
   32CHL1  H18C 3504   3.297   4.697   5.563 -1.3847 -2.7400 -1.7162
   32CHL1   C12 3505   3.433   4.491   5.376 -0.1126  0.0475 -0.4682
   32CHL1  H12A 3506   3.386   4.527   5.283 -0.8154  3.1872  0.9861
   32CHL1  H12B 3507   3.528   4.440   5.347  0.8740  2.3675 -1.4988
   32CHL1   C11 3508   3.340   4.408   5.461 -0.1628  0.7570 -0.4516
   32CHL1  H11A 3509   3.248   4.468   5.479 -0.8086 -0.9019  2.3108
   32CHL1  H11B 3510   3.325   4.320   5.395  1.1700  1.1609 -1.3461
   32CHL1    C9 3511   3.387   4.376   5.608 -0.3339  0.2972  1.2396
   32CHL1    H9 3512   3.476   4.316   5.580  0.1710  1.9499 -0.9669
   32CHL1   C10 3513   3.292   4.290   5.690 -0.2726 -0.2055 -0.2089
   32CHL1   C19 3514   3.145   4.356   5.697 -0.0059 -0.7669  0.1904
   32CHL1  H19A 3515   3.067   4.290   5.739  0.7285 -1.7462  0.0617
   32CHL1  H19B 3516   3.154   4.450   5.755 -1.3237  0.0456 -0.8696
   32CHL1  H19C 3517   3.111   4.385   5.596  0.0512  0.0247  0.3921
   32CHL1    C1 3518   3.273   4.149   5.619 -0.4729  0.5737  0.3233
   32CHL1   H1A 3519   3.239   4.166   5.515 -0.9784 -1.3410  0.1410
   32CHL1   H1B 3520   3.374   4.107   5.606  0.0913  1.7327  0.8245
   32CHL1    C2 3521   3.206   4.041   5.699 -0.5142 -0.0962 -0.4287
   32CHL1   H2A 3522   3.235   3.948   5.646 -0.5001  0.3723 -1.2626
   32CHL1   H2B 3523   3.095   4.051   5.702 -0.6645 -1.6505  0.7686
   32CHL1   C20 3524   3.590   4.774   5.272 -0.2980 -0.0573  0.3573
   32CHL1   H20 3525   3.506   4.845   5.289 -1.3052 -1.3021  0.7953
   32CHL1   C21 3526   3.563   4.684   5.148 -0.3877 -0.0903  0.0995
   32CHL1  H21A 3527   3.461   4.642   5.155  0.3928 -1.8535  1.5629
   32CHL1  H21B 3528   3.628   4.594   5.140  0.7016  0.6394  0.4806
   32CHL1  H21C 3529   3.578   4.736   5.050 -2.3751  0.2501 -0.0640
   32CHL1   C22 3530   3.724   4.850   5.238 -0.3732  0.0686 -0.5118
   32CHL1  H22A 3531   3.745   4.913   5.326 -0.8276 -0.7667  0.2117
   32CHL1  H22B 3532   3.812   4.783   5.231 -0.4964 -0.0337 -1.2334
   32CHL1   C23 3533   3.731   4.940   5.109  0.6542  0.1330 -0.0986
   32CHL1  H23A 3534   3.819   5.008   5.118 -1.0593  2.2013  2.7448
   32CHL1  H23B 3535   3.739   4.877   5.018 -0.9190  0.8780 -0.7996
   32CHL1   C24 3536   3.606   5.022   5.088  0.6610  0.3698 -0.4462
   32CHL1  H24A 3537   3.533   4.941   5.069  1.1793 -0.3224  0.4340
   32CHL1  H24B 3538   3.573   5.078   5.178 -0.6614  0.4252 -0.9425
   32CHL1   C25 3539   3.608   5.132   4.972  1.6461 -0.2710  0.0861
   32CHL1   H25 3540   3.675   5.213   5.007  0.8145  1.1680 -1.4998
   32CHL1   C26 3541   3.689   5.072   4.857 -0.2833  0.5779  0.3993
   32CHL1  H26A 3542   3.694   5.140   4.769  0.2301  0.8491  0.6335
   32CHL1  H26B 3543   3.794   5.053   4.887  0.0037  1.5612  0.0702
   32CHL1  H26C 3544   3.639   4.978   4.824 -3.0858  1.8752  0.6290
   32CHL1   C27 3545   3.473   5.178   4.923  0.1388  0.1599  0.4622
   32CHL1  H27A 3546   3.419   5.091   4.881 -0.8842  0.9039  0.1802
   32CHL1  H27B 3547   3.415   5.217   5.009  0.8846  0.2864  0.9126
   32CHL1  H27C 3548   3.471   5.255   4.842 -0.2093 -0.2579  0.0681
   33CHL1    C3 3549   6.632   3.022   5.789 -0.3784  0.1055 -0.1664
   33CHL1    H3 3550   6.568   2.931   5.782  0.2176 -0.5831  2.4028
   33CHL1    O3 3551   6.680   3.041   5.919 -0.2091  0.1599 -0.5436
   33CHL1   H3' 3552   6.737   3.118   5.913 -1.8407  1.6449  1.4079
   33CHL1    C4 3553   6.751   2.994   5.699 -0.1943  0.2455 -0.3849
   33CHL1   H4A 3554   6.833   3.068   5.707 -1.3849  1.8060 -1.6754
   33CHL1   H4B 3555   6.791   2.898   5.740 -1.1470  0.2679  0.6546
   33CHL1    C5 3556   6.698   2.971   5.554 -0.2271  0.3912 -0.5742
   33CHL1    C6 3557   6.719   2.862   5.482 -0.0135  0.2810 -0.4361
   33CHL1    H6 3558   6.766   2.779   5.536  0.7914  0.6519 -0.5533
   33CHL1    C7 3559   6.686   2.846   5.338  0.4606  0.1124 -0.2250
   33CHL1   H7A 3560   6.781   2.818   5.288 -0.4175 -1.9263 -0.8546
   33CHL1   H7B 3561   6.608   2.768   5.330  1.1165 -0.3152 -4.4954
   33CHL1    C8 3562   6.643   2.984   5.270  1.0040 -0.5241  0.7006
   33CHL1    H8 3563   6.735   3.045   5.258  0.9743 -0.7643 -1.1705
   33CHL1   C14 3564   6.584   2.959   5.129  0.6884 -0.6228 -0.1860
   33CHL1   H14 3565   6.500   2.892   5.155 -0.1414  0.0119 -1.1409
   33CHL1   C15 3566   6.664   2.894   5.021  0.1917  1.1710  0.5242
   33CHL1  H15A 3567   6.771   2.924   5.010  0.0192  1.3409 -0.8791
   33CHL1  H15B 3568   6.662   2.785   5.042  1.9240  0.9951 -0.0628
   33CHL1   C16 3569   6.576   2.914   4.893  0.7098  0.3306  0.0047
   33CHL1  H16A 3570   6.651   2.946   4.818 -0.5516 -1.1154 -1.9720
   33CHL1  H16B 3571   6.533   2.820   4.851 -2.1130  0.7779  1.6637
   33CHL1   C17 3572   6.474   3.031   4.922 -0.3835 -0.2760 -0.2019
   33CHL1   H17 3573   6.379   2.981   4.949 -1.2905  1.3116 -0.3423
   33CHL1   C13 3574   6.522   3.089   5.059  0.2367  0.1947 -0.1775
   33CHL1   C18 3575   6.638   3.190   5.038 -0.3643  0.1104 -0.3712
   33CHL1  H18A 3576   6.677   3.224   5.136 -0.9443 -1.0646  0.2920
   33CHL1  H18B 3577   6.726   3.141   4.990 -1.1672 -1.5709 -0.1933
   33CHL1  H18C 3578   6.605   3.282   4.985 -1.7959  0.8854  1.7461
   33CHL1   C12 3579   6.419   3.152   5.149  0.4408 -0.2135  0.2371
   33CHL1  H12A 3580   6.384   3.252   5.116  0.7710 -0.6503 -1.4951
   33CHL1  H12B 3581   6.334   3.082   5.161 -0.2094  0.5269  0.0195
   33CHL1   C11 3582   6.475   3.182   5.294  0.6214 -0.2880 -1.3617
   33CHL1  H11A 3583   6.550   3.263   5.281  1.6677 -0.9644  0.1751
   33CHL1  H11B 3584   6.389   3.216   5.355  0.9080 -1.0853 -0.4866
   33CHL1    C9 3585   6.542   3.053   5.364 -0.4444 -0.4842 -0.2421
   33CHL1    H9 3586   6.462   2.982   5.392 -1.0901  0.9242  1.6594
   33CHL1   C10 3587   6.616   3.089   5.500  0.6873  0.7075  0.9193
   33CHL1   C19 3588   6.712   3.210   5.480  0.4358 -0.4075  0.3460
   33CHL1  H19A 3589   6.649   3.296   5.447 -0.1468 -0.5905  0.9727
   33CHL1  H19B 3590   6.765   3.228   5.575  1.1061 -1.4102  0.1789
   33CHL1  H19C 3591   6.790   3.182   5.406 -0.9486 -0.8586 -1.0179
   33CHL1    C1 3592   6.499   3.126   5.598 -0.1316  0.6648  0.1223
   33CHL1   H1A 3593   6.449   3.222   5.572 -0.7585  0.1748 -0.5525
   33CHL1   H1B 3594   6.428   3.041   5.600  0.8696 -0.5211 -3.9527
   33CHL1    C2 3595   6.545   3.144   5.744 -0.4632 -0.0867  0.8124
   33CHL1   H2A 3596   6.455   3.165   5.806 -2.1880  1.7020 -2.0568
   33CHL1   H2B 3597   6.595   3.243   5.747 -1.7967  0.7877 -2.2412
   33CHL1   C20 3598   6.450   3.123   4.806  0.0226 -0.0196 -0.0579
   33CHL1   H20 3599   6.536   3.190   4.786  0.6580 -0.7726  0.1109
   33CHL1   C21 3600   6.325   3.220   4.838 -1.0363  0.2444  0.5954
   33CHL1  H21A 3601   6.237   3.159   4.868 -0.1270 -1.8520 -0.7630
   33CHL1  H21B 3602   6.288   3.264   4.743  0.8431  0.6989  0.0275
   33CHL1  H21C 3603   6.337   3.295   4.919 -2.2110 -0.1990  1.2101
   33CHL1   C22 3604   6.418   3.051   4.670  0.8093  0.5581 -0.1063
   33CHL1  H22A 3605   6.387   3.126   4.593  0.0679  0.2913 -0.0825
   33CHL1  H22B 3606   6.509   2.995   4.643  1.8886  1.8844  0.6334
   33CHL1   C23 3607   6.292   2.959   4.675 -0.0505  0.6443  0.5185
   33CHL1  H23A 3608   6.322   2.855   4.699 -1.1228  0.2827  0.3348
   33CHL1  H23B 3609   6.219   2.983   4.755 -1.2893  1.4766 -0.8286
   33CHL1   C24 3610   6.222   2.954   4.534  0.4643  0.4124  0.0790
   33CHL1  H24A 3611   6.148   3.037   4.522  0.4434  0.4445  0.4236
   33CHL1  H24B 3612   6.305   2.962   4.461 -0.7862  3.2523 -1.1839
   33CHL1   C25 3613   6.143   2.832   4.499  0.1442  0.1248 -0.5994
   33CHL1   H25 3614   6.196   2.740   4.531  0.5151  1.1597  1.9996
   33CHL1   C26 3615   6.005   2.820   4.569 -0.0084  0.1828 -0.1221
   33CHL1  H26A 3616   5.958   2.727   4.530  1.3537 -1.8960  2.7876
   33CHL1  H26B 3617   6.023   2.815   4.679 -0.3835  0.2805 -0.0563
   33CHL1  H26C 3618   5.947   2.912   4.545  1.0842  0.2091 -3.0724
   33CHL1   C27 3619   6.123   2.821   4.353 -0.0489  0.1085 -0.0608
   33CHL1  H27A 3620   6.036   2.879   4.315  0.4477 -0.0575 -1.5209
   33CHL1  H27B 3621   6.202   2.855   4.282 -0.6184  0.4195 -0.5575
   33CHL1  H27C 3622   6.112   2.715   4.325  0.0732  0.1926 -0.4365
   34CHL1    C3 3623   2.312   3.689   5.869 -0.4508 -0.1217 -0.4923
   34CHL1    H3 3624   2.283   3.587   5.837  1.5486 -0.5489 -1.0914
   34CHL1    O3 3625   2.296   3.707   6.010  0.3148 -0.1241  0.2585
   34CHL1   H3' 3626   2.356   3.780   6.028 -1.0736  0.7309  1.6354
   34CHL1    C4 3627   2.453   3.712   5.825  0.1127 -0.2489 -0.7022
   34CHL1   H4A 3628   2.496   3.814   5.837 -1.1005  0.6706 -3.5328
   34CHL1   H4B 3629   2.512   3.635   5.880 -0.7336 -0.4295 -0.0250
   34CHL1    C5 3630   2.466   3.692   5.671 -0.9105 -0.7667 -0.6070
   34CHL1    C6 3631   2.545   3.596   5.621  0.2914  0.0149 -0.0649
   34CHL1    H6 3632   2.603   3.525   5.682  0.4087  0.0774 -0.1021
   34CHL1    C7 3633   2.559   3.578   5.472 -0.3058 -0.4007 -0.2630
   34CHL1   H7A 3634   2.666   3.558   5.451 -0.1623  1.0483 -1.0373
   34CHL1   H7B 3635   2.507   3.488   5.432  1.7449 -0.6775 -2.5250
   34CHL1    C8 3636   2.509   3.695   5.387 -0.5938 -0.2832  0.0323
   34CHL1    H8 3637   2.570   3.786   5.405 -1.6531  0.3545  0.4447
   34CHL1   C14 3638   2.515   3.656   5.241  0.5815 -0.2360 -0.2008
   34CHL1   H14 3639   2.453   3.564   5.235  0.7063 -0.3505  0.2605
   34CHL1   C15 3640   2.647   3.616   5.171 -0.3359 -0.0624  0.3135
   34CHL1  H15A 3641   2.719   3.700   5.186 -1.7641  1.1544  0.6066
   34CHL1  H15B 3642   2.679   3.520   5.216 -3.1847 -1.3752 -0.2250
   34CHL1   C16 3643   2.602   3.618   5.023  1.2237  0.2001 -0.1759
   34CHL1  H16A 3644   2.671   3.679   4.961  1.4456  0.1462  0.0121
   34CHL1  H16B 3645   2.606   3.517   4.977 -0.3167  0.7742 -1.6372
   34CHL1   C17 3646   2.455   3.673   5.015 -0.1363  0.1347  0.1573
   34CHL1   H17 3647   2.392   3.582   5.025 -3.0919  1.7212 -2.3441
   34CHL1   C13 3648   2.437   3.753   5.148  0.3831  0.5552 -0.2458
   34CHL1   C18 3649   2.503   3.888   5.145 -0.7997  0.6560  0.0180
   34CHL1  H18A 3650   2.609   3.870   5.116 -0.7794 -2.9518  1.7825
   34CHL1  H18B 3651   2.468   3.965   5.073 -0.9158  0.6576  0.0771
   34CHL1  H18C 3652   2.507   3.933   5.246  0.7571  0.7099 -0.0435
   34CHL1   C12 3653   2.290   3.763   5.202 -0.0422 -0.1986  0.1950
   34CHL1  H12A 3654   2.238   3.833   5.133  0.0157 -0.5602 -0.2215
   34CHL1  H12B 3655   2.240   3.663   5.202 -0.6672  0.1091  0.2454
   34CHL1   C11 3656   2.288   3.813   5.344 -0.0835 -0.4222 -0.0967
   34CHL1  H11A 3657   2.324   3.918   5.352 -1.3304  0.0892 -0.8270
   34CHL1  H11B 3658   2.182   3.819   5.377 -0.4164  1.9967 -1.3553
   34CHL1    C9 3659   2.371   3.726   5.440  0.2984  0.1858 -0.8933
   34CHL1    H9 3660   2.313   3.632   5.443  0.0184  0.3778  1.1357
   34CHL1   C10 3661   2.371   3.771   5.587  0.5009 -0.6932  0.4116
   34CHL1   C19 3662   2.415   3.924   5.601  0.1782  0.1120 -0.2711
   34CHL1  H19A 3663   2.416   3.961   5.706 -1.1682  1.1053 -0.5816
   34CHL1  H19B 3664   2.518   3.935   5.560  1.1963 -2.9713  1.0866
   34CHL1  H19C 3665   2.334   3.978   5.549 -0.7619 -1.3816 -0.4095
   34CHL1    C1 3666   2.223   3.761   5.639 -0.0554  0.4245  0.3152
   34CHL1   H1A 3667   2.156   3.835   5.592  0.4204  0.2846 -0.6155
   34CHL1   H1B 3668   2.178   3.661   5.620 -0.5544  1.3195 -4.6552
   34CHL1    C2 3669   2.218   3.783   5.789  1.1635 -0.1111 -1.2250
   34CHL1   H2A 3670   2.115   3.759   5.824  2.4493 -1.8772  1.7316
   34CHL1   H2B 3671   2.248   3.887   5.814  1.3637 -0.4526  0.0427
   34CHL1   C20 3672   2.426   3.745   4.886 -0.8463  0.4722  0.4718
   34CHL1   H20 3673   2.477   3.843   4.889  0.8986 -0.3850  0.0003
   34CHL1   C21 3674   2.276   3.782   4.867  0.5484 -0.1300  0.3718
   34CHL1  H21A 3675   2.248   3.862   4.939  0.0984  0.0734 -0.0233
   34CHL1  H21B 3676   2.202   3.706   4.901  0.4825  0.0283  0.5835
   34CHL1  H21C 3677   2.248   3.811   4.764 -0.6232  0.2734  0.7806
   34CHL1   C22 3678   2.483   3.682   4.753 -0.3181 -0.3111  1.0441
   34CHL1  H22A 3679   2.452   3.757   4.677  0.0421  0.1319  1.3327
   34CHL1  H22B 3680   2.594   3.685   4.756 -0.2823 -0.6221  0.3519
   34CHL1   C23 3681   2.443   3.538   4.721 -0.5483 -0.5195 -1.0612
   34CHL1  H23A 3682   2.490   3.482   4.805 -0.3310  2.6210  1.0909
   34CHL1  H23B 3683   2.333   3.527   4.734 -0.4177  0.2278  1.1578
   34CHL1   C24 3684   2.485   3.487   4.583  0.0197  0.2863  0.5298
   34CHL1  H24A 3685   2.594   3.491   4.567 -0.3304  1.8269 -1.9996
   34CHL1  H24B 3686   2.451   3.381   4.588 -0.2172  0.3544  0.4234
   34CHL1   C25 3687   2.422   3.558   4.460  0.0213 -0.2606  0.2820
   34CHL1   H25 3688   2.443   3.666   4.470 -0.9710 -0.1813  1.7832
   34CHL1   C26 3689   2.486   3.503   4.337  0.0937  0.8772  0.0797
   34CHL1  H26A 3690   2.443   3.544   4.243  0.3916 -0.3482 -0.6115
   34CHL1  H26B 3691   2.596   3.512   4.342  0.3000 -1.4161  0.6921
   34CHL1  H26C 3692   2.469   3.394   4.338 -2.1312  1.0859  3.4788
   34CHL1   C27 3693   2.272   3.531   4.458  0.1542 -0.0662 -0.6133
   34CHL1  H27A 3694   2.232   3.569   4.554  0.9082  0.0766 -0.3445
   34CHL1  H27B 3695   2.217   3.600   4.391 -1.4988  1.6411  2.3030
   34CHL1  H27C 3696   2.239   3.425   4.459  2.3340 -0.7853 -0.0077
   35CHL1    C3 3697   4.632   0.504   5.705 -0.0250  0.4483 -0.2620
   35CHL1    H3 3698   4.540   0.446   5.680 -1.7761  3.5376 -1.6428
   35CHL1    O3 3699   4.644   0.503   5.843  0.3406 -0.1476  0.6221
   35CHL1   H3' 3700   4.557   0.535   5.865  0.6296 -0.0018  1.5900
   35CHL1    C4 3701   4.751   0.440   5.640 -0.2930 -0.8149  0.4902
   35CHL1   H4A 3702   4.850   0.486   5.662  0.7217 -1.9440 -1.4371
   35CHL1   H4B 3703   4.754   0.336   5.679 -0.0888 -1.4023 -1.0172
   35CHL1    C5 3704   4.738   0.452   5.487 -0.1520 -0.0979  0.4957
   35CHL1    C6 3705   4.751   0.350   5.409  0.5142  0.5510  0.3198
   35CHL1    H6 3706   4.762   0.251   5.454  1.8543  0.1061 -0.8958
   35CHL1    C7 3707   4.750   0.355   5.263  0.2252  0.0396  0.4618
   35CHL1   H7A 3708   4.826   0.280   5.231  0.0720  0.1013 -0.0618
   35CHL1   H7B 3709   4.658   0.305   5.226 -1.0514  3.5322 -1.5055
   35CHL1    C8 3710   4.764   0.494   5.206 -0.0291 -0.0831 -0.0885
   35CHL1    H8 3711   4.875   0.504   5.212  0.0121 -0.8801  0.8403
   35CHL1   C14 3712   4.720   0.495   5.063 -0.0955 -0.2298  0.0357
   35CHL1   H14 3713   4.611   0.476   5.066 -0.0917 -0.8982 -2.1837
   35CHL1   C15 3714   4.778   0.388   4.973 -0.4062 -0.2029 -0.5640
   35CHL1  H15A 3715   4.888   0.376   4.986 -0.3675 -0.4632 -1.0963
   35CHL1  H15B 3716   4.737   0.285   4.976 -1.1396  0.1133  1.0680
   35CHL1   C16 3717   4.755   0.445   4.829 -0.0449 -0.2670 -0.2740
   35CHL1  H16A 3718   4.855   0.455   4.781 -0.2995 -0.5194 -0.8613
   35CHL1  H16B 3719   4.690   0.391   4.758 -0.4469  1.2611 -1.1240
   35CHL1   C17 3720   4.690   0.583   4.857 -1.0058 -0.2513 -0.0010
   35CHL1   H17 3721   4.583   0.555   4.866 -1.2520  0.6107 -0.2605
   35CHL1   C13 3722   4.740   0.629   4.996 -0.3037  0.4147  0.0128
   35CHL1   C18 3723   4.890   0.661   4.984 -0.1452  0.6329 -0.0763
   35CHL1  H18A 3724   4.916   0.757   4.934  1.2666  0.8721  1.0728
   35CHL1  H18B 3725   4.929   0.669   5.087  0.5772  3.3059 -0.4946
   35CHL1  H18C 3726   4.951   0.580   4.938 -0.1862 -0.3329  1.5040
   35CHL1   C12 3727   4.661   0.737   5.062  0.3974 -0.9040  0.9255
   35CHL1  H12A 3728   4.681   0.833   5.010 -4.1399 -0.6551 -0.8041
   35CHL1  H12B 3729   4.554   0.713   5.046  0.5049 -1.2676  0.7374
   35CHL1   C11 3730   4.691   0.743   5.214 -0.8820  0.3207 -0.0685
   35CHL1  H11A 3731   4.798   0.770   5.218 -1.2748  2.1341 -0.7262
   35CHL1  H11B 3732   4.635   0.827   5.262 -0.9536  0.4030 -0.2963
   35CHL1    C9 3733   4.682   0.603   5.286  0.1815  0.3211 -0.1817
   35CHL1    H9 3734   4.579   0.565   5.268  1.1379 -3.2300  1.1175
   35CHL1   C10 3735   4.720   0.593   5.435 -0.5294 -0.5636 -0.5788
   35CHL1   C19 3736   4.854   0.664   5.450 -0.5919 -0.4533  0.1886
   35CHL1  H19A 3737   4.852   0.770   5.416  2.6335  0.0085  1.1227
   35CHL1  H19B 3738   4.893   0.667   5.554  0.7881  3.7579 -0.2613
   35CHL1  H19C 3739   4.933   0.620   5.386 -0.2678 -0.4204  0.5633
   35CHL1    C1 3740   4.604   0.659   5.507  0.2769  0.0921  0.0165
   35CHL1   H1A 3741   4.590   0.764   5.475  0.9243  0.9166  2.2221
   35CHL1   H1B 3742   4.510   0.604   5.485  0.2033  1.1042 -2.5739
   35CHL1    C2 3743   4.616   0.655   5.660 -0.5727  0.6685  0.1837
   35CHL1   H2A 3744   4.521   0.687   5.709 -1.7892 -3.5221  0.9563
   35CHL1   H2B 3745   4.701   0.721   5.686 -0.8623  1.4737 -0.8457
   35CHL1   C20 3746   4.705   0.683   4.744 -0.2785 -0.2572  0.2922
   35CHL1   H20 3747   4.806   0.730   4.752 -0.2975 -0.2223  0.3282
   35CHL1   C21 3748   4.580   0.776   4.750  0.1812  0.2751  0.0641
   35CHL1  H21A 3749   4.487   0.723   4.723  0.9923 -1.9525  1.4264
   35CHL1  H21B 3750   4.598   0.861   4.680  0.0344  2.0207  2.0658
   35CHL1  H21C 3751   4.565   0.833   4.844  2.2267  0.9114  0.0693
   35CHL1   C22 3752   4.692   0.610   4.604  0.5467 -0.4610  0.2583
   35CHL1  H22A 3753   4.764   0.527   4.591  1.1545 -0.3465  2.4760
   35CHL1  H22B 3754   4.593   0.560   4.608  1.3540 -2.0764  0.7756
   35CHL1   C23 3755   4.723   0.693   4.478 -0.1099  0.1716 -0.1165
   35CHL1  H23A 3756   4.647   0.775   4.480 -1.0247 -0.6551  0.8079
   35CHL1  H23B 3757   4.823   0.740   4.487  0.5412 -0.8852 -1.4644
   35CHL1   C24 3758   4.706   0.611   4.353  0.4235  0.2345  0.0671
   35CHL1  H24A 3759   4.763   0.516   4.357 -0.0908 -0.0412  0.8340
   35CHL1  H24B 3760   4.604   0.575   4.330  0.3993  0.7290 -0.6445
   35CHL1   C25 3761   4.746   0.685   4.224  0.7870 -0.2378  0.3597
   35CHL1   H25 3762   4.842   0.736   4.244  0.6236  0.5096 -0.6907
   35CHL1   C26 3763   4.755   0.593   4.109 -0.2432  1.0745 -0.1307
   35CHL1  H26A 3764   4.677   0.515   4.111  1.1749 -0.3749  0.5251
   35CHL1  H26B 3765   4.749   0.648   4.012  1.2362  1.4322 -0.0467
   35CHL1  H26C 3766   4.859   0.554   4.112 -1.1308 -1.4207  0.8935
   35CHL1   C27 3767   4.646   0.796   4.191 -0.2116 -0.2174 -0.0456
   35CHL1  H27A 3768   4.647   0.880   4.264  1.3222 -2.4194  2.6444
   35CHL1  H27B 3769   4.685   0.844   4.098  1.4561  1.1496  1.3101
   35CHL1  H27C 3770   4.542   0.757   4.192 -0.5491  0.6502  0.5716
   36CHL1    C3 3771   0.941   3.487   5.895  0.4613 -0.3464 -0.3275
   36CHL1    H3 3772   0.853   3.554   5.880  1.8416  1.7170  0.4279
   36CHL1    O3 3773   0.934   3.454   6.033 -0.1744 -0.0041  0.0152
   36CHL1   H3' 3774   0.838   3.444   6.034 -0.1925  0.1483 -0.1276
   36CHL1    C4 3775   0.935   3.361   5.812 -0.5720 -0.1122  0.0569
   36CHL1   H4A 3776   1.014   3.291   5.847  0.1187  0.7277  0.2244
   36CHL1   H4B 3777   0.839   3.314   5.841 -1.7074  0.9857 -1.6861
   36CHL1    C5 3778   0.944   3.392   5.667 -0.4324  0.1439  0.0405
   36CHL1    C6 3779   0.843   3.345   5.589 -0.6894 -0.6227  0.0587
   36CHL1    H6 3780   0.766   3.281   5.633 -0.7238  0.0155  0.9332
   36CHL1    C7 3781   0.848   3.372   5.439  0.4300  0.1176 -0.6169
   36CHL1   H7A 3782   0.820   3.278   5.385 -1.6450  0.2634  0.1138
   36CHL1   H7B 3783   0.775   3.453   5.416 -1.0439 -0.8658  0.4152
   36CHL1    C8 3784   0.986   3.424   5.389  0.2573 -0.1500 -1.2843
   36CHL1    H8 3785   1.063   3.345   5.405 -0.1841 -0.2479  0.4843
   36CHL1   C14 3786   0.979   3.463   5.242  0.7454 -0.3860 -0.3410
   36CHL1   H14 3787   0.915   3.554   5.243  1.0445 -0.1730 -0.4788
   36CHL1   C15 3788   0.915   3.362   5.149  0.9887 -0.0554  1.2897
   36CHL1  H15A 3789   0.923   3.258   5.186 -2.6276 -0.3980  1.4955
   36CHL1  H15B 3790   0.806   3.384   5.140  1.0541 -0.6475 -3.8454
   36CHL1   C16 3791   0.983   3.400   5.013 -0.9899 -0.3564 -0.1306
   36CHL1  H16A 3792   1.050   3.316   4.985 -0.4364  0.1188 -0.2573
   36CHL1  H16B 3793   0.904   3.412   4.936  0.0538  0.8765 -1.0569
   36CHL1   C17 3794   1.073   3.525   5.034  0.1341 -0.5785  0.2635
   36CHL1   H17 3795   1.010   3.617   5.025  1.2099  0.1872  0.3539
   36CHL1   C13 3796   1.111   3.516   5.186 -0.1711 -0.3334 -0.1794
   36CHL1   C18 3797   1.220   3.410   5.200 -0.2523 -0.3738 -0.8052
   36CHL1  H18A 3798   1.317   3.446   5.159  0.0453  0.3676  0.5107
   36CHL1  H18B 3799   1.243   3.387   5.306  0.5945  0.4876 -0.7864
   36CHL1  H18C 3800   1.194   3.318   5.145  2.4515 -1.2120 -0.8345
   36CHL1   C12 3801   1.147   3.649   5.264 -0.1644 -0.3220  0.3978
   36CHL1  H12A 3802   1.245   3.697   5.242 -1.0315  0.5399 -1.8883
   36CHL1  H12B 3803   1.074   3.724   5.227  1.1061  1.7229  1.8023
   36CHL1   C11 3804   1.149   3.628   5.410 -0.0595  0.3041 -0.7918
   36CHL1  H11A 3805   1.242   3.568   5.423 -1.0921 -1.6530 -2.0061
   36CHL1  H11B 3806   1.157   3.728   5.459 -2.8447  0.1446  0.1441
   36CHL1    C9 3807   1.036   3.542   5.471  0.5140 -0.5776  0.5498
   36CHL1    H9 3808   0.956   3.619   5.472 -0.0932 -0.8269 -4.3790
   36CHL1   C10 3809   1.050   3.488   5.618 -0.9528  0.5696 -0.1083
   36CHL1   C19 3810   1.183   3.399   5.628 -0.4213  0.2686  0.2888
   36CHL1  H19A 3811   1.202   3.375   5.735 -0.8633 -1.1219  0.0628
   36CHL1  H19B 3812   1.189   3.313   5.558  0.0760 -0.9742  1.8111
   36CHL1  H19C 3813   1.263   3.474   5.608 -1.8539  1.3394 -1.7946
   36CHL1    C1 3814   1.063   3.603   5.720 -0.5242 -0.1108  0.0788
   36CHL1   H1A 3815   1.155   3.660   5.693  0.0466  0.4485  2.8859
   36CHL1   H1B 3816   0.978   3.673   5.704  1.3762  2.4498  0.5139
   36CHL1    C2 3817   1.063   3.576   5.872 -0.1319 -0.1217 -0.2418
   36CHL1   H2A 3818   1.056   3.672   5.927 -1.1710  0.5901 -1.5326
   36CHL1   H2B 3819   1.148   3.513   5.903  0.0965  0.9080  1.3078
   36CHL1   C20 3820   1.180   3.543   4.932 -0.4323 -0.8569  0.0564
   36CHL1   H20 3821   1.248   3.455   4.941  1.2120  0.1629 -1.5432
   36CHL1   C21 3822   1.263   3.675   4.957  0.3752 -0.6261  0.1073
   36CHL1  H21A 3823   1.327   3.670   5.047  0.1277 -0.7044  0.2795
   36CHL1  H21B 3824   1.198   3.758   4.991 -0.6853 -1.7809  1.0222
   36CHL1  H21C 3825   1.336   3.703   4.878  1.1973 -0.2093  0.9947
   36CHL1   C22 3826   1.128   3.550   4.788  0.9492 -0.0628 -0.4561
   36CHL1  H22A 3827   1.056   3.468   4.769  0.5981 -0.0729  0.8461
   36CHL1  H22B 3828   1.062   3.638   4.775  3.0654  1.4671 -1.3134
   36CHL1   C23 3829   1.231   3.557   4.669 -0.8061  0.1521 -0.4999
   36CHL1  H23A 3830   1.289   3.649   4.689 -0.3318 -0.5838  1.8313
   36CHL1  H23B 3831   1.299   3.470   4.682  1.5702  2.1059  0.8926
   36CHL1   C24 3832   1.166   3.564   4.537 -0.3037  0.1235  0.3277
   36CHL1  H24A 3833   1.120   3.465   4.517  0.7691  0.1608 -2.9372
   36CHL1  H24B 3834   1.085   3.639   4.547  0.2411  1.0192 -1.5867
   36CHL1   C25 3835   1.241   3.604   4.409 -0.3153  0.6534 -0.4367
   36CHL1   H25 3836   1.260   3.713   4.410 -0.2740  0.6395  0.4362
   36CHL1   C26 3837   1.371   3.533   4.393 -1.2488  0.0336 -1.2833
   36CHL1  H26A 3838   1.351   3.426   4.369 -1.0199 -0.1836 -0.5345
   36CHL1  H26B 3839   1.432   3.578   4.312 -1.0906 -0.8507 -1.6758
   36CHL1  H26C 3840   1.431   3.539   4.487 -4.4522  0.3259  0.8846
   36CHL1   C27 3841   1.160   3.580   4.279 -0.2529 -0.1613 -0.2862
   36CHL1  H27A 3842   1.219   3.602   4.187 -0.7095  1.7041 -0.1659
   36CHL1  H27B 3843   1.134   3.472   4.279  0.9013 -0.4514 -0.0669
   36CHL1  H27C 3844   1.063   3.634   4.275 -3.3223 -4.7447  2.7652
   37CHL1    C3 3845   1.778   0.903   6.235 -0.0179  0.8383 -0.2372
   37CHL1    H3 3846   1.859   0.979   6.236  0.1599  0.6460  0.2252
   37CHL1    O3 3847   1.747   0.864   6.365 -0.4961  0.2298 -0.7878
   37CHL1   H3' 3848   1.722   0.772   6.354  1.6646 -0.2833 -1.7858
   37CHL1    C4 3849   1.655   0.960   6.158 -0.0555 -0.1920 -0.1739
   37CHL1   H4A 3850   1.564   0.903   6.185 -0.0817 -0.3684 -0.6225
   37CHL1   H4B 3851   1.652   1.057   6.211 -1.1126 -1.2940  1.8801
   37CHL1    C5 3852   1.678   0.973   6.009  0.4534 -0.1958  0.4035
   37CHL1    C6 3853   1.657   1.092   5.949 -0.3703  0.1036  0.5411
   37CHL1    H6 3854   1.632   1.184   6.004  0.9221  1.0046 -0.2956
   37CHL1    C7 3855   1.688   1.116   5.804  0.1782 -0.3974  0.0196
   37CHL1   H7A 3856   1.604   1.171   5.757  1.1400  0.0741 -1.1944
   37CHL1   H7B 3857   1.779   1.179   5.796 -1.3831  1.8475 -1.2162
   37CHL1    C8 3858   1.704   0.987   5.716  0.1688 -0.5476  0.6484
   37CHL1    H8 3859   1.604   0.939   5.707  0.1056 -0.3845  0.4816
   37CHL1   C14 3860   1.769   1.026   5.579  0.2712 -0.1288 -0.6720
   37CHL1   H14 3861   1.858   1.083   5.614  0.2428 -1.4108  1.7469
   37CHL1   C15 3862   1.689   1.129   5.489 -0.0932 -0.8876  0.1624
   37CHL1  H15A 3863   1.581   1.115   5.506  0.0243 -2.2165 -0.0887
   37CHL1  H15B 3864   1.721   1.228   5.528  0.6987 -1.4663  1.0419
   37CHL1   C16 3865   1.749   1.113   5.353  1.7040  1.0911  0.3614
   37CHL1  H16A 3866   1.662   1.083   5.291  1.1810  2.7393  0.2606
   37CHL1  H16B 3867   1.794   1.204   5.307 -0.6375  2.1438  0.0404
   37CHL1   C17 3868   1.851   0.992   5.366 -0.5656 -0.2654 -0.9672
   37CHL1   H17 3869   1.940   1.053   5.391 -0.2736 -0.8372 -0.6045
   37CHL1   C13 3870   1.808   0.914   5.493 -0.5012 -0.8039  1.0248
   37CHL1   C18 3871   1.684   0.831   5.465  0.0647 -0.6587 -0.4738
   37CHL1  H18A 3872   1.606   0.899   5.425  1.5538  1.2498 -0.2733
   37CHL1  H18B 3873   1.702   0.758   5.382 -2.9831  0.7715 -2.5822
   37CHL1  H18C 3874   1.640   0.771   5.548  1.1558  0.6099  1.0648
   37CHL1   C12 3875   1.907   0.821   5.565  0.5261  0.3916  0.4032
   37CHL1  H12A 3876   1.927   0.732   5.501 -0.9397  0.1922  0.1845
   37CHL1  H12B 3877   1.999   0.880   5.581 -0.0780  1.0590  1.5449
   37CHL1   C11 3878   1.847   0.774   5.705  0.0733  0.2268  0.2951
   37CHL1  H11A 3879   1.768   0.701   5.676  2.1108 -1.5863 -0.9903
   37CHL1  H11B 3880   1.929   0.718   5.753  0.6926 -0.1020 -1.0972
   37CHL1    C9 3881   1.800   0.891   5.792  0.7017  0.5895 -0.4797
   37CHL1    H9 3882   1.895   0.946   5.811  0.0416  1.4691  0.4053
   37CHL1   C10 3883   1.742   0.850   5.936  1.1163  0.4325  0.2159
   37CHL1   C19 3884   1.627   0.737   5.929  0.1455 -0.9559  1.0617
   37CHL1  H19A 3885   1.590   0.715   6.032  0.7427 -0.2646  1.4387
   37CHL1  H19B 3886   1.542   0.767   5.864  1.5607 -0.0802 -0.4747
   37CHL1  H19C 3887   1.660   0.644   5.879 -1.4453 -1.2894  0.5867
   37CHL1    C1 3888   1.863   0.800   6.022  0.4183  1.3022  0.3837
   37CHL1   H1A 3889   1.902   0.701   5.989 -1.7221  0.5780 -0.1566
   37CHL1   H1B 3890   1.945   0.875   6.027  0.9734  0.9393 -2.1992
   37CHL1    C2 3891   1.826   0.769   6.171 -0.7528 -0.1794  0.5607
   37CHL1   H2A 3892   1.912   0.716   6.215 -2.0065 -1.5355  1.4467
   37CHL1   H2B 3893   1.741   0.698   6.168  0.3261 -1.5016  0.3153
   37CHL1   C20 3894   1.886   0.917   5.239  0.6380  0.1906  0.6065
   37CHL1   H20 3895   1.804   0.847   5.211  0.3633  0.2419  1.2661
   37CHL1   C21 3896   2.013   0.833   5.253  0.4291  0.2170 -0.0371
   37CHL1  H21A 3897   2.028   0.788   5.353  2.3629  1.8371  0.4460
   37CHL1  H21B 3898   2.106   0.891   5.237 -0.2125  1.1585 -0.4278
   37CHL1  H21C 3899   2.012   0.743   5.187 -1.2172 -1.2984  1.8974
   37CHL1   C22 3900   1.897   1.007   5.116  0.3840 -0.0361  0.1443
   37CHL1  H22A 3901   1.802   1.059   5.089 -0.3798 -1.5859 -0.2358
   37CHL1  H22B 3902   1.964   1.092   5.140 -1.0317  1.0877  0.2501
   37CHL1   C23 3903   1.926   0.932   4.985 -0.5497  0.2181 -0.0379
   37CHL1  H23A 3904   2.027   0.886   4.991 -1.5019 -2.0652 -0.3858
   37CHL1  H23B 3905   1.861   0.843   4.967 -1.5028  0.9528 -0.3251
   37CHL1   C24 3906   1.931   1.017   4.857 -0.4166  0.7228 -0.8212
   37CHL1  H24A 3907   1.827   1.053   4.840 -0.0791  1.1933 -1.9591
   37CHL1  H24B 3908   2.002   1.102   4.870 -0.2414  0.5971 -0.9568
   37CHL1   C25 3909   1.968   0.947   4.724  0.5968  0.4448 -0.0766
   37CHL1   H25 3910   1.925   0.845   4.726 -3.2312  1.9222  2.4146
   37CHL1   C26 3911   1.924   1.023   4.597 -0.1526  0.0961 -0.3412
   37CHL1  H26A 3912   1.987   0.997   4.509  2.1577 -0.1882  1.2880
   37CHL1  H26B 3913   1.814   1.014   4.583 -0.4732 -0.9415  2.2756
   37CHL1  H26C 3914   1.948   1.128   4.622  0.1740 -0.4028  1.6719
   37CHL1   C27 3915   2.120   0.917   4.721  0.0656 -0.4855 -0.1247
   37CHL1  H27A 3916   2.153   0.904   4.616  1.8214 -0.2776  0.3674
   37CHL1  H27B 3917   2.176   1.008   4.753  0.2274 -1.0451  1.2589
   37CHL1  H27C 3918   2.144   0.830   4.786 -2.3795  0.4907  2.3172
   38CHL1    C3 3919   1.332   1.418   5.724 -0.0509  0.6795 -0.2064
   38CHL1    H3 3920   1.340   1.309   5.706  0.0916  0.9736 -2.1318
   38CHL1    O3 3921   1.362   1.465   5.855 -0.0430  0.7042 -0.3047
   38CHL1   H3' 3922   1.296   1.428   5.914  0.7381 -0.6530 -0.2400
   38CHL1    C4 3923   1.419   1.501   5.632  0.3404  0.2396  0.2455
   38CHL1   H4A 3924   1.391   1.608   5.625  0.8847  0.3428 -0.4621
   38CHL1   H4B 3925   1.526   1.493   5.660 -0.2908 -0.6019  2.6989
   38CHL1    C5 3926   1.395   1.459   5.490 -0.2568 -0.1839  0.6415
   38CHL1    C6 3927   1.496   1.417   5.409  0.3339 -0.0618  0.9869
   38CHL1    H6 3928   1.598   1.404   5.449  0.0236  0.3962  1.9642
   38CHL1    C7 3929   1.479   1.400   5.255  0.3136 -0.2292 -0.6425
   38CHL1   H7A 3930   1.562   1.450   5.202  2.1813 -0.5060  1.8277
   38CHL1   H7B 3931   1.482   1.289   5.247  1.8551 -0.2928  0.3464
   38CHL1    C8 3932   1.345   1.450   5.202  0.1020  0.1053  0.5965
   38CHL1    H8 3933   1.345   1.561   5.206 -0.6955  0.1152  0.6422
   38CHL1   C14 3934   1.306   1.393   5.067  0.5375 -0.6901  1.6863
   38CHL1   H14 3935   1.308   1.282   5.070 -1.0260 -0.7330  2.0505
   38CHL1   C15 3936   1.403   1.430   4.950 -0.1929 -0.6170  0.3161
   38CHL1  H15A 3937   1.420   1.537   4.970  0.5381 -1.0203  2.0766
   38CHL1  H15B 3938   1.498   1.372   4.942  1.3170  1.4424  1.9533
   38CHL1   C16 3939   1.320   1.409   4.819 -0.2378  0.1057  0.0767
   38CHL1  H16A 3940   1.315   1.506   4.764 -2.2952  1.0321  1.7283
   38CHL1  H16B 3941   1.357   1.317   4.769  0.2181 -0.3578  1.2311
   38CHL1   C17 3942   1.179   1.370   4.872  0.3240  0.1816  0.6733
   38CHL1   H17 3943   1.175   1.259   4.885  1.6793 -0.6062 -3.9120
   38CHL1   C13 3944   1.160   1.423   5.013 -0.8105  0.1325  0.7149
   38CHL1   C18 3945   1.126   1.575   4.992  0.1697  0.1857 -0.4631
   38CHL1  H18A 3946   1.019   1.604   4.982 -0.2017 -1.0611 -0.2921
   38CHL1  H18B 3947   1.155   1.620   5.089  3.6436 -1.4876 -0.5669
   38CHL1  H18C 3948   1.186   1.625   4.913  1.3030 -1.5759 -0.7856
   38CHL1   C12 3949   1.072   1.358   5.110 -0.8780  0.2272 -0.7973
   38CHL1  H12A 3950   0.968   1.363   5.070 -1.7326 -1.0049  1.1223
   38CHL1  H12B 3951   1.091   1.248   5.117  2.0263  0.3128 -4.4485
   38CHL1   C11 3952   1.086   1.410   5.248 -0.5422  0.1720 -0.0482
   38CHL1  H11A 3953   1.035   1.509   5.251 -1.7034 -0.4136  0.9622
   38CHL1  H11B 3954   1.019   1.347   5.311  1.7610 -1.3300  1.0597
   38CHL1    C9 3955   1.235   1.407   5.299  0.3040 -0.1845 -0.4110
   38CHL1    H9 3956   1.260   1.301   5.319  0.0389  0.1545  2.0720
   38CHL1   C10 3957   1.246   1.480   5.440 -0.4628 -0.2086  0.4321
   38CHL1   C19 3958   1.212   1.628   5.425 -0.0508 -0.0843  0.3358
   38CHL1  H19A 3959   1.285   1.687   5.366 -0.6529  2.1936  1.7446
   38CHL1  H19B 3960   1.115   1.643   5.374  0.2208  0.7883  0.0630
   38CHL1  H19C 3961   1.211   1.686   5.519  0.1780 -1.7587  1.4140
   38CHL1    C1 3962   1.156   1.412   5.546  0.2343 -0.4491 -0.2617
   38CHL1   H1A 3963   1.057   1.456   5.522 -0.9239 -2.0369  1.3648
   38CHL1   H1B 3964   1.138   1.303   5.539 -0.4633 -0.2516 -1.8852
   38CHL1    C2 3965   1.187   1.451   5.689  0.4867  0.3782 -0.2539
   38CHL1   H2A 3966   1.121   1.403   5.764  1.9524 -1.7834 -0.2622
   38CHL1   H2B 3967   1.163   1.559   5.702  0.3164  0.1051  2.2578
   38CHL1   C20 3968   1.063   1.381   4.776 -0.9354  0.8043  0.4471
   38CHL1   H20 3969   0.964   1.386   4.825 -1.8068  1.4526 -1.3258
   38CHL1   C21 3970   1.061   1.254   4.690 -0.5405  0.3389  0.7123
   38CHL1  H21A 3971   1.160   1.245   4.640 -0.2819  1.8390  0.8968
   38CHL1  H21B 3972   0.983   1.240   4.612  1.3974 -2.7123 -0.8842
   38CHL1  H21C 3973   1.046   1.165   4.755 -0.6210  1.7131  2.6636
   38CHL1   C22 3974   1.082   1.508   4.677 -0.6265  0.8713  0.0548
   38CHL1  H22A 3975   1.122   1.599   4.727  0.1692  0.3734  0.3438
   38CHL1  H22B 3976   1.151   1.488   4.592  0.5224  1.3353  0.8484
   38CHL1   C23 3977   0.946   1.555   4.621  0.1354  0.2778 -0.6938
   38CHL1  H23A 3978   0.902   1.464   4.574  0.5172 -0.8347  1.0318
   38CHL1  H23B 3979   0.879   1.589   4.702 -2.1749 -1.9429 -1.5058
   38CHL1   C24 3980   0.966   1.664   4.504 -0.5710  0.1345 -1.7889
   38CHL1  H24A 3981   0.875   1.722   4.480 -0.2601  1.1778 -0.5580
   38CHL1  H24B 3982   1.029   1.746   4.545  0.0408 -0.6581 -1.0770
   38CHL1   C25 3983   1.037   1.612   4.372 -0.2247  0.4717 -0.7874
   38CHL1   H25 3984   1.134   1.565   4.397 -0.5311  0.9545  1.5157
   38CHL1   C26 3985   0.952   1.505   4.302  0.0659  0.0310 -0.5364
   38CHL1  H26A 3986   0.940   1.411   4.361 -1.1927  0.3459 -0.2677
   38CHL1  H26B 3987   0.854   1.537   4.261 -0.2334  1.2428  1.0307
   38CHL1  H26C 3988   1.013   1.472   4.216  0.8568 -1.0587  0.4056
   38CHL1   C27 3989   1.063   1.731   4.280  0.0998  0.3470 -0.1499
   38CHL1  H27A 3990   1.123   1.814   4.324 -1.9123  1.6996  0.1630
   38CHL1  H27B 3991   1.115   1.702   4.186  0.0323  1.7855 -0.6491
   38CHL1  H27C 3992   0.971   1.786   4.250 -1.2404 -1.5740  0.2508
   39CHL1    C3 3993   4.205   5.886   6.149 -0.7717 -0.4469 -0.1728
   39CHL1    H3 3994   4.140   5.974   6.170 -0.9657 -0.6780  0.2163
   39CHL1    O3 3995   4.271   5.849   6.276  0.0467 -0.5288 -0.4851
   39CHL1   H3' 3996   4.353   5.804   6.254 -0.0512 -1.0414  0.1654
   39CHL1    C4 3997   4.114   5.772   6.096  0.1322  0.1182  0.4711
   39CHL1   H4A 3998   4.173   5.680   6.081  1.5525  1.2160 -1.0592
   39CHL1   H4B 3999   4.030   5.753   6.167 -0.4598  0.1098 -0.2108
   39CHL1    C5 4000   4.057   5.814   5.957  0.3324 -0.8432 -0.1540
   39CHL1    C6 4001   3.927   5.818   5.936  0.3945  0.1273 -1.0352
   39CHL1    H6 4002   3.858   5.784   6.014  0.4516  1.1687 -0.5156
   39CHL1    C7 4003   3.868   5.854   5.803  0.7540  0.2149  0.5485
   39CHL1   H7A 4004   3.782   5.793   5.769  0.8736 -0.9297  2.1710
   39CHL1   H7B 4005   3.837   5.960   5.809 -2.4861 -0.5267 -0.7484
   39CHL1    C8 4006   3.983   5.846   5.689  0.4146 -0.1971  0.2553
   39CHL1    H8 4007   4.006   5.741   5.662  0.5981  0.0349 -0.5228
   39CHL1   C14 4008   3.929   5.907   5.558 -0.8682  0.5341  0.4606
   39CHL1   H14 4009   3.884   6.003   5.592 -4.1516 -0.9387  0.6676
   39CHL1   C15 4010   3.799   5.845   5.507  0.4288  0.2478  0.7182
   39CHL1  H15A 4011   3.818   5.736   5.518 -1.8491 -0.3651 -0.8596
   39CHL1  H15B 4012   3.713   5.880   5.568 -2.0884  0.1657 -2.5152
   39CHL1   C16 4013   3.797   5.896   5.362 -0.0087 -0.5710 -0.5148
   39CHL1  H16A 4014   3.765   5.822   5.285 -1.0958 -0.3334 -0.3132
   39CHL1  H16B 4015   3.722   5.978   5.351 -0.5694 -1.0514 -0.3292
   39CHL1   C17 4016   3.929   5.984   5.335  0.1007  0.5864 -0.2554
   39CHL1   H17 4017   3.903   6.088   5.364  0.3938  0.1501  1.6505
   39CHL1   C13 4018   4.030   5.925   5.440  0.3703  0.4685  0.7539
   39CHL1   C18 4019   4.073   5.784   5.398 -0.1034 -0.3454  0.1330
   39CHL1  H18A 4020   4.148   5.796   5.317  0.0824  2.0581  0.6136
   39CHL1  H18B 4021   4.130   5.737   5.481 -2.4577  1.8850  3.2262
   39CHL1  H18C 4022   3.993   5.709   5.381  2.3233 -3.4416  1.3051
   39CHL1   C12 4023   4.139   6.011   5.477  0.1361 -1.2907 -0.4400
   39CHL1  H12A 4024   4.214   6.019   5.395 -0.8728  2.2791 -1.2156
   39CHL1  H12B 4025   4.099   6.114   5.492  3.3209 -0.2100  1.6600
   39CHL1   C11 4026   4.203   5.953   5.609 -0.1564  0.4883  0.0823
   39CHL1  H11A 4027   4.260   5.863   5.578  0.0433  0.0292  1.7084
   39CHL1  H11B 4028   4.276   6.030   5.640 -0.4144  0.9685 -0.4889
   39CHL1    C9 4029   4.105   5.923   5.729  0.6590  0.1350 -0.3779
   39CHL1    H9 4030   4.076   6.025   5.762 -0.9876 -0.5980  0.5103
   39CHL1   C10 4031   4.165   5.865   5.853  0.7078  0.9099 -0.1072
   39CHL1   C19 4032   4.252   5.742   5.810  0.0179  0.3850  0.0207
   39CHL1  H19A 4033   4.329   5.777   5.737  0.6747 -0.9862  0.0311
   39CHL1  H19B 4034   4.301   5.697   5.899  0.4755  0.7619 -0.0346
   39CHL1  H19C 4035   4.198   5.664   5.753  0.0547 -1.0101  1.8109
   39CHL1    C1 4036   4.255   5.970   5.921  0.2764  0.3726 -0.2748
   39CHL1   H1A 4037   4.343   5.992   5.856  0.5627  1.4801  0.4519
   39CHL1   H1B 4038   4.206   6.069   5.932  1.0979  1.2114 -3.2194
   39CHL1    C2 4039   4.317   5.922   6.058 -0.4718 -0.0942  0.3393
   39CHL1   H2A 4040   4.368   6.001   6.117  0.0658 -1.3914  1.6769
   39CHL1   H2B 4041   4.388   5.836   6.053 -0.1268  0.2658 -1.2707
   39CHL1   C20 4042   3.966   5.991   5.188 -0.2092 -0.5895  0.0756
   39CHL1   H20 4043   3.968   5.887   5.148 -1.5989 -0.3823 -0.6133
   39CHL1   C21 4044   4.106   6.053   5.158 -0.1413  0.6346 -0.6149
   39CHL1  H21A 4045   4.125   6.064   5.049  0.9526  0.6516 -0.4302
   39CHL1  H21B 4046   4.194   6.001   5.200  0.7292  2.7943  0.3722
   39CHL1  H21C 4047   4.121   6.155   5.199  2.0909 -0.9225  2.8879
   39CHL1   C22 4048   3.870   6.067   5.097 -0.1691 -0.2202  0.4883
   39CHL1  H22A 4049   3.902   6.036   4.995  2.0721 -0.7741  1.3166
   39CHL1  H22B 4050   3.765   6.035   5.112 -0.5585  0.5884 -0.3934
   39CHL1   C23 4051   3.878   6.218   5.101 -0.0446  0.3040  0.0525
   39CHL1  H23A 4052   3.852   6.243   5.205 -2.9997 -2.7201  0.1869
   39CHL1  H23B 4053   3.980   6.249   5.069 -0.3045 -0.1358 -1.2977
   39CHL1   C24 4054   3.779   6.281   5.003  0.0574 -0.1825 -0.4340
   39CHL1  H24A 4055   3.800   6.243   4.901 -1.1065 -1.3526 -0.2634
   39CHL1  H24B 4056   3.678   6.249   5.037 -0.8637  1.8472 -1.0385
   39CHL1   C25 4057   3.774   6.433   5.006 -0.9437 -0.0260 -0.1781
   39CHL1   H25 4058   3.881   6.462   4.995 -0.1064 -1.9238  2.1320
   39CHL1   C26 4059   3.684   6.501   4.897  0.2652  0.0045 -0.2722
   39CHL1  H26A 4060   3.685   6.610   4.915  0.5251 -0.4103  2.6794
   39CHL1  H26B 4061   3.718   6.473   4.795  1.7986 -0.5376  0.3600
   39CHL1  H26C 4062   3.576   6.478   4.908  0.7756 -2.5701 -0.0006
   39CHL1   C27 4063   3.730   6.487   5.142 -0.0174 -0.5688 -0.2248
   39CHL1  H27A 4064   3.725   6.598   5.146 -1.2948 -0.6323  0.8446
   39CHL1  H27B 4065   3.630   6.443   5.164  0.1582 -0.1798  1.4236
   39CHL1  H27C 4066   3.804   6.472   5.223 -1.5187  0.6144  1.4389
   40CHL1    C3 4067   5.821   0.036   5.577 -0.6478 -0.7391 -0.4017
   40CHL1    H3 4068   5.920   0.018   5.531 -0.0131  1.1162  0.1674
   40CHL1    O3 4069   5.833  -0.007   5.712  0.4801  0.2159  0.2246
   40CHL1   H3' 4070   5.770  -0.079   5.725  0.0089  0.6916  0.5865
   40CHL1    C4 4071   5.777   0.179   5.564  0.1731 -0.0752  0.1264
   40CHL1   H4A 4072   5.676   0.183   5.610  0.1462 -2.4033  0.3998
   40CHL1   H4B 4073   5.848   0.239   5.625 -0.3393  0.4058  0.2604
   40CHL1    C5 4074   5.763   0.235   5.423 -0.1777  0.0329  0.2232
   40CHL1    C6 4075   5.829   0.344   5.383 -0.2264  0.4787 -0.2103
   40CHL1    H6 4076   5.885   0.400   5.459  0.1507  0.4370 -0.4589
   40CHL1    C7 4077   5.830   0.402   5.245  0.1586 -0.3289  0.4596
   40CHL1   H7A 4078   5.815   0.512   5.251  1.5046 -0.1689  1.3550
   40CHL1   H7B 4079   5.930   0.391   5.197  0.7193 -3.1291  2.0366
   40CHL1    C8 4080   5.716   0.340   5.157 -0.1028 -0.0671  0.2489
   40CHL1    H8 4081   5.621   0.383   5.196  0.0930  0.3561  0.2622
   40CHL1   C14 4082   5.752   0.369   5.014 -0.6914 -0.2242 -0.1580
   40CHL1   H14 4083   5.851   0.322   4.997 -1.0197 -0.6205 -1.0438
   40CHL1   C15 4084   5.767   0.526   4.991  0.6005 -0.1362 -0.4147
   40CHL1  H15A 4085   5.677   0.572   5.036  0.5909 -1.7495  1.3863
   40CHL1  H15B 4086   5.856   0.577   5.033 -0.1362  0.3743  0.5715
   40CHL1   C16 4087   5.766   0.528   4.835 -0.4496  0.4248 -0.2808
   40CHL1  H16A 4088   5.692   0.607   4.806  0.3082  1.7139  1.1489
   40CHL1  H16B 4089   5.872   0.550   4.810 -0.0985  0.6760  1.3412
   40CHL1   C17 4090   5.710   0.386   4.789 -0.0875 -0.1786 -0.6648
   40CHL1   H17 4091   5.805   0.338   4.757  1.4859  1.3222  1.5061
   40CHL1   C13 4092   5.654   0.313   4.916 -0.3783 -0.9419  0.0294
   40CHL1   C18 4093   5.513   0.370   4.934  1.0537  0.1596  0.0959
   40CHL1  H18A 4094   5.439   0.326   4.863 -1.2946  2.1488  1.1785
   40CHL1  H18B 4095   5.485   0.337   5.036  1.8576  1.2700  0.6842
   40CHL1  H18C 4096   5.504   0.479   4.917  1.0924 -0.2506 -3.2098
   40CHL1   C12 4097   5.659   0.164   4.924 -0.5598  0.1829  0.2937
   40CHL1  H12A 4098   5.590   0.109   4.856 -0.3053 -1.1703  1.0905
   40CHL1  H12B 4099   5.760   0.129   4.897 -0.5603 -0.8648  1.5382
   40CHL1   C11 4100   5.633   0.107   5.065  0.2569 -0.6644  0.9317
   40CHL1  H11A 4101   5.525   0.127   5.078  0.1632  1.2682 -1.7938
   40CHL1  H11B 4102   5.659  -0.001   5.065  0.5203 -0.6062  0.4905
   40CHL1    C9 4103   5.715   0.184   5.170 -0.7556  0.0781 -0.6751
   40CHL1    H9 4104   5.816   0.144   5.148 -1.2062  0.0247 -2.8444
   40CHL1   C10 4105   5.689   0.149   5.323 -0.3379 -0.1355 -0.0973
   40CHL1   C19 4106   5.537   0.172   5.367 -0.1468 -0.3929  0.0250
   40CHL1  H19A 4107   5.470   0.111   5.302 -0.5699  0.4776 -0.3782
   40CHL1  H19B 4108   5.522   0.125   5.467  1.2344 -1.1847 -0.1167
   40CHL1  H19C 4109   5.514   0.280   5.364 -0.9073 -0.5229  0.8365
   40CHL1    C1 4110   5.722  -0.002   5.347 -0.1101 -0.1476 -0.2122
   40CHL1   H1A 4111   5.655  -0.065   5.285  0.0967 -1.9675  1.3225
   40CHL1   H1B 4112   5.829  -0.004   5.319  0.0392  1.5194  0.1821
   40CHL1    C2 4113   5.733  -0.061   5.494 -0.0764  0.6956  0.8339
   40CHL1   H2A 4114   5.774  -0.164   5.498 -2.3586 -0.2803  1.2254
   40CHL1   H2B 4115   5.631  -0.072   5.537 -0.1319 -0.1802  0.5002
   40CHL1   C20 4116   5.625   0.396   4.666 -0.5178 -0.2901  0.0331
   40CHL1   H20 4117   5.533   0.451   4.694 -1.0093 -0.7208 -0.6885
   40CHL1   C21 4118   5.582   0.253   4.620 -0.6885 -0.0634  0.1626
   40CHL1  H21A 4119   5.674   0.190   4.626  1.3536  2.5597 -1.5791
   40CHL1  H21B 4120   5.547   0.250   4.515  1.4486 -1.7783 -0.5949
   40CHL1  H21C 4121   5.506   0.207   4.686 -0.7697  0.0540  0.1493
   40CHL1   C22 4122   5.686   0.477   4.549  1.2372 -0.1573 -0.1332
   40CHL1  H22A 4123   5.621   0.490   4.460  1.7053  1.0338 -0.3155
   40CHL1  H22B 4124   5.705   0.579   4.589 -0.0682  0.1584 -0.2586
   40CHL1   C23 4125   5.822   0.415   4.488  0.4629  0.4950  0.3472
   40CHL1  H23A 4126   5.896   0.424   4.570 -0.4614 -2.3410  1.5965
   40CHL1  H23B 4127   5.816   0.310   4.452 -0.8036  0.1974  1.3865
   40CHL1   C24 4128   5.868   0.500   4.361  0.9271  0.6329 -0.5262
   40CHL1  H24A 4129   5.781   0.487   4.293 -0.7811  0.5887  1.5549
   40CHL1  H24B 4130   5.864   0.609   4.380 -0.6902  0.9440 -2.3360
   40CHL1   C25 4131   6.000   0.440   4.311  0.6540 -1.1258  0.4522
   40CHL1   H25 4132   6.057   0.411   4.401  2.0737 -0.7071 -0.2813
   40CHL1   C26 4133   5.990   0.322   4.208  0.0109 -0.1662 -0.3850
   40CHL1  H26A 4134   5.924   0.365   4.130 -0.5662 -0.5047 -0.0846
   40CHL1  H26B 4135   6.093   0.291   4.178  0.9589  3.6392 -1.6446
   40CHL1  H26C 4136   5.937   0.237   4.257 -1.7245  0.2465 -1.4464
   40CHL1   C27 4137   6.085   0.551   4.248 -0.0836  0.5558 -0.1303
   40CHL1  H27A 4138   6.115   0.612   4.336  1.3646 -1.6999  1.0820
   40CHL1  H27B 4139   6.175   0.499   4.207 -0.4326 -0.8604  0.7905
   40CHL1  H27C 4140   6.034   0.618   4.176  0.2670  0.5403 -0.3988
   41CHL1    C3 4141   0.776   5.683   6.055 -0.7288 -0.3921 -0.1343
   41CHL1    H3 4142   0.753   5.575   6.042  2.1022 -1.3930  2.2281
   41CHL1    O3 4143   0.765   5.718   6.191 -0.9660  0.0088  1.0304
   41CHL1   H3' 4144   0.798   5.807   6.184  2.7163 -1.0864  2.2776
   41CHL1    C4 4145   0.921   5.696   6.002 -0.5265  0.2473 -0.5296
   41CHL1   H4A 4146   0.948   5.803   6.013 -0.0885 -0.1119  3.4200
   41CHL1   H4B 4147   0.988   5.637   6.068 -1.3467 -0.0188  0.0770
   41CHL1    C5 4148   0.930   5.650   5.857  0.0491  0.1110 -0.1999
   41CHL1    C6 4149   1.004   5.541   5.821  0.9379  0.1148 -0.3098
   41CHL1    H6 4150   1.054   5.489   5.904 -0.3940 -0.3116  0.2464
   41CHL1    C7 4151   1.025   5.492   5.684  0.0631  0.3255 -0.0038
   41CHL1   H7A 4152   1.135   5.486   5.666  0.1052  0.3116  0.2512
   41CHL1   H7B 4153   0.986   5.390   5.668  1.6561 -0.0413 -2.0465
   41CHL1    C8 4154   0.971   5.590   5.578 -0.0692 -0.0486 -0.0348
   41CHL1    H8 4155   1.049   5.669   5.571 -0.3475  0.3567  1.1957
   41CHL1   C14 4156   0.959   5.524   5.446 -0.2313 -0.0872  0.4928
   41CHL1   H14 4157   0.886   5.441   5.464  1.3300 -0.8854  3.8942
   41CHL1   C15 4158   1.084   5.444   5.390  0.2502  0.1612  0.6771
   41CHL1  H15A 4159   1.186   5.486   5.409  0.8546 -1.4462  1.1593
   41CHL1  H15B 4160   1.083   5.343   5.437 -0.5715 -0.2434 -0.1772
   41CHL1   C16 4161   1.043   5.436   5.243 -0.1627 -0.5388  0.2729
   41CHL1  H16A 4162   1.120   5.486   5.181 -0.3890  1.0432  1.2308
   41CHL1  H16B 4163   1.027   5.334   5.201  0.3578 -0.4459 -0.1541
   41CHL1   C17 4164   0.911   5.517   5.221 -0.0820 -0.0648 -0.0026
   41CHL1   H17 4165   0.838   5.435   5.236  0.5021 -0.7909 -1.0275
   41CHL1   C13 4166   0.905   5.616   5.333 -0.5153 -0.0059 -1.0720
   41CHL1   C18 4167   1.002   5.732   5.307  0.7281  0.4233  0.1728
   41CHL1  H18A 4168   0.962   5.806   5.235  0.1234  0.8380  0.9125
   41CHL1  H18B 4169   1.016   5.781   5.405 -0.7268 -0.8522  1.0755
   41CHL1  H18C 4170   1.106   5.706   5.278  0.1609 -2.0202  0.0786
   41CHL1   C12 4171   0.764   5.658   5.377 -0.4262  0.3196  0.1211
   41CHL1  H12A 4172   0.712   5.723   5.303  1.0463 -0.5662 -1.7636
   41CHL1  H12B 4173   0.694   5.572   5.383  1.7722 -1.6353 -0.7753
   41CHL1   C11 4174   0.773   5.736   5.511  0.2147  0.8516  0.2075
   41CHL1  H11A 4175   0.820   5.831   5.478 -0.3722  0.4804 -1.8129
   41CHL1  H11B 4176   0.673   5.770   5.547 -1.3048  1.4708 -4.0257
   41CHL1    C9 4177   0.841   5.655   5.622  0.5651 -0.6536  0.4627
   41CHL1    H9 4178   0.768   5.575   5.640 -2.4660  1.8030 -0.0605
   41CHL1   C10 4179   0.846   5.730   5.758 -0.6433 -0.3928 -0.3694
   41CHL1   C19 4180   0.918   5.871   5.736 -0.0309  0.1771 -0.0206
   41CHL1  H19A 4181   0.857   5.931   5.665 -0.5139 -0.6221 -0.3040
   41CHL1  H19B 4182   0.918   5.921   5.835  1.8397 -2.0786  1.2204
   41CHL1  H19C 4183   1.026   5.867   5.711  0.3319  2.2742  0.9494
   41CHL1    C1 4184   0.703   5.758   5.814 -0.0246  0.3947  0.3817
   41CHL1   H1A 4185   0.651   5.841   5.761 -0.3619 -0.0408  0.0231
   41CHL1   H1B 4186   0.645   5.665   5.797 -1.8264  1.6214 -0.6252
   41CHL1    C2 4187   0.686   5.779   5.969  0.1943  0.0319 -0.1195
   41CHL1   H2A 4188   0.580   5.767   5.999  0.5037 -0.0181  0.9965
   41CHL1   H2B 4189   0.738   5.876   5.984  0.1468  0.4548 -2.3160
   41CHL1   C20 4190   0.887   5.557   5.072  0.1756  0.2884  0.4332
   41CHL1   H20 4191   0.965   5.624   5.031 -1.6513  2.9745  1.0924
   41CHL1   C21 4192   0.757   5.638   5.064 -0.1832 -0.6401 -0.8509
   41CHL1  H21A 4193   0.748   5.667   4.958  1.5954  1.8160 -0.4201
   41CHL1  H21B 4194   0.761   5.733   5.121 -0.9016 -0.4270 -1.1533
   41CHL1  H21C 4195   0.672   5.578   5.102  0.3925 -0.5875  0.5804
   41CHL1   C22 4196   0.884   5.439   4.980  0.1132 -0.5393 -0.1354
   41CHL1  H22A 4197   0.970   5.370   4.998  0.9343  0.2193 -1.0148
   41CHL1  H22B 4198   0.797   5.371   4.996 -0.5407  0.6475  1.4880
   41CHL1   C23 4199   0.886   5.486   4.827 -0.4004  0.3074  0.1772
   41CHL1  H23A 4200   0.784   5.521   4.801  0.2661  0.2595 -2.8698
   41CHL1  H23B 4201   0.958   5.571   4.823  2.2501 -1.8180 -0.1700
   41CHL1   C24 4202   0.923   5.364   4.742  0.5844  0.3468  0.5446
   41CHL1  H24A 4203   1.020   5.326   4.782  0.8716  2.4813  2.0118
   41CHL1  H24B 4204   0.841   5.290   4.747  0.9909 -0.0389  2.1107
   41CHL1   C25 4205   0.954   5.406   4.599  0.1425  0.1404 -0.5061
   41CHL1   H25 4206   1.039   5.476   4.592  0.2452  0.1778  0.9736
   41CHL1   C26 4207   0.997   5.290   4.519  0.3326 -0.4019 -0.5874
   41CHL1  H26A 4208   1.064   5.223   4.579 -1.8766 -2.4938 -0.2889
   41CHL1  H26B 4209   0.912   5.231   4.479  0.0105 -0.4227  0.1172
   41CHL1  H26C 4210   1.064   5.324   4.437  2.7311 -0.7953  1.0964
   41CHL1   C27 4211   0.834   5.468   4.524 -0.2036 -0.6558 -0.1145
   41CHL1  H27A 4212   0.740   5.432   4.570  0.6345 -0.5688  1.7290
   41CHL1  H27B 4213   0.833   5.579   4.532  1.1296 -0.6172 -0.1899
   41CHL1  H27C 4214   0.834   5.447   4.415  1.1948  0.9583 -0.4664
   42CHL1    C3 4215   6.773   6.755   5.844  0.1064  0.1184 -0.2177
   42CHL1    H3 4216   6.873   6.799   5.823 -0.1027  1.1412  0.8112
   42CHL1    O3 4217   6.773   6.719   5.981  0.5220  0.3889  0.2765
   42CHL1   H3' 4218   6.740   6.795   6.029 -0.8007 -0.7622  1.2600
   42CHL1    C4 4219   6.659   6.857   5.822  0.1065 -0.3260 -0.4407
   42CHL1   H4A 4220   6.561   6.820   5.860 -0.4522  0.7885 -0.7649
   42CHL1   H4B 4221   6.679   6.948   5.882  0.5691 -1.0702  0.5677
   42CHL1    C5 4222   6.651   6.887   5.673 -0.4363  0.0466 -0.4754
   42CHL1    C6 4223   6.669   7.013   5.626  0.3558  0.1144  0.2318
   42CHL1    H6 4224   6.679   7.101   5.692  0.3251  0.3385 -0.0604
   42CHL1    C7 4225   6.669   7.050   5.474  0.1748 -0.2645  0.1745
   42CHL1   H7A 4226   6.614   7.144   5.449  2.1363  0.8184 -0.3159
   42CHL1   H7B 4227   6.775   7.064   5.445  0.6772 -1.9033  1.1038
   42CHL1    C8 4228   6.624   6.931   5.389  0.1410 -0.5835 -0.0313
   42CHL1    H8 4229   6.513   6.923   5.390  0.0683  0.1993 -0.4781
   42CHL1   C14 4230   6.676   6.962   5.248  0.2039  0.0944 -0.5718
   42CHL1   H14 4231   6.787   6.967   5.252  0.1942 -0.0863  0.1540
   42CHL1   C15 4232   6.632   7.099   5.189  0.8633 -0.0481  0.5387
   42CHL1  H15A 4233   6.523   7.107   5.208  0.4923 -3.7358  0.6648
   42CHL1  H15B 4234   6.681   7.191   5.229  0.8380 -0.0384  0.5475
   42CHL1   C16 4235   6.657   7.077   5.037  0.4592 -0.4760  0.0678
   42CHL1  H16A 4236   6.583   7.119   4.966  0.4470  1.2167  1.0231
   42CHL1  H16B 4237   6.759   7.119   5.022  0.2422 -0.1550 -0.4980
   42CHL1   C17 4238   6.685   6.925   5.020  0.0100  0.4720  0.1305
   42CHL1   H17 4239   6.794   6.906   5.020 -0.1111 -0.2540  0.1714
   42CHL1   C13 4240   6.635   6.856   5.149 -0.9311  0.4266 -0.1396
   42CHL1   C18 4241   6.481   6.838   5.141 -0.2066 -0.4993  0.1115
   42CHL1  H18A 4242   6.435   6.807   5.238  0.0089 -0.3698  0.2536
   42CHL1  H18B 4243   6.435   6.932   5.103 -1.0347 -0.7090  0.5606
   42CHL1  H18C 4244   6.455   6.759   5.068 -0.2943 -0.0732 -0.3265
   42CHL1   C12 4245   6.707   6.722   5.198 -0.1444 -0.3780 -0.1181
   42CHL1  H12A 4246   6.686   6.635   5.132 -1.8283  0.9405 -1.4202
   42CHL1  H12B 4247   6.815   6.740   5.183  0.2169 -1.3595  1.1404
   42CHL1   C11 4248   6.678   6.681   5.338  0.2634 -0.0834  0.4093
   42CHL1  H11A 4249   6.577   6.636   5.341  1.0832 -2.0408  0.2873
   42CHL1  H11B 4250   6.753   6.603   5.362  0.2334 -0.3838 -0.4253
   42CHL1    C9 4251   6.683   6.803   5.439  0.7159  0.0643  0.0707
   42CHL1    H9 4252   6.791   6.829   5.439  0.7100  0.0950 -0.8186
   42CHL1   C10 4253   6.640   6.763   5.580  0.6508  0.0441 -0.5401
   42CHL1   C19 4254   6.487   6.725   5.589 -0.3304 -0.4402  0.4660
   42CHL1  H19A 4255   6.454   6.689   5.688 -0.4237 -2.2879 -0.1951
   42CHL1  H19B 4256   6.434   6.821   5.573 -0.7118 -0.8062 -0.5841
   42CHL1  H19C 4257   6.471   6.635   5.526  1.3306 -0.8456  0.5847
   42CHL1    C1 4258   6.734   6.642   5.618  0.1199  0.7244  0.5414
   42CHL1   H1A 4259   6.706   6.553   5.557  1.7689  0.7521 -0.2990
   42CHL1   H1B 4260   6.835   6.676   5.590  0.5992 -1.4170 -0.5922
   42CHL1    C2 4261   6.744   6.620   5.769 -0.0290 -0.3453  0.2522
   42CHL1   H2A 4262   6.823   6.546   5.794 -0.1888 -0.3528  0.7541
   42CHL1   H2B 4263   6.643   6.581   5.793 -1.6379  1.0169 -3.4716
   42CHL1   C20 4264   6.615   6.881   4.892 -0.0651 -0.0777 -0.2156
   42CHL1   H20 4265   6.504   6.891   4.898  0.0165  0.0330  2.1619
   42CHL1   C21 4266   6.649   6.735   4.871 -0.1351  0.6850 -0.0003
   42CHL1  H21A 4267   6.596   6.697   4.782 -0.5905 -0.6557  0.8057
   42CHL1  H21B 4268   6.604   6.677   4.955  1.1538  0.0075  0.2606
   42CHL1  H21C 4269   6.760   6.721   4.873 -0.1282  0.2457 -2.0774
   42CHL1   C22 4270   6.668   6.955   4.767 -1.3768  0.3011 -0.6743
   42CHL1  H22A 4271   6.626   6.905   4.677 -2.5606 -0.8043  0.4511
   42CHL1  H22B 4272   6.613   7.051   4.779  0.1267  1.1083 -0.0450
   42CHL1   C23 4273   6.822   6.974   4.747 -0.1591 -0.8362  0.3861
   42CHL1  H23A 4274   6.866   7.045   4.820 -0.6731 -0.5245  0.3943
   42CHL1  H23B 4275   6.879   6.882   4.773  0.6781 -0.4374  0.0337
   42CHL1   C24 4276   6.876   7.025   4.606 -0.1773  0.0199 -0.7555
   42CHL1  H24A 4277   6.838   7.128   4.587 -0.6997  0.0481  0.4180
   42CHL1  H24B 4278   6.985   7.037   4.624 -0.4926  0.0361  1.2815
   42CHL1   C25 4279   6.851   6.929   4.488  0.4041 -0.0656  0.7550
   42CHL1   H25 4280   6.746   6.893   4.491  0.2824 -0.1330 -1.7673
   42CHL1   C26 4281   6.848   7.009   4.358  0.3309  0.4890  0.2355
   42CHL1  H26A 4282   6.833   6.943   4.270  1.0890 -1.7724  1.7246
   42CHL1  H26B 4283   6.760   7.077   4.350  0.2749  0.4755  0.7287
   42CHL1  H26C 4284   6.943   7.067   4.353  1.8700 -1.9365 -0.1670
   42CHL1   C27 4285   6.952   6.812   4.479 -0.8133  0.0767 -0.3499
   42CHL1  H27A 4286   6.968   6.756   4.573  2.0695  0.9850 -0.2254
   42CHL1  H27B 4287   6.910   6.743   4.402 -1.5889 -0.7102  0.7390
   42CHL1  H27C 4288   7.048   6.860   4.454 -1.3954  1.1636 -0.5572
   43CHL1    C3 4289   0.171   1.060   5.950 -0.3231  0.9075 -0.0486
   43CHL1    H3 4290   0.145   0.956   5.921 -0.7424  0.7314  0.9130
   43CHL1    O3 4291   0.169   1.074   6.095  0.2866  0.7043  0.6410
   43CHL1   H3' 4292   0.208   1.158   6.120 -0.4642  1.6165 -1.0581
   43CHL1    C4 4293   0.314   1.090   5.903 -0.3559  0.0629 -0.1134
   43CHL1   H4A 4294   0.349   1.183   5.953 -1.2341  0.6854 -0.6217
   43CHL1   H4B 4295   0.380   1.013   5.946  1.9943  3.5812  3.2779
   43CHL1    C5 4296   0.318   1.091   5.751 -0.0425 -0.2208  0.0305
   43CHL1    C6 4297   0.412   1.013   5.689 -0.3738 -0.0716  0.6291
   43CHL1    H6 4298   0.488   0.958   5.745  0.6041  0.5524 -0.0552
   43CHL1    C7 4299   0.430   1.010   5.539 -0.5772  0.3059 -0.3981
   43CHL1   H7A 4300   0.533   1.027   5.501 -0.5086 -0.3963 -0.5386
   43CHL1   H7B 4301   0.404   0.907   5.505 -0.8805  0.7437 -1.5287
   43CHL1    C8 4302   0.347   1.116   5.463  0.2040 -0.1680 -0.3296
   43CHL1    H8 4303   0.404   1.211   5.461  0.4746 -0.3089  0.3082
   43CHL1   C14 4304   0.329   1.072   5.314 -0.0660 -0.4408 -1.2196
   43CHL1   H14 4305   0.269   0.980   5.330  1.7890 -1.4481  0.5251
   43CHL1   C15 4306   0.450   1.024   5.235  0.5975 -0.0393  0.4789
   43CHL1  H15A 4307   0.521   1.110   5.237  0.7388  0.0136 -2.4429
   43CHL1  H15B 4308   0.495   0.929   5.273 -0.4759 -0.0703  1.7527
   43CHL1   C16 4309   0.390   1.021   5.091 -0.6480 -0.0372 -0.5094
   43CHL1  H16A 4310   0.452   1.081   5.022 -0.4230  0.4595  0.1156
   43CHL1  H16B 4311   0.387   0.915   5.056  0.4233 -0.9050  1.8396
   43CHL1   C17 4312   0.251   1.084   5.097  0.1201 -0.8464 -0.6746
   43CHL1   H17 4313   0.185   0.997   5.116 -0.8087  0.0697  0.4769
   43CHL1   C13 4314   0.254   1.162   5.228  0.2973 -0.4869  0.0505
   43CHL1   C18 4315   0.334   1.296   5.209 -0.7476 -0.4190 -0.3318
   43CHL1  H18A 4316   0.266   1.360   5.149 -0.7799 -0.6538 -0.5468
   43CHL1  H18B 4317   0.347   1.342   5.310 -1.2309  0.2343 -0.5625
   43CHL1  H18C 4318   0.435   1.287   5.163  0.3488 -1.2833  2.0359
   43CHL1   C12 4319   0.120   1.183   5.288  0.1678  0.5885  0.6931
   43CHL1  H12A 4320   0.047   1.242   5.230 -1.4506  0.0538  2.1032
   43CHL1  H12B 4321   0.068   1.086   5.291  0.0134  0.6437 -0.0511
   43CHL1   C11 4322   0.121   1.222   5.439 -0.0038  0.1793 -0.0240
   43CHL1  H11A 4323   0.159   1.326   5.452  1.1621 -0.1712 -0.4915
   43CHL1  H11B 4324   0.018   1.222   5.482 -0.7112 -1.5393 -1.5881
   43CHL1    C9 4325   0.210   1.136   5.525  0.3435 -0.4808 -0.2724
   43CHL1    H9 4326   0.162   1.036   5.527 -0.0197 -0.2887  1.0490
   43CHL1   C10 4327   0.217   1.181   5.676 -0.2145  1.0726  0.1900
   43CHL1   C19 4328   0.260   1.329   5.684  0.3627  1.1087 -0.3159
   43CHL1  H19A 4329   0.178   1.399   5.656  0.0776  0.8563 -0.1240
   43CHL1  H19B 4330   0.275   1.352   5.791  1.3407  1.3820 -0.5038
   43CHL1  H19C 4331   0.348   1.348   5.619  0.7502  0.7950  0.1144
   43CHL1    C1 4332   0.081   1.162   5.736  0.2052  0.0321 -1.0238
   43CHL1   H1A 4333   0.009   1.234   5.691 -0.3633  0.4805  0.5038
   43CHL1   H1B 4334   0.042   1.061   5.714 -2.2219  0.7065 -0.1500
   43CHL1    C2 4335   0.069   1.159   5.890 -0.5295  0.2011 -0.3963
   43CHL1   H2A 4336  -0.032   1.134   5.929 -0.0221  1.5147  1.9745
   43CHL1   H2B 4337   0.096   1.260   5.928  1.1744 -0.4002  0.0673
   43CHL1   C20 4338   0.212   1.151   4.963  0.0850  0.0490 -1.2000
   43CHL1   H20 4339   0.296   1.218   4.933 -1.7293  1.7026 -2.9054
   43CHL1   C21 4340   0.089   1.244   4.973  0.0895  0.1103 -0.0400
   43CHL1  H21A 4341   0.118   1.333   5.033  1.2744 -0.4513  0.2460
   43CHL1  H21B 4342   0.003   1.187   5.014 -0.5206 -0.1405 -1.5790
   43CHL1  H21C 4343   0.053   1.291   4.879  2.1961 -2.1044 -2.1008
   43CHL1   C22 4344   0.195   1.052   4.849  0.3418 -0.9664 -0.3220
   43CHL1  H22A 4345   0.269   0.969   4.855  0.4681 -0.9599 -1.6452
   43CHL1  H22B 4346   0.097   1.003   4.871 -1.5045  2.4637 -0.1728
   43CHL1   C23 4347   0.181   1.109   4.711 -0.0025 -0.1527 -0.1760
   43CHL1  H23A 4348   0.091   1.174   4.701 -0.5911 -1.0770 -1.0851
   43CHL1  H23B 4349   0.268   1.170   4.678  0.8416 -1.0426  0.3346
   43CHL1   C24 4350   0.167   1.000   4.599 -0.5615 -0.2584 -0.6300
   43CHL1  H24A 4351   0.266   0.951   4.583 -0.2530  0.9555 -2.8160
   43CHL1  H24B 4352   0.093   0.925   4.634  0.2169 -1.4281 -1.4066
   43CHL1   C25 4353   0.133   1.057   4.464 -0.3626  0.1018  0.2846
   43CHL1   H25 4354   0.222   1.116   4.434  1.6134 -2.5404  0.5749
   43CHL1   C26 4355   0.130   0.946   4.356 -0.0751 -0.3524  0.1277
   43CHL1  H26A 4356   0.115   0.986   4.253 -0.4186  0.5521  0.5183
   43CHL1  H26B 4357   0.228   0.895   4.366  0.9520  1.5442  0.2028
   43CHL1  H26C 4358   0.048   0.878   4.385  0.4364 -1.0273  0.0034
   43CHL1   C27 4359   0.009   1.143   4.457  0.4264  0.7117  0.0734
   43CHL1  H27A 4360  -0.018   1.163   4.351  0.1021  1.6782  0.3221
   43CHL1  H27B 4361  -0.082   1.089   4.493  1.1048 -2.5485 -2.6524
   43CHL1  H27C 4362   0.033   1.239   4.508  0.6784  0.7170 -0.0563
   44CHL1    C3 4363   5.919   3.379   6.360 -0.2088  0.2202  0.1997
   44CHL1    H3 4364   5.855   3.464   6.327 -1.2257 -1.9877 -4.2440
   44CHL1    O3 4365   5.942   3.378   6.500 -0.1879  0.3189 -0.0073
   44CHL1   H3' 4366   5.857   3.338   6.522 -0.7470  1.4302 -0.0744
   44CHL1    C4 4367   5.854   3.252   6.315  0.0202 -0.1012  0.3635
   44CHL1   H4A 4368   5.920   3.167   6.342 -0.5271 -0.3482  0.9596
   44CHL1   H4B 4369   5.749   3.241   6.352 -0.1035 -2.8637 -0.5613
   44CHL1    C5 4370   5.838   3.241   6.164 -0.6582  0.7068 -0.4796
   44CHL1    C6 4371   5.717   3.208   6.103  0.5943 -0.4600  0.4335
   44CHL1    H6 4372   5.627   3.194   6.164 -0.0885 -0.6452 -0.5871
   44CHL1    C7 4373   5.694   3.190   5.953  1.2463 -0.3398 -0.1226
   44CHL1   H7A 4374   5.639   3.097   5.926  1.4054 -0.8909  1.3345
   44CHL1   H7B 4375   5.625   3.273   5.929  0.5323 -1.0061 -0.4179
   44CHL1    C8 4376   5.828   3.196   5.875  0.8079  0.7880 -0.4401
   44CHL1    H8 4377   5.885   3.102   5.890  0.3243  0.4666 -0.6142
   44CHL1   C14 4378   5.793   3.210   5.727  0.3564  0.0431 -0.6465
   44CHL1   H14 4379   5.731   3.302   5.719 -1.3452 -0.7728  1.9244
   44CHL1   C15 4380   5.708   3.104   5.663 -0.6086  0.5559 -0.7053
   44CHL1  H15A 4381   5.750   3.006   5.694 -1.2230  0.6842  0.5982
   44CHL1  H15B 4382   5.604   3.114   5.702 -0.1112  0.7914  0.6168
   44CHL1   C16 4383   5.734   3.136   5.510  0.1200  0.5611  0.2350
   44CHL1  H16A 4384   5.765   3.041   5.462  1.1740 -0.3318  2.5356
   44CHL1  H16B 4385   5.641   3.176   5.464 -0.7359  0.2722  1.6426
   44CHL1   C17 4386   5.841   3.246   5.497 -0.9192 -0.2141  0.0295
   44CHL1   H17 4387   5.795   3.347   5.499  0.5956  0.5971 -2.1539
   44CHL1   C13 4388   5.915   3.234   5.633 -0.0266 -0.1171 -0.0076
   44CHL1   C18 4389   6.012   3.116   5.631  0.0910 -0.3282 -0.3221
   44CHL1  H18A 4390   6.048   3.102   5.735 -0.3923  1.6244  0.1477
   44CHL1  H18B 4391   5.965   3.020   5.599 -1.8982  0.4420  0.1371
   44CHL1  H18C 4392   6.103   3.131   5.569 -0.4568 -3.0881 -1.9588
   44CHL1   C12 4393   5.981   3.365   5.691  0.2366 -0.3776 -0.1174
   44CHL1  H12A 4394   6.063   3.397   5.624  0.7540 -0.1981  0.5926
   44CHL1  H12B 4395   5.900   3.441   5.698 -1.6340 -2.3241  0.4803
   44CHL1   C11 4396   6.030   3.356   5.837  0.6786 -0.5065  0.0698
   44CHL1  H11A 4397   6.116   3.288   5.854  1.3665 -0.2404 -2.0256
   44CHL1  H11B 4398   6.061   3.457   5.870 -0.6637  0.1050 -0.4472
   44CHL1    C9 4399   5.920   3.314   5.928  0.4396  0.7830 -0.1106
   44CHL1    H9 4400   5.851   3.400   5.939  0.3015  0.5840  0.6136
   44CHL1   C10 4401   5.956   3.282   6.076 -0.1414 -1.1499 -0.3871
   44CHL1   C19 4402   6.054   3.160   6.081 -0.5349 -0.1206  0.1271
   44CHL1  H19A 4403   6.145   3.164   6.017 -0.1099  0.4761  0.7579
   44CHL1  H19B 4404   6.086   3.137   6.185 -0.6114  0.6484  0.3297
   44CHL1  H19C 4405   6.007   3.064   6.050  0.5161 -0.6941  0.2680
   44CHL1    C1 4406   6.028   3.415   6.133 -0.2313  0.5405  0.0505
   44CHL1   H1A 4407   6.128   3.426   6.087  0.6594  1.5685  2.0855
   44CHL1   H1B 4408   5.976   3.509   6.106  1.8454  2.4876  2.2963
   44CHL1    C2 4409   6.049   3.409   6.282 -0.9963  0.2090 -0.9044
   44CHL1   H2A 4410   6.087   3.499   6.336 -0.6781  0.5256 -1.6470
   44CHL1   H2B 4411   6.112   3.323   6.313 -1.5258 -0.3939 -1.4889
   44CHL1   C20 4412   5.916   3.230   5.363  0.2354 -0.0679  0.0110
   44CHL1   H20 4413   5.949   3.126   5.341 -0.1162  0.0287 -1.0142
   44CHL1   C21 4414   6.039   3.320   5.357 -0.3142  0.1440  0.2009
   44CHL1  H21A 4415   6.119   3.279   5.423  1.0374  2.2608 -0.0344
   44CHL1  H21B 4416   6.003   3.423   5.377 -2.5201  0.7193 -5.0549
   44CHL1  H21C 4417   6.081   3.316   5.254 -0.1839 -1.8007  0.2794
   44CHL1   C22 4418   5.832   3.250   5.238  0.1210  0.3499 -0.2467
   44CHL1  H22A 4419   5.741   3.189   5.252  2.1652 -2.6235  1.4075
   44CHL1  H22B 4420   5.813   3.359   5.229 -1.0352  0.1616 -0.2218
   44CHL1   C23 4421   5.900   3.206   5.109  0.0869  0.3173  0.5813
   44CHL1  H23A 4422   5.987   3.273   5.088  1.0104 -0.2669  2.3720
   44CHL1  H23B 4423   5.939   3.104   5.130  1.8760  0.5993 -0.9992
   44CHL1   C24 4424   5.793   3.212   4.996 -0.2342  0.5213 -0.8450
   44CHL1  H24A 4425   5.693   3.192   5.042  0.8648 -0.9878  1.0179
   44CHL1  H24B 4426   5.791   3.313   4.950  1.5348  0.7466 -0.4935
   44CHL1   C25 4427   5.815   3.103   4.888 -0.5489 -0.2078  0.6978
   44CHL1   H25 4428   5.810   3.005   4.939 -0.2371  0.0761  1.2766
   44CHL1   C26 4429   5.699   3.104   4.784  0.7069 -0.0843 -0.2152
   44CHL1  H26A 4430   5.601   3.075   4.827 -0.6788  1.6839 -2.0269
   44CHL1  H26B 4431   5.680   3.209   4.753 -1.4341 -0.9646 -2.1532
   44CHL1  H26C 4432   5.709   3.027   4.704  0.4852  1.0319 -1.3425
   44CHL1   C27 4433   5.949   3.116   4.815  0.6156 -0.2935  0.2532
   44CHL1  H27A 4434   5.950   3.224   4.787  0.4531 -0.6999 -1.3685
   44CHL1  H27B 4435   6.026   3.089   4.891 -0.7193 -3.5817  0.6030
   44CHL1  H27C 4436   5.953   3.050   4.727 -0.6366 -0.6851  0.4842
   45CHL1    C3 4437   0.015   4.135   5.613  0.2710 -0.3100 -0.1264
   45CHL1    H3 4438   0.096   4.202   5.650 -2.2776  3.0103 -0.1056
   45CHL1    O3 4439  -0.076   4.109   5.718  0.0968 -0.0869  0.6091
   45CHL1   H3' 4440  -0.035   4.035   5.763  1.0578 -1.0848 -1.7350
   45CHL1    C4 4441  -0.052   4.211   5.502  0.1270 -1.2683  0.0962
   45CHL1   H4A 4442  -0.153   4.168   5.483 -2.3768  2.9469  2.2627
   45CHL1   H4B 4443  -0.070   4.318   5.529 -1.3671 -1.6034  0.5622
   45CHL1    C5 4444   0.021   4.213   5.370  0.4964 -0.4216 -0.5729
   45CHL1    C6 4445   0.058   4.331   5.315 -0.5789 -0.3430  0.3642
   45CHL1    H6 4446   0.018   4.418   5.369 -0.9982 -0.8489  0.8929
   45CHL1    C7 4447   0.113   4.345   5.178 -0.1051 -0.6752  0.2414
   45CHL1   H7A 4448   0.048   4.416   5.121 -1.6657 -2.2254 -0.0119
   45CHL1   H7B 4449   0.218   4.381   5.185 -0.3948  0.2842 -0.1396
   45CHL1    C8 4450   0.111   4.208   5.101  0.3642 -0.1407  0.3831
   45CHL1    H8 4451   0.005   4.192   5.073  0.5833 -0.0699 -0.5509
   45CHL1   C14 4452   0.203   4.219   4.976  0.4632 -0.2889 -0.8063
   45CHL1   H14 4453   0.306   4.218   5.017  0.5716 -1.3680 -1.0843
   45CHL1   C15 4454   0.192   4.352   4.895  0.1168  0.7938 -1.1747
   45CHL1  H15A 4455   0.083   4.369   4.886  0.1860  2.7725  0.7016
   45CHL1  H15B 4456   0.233   4.449   4.932 -1.2556  0.7759  0.5063
   45CHL1   C16 4457   0.249   4.306   4.760  0.3400 -0.3558  0.8249
   45CHL1  H16A 4458   0.181   4.329   4.675  2.4872 -0.3544 -0.9811
   45CHL1  H16B 4459   0.347   4.357   4.748  0.3375 -0.1667  1.5219
   45CHL1   C17 4460   0.275   4.154   4.770  1.1363  0.8858  0.5490
   45CHL1   H17 4461   0.380   4.134   4.800  1.1690 -0.6767 -0.4280
   45CHL1   C13 4462   0.188   4.107   4.890 -0.1450  0.2970  0.5489
   45CHL1   C18 4463   0.047   4.083   4.841  0.5387 -0.0632 -0.4393
   45CHL1  H18A 4464  -0.025   4.060   4.923 -1.0255 -2.2100 -2.3212
   45CHL1  H18B 4465   0.002   4.175   4.796 -2.8167 -0.4135  1.7947
   45CHL1  H18C 4466   0.031   4.014   4.756  0.4598  2.3726 -2.5182
   45CHL1   C12 4467   0.242   3.990   4.973  0.1921  0.9340  0.5641
   45CHL1  H12A 4468   0.226   3.896   4.916  0.4546 -0.8606  3.2764
   45CHL1  H12B 4469   0.351   3.998   4.993  0.6252 -0.8301 -0.8116
   45CHL1   C11 4470   0.165   3.954   5.102 -0.0940 -0.5770  0.3306
   45CHL1  H11A 4471   0.062   3.930   5.070 -0.2320  0.8917 -0.4065
   45CHL1  H11B 4472   0.222   3.880   5.162  1.0772  0.3022  0.3349
   45CHL1    C9 4473   0.156   4.091   5.188  0.6556  0.1289 -0.5657
   45CHL1    H9 4474   0.258   4.111   5.226 -0.0766  0.3444  1.3903
   45CHL1   C10 4475   0.070   4.081   5.318 -0.4334  0.5871 -0.5268
   45CHL1   C19 4476  -0.050   3.986   5.299 -0.2170  0.4055 -0.1763
   45CHL1  H19A 4477  -0.015   3.882   5.284  1.2864  1.1056 -1.9059
   45CHL1  H19B 4478  -0.135   3.993   5.370 -1.1724 -1.5501 -1.0737
   45CHL1  H19C 4479  -0.100   4.012   5.204  1.2988  0.7832 -0.9071
   45CHL1    C1 4480   0.156   4.020   5.436  1.1034  0.0494 -0.0172
   45CHL1   H1A 4481   0.185   3.919   5.399 -0.4190 -0.5797  0.4381
   45CHL1   H1B 4482   0.247   4.084   5.443  1.5267 -0.3417 -1.5659
   45CHL1    C2 4483   0.080   4.003   5.565  0.1000  0.5738  0.0949
   45CHL1   H2A 4484   0.139   3.958   5.648 -1.9070  0.3388  1.4700
   45CHL1   H2B 4485  -0.001   3.928   5.553  1.9407 -1.6737  0.9040
   45CHL1   C20 4486   0.261   4.082   4.629 -0.0503 -0.2310  0.0226
   45CHL1   H20 4487   0.157   4.092   4.590  0.2949  0.0487 -0.8668
   45CHL1   C21 4488   0.304   3.933   4.655 -0.8053 -0.1359  1.1287
   45CHL1  H21A 4489   0.405   3.914   4.696  1.4266  2.4390 -2.6514
   45CHL1  H21B 4490   0.320   3.885   4.556  2.0973 -0.2177  1.5496
   45CHL1  H21C 4491   0.219   3.883   4.707 -1.2848  1.2856  1.7746
   45CHL1   C22 4492   0.342   4.154   4.515  0.0803  0.8948  0.1148
   45CHL1  H22A 4493   0.313   4.260   4.502  1.3341  1.4973  1.8925
   45CHL1  H22B 4494   0.448   4.154   4.547  0.4372 -0.7575 -0.9288
   45CHL1   C23 4495   0.333   4.082   4.376 -0.1640  0.5687 -0.2304
   45CHL1  H23A 4496   0.361   3.974   4.378  0.0456  0.6204  2.6292
   45CHL1  H23B 4497   0.229   4.071   4.340 -1.0575 -3.2575  2.8016
   45CHL1   C24 4498   0.413   4.162   4.275 -0.3557  0.6686  0.6377
   45CHL1  H24A 4499   0.363   4.260   4.255  0.0684  0.7028 -0.2697
   45CHL1  H24B 4500   0.507   4.181   4.331  1.8955 -0.8807 -2.3518
   45CHL1   C25 4501   0.457   4.087   4.150 -0.2694  0.2756  0.0345
   45CHL1   H25 4502   0.504   3.993   4.186  0.8961  1.1186  0.7751
   45CHL1   C26 4503   0.333   4.059   4.058  0.1900 -0.2423 -0.1062
   45CHL1  H26A 4504   0.319   4.145   3.990  0.5758 -0.3111 -0.2776
   45CHL1  H26B 4505   0.363   3.966   4.004 -1.0963  1.1701 -3.5250
   45CHL1  H26C 4506   0.236   4.040   4.108 -1.0387  3.0643 -1.0145
   45CHL1   C27 4507   0.574   4.159   4.078  0.3192  1.1307  0.4267
   45CHL1  H27A 4508   0.580   4.115   3.976  0.4171  1.9459  0.0690
   45CHL1  H27B 4509   0.542   4.263   4.055 -1.4928  0.2306 -1.5416
   45CHL1  H27C 4510   0.669   4.154   4.135  1.5653  0.9167 -1.5518
   46CHL1    C3 4511   2.755   3.133   5.950  0.6142 -0.0135 -0.3066
   46CHL1    H3 4512   2.733   3.024   5.958  1.0458 -0.0880 -0.0555
   46CHL1    O3 4513   2.758   3.189   6.082 -0.1333  0.2068 -0.1628
   46CHL1   H3' 4514   2.828   3.254   6.083 -0.1882  0.2601  0.2443
   46CHL1    C4 4515   2.896   3.156   5.884  0.1865  0.7317  0.8467
   46CHL1   H4A 4516   2.926   3.263   5.883  1.2059  0.5663 -3.1737
   46CHL1   H4B 4517   2.968   3.084   5.930  0.0256 -1.6387 -2.2636
   46CHL1    C5 4518   2.888   3.127   5.739  0.4346  0.4127  0.8384
   46CHL1    C6 4519   2.976   3.042   5.686  0.4650  1.2946 -0.0002
   46CHL1    H6 4520   3.042   2.985   5.754 -1.2476 -1.5728 -0.5942
   46CHL1    C7 4521   2.981   3.016   5.538  0.1133 -0.3242 -0.3804
   46CHL1   H7A 4522   3.087   3.005   5.506 -0.8444 -3.8335 -2.9420
   46CHL1   H7B 4523   2.936   2.917   5.515  0.3317 -0.9104  1.5789
   46CHL1    C8 4524   2.910   3.124   5.452  0.1979  0.1462  0.4697
   46CHL1    H8 4525   2.966   3.220   5.455 -2.3375  1.8904 -2.2011
   46CHL1   C14 4526   2.914   3.088   5.304  0.3022  0.6472  0.1934
   46CHL1   H14 4527   2.866   2.988   5.301  1.0876  0.2851 -1.6223
   46CHL1   C15 4528   3.049   3.075   5.244  0.1201  0.1949  0.1491
   46CHL1  H15A 4529   3.125   3.155   5.261 -0.0424  0.4334 -0.2147
   46CHL1  H15B 4530   3.104   2.985   5.277 -1.3796 -0.0656  2.0976
   46CHL1   C16 4531   3.011   3.048   5.089  0.7128 -0.6768  0.0779
   46CHL1  H16A 4532   3.078   3.107   5.022  0.0876 -0.1571 -0.0987
   46CHL1  H16B 4533   3.014   2.941   5.060  0.1409 -0.1967 -1.9286
   46CHL1   C17 4534   2.860   3.098   5.069 -0.0383 -0.1666 -0.1120
   46CHL1   H17 4535   2.796   3.008   5.085  2.5349 -1.9045  1.0613
   46CHL1   C13 4536   2.839   3.176   5.209 -0.4755  1.2966  0.3019
   46CHL1   C18 4537   2.904   3.314   5.200 -0.3155  0.1759  0.6345
   46CHL1  H18A 4538   2.830   3.381   5.152  0.6152  1.5531  1.0615
   46CHL1  H18B 4539   2.917   3.353   5.303 -0.8384 -0.6046  1.0083
   46CHL1  H18C 4540   3.002   3.324   5.148 -0.2694  0.4208  0.7669
   46CHL1   C12 4541   2.688   3.178   5.262 -0.5736  0.3041  0.0660
   46CHL1  H12A 4542   2.635   3.253   5.200  0.9574 -1.4538 -3.7427
   46CHL1  H12B 4543   2.656   3.072   5.253  0.9002 -0.1694  0.0268
   46CHL1   C11 4544   2.686   3.231   5.410 -0.0505  0.2045  0.5345
   46CHL1  H11A 4545   2.718   3.337   5.408  2.9541 -0.4123  4.3236
   46CHL1  H11B 4546   2.580   3.245   5.439 -0.0202  2.1270 -0.1289
   46CHL1    C9 4547   2.774   3.149   5.510  0.2331 -0.0097  0.1589
   46CHL1    H9 4548   2.720   3.052   5.517  0.6526 -0.2485  0.1015
   46CHL1   C10 4549   2.782   3.200   5.658 -0.5729  0.3065 -0.3696
   46CHL1   C19 4550   2.809   3.348   5.649  0.0387 -0.1953 -0.6338
   46CHL1  H19A 4551   2.901   3.379   5.595 -0.1359  1.5450  0.0109
   46CHL1  H19B 4552   2.723   3.382   5.587  0.2951 -1.5159 -1.7676
   46CHL1  H19C 4553   2.804   3.401   5.747 -1.0921  1.3723 -1.4882
   46CHL1    C1 4554   2.641   3.169   5.719  0.7665  0.8544  0.0289
   46CHL1   H1A 4555   2.566   3.230   5.665 -0.0659 -0.7666 -0.7068
   46CHL1   H1B 4556   2.613   3.063   5.700  0.0498  1.1139 -0.3801
   46CHL1    C2 4557   2.633   3.195   5.871  0.6354 -0.4735 -0.5409
   46CHL1   H2A 4558   2.540   3.157   5.918  0.8660  0.7255  0.9587
   46CHL1   H2B 4559   2.628   3.305   5.887  1.0255 -0.8806  3.8394
   46CHL1   C20 4560   2.829   3.172   4.941  0.0017 -0.1225 -0.0610
   46CHL1   H20 4561   2.888   3.265   4.925  0.1960 -0.2937 -0.3593
   46CHL1   C21 4562   2.689   3.235   4.931  0.3165 -0.6267 -0.2030
   46CHL1  H21A 4563   2.675   3.310   5.012  1.2354 -0.5847 -0.0741
   46CHL1  H21B 4564   2.613   3.154   4.923  1.4521 -1.7019 -0.4467
   46CHL1  H21C 4565   2.684   3.290   4.835 -1.0224 -0.0505  0.1762
   46CHL1   C22 4566   2.869   3.079   4.816  0.2340  0.5591  0.0408
   46CHL1  H22A 4567   2.979   3.065   4.822  0.1588  0.3417  1.1355
   46CHL1  H22B 4568   2.830   2.979   4.845  0.0005  0.6601  0.0788
   46CHL1   C23 4569   2.813   3.117   4.673  0.3337 -0.1004 -0.2503
   46CHL1  H23A 4570   2.702   3.116   4.682  0.3095  1.4581 -0.2737
   46CHL1  H23B 4571   2.847   3.221   4.657  0.5647 -0.2019 -0.4335
   46CHL1   C24 4572   2.859   3.017   4.566  0.1525  0.1215 -0.7879
   46CHL1  H24A 4573   2.970   3.025   4.576  0.1362 -1.6076  1.8934
   46CHL1  H24B 4574   2.813   2.920   4.594 -0.4148 -0.0492 -2.2468
   46CHL1   C25 4575   2.809   3.046   4.425 -0.0218 -0.1801 -0.1452
   46CHL1   H25 4576   2.869   3.124   4.373 -0.4548 -1.4664 -2.7455
   46CHL1   C26 4577   2.820   2.922   4.342 -0.4414 -0.0057  0.3326
   46CHL1  H26A 4578   2.783   2.829   4.389 -0.7686 -0.7539 -1.3164
   46CHL1  H26B 4579   2.760   2.920   4.249  2.2490 -0.0287 -1.5345
   46CHL1  H26C 4580   2.926   2.906   4.312 -0.4881 -2.8893  1.4101
   46CHL1   C27 4581   2.661   3.088   4.416 -0.0148  0.0887 -0.2514
   46CHL1  H27A 4582   2.624   3.109   4.314 -0.1902  3.4517  0.3821
   46CHL1  H27B 4583   2.590   3.017   4.464 -0.6686  1.2738  0.6032
   46CHL1  H27C 4584   2.656   3.186   4.469 -0.5804 -0.3107  0.4616
   47CHL1    C3 4585   5.106   5.333   5.893 -0.2933 -0.7694 -0.2944
   47CHL1    H3 4586   5.104   5.436   5.852  2.4837 -0.6100 -0.2140
   47CHL1    O3 4587   5.066   5.348   6.028 -0.2810  0.1546  0.4905
   47CHL1   H3' 4588   5.067   5.256   6.055 -0.4472  0.0488  0.1495
   47CHL1    C4 4589   5.005   5.250   5.817 -0.3767  0.7686 -0.5072
   47CHL1   H4A 4590   4.986   5.152   5.867  1.8558  2.3532  4.0403
   47CHL1   H4B 4591   4.905   5.296   5.831 -0.3564  1.4427 -2.3610
   47CHL1    C5 4592   5.037   5.234   5.671  0.2789  0.1810 -0.0193
   47CHL1    C6 4593   4.953   5.266   5.576  0.0956 -0.3416  0.4649
   47CHL1    H6 4594   4.854   5.308   5.597 -1.1988 -1.1241 -3.2309
   47CHL1    C7 4595   4.967   5.238   5.433  0.1759  0.2778  0.2352
   47CHL1   H7A 4596   4.882   5.179   5.393 -0.1289 -0.4454  1.8439
   47CHL1   H7B 4597   4.972   5.335   5.380 -1.8698 -0.4169 -1.3644
   47CHL1    C8 4598   5.089   5.147   5.397 -0.1978  0.4800  0.5166
   47CHL1    H8 4599   5.058   5.042   5.414 -0.9721  0.4839 -0.6942
   47CHL1   C14 4600   5.119   5.165   5.249 -0.2822  0.3464 -0.2913
   47CHL1   H14 4601   5.167   5.265   5.241 -0.4907  0.4450 -0.3209
   47CHL1   C15 4602   5.004   5.155   5.142 -0.0849  0.8747  0.2341
   47CHL1  H15A 4603   4.950   5.066   5.181  0.5155  0.6746  0.6338
   47CHL1  H15B 4604   4.932   5.237   5.123 -3.1457 -1.6316  0.1588
   47CHL1   C16 4605   5.080   5.132   5.011  0.1192 -0.1642  0.1665
   47CHL1  H16A 4606   5.044   5.041   4.959 -0.0666 -0.2433  0.4354
   47CHL1  H16B 4607   5.068   5.218   4.942 -0.6927 -1.3087 -1.1740
   47CHL1   C17 4608   5.233   5.120   5.048 -0.1188  0.2714 -1.0722
   47CHL1   H17 4609   5.274   5.223   5.042 -1.6845  0.8888 -1.6315
   47CHL1   C13 4610   5.236   5.085   5.198  0.7876 -0.0425 -0.3510
   47CHL1   C18 4611   5.217   4.930   5.202 -0.2669  0.3942 -0.0433
   47CHL1  H18A 4612   5.181   4.894   5.301 -0.4244  0.3501 -0.1156
   47CHL1  H18B 4613   5.156   4.885   5.120  0.2026 -2.6170  1.1258
   47CHL1  H18C 4614   5.318   4.883   5.194 -0.0640 -0.0979  3.7050
   47CHL1   C12 4615   5.358   5.128   5.288  0.4319 -0.5878 -0.1651
   47CHL1  H12A 4616   5.449   5.077   5.250 -0.9300 -2.4153 -1.1227
   47CHL1  H12B 4617   5.377   5.237   5.276 -0.0648 -0.5465 -0.5820
   47CHL1   C11 4618   5.338   5.107   5.444  0.5421 -0.4476 -0.0615
   47CHL1  H11A 4619   5.330   4.997   5.460  0.1234 -0.7786 -2.2732
   47CHL1  H11B 4620   5.428   5.155   5.488  0.4965 -0.9964  0.6611
   47CHL1    C9 4621   5.208   5.185   5.492 -0.3165  0.6872  0.1846
   47CHL1    H9 4622   5.222   5.294   5.480 -2.5783  1.2931  2.1163
   47CHL1   C10 4623   5.177   5.175   5.643 -0.0939 -1.0302 -0.4771
   47CHL1   C19 4624   5.180   5.027   5.693  0.0933  0.7113  0.2051
   47CHL1  H19A 4625   5.276   4.976   5.673  0.1008  0.3707  1.0572
   47CHL1  H19B 4626   5.158   5.033   5.802  0.6328 -0.6968  0.4053
   47CHL1  H19C 4627   5.102   4.964   5.645 -0.2372  0.2527  1.3171
   47CHL1    C1 4628   5.280   5.271   5.724  0.4219 -0.6174 -0.3645
   47CHL1   H1A 4629   5.383   5.232   5.715  0.9596  0.4243  0.9693
   47CHL1   H1B 4630   5.278   5.367   5.668  1.2478  1.3682  2.7962
   47CHL1    C2 4631   5.253   5.286   5.873  1.0444  0.1245  0.1235
   47CHL1   H2A 4632   5.327   5.366   5.897  0.3768  0.7481  0.1242
   47CHL1   H2B 4633   5.275   5.185   5.912  1.2317  0.4214  0.8065
   47CHL1   C20 4634   5.317   5.042   4.946  0.9011 -0.2074 -0.7497
   47CHL1   H20 4635   5.290   4.935   4.954  0.5008 -0.0230  0.7039
   47CHL1   C21 4636   5.458   5.082   4.964 -0.0430  0.2210 -0.8436
   47CHL1  H21A 4637   5.477   5.191   4.977  1.7353 -0.3590  2.4597
   47CHL1  H21B 4638   5.527   5.049   4.884  0.6699 -1.9325  0.5827
   47CHL1  H21C 4639   5.498   5.027   5.051  1.8732  0.1719 -1.6994
   47CHL1   C22 4640   5.284   5.075   4.795 -0.7695 -0.4862 -0.1308
   47CHL1  H22A 4641   5.178   5.057   4.766 -0.7100  1.1064 -1.5396
   47CHL1  H22B 4642   5.308   5.181   4.775 -1.9311  0.2627  2.1197
   47CHL1   C23 4643   5.361   4.983   4.697  0.3104 -0.1336 -0.0290
   47CHL1  H23A 4644   5.458   5.035   4.683  0.9837 -1.4479 -0.4070
   47CHL1  H23B 4645   5.372   4.884   4.746 -2.5512 -0.5854 -0.1134
   47CHL1   C24 4646   5.295   4.987   4.558  0.0154  0.5353  0.1066
   47CHL1  H24A 4647   5.192   4.946   4.558 -0.7965  2.4147 -1.5384
   47CHL1  H24B 4648   5.267   5.093   4.536 -2.1450 -0.2164 -1.0715
   47CHL1   C25 4649   5.385   4.950   4.435 -0.1248  0.5748 -0.3346
   47CHL1   H25 4650   5.389   4.839   4.433 -1.0691  0.5465 -1.1700
   47CHL1   C26 4651   5.314   4.995   4.305  1.0309 -0.3813  0.2165
   47CHL1  H26A 4652   5.206   4.970   4.304  0.6518  0.9773 -2.4897
   47CHL1  H26B 4653   5.325   5.105   4.294  2.3045 -0.5504 -0.4006
   47CHL1  H26C 4654   5.351   4.937   4.218 -0.9903 -1.2731 -0.1191
   47CHL1   C27 4655   5.535   5.001   4.446  0.3859 -0.0549  0.4607
   47CHL1  H27A 4656   5.594   4.943   4.521  0.7612 -0.4397 -0.1236
   47CHL1  H27B 4657   5.579   4.968   4.349 -1.0099  0.9234 -0.5333
   47CHL1  H27C 4658   5.544   5.110   4.463  1.2718 -0.2508  1.3737
   48CHL1    C3 4659   2.050   5.860   5.907 -0.3681  1.3505  0.0819
   48CHL1    H3 4660   1.950   5.906   5.914 -1.1522 -0.4896  2.0642
   48CHL1    O3 4661   2.079   5.826   6.045  0.0567 -0.1250  0.2382
   48CHL1   H3' 4662   2.059   5.912   6.082 -1.8821  0.6600 -2.2864
   48CHL1    C4 4663   2.042   5.727   5.829  0.4999 -0.2751  0.7057
   48CHL1   H4A 4664   2.143   5.683   5.843  1.1273  0.3968 -1.3456
   48CHL1   H4B 4665   1.951   5.673   5.865 -0.7638  2.2736  1.5867
   48CHL1    C5 4666   2.025   5.761   5.676  0.6757 -0.8929  0.3988
   48CHL1    C6 4667   1.922   5.704   5.607 -0.4778  0.7013 -0.1095
   48CHL1    H6 4668   1.858   5.628   5.655  3.4981 -1.8638  1.6846
   48CHL1    C7 4669   1.909   5.714   5.456 -0.4051 -0.1404  0.0416
   48CHL1   H7A 4670   1.887   5.613   5.414 -0.9814  0.1089 -0.2715
   48CHL1   H7B 4671   1.827   5.787   5.438  0.3949  1.0243  0.9552
   48CHL1    C8 4672   2.033   5.770   5.382  0.0812 -0.0550  0.2947
   48CHL1    H8 4673   2.110   5.690   5.373 -1.0052 -1.1533  0.3978
   48CHL1   C14 4674   1.996   5.815   5.239  0.6616 -0.0569  0.5333
   48CHL1   H14 4675   1.925   5.898   5.258  0.8277 -0.2276  1.9866
   48CHL1   C15 4676   1.936   5.716   5.146  0.2391  0.2754 -0.1080
   48CHL1  H15A 4677   1.975   5.613   5.158 -1.2726 -0.2772  0.2727
   48CHL1  H15B 4678   1.830   5.695   5.173  0.5871 -1.0738  0.2907
   48CHL1   C16 4679   1.953   5.778   5.008 -0.5885 -0.0312  0.4471
   48CHL1  H16A 4680   2.015   5.708   4.948 -1.0307 -0.9292  1.0170
   48CHL1  H16B 4681   1.856   5.797   4.957 -0.7115 -2.2421 -0.2305
   48CHL1   C17 4682   2.040   5.908   5.024  0.5033  0.0631  0.9828
   48CHL1   H17 4683   1.975   5.995   5.046  0.7714  0.4178  0.4005
   48CHL1   C13 4684   2.113   5.886   5.156  0.3640  0.3903 -0.3226
   48CHL1   C18 4685   2.231   5.787   5.131  0.0856  0.1269 -0.1081
   48CHL1  H18A 4686   2.307   5.839   5.069 -1.6113  2.0053 -0.7292
   48CHL1  H18B 4687   2.286   5.755   5.222  0.8538  0.0353 -0.5942
   48CHL1  H18C 4688   2.201   5.695   5.076 -0.0573 -1.2744  2.1765
   48CHL1   C12 4689   2.153   6.012   5.244 -0.1254  0.5540 -0.5324
   48CHL1  H12A 4690   2.245   6.038   5.188 -0.8476 -0.1964 -2.1311
   48CHL1  H12B 4691   2.078   6.093   5.247 -1.0347 -0.2664  1.9239
   48CHL1   C11 4692   2.201   5.968   5.390  0.0308  0.5827 -0.8183
   48CHL1  H11A 4693   2.295   5.910   5.378  0.6649  1.9567 -3.0660
   48CHL1  H11B 4694   2.229   6.063   5.441 -1.1582  0.9887 -0.8852
   48CHL1    C9 4695   2.086   5.892   5.466 -0.7285  0.2882  0.4339
   48CHL1    H9 4696   1.994   5.955   5.475  0.6155  2.8584 -2.2022
   48CHL1   C10 4697   2.126   5.857   5.610 -0.8029  0.3406 -0.4330
   48CHL1   C19 4698   2.267   5.782   5.618  0.8568  0.0127 -0.0677
   48CHL1  H19A 4699   2.304   5.773   5.722 -2.2543  1.8712  1.3616
   48CHL1  H19B 4700   2.238   5.683   5.576 -1.7699  0.0274  1.4998
   48CHL1  H19C 4701   2.347   5.824   5.554  1.3392 -0.6531  0.0829
   48CHL1    C1 4702   2.140   5.983   5.699  0.8456 -0.0784  0.2086
   48CHL1   H1A 4703   2.226   6.046   5.667 -0.2612  0.6118 -1.5768
   48CHL1   H1B 4704   2.047   6.040   5.678  1.5567  0.7562 -0.7815
   48CHL1    C2 4705   2.150   5.957   5.851 -0.4542  0.0037  0.6985
   48CHL1   H2A 4706   2.140   6.051   5.908  1.7580  1.3953 -1.0501
   48CHL1   H2B 4707   2.251   5.919   5.877 -0.1489  1.1698  1.2572
   48CHL1   C20 4708   2.114   5.947   4.902  0.2457  0.2740  0.1209
   48CHL1   H20 4709   2.176   5.857   4.883  2.4380  1.3005  1.8850
   48CHL1   C21 4710   2.207   6.069   4.911 -0.1848  0.5135  0.4294
   48CHL1  H21A 4711   2.236   6.106   4.810 -1.1206 -0.4900 -0.2279
   48CHL1  H21B 4712   2.155   6.148   4.968  0.8557 -0.1238  2.3469
   48CHL1  H21C 4713   2.302   6.046   4.965 -1.1027 -1.0032  1.4694
   48CHL1   C22 4714   2.017   5.975   4.782 -0.4435  0.0091 -0.5069
   48CHL1  H22A 4715   2.085   6.015   4.704  0.2043 -2.1707 -1.1314
   48CHL1  H22B 4716   1.971   5.883   4.739  0.4549 -1.1072  0.8545
   48CHL1   C23 4717   1.908   6.074   4.810 -0.0071  0.0186  0.5876
   48CHL1  H23A 4718   1.838   6.023   4.880  0.0621 -0.9242 -0.0121
   48CHL1  H23B 4719   1.950   6.170   4.848  0.5601 -0.5395  1.3930
   48CHL1   C24 4720   1.819   6.112   4.688  0.3244  0.4337 -0.5112
   48CHL1  H24A 4721   1.808   6.013   4.639 -1.0015 -0.8480  2.1461
   48CHL1  H24B 4722   1.717   6.136   4.724  0.5486 -0.0435  0.4769
   48CHL1   C25 4723   1.869   6.225   4.597  0.6725  0.4717 -0.2216
   48CHL1   H25 4724   1.970   6.196   4.561 -0.0602 -0.8872 -1.2920
   48CHL1   C26 4725   1.789   6.233   4.468 -0.2706  0.4139 -0.1796
   48CHL1  H26A 4726   1.682   6.252   4.493 -0.5902  1.6046 -2.1957
   48CHL1  H26B 4727   1.833   6.313   4.404 -0.1012 -1.3945 -2.4544
   48CHL1  H26C 4728   1.800   6.134   4.419  0.3371  0.5721 -0.3677
   48CHL1   C27 4729   1.872   6.357   4.674 -0.3936 -0.7409 -0.2798
   48CHL1  H27A 4730   1.886   6.448   4.612 -2.2073 -0.8671 -0.9138
   48CHL1  H27B 4731   1.775   6.369   4.726 -0.5751  0.5617 -0.8629
   48CHL1  H27C 4732   1.952   6.370   4.750  0.9693  1.2067 -1.9201
   49CHL1    C3 4733   2.259   4.909   2.529 -0.1573  0.1035 -0.1344
   49CHL1    H3 4734   2.244   4.801   2.551 -2.7546  0.5422  0.5799
   49CHL1    O3 4735   2.212   4.951   2.399 -0.3963  0.6942 -0.1091
   49CHL1   H3' 4736   2.125   4.913   2.384 -0.0971  1.1109 -3.8432
   49CHL1    C4 4737   2.181   4.973   2.639  0.0799 -0.6680 -0.2216
   49CHL1   H4A 4738   2.174   5.083   2.622  2.9484 -0.5261 -0.9368
   49CHL1   H4B 4739   2.080   4.927   2.632 -1.3499  1.9178  1.8164
   49CHL1    C5 4740   2.238   4.961   2.776 -0.3731  1.2695  0.0598
   49CHL1    C6 4741   2.162   4.903   2.866 -0.1151 -0.2972 -0.7504
   49CHL1    H6 4742   2.060   4.868   2.843 -0.5526  1.2712 -1.2936
   49CHL1    C7 4743   2.200   4.907   3.013 -0.0184  0.3570 -0.1183
   49CHL1   H7A 4744   2.116   4.951   3.071  0.3137  0.7912  0.0383
   49CHL1   H7B 4745   2.216   4.803   3.051  1.3613  1.1048  1.5011
   49CHL1    C8 4746   2.328   4.997   3.042  0.2279 -0.1610 -1.2956
   49CHL1    H8 4747   2.291   5.102   3.035  1.7468  0.6133  0.9506
   49CHL1   C14 4748   2.378   4.972   3.180 -0.3873 -0.3680 -0.4557
   49CHL1   H14 4749   2.398   4.863   3.187 -0.1959 -0.2858  0.3755
   49CHL1   C15 4750   2.282   5.008   3.287 -0.1353 -0.3813 -0.4578
   49CHL1  H15A 4751   2.242   5.107   3.256 -0.8899 -0.1827  1.0748
   49CHL1  H15B 4752   2.204   4.930   3.301 -0.1389 -0.0900  1.4367
   49CHL1   C16 4753   2.364   5.023   3.415  0.3928  0.0482  0.3617
   49CHL1  H16A 4754   2.350   5.124   3.459 -1.8940 -0.9875  2.2050
   49CHL1  H16B 4755   2.347   4.946   3.493 -0.9516 -0.4280 -0.3578
   49CHL1   C17 4756   2.510   5.014   3.367 -0.1784  0.4013 -0.0500
   49CHL1   H17 4757   2.526   4.904   3.373  0.0876  0.2949 -2.0163
   49CHL1   C13 4758   2.494   5.054   3.219  0.0384 -0.1801  0.0893
   49CHL1   C18 4759   2.477   5.211   3.208 -0.4686  0.1152  0.0530
   49CHL1  H18A 4760   2.574   5.264   3.207 -1.4180  1.9136  0.0293
   49CHL1  H18B 4761   2.419   5.231   3.116 -1.4113  0.4580  0.7047
   49CHL1  H18C 4762   2.416   5.256   3.289  0.0785  0.2307  0.4070
   49CHL1   C12 4763   2.606   5.001   3.128 -0.5157 -0.6551  0.1402
   49CHL1  H12A 4764   2.700   5.054   3.153  0.4529 -0.8470 -2.6654
   49CHL1  H12B 4765   2.622   4.892   3.145 -1.1290 -0.8712 -0.6220
   49CHL1   C11 4766   2.579   5.021   2.977  0.0447  0.8599  0.8161
   49CHL1  H11A 4767   2.599   5.129   2.960  0.7955  0.6613  0.3565
   49CHL1  H11B 4768   2.656   4.965   2.918  0.0240 -1.2105  2.6207
   49CHL1    C9 4769   2.436   4.969   2.939  0.8206 -0.7918  0.8801
   49CHL1    H9 4770   2.440   4.859   2.931  0.2437 -0.6757 -3.1153
   49CHL1   C10 4771   2.385   5.007   2.800  0.1600 -0.4792  0.6672
   49CHL1   C19 4772   2.385   5.158   2.786  0.5812  0.2470 -0.4058
   49CHL1  H19A 4773   2.325   5.216   2.860  0.3188 -3.2604  2.3716
   49CHL1  H19B 4774   2.492   5.191   2.786  1.7581 -3.2364 -0.5056
   49CHL1  H19C 4775   2.340   5.180   2.687 -1.1469  4.0562  1.0093
   49CHL1    C1 4776   2.467   4.932   2.690 -0.1389  1.2389 -0.4479
   49CHL1   H1A 4777   2.575   4.958   2.693 -0.1627  1.2774  0.5383
   49CHL1   H1B 4778   2.471   4.822   2.709  3.3742  1.4009  0.5650
   49CHL1    C2 4779   2.408   4.942   2.541  0.4666  0.3153 -0.1234
   49CHL1   H2A 4780   2.457   4.880   2.463 -0.0896  1.4230 -1.3808
   49CHL1   H2B 4781   2.419   5.048   2.512 -0.6239 -0.2690 -2.9705
   49CHL1   C20 4782   2.603   5.091   3.461 -0.9221 -0.0625 -0.0621
   49CHL1   H20 4783   2.587   5.199   3.439  0.2826  1.0680  3.8640
   49CHL1   C21 4784   2.753   5.067   3.412  0.7122 -0.1971 -0.5120
   49CHL1  H21A 4785   2.769   5.119   3.315  0.6342  1.4639  0.3273
   49CHL1  H21B 4786   2.777   4.960   3.399 -0.1876 -0.5656  0.7179
   49CHL1  H21C 4787   2.829   5.105   3.483  0.4025 -0.3068 -0.1230
   49CHL1   C22 4788   2.587   5.068   3.613  0.4182  0.1745  1.3229
   49CHL1  H22A 4789   2.495   5.123   3.644  0.2500  0.2028  0.7770
   49CHL1  H22B 4790   2.567   4.960   3.628  0.4097 -0.1087 -0.5018
   49CHL1   C23 4791   2.700   5.106   3.706  0.2066  0.5625  0.0020
   49CHL1  H23A 4792   2.778   5.028   3.691  0.0518  0.4203 -0.0551
   49CHL1  H23B 4793   2.738   5.208   3.685  0.8697  0.5924  1.2203
   49CHL1   C24 4794   2.651   5.109   3.852 -0.3586  0.4680  0.2046
   49CHL1  H24A 4795   2.558   5.168   3.870 -0.0059  0.7326  1.1923
   49CHL1  H24B 4796   2.626   5.007   3.887  0.3584  0.3656  0.4298
   49CHL1   C25 4797   2.761   5.156   3.952  0.7982 -0.5627  0.2361
   49CHL1   H25 4798   2.845   5.088   3.929  0.5088 -0.4366 -1.2986
   49CHL1   C26 4799   2.809   5.304   3.943 -0.6131  0.1924 -0.5175
   49CHL1  H26A 4800   2.847   5.330   3.842  1.7894  2.4813  0.8626
   49CHL1  H26B 4801   2.719   5.365   3.961 -1.7619 -1.5085 -0.2351
   49CHL1  H26C 4802   2.890   5.331   4.014 -0.0291 -1.7721 -0.3530
   49CHL1   C27 4803   2.721   5.129   4.098  0.8354 -0.6150  0.4744
   49CHL1  H27A 4804   2.740   5.025   4.130  3.8760  0.2971  2.0435
   49CHL1  H27B 4805   2.758   5.206   4.170  0.7316  1.1512 -1.2706
   49CHL1  H27C 4806   2.610   5.132   4.094  0.6810  0.7149  3.1778
   50CHL1    C3 4807   1.905   4.349   2.370 -0.5201  0.0571 -0.3194
   50CHL1    H3 4808   1.832   4.267   2.386  0.0286 -0.2906  0.5143
   50CHL1    O3 4809   1.951   4.362   2.239 -0.4465 -0.2374 -0.3713
   50CHL1   H3' 4810   2.045   4.342   2.242 -0.6039 -0.9677 -0.2471
   50CHL1    C4 4811   1.844   4.484   2.415 -0.4424  0.0638  0.2543
   50CHL1   H4A 4812   1.916   4.565   2.393 -0.1607  0.6459  2.9548
   50CHL1   H4B 4813   1.747   4.493   2.361  0.0140 -0.0436 -0.5887
   50CHL1    C5 4814   1.812   4.495   2.566 -0.1643 -0.1849  0.2784
   50CHL1    C6 4815   1.689   4.525   2.602 -0.2788 -0.5882  0.3657
   50CHL1    H6 4816   1.618   4.556   2.524 -1.7669  1.4748  2.3785
   50CHL1    C7 4817   1.648   4.545   2.747 -0.5168 -0.2925  0.7316
   50CHL1   H7A 4818   1.618   4.652   2.746  1.0563  0.1935 -0.2815
   50CHL1   H7B 4819   1.569   4.474   2.779 -0.9454  0.2982  0.9851
   50CHL1    C8 4820   1.775   4.542   2.841  0.1955  0.1297  0.0934
   50CHL1    H8 4821   1.826   4.640   2.826  0.0994 -0.0744 -1.8783
   50CHL1   C14 4822   1.727   4.544   2.982 -0.4246 -0.1188  0.3579
   50CHL1   H14 4823   1.674   4.447   2.992 -0.0291 -0.1882  2.2242
   50CHL1   C15 4824   1.626   4.649   3.015  0.2679 -0.1906  0.0165
   50CHL1  H15A 4825   1.640   4.750   2.972 -1.7163 -0.0561 -0.4105
   50CHL1  H15B 4826   1.523   4.621   2.983 -0.8175  3.1705  0.1430
   50CHL1   C16 4827   1.635   4.659   3.173  0.9663 -0.0452  0.5320
   50CHL1  H16A 4828   1.654   4.762   3.210  0.4542  0.2351  0.0259
   50CHL1  H16B 4829   1.542   4.624   3.223  0.0453  0.1640 -0.9798
   50CHL1   C17 4830   1.748   4.564   3.215 -0.4372 -0.6560 -0.1084
   50CHL1   H17 4831   1.693   4.469   3.232 -0.3842 -0.5237  0.8653
   50CHL1   C13 4832   1.838   4.552   3.088  0.3380 -0.2677  0.4753
   50CHL1   C18 4833   1.918   4.680   3.073 -0.0997  0.6461 -0.6178
   50CHL1  H18A 4834   1.994   4.676   3.154 -0.3624 -1.2754 -0.4139
   50CHL1  H18B 4835   1.976   4.681   2.978  0.0114 -0.2280 -0.5666
   50CHL1  H18C 4836   1.853   4.770   3.076 -1.0320  0.0265 -1.4536
   50CHL1   C12 4837   1.922   4.427   3.064 -0.1305  0.2995 -0.3912
   50CHL1  H12A 4838   2.005   4.416   3.137  0.6340 -0.7547 -1.3812
   50CHL1  H12B 4839   1.860   4.337   3.085 -0.5160  1.1278  2.4620
   50CHL1   C11 4840   1.974   4.414   2.921  0.0357  0.7712 -0.1811
   50CHL1  H11A 4841   2.053   4.492   2.919 -0.7467  1.6086  0.2122
   50CHL1  H11B 4842   2.026   4.319   2.897 -0.9692  0.8700 -3.0585
   50CHL1    C9 4843   1.871   4.429   2.810  0.8028 -0.2205  0.1638
   50CHL1    H9 4844   1.798   4.346   2.815 -1.1733  1.2973 -1.7809
   50CHL1   C10 4845   1.919   4.452   2.665 -0.3614 -0.0847  0.2931
   50CHL1   C19 4846   2.027   4.563   2.667 -0.3553  0.0817  0.7991
   50CHL1  H19A 4847   1.995   4.651   2.727 -1.5531  0.2361 -0.0538
   50CHL1  H19B 4848   2.111   4.514   2.721 -1.0314 -2.1926 -0.1063
   50CHL1  H19C 4849   2.064   4.594   2.567 -0.8966  0.5760  0.7500
   50CHL1    C1 4850   1.978   4.320   2.613  0.9315  0.3829  0.1138
   50CHL1   H1A 4851   2.068   4.300   2.674 -0.3114  0.4171  2.0608
   50CHL1   H1B 4852   1.899   4.244   2.631  0.6712  0.8795  1.1675
   50CHL1    C2 4853   2.022   4.316   2.466 -0.0174  0.0764 -0.6544
   50CHL1   H2A 4854   2.065   4.217   2.440 -0.7289 -0.4268  0.0216
   50CHL1   H2B 4855   2.104   4.391   2.459 -1.2381  1.4306 -1.0656
   50CHL1   C20 4856   1.804   4.587   3.357  0.0105 -1.0944 -0.4890
   50CHL1   H20 4857   1.882   4.666   3.352 -1.4828  0.4867 -0.0408
   50CHL1   C21 4858   1.868   4.460   3.409  0.0935 -0.0678  0.1320
   50CHL1  H21A 4859   1.912   4.480   3.508 -2.1887 -3.5862  2.0890
   50CHL1  H21B 4860   1.954   4.430   3.345 -0.3350  0.1578 -0.5700
   50CHL1  H21C 4861   1.805   4.369   3.416  1.2959 -0.9602 -0.3158
   50CHL1   C22 4862   1.703   4.648   3.457  0.9093 -0.1033 -0.4952
   50CHL1  H22A 4863   1.658   4.746   3.430 -0.1948  0.4072  2.7428
   50CHL1  H22B 4864   1.631   4.567   3.482  0.1975  1.3381  2.5250
   50CHL1   C23 4865   1.762   4.688   3.593  0.7121 -0.0354 -0.2645
   50CHL1  H23A 4866   1.784   4.590   3.640  2.4544  0.0761 -0.7673
   50CHL1  H23B 4867   1.865   4.725   3.571  1.3003 -0.5980  1.4185
   50CHL1   C24 4868   1.664   4.767   3.684 -0.6999  0.1837  0.8252
   50CHL1  H24A 4869   1.654   4.865   3.632  0.9774 -1.5429 -3.1929
   50CHL1  H24B 4870   1.568   4.713   3.697 -1.7161  1.7842  0.1964
   50CHL1   C25 4871   1.717   4.791   3.828 -0.2216  0.0178 -0.3377
   50CHL1   H25 4872   1.811   4.850   3.831  0.6432 -1.2951  2.9430
   50CHL1   C26 4873   1.619   4.885   3.904  0.2225 -0.6825 -0.6455
   50CHL1  H26A 4874   1.553   4.945   3.837 -0.1650  0.4921  0.7245
   50CHL1  H26B 4875   1.551   4.820   3.964 -0.0790  0.6413  0.5044
   50CHL1  H26C 4876   1.677   4.959   3.965 -0.6747  0.8576 -1.5874
   50CHL1   C27 4877   1.747   4.661   3.901 -0.4144  0.3831 -0.0957
   50CHL1  H27A 4878   1.656   4.601   3.920 -0.3821  0.9816  2.2718
   50CHL1  H27B 4879   1.819   4.593   3.850  0.0540  0.2862  0.6784
   50CHL1  H27C 4880   1.790   4.681   4.002 -0.0597  0.6605 -0.3018
   51CHL1    C3 4881   2.030   3.317   2.523  0.0871  0.0528  0.1928
   51CHL1    H3 4882   2.012   3.423   2.494  0.9061 -0.5416 -2.8180
   51CHL1    O3 4883   2.053   3.253   2.402 -0.7564 -0.6633  0.0028
   51CHL1   H3' 4884   2.117   3.306   2.355 -0.2956 -0.5703  0.7181
   51CHL1    C4 4885   2.153   3.299   2.621  0.2457  0.6364  0.6978
   51CHL1   H4A 4886   2.176   3.191   2.622  1.6084  0.9065  1.9624
   51CHL1   H4B 4887   2.233   3.354   2.567  0.4293 -1.5667 -1.4287
   51CHL1    C5 4888   2.124   3.339   2.764  0.0562  0.3286 -0.5002
   51CHL1    C6 4889   2.211   3.416   2.822 -0.3938 -0.3788  0.1850
   51CHL1    H6 4890   2.298   3.440   2.759 -1.4009 -1.9630 -1.9207
   51CHL1    C7 4891   2.174   3.489   2.958 -0.3445 -0.1969 -0.7895
   51CHL1   H7A 4892   2.261   3.508   3.024 -1.5830 -0.9513  1.1494
   51CHL1   H7B 4893   2.120   3.586   2.945 -2.4318 -0.9906  1.1903
   51CHL1    C8 4894   2.065   3.398   3.043 -0.0112 -0.6528 -0.8537
   51CHL1    H8 4895   2.113   3.306   3.083  0.2261  0.3298  1.2361
   51CHL1   C14 4896   2.018   3.482   3.162  0.1801 -0.4646  0.1338
   51CHL1   H14 4897   1.959   3.567   3.120  0.8695 -0.0921 -0.0943
   51CHL1   C15 4898   2.123   3.544   3.251 -0.1875 -0.0633 -0.3082
   51CHL1  H15A 4899   2.205   3.471   3.270 -0.5355 -0.2539  0.5085
   51CHL1  H15B 4900   2.157   3.638   3.204 -2.2303  1.3456  0.9052
   51CHL1   C16 4901   2.050   3.563   3.389  0.2871  0.1238  0.0797
   51CHL1  H16A 4902   2.108   3.511   3.469  0.2879  1.4400  0.9674
   51CHL1  H16B 4903   2.046   3.672   3.410  1.7781  0.0821  0.7530
   51CHL1   C17 4904   1.905   3.508   3.366  0.6766 -0.0423  1.0174
   51CHL1   H17 4905   1.844   3.587   3.317 -0.7443 -2.5177 -1.5378
   51CHL1   C13 4906   1.921   3.404   3.254 -0.3380  0.8684  0.3047
   51CHL1   C18 4907   1.981   3.272   3.307 -1.3093  0.0242 -0.0886
   51CHL1  H18A 4908   1.908   3.208   3.362 -1.2131 -0.6226 -0.7007
   51CHL1  H18B 4909   2.010   3.207   3.222  0.2059 -1.4442  1.4485
   51CHL1  H18C 4910   2.067   3.298   3.372 -0.6709 -0.5898 -0.6689
   51CHL1   C12 4911   1.789   3.377   3.169 -0.0566 -0.8582 -0.3235
   51CHL1  H12A 4912   1.727   3.302   3.223  0.6639 -0.8868  0.4801
   51CHL1  H12B 4913   1.746   3.476   3.142  2.1676  0.5826  1.0751
   51CHL1   C11 4914   1.825   3.312   3.038  0.8602  0.0750  0.1610
   51CHL1  H11A 4915   1.854   3.208   3.063 -0.4575 -0.0202  1.4807
   51CHL1  H11B 4916   1.737   3.303   2.971 -0.4715 -0.1518  1.8673
   51CHL1    C9 4917   1.941   3.371   2.960  0.0937 -0.1226 -0.0318
   51CHL1    H9 4918   1.899   3.471   2.935  0.8371  0.6921  1.8024
   51CHL1   C10 4919   1.979   3.298   2.822  0.1829  0.1326 -0.7767
   51CHL1   C19 4920   2.006   3.147   2.853 -0.2537 -0.0423 -0.3783
   51CHL1  H19A 4921   1.920   3.093   2.896  1.5353 -2.3009  0.5861
   51CHL1  H19B 4922   2.037   3.089   2.763 -2.2403 -1.9928  0.1121
   51CHL1  H19C 4923   2.075   3.121   2.936 -2.0132 -1.2051  0.7911
   51CHL1    C1 4924   1.872   3.325   2.721  0.0748  0.3806  0.1039
   51CHL1   H1A 4925   1.772   3.293   2.759 -0.6177 -0.3054 -2.1336
   51CHL1   H1B 4926   1.872   3.427   2.678 -0.4421 -0.4554 -2.0318
   51CHL1    C2 4927   1.904   3.254   2.587  0.0241  0.0525  0.1323
   51CHL1   H2A 4928   1.817   3.278   2.521  0.3391  4.2917  0.9588
   51CHL1   H2B 4929   1.919   3.144   2.596  0.3156  0.1262  0.5617
   51CHL1   C20 4930   1.839   3.482   3.497 -0.2337  0.4796  0.3335
   51CHL1   H20 4931   1.893   3.398   3.546 -0.1626 -0.9831 -2.1103
   51CHL1   C21 4932   1.695   3.427   3.471  0.1421 -0.0500  0.8734
   51CHL1  H21A 4933   1.704   3.342   3.399  3.7149 -0.4689  1.6152
   51CHL1  H21B 4934   1.643   3.505   3.411 -2.0544 -3.1447 -1.6161
   51CHL1  H21C 4935   1.633   3.404   3.560 -3.1084  0.9959 -0.9587
   51CHL1   C22 4936   1.840   3.596   3.606  0.0497 -0.1158 -0.1777
   51CHL1  H22A 4937   1.949   3.617   3.614 -0.1542  0.9369  0.0223
   51CHL1  H22B 4938   1.801   3.681   3.546 -0.2952 -0.2970 -0.2121
   51CHL1   C23 4939   1.767   3.565   3.742 -0.8181  0.2960  0.1752
   51CHL1  H23A 4940   1.658   3.585   3.735 -0.6159  0.9969 -1.5559
   51CHL1  H23B 4941   1.763   3.455   3.757 -4.1691 -0.2326 -3.0638
   51CHL1   C24 4942   1.840   3.643   3.854  0.4861  0.9707 -0.1622
   51CHL1  H24A 4943   1.942   3.601   3.867  0.3944  0.9754  0.6073
   51CHL1  H24B 4944   1.849   3.749   3.821  0.3475  0.6834 -1.1378
   51CHL1   C25 4945   1.763   3.635   3.994  0.3001 -0.3500  0.5723
   51CHL1   H25 4946   1.653   3.651   3.987  0.3830  0.1671  0.3871
   51CHL1   C26 4947   1.764   3.494   4.056 -0.4035 -0.5523  0.3163
   51CHL1  H26A 4948   1.736   3.415   3.984 -0.5325 -0.0267 -0.2231
   51CHL1  H26B 4949   1.866   3.473   4.093 -0.1950 -1.9403 -0.9450
   51CHL1  H26C 4950   1.698   3.491   4.145 -0.6822  1.8354  0.2614
   51CHL1   C27 4951   1.803   3.752   4.084  0.0783 -0.9632  0.6124
   51CHL1  H27A 4952   1.771   3.840   4.025 -1.6987 -2.6557 -1.1214
   51CHL1  H27B 4953   1.743   3.760   4.177  0.2835 -0.7475  0.7272
   51CHL1  H27C 4954   1.911   3.753   4.110  0.6609  1.6329 -1.4827
   52CHL1    C3 4955   0.431   2.993   2.990 -0.1043  0.4594  0.9062
   52CHL1    H3 4956   0.432   2.884   2.972 -0.1409  0.4894  0.7254
   52CHL1    O3 4957   0.414   3.037   2.854  0.2389  0.2105  0.2051
   52CHL1   H3' 4958   0.500   3.038   2.812 -0.6385  1.1809 -1.6902
   52CHL1    C4 4959   0.314   3.039   3.071 -0.2173  0.7488  0.2294
   52CHL1   H4A 4960   0.309   3.149   3.055  1.5310  0.7962 -0.2074
   52CHL1   H4B 4961   0.216   2.998   3.039 -1.5394  3.2936  0.7243
   52CHL1    C5 4962   0.331   2.996   3.217  0.7765  0.5507  0.0855
   52CHL1    C6 4963   0.239   2.922   3.284  0.1119 -0.4186 -0.3810
   52CHL1    H6 4964   0.150   2.883   3.233 -0.0300  0.2546 -0.6676
   52CHL1    C7 4965   0.247   2.896   3.431  0.5698 -0.4223  0.1182
   52CHL1   H7A 4966   0.157   2.918   3.493  2.7722  2.1105  2.7142
   52CHL1   H7B 4967   0.267   2.790   3.455 -1.0933 -0.8073 -0.0425
   52CHL1    C8 4968   0.360   2.965   3.509  0.2670  0.4032 -0.3759
   52CHL1    H8 4969   0.333   3.072   3.527 -0.4847 -0.3153  3.5639
   52CHL1   C14 4970   0.386   2.887   3.640 -0.3646  0.0181  0.2539
   52CHL1   H14 4971   0.413   2.783   3.610 -1.5253  0.1443 -1.3697
   52CHL1   C15 4972   0.263   2.873   3.730  0.1841  0.3610 -0.1303
   52CHL1  H15A 4973   0.220   2.974   3.745  0.4314  0.4418  0.0494
   52CHL1  H15B 4974   0.195   2.799   3.684  1.0797  0.6202 -1.9742
   52CHL1   C16 4975   0.323   2.834   3.863 -0.0034  0.2644  0.3292
   52CHL1  H16A 4976   0.271   2.875   3.953  1.4447  0.2035  1.2332
   52CHL1  H16B 4977   0.294   2.727   3.860 -1.0396  0.5690 -1.2280
   52CHL1   C17 4978   0.478   2.849   3.853  0.1222 -1.1380  1.1582
   52CHL1   H17 4979   0.514   2.745   3.839 -2.2648 -1.7595 -1.2192
   52CHL1   C13 4980   0.496   2.940   3.729 -0.1486 -0.6028  0.3161
   52CHL1   C18 4981   0.470   3.088   3.774  0.5074 -0.2335  0.5299
   52CHL1  H18A 4982   0.447   3.152   3.686  4.0540 -0.7482 -0.9448
   52CHL1  H18B 4983   0.390   3.090   3.851  1.1005 -2.6447  1.2914
   52CHL1  H18C 4984   0.565   3.121   3.821  0.2256 -0.8489  1.5733
   52CHL1   C12 4985   0.623   2.939   3.646 -0.6254 -0.1361  0.4825
   52CHL1  H12A 4986   0.702   2.987   3.708 -0.0361 -0.0223 -0.3404
   52CHL1  H12B 4987   0.655   2.835   3.624  2.0064  0.1547  2.4593
   52CHL1   C11 4988   0.607   3.015   3.511  0.6175 -0.2080 -0.2216
   52CHL1  H11A 4989   0.586   3.121   3.536 -0.7543 -0.3843 -0.5295
   52CHL1  H11B 4990   0.705   3.000   3.462 -1.3859 -2.2007 -4.0821
   52CHL1    C9 4991   0.487   2.971   3.420  0.0949  0.2710  0.7679
   52CHL1    H9 4992   0.492   2.864   3.389 -0.5625  1.0590 -2.3925
   52CHL1   C10 4993   0.463   3.043   3.283 -0.8455  0.2301  0.4175
   52CHL1   C19 4994   0.443   3.196   3.292  0.4283 -0.5988 -1.0561
   52CHL1  H19A 4995   0.528   3.231   3.355  1.0533  0.6624 -2.5385
   52CHL1  H19B 4996   0.420   3.256   3.202  2.1287 -0.8821 -1.7015
   52CHL1  H19C 4997   0.352   3.212   3.355  1.5241 -0.5101  0.5606
   52CHL1    C1 4998   0.586   3.006   3.192  0.3778 -0.3864 -0.9315
   52CHL1   H1A 4999   0.674   3.047   3.246 -0.0816 -0.9598  0.2886
   52CHL1   H1B 5000   0.590   2.896   3.200 -0.4714 -0.5579 -2.4635
   52CHL1    C2 5001   0.567   3.042   3.047  0.5733  0.0232  0.0985
   52CHL1   H2A 5002   0.649   3.013   2.978  0.2705  1.3101 -0.8480
   52CHL1   H2B 5003   0.562   3.153   3.053 -0.7071  0.0428 -0.8643
   52CHL1   C20 5004   0.537   2.904   3.987  0.4596  0.6704 -0.2072
   52CHL1   H20 5005   0.499   3.004   4.015 -2.0663 -0.8989  2.6160
   52CHL1   C21 5006   0.694   2.901   3.972  0.2293  0.9300  0.8949
   52CHL1  H21A 5007   0.734   2.931   4.071  1.1927  1.0007  0.5047
   52CHL1  H21B 5008   0.730   2.976   3.898  1.3284  0.7353  1.2032
   52CHL1  H21C 5009   0.728   2.798   3.947  0.0392  1.2281 -0.6869
   52CHL1   C22 5010   0.498   2.824   4.114  0.1080  0.0201  0.5475
   52CHL1  H22A 5011   0.559   2.865   4.197  1.8077 -1.2934  0.0044
   52CHL1  H22B 5012   0.394   2.848   4.147  0.3889  1.8778  0.1846
   52CHL1   C23 5013   0.529   2.681   4.109 -0.4992  0.8428  0.3316
   52CHL1  H23A 5014   0.473   2.627   4.030  1.1408 -2.6742  1.3209
   52CHL1  H23B 5015   0.629   2.649   4.070  0.2853  0.5715  2.4402
   52CHL1   C24 5016   0.472   2.620   4.238  0.5508  0.3510 -0.1962
   52CHL1  H24A 5017   0.367   2.646   4.264  0.5744 -0.6667  1.0088
   52CHL1  H24B 5018   0.483   2.510   4.223  0.1694  0.3373 -0.3835
   52CHL1   C25 5019   0.548   2.640   4.375  0.3036  0.0005  0.4103
   52CHL1   H25 5020   0.548   2.748   4.401 -0.2994 -0.0479  0.6307
   52CHL1   C26 5021   0.478   2.566   4.496 -0.2884  0.2752 -0.0004
   52CHL1  H26A 5022   0.374   2.604   4.501  0.1378  1.6432 -0.8715
   52CHL1  H26B 5023   0.487   2.457   4.477 -0.6793  0.3781 -0.8354
   52CHL1  H26C 5024   0.527   2.589   4.593 -0.1948  1.7165 -0.3690
   52CHL1   C27 5025   0.696   2.591   4.366 -0.2323  0.0448  0.7403
   52CHL1  H27A 5026   0.745   2.664   4.298 -0.7987 -1.3881 -1.2968
   52CHL1  H27B 5027   0.754   2.592   4.461  1.7020  1.5662 -0.3874
   52CHL1  H27C 5028   0.718   2.499   4.308 -0.5225  1.7827 -2.3334
   53CHL1    C3 5029   0.561   3.648   2.744 -0.3680  0.0947 -0.1175
   53CHL1    H3 5030   0.553   3.759   2.752 -0.7786  0.0372  0.3189
   53CHL1    O3 5031   0.593   3.628   2.606  0.1992  0.2119 -0.8900
   53CHL1   H3' 5032   0.609   3.533   2.597  0.1207  0.0553  0.4106
   53CHL1    C4 5033   0.670   3.606   2.835  0.0264  0.4351 -0.6842
   53CHL1   H4A 5034   0.692   3.498   2.831 -3.3166 -0.3890  0.4720
   53CHL1   H4B 5035   0.767   3.645   2.797  2.5908 -3.8292  0.8156
   53CHL1    C5 5036   0.631   3.656   2.974 -0.2488 -0.2937 -0.4188
   53CHL1    C6 5037   0.705   3.744   3.039 -0.3330 -0.2660 -0.5373
   53CHL1    H6 5038   0.798   3.783   2.995 -0.4361  0.1088 -0.4232
   53CHL1    C7 5039   0.667   3.782   3.182  0.0660 -0.4891  0.6323
   53CHL1   H7A 5040   0.760   3.786   3.243 -1.6162  1.1207  3.2539
   53CHL1   H7B 5041   0.618   3.880   3.198  0.0206 -0.3177 -0.4868
   53CHL1    C8 5042   0.576   3.680   3.248 -0.5757 -0.4940  0.3756
   53CHL1    H8 5043   0.636   3.588   3.267  3.1998  1.0889 -2.4967
   53CHL1   C14 5044   0.533   3.739   3.376 -0.2213  0.6722 -0.2804
   53CHL1   H14 5045   0.482   3.834   3.347  0.6354  0.5124 -2.4785
   53CHL1   C15 5046   0.642   3.782   3.484 -0.4138 -0.1890 -0.0573
   53CHL1  H15A 5047   0.733   3.718   3.482 -0.1887  0.1408 -0.5945
   53CHL1  H15B 5048   0.658   3.891   3.466 -3.6491  0.3750 -0.0851
   53CHL1   C16 5049   0.573   3.776   3.616 -0.0366 -0.0477 -0.1096
   53CHL1  H16A 5050   0.630   3.707   3.683  2.8181  0.9267 -1.3854
   53CHL1  H16B 5051   0.586   3.876   3.663 -1.2281  1.3077 -2.4547
   53CHL1   C17 5052   0.424   3.746   3.592 -1.0352 -0.5057  0.3231
   53CHL1   H17 5053   0.367   3.835   3.560 -0.5475 -0.6245 -0.9268
   53CHL1   C13 5054   0.430   3.662   3.461  0.3152  0.2165 -0.0633
   53CHL1   C18 5055   0.490   3.525   3.488  0.0623  0.7627  0.1906
   53CHL1  H18A 5056   0.568   3.528   3.567 -0.1386  2.7466  0.3521
   53CHL1  H18B 5057   0.410   3.459   3.527  0.5000 -1.3872 -2.2659
   53CHL1  H18C 5058   0.528   3.475   3.396 -0.5188  2.1084 -0.8095
   53CHL1   C12 5059   0.296   3.650   3.381  0.4712  0.5061  0.9079
   53CHL1  H12A 5060   0.222   3.586   3.432 -0.2239 -1.1877 -1.9679
   53CHL1  H12B 5061   0.253   3.752   3.375  0.6142  0.7505  3.1943
   53CHL1   C11 5062   0.334   3.588   3.242  0.4755  0.0839  0.3284
   53CHL1  H11A 5063   0.352   3.479   3.254 -2.0500 -0.3029  1.0999
   53CHL1  H11B 5064   0.247   3.599   3.174  0.3194 -1.4606  0.2352
   53CHL1    C9 5065   0.453   3.657   3.170 -0.4635  0.2886  0.0912
   53CHL1    H9 5066   0.413   3.753   3.132 -0.5205  0.4145  0.4637
   53CHL1   C10 5067   0.498   3.594   3.030  0.4127 -0.4250 -0.4588
   53CHL1   C19 5068   0.521   3.444   3.045  0.0545 -0.2789 -0.8724
   53CHL1  H19A 5069   0.590   3.422   3.129 -0.0127 -0.1301 -0.7766
   53CHL1  H19B 5070   0.429   3.387   3.069  0.9497 -0.9349  1.2658
   53CHL1  H19C 5071   0.571   3.392   2.961 -0.1231 -1.0880 -0.4816
   53CHL1    C1 5072   0.386   3.611   2.914 -1.3556 -0.0178  0.4902
   53CHL1   H1A 5073   0.300   3.545   2.941  0.0033 -1.4497  1.5088
   53CHL1   H1B 5074   0.353   3.717   2.915 -1.1862  0.0460 -0.0652
   53CHL1    C2 5075   0.434   3.572   2.771 -0.0855 -0.4016 -0.1688
   53CHL1   H2A 5076   0.357   3.588   2.692  0.4296  2.8766 -0.1475
   53CHL1   H2B 5077   0.460   3.464   2.778 -0.6947 -0.4382  1.9801
   53CHL1   C20 5078   0.345   3.685   3.711 -0.1598 -0.5192 -0.3470
   53CHL1   H20 5079   0.269   3.616   3.671  0.1670 -1.0958  0.0106
   53CHL1   C21 5080   0.278   3.805   3.783  0.0657 -0.2570  0.4921
   53CHL1  H21A 5081   0.235   3.872   3.705 -0.5795 -0.5406  0.5995
   53CHL1  H21B 5082   0.353   3.855   3.847 -0.0994 -0.8971  1.2057
   53CHL1  H21C 5083   0.192   3.787   3.851 -0.8775  1.5281 -0.1456
   53CHL1   C22 5084   0.427   3.598   3.809  0.4890  0.2432 -0.1461
   53CHL1  H22A 5085   0.483   3.518   3.757  0.5629  1.4546 -2.0035
   53CHL1  H22B 5086   0.515   3.643   3.860  1.6983 -3.8796  1.8379
   53CHL1   C23 5087   0.344   3.545   3.927 -0.0036  0.5022  0.2392
   53CHL1  H23A 5088   0.238   3.554   3.893  0.2415  0.9277 -0.4249
   53CHL1  H23B 5089   0.375   3.442   3.955  1.5415  1.1239  0.9341
   53CHL1   C24 5090   0.363   3.625   4.057 -0.3867  0.5360  0.0876
   53CHL1  H24A 5091   0.471   3.618   4.081 -0.4156 -3.2733 -0.3102
   53CHL1  H24B 5092   0.351   3.735   4.047  2.1883  0.9540  0.9189
   53CHL1   C25 5093   0.276   3.572   4.172  0.0774 -0.0383  0.6532
   53CHL1   H25 5094   0.265   3.462   4.175 -2.9309  0.1208 -0.9810
   53CHL1   C26 5095   0.330   3.610   4.309 -0.0853  1.1231  0.7193
   53CHL1  H26A 5096   0.439   3.592   4.322 -0.0186  2.0970  1.6588
   53CHL1  H26B 5097   0.315   3.719   4.324 -1.3540  0.8927  1.2038
   53CHL1  H26C 5098   0.293   3.552   4.396  1.5265  0.9003  1.3000
   53CHL1   C27 5099   0.127   3.623   4.146  0.6778  0.0477 -0.1689
   53CHL1  H27A 5100   0.091   3.594   4.045 -2.2029 -0.4611  0.8937
   53CHL1  H27B 5101   0.061   3.578   4.225  1.1495  0.9503  0.7565
   53CHL1  H27C 5102   0.114   3.731   4.169  0.1696 -0.2564  1.0700
   54CHL1    C3 5103   1.940   6.261   2.728 -0.4020  0.3287 -0.7604
   54CHL1    H3 5104   2.045   6.297   2.721 -0.1200 -0.7329 -2.6966
   54CHL1    O3 5105   1.886   6.263   2.598 -0.5306 -0.3728 -0.0566
   54CHL1   H3' 5106   1.794   6.246   2.622 -0.6171  0.1059 -0.0498
   54CHL1    C4 5107   1.932   6.118   2.781  0.3731 -0.5617  0.3220
   54CHL1   H4A 5108   1.832   6.080   2.750 -0.0120  0.8877 -0.2960
   54CHL1   H4B 5109   2.004   6.065   2.715  0.7819  1.0459 -0.5671
   54CHL1    C5 5110   1.970   6.106   2.923 -0.2134 -0.8929  0.4826
   54CHL1    C6 5111   2.081   6.032   2.955  0.3500  0.4538  0.0538
   54CHL1    H6 5112   2.130   5.968   2.880  1.1432 -1.1510  1.8734
   54CHL1    C7 5113   2.128   6.006   3.094 -0.2072 -0.5096 -0.0081
   54CHL1   H7A 5114   2.144   5.897   3.104  2.3867 -0.2265 -0.2673
   54CHL1   H7B 5115   2.226   6.055   3.113 -0.4145  0.0777 -0.4060
   54CHL1    C8 5116   2.030   6.061   3.197  0.6599 -0.2710 -0.1380
   54CHL1    H8 5117   1.942   5.993   3.200  3.2561 -3.8992  1.4070
   54CHL1   C14 5118   2.090   6.060   3.335 -0.2251  0.3395  0.6914
   54CHL1   H14 5119   2.181   6.124   3.332 -1.1604  1.6939 -2.5992
   54CHL1   C15 5120   2.154   5.928   3.389  0.3526 -0.4195  0.0797
   54CHL1  H15A 5121   2.091   5.837   3.385  1.4620 -1.1819 -0.8620
   54CHL1  H15B 5122   2.247   5.902   3.334 -0.2410 -2.2335 -0.1316
   54CHL1   C16 5123   2.178   5.959   3.534  0.5420 -0.3516  0.1693
   54CHL1  H16A 5124   2.126   5.881   3.593 -0.4279  0.2097  0.0779
   54CHL1  H16B 5125   2.288   5.959   3.549  0.8827 -1.2332 -1.9559
   54CHL1   C17 5126   2.107   6.088   3.569  0.5391 -0.4279 -0.3042
   54CHL1   H17 5127   2.182   6.171   3.569 -1.0383  1.1106  1.8378
   54CHL1   C13 5128   2.007   6.114   3.448  0.7867  0.0804 -1.0819
   54CHL1   C18 5129   1.880   6.021   3.459 -0.3978 -0.4194 -0.4500
   54CHL1  H18A 5130   1.804   6.044   3.382 -0.4501  1.0153  0.0046
   54CHL1  H18B 5131   1.913   5.915   3.449  1.1630 -0.0829  0.7183
   54CHL1  H18C 5132   1.829   6.040   3.556 -4.0431 -1.0960 -2.0743
   54CHL1   C12 5133   1.974   6.263   3.410 -0.0767 -0.3027 -0.1949
   54CHL1  H12A 5134   1.912   6.324   3.478  0.3302 -2.0163  1.8367
   54CHL1  H12B 5135   2.072   6.315   3.397  0.3092 -1.0879 -0.5297
   54CHL1   C11 5136   1.914   6.276   3.271 -0.9623 -0.4447 -0.6389
   54CHL1  H11A 5137   1.807   6.246   3.272 -1.4176  1.0273 -1.4558
   54CHL1  H11B 5138   1.907   6.382   3.237 -1.2593  0.1946  1.2889
   54CHL1    C9 5139   1.983   6.199   3.159  0.1828  0.2865  0.3385
   54CHL1    H9 5140   2.066   6.267   3.131  1.0926 -1.8646 -2.6221
   54CHL1   C10 5141   1.902   6.204   3.025  0.2412 -0.1914  0.2999
   54CHL1   C19 5142   1.752   6.158   3.032 -0.2486 -0.3852 -0.1575
   54CHL1  H19A 5143   1.751   6.075   3.106  0.6455  0.9998  1.5095
   54CHL1  H19B 5144   1.696   6.245   3.071  1.9874  0.9343  0.3162
   54CHL1  H19C 5145   1.707   6.135   2.933  1.9001  1.1537 -1.5850
   54CHL1    C1 5146   1.910   6.347   2.959 -0.7392 -0.9253  0.3924
   54CHL1   H1A 5147   1.853   6.419   3.021 -0.1817  1.8678 -2.0974
   54CHL1   H1B 5148   2.019   6.371   2.967 -0.8463  0.8099 -2.2945
   54CHL1    C2 5149   1.862   6.356   2.818 -0.7274  0.5693 -0.3690
   54CHL1   H2A 5150   1.873   6.462   2.785  1.2862  1.2028  2.0249
   54CHL1   H2B 5151   1.755   6.326   2.814 -0.7407 -0.1274  2.6649
   54CHL1   C20 5152   2.044   6.091   3.708  0.2254  0.8942  1.0081
   54CHL1   H20 5153   1.958   6.021   3.718 -0.3547  1.5381  0.6479
   54CHL1   C21 5154   1.973   6.225   3.718 -0.1680  0.6994  0.2991
   54CHL1  H21A 5155   1.952   6.258   3.822  0.6235  1.7383  0.1504
   54CHL1  H21B 5156   1.877   6.226   3.662  0.5545 -1.0192 -1.0925
   54CHL1  H21C 5157   2.044   6.304   3.687  2.1580 -1.5985 -0.6308
   54CHL1   C22 5158   2.141   6.063   3.823 -0.1710  0.3790 -0.1521
   54CHL1  H22A 5159   2.222   6.001   3.779 -0.5191 -0.6683  0.6546
   54CHL1  H22B 5160   2.194   6.156   3.853  0.1120 -0.3304  1.6412
   54CHL1   C23 5161   2.086   5.989   3.947  0.4647 -0.1459  0.7347
   54CHL1  H23A 5162   1.996   6.047   3.974  0.2473 -0.5323  0.8400
   54CHL1  H23B 5163   2.058   5.884   3.924  0.3403 -0.0190  0.3047
   54CHL1   C24 5164   2.185   5.993   4.060  0.5864 -1.2234 -0.1126
   54CHL1  H24A 5165   2.260   5.914   4.038 -0.3449 -2.4383  0.8615
   54CHL1  H24B 5166   2.230   6.092   4.080 -1.1562 -0.5815  0.7959
   54CHL1   C25 5167   2.103   5.956   4.190  0.6198  0.0450  0.0943
   54CHL1   H25 5168   2.011   6.017   4.185  0.0740 -0.7626  0.0778
   54CHL1   C26 5169   2.070   5.808   4.198  0.0251 -0.6612  0.1828
   54CHL1  H26A 5170   2.165   5.750   4.202  1.7062  1.9198 -0.2736
   54CHL1  H26B 5171   2.006   5.790   4.287 -0.6898  1.1714  0.0678
   54CHL1  H26C 5172   2.013   5.778   4.107  0.1527 -0.8419  0.1611
   54CHL1   C27 5173   2.174   6.007   4.319 -0.1169  0.6895 -0.0633
   54CHL1  H27A 5174   2.267   5.947   4.330  0.1254  1.0034 -0.3845
   54CHL1  H27B 5175   2.197   6.115   4.309  1.8279  0.2550 -0.6199
   54CHL1  H27C 5176   2.104   6.001   4.405  0.5702 -0.2942  0.4536
   55CHL1    C3 5177   3.770   3.859   2.692  0.0732  0.2356  0.5727
   55CHL1    H3 5178   3.702   3.911   2.762 -0.9304  1.5061 -1.2547
   55CHL1    O3 5179   3.736   3.896   2.559  0.4384 -0.1360 -0.6849
   55CHL1   H3' 5180   3.666   3.961   2.563 -0.1045 -0.7488  3.1660
   55CHL1    C4 5181   3.916   3.892   2.727  0.4672 -0.5963 -0.2374
   55CHL1   H4A 5182   3.987   3.859   2.648  2.4863 -0.0052  1.2396
   55CHL1   H4B 5183   3.926   4.003   2.720  0.6214 -0.5884  0.0502
   55CHL1    C5 5184   3.958   3.839   2.860 -0.0940  0.9450  0.1341
   55CHL1    C6 5185   4.014   3.920   2.946  0.7374 -0.1924 -0.7015
   55CHL1    H6 5186   4.030   4.027   2.929  0.7022  0.2679  1.8802
   55CHL1    C7 5187   4.052   3.882   3.082  0.3042  0.2898 -0.2563
   55CHL1   H7A 5188   4.149   3.922   3.119  0.5179 -0.1534 -0.3209
   55CHL1   H7B 5189   3.979   3.913   3.160  0.6133  1.7355 -0.5162
   55CHL1    C8 5190   4.071   3.728   3.094 -0.3531 -1.0556 -0.8912
   55CHL1    H8 5191   4.164   3.695   3.043  0.1346  0.0200 -0.7218
   55CHL1   C14 5192   4.075   3.704   3.245  0.3213 -0.3231 -0.8712
   55CHL1   H14 5193   3.971   3.729   3.277  0.5613  1.7754 -1.5692
   55CHL1   C15 5194   4.150   3.792   3.350 -1.0167  0.2315  0.5541
   55CHL1  H15A 5195   4.244   3.815   3.296 -1.1639 -0.1731  0.1217
   55CHL1  H15B 5196   4.089   3.882   3.373 -0.8671  0.2073  1.0645
   55CHL1   C16 5197   4.175   3.695   3.469 -0.1659 -0.4673 -0.2925
   55CHL1  H16A 5198   4.283   3.681   3.490 -0.0179  0.2636 -0.5505
   55CHL1  H16B 5199   4.123   3.742   3.556  0.3428 -1.1249  0.3766
   55CHL1   C17 5200   4.098   3.568   3.427 -0.4388 -0.0657 -0.5392
   55CHL1   H17 5201   3.996   3.593   3.463  0.0213  0.4706  0.4340
   55CHL1   C13 5202   4.098   3.564   3.280 -0.4170 -0.0766  0.2515
   55CHL1   C18 5203   4.236   3.519   3.226 -0.3050 -0.1351 -0.4758
   55CHL1  H18A 5204   4.317   3.589   3.255  0.8483 -1.2892 -0.8627
   55CHL1  H18B 5205   4.261   3.418   3.264 -0.8893  0.2061  0.8831
   55CHL1  H18C 5206   4.226   3.507   3.116 -1.4998  0.1162 -0.4082
   55CHL1   C12 5207   3.983   3.479   3.208  0.3906 -0.2789 -0.1241
   55CHL1  H12A 5208   4.012   3.373   3.221  1.2504  0.0079  0.3862
   55CHL1  H12B 5209   3.887   3.505   3.259 -1.2883 -0.3122 -3.0638
   55CHL1   C11 5210   3.968   3.499   3.054  0.0738 -0.6289  0.4803
   55CHL1  H11A 5211   4.066   3.466   3.012 -0.0680 -1.3077  0.6822
   55CHL1  H11B 5212   3.883   3.439   3.016 -0.7014 -0.9533  2.6071
   55CHL1    C9 5213   3.956   3.646   3.027  0.0950 -0.3072  0.1054
   55CHL1    H9 5214   3.866   3.679   3.083 -0.1322 -0.0528 -0.3968
   55CHL1   C10 5215   3.930   3.689   2.877  0.0752 -0.6767  0.1801
   55CHL1   C19 5216   4.035   3.614   2.780  0.6652  0.1836 -0.2006
   55CHL1  H19A 5217   4.056   3.665   2.684 -1.0199  1.3297  0.0063
   55CHL1  H19B 5218   4.131   3.606   2.836  0.5460  0.5421  0.0536
   55CHL1  H19C 5219   3.997   3.510   2.769 -2.3008  1.2633 -0.8075
   55CHL1    C1 5220   3.784   3.644   2.833  0.1551 -0.7439 -0.2146
   55CHL1   H1A 5221   3.787   3.533   2.827  0.2471 -0.8150  1.0552
   55CHL1   H1B 5222   3.709   3.668   2.911  2.7189  1.0758  1.8450
   55CHL1    C2 5223   3.734   3.708   2.700 -0.3243  0.6388  0.0950
   55CHL1   H2A 5224   3.625   3.691   2.685 -0.0312 -0.7794 -0.6564
   55CHL1   H2B 5225   3.784   3.655   2.616 -1.4561 -0.2973 -0.0187
   55CHL1   C20 5226   4.148   3.452   3.519 -0.6873 -0.2062  0.0416
   55CHL1   H20 5227   4.227   3.394   3.466  1.0567  1.2668  0.9110
   55CHL1   C21 5228   4.033   3.355   3.537 -0.1341 -0.0162 -0.1447
   55CHL1  H21A 5229   3.998   3.310   3.441  3.4817  0.5909 -1.9005
   55CHL1  H21B 5230   3.948   3.407   3.586 -0.2040  0.1585 -0.4498
   55CHL1  H21C 5231   4.057   3.263   3.595  0.4258  0.2957  0.1213
   55CHL1   C22 5232   4.200   3.498   3.658  0.4609  0.0402  0.3545
   55CHL1  H22A 5233   4.293   3.554   3.636 -0.1548  1.4188  1.1091
   55CHL1  H22B 5234   4.115   3.552   3.705 -0.4241  0.6261 -1.8110
   55CHL1   C23 5235   4.250   3.391   3.752  0.1686 -0.5333 -0.4561
   55CHL1  H23A 5236   4.172   3.321   3.786  0.5468 -0.5074  0.4893
   55CHL1  H23B 5237   4.329   3.334   3.698  0.8020  2.3543 -2.8910
   55CHL1   C24 5238   4.304   3.460   3.886  1.7716  0.4705  1.0936
   55CHL1  H24A 5239   4.232   3.530   3.932 -0.9637 -0.3545 -1.5816
   55CHL1  H24B 5240   4.317   3.372   3.953 -1.3638 -2.6152 -1.8807
   55CHL1   C25 5241   4.438   3.536   3.885 -0.6367 -0.0734  0.5852
   55CHL1   H25 5242   4.438   3.612   3.803  1.2058  1.9683  2.3534
   55CHL1   C26 5243   4.481   3.611   4.012  0.5020 -0.3068  0.7252
   55CHL1  H26A 5244   4.452   3.536   4.089  1.2093 -3.4773 -1.8718
   55CHL1  H26B 5245   4.592   3.619   4.016  0.5158 -0.2542  0.3271
   55CHL1  H26C 5246   4.421   3.704   4.024  0.0928 -0.6614  1.5227
   55CHL1   C27 5247   4.553   3.442   3.847 -0.1110  0.8121 -0.4251
   55CHL1  H27A 5248   4.648   3.500   3.850 -0.7968  1.9769 -0.5375
   55CHL1  H27B 5249   4.564   3.366   3.927  0.7382 -1.9452 -3.0121
   55CHL1  H27C 5250   4.537   3.386   3.753  0.4962 -0.5945  0.2914
   56CHL1    C3 5251   6.649   2.120   2.970 -0.0990 -0.5316  0.2106
   56CHL1    H3 5252   6.719   2.206   2.975 -1.4106  0.7839 -2.1965
   56CHL1    O3 5253   6.629   2.064   2.843  0.0310  0.4041 -0.3077
   56CHL1   H3' 5254   6.546   2.016   2.845  0.9484 -1.2893 -0.9627
   56CHL1    C4 5255   6.680   2.002   3.064 -0.5016  0.4429 -0.2059
   56CHL1   H4A 5256   6.622   1.913   3.033  1.5611 -0.5109 -1.5261
   56CHL1   H4B 5257   6.788   1.983   3.043 -0.1749  2.1516 -0.2180
   56CHL1    C5 5258   6.667   2.042   3.211  0.0018 -0.0412  0.1934
   56CHL1    C6 5259   6.768   2.014   3.292 -0.2304 -0.2378  0.0217
   56CHL1    H6 5260   6.851   1.956   3.250 -2.2011 -1.9515 -1.7061
   56CHL1    C7 5261   6.761   2.038   3.436  0.1960 -0.7423 -0.9298
   56CHL1   H7A 5262   6.816   1.963   3.497  1.9804  1.4210  0.2735
   56CHL1   H7B 5263   6.814   2.133   3.457  0.2005 -1.0982  0.7973
   56CHL1    C8 5264   6.618   2.057   3.496 -0.0027 -0.4750  0.6943
   56CHL1    H8 5265   6.559   1.963   3.499 -0.6107 -0.0709  2.3576
   56CHL1   C14 5266   6.629   2.114   3.630  0.0677  0.0477  0.2014
   56CHL1   H14 5267   6.671   2.216   3.617  1.0953 -0.2890  0.7826
   56CHL1   C15 5268   6.707   2.028   3.733 -0.2498  0.3547  0.0558
   56CHL1  H15A 5269   6.670   1.924   3.734  0.9776 -0.1075  1.2200
   56CHL1  H15B 5270   6.815   2.023   3.707 -0.6261 -1.4524 -1.3120
   56CHL1   C16 5271   6.681   2.096   3.869  0.3074 -0.2245  0.7154
   56CHL1  H16A 5272   6.652   2.015   3.939 -0.0693 -0.0676  0.7447
   56CHL1  H16B 5273   6.767   2.150   3.913  1.8520 -0.7676 -1.5010
   56CHL1   C17 5274   6.560   2.193   3.844 -0.2637  0.6859 -0.4441
   56CHL1   H17 5275   6.613   2.287   3.820 -2.3909  2.3722  1.1271
   56CHL1   C13 5276   6.495   2.145   3.703 -0.2009  1.2516 -0.5411
   56CHL1   C18 5277   6.397   2.023   3.728 -0.1495  0.1577  0.5798
   56CHL1  H18A 5278   6.297   2.055   3.766  0.4055 -0.3202  2.5570
   56CHL1  H18B 5279   6.400   1.958   3.638  1.8012 -0.7045  1.2222
   56CHL1  H18C 5280   6.432   1.967   3.817 -0.1161  3.0657  2.5065
   56CHL1   C12 5281   6.430   2.251   3.619  0.6799 -0.3688  0.4800
   56CHL1  H12A 5282   6.327   2.271   3.655  0.6811 -1.1526  0.9502
   56CHL1  H12B 5283   6.482   2.350   3.623  0.6233 -0.2987 -0.3366
   56CHL1   C11 5284   6.417   2.201   3.469 -0.6481  0.3835  0.6637
   56CHL1  H11A 5285   6.346   2.115   3.470 -2.5456  1.8846  0.7183
   56CHL1  H11B 5286   6.359   2.277   3.412  0.2437  0.2892 -0.4169
   56CHL1    C9 5287   6.547   2.159   3.399  0.1288 -0.0202 -0.5058
   56CHL1    H9 5288   6.614   2.248   3.404 -2.2438  1.9708 -1.6784
   56CHL1   C10 5289   6.537   2.112   3.247  0.2510  0.9846 -0.5838
   56CHL1   C19 5290   6.433   2.000   3.247  0.0639 -0.0136  0.9700
   56CHL1  H19A 5291   6.332   2.044   3.255 -0.2786 -0.8272  1.2670
   56CHL1  H19B 5292   6.438   1.938   3.155 -1.2011 -0.2845  1.0646
   56CHL1  H19C 5293   6.442   1.929   3.333  1.9684 -1.3052 -0.2021
   56CHL1    C1 5294   6.516   2.232   3.157  0.1871  0.2489  0.3882
   56CHL1   H1A 5295   6.428   2.294   3.185  0.0753  0.2319  0.0735
   56CHL1   H1B 5296   6.612   2.286   3.172  0.6899 -0.6300  0.4205
   56CHL1    C2 5297   6.519   2.200   3.004  0.1890  0.9545  0.7959
   56CHL1   H2A 5298   6.510   2.292   2.943  2.5552  0.3954 -0.5413
   56CHL1   H2B 5299   6.433   2.144   2.962  0.2805 -0.2355  2.1257
   56CHL1   C20 5300   6.467   2.214   3.971 -0.5742  0.2709 -0.0888
   56CHL1   H20 5301   6.418   2.115   3.982 -2.3530  1.2594  1.3309
   56CHL1   C21 5302   6.362   2.316   3.936  0.9865  0.3870 -0.3301
   56CHL1  H21A 5303   6.296   2.273   3.858 -1.1294  1.8412  0.5799
   56CHL1  H21B 5304   6.407   2.415   3.910  1.3773  0.4989  0.7234
   56CHL1  H21C 5305   6.289   2.315   4.019  1.7580 -0.8053  0.3491
   56CHL1   C22 5306   6.552   2.224   4.107  0.4147 -1.2660  0.1279
   56CHL1  H22A 5307   6.625   2.141   4.114 -0.5124 -2.3045 -1.5527
   56CHL1  H22B 5308   6.607   2.320   4.111 -1.1632 -0.3612  1.4455
   56CHL1   C23 5309   6.459   2.217   4.227  1.4937 -0.6211  0.0321
   56CHL1  H23A 5310   6.371   2.157   4.196  0.3556  0.9858  0.0365
   56CHL1  H23B 5311   6.497   2.157   4.313  1.6474 -1.4422 -0.5926
   56CHL1   C24 5312   6.405   2.345   4.285  0.2791  0.1619 -0.5225
   56CHL1  H24A 5313   6.494   2.410   4.303 -2.1783  3.1287  2.0139
   56CHL1  H24B 5314   6.331   2.384   4.212 -0.3073 -0.0831 -0.0611
   56CHL1   C25 5315   6.336   2.328   4.421  0.0260 -0.8789 -0.3564
   56CHL1   H25 5316   6.398   2.259   4.481  0.7358  0.6181  0.6898
   56CHL1   C26 5317   6.319   2.470   4.501  0.5077  0.3582 -0.7678
   56CHL1  H26A 5318   6.420   2.516   4.495  0.5373  0.0849 -2.8193
   56CHL1  H26B 5319   6.253   2.544   4.453  0.4515  0.6552 -0.2448
   56CHL1  H26C 5320   6.293   2.441   4.606  0.8506  0.9972 -0.5015
   56CHL1   C27 5321   6.195   2.265   4.400 -0.1135  0.2619  0.4954
   56CHL1  H27A 5322   6.195   2.158   4.371  2.1269  0.0139  1.1906
   56CHL1  H27B 5323   6.141   2.277   4.496  1.8504  0.4278  1.6226
   56CHL1  H27C 5324   6.148   2.317   4.314 -1.8972 -1.5315  0.3181
   57CHL1    C3 5325   3.307   1.823   2.840  0.4852 -0.1484  0.0475
   57CHL1    H3 5326   3.398   1.888   2.836  0.2096  0.3915  1.5896
   57CHL1    O3 5327   3.304   1.729   2.733 -0.1202  0.6541 -0.0152
   57CHL1   H3' 5328   3.214   1.705   2.712  1.1809 -1.7074 -4.0905
   57CHL1    C4 5329   3.291   1.737   2.967 -0.1287  0.3047 -0.4053
   57CHL1   H4A 5330   3.195   1.682   2.980  0.4741 -0.2060  2.4724
   57CHL1   H4B 5331   3.372   1.661   2.973 -0.4809 -0.1612 -1.2573
   57CHL1    C5 5332   3.302   1.837   3.077  0.2710  0.1044  0.4077
   57CHL1    C6 5333   3.406   1.829   3.169  0.0463 -0.0002  0.2657
   57CHL1    H6 5334   3.479   1.747   3.161  0.4261  0.3706 -0.1392
   57CHL1    C7 5335   3.429   1.925   3.278  0.3077 -0.4819 -0.1004
   57CHL1   H7A 5336   3.463   1.876   3.372  0.2766  0.7944  0.6060
   57CHL1   H7B 5337   3.507   2.000   3.251 -1.7110  2.3171  1.2855
   57CHL1    C8 5338   3.297   2.010   3.306 -0.6276  0.2003  0.6788
   57CHL1    H8 5339   3.228   1.934   3.349  2.3371 -0.9849  3.7866
   57CHL1   C14 5340   3.329   2.123   3.402 -0.0809 -0.3916  0.4553
   57CHL1   H14 5341   3.397   2.188   3.343  1.0525 -0.9534  1.1019
   57CHL1   C15 5342   3.396   2.088   3.532  1.0735 -0.1482  0.3491
   57CHL1  H15A 5343   3.350   1.993   3.568  2.7005 -1.3947 -0.6968
   57CHL1  H15B 5344   3.505   2.068   3.525  0.8517 -1.8606  1.1399
   57CHL1   C16 5345   3.360   2.208   3.620  0.0830 -0.1331  0.2127
   57CHL1  H16A 5346   3.323   2.176   3.720 -0.4774  0.2859  0.1421
   57CHL1  H16B 5347   3.445   2.275   3.645 -0.6403  0.3651  1.4396
   57CHL1   C17 5348   3.266   2.303   3.544 -0.0782 -0.4190  1.0759
   57CHL1   H17 5349   3.335   2.374   3.493 -3.5330 -0.1380 -3.9766
   57CHL1   C13 5350   3.205   2.210   3.436 -0.6042 -0.4930 -0.0896
   57CHL1   C18 5351   3.098   2.117   3.500 -0.0338  0.1479 -0.1446
   57CHL1  H18A 5352   3.008   2.181   3.513 -1.3300 -1.2657 -1.6351
   57CHL1  H18B 5353   3.068   2.034   3.432  0.3250  0.3168 -0.5172
   57CHL1  H18C 5354   3.130   2.079   3.599 -0.2847 -0.2011 -0.1949
   57CHL1   C12 5355   3.154   2.275   3.300  0.4576  0.1608 -0.2666
   57CHL1  H12A 5356   3.059   2.329   3.318 -0.8569 -2.3321  0.6887
   57CHL1  H12B 5357   3.229   2.352   3.273  1.0949 -0.0059  0.9480
   57CHL1   C11 5358   3.129   2.172   3.199 -0.2679 -0.4967 -0.0620
   57CHL1  H11A 5359   3.043   2.112   3.235  0.8987 -2.6900 -0.7252
   57CHL1  H11B 5360   3.098   2.214   3.101  0.3001  1.2338  0.4527
   57CHL1    C9 5361   3.242   2.068   3.169  1.1733 -0.8964  0.2115
   57CHL1    H9 5362   3.328   2.116   3.117  1.1146 -3.3440 -2.3668
   57CHL1   C10 5363   3.201   1.955   3.062 -0.0248  0.2640  0.1840
   57CHL1   C19 5364   3.059   1.900   3.095  0.3304  0.1608 -0.3411
   57CHL1  H19A 5365   2.992   1.987   3.076 -1.5678 -0.9776  0.8621
   57CHL1  H19B 5366   3.023   1.821   3.025 -0.4397  0.3973 -0.2213
   57CHL1  H19C 5367   3.041   1.860   3.197  0.6626 -0.7852 -0.6380
   57CHL1    C1 5368   3.192   2.013   2.922  0.4982  0.2438  0.2165
   57CHL1   H1A 5369   3.117   2.094   2.910  1.2855  0.6284 -2.7402
   57CHL1   H1B 5370   3.287   2.068   2.908  0.0077  1.0647  0.0571
   57CHL1    C2 5371   3.181   1.904   2.820  0.4220 -0.0001 -0.2104
   57CHL1   H2A 5372   3.174   1.950   2.719  3.6090  1.6015  0.1410
   57CHL1   H2B 5373   3.093   1.839   2.837  0.6987 -0.2415  0.3454
   57CHL1   C20 5374   3.179   2.386   3.640  0.0012  0.4328  0.4728
   57CHL1   H20 5375   3.109   2.312   3.684  2.5977 -1.1009  2.3235
   57CHL1   C21 5376   3.090   2.487   3.562  0.0328 -0.8946 -0.5634
   57CHL1  H21A 5377   3.026   2.537   3.639 -1.8527 -2.2419 -1.1656
   57CHL1  H21B 5378   3.024   2.433   3.491  0.8577 -0.4269 -1.7113
   57CHL1  H21C 5379   3.145   2.568   3.509 -1.5914 -0.0110 -0.9698
   57CHL1   C22 5380   3.258   2.459   3.756  0.1582  0.1943  0.4826
   57CHL1  H22A 5381   3.328   2.383   3.796  0.2569 -1.3424 -2.3828
   57CHL1  H22B 5382   3.320   2.547   3.727  4.1340 -2.1961  1.0509
   57CHL1   C23 5383   3.168   2.488   3.872  0.5837 -0.1233 -0.2287
   57CHL1  H23A 5384   3.111   2.580   3.844  1.2117  0.2480 -0.3042
   57CHL1  H23B 5385   3.094   2.405   3.879  0.8859 -0.4644 -0.9908
   57CHL1   C24 5386   3.243   2.520   4.004 -0.0075  0.2042 -0.4679
   57CHL1  H24A 5387   3.316   2.438   4.015 -1.2463 -0.6710  2.1818
   57CHL1  H24B 5388   3.300   2.614   4.016  1.1795 -0.6587  0.9271
   57CHL1   C25 5389   3.149   2.508   4.132  0.2750 -0.3390  0.0427
   57CHL1   H25 5390   3.085   2.419   4.116  0.7810 -0.8514  0.7945
   57CHL1   C26 5391   3.221   2.500   4.267  0.3772 -0.5076 -0.0217
   57CHL1  H26A 5392   3.260   2.598   4.301 -1.0535 -0.0141  0.2933
   57CHL1  H26B 5393   3.158   2.456   4.348 -1.2257  0.6192 -0.6000
   57CHL1  H26C 5394   3.307   2.431   4.255  2.2642  2.1180 -3.1105
   57CHL1   C27 5395   3.057   2.635   4.128 -0.7497  0.7345  0.6051
   57CHL1  H27A 5396   3.006   2.643   4.227 -0.0275  0.4381  1.0045
   57CHL1  H27B 5397   3.121   2.721   4.099  0.0536  1.1392  3.3009
   57CHL1  H27C 5398   2.976   2.620   4.054 -1.0668  2.8471  0.4638
   58CHL1    C3 5399   3.267   3.522   2.722  0.3513 -0.3559 -0.1638
   58CHL1    H3 5400   3.353   3.460   2.754 -0.3653 -1.2822  0.0011
   58CHL1    O3 5401   3.241   3.489   2.589  0.0770 -0.0198 -0.1792
   58CHL1   H3' 5402   3.148   3.471   2.574  0.1740  0.0361 -0.8950
   58CHL1    C4 5403   3.140   3.493   2.797 -0.1276 -0.0025 -0.1982
   58CHL1   H4A 5404   3.054   3.533   2.739  0.4752 -1.5882 -2.3208
   58CHL1   H4B 5405   3.122   3.383   2.795  1.6221 -0.3182 -1.4112
   58CHL1    C5 5406   3.149   3.539   2.948 -0.1755  0.0497  0.6358
   58CHL1    C6 5407   3.128   3.456   3.049 -0.5686  0.6107  0.4838
   58CHL1    H6 5408   3.095   3.358   3.012 -0.6098  1.0722 -0.7443
   58CHL1    C7 5409   3.134   3.480   3.198  0.3652 -0.2305  0.7231
   58CHL1   H7A 5410   3.047   3.441   3.255  0.7305 -0.4626  1.1221
   58CHL1   H7B 5411   3.227   3.428   3.230  0.5882 -0.8058 -0.7572
   58CHL1    C8 5412   3.137   3.629   3.222 -0.5158  0.2924 -0.3997
   58CHL1    H8 5413   3.037   3.678   3.211 -0.0502  1.3265 -0.1914
   58CHL1   C14 5414   3.173   3.657   3.371  0.0264 -0.0008 -0.8875
   58CHL1   H14 5415   3.278   3.622   3.379  0.4472  1.1073 -1.3752
   58CHL1   C15 5416   3.094   3.588   3.482  0.5540 -0.0460 -0.4275
   58CHL1  H15A 5417   2.986   3.586   3.460 -0.1983  2.0700  2.4116
   58CHL1  H15B 5418   3.120   3.481   3.498  0.8490  0.0296 -0.3956
   58CHL1   C16 5419   3.121   3.678   3.603 -0.7934  0.3175  0.8467
   58CHL1  H16A 5420   3.026   3.721   3.642 -0.5526  1.3827  0.3072
   58CHL1  H16B 5421   3.182   3.630   3.682 -0.8534  1.6562  1.7362
   58CHL1   C17 5422   3.220   3.791   3.552 -0.7512 -0.7230 -0.3768
   58CHL1   H17 5423   3.322   3.749   3.546  0.3440  1.6374  0.5565
   58CHL1   C13 5424   3.183   3.808   3.408  0.0304 -0.7534  0.5523
   58CHL1   C18 5425   3.046   3.870   3.387  0.2699  0.0190  0.9294
   58CHL1  H18A 5426   2.962   3.805   3.421  0.8075 -1.3324 -0.2088
   58CHL1  H18B 5427   3.039   3.973   3.427  0.2801 -0.1634  1.4113
   58CHL1  H18C 5428   3.030   3.890   3.279 -0.0854  1.9933  1.3158
   58CHL1   C12 5429   3.284   3.885   3.315 -0.0100 -0.3344 -0.6916
   58CHL1  H12A 5430   3.285   3.996   3.325 -1.1603 -0.2376 -1.4041
   58CHL1  H12B 5431   3.390   3.869   3.342  0.7645  2.0911 -1.9391
   58CHL1   C11 5432   3.263   3.860   3.164  0.4720  0.1371 -0.3571
   58CHL1  H11A 5433   3.192   3.940   3.134  0.4346 -0.4674 -1.9996
   58CHL1  H11B 5434   3.361   3.878   3.115  1.4553 -1.8041  0.7543
   58CHL1    C9 5435   3.233   3.707   3.131 -0.3717 -0.0659 -0.0452
   58CHL1    H9 5436   3.331   3.656   3.144 -0.6929 -0.7313 -0.1624
   58CHL1   C10 5437   3.202   3.684   2.975  0.1780  0.2069 -0.5346
   58CHL1   C19 5438   3.082   3.780   2.935 -1.5558  0.0287 -0.9898
   58CHL1  H19A 5439   3.064   3.785   2.826 -1.2486 -0.1338 -1.0502
   58CHL1  H19B 5440   2.991   3.775   2.998 -0.4320  2.2136  0.9918
   58CHL1  H19C 5441   3.121   3.883   2.953 -0.5400 -0.5667  0.4901
   58CHL1    C1 5442   3.329   3.706   2.888  0.2671  0.3641  0.1881
   58CHL1   H1A 5443   3.346   3.815   2.902  0.4885 -0.0807  4.6929
   58CHL1   H1B 5444   3.412   3.645   2.929  0.7654 -0.0071 -1.3000
   58CHL1    C2 5445   3.307   3.664   2.741  0.5262  0.4413  0.2029
   58CHL1   H2A 5446   3.403   3.670   2.685  1.3380 -0.1440  1.4874
   58CHL1   H2B 5447   3.233   3.725   2.685  0.9939 -1.5407 -2.8183
   58CHL1   C20 5448   3.236   3.927   3.627 -0.0062  0.8538  0.6282
   58CHL1   H20 5449   3.215   4.011   3.557 -1.9314  0.7715  1.0543
   58CHL1   C21 5450   3.380   3.938   3.689  0.2671  0.5284 -0.4564
   58CHL1  H21A 5451   3.415   4.033   3.733  1.6182 -1.0538  2.1210
   58CHL1  H21B 5452   3.455   3.916   3.610 -0.3360 -0.6089 -0.7381
   58CHL1  H21C 5453   3.394   3.871   3.776  0.2602  3.0718  1.5881
   58CHL1   C22 5454   3.128   3.946   3.741 -0.0271 -0.1018  0.2020
   58CHL1  H22A 5455   3.021   3.947   3.713  0.1460  2.3635 -0.5605
   58CHL1  H22B 5456   3.143   3.868   3.819  0.0350  0.2322  0.5296
   58CHL1   C23 5457   3.134   4.085   3.809 -0.7498  0.5172 -0.4801
   58CHL1  H23A 5458   3.238   4.102   3.846 -1.4495  0.7250  1.5092
   58CHL1  H23B 5459   3.120   4.169   3.739  1.4904  2.0773  0.7964
   58CHL1   C24 5460   3.037   4.102   3.925 -0.0989  0.6968 -0.0909
   58CHL1  H24A 5461   2.929   4.106   3.900 -0.4024 -0.8863  0.8548
   58CHL1  H24B 5462   3.054   4.023   4.001 -0.8400  1.6846  1.1429
   58CHL1   C25 5463   3.056   4.235   4.003 -0.7036 -1.0713  0.8601
   58CHL1   H25 5464   2.999   4.233   4.099 -0.3678 -0.8409  1.0635
   58CHL1   C26 5465   3.207   4.251   4.035  0.4155  0.5362 -0.0280
   58CHL1  H26A 5466   3.251   4.151   4.055 -0.1083 -0.1781 -2.1547
   58CHL1  H26B 5467   3.264   4.291   3.948  1.0781 -0.0343  0.1290
   58CHL1  H26C 5468   3.225   4.325   4.116  0.8138  2.0865 -1.4668
   58CHL1   C27 5469   3.010   4.351   3.912 -0.3404  0.1452 -0.3455
   58CHL1  H27A 5470   3.015   4.452   3.958 -1.6681 -0.1896  0.6089
   58CHL1  H27B 5471   3.074   4.359   3.821 -0.2032 -1.2403 -0.4039
   58CHL1  H27C 5472   2.905   4.330   3.880 -0.5775 -0.7485  0.9408
   59CHL1    C3 5473   2.136   2.433   2.554  0.8137 -0.4876  0.3440
   59CHL1    H3 5474   2.179   2.353   2.618  0.4465 -0.5817  0.4758
   59CHL1    O3 5475   2.155   2.391   2.424 -0.2304 -0.3485 -0.6557
   59CHL1   H3' 5476   2.118   2.457   2.364 -1.3049 -0.2958  0.0407
   59CHL1    C4 5477   1.990   2.461   2.592 -0.5090  0.5490  0.0986
   59CHL1   H4A 5478   1.951   2.538   2.521  2.4077 -0.0779 -2.4168
   59CHL1   H4B 5479   1.938   2.366   2.569  0.7532  0.6047 -3.5655
   59CHL1    C5 5480   1.980   2.514   2.735  1.0408 -0.0430 -0.3849
   59CHL1    C6 5481   1.899   2.455   2.819 -0.2774 -0.9514  0.1356
   59CHL1    H6 5482   1.840   2.369   2.784  0.4147 -1.7555  0.9147
   59CHL1    C7 5483   1.879   2.498   2.961 -0.0194  0.8789  0.9535
   59CHL1   H7A 5484   1.771   2.513   2.981 -0.9418 -2.2668 -0.9206
   59CHL1   H7B 5485   1.921   2.426   3.035  2.6659  0.3612 -0.9389
   59CHL1    C8 5486   1.949   2.636   2.995  0.1694 -0.2501  0.2236
   59CHL1    H8 5487   1.880   2.715   2.958  0.7801 -0.0962 -0.6218
   59CHL1   C14 5488   1.959   2.657   3.145 -0.7953 -0.2355  0.4760
   59CHL1   H14 5489   2.025   2.572   3.173  1.6595  1.6303  0.7186
   59CHL1   C15 5490   1.833   2.643   3.224  0.6852  0.5687  0.1471
   59CHL1  H15A 5491   1.753   2.703   3.176 -0.9175 -0.6533  1.1979
   59CHL1  H15B 5492   1.814   2.534   3.232  2.9894  0.0400 -0.7639
   59CHL1   C16 5493   1.866   2.723   3.354 -0.2016 -0.0515  0.1705
   59CHL1  H16A 5494   1.792   2.806   3.365  0.7080  0.6675  1.0025
   59CHL1  H16B 5495   1.870   2.649   3.436  2.5329  0.7632  0.8657
   59CHL1   C17 5496   2.004   2.790   3.337 -1.2092 -0.6777 -0.1206
   59CHL1   H17 5497   2.074   2.713   3.376 -0.0666 -0.6808 -2.0605
   59CHL1   C13 5498   2.031   2.789   3.183 -0.1613  0.7475  0.2024
   59CHL1   C18 5499   1.958   2.907   3.122  0.6175  0.0512  0.0025
   59CHL1  H18A 5500   1.947   2.899   3.012 -1.6716  0.8246  0.1108
   59CHL1  H18B 5501   1.852   2.917   3.155  0.3721  2.9541 -1.3821
   59CHL1  H18C 5502   2.005   3.004   3.151  0.3904  0.6703 -1.6282
   59CHL1   C12 5503   2.177   2.787   3.129  0.0318 -0.3337  0.5154
   59CHL1  H12A 5504   2.240   2.876   3.150  1.6307 -1.6050  1.4098
   59CHL1  H12B 5505   2.244   2.710   3.174  0.6943  0.3865  0.7945
   59CHL1   C11 5506   2.172   2.771   2.976 -0.4509  0.0246  0.2683
   59CHL1  H11A 5507   2.133   2.863   2.928  1.7744  1.6654  1.4159
   59CHL1  H11B 5508   2.270   2.763   2.923 -1.5111 -2.4280 -1.5362
   59CHL1    C9 5509   2.087   2.645   2.929  0.2401 -0.5068 -0.8758
   59CHL1    H9 5510   2.151   2.562   2.965 -0.2897 -0.2893  0.6024
   59CHL1   C10 5511   2.079   2.628   2.776 -0.0162  0.5360 -0.6776
   59CHL1   C19 5512   2.027   2.765   2.728 -0.3088  0.3426  0.6135
   59CHL1  H19A 5513   2.112   2.836   2.736  1.2483 -1.1988 -1.2613
   59CHL1  H19B 5514   2.003   2.758   2.620  0.0951 -1.1770  0.6053
   59CHL1  H19C 5515   1.935   2.798   2.781  0.5954  1.4958  1.5069
   59CHL1    C1 5516   2.221   2.611   2.714  0.1185  0.4761 -0.4381
   59CHL1   H1A 5517   2.276   2.707   2.711 -0.6966  0.9470 -0.8365
   59CHL1   H1B 5518   2.275   2.540   2.779 -0.0258  0.1302 -0.6881
   59CHL1    C2 5519   2.218   2.560   2.573 -0.0626 -0.4240 -0.4489
   59CHL1   H2A 5520   2.323   2.545   2.542 -0.0102 -1.4741  0.1942
   59CHL1   H2B 5521   2.177   2.646   2.516 -2.5529 -0.5586  0.9770
   59CHL1   C20 5522   2.025   2.924   3.415  0.7346 -0.4403  0.5829
   59CHL1   H20 5523   1.963   3.005   3.371 -0.9567 -0.9847  1.8376
   59CHL1   C21 5524   2.175   2.958   3.417 -0.4918  0.1477  0.0555
   59CHL1  H21A 5525   2.195   3.047   3.481  0.4319  0.2855 -0.4028
   59CHL1  H21B 5526   2.222   2.990   3.322  0.9194 -1.8938 -0.0111
   59CHL1  H21C 5527   2.228   2.864   3.444  0.2032  0.0611 -1.4966
   59CHL1   C22 5528   1.966   2.903   3.551 -0.4644 -0.1720  0.3253
   59CHL1  H22A 5529   1.855   2.894   3.547 -0.5006  0.6115 -1.2830
   59CHL1  H22B 5530   1.994   2.804   3.594  0.0000  0.3022  1.1394
   59CHL1   C23 5531   1.987   3.021   3.647 -1.2531 -0.4044  0.5510
   59CHL1  H23A 5532   2.094   3.038   3.669 -1.2488  1.7210 -0.9154
   59CHL1  H23B 5533   1.948   3.115   3.602 -0.1038 -0.9096 -1.6317
   59CHL1   C24 5534   1.932   2.987   3.793  0.2576  0.0700  0.5515
   59CHL1  H24A 5535   1.976   2.888   3.815 -0.5292 -0.5394 -0.5326
   59CHL1  H24B 5536   1.955   3.071   3.863 -0.5609  0.0619  0.8313
   59CHL1   C25 5537   1.783   2.966   3.802  0.3233  0.0105 -0.3477
   59CHL1   H25 5538   1.748   2.882   3.739 -2.6927 -0.7898  2.1818
   59CHL1   C26 5539   1.750   2.927   3.945 -0.1114 -0.0762  0.0532
   59CHL1  H26A 5540   1.791   3.002   4.016  1.1456 -1.3537  0.7268
   59CHL1  H26B 5541   1.642   2.904   3.960 -0.3543  0.6946 -0.4236
   59CHL1  H26C 5542   1.805   2.836   3.976  0.8575  1.0849  1.8947
   59CHL1   C27 5543   1.708   3.090   3.757  0.5936 -0.2813  0.0144
   59CHL1  H27A 5544   1.758   3.170   3.816 -1.5881  1.6609 -0.6562
   59CHL1  H27B 5545   1.724   3.102   3.648  0.1045 -2.5281 -0.3635
   59CHL1  H27C 5546   1.600   3.076   3.778  0.3574  1.1326 -0.1685
   60CHL1    C3 5547   3.335   0.279   2.674  0.0512 -0.5945 -0.1375
   60CHL1    H3 5548   3.226   0.258   2.675  0.2007 -1.3866  0.1154
   60CHL1    O3 5549   3.370   0.303   2.538  0.1498 -0.2594  0.2604
   60CHL1   H3' 5550   3.460   0.335   2.546  0.1970 -0.3898  0.2476
   60CHL1    C4 5551   3.360   0.409   2.759  0.4644  0.2581  0.1594
   60CHL1   H4A 5552   3.469   0.431   2.758  0.3482  0.8702  0.3728
   60CHL1   H4B 5553   3.297   0.482   2.704 -0.8503 -2.3667 -2.0605
   60CHL1    C5 5554   3.328   0.390   2.905  0.6588 -0.1112  0.1986
   60CHL1    C6 5555   3.243   0.476   2.967  1.1593  0.8098 -0.4933
   60CHL1    H6 5556   3.208   0.567   2.916  0.4354  1.2470  0.7479
   60CHL1    C7 5557   3.201   0.454   3.109 -0.1762 -0.1487 -0.1241
   60CHL1   H7A 5558   3.196   0.553   3.160  1.0309 -0.7454  1.2342
   60CHL1   H7B 5559   3.101   0.406   3.114  0.5343 -1.5798  2.5575
   60CHL1    C8 5560   3.291   0.363   3.194  0.0770  0.0217 -0.8538
   60CHL1    H8 5561   3.390   0.412   3.206  0.3726 -0.7481 -0.0802
   60CHL1   C14 5562   3.223   0.331   3.330 -0.1091 -0.0264 -0.4305
   60CHL1   H14 5563   3.129   0.277   3.308  1.4623 -3.0831 -0.1939
   60CHL1   C15 5564   3.197   0.450   3.423  0.2326 -0.0738 -0.2565
   60CHL1  H15A 5565   3.275   0.526   3.404  0.1255  0.8766  2.6600
   60CHL1  H15B 5566   3.098   0.493   3.396  0.0520 -1.3269 -1.7794
   60CHL1   C16 5567   3.195   0.383   3.570 -0.6515  0.4182  0.3093
   60CHL1  H16A 5568   3.285   0.416   3.627 -0.0135 -0.4464 -0.1691
   60CHL1  H16B 5569   3.103   0.414   3.624 -0.0878  0.0819  1.4921
   60CHL1   C17 5570   3.218   0.237   3.545  0.1995  0.4344 -0.8946
   60CHL1   H17 5571   3.116   0.200   3.520 -0.0754  1.2808 -1.0368
   60CHL1   C13 5572   3.303   0.227   3.416 -0.2783  0.7522  0.0325
   60CHL1   C18 5573   3.450   0.286   3.446 -0.1563 -1.0799  0.5620
   60CHL1  H18A 5574   3.507   0.311   3.353  0.4715 -1.4666  0.8407
   60CHL1  H18B 5575   3.459   0.379   3.507  3.6619  0.1940 -1.5810
   60CHL1  H18C 5576   3.507   0.212   3.505  0.5284 -1.4259 -0.5065
   60CHL1   C12 5577   3.296   0.098   3.338 -0.7279 -0.4181  0.8041
   60CHL1  H12A 5578   3.360   0.021   3.387  0.6457  0.0365 -0.2182
   60CHL1  H12B 5579   3.201   0.044   3.317 -0.8681 -0.2656  1.0470
   60CHL1   C11 5580   3.375   0.115   3.206 -0.1553  0.4998 -0.0228
   60CHL1  H11A 5581   3.478   0.144   3.236 -0.8831  1.5727  1.6497
   60CHL1  H11B 5582   3.378   0.018   3.152 -0.7502 -1.4499  3.1424
   60CHL1    C9 5583   3.319   0.232   3.115 -0.2409 -0.6202  0.0902
   60CHL1    H9 5584   3.214   0.211   3.086 -0.6594  0.3333  0.8439
   60CHL1   C10 5585   3.392   0.266   2.983  0.1035 -0.3456  0.4829
   60CHL1   C19 5586   3.543   0.303   2.999  0.1730 -0.6025 -0.4221
   60CHL1  H19A 5587   3.589   0.320   2.899  2.3317 -2.2935  0.2056
   60CHL1  H19B 5588   3.545   0.395   3.061  0.0856 -1.5201  0.9991
   60CHL1  H19C 5589   3.604   0.227   3.052 -0.4160 -1.0585 -0.3841
   60CHL1    C1 5590   3.371   0.140   2.885 -0.3772  0.0273  0.1392
   60CHL1   H1A 5591   3.439   0.060   2.922 -0.2079  0.0758 -0.0651
   60CHL1   H1B 5592   3.265   0.116   2.908 -0.2367  1.1223  2.2241
   60CHL1    C2 5593   3.416   0.162   2.738  0.7865 -0.4763 -0.6188
   60CHL1   H2A 5594   3.387   0.078   2.671 -3.1824  0.5422 -0.4046
   60CHL1   H2B 5595   3.526   0.179   2.750  0.9777 -1.6730 -0.5665
   60CHL1   C20 5596   3.256   0.161   3.677 -0.1640 -0.6005  0.3819
   60CHL1   H20 5597   3.365   0.177   3.680  0.2382 -2.5116 -1.3947
   60CHL1   C21 5598   3.223   0.012   3.656  0.4209 -0.2637  0.4751
   60CHL1  H21A 5599   3.119   0.002   3.617  0.5609  2.0093 -0.6668
   60CHL1  H21B 5600   3.238  -0.042   3.751  0.0561 -1.1253  0.0509
   60CHL1  H21C 5601   3.283  -0.039   3.578  0.5291  0.6669 -0.0650
   60CHL1   C22 5602   3.200   0.212   3.811 -0.2288 -0.0246 -0.5361
   60CHL1  H22A 5603   3.167   0.318   3.807  0.7007  0.3403  0.7976
   60CHL1  H22B 5604   3.103   0.164   3.836 -0.1972  0.5770  0.8585
   60CHL1   C23 5605   3.299   0.175   3.925  0.4739  0.3624  0.9501
   60CHL1  H23A 5606   3.294   0.064   3.928 -2.3704  0.4295  1.4799
   60CHL1  H23B 5607   3.407   0.190   3.904  0.9062 -2.3927  0.7370
   60CHL1   C24 5608   3.256   0.222   4.067  0.9146  0.6137  0.2167
   60CHL1  H24A 5609   3.259   0.332   4.080  0.8923  0.3777  2.6660
   60CHL1  H24B 5610   3.155   0.184   4.093 -0.2609  2.3494 -1.5379
   60CHL1   C25 5611   3.359   0.169   4.169 -0.0680  0.1811  0.3351
   60CHL1   H25 5612   3.461   0.204   4.144  0.9090 -2.1720  0.6749
   60CHL1   C26 5613   3.310   0.215   4.304  0.2198  0.2994 -0.1414
   60CHL1  H26A 5614   3.394   0.194   4.374  0.4473 -0.9437 -0.7490
   60CHL1  H26B 5615   3.281   0.322   4.307  0.2101  0.3770 -1.8113
   60CHL1  H26C 5616   3.222   0.159   4.341 -0.4225  1.0818 -0.4655
   60CHL1   C27 5617   3.372   0.022   4.190  0.0066 -0.4762 -0.0209
   60CHL1  H27A 5618   3.276  -0.013   4.233 -0.1736  1.1757  0.9957
   60CHL1  H27B 5619   3.393  -0.027   4.092 -0.3642 -0.7370  0.0297
   60CHL1  H27C 5620   3.452   0.016   4.267  0.1853  0.7610 -0.0836
   61CHL1    C3 5621   4.265   2.507   3.089 -0.1204  0.0945  0.5332
   61CHL1    H3 5622   4.375   2.506   3.105 -0.0764 -1.5952  0.3072
   61CHL1    O3 5623   4.238   2.492   2.950  0.3641  0.1537 -0.2614
   61CHL1   H3' 5624   4.221   2.399   2.930 -0.9048  0.7681 -2.3509
   61CHL1    C4 5625   4.204   2.390   3.168  0.2869  0.0129  0.3520
   61CHL1   H4A 5626   4.103   2.359   3.135 -0.3248  0.1405  2.0234
   61CHL1   H4B 5627   4.268   2.306   3.135 -0.5224 -0.4158 -0.1414
   61CHL1    C5 5628   4.223   2.411   3.318  0.2506  0.3020 -0.3365
   61CHL1    C6 5629   4.281   2.313   3.391 -0.8558 -0.3435  0.2212
   61CHL1    H6 5630   4.332   2.237   3.330 -0.0091  0.5231 -0.1671
   61CHL1    C7 5631   4.303   2.319   3.533 -0.1196  0.7878 -0.5333
   61CHL1   H7A 5632   4.283   2.219   3.578 -0.9505  1.3298  0.3345
   61CHL1   H7B 5633   4.409   2.347   3.551  0.3186 -0.6563 -0.7637
   61CHL1    C8 5634   4.207   2.419   3.597  0.0916 -0.4349 -0.3548
   61CHL1    H8 5635   4.100   2.390   3.585  0.2092 -0.6037 -0.9740
   61CHL1   C14 5636   4.239   2.448   3.743 -0.4549  0.3665  0.0937
   61CHL1   H14 5637   4.334   2.502   3.729 -1.0358  1.6670  0.9496
   61CHL1   C15 5638   4.262   2.328   3.843  0.0641 -0.4205 -0.1638
   61CHL1  H15A 5639   4.191   2.243   3.841 -1.2371  0.5528  1.8806
   61CHL1  H15B 5640   4.365   2.290   3.822  1.1955  0.7993  2.6541
   61CHL1   C16 5641   4.268   2.396   3.986  0.0440  0.5262  0.5822
   61CHL1  H16A 5642   4.186   2.345   4.040 -0.4484  0.6139 -0.0781
   61CHL1  H16B 5643   4.360   2.392   4.048  0.4110 -1.3617 -0.0123
   61CHL1   C17 5644   4.214   2.543   3.960  0.4416  0.3947  0.2068
   61CHL1   H17 5645   4.311   2.595   3.972  1.9899 -2.1735 -0.4781
   61CHL1   C13 5646   4.156   2.550   3.815 -0.3911 -0.0970  0.1629
   61CHL1   C18 5647   4.011   2.496   3.808  0.1746  0.6239 -0.0825
   61CHL1  H18A 5648   3.976   2.491   3.703 -0.2299 -0.4978  0.0866
   61CHL1  H18B 5649   3.997   2.395   3.854  0.6686  0.9153  0.7215
   61CHL1  H18C 5650   3.948   2.561   3.872  0.0410 -0.2232  0.6729
   61CHL1   C12 5651   4.171   2.684   3.743  0.0352  0.2299 -0.2355
   61CHL1  H12A 5652   4.106   2.757   3.795 -1.5449 -1.3530  0.1028
   61CHL1  H12B 5653   4.276   2.720   3.749  0.4991 -1.2372  2.2278
   61CHL1   C11 5654   4.128   2.669   3.598  0.2791 -0.0064  0.7815
   61CHL1  H11A 5655   4.021   2.657   3.573  0.2841 -2.6720  1.6739
   61CHL1  H11B 5656   4.171   2.759   3.549 -0.8109 -0.9360 -2.1314
   61CHL1    C9 5657   4.204   2.552   3.524 -0.1805 -0.1494 -0.6929
   61CHL1    H9 5658   4.311   2.581   3.524  0.0625 -1.0419 -1.3394
   61CHL1   C10 5659   4.166   2.541   3.377  0.6437 -0.1758 -0.9415
   61CHL1   C19 5660   4.016   2.518   3.357  0.0047  0.0810  0.3166
   61CHL1  H19A 5661   3.942   2.593   3.394 -1.0818 -0.9872  0.4004
   61CHL1  H19B 5662   3.987   2.521   3.250  1.4870  0.8308 -0.0928
   61CHL1  H19C 5663   3.975   2.421   3.392 -4.5482  0.8541 -2.0846
   61CHL1    C1 5664   4.223   2.657   3.288 -1.2900  0.6603  0.3767
   61CHL1   H1A 5665   4.166   2.746   3.323 -0.0578  1.2452  0.9605
   61CHL1   H1B 5666   4.330   2.677   3.312 -0.9941  0.9677 -1.0776
   61CHL1    C2 5667   4.222   2.640   3.138 -0.0329 -0.6098  0.6021
   61CHL1   H2A 5668   4.296   2.706   3.088 -0.2947 -1.6862 -1.2955
   61CHL1   H2B 5669   4.118   2.649   3.101 -0.4230 -1.4987  1.4265
   61CHL1   C20 5670   4.124   2.589   4.074 -0.3193 -0.3532  0.1706
   61CHL1   H20 5671   4.028   2.534   4.063  0.4124 -2.0796  1.8887
   61CHL1   C21 5672   4.098   2.747   4.058 -0.7795 -0.0969  0.2611
   61CHL1  H21A 5673   4.075   2.787   4.159  1.8627 -1.9839  1.7350
   61CHL1  H21B 5674   4.018   2.762   3.982 -0.5889 -4.8684 -1.1713
   61CHL1  H21C 5675   4.189   2.791   4.012 -0.0468 -0.1435  1.6190
   61CHL1   C22 5676   4.161   2.565   4.218 -0.3162 -0.2322 -0.3236
   61CHL1  H22A 5677   4.080   2.610   4.279  1.0774  1.9399  0.0361
   61CHL1  H22B 5678   4.157   2.457   4.242  0.3987  0.1233  1.5335
   61CHL1   C23 5679   4.299   2.620   4.269  0.4003  0.2351 -0.6971
   61CHL1  H23A 5680   4.383   2.556   4.234  1.8263  1.0485  1.1059
   61CHL1  H23B 5681   4.308   2.723   4.228  0.2180  0.6892  0.3895
   61CHL1   C24 5682   4.308   2.619   4.422 -0.5379  0.1232  0.2185
   61CHL1  H24A 5683   4.214   2.657   4.468 -0.2757  0.9755  0.0773
   61CHL1  H24B 5684   4.311   2.509   4.440 -2.7078 -0.6376 -3.2719
   61CHL1   C25 5685   4.440   2.694   4.472 -0.7195  0.3134  0.1926
   61CHL1   H25 5686   4.507   2.697   4.383  0.9297 -2.0846  1.2244
   61CHL1   C26 5687   4.414   2.838   4.517 -0.0499  0.6960  0.2452
   61CHL1  H26A 5688   4.508   2.895   4.533  0.2719  0.1507  0.3017
   61CHL1  H26B 5689   4.345   2.875   4.438 -0.4330  0.8498  0.6508
   61CHL1  H26C 5690   4.352   2.820   4.607  0.0079 -2.1845 -0.1950
   61CHL1   C27 5691   4.508   2.619   4.586  0.0729 -0.3164  0.7989
   61CHL1  H27A 5692   4.552   2.522   4.554  0.1563  0.0703 -0.3054
   61CHL1  H27B 5693   4.595   2.684   4.611  2.1576 -1.5183 -2.6247
   61CHL1  H27C 5694   4.444   2.605   4.676 -0.9412 -0.5249  0.0652
   62CHL1    C3 5695   6.778   1.488   2.624  0.4724 -0.0411 -0.3387
   62CHL1    H3 5696   6.698   1.412   2.637 -1.4617  1.7741 -0.9598
   62CHL1    O3 5697   6.788   1.512   2.488  0.3175  0.3919 -0.6975
   62CHL1   H3' 5698   6.844   1.589   2.483  2.6100 -0.8046  2.9421
   62CHL1    C4 5699   6.727   1.616   2.690  0.5324  0.1670  0.0562
   62CHL1   H4A 5700   6.798   1.701   2.677 -0.3457  0.7368 -1.1920
   62CHL1   H4B 5701   6.625   1.643   2.657  0.7408  2.9007  1.4206
   62CHL1    C5 5702   6.719   1.601   2.842  0.0149 -0.0027 -0.1888
   62CHL1    C6 5703   6.609   1.625   2.909  0.4393 -0.5913  0.5536
   62CHL1    H6 5704   6.516   1.650   2.857  0.7513 -2.5048 -1.0864
   62CHL1    C7 5705   6.596   1.621   3.060  0.4057  0.4463 -0.0594
   62CHL1   H7A 5706   6.528   1.701   3.095 -0.6317 -0.8861  1.0557
   62CHL1   H7B 5707   6.549   1.525   3.088 -0.1046  0.8020  0.3107
   62CHL1    C8 5708   6.734   1.623   3.136  0.2602  0.5068  0.6402
   62CHL1    H8 5709   6.779   1.725   3.138 -1.3667  1.3190 -1.1317
   62CHL1   C14 5710   6.710   1.584   3.284 -0.2546  0.0933  0.1973
   62CHL1   H14 5711   6.667   1.482   3.280  0.4567 -0.2321  0.6429
   62CHL1   C15 5712   6.609   1.669   3.358  0.7280  0.4172 -0.0495
   62CHL1  H15A 5713   6.611   1.774   3.322  0.7583  0.4149 -0.0562
   62CHL1  H15B 5714   6.505   1.644   3.327 -1.2097  4.6758  2.1783
   62CHL1   C16 5715   6.641   1.644   3.508  0.0453  0.0025 -1.0297
   62CHL1  H16A 5716   6.677   1.741   3.549  0.9031  0.1477 -2.0880
   62CHL1  H16B 5717   6.557   1.603   3.568 -0.1288  1.5385 -0.1693
   62CHL1   C17 5718   6.759   1.540   3.501 -0.2313 -0.3849  0.1979
   62CHL1   H17 5719   6.709   1.441   3.501 -2.1802  0.5371 -0.6614
   62CHL1   C13 5720   6.831   1.563   3.368  0.0197  0.3767  0.9799
   62CHL1   C18 5721   6.909   1.694   3.376  0.5050  0.7339  0.1276
   62CHL1  H18A 5722   6.953   1.728   3.280  1.7075 -1.3273 -0.1029
   62CHL1  H18B 5723   6.846   1.778   3.415 -0.1464 -0.4860  1.8342
   62CHL1  H18C 5724   6.997   1.690   3.443  1.5473  0.1765 -1.2332
   62CHL1   C12 5725   6.911   1.450   3.305 -0.8731  0.1333  0.1003
   62CHL1  H12A 5726   7.006   1.438   3.361  0.0954  1.5846 -1.1348
   62CHL1  H12B 5727   6.862   1.350   3.308  1.7094 -1.1933  1.4576
   62CHL1   C11 5728   6.950   1.482   3.158  0.3286  0.2626  0.3960
   62CHL1  H11A 5729   7.021   1.567   3.157 -2.0138  2.4100  2.5740
   62CHL1  H11B 5730   6.995   1.398   3.101 -1.7977 -0.9626  0.3766
   62CHL1    C9 5731   6.825   1.518   3.070  0.1638 -1.0233 -0.4978
   62CHL1    H9 5732   6.766   1.424   3.070 -1.3219 -0.1190 -1.4716
   62CHL1   C10 5733   6.848   1.554   2.917  0.7351  0.8195  0.1349
   62CHL1   C19 5734   6.947   1.670   2.915 -0.0288  0.3624 -0.3694
   62CHL1  H19A 5735   6.896   1.757   2.961  1.4047  0.5018  1.0311
   62CHL1  H19B 5736   7.042   1.640   2.963  0.5848  2.6217 -0.0434
   62CHL1  H19C 5737   6.965   1.712   2.813 -1.2818  0.5969 -0.5095
   62CHL1    C1 5738   6.904   1.433   2.838 -0.6013  0.1105  0.0129
   62CHL1   H1A 5739   7.007   1.429   2.880 -0.2114 -0.4540 -0.9590
   62CHL1   H1B 5740   6.850   1.343   2.872  1.7653 -0.8975  1.3225
   62CHL1    C2 5741   6.911   1.449   2.682  0.0616  0.4039 -0.7542
   62CHL1   H2A 5742   6.931   1.348   2.638 -2.6528  0.1337 -1.5412
   62CHL1   H2B 5743   6.980   1.533   2.662  2.3908 -1.1134  0.4246
   62CHL1   C20 5744   6.851   1.535   3.624  0.2359  0.2163  0.4392
   62CHL1   H20 5745   6.953   1.518   3.584 -0.0187  0.8784 -0.5450
   62CHL1   C21 5746   6.807   1.413   3.706  0.8601 -0.2155  0.3145
   62CHL1  H21A 5747   6.704   1.424   3.746  0.6254  1.1965 -0.6200
   62CHL1  H21B 5748   6.877   1.401   3.792  1.4382  2.3937  0.2794
   62CHL1  H21C 5749   6.803   1.316   3.651 -0.0638 -1.4234  2.3697
   62CHL1   C22 5750   6.860   1.664   3.704  0.0024  0.3217 -0.0070
   62CHL1  H22A 5751   6.887   1.755   3.645  2.7053  0.2304  0.9472
   62CHL1  H22B 5752   6.756   1.670   3.743 -0.8691 -2.7080 -1.5142
   62CHL1   C23 5753   6.963   1.647   3.813 -0.4301 -0.6884 -0.4038
   62CHL1  H23A 5754   6.940   1.568   3.887  0.5936 -1.7012 -1.1412
   62CHL1  H23B 5755   7.059   1.621   3.763  0.0421 -2.1301  1.1379
   62CHL1   C24 5756   6.981   1.783   3.893 -0.1114  0.3650  0.7406
   62CHL1  H24A 5757   7.016   1.850   3.812  0.3968 -0.3775  0.3276
   62CHL1  H24B 5758   6.885   1.813   3.940  0.0351  1.3829  0.4113
   62CHL1   C25 5759   7.096   1.772   4.000  0.3056  0.0071  0.7010
   62CHL1   H25 5760   7.054   1.695   4.068 -1.7201 -1.9256 -2.4358
   62CHL1   C26 5761   7.228   1.716   3.934  0.0702 -0.3252 -0.0220
   62CHL1  H26A 5762   7.228   1.605   3.923  1.6924 -0.2442 -1.3250
   62CHL1  H26B 5763   7.261   1.768   3.841  2.3342 -3.1094 -0.9304
   62CHL1  H26C 5764   7.311   1.732   4.005  1.2239 -1.0207 -1.1565
   62CHL1   C27 5765   7.122   1.905   4.071 -0.1602 -0.3279 -0.1355
   62CHL1  H27A 5766   7.031   1.950   4.115 -0.3694  0.2271 -1.0926
   62CHL1  H27B 5767   7.194   1.881   4.152 -0.6402  2.6106  1.3048
   62CHL1  H27C 5768   7.177   1.969   3.998 -1.2917 -0.0024 -0.7302
   63CHL1    C3 5769   2.434   6.533   3.055  0.2736 -0.2002  0.5447
   63CHL1    H3 5770   2.538   6.494   3.055 -1.1431 -4.5171 -0.0707
   63CHL1    O3 5771   2.401   6.560   2.918 -0.2059 -0.1526 -0.3397
   63CHL1   H3' 5772   2.311   6.593   2.915 -0.0006  0.3508 -1.7178
   63CHL1    C4 5773   2.339   6.428   3.124 -0.2528 -0.1825  0.5467
   63CHL1   H4A 5774   2.238   6.473   3.129  0.0872  0.9560 -1.5515
   63CHL1   H4B 5775   2.330   6.334   3.065  0.1282  0.4630 -0.5710
   63CHL1    C5 5776   2.385   6.394   3.272 -0.3598  0.0120  0.7974
   63CHL1    C6 5777   2.423   6.275   3.305  0.4658  0.0174 -0.1559
   63CHL1    H6 5778   2.415   6.193   3.232 -0.7954 -0.0178 -0.0008
   63CHL1    C7 5779   2.475   6.249   3.446 -0.4852  0.2268 -0.2568
   63CHL1   H7A 5780   2.450   6.148   3.485  0.8936  1.2764  3.8064
   63CHL1   H7B 5781   2.585   6.256   3.435 -0.3738  0.1358  0.7231
   63CHL1    C8 5782   2.441   6.353   3.549  0.0957  0.6975  0.4142
   63CHL1    H8 5783   2.331   6.342   3.559  0.1270 -1.4545 -0.9262
   63CHL1   C14 5784   2.514   6.332   3.682 -0.7001 -0.2423  0.2219
   63CHL1   H14 5785   2.623   6.332   3.664 -0.6042 -0.3800  0.7871
   63CHL1   C15 5786   2.492   6.198   3.756 -0.1940 -0.0086  0.0701
   63CHL1  H15A 5787   2.385   6.170   3.750 -0.2046 -0.0089  0.2732
   63CHL1  H15B 5788   2.560   6.119   3.717  0.8934  1.7038 -1.7339
   63CHL1   C16 5789   2.519   6.240   3.898 -0.1297 -0.0826 -0.4616
   63CHL1  H16A 5790   2.429   6.213   3.958  0.4572  1.1622  1.0532
   63CHL1  H16B 5791   2.600   6.176   3.940  0.7651 -0.1042 -2.1500
   63CHL1   C17 5792   2.560   6.383   3.911  0.1652  0.4643  0.3197
   63CHL1   H17 5793   2.668   6.392   3.889  0.1692 -1.2461 -0.5105
   63CHL1   C13 5794   2.486   6.439   3.785 -0.4768 -0.3940 -0.5434
   63CHL1   C18 5795   2.336   6.456   3.819  0.3962  0.6023 -0.0768
   63CHL1  H18A 5796   2.328   6.527   3.905 -2.6130  0.2841  0.0100
   63CHL1  H18B 5797   2.272   6.493   3.736  0.5804  0.5568 -0.2405
   63CHL1  H18C 5798   2.303   6.358   3.859  2.3614  0.6311  1.8309
   63CHL1   C12 5799   2.539   6.576   3.733  0.4648  0.7196 -0.4225
   63CHL1  H12A 5800   2.517   6.653   3.811 -1.5491  1.4224 -1.5900
   63CHL1  H12B 5801   2.649   6.573   3.722  0.4910 -1.0822  0.0484
   63CHL1   C11 5802   2.474   6.612   3.600 -0.2867  1.1261  0.1921
   63CHL1  H11A 5803   2.372   6.646   3.627 -0.3361 -0.2062  1.8508
   63CHL1  H11B 5804   2.530   6.700   3.561 -1.8099  2.0670  0.0546
   63CHL1    C9 5805   2.480   6.497   3.492  0.0445  0.5849  0.4059
   63CHL1    H9 5806   2.587   6.496   3.464 -0.1161  0.1253 -0.2158
   63CHL1   C10 5807   2.399   6.521   3.360 -0.1083 -0.0501 -0.1532
   63CHL1   C19 5808   2.249   6.559   3.391 -0.2817  1.0562  0.5185
   63CHL1  H19A 5809   2.189   6.564   3.298 -0.5437 -1.4283  0.5001
   63CHL1  H19B 5810   2.206   6.485   3.462 -1.2143  2.1696  1.1484
   63CHL1  H19C 5811   2.249   6.662   3.434 -0.0183  2.2578 -2.1394
   63CHL1    C1 5812   2.482   6.632   3.283 -0.0859 -0.0885 -0.5260
   63CHL1   H1A 5813   2.470   6.724   3.345 -1.7219 -1.7091  1.7380
   63CHL1   H1B 5814   2.590   6.608   3.286  0.0106  0.4034  2.3714
   63CHL1    C2 5815   2.439   6.662   3.144 -0.2575 -0.6030 -0.3909
   63CHL1   H2A 5816   2.497   6.743   3.095 -0.9466 -0.1876 -0.5362
   63CHL1   H2B 5817   2.335   6.700   3.138  0.0227  0.3176  0.4225
   63CHL1   C20 5818   2.548   6.433   4.051 -0.4748  0.5599 -0.0868
   63CHL1   H20 5819   2.451   6.483   4.069 -1.5510 -1.5946  0.3962
   63CHL1   C21 5820   2.646   6.549   4.077 -0.2597  0.1910  0.0407
   63CHL1  H21A 5821   2.611   6.617   4.157 -0.7040 -0.6669  0.5967
   63CHL1  H21B 5822   2.654   6.619   3.991  3.1501 -0.5782 -0.4385
   63CHL1  H21C 5823   2.747   6.507   4.101  0.2081  0.4582 -1.3973
   63CHL1   C22 5824   2.559   6.324   4.171 -0.1045 -0.2919  0.0416
   63CHL1  H22A 5825   2.472   6.256   4.157  0.2690 -1.4036  2.5878
   63CHL1  H22B 5826   2.654   6.267   4.165  0.3823  0.2616  1.9242
   63CHL1   C23 5827   2.548   6.389   4.314 -0.4386 -0.2267  0.1524
   63CHL1  H23A 5828   2.643   6.440   4.342 -0.9165  0.9059 -0.2391
   63CHL1  H23B 5829   2.474   6.471   4.315  0.0433  0.2394 -1.0253
   63CHL1   C24 5830   2.521   6.280   4.422  0.6789  0.3892  0.3976
   63CHL1  H24A 5831   2.427   6.231   4.388  1.5253 -0.4375 -0.8276
   63CHL1  H24B 5832   2.602   6.205   4.413 -0.0654 -0.3076 -0.8024
   63CHL1   C25 5833   2.507   6.335   4.564  0.6783 -0.1235  0.0095
   63CHL1   H25 5834   2.456   6.433   4.565  3.2885  1.3902 -1.6832
   63CHL1   C26 5835   2.430   6.241   4.668  0.4698 -0.4196 -0.3088
   63CHL1  H26A 5836   2.437   6.290   4.768  1.1517  0.4717 -0.7794
   63CHL1  H26B 5837   2.322   6.234   4.645 -0.0453  1.6130  1.1588
   63CHL1  H26C 5838   2.474   6.139   4.663  0.8852 -0.2140 -0.9188
   63CHL1   C27 5839   2.646   6.353   4.622  0.1077  0.1836  0.1831
   63CHL1  H27A 5840   2.698   6.443   4.583  0.4327 -0.5927 -1.2207
   63CHL1  H27B 5841   2.636   6.365   4.732  1.1572 -0.0055  0.3121
   63CHL1  H27C 5842   2.714   6.267   4.603 -1.8369 -1.9983  2.4366
   64CHL1    C3 5843   0.196   4.138   2.214 -0.6752 -0.2438  0.1836
   64CHL1    H3 5844   0.138   4.228   2.246  0.8743  0.2208  1.8572
   64CHL1    O3 5845   0.193   4.118   2.072  0.4979  0.0942 -0.1669
   64CHL1   H3' 5846   0.101   4.145   2.059  0.4486 -0.1536 -0.3416
   64CHL1    C4 5847   0.341   4.177   2.245 -1.1441 -0.3028  0.2511
   64CHL1   H4A 5848   0.410   4.094   2.217  1.7369  1.5097  1.4621
   64CHL1   H4B 5849   0.365   4.267   2.184 -1.1193 -1.0249 -0.8329
   64CHL1    C5 5850   0.352   4.202   2.395  0.9691 -0.0257 -0.2307
   64CHL1    C6 5851   0.404   4.313   2.446 -0.4194  0.3205 -0.1987
   64CHL1    H6 5852   0.434   4.393   2.377  0.5311  1.3743  1.3868
   64CHL1    C7 5853   0.441   4.331   2.593 -0.3862  0.2793  0.1755
   64CHL1   H7A 5854   0.549   4.357   2.593  0.0161 -1.0339 -2.6031
   64CHL1   H7B 5855   0.377   4.407   2.643 -2.9062 -1.8756  0.4701
   64CHL1    C8 5856   0.422   4.198   2.675  0.3101 -0.3669  0.2690
   64CHL1    H8 5857   0.516   4.142   2.655  0.4935  0.4302 -1.2629
   64CHL1   C14 5858   0.419   4.238   2.821 -0.3484 -0.3676  0.4641
   64CHL1   H14 5859   0.332   4.305   2.838 -0.5040 -0.4714  0.0891
   64CHL1   C15 5860   0.542   4.315   2.878  0.1335 -0.4468 -0.0645
   64CHL1  H15A 5861   0.636   4.257   2.867  0.5775  0.3295 -0.4629
   64CHL1  H15B 5862   0.549   4.423   2.852 -0.3781  0.2143  2.2592
   64CHL1   C16 5863   0.504   4.314   3.029  0.2282  0.0352 -0.5935
   64CHL1  H16A 5864   0.596   4.313   3.092 -0.0407  0.6255 -0.1903
   64CHL1  H16B 5865   0.448   4.404   3.061 -2.3838 -1.2805 -1.1769
   64CHL1   C17 5866   0.402   4.203   3.051  0.4641 -0.6611 -0.0535
   64CHL1   H17 5867   0.308   4.262   3.054  0.9742  0.3143 -1.9657
   64CHL1   C13 5868   0.401   4.123   2.917 -0.2739  0.0312 -0.6936
   64CHL1   C18 5869   0.517   4.018   2.915  0.1042 -0.1353  0.1073
   64CHL1  H18A 5870   0.498   3.944   2.995 -0.3197  0.9274  1.0177
   64CHL1  H18B 5871   0.512   3.967   2.816 -0.0316 -0.4846  0.2937
   64CHL1  H18C 5872   0.617   4.062   2.937  0.7468 -1.0959 -0.7902
   64CHL1   C12 5873   0.273   4.046   2.877 -0.2588 -0.4962 -1.0779
   64CHL1  H12A 5874   0.266   3.956   2.942 -1.3222 -0.1726 -0.7169
   64CHL1  H12B 5875   0.190   4.119   2.890  0.4315 -0.1701  2.5692
   64CHL1   C11 5876   0.262   4.000   2.729 -0.0988 -0.3593 -1.4099
   64CHL1  H11A 5877   0.342   3.922   2.736 -1.1101 -1.2692  4.1790
   64CHL1  H11B 5878   0.163   3.954   2.712  0.3137 -1.6226 -0.5431
   64CHL1    C9 5879   0.302   4.116   2.632  0.1776 -0.2118 -0.6048
   64CHL1    H9 5880   0.220   4.190   2.643 -2.2809 -2.8266  0.2499
   64CHL1   C10 5881   0.307   4.077   2.480  0.2037  0.1277 -0.4498
   64CHL1   C19 5882   0.405   3.956   2.463 -0.4148  0.2524  0.3738
   64CHL1  H19A 5883   0.435   3.929   2.359  3.2026 -1.2684  1.6455
   64CHL1  H19B 5884   0.495   3.971   2.526  0.3780 -0.9333 -0.4210
   64CHL1  H19C 5885   0.355   3.865   2.504  1.4166  0.3392  3.0279
   64CHL1    C1 5886   0.163   4.031   2.439  0.0661 -0.2203  0.5299
   64CHL1   H1A 5887   0.142   3.930   2.479 -1.4229 -0.5491 -1.0000
   64CHL1   H1B 5888   0.090   4.107   2.476  0.4813  0.5440 -0.1947
   64CHL1    C2 5889   0.144   4.015   2.287  0.4713  0.2978 -0.5255
   64CHL1   H2A 5890   0.041   3.979   2.265  1.0872 -2.1865  0.3182
   64CHL1   H2B 5891   0.201   3.931   2.241  0.2675  0.3326 -0.8489
   64CHL1   C20 5892   0.421   4.130   3.190  0.2855  0.7213  0.4702
   64CHL1   H20 5893   0.521   4.080   3.195  0.0704  0.0879 -1.0909
   64CHL1   C21 5894   0.312   4.020   3.199  0.2556  0.2495 -0.3735
   64CHL1  H21A 5895   0.310   3.976   3.301 -1.0528 -1.7983 -1.2244
   64CHL1  H21B 5896   0.335   3.937   3.128  2.5015  0.6904 -0.2310
   64CHL1  H21C 5897   0.207   4.053   3.184 -0.0728  0.7925  2.6469
   64CHL1   C22 5898   0.406   4.231   3.305 -0.0038 -0.1222 -0.0445
   64CHL1  H22A 5899   0.470   4.322   3.297 -0.9586  0.9764  3.0736
   64CHL1  H22B 5900   0.301   4.268   3.295  0.3876  0.7058 -1.2287
   64CHL1   C23 5901   0.429   4.174   3.448 -0.7168  0.0308  0.0190
   64CHL1  H23A 5902   0.348   4.100   3.465 -0.8377 -0.2423 -1.5806
   64CHL1  H23B 5903   0.529   4.124   3.448  0.2274  1.8273 -0.3987
   64CHL1   C24 5904   0.440   4.293   3.547  0.3460  0.0660  0.1836
   64CHL1  H24A 5905   0.498   4.253   3.633  1.4424  0.1478 -0.4968
   64CHL1  H24B 5906   0.506   4.374   3.508 -0.2745  0.9315  0.8910
   64CHL1   C25 5907   0.308   4.361   3.588  0.1109  0.3381 -0.1208
   64CHL1   H25 5908   0.269   4.409   3.496 -1.8025  0.5390  0.7463
   64CHL1   C26 5909   0.200   4.252   3.625  0.4698  0.5260  0.6817
   64CHL1  H26A 5910   0.173   4.184   3.540  0.4447  1.4221 -0.0401
   64CHL1  H26B 5911   0.239   4.186   3.705  2.7012 -0.0693 -0.8219
   64CHL1  H26C 5912   0.098   4.286   3.655  0.3202 -0.6034  1.5483
   64CHL1   C27 5913   0.336   4.473   3.696 -0.1420 -0.6627  0.1536
   64CHL1  H27A 5914   0.247   4.530   3.730 -0.4017 -1.1753  0.3467
   64CHL1  H27B 5915   0.385   4.422   3.782  0.7608  0.4014  0.2876
   64CHL1  H27C 5916   0.405   4.550   3.654 -0.4372 -0.5576 -0.1354
   65CHL1    C3 5917   1.041   1.234   2.482 -0.0483  0.2228  0.3379
   65CHL1    H3 5918   1.129   1.302   2.489  0.2969 -0.2555  0.7455
   65CHL1    O3 5919   1.002   1.233   2.343 -0.1444  0.4231 -0.6828
   65CHL1   H3' 5920   1.083   1.256   2.297  0.8500 -1.1264  0.2232
   65CHL1    C4 5921   1.075   1.095   2.528  0.1135 -0.0896 -0.4983
   65CHL1   H4A 5922   0.989   1.030   2.501  0.4963 -0.2279 -1.4382
   65CHL1   H4B 5923   1.164   1.066   2.467  0.8623  1.1891 -0.0667
   65CHL1    C5 5924   1.110   1.086   2.682  0.2243  0.3145 -0.2212
   65CHL1    C6 5925   1.231   1.046   2.734  0.5088 -0.4430 -0.3098
   65CHL1    H6 5926   1.304   1.012   2.659 -2.9295 -1.3438 -3.5113
   65CHL1    C7 5927   1.262   1.036   2.879  0.2986  0.5784 -1.1486
   65CHL1   H7A 5928   1.302   0.933   2.892 -2.4848 -0.4206  0.3273
   65CHL1   H7B 5929   1.338   1.110   2.911  0.2579 -0.0883  0.5837
   65CHL1    C8 5930   1.132   1.062   2.968  0.6582  0.1355 -0.2752
   65CHL1    H8 5931   1.077   0.966   2.959 -3.6344  2.2943  0.2228
   65CHL1   C14 5932   1.176   1.088   3.107 -0.1343  0.0110 -0.1010
   65CHL1   H14 5933   1.226   1.187   3.100 -1.1954  0.6180  0.6067
   65CHL1   C15 5934   1.282   1.010   3.190  0.4910  0.9186 -0.4168
   65CHL1  H15A 5935   1.247   0.905   3.198  0.3850  0.6480 -3.3312
   65CHL1  H15B 5936   1.381   1.014   3.141 -0.5626  0.4303 -2.7393
   65CHL1   C16 5937   1.274   1.081   3.325 -0.3621  0.0628  0.2074
   65CHL1  H16A 5938   1.288   1.011   3.409  0.0480  0.7663  0.7349
   65CHL1  H16B 5939   1.347   1.165   3.329 -1.5925  1.3719 -1.9227
   65CHL1   C17 5940   1.146   1.158   3.335 -0.4489 -0.3716 -0.0083
   65CHL1   H17 5941   1.173   1.262   3.310 -1.2514 -0.2270 -0.3265
   65CHL1   C13 5942   1.065   1.122   3.209  0.7030  0.0066  0.0296
   65CHL1   C18 5943   0.974   0.993   3.228 -0.0070  0.3006  0.1838
   65CHL1  H18A 5944   0.900   1.018   3.308  0.4220  2.6290 -0.0551
   65CHL1  H18B 5945   0.926   0.958   3.134 -0.4345  3.2646 -0.8357
   65CHL1  H18C 5946   1.030   0.912   3.278 -3.5519 -1.4931  1.6391
   65CHL1   C12 5947   0.970   1.237   3.159  1.0982  0.3148 -0.1274
   65CHL1  H12A 5948   0.876   1.253   3.215 -0.0379  0.7365 -2.0639
   65CHL1  H12B 5949   1.028   1.331   3.148  0.8384  0.2960 -2.0711
   65CHL1   C11 5950   0.923   1.204   3.014 -0.0097  0.2620 -0.1215
   65CHL1  H11A 5951   0.856   1.115   3.015 -1.2959  1.2039  0.2171
   65CHL1  H11B 5952   0.860   1.290   2.983 -2.2274 -0.3917  2.1850
   65CHL1    C9 5953   1.043   1.176   2.913 -0.6413 -0.0034  0.4046
   65CHL1    H9 5954   1.107   1.267   2.906  3.3170 -2.5220  0.9148
   65CHL1   C10 5955   0.998   1.147   2.774 -0.4211  0.3342  0.9343
   65CHL1   C19 5956   0.876   1.055   2.770 -0.0723 -0.9843 -0.0469
   65CHL1  H19A 5957   0.902   0.964   2.829 -0.5259  0.1082  1.9125
   65CHL1  H19B 5958   0.779   1.083   2.816  0.2045  0.4055 -0.2626
   65CHL1  H19C 5959   0.850   1.021   2.667  1.9157 -1.4384 -0.4508
   65CHL1    C1 5960   0.953   1.286   2.713  0.2940  0.5390  0.6476
   65CHL1   H1A 5961   0.859   1.316   2.765 -1.0516 -2.3262  0.0355
   65CHL1   H1B 5962   1.039   1.356   2.724 -1.7746  3.9231 -2.4592
   65CHL1    C2 5963   0.927   1.283   2.557  0.1813 -0.1961 -0.8520
   65CHL1   H2A 5964   0.902   1.383   2.516  1.0541 -0.1285 -1.2346
   65CHL1   H2B 5965   0.845   1.209   2.543 -0.9734  0.9352 -0.2952
   65CHL1   C20 5966   1.073   1.165   3.468  1.3342 -0.0333  0.4288
   65CHL1   H20 5967   0.969   1.194   3.443  1.6463  4.1288  2.9991
   65CHL1   C21 5968   1.136   1.285   3.546  0.0336  0.1091  0.5457
   65CHL1  H21A 5969   1.071   1.291   3.636  0.8778 -0.4024  1.2140
   65CHL1  H21B 5970   1.142   1.376   3.483  2.5515  1.2148  2.2206
   65CHL1  H21C 5971   1.240   1.259   3.574  0.0662 -0.3537  0.0211
   65CHL1   C22 5972   1.069   1.039   3.551  0.7748  0.0429  0.1135
   65CHL1  H22A 5973   1.063   0.948   3.487 -0.1568 -0.1480  0.4452
   65CHL1  H22B 5974   1.162   1.015   3.607  2.5327  0.0017 -2.6430
   65CHL1   C23 5975   0.945   1.016   3.648  0.0675 -0.7527  0.0581
   65CHL1  H23A 5976   0.943   1.108   3.710  0.0554 -1.2266  0.7727
   65CHL1  H23B 5977   0.849   1.017   3.592  0.1250  2.0132 -0.1418
   65CHL1   C24 5978   0.948   0.889   3.737  0.0942  0.4249  0.5267
   65CHL1  H24A 5979   0.976   0.801   3.675 -0.7955  1.3731 -1.2952
   65CHL1  H24B 5980   1.016   0.886   3.825  1.5928  0.2258 -0.5975
   65CHL1   C25 5981   0.807   0.861   3.796 -0.2276  0.4756  0.2775
   65CHL1   H25 5982   0.732   0.862   3.714  1.2704  2.4861 -1.2104
   65CHL1   C26 5983   0.790   0.718   3.850  0.1544  0.7081 -0.3601
   65CHL1  H26A 5984   0.853   0.708   3.941 -0.4217 -1.2714 -0.1281
   65CHL1  H26B 5985   0.688   0.689   3.885  0.9223 -1.8730 -0.0306
   65CHL1  H26C 5986   0.827   0.650   3.771  0.7355 -0.6353  1.0159
   65CHL1   C27 5987   0.772   0.971   3.889  0.6678  0.7336  0.3446
   65CHL1  H27A 5988   0.782   1.073   3.844  2.3428  0.2137 -0.5738
   65CHL1  H27B 5989   0.672   0.955   3.933  0.3245  0.6760 -0.4381
   65CHL1  H27C 5990   0.851   0.966   3.967  1.0923 -1.3406 -0.1477
   66CHL1    C3 5991   4.093   1.660   2.798  0.3355  0.3429 -0.4686
   66CHL1    H3 5992   4.191   1.635   2.845 -0.1624  1.6389  1.3741
   66CHL1    O3 5993   4.080   1.602   2.670 -0.3586 -0.6827  0.7443
   66CHL1   H3' 5994   3.987   1.616   2.650  0.1638 -1.2008 -2.5651
   66CHL1    C4 5995   3.980   1.600   2.887 -0.1859  0.3050 -1.0038
   66CHL1   H4A 5996   3.881   1.618   2.839 -0.6653  0.3868 -0.0132
   66CHL1   H4B 5997   3.989   1.489   2.897  1.0486  0.4566 -0.2107
   66CHL1    C5 5998   3.985   1.655   3.029 -0.2234 -0.3547  0.0290
   66CHL1    C6 5999   4.014   1.572   3.131 -0.1628  0.1011  0.0788
   66CHL1    H6 6000   4.020   1.463   3.119 -0.4293  0.3188 -2.5610
   66CHL1    C7 6001   4.017   1.618   3.275  0.1855 -1.0259  0.0262
   66CHL1   H7A 6002   3.958   1.554   3.344 -0.1011  0.8941  1.6304
   66CHL1   H7B 6003   4.125   1.620   3.301  0.2447  1.8103 -0.1593
   66CHL1    C8 6004   3.950   1.759   3.286  0.4035  0.3591  0.1253
   66CHL1    H8 6005   3.844   1.747   3.257  1.2781  0.2729 -3.4853
   66CHL1   C14 6006   3.962   1.814   3.430  0.9712 -0.6131 -0.8075
   66CHL1   H14 6007   4.069   1.836   3.454 -0.0765  2.1169  2.1234
   66CHL1   C15 6008   3.923   1.718   3.543  0.0613  0.5914 -0.1577
   66CHL1  H15A 6009   3.835   1.651   3.526 -1.4297  2.4166  0.0719
   66CHL1  H15B 6010   4.008   1.660   3.585 -0.1150 -1.1798 -2.0830
   66CHL1   C16 6011   3.881   1.821   3.656  0.2598  0.0534  0.3477
   66CHL1  H16A 6012   3.787   1.777   3.694  0.9442 -0.7421  1.1660
   66CHL1  H16B 6013   3.953   1.802   3.739  0.3351 -1.4140 -0.0302
   66CHL1   C17 6014   3.899   1.965   3.605 -0.3534 -0.2927 -0.0717
   66CHL1   H17 6015   4.004   1.998   3.625 -0.1082 -0.9470 -0.2385
   66CHL1   C13 6016   3.887   1.948   3.448  0.1813  0.1985 -1.0999
   66CHL1   C18 6017   3.740   1.941   3.412  0.5546  0.0999  0.1881
   66CHL1  H18A 6018   3.689   1.882   3.491  0.1296 -1.0648 -0.9251
   66CHL1  H18B 6019   3.691   2.041   3.411 -1.8214 -1.0000  0.0873
   66CHL1  H18C 6020   3.724   1.895   3.312  0.6978  0.2996  0.0728
   66CHL1   C12 6021   3.960   2.042   3.360 -0.1278 -0.3504  0.2883
   66CHL1  H12A 6022   3.908   2.141   3.361  0.8289  0.1694  1.9567
   66CHL1  H12B 6023   4.067   2.052   3.388 -0.4956 -0.3984  1.8039
   66CHL1   C11 6024   3.970   2.001   3.214 -0.4358 -0.4933 -0.3623
   66CHL1  H11A 6025   3.871   2.021   3.169 -0.7890  0.2563  0.7095
   66CHL1  H11B 6026   4.039   2.073   3.166 -1.8164 -0.0745 -1.7703
   66CHL1    C9 6027   4.007   1.855   3.185 -0.4935 -0.3619  0.2556
   66CHL1    H9 6028   4.116   1.849   3.206 -0.4199 -1.5948 -0.3895
   66CHL1   C10 6029   3.977   1.805   3.043 -0.4363 -0.3056  1.0877
   66CHL1   C19 6030   3.833   1.835   3.004 -0.7293 -0.4835  0.5797
   66CHL1  H19A 6031   3.752   1.793   3.068 -0.2234 -0.3532  1.3283
   66CHL1  H19B 6032   3.807   1.943   3.000  0.1422 -0.3127 -0.9679
   66CHL1  H19C 6033   3.811   1.812   2.898  1.4095  1.4337 -0.3582
   66CHL1    C1 6034   4.069   1.877   2.932  0.1887 -0.2970 -0.1217
   66CHL1   H1A 6035   4.039   1.983   2.927 -1.4069 -0.5404  2.5115
   66CHL1   H1B 6036   4.170   1.867   2.978 -1.0898 -1.0506  2.7351
   66CHL1    C2 6037   4.068   1.815   2.788 -0.9203  0.8633  0.2180
   66CHL1   H2A 6038   4.129   1.873   2.716  0.0929  1.6759  1.6732
   66CHL1   H2B 6039   3.965   1.831   2.749  0.4131  2.1359 -3.1995
   66CHL1   C20 6040   3.814   2.065   3.683  0.0769 -0.0747 -0.3999
   66CHL1   H20 6041   3.704   2.051   3.671  0.0053 -0.5782  0.7389
   66CHL1   C21 6042   3.850   2.212   3.636 -0.4577 -0.2667  0.5584
   66CHL1  H21A 6043   3.799   2.289   3.699  0.5694  3.1047 -2.4206
   66CHL1  H21B 6044   3.824   2.224   3.529  2.8968  1.2585 -0.1893
   66CHL1  H21C 6045   3.959   2.230   3.639 -0.4351 -0.4399  0.8020
   66CHL1   C22 6046   3.815   2.065   3.838 -0.6219 -0.3636 -0.8979
   66CHL1  H22A 6047   3.826   1.957   3.865  0.2652 -0.8713 -3.0649
   66CHL1  H22B 6048   3.909   2.111   3.874 -0.3965 -1.1004 -0.5205
   66CHL1   C23 6049   3.697   2.133   3.894 -0.3101 -0.7436  0.0490
   66CHL1  H23A 6050   3.689   2.239   3.862 -1.3178 -0.2870  1.6692
   66CHL1  H23B 6051   3.605   2.086   3.853  1.0807 -2.2570 -1.5055
   66CHL1   C24 6052   3.688   2.136   4.046 -0.3733 -0.4098  0.0607
   66CHL1  H24A 6053   3.706   2.040   4.098  1.6362  1.3135  2.8940
   66CHL1  H24B 6054   3.768   2.210   4.066 -0.5998  0.3086 -1.5378
   66CHL1   C25 6055   3.558   2.186   4.115  0.3694 -0.6036 -0.2476
   66CHL1   H25 6056   3.536   2.287   4.075  0.4639 -1.3734 -2.3835
   66CHL1   C26 6057   3.444   2.093   4.086 -1.1956  0.6408  0.4289
   66CHL1  H26A 6058   3.351   2.153   4.093 -0.7705  1.4006 -0.2936
   66CHL1  H26B 6059   3.450   2.048   3.984  0.2455 -0.4079  0.9555
   66CHL1  H26C 6060   3.447   2.009   4.158 -0.3731 -0.0505 -0.3872
   66CHL1   C27 6061   3.567   2.196   4.268  0.0804 -0.3462  0.5544
   66CHL1  H27A 6062   3.623   2.279   4.317 -2.2342  2.1648 -0.7601
   66CHL1  H27B 6063   3.593   2.097   4.312 -1.3817 -1.5880 -1.2302
   66CHL1  H27C 6064   3.466   2.228   4.301 -2.6135 -2.3682 -4.5936
   67CHL1    C3 6065   2.385   2.001   2.716  0.5563 -0.6598 -0.0475
   67CHL1    H3 6066   2.473   1.961   2.771  0.8271 -0.8683 -0.6167
   67CHL1    O3 6067   2.386   1.968   2.578  0.1110 -0.2285  0.2926
   67CHL1   H3' 6068   2.311   2.009   2.533  0.6620 -2.9029 -3.5561
   67CHL1    C4 6069   2.245   1.954   2.772 -0.7698 -0.8037  0.5318
   67CHL1   H4A 6070   2.168   2.015   2.721 -0.9165  0.4443  2.1528
   67CHL1   H4B 6071   2.239   1.849   2.737 -0.8530  0.1225 -2.4498
   67CHL1    C5 6072   2.232   1.993   2.917  0.5269  0.1389 -0.2836
   67CHL1    C6 6073   2.199   1.908   3.013 -0.7476 -0.3206  0.8211
   67CHL1    H6 6074   2.203   1.801   2.986 -1.3768  0.1834 -1.5053
   67CHL1    C7 6075   2.160   1.944   3.154 -0.5990  0.3215  0.3095
   67CHL1   H7A 6076   2.068   1.893   3.189 -0.3691 -0.8776 -0.7519
   67CHL1   H7B 6077   2.248   1.920   3.217  1.3026  3.2045 -1.0493
   67CHL1    C8 6078   2.138   2.092   3.176 -1.3445 -0.2577  0.1214
   67CHL1    H8 6079   2.037   2.128   3.146 -0.6619  1.8904  0.2796
   67CHL1   C14 6080   2.157   2.122   3.324  0.2172  0.5705  0.1869
   67CHL1   H14 6081   2.261   2.091   3.351 -0.7269 -1.4304  1.7832
   67CHL1   C15 6082   2.072   2.038   3.423 -0.3768  0.3406  0.1592
   67CHL1  H15A 6083   1.971   2.042   3.376  0.0068 -0.0692 -0.7310
   67CHL1  H15B 6084   2.101   1.931   3.421 -2.3191 -0.2564  1.1467
   67CHL1   C16 6085   2.078   2.111   3.558  0.1261  0.8460  0.0618
   67CHL1  H16A 6086   1.980   2.145   3.597 -0.2838  2.8061 -2.3955
   67CHL1  H16B 6087   2.139   2.055   3.632 -0.4292  0.3012  0.1164
   67CHL1   C17 6088   2.146   2.247   3.519 -0.8968  0.0853 -0.5878
   67CHL1   H17 6089   2.254   2.224   3.534 -0.6014  1.7317 -0.0203
   67CHL1   C13 6090   2.138   2.268   3.369  0.3009 -0.2061  0.7059
   67CHL1   C18 6091   1.993   2.314   3.327 -0.0638  0.2627  0.1410
   67CHL1  H18A 6092   1.923   2.260   3.394 -0.9909  0.0329 -0.9844
   67CHL1  H18B 6093   1.975   2.421   3.352  1.0042  0.7335 -0.9591
   67CHL1  H18C 6094   1.971   2.310   3.218  0.6924 -1.0616  0.0202
   67CHL1   C12 6095   2.251   2.347   3.294  0.3543  1.0189  0.1989
   67CHL1  H12A 6096   2.235   2.456   3.309 -1.6704  0.5893  1.5189
   67CHL1  H12B 6097   2.347   2.323   3.344 -0.2963  1.2411  1.6034
   67CHL1   C11 6098   2.243   2.320   3.147  0.7623 -0.2226  0.8042
   67CHL1  H11A 6099   2.167   2.383   3.096 -0.0135  1.0993  3.4118
   67CHL1  H11B 6100   2.337   2.368   3.111  1.1191 -0.8189  0.9305
   67CHL1    C9 6101   2.240   2.171   3.102  0.5523  0.2142 -0.0805
   67CHL1    H9 6102   2.335   2.127   3.138  0.9975  1.3556  0.1537
   67CHL1   C10 6103   2.243   2.145   2.944 -0.3703 -0.0707 -0.8607
   67CHL1   C19 6104   2.133   2.235   2.883  0.3142  0.4815  0.8560
   67CHL1  H19A 6105   2.106   2.205   2.780 -0.0856 -0.4994  1.2352
   67CHL1  H19B 6106   2.040   2.220   2.941  0.2736  0.8315  0.8805
   67CHL1  H19C 6107   2.175   2.337   2.875  1.1738  0.1324  0.7950
   67CHL1    C1 6108   2.378   2.189   2.889 -0.0707 -0.3156  1.0903
   67CHL1   H1A 6109   2.404   2.295   2.911  1.3710 -0.4972  0.3769
   67CHL1   H1B 6110   2.460   2.126   2.930  0.0059 -2.6995 -2.2839
   67CHL1    C2 6111   2.401   2.156   2.742 -0.6042 -0.4645  0.2155
   67CHL1   H2A 6112   2.499   2.195   2.706 -0.8740 -1.7915 -2.1880
   67CHL1   H2B 6113   2.323   2.199   2.676  0.0804 -0.6074 -0.7076
   67CHL1   C20 6114   2.121   2.364   3.616 -0.1980  0.3566  0.5442
   67CHL1   H20 6115   2.014   2.387   3.599 -0.2462 -0.0552  0.2887
   67CHL1   C21 6116   2.199   2.489   3.580  0.9487  0.4746 -0.4927
   67CHL1  H21A 6117   2.178   2.531   3.479  0.4872  0.9645 -0.1921
   67CHL1  H21B 6118   2.307   2.462   3.585  0.4457 -1.4377  2.5701
   67CHL1  H21C 6119   2.176   2.576   3.644 -0.7905  1.2962 -2.1271
   67CHL1   C22 6120   2.130   2.343   3.773 -0.2474  0.9692  0.2158
   67CHL1  H22A 6121   2.092   2.242   3.797 -2.2038  1.5434 -0.3004
   67CHL1  H22B 6122   2.238   2.332   3.795 -0.0658 -1.1759 -1.4323
   67CHL1   C23 6123   2.054   2.448   3.861  0.0830  0.4415  0.2552
   67CHL1  H23A 6124   2.080   2.551   3.829  2.0240 -0.6744 -2.1186
   67CHL1  H23B 6125   1.945   2.441   3.841  0.2944 -1.5031 -0.4232
   67CHL1   C24 6126   2.096   2.442   4.012 -0.1994 -0.2658 -0.3437
   67CHL1  H24A 6127   2.066   2.341   4.047 -2.0408 -0.4679 -2.2684
   67CHL1  H24B 6128   2.207   2.450   4.013 -0.0631 -0.8250 -2.9548
   67CHL1   C25 6129   2.023   2.550   4.100  0.3270 -0.0604 -0.4683
   67CHL1   H25 6130   2.075   2.549   4.198 -3.0056  1.0372  1.5092
   67CHL1   C26 6131   2.055   2.696   4.054  0.4594  0.7943  0.1714
   67CHL1  H26A 6132   2.166   2.702   4.047  0.3742  3.7631 -0.3019
   67CHL1  H26B 6133   2.017   2.704   3.950  1.6710 -1.2876 -0.4950
   67CHL1  H26C 6134   2.020   2.771   4.128  0.5986  1.6430 -0.5995
   67CHL1   C27 6135   1.878   2.517   4.121  0.4008  0.2023 -0.0959
   67CHL1  H27A 6136   1.815   2.550   4.036 -0.0902  0.1038  0.2223
   67CHL1  H27B 6137   1.855   2.408   4.129  0.6439  0.2419  1.4531
   67CHL1  H27C 6138   1.836   2.567   4.210  0.9674  0.6789 -0.0936
   68CHL1    C3 6139   5.384   1.143   2.504 -0.0246 -0.9080 -0.5298
   68CHL1    H3 6140   5.482   1.192   2.524 -0.3949  0.3223 -1.5785
   68CHL1    O3 6141   5.372   1.130   2.365  0.4603  0.0756  0.1948
   68CHL1   H3' 6142   5.277   1.120   2.355  0.2991 -0.1015  1.7356
   68CHL1    C4 6143   5.388   1.012   2.586 -0.2470 -0.3578  0.1510
   68CHL1   H4A 6144   5.294   0.958   2.561 -0.5938  0.3502 -0.1198
   68CHL1   H4B 6145   5.475   0.961   2.541 -0.7454 -1.8133  0.7853
   68CHL1    C5 6146   5.393   1.028   2.733 -0.1280  0.7519 -0.2631
   68CHL1    C6 6147   5.487   0.967   2.810 -0.2421 -0.6514  0.3146
   68CHL1    H6 6148   5.562   0.898   2.769 -0.4277 -0.3159 -0.6238
   68CHL1    C7 6149   5.508   0.988   2.954  0.2020  0.3578 -0.1272
   68CHL1   H7A 6150   5.528   0.895   3.011  0.2712  0.2218 -0.3697
   68CHL1   H7B 6151   5.586   1.066   2.962  2.1447 -1.6241  1.6904
   68CHL1    C8 6152   5.385   1.060   3.015  0.4977 -0.5919 -0.1603
   68CHL1    H8 6153   5.298   0.991   3.025 -1.6142  2.1363  1.4982
   68CHL1   C14 6154   5.425   1.106   3.153 -0.8212 -0.3502 -0.5292
   68CHL1   H14 6155   5.499   1.188   3.143 -1.0677 -0.0101  0.3143
   68CHL1   C15 6156   5.498   1.011   3.253  0.5822  0.0503 -0.8514
   68CHL1  H15A 6157   5.444   0.914   3.250 -1.1858  1.0041 -2.1957
   68CHL1  H15B 6158   5.607   1.005   3.235  0.7160 -1.6352  0.2976
   68CHL1   C16 6159   5.464   1.065   3.396 -0.0509  0.4073  0.2871
   68CHL1  H16A 6160   5.397   1.001   3.457  1.8875 -0.8199  1.2292
   68CHL1  H16B 6161   5.550   1.076   3.466 -0.5931 -4.9915  2.2780
   68CHL1   C17 6162   5.385   1.201   3.372  0.7700  0.7661  0.3927
   68CHL1   H17 6163   5.449   1.288   3.344 -0.5975  1.6074 -0.2200
   68CHL1   C13 6164   5.309   1.171   3.235 -0.4980  0.1234 -0.3994
   68CHL1   C18 6165   5.203   1.072   3.273  0.5514  0.3936 -0.0863
   68CHL1  H18A 6166   5.134   1.054   3.188  1.7563  0.7864 -1.1760
   68CHL1  H18B 6167   5.245   0.976   3.308  1.2494 -0.5152 -3.1652
   68CHL1  H18C 6168   5.133   1.112   3.349 -1.8214 -1.4027 -1.1926
   68CHL1   C12 6169   5.250   1.294   3.166 -0.0456  0.4620 -0.5123
   68CHL1  H12A 6170   5.154   1.322   3.216 -0.4033  0.0953 -0.9800
   68CHL1  H12B 6171   5.319   1.379   3.181 -1.2301  1.0772  2.1140
   68CHL1   C11 6172   5.228   1.264   3.016  0.6209  0.3771  0.4123
   68CHL1  H11A 6173   5.129   1.216   3.003 -0.0782  1.6437  0.8115
   68CHL1  H11B 6174   5.218   1.355   2.952 -1.2408  0.3300  0.5768
   68CHL1    C9 6175   5.333   1.175   2.937  0.4611  0.4765 -0.5955
   68CHL1    H9 6176   5.422   1.241   2.933  0.0462  1.2065  1.0849
   68CHL1   C10 6177   5.294   1.135   2.792  0.3039 -0.2865 -0.7490
   68CHL1   C19 6178   5.154   1.070   2.794 -0.3211 -0.0362 -0.9657
   68CHL1  H19A 6179   5.153   0.994   2.874  1.9252  0.8050 -0.0561
   68CHL1  H19B 6180   5.079   1.146   2.824 -0.8224 -1.1338  0.6506
   68CHL1  H19C 6181   5.120   1.040   2.692  0.9771  1.6462 -1.9610
   68CHL1    C1 6182   5.289   1.265   2.705 -0.2139 -0.6415 -0.7061
   68CHL1   H1A 6183   5.219   1.342   2.747  1.2499  1.6747 -2.2751
   68CHL1   H1B 6184   5.390   1.311   2.712 -0.5235  0.2220 -1.6346
   68CHL1    C2 6185   5.270   1.232   2.561  0.2865 -0.7746 -0.0398
   68CHL1   H2A 6186   5.272   1.326   2.502  0.9495  0.6163  2.0810
   68CHL1   H2B 6187   5.173   1.183   2.536  0.3391 -1.6822  1.4246
   68CHL1   C20 6188   5.320   1.257   3.506  0.6962  0.4314  0.4117
   68CHL1   H20 6189   5.219   1.213   3.518  1.1704 -0.4645  1.2089
   68CHL1   C21 6190   5.306   1.407   3.491  0.0663 -0.5817 -0.0828
   68CHL1  H21A 6191   5.253   1.440   3.399  0.0116  0.1204  0.1945
   68CHL1  H21B 6192   5.406   1.455   3.493 -1.0498  2.0025 -1.2215
   68CHL1  H21C 6193   5.263   1.457   3.580 -0.4888 -1.6986  0.2977
   68CHL1   C22 6194   5.390   1.209   3.632  0.2910 -0.0922  0.2349
   68CHL1  H22A 6195   5.369   1.101   3.646 -1.9513  0.2696  0.0569
   68CHL1  H22B 6196   5.499   1.225   3.622  0.0825  0.6907 -0.9758
   68CHL1   C23 6197   5.342   1.278   3.761  0.2204 -0.2912 -0.1653
   68CHL1  H23A 6198   5.377   1.384   3.763 -2.3378  0.7037 -2.0852
   68CHL1  H23B 6199   5.231   1.279   3.755  0.2595 -1.4058 -1.4673
   68CHL1   C24 6200   5.371   1.206   3.898  0.0896  0.2133 -0.3720
   68CHL1  H24A 6201   5.346   1.101   3.872  0.3191  0.0647  0.0142
   68CHL1  H24B 6202   5.475   1.223   3.932  0.0634 -0.5831  0.1201
   68CHL1   C25 6203   5.280   1.256   4.013 -0.2440  0.9389 -0.4317
   68CHL1   H25 6204   5.179   1.263   3.968  0.2294 -3.6201 -2.7543
   68CHL1   C26 6205   5.277   1.151   4.132  0.2317  0.6180  0.2530
   68CHL1  H26A 6206   5.379   1.129   4.172  0.3180  0.9827  0.2346
   68CHL1  H26B 6207   5.200   1.170   4.210  0.2746  0.8053  0.2477
   68CHL1  H26C 6208   5.239   1.062   4.077  0.3682  1.0069 -0.4749
   68CHL1   C27 6209   5.320   1.393   4.061  0.0195 -0.2206 -0.0330
   68CHL1  H27A 6210   5.427   1.393   4.088  0.4071  2.8363 -1.1622
   68CHL1  H27B 6211   5.309   1.464   3.976 -1.0522 -2.8705 -2.2832
   68CHL1  H27C 6212   5.265   1.423   4.153  2.1622 -0.2451  1.3249
   69CHL1    C3 6213   4.679   0.416   2.663 -0.5711  0.2224 -0.1440
   69CHL1    H3 6214   4.788   0.401   2.674 -1.0244 -2.4112  1.8367
   69CHL1    O3 6215   4.651   0.400   2.523 -0.2183  0.3271 -0.2289
   69CHL1   H3' 6216   4.558   0.382   2.513 -0.2660  0.8491 -0.7639
   69CHL1    C4 6217   4.600   0.310   2.748  0.7598  0.6415  0.5879
   69CHL1   H4A 6218   4.492   0.315   2.722  1.3762 -1.0723 -2.8967
   69CHL1   H4B 6219   4.628   0.205   2.726 -1.8402 -0.2100  1.0047
   69CHL1    C5 6220   4.629   0.336   2.892  0.4664 -0.8196  0.1450
   69CHL1    C6 6221   4.671   0.237   2.973 -0.1300 -0.1992  0.5693
   69CHL1    H6 6222   4.678   0.133   2.937 -0.6222  0.0336 -0.2191
   69CHL1    C7 6223   4.711   0.250   3.116  0.1978  0.4029  0.0415
   69CHL1   H7A 6224   4.668   0.162   3.168 -1.1707 -0.2855 -2.1049
   69CHL1   H7B 6225   4.821   0.238   3.127 -0.0680 -4.7048 -0.4715
   69CHL1    C8 6226   4.659   0.390   3.177 -0.4322 -0.4157 -0.6149
   69CHL1    H8 6227   4.552   0.383   3.205  0.4190 -0.7137  3.1674
   69CHL1   C14 6228   4.723   0.409   3.313 -0.2213  0.9223 -0.1387
   69CHL1   H14 6229   4.831   0.410   3.287 -0.6094 -1.0754 -2.1676
   69CHL1   C15 6230   4.715   0.297   3.416 -0.1219  0.7528 -0.2009
   69CHL1  H15A 6231   4.610   0.261   3.426  0.0999  0.1156 -0.1651
   69CHL1  H15B 6232   4.784   0.212   3.401 -0.7386 -0.4827  3.0790
   69CHL1   C16 6233   4.746   0.374   3.548  0.5326  0.3153  0.3299
   69CHL1  H16A 6234   4.664   0.354   3.620  0.6160 -0.9917  0.0910
   69CHL1  H16B 6235   4.839   0.342   3.599  0.4044 -0.3238  0.1801
   69CHL1   C17 6236   4.746   0.529   3.516 -0.4515  0.7484 -0.3481
   69CHL1   H17 6237   4.854   0.534   3.490 -0.0501 -2.0495  0.4722
   69CHL1   C13 6238   4.683   0.541   3.376  0.1195  0.3316  0.4200
   69CHL1   C18 6239   4.536   0.547   3.396  0.6141  0.5962 -0.0508
   69CHL1  H18A 6240   4.509   0.644   3.443 -0.3157  0.4965 -0.3529
   69CHL1  H18B 6241   4.491   0.546   3.295  0.9829  0.3067 -0.2130
   69CHL1  H18C 6242   4.501   0.461   3.456 -0.1370  0.6098 -0.4523
   69CHL1   C12 6243   4.726   0.664   3.295 -0.0196  0.3016  0.3837
   69CHL1  H12A 6244   4.680   0.746   3.355 -0.3495 -0.4954  1.2336
   69CHL1  H12B 6245   4.834   0.689   3.299  0.0859  0.2116 -1.1455
   69CHL1   C11 6246   4.677   0.652   3.146 -0.3212  0.6581 -0.3838
   69CHL1  H11A 6247   4.569   0.679   3.144 -0.5023  0.0708  0.6722
   69CHL1  H11B 6248   4.728   0.728   3.084  3.4234 -2.3096 -1.3307
   69CHL1    C9 6249   4.698   0.515   3.086  0.3424 -0.4023 -0.7191
   69CHL1    H9 6250   4.808   0.511   3.068  0.7371 -0.5715  1.4886
   69CHL1   C10 6251   4.616   0.490   2.945 -0.1033 -0.3981 -0.0213
   69CHL1   C19 6252   4.463   0.522   2.961 -0.0513  0.1941  0.3866
   69CHL1  H19A 6253   4.405   0.438   3.006 -0.4001 -0.8504 -1.8556
   69CHL1  H19B 6254   4.443   0.620   3.009  1.0095  0.0704  1.1145
   69CHL1  H19C 6255   4.416   0.525   2.861 -0.1317 -0.6844  0.3879
   69CHL1    C1 6256   4.677   0.588   2.840 -0.4173 -0.3977 -0.2759
   69CHL1   H1A 6257   4.660   0.695   2.863 -0.9333 -1.2804  4.3445
   69CHL1   H1B 6258   4.787   0.575   2.852 -0.3861  0.4446  0.4229
   69CHL1    C2 6259   4.641   0.558   2.694  0.0382  0.3821 -0.0500
   69CHL1   H2A 6260   4.700   0.626   2.630 -0.0124 -1.0828 -1.7448
   69CHL1   H2B 6261   4.534   0.574   2.669  0.0254 -0.5643 -0.6796
   69CHL1   C20 6262   4.726   0.613   3.649  0.2354  0.0242 -0.4492
   69CHL1   H20 6263   4.800   0.577   3.723  0.5231  1.0495 -0.2269
   69CHL1   C21 6264   4.586   0.586   3.731 -0.5595  0.0036  0.5440
   69CHL1  H21A 6265   4.566   0.477   3.738 -0.7597 -0.4569 -4.0724
   69CHL1  H21B 6266   4.508   0.642   3.676  0.2753  1.3273  0.6567
   69CHL1  H21C 6267   4.601   0.629   3.832  1.0675  1.9744 -0.4512
   69CHL1   C22 6268   4.746   0.765   3.634  0.7697 -0.2705 -0.1326
   69CHL1  H22A 6269   4.809   0.789   3.546 -0.8632  1.1162 -0.9565
   69CHL1  H22B 6270   4.642   0.799   3.620  0.5315  0.7228  3.0720
   69CHL1   C23 6271   4.788   0.827   3.770  0.3397  0.0274 -0.3909
   69CHL1  H23A 6272   4.706   0.813   3.844  0.4937  0.7609 -0.0743
   69CHL1  H23B 6273   4.878   0.777   3.811  0.4188  1.8175  1.7695
   69CHL1   C24 6274   4.830   0.980   3.754 -0.2530 -0.0188 -0.0349
   69CHL1  H24A 6275   4.927   0.980   3.700 -1.0131  3.1328 -1.6471
   69CHL1  H24B 6276   4.754   1.037   3.695 -0.6706  0.3830  0.8732
   69CHL1   C25 6277   4.856   1.063   3.884 -0.3152  0.5098 -0.0274
   69CHL1   H25 6278   4.754   1.080   3.926  0.3404  1.9707  1.0659
   69CHL1   C26 6279   4.930   0.984   3.991 -0.3818 -0.1692  0.0242
   69CHL1  H26A 6280   4.878   0.889   4.016  0.1219 -0.0179  1.7291
   69CHL1  H26B 6281   5.022   0.945   3.943  0.2899  0.1297  1.0596
   69CHL1  H26C 6282   4.942   1.021   4.094 -0.8668 -3.8362  1.5605
   69CHL1   C27 6283   4.919   1.204   3.856  0.0160  0.3276  0.1748
   69CHL1  H27A 6284   4.850   1.267   3.796 -0.1753  0.5470  0.6207
   69CHL1  H27B 6285   4.927   1.257   3.954  1.1182  0.8282 -0.1700
   69CHL1  H27C 6286   5.015   1.185   3.803  1.2697  3.0072  1.3344
   70CHL1    C3 6287   1.527   4.207   2.231  0.3511 -0.1100  0.1823
   70CHL1    H3 6288   1.613   4.275   2.249 -0.8208  1.3069  0.5596
   70CHL1    O3 6289   1.489   4.201   2.095 -0.2344 -0.8569  0.0717
   70CHL1   H3' 6290   1.424   4.270   2.080  2.0115  2.6480  4.0963
   70CHL1    C4 6291   1.555   4.068   2.292 -0.0227  0.4707  0.0253
   70CHL1   H4A 6292   1.479   3.998   2.252  0.2213  1.1594 -1.7259
   70CHL1   H4B 6293   1.645   4.023   2.245 -2.7521 -3.6981 -1.7255
   70CHL1    C5 6294   1.557   4.051   2.446  0.1022 -0.2000 -0.0500
   70CHL1    C6 6295   1.661   3.997   2.505 -0.2902 -0.1551 -0.1334
   70CHL1    H6 6296   1.742   3.958   2.442 -0.2087  1.5208 -1.1263
   70CHL1    C7 6297   1.674   3.972   2.653 -0.2097  0.0106  0.0422
   70CHL1   H7A 6298   1.700   3.866   2.673 -0.3309 -0.2735 -1.1941
   70CHL1   H7B 6299   1.755   4.035   2.696 -0.3670  0.5397 -0.4330
   70CHL1    C8 6300   1.543   4.012   2.733  0.6299  0.5755  0.2197
   70CHL1    H8 6301   1.469   3.930   2.728  0.4491  0.7543 -0.0565
   70CHL1   C14 6302   1.575   4.040   2.881 -0.5297 -0.1684 -0.3716
   70CHL1   H14 6303   1.643   4.128   2.879 -2.1308  1.2185  1.6173
   70CHL1   C15 6304   1.653   3.925   2.947 -0.3493 -0.2581 -0.4492
   70CHL1  H15A 6305   1.600   3.833   2.916  3.3493 -3.5291  1.9513
   70CHL1  H15B 6306   1.759   3.921   2.914 -0.7071  3.1860 -2.5385
   70CHL1   C16 6307   1.641   3.961   3.096  0.0791  0.5813 -0.6028
   70CHL1  H16A 6308   1.607   3.868   3.147 -0.2717  0.6633 -0.6865
   70CHL1  H16B 6309   1.739   3.978   3.146  0.3887 -1.3455 -0.4823
   70CHL1   C17 6310   1.533   4.073   3.113 -0.3953 -0.0124 -0.0424
   70CHL1   H17 6311   1.589   4.169   3.121  1.8548 -1.2265 -0.5742
   70CHL1   C13 6312   1.462   4.074   2.976  0.3227 -0.0625  0.5158
   70CHL1   C18 6313   1.354   3.963   2.970 -0.1452  0.0288 -0.6267
   70CHL1  H18A 6314   1.310   3.935   2.872 -0.5531  0.5755 -0.6056
   70CHL1  H18B 6315   1.397   3.868   3.009 -2.1825 -1.3044 -1.4883
   70CHL1  H18C 6316   1.269   3.996   3.034 -0.8033  1.2813 -2.0908
   70CHL1   C12 6317   1.413   4.209   2.917 -0.1454  0.4681 -0.0391
   70CHL1  H12A 6318   1.326   4.243   2.977  0.4096  1.0212  0.4649
   70CHL1  H12B 6319   1.494   4.285   2.927  0.9902 -0.8143  0.8471
   70CHL1   C11 6320   1.383   4.216   2.764 -0.2468  0.3210 -0.6195
   70CHL1  H11A 6321   1.281   4.173   2.755 -0.3646 -0.0579  1.8650
   70CHL1  H11B 6322   1.368   4.319   2.727 -0.8872 -0.1926 -1.8448
   70CHL1    C9 6323   1.488   4.140   2.668  1.3520  0.8503 -0.0919
   70CHL1    H9 6324   1.580   4.202   2.670  2.2702 -0.4687  1.5346
   70CHL1   C10 6325   1.440   4.125   2.522 -0.3873 -0.3867  0.2543
   70CHL1   C19 6326   1.305   4.047   2.513 -0.5197 -0.3767  0.1349
   70CHL1  H19A 6327   1.323   3.948   2.560  0.6937  1.7019  4.5391
   70CHL1  H19B 6328   1.218   4.094   2.563  0.1781  0.0899  0.9174
   70CHL1  H19C 6329   1.282   4.029   2.405  3.6326  0.0655 -1.0068
   70CHL1    C1 6330   1.414   4.266   2.454  0.4591 -0.1219  0.6002
   70CHL1   H1A 6331   1.336   4.319   2.512  3.5623  3.1535  2.2096
   70CHL1   H1B 6332   1.510   4.323   2.459 -1.3578  3.4449 -1.2315
   70CHL1    C2 6333   1.399   4.271   2.298 -0.2334 -0.1867 -0.8117
   70CHL1   H2A 6334   1.387   4.376   2.266 -4.9226  0.4348  2.1196
   70CHL1   H2B 6335   1.309   4.225   2.253  1.7047 -2.8703 -2.2751
   70CHL1   C20 6336   1.446   4.076   3.241  0.7688 -0.0722  0.7146
   70CHL1   H20 6337   1.384   3.985   3.249 -0.9542  1.0218  0.4405
   70CHL1   C21 6338   1.349   4.196   3.242 -0.1302 -0.1976 -0.3618
   70CHL1  H21A 6339   1.296   4.198   3.339 -1.8941  0.8936 -1.2763
   70CHL1  H21B 6340   1.269   4.191   3.164  3.5423  1.0863 -4.6788
   70CHL1  H21C 6341   1.402   4.293   3.232  1.0312 -0.6552  1.1564
   70CHL1   C22 6342   1.534   4.086   3.368  0.0929 -0.1750  0.7016
   70CHL1  H22A 6343   1.607   4.003   3.365 -1.0866 -1.2254  0.1780
   70CHL1  H22B 6344   1.592   4.181   3.368  1.3721 -0.9396  0.3851
   70CHL1   C23 6345   1.465   4.083   3.499  0.7495  0.3959 -0.6497
   70CHL1  H23A 6346   1.412   4.175   3.530  0.6345 -0.2232  1.1247
   70CHL1  H23B 6347   1.393   3.999   3.497  1.1465  0.0599 -1.0690
   70CHL1   C24 6348   1.566   4.046   3.604 -0.1039 -0.0264 -0.0607
   70CHL1  H24A 6349   1.604   3.951   3.559 -0.2514 -0.4164  0.6084
   70CHL1  H24B 6350   1.649   4.118   3.618 -0.2795 -0.2632  2.9545
   70CHL1   C25 6351   1.511   4.035   3.747  0.5779  0.7049 -0.4762
   70CHL1   H25 6352   1.488   4.136   3.789 -0.7402  0.0318  0.5134
   70CHL1   C26 6353   1.374   3.955   3.757 -0.3940 -0.1787 -0.0948
   70CHL1  H26A 6354   1.335   3.980   3.859  0.9597 -1.9743  0.9273
   70CHL1  H26B 6355   1.295   3.995   3.689 -0.4238 -0.6590 -0.3413
   70CHL1  H26C 6356   1.387   3.846   3.746 -0.2871 -0.2376  0.5367
   70CHL1   C27 6357   1.612   3.971   3.842  0.9924 -0.6785  0.1466
   70CHL1  H27A 6358   1.585   4.000   3.945  0.8103  0.2051 -0.1450
   70CHL1  H27B 6359   1.608   3.862   3.820 -0.3306 -0.7301  0.5843
   70CHL1  H27C 6360   1.715   4.006   3.817  0.3199  2.6224  1.5197
   71CHL1    C3 6361   4.917   1.945   2.856  0.6814 -0.0975  0.0030
   71CHL1    H3 6362   4.854   1.855   2.871 -0.2007  0.1570 -1.8435
   71CHL1    O3 6363   4.924   1.960   2.713  0.2880 -0.6920 -0.1318
   71CHL1   H3' 6364   4.987   1.896   2.679  0.2717 -1.0275  0.4726
   71CHL1    C4 6365   4.864   2.068   2.924  0.3440 -0.3574  0.7120
   71CHL1   H4A 6366   4.927   2.157   2.903 -0.4280  0.0792  0.1574
   71CHL1   H4B 6367   4.763   2.090   2.883  0.7225  0.9457  0.4372
   71CHL1    C5 6368   4.852   2.057   3.073  0.8900  0.6698 -0.1546
   71CHL1    C6 6369   4.729   2.069   3.132  1.3337 -0.0270  0.0660
   71CHL1    H6 6370   4.654   2.110   3.063 -1.3571 -1.1382  2.1154
   71CHL1    C7 6371   4.717   2.089   3.278  0.6184 -0.8764 -0.3533
   71CHL1   H7A 6372   4.654   2.177   3.306  0.3778 -0.7721 -1.1817
   71CHL1   H7B 6373   4.680   1.995   3.324  2.1620 -2.4114 -2.1217
   71CHL1    C8 6374   4.859   2.109   3.352  0.2571 -0.3847  0.8256
   71CHL1    H8 6375   4.892   2.214   3.338 -3.7874  1.0466  0.6677
   71CHL1   C14 6376   4.843   2.083   3.503 -0.2749  0.2502  0.0724
   71CHL1   H14 6377   4.808   1.978   3.503 -3.1489  1.0868 -1.6635
   71CHL1   C15 6378   4.735   2.156   3.576 -0.3312  0.3272  0.1519
   71CHL1  H15A 6379   4.752   2.262   3.549  1.9523 -0.0383 -0.0414
   71CHL1  H15B 6380   4.634   2.119   3.546 -0.4580  0.1652  0.7659
   71CHL1   C16 6381   4.780   2.129   3.723 -0.1722 -0.3567  0.4025
   71CHL1  H16A 6382   4.769   2.219   3.788 -0.6179  1.0977 -1.5895
   71CHL1  H16B 6383   4.706   2.061   3.770 -2.1767  0.0784 -1.9295
   71CHL1   C17 6384   4.924   2.059   3.729  0.2607  0.6759  0.4945
   71CHL1   H17 6385   4.909   1.949   3.738 -0.9277  0.8503  0.8477
   71CHL1   C13 6386   4.972   2.091   3.582 -0.0819 -0.0412  0.2463
   71CHL1   C18 6387   5.032   2.237   3.572  0.1758  0.1306 -0.0083
   71CHL1  H18A 6388   5.059   2.256   3.466 -0.3874  1.7756  0.1213
   71CHL1  H18B 6389   4.953   2.308   3.604  1.2871  0.6560  1.6973
   71CHL1  H18C 6390   5.122   2.248   3.636  0.4279  1.8124 -0.6246
   71CHL1   C12 6391   5.064   1.983   3.532  0.3028 -0.9047  1.1138
   71CHL1  H12A 6392   5.162   1.981   3.585  1.4413  0.7419 -0.7609
   71CHL1  H12B 6393   5.032   1.878   3.543 -0.9397 -0.5559  1.0705
   71CHL1   C11 6394   5.090   1.993   3.378 -0.4597 -0.3851  0.4789
   71CHL1  H11A 6395   5.146   2.089   3.368 -0.6778 -0.0794  1.9296
   71CHL1  H11B 6396   5.168   1.921   3.345  0.1982  0.9092 -0.9635
   71CHL1    C9 6397   4.961   2.008   3.292  0.0514  0.2469 -0.7999
   71CHL1    H9 6398   4.910   1.909   3.291  1.3345 -0.5358  1.7545
   71CHL1   C10 6399   4.983   2.033   3.141 -0.3193  0.6872 -0.6147
   71CHL1   C19 6400   5.076   2.157   3.126 -0.0348  0.1525 -0.5180
   71CHL1  H19A 6401   5.079   2.172   3.016 -1.6209 -2.1400 -0.9562
   71CHL1  H19B 6402   5.029   2.245   3.175  1.6136 -0.2920  2.1206
   71CHL1  H19C 6403   5.181   2.138   3.159 -0.3105 -0.5132  0.0161
   71CHL1    C1 6404   5.051   1.913   3.065  0.1654 -0.7807  1.0872
   71CHL1   H1A 6405   5.157   1.910   3.099  1.0621  1.6304 -1.1563
   71CHL1   H1B 6406   5.005   1.815   3.092  1.0281 -1.0984  1.4224
   71CHL1    C2 6407   5.062   1.921   2.908 -0.2082  0.6665 -0.0293
   71CHL1   H2A 6408   5.102   1.826   2.866 -1.3378  0.2772 -0.2678
   71CHL1   H2B 6409   5.135   2.000   2.884 -0.7431  1.4765  0.9114
   71CHL1   C20 6410   5.004   2.111   3.840 -0.5955  0.3409 -0.6107
   71CHL1   H20 6411   5.005   2.222   3.836  1.7268  0.4386  1.0357
   71CHL1   C21 6412   5.153   2.075   3.845  0.6302  0.0265 -0.6193
   71CHL1  H21A 6413   5.196   2.088   3.946  0.2335 -1.5335 -0.2216
   71CHL1  H21B 6414   5.205   2.136   3.768  1.3357 -1.2076 -1.1545
   71CHL1  H21C 6415   5.156   1.969   3.813 -1.2597  0.2390 -1.6598
   71CHL1   C22 6416   4.942   2.080   3.978 -0.8040  0.4876  0.6943
   71CHL1  H22A 6417   4.833   2.088   3.965 -0.4375  2.3343 -1.8482
   71CHL1  H22B 6418   4.967   1.973   4.000  2.9581  1.1620  0.3703
   71CHL1   C23 6419   4.975   2.171   4.095  0.2761 -0.0274  0.0058
   71CHL1  H23A 6420   5.083   2.198   4.087  0.2045  0.0595 -0.7776
   71CHL1  H23B 6421   4.912   2.262   4.085 -0.6975 -0.6980 -0.1169
   71CHL1   C24 6422   4.937   2.107   4.233  0.0752 -0.0016  0.2865
   71CHL1  H24A 6423   4.940   2.187   4.311 -1.1046  0.0488  0.2942
   71CHL1  H24B 6424   4.836   2.061   4.223  0.3747 -0.2837 -1.8687
   71CHL1   C25 6425   5.021   1.987   4.257  0.0649 -1.2139 -0.6577
   71CHL1   H25 6426   5.017   1.914   4.173  0.7140 -1.5477 -0.4086
   71CHL1   C26 6427   5.174   2.027   4.277  0.6644  0.4951 -0.5864
   71CHL1  H26A 6428   5.233   1.935   4.300  0.6825  0.6960  0.2079
   71CHL1  H26B 6429   5.208   2.085   4.189  1.5318  2.1404  0.7903
   71CHL1  H26C 6430   5.179   2.102   4.359 -1.2001  0.9472 -0.8539
   71CHL1   C27 6431   4.979   1.912   4.383  0.3254  0.0544 -0.0165
   71CHL1  H27A 6432   5.039   1.819   4.397 -2.0347 -1.4655  0.5530
   71CHL1  H27B 6433   4.987   1.979   4.472 -0.0780  0.6672 -0.4377
   71CHL1  H27C 6434   4.875   1.875   4.378 -0.6558  1.9935  3.0503
   72CHL1    C3 6435   3.053   5.917   2.832  0.0457  0.8777 -0.3602
   72CHL1    H3 6436   2.958   5.951   2.878 -1.2463  0.2483 -2.4405
   72CHL1    O3 6437   3.041   5.921   2.685 -0.1223 -0.9140 -0.3990
   72CHL1   H3' 6438   3.003   5.838   2.655 -0.8148 -0.4149 -0.9400
   72CHL1    C4 6439   3.166   6.007   2.879  0.2789  0.1534  0.1600
   72CHL1   H4A 6440   3.251   5.960   2.825 -0.7345 -1.5757 -0.0170
   72CHL1   H4B 6441   3.141   6.108   2.842 -0.5351  0.7456  2.1676
   72CHL1    C5 6442   3.198   5.993   3.029 -0.0226 -0.4756 -0.1886
   72CHL1    C6 6443   3.189   6.098   3.111 -0.0747 -0.4345  0.5389
   72CHL1    H6 6444   3.162   6.199   3.077 -0.2562 -0.1904  1.3797
   72CHL1    C7 6445   3.213   6.084   3.258  0.0532 -0.2786  0.1163
   72CHL1   H7A 6446   3.278   6.169   3.290  0.2591  0.3310 -1.7703
   72CHL1   H7B 6447   3.114   6.093   3.308  0.1884  0.5878  0.2542
   72CHL1    C8 6448   3.288   5.957   3.300  0.0785 -0.1007 -0.1612
   72CHL1    H8 6449   3.396   5.976   3.279  1.9300 -3.1193  4.9362
   72CHL1   C14 6450   3.282   5.942   3.453 -0.6027  0.0749 -0.4511
   72CHL1   H14 6451   3.174   5.930   3.475 -0.2525 -0.7629  0.9221
   72CHL1   C15 6452   3.339   6.057   3.537 -0.3838  0.4345  0.2237
   72CHL1  H15A 6453   3.440   6.077   3.495 -0.5002  0.8649  0.1491
   72CHL1  H15B 6454   3.273   6.146   3.530 -1.9714 -0.7986 -0.9573
   72CHL1   C16 6455   3.345   6.003   3.682 -0.3713  0.1364  0.8168
   72CHL1  H16A 6456   3.443   6.023   3.729  0.9240 -2.6279 -0.4540
   72CHL1  H16B 6457   3.262   6.043   3.744  0.0535  0.0751  1.4292
   72CHL1   C17 6458   3.319   5.844   3.662 -0.4292 -0.1586  0.2001
   72CHL1   H17 6459   3.213   5.813   3.674 -0.1883 -1.1523 -0.1940
   72CHL1   C13 6460   3.349   5.816   3.514 -0.2926 -0.0338 -0.8436
   72CHL1   C18 6461   3.506   5.820   3.494 -0.6624 -0.7243  0.2774
   72CHL1  H18A 6462   3.546   5.907   3.551 -0.1588  1.1456 -2.7214
   72CHL1  H18B 6463   3.554   5.724   3.524  1.1352 -0.3735 -1.2490
   72CHL1  H18C 6464   3.522   5.846   3.387 -0.3607 -1.1922  0.2074
   72CHL1   C12 6465   3.281   5.697   3.441 -0.2710  0.0851 -0.3123
   72CHL1  H12A 6466   3.326   5.602   3.477 -0.1636  0.4997  0.6732
   72CHL1  H12B 6467   3.174   5.705   3.469 -0.4601 -1.0730 -0.6763
   72CHL1   C11 6468   3.297   5.704   3.289 -0.4342 -0.2431  0.0694
   72CHL1  H11A 6469   3.403   5.708   3.258 -0.5303 -1.7741 -0.5277
   72CHL1  H11B 6470   3.251   5.613   3.245 -0.2162 -0.4029  0.1747
   72CHL1    C9 6471   3.228   5.835   3.231  0.1752  0.5150 -0.4869
   72CHL1    H9 6472   3.123   5.829   3.267 -0.0355  0.8031 -1.0594
   72CHL1   C10 6473   3.217   5.843   3.079 -0.6919  0.5052  0.4269
   72CHL1   C19 6474   3.347   5.791   3.021 -0.2451  0.6631 -0.2767
   72CHL1  H19A 6475   3.435   5.839   3.069 -0.9227  0.2098  1.4734
   72CHL1  H19B 6476   3.360   5.684   3.046  1.9992  1.1068  0.7840
   72CHL1  H19C 6477   3.362   5.799   2.911 -0.5854  2.2167 -0.2416
   72CHL1    C1 6478   3.096   5.758   3.027  0.0241  0.1562  0.2889
   72CHL1   H1A 6479   3.123   5.652   3.048 -0.6354 -0.3169 -1.0795
   72CHL1   H1B 6480   3.006   5.791   3.083 -0.5588  1.1547 -1.1741
   72CHL1    C2 6481   3.067   5.766   2.877  0.1178  0.0214 -0.1748
   72CHL1   H2A 6482   2.977   5.706   2.856  0.0125 -0.4557  1.5486
   72CHL1   H2B 6483   3.149   5.720   2.817  1.4479 -0.3818  1.8777
   72CHL1   C20 6484   3.402   5.766   3.766  0.1017 -0.1373 -0.0455
   72CHL1   H20 6485   3.511   5.786   3.751  0.0088  2.1762  1.8742
   72CHL1   C21 6486   3.376   5.611   3.746 -0.0533 -0.4266 -0.6493
   72CHL1  H21A 6487   3.427   5.547   3.822 -1.8961 -2.6416 -1.1709
   72CHL1  H21B 6488   3.422   5.576   3.651  2.2154 -0.6183  0.4614
   72CHL1  H21C 6489   3.265   5.606   3.751 -0.0176 -0.0836  1.2085
   72CHL1   C22 6490   3.358   5.805   3.912 -0.5415  0.1904  1.4102
   72CHL1  H22A 6491   3.385   5.913   3.921  1.8251 -0.2477  0.3789
   72CHL1  H22B 6492   3.247   5.796   3.907 -0.3269 -2.2448 -1.6773
   72CHL1   C23 6493   3.407   5.708   4.022 -0.4145 -0.2406  0.3981
   72CHL1  H23A 6494   3.344   5.616   4.018 -1.2110  0.3350 -1.0968
   72CHL1  H23B 6495   3.512   5.678   4.000 -0.3150  0.6807 -0.4283
   72CHL1   C24 6496   3.404   5.767   4.160  0.2558  0.4297  0.7886
   72CHL1  H24A 6497   3.435   5.872   4.142  1.4732  0.0008  0.2587
   72CHL1  H24B 6498   3.302   5.762   4.204  0.8102 -1.0500  1.9644
   72CHL1   C25 6499   3.501   5.695   4.253 -0.3260 -1.0761 -0.5471
   72CHL1   H25 6500   3.597   5.687   4.197 -0.1007 -1.9713 -0.0380
   72CHL1   C26 6501   3.527   5.780   4.388 -0.4279 -0.5497  0.5745
   72CHL1  H26A 6502   3.562   5.884   4.365  1.4826 -1.1768  0.4111
   72CHL1  H26B 6503   3.431   5.787   4.442 -1.1190  0.3150 -0.7191
   72CHL1  H26C 6504   3.600   5.728   4.453  1.3271  1.2666  0.1902
   72CHL1   C27 6505   3.462   5.547   4.286 -0.1420 -0.5391 -0.6782
   72CHL1  H27A 6506   3.446   5.497   4.188 -2.6644  0.9724 -1.1291
   72CHL1  H27B 6507   3.543   5.497   4.344  0.2384  1.9716  1.1368
   72CHL1  H27C 6508   3.373   5.556   4.352  1.7146 -1.9063  2.2325
   73CHL1    C3 6509   5.704   0.548   2.644  0.1506  0.8638 -0.4203
   73CHL1    H3 6510   5.710   0.659   2.646 -1.7821  0.9948  1.0210
   73CHL1    O3 6511   5.723   0.492   2.513  0.5006 -0.1572 -0.7277
   73CHL1   H3' 6512   5.708   0.397   2.519 -0.9895  0.1573  1.3065
   73CHL1    C4 6513   5.818   0.497   2.731  0.0337 -0.1542  1.2025
   73CHL1   H4A 6514   5.839   0.388   2.718  3.8169  0.6911 -1.7973
   73CHL1   H4B 6515   5.912   0.537   2.687 -2.0176  2.9561 -0.7515
   73CHL1    C5 6516   5.805   0.532   2.873  0.3402 -0.6466  0.2912
   73CHL1    C6 6517   5.905   0.591   2.941 -0.0415  0.8702  0.4977
   73CHL1    H6 6518   6.001   0.615   2.894  1.1814  3.0850  3.7657
   73CHL1    C7 6519   5.904   0.604   3.085  0.2280  0.1056  1.0498
   73CHL1   H7A 6520   6.002   0.568   3.123  0.3986 -0.5240  0.0281
   73CHL1   H7B 6521   5.900   0.713   3.109 -0.4693 -0.0783  1.8232
   73CHL1    C8 6522   5.793   0.530   3.155 -0.4850 -0.1232  0.9585
   73CHL1    H8 6523   5.809   0.421   3.168  1.9505  0.3599  2.8195
   73CHL1   C14 6524   5.792   0.586   3.291 -0.2939 -0.9140 -0.3513
   73CHL1   H14 6525   5.770   0.694   3.271 -1.6249 -1.5128 -2.4155
   73CHL1   C15 6526   5.909   0.597   3.392 -0.1879 -0.2359 -0.5816
   73CHL1  H15A 6527   5.979   0.512   3.378  2.0166  1.2187  0.9774
   73CHL1  H15B 6528   5.964   0.693   3.378  0.6865 -0.3050  1.9223
   73CHL1   C16 6529   5.851   0.596   3.533  0.0007 -0.4343 -1.0768
   73CHL1  H16A 6530   5.875   0.506   3.593  0.1632  0.1926 -0.1782
   73CHL1  H16B 6531   5.895   0.682   3.587 -0.4390  0.8044 -2.6066
   73CHL1   C17 6532   5.698   0.609   3.505 -0.0571  0.6565 -0.1375
   73CHL1   H17 6533   5.687   0.717   3.481  0.6220  0.3000 -2.3512
   73CHL1   C13 6534   5.672   0.541   3.379 -0.8753 -0.8345  0.0039
   73CHL1   C18 6535   5.696   0.386   3.394  0.0356  0.7551  0.4377
   73CHL1  H18A 6536   5.635   0.341   3.476  1.1618  1.0232  1.4671
   73CHL1  H18B 6537   5.664   0.328   3.305  0.6919 -0.6007  1.0401
   73CHL1  H18C 6538   5.801   0.358   3.419  0.1919  0.6588 -0.2985
   73CHL1   C12 6539   5.542   0.580   3.304 -0.0187  0.7982  0.3682
   73CHL1  H12A 6540   5.453   0.566   3.369  0.3882  0.9721  0.9832
   73CHL1  H12B 6541   5.548   0.690   3.284  1.1670  0.7754  0.5062
   73CHL1   C11 6542   5.531   0.510   3.168  0.4197 -0.2651  0.4302
   73CHL1  H11A 6543   5.523   0.400   3.183  0.0990 -0.5778 -1.6685
   73CHL1  H11B 6544   5.437   0.544   3.120  1.5536 -0.8961 -2.4448
   73CHL1    C9 6545   5.659   0.554   3.081  0.1982 -0.2280  0.0152
   73CHL1    H9 6546   5.651   0.664   3.069  2.2261 -0.2114 -1.7929
   73CHL1   C10 6547   5.669   0.496   2.937  0.1287  0.4128  0.2788
   73CHL1   C19 6548   5.661   0.349   2.938  0.2451 -0.3479  0.5240
   73CHL1  H19A 6549   5.564   0.323   2.987 -0.0654  3.8577  2.6346
   73CHL1  H19B 6550   5.670   0.302   2.838  1.8865  0.3977  0.2831
   73CHL1  H19C 6551   5.739   0.305   3.003  1.0692  1.7147  0.9954
   73CHL1    C1 6552   5.555   0.552   2.852 -0.0550 -0.0130  0.2475
   73CHL1   H1A 6553   5.454   0.520   2.886 -0.3413 -2.6586 -2.5780
   73CHL1   H1B 6554   5.540   0.661   2.867 -3.5689 -0.3889  0.3382
   73CHL1    C2 6555   5.568   0.518   2.702  0.4677 -0.7561  0.2928
   73CHL1   H2A 6556   5.490   0.580   2.653  0.1745 -1.5616 -0.2869
   73CHL1   H2B 6557   5.536   0.411   2.691 -0.1614 -0.4387 -1.2123
   73CHL1   C20 6558   5.595   0.576   3.618  0.3114 -0.8310  0.0409
   73CHL1   H20 6559   5.501   0.522   3.592 -0.4446 -0.5247  1.9548
   73CHL1   C21 6560   5.565   0.712   3.677  0.6235 -0.5283  0.0536
   73CHL1  H21A 6561   5.506   0.768   3.601 -1.9260 -1.2501  1.3919
   73CHL1  H21B 6562   5.644   0.776   3.721 -2.0446  1.8022  1.8316
   73CHL1  H21C 6563   5.506   0.696   3.770  1.3721  0.8388  0.7875
   73CHL1   C22 6564   5.661   0.481   3.730  0.0359 -0.1595  0.0278
   73CHL1  H22A 6565   5.700   0.393   3.675  0.2140 -0.3588  0.4715
   73CHL1  H22B 6566   5.748   0.520   3.786 -1.0597  3.4525 -0.5013
   73CHL1   C23 6567   5.551   0.431   3.827  0.5931 -0.5494  0.9573
   73CHL1  H23A 6568   5.510   0.523   3.875 -0.1302  0.3424 -1.2064
   73CHL1  H23B 6569   5.460   0.399   3.772  0.9147  0.5627 -0.2802
   73CHL1   C24 6570   5.601   0.323   3.928 -0.0913 -0.1514  0.0547
   73CHL1  H24A 6571   5.610   0.232   3.864 -1.4005  0.5844 -1.2475
   73CHL1  H24B 6572   5.701   0.356   3.961 -1.3203  2.6328  1.2789
   73CHL1   C25 6573   5.505   0.293   4.053  0.2256  0.6953  0.2955
   73CHL1   H25 6574   5.405   0.278   4.009  0.5062 -0.8774  0.1453
   73CHL1   C26 6575   5.546   0.171   4.130 -0.0756  0.3083  0.7678
   73CHL1  H26A 6576   5.565   0.089   4.057 -0.1068  1.9855 -1.2139
   73CHL1  H26B 6577   5.647   0.193   4.173  0.4580 -0.7818  0.1278
   73CHL1  H26C 6578   5.473   0.141   4.208 -3.1222  0.6040 -1.7772
   73CHL1   C27 6579   5.498   0.412   4.146 -0.4600 -0.7820 -0.4690
   73CHL1  H27A 6580   5.452   0.398   4.246 -0.3588  0.8421 -0.1678
   73CHL1  H27B 6581   5.605   0.430   4.167 -1.0326  0.6048  1.6039
   73CHL1  H27C 6582   5.452   0.499   4.095  0.2127 -0.1241  0.0324
   74CHL1    C3 6583   6.040   5.867   2.526 -0.0296 -0.6358 -0.1396
   74CHL1    H3 6584   6.012   5.974   2.516 -0.3527 -0.6818  0.2423
   74CHL1    O3 6585   6.040   5.817   2.392 -0.0411  0.3810  1.0557
   74CHL1   H3' 6586   6.104   5.745   2.394  0.7372  1.0641  1.2380
   74CHL1    C4 6587   6.177   5.861   2.593  0.1359 -0.1523 -0.1803
   74CHL1   H4A 6588   6.218   5.759   2.584 -1.2962 -0.8135  0.4986
   74CHL1   H4B 6589   6.249   5.923   2.536 -0.8052  0.5708 -0.6112
   74CHL1    C5 6590   6.172   5.909   2.734 -0.0967  0.1350  0.1472
   74CHL1    C6 6591   6.254   6.010   2.780  0.0838  0.1676  0.9281
   74CHL1    H6 6592   6.315   6.064   2.706  2.4044 -0.8876  1.9834
   74CHL1    C7 6593   6.275   6.051   2.922  0.1854 -0.0989  0.2808
   74CHL1   H7A 6594   6.384   6.060   2.945  0.0525  3.7930 -0.0236
   74CHL1   H7B 6595   6.243   6.156   2.940  1.0780  0.1430  0.5096
   74CHL1    C8 6596   6.214   5.943   3.013  0.7872 -0.1066 -0.5255
   74CHL1    H8 6597   6.282   5.855   3.016 -0.6751 -1.3496 -2.1747
   74CHL1   C14 6598   6.194   5.999   3.154 -1.1239  1.1253 -0.4531
   74CHL1   H14 6599   6.125   6.084   3.136 -0.1928  1.9382 -0.2480
   74CHL1   C15 6600   6.314   6.055   3.235 -0.7699  0.2033  0.6603
   74CHL1  H15A 6601   6.403   5.988   3.228 -1.2541 -0.2728 -1.7694
   74CHL1  H15B 6602   6.342   6.160   3.211 -1.0721  0.8258  2.8412
   74CHL1   C16 6603   6.275   6.047   3.377 -0.5378  0.0034 -0.2154
   74CHL1  H16A 6604   6.347   5.985   3.435  0.7514  3.3705  2.0989
   74CHL1  H16B 6605   6.275   6.145   3.429 -2.5856 -0.5487  0.9368
   74CHL1   C17 6606   6.129   5.991   3.379 -0.5045  0.2946 -0.3147
   74CHL1   H17 6607   6.060   6.077   3.367  0.6519  0.8219 -5.0992
   74CHL1   C13 6608   6.117   5.910   3.249 -0.7639  0.0351 -0.3538
   74CHL1   C18 6609   6.208   5.776   3.270 -0.3337  0.2353  0.2596
   74CHL1  H18A 6610   6.221   5.727   3.171 -0.8791  2.0191 -0.7457
   74CHL1  H18B 6611   6.310   5.800   3.307 -0.2716 -0.3720  0.4884
   74CHL1  H18C 6612   6.163   5.712   3.349  1.2638  0.8780  1.7472
   74CHL1   C12 6613   5.975   5.887   3.203  0.1970 -0.3241  0.4253
   74CHL1  H12A 6614   5.927   5.815   3.273 -0.6087  0.7637  1.0296
   74CHL1  H12B 6615   5.912   5.979   3.204  0.8687  0.1680 -0.9171
   74CHL1   C11 6616   5.978   5.828   3.064 -0.1004  0.0178  0.0931
   74CHL1  H11A 6617   6.001   5.720   3.079  0.7158 -0.1079 -1.7473
   74CHL1  H11B 6618   5.872   5.822   3.031 -0.3789 -2.1804  1.2378
   74CHL1    C9 6619   6.078   5.899   2.960 -0.0129  0.6737 -0.2878
   74CHL1    H9 6620   6.027   5.996   2.942  0.4177  0.7037 -1.4458
   74CHL1   C10 6621   6.081   5.831   2.821  0.5257 -0.2047  0.8619
   74CHL1   C19 6622   6.114   5.686   2.835  0.7465 -0.0265  0.1559
   74CHL1  H19A 6623   6.144   5.633   2.742 -1.9145 -1.9626  0.2803
   74CHL1  H19B 6624   6.199   5.667   2.905  2.0617  1.4725 -0.9744
   74CHL1  H19C 6625   6.031   5.626   2.879  0.9254  0.4338  1.1375
   74CHL1    C1 6626   5.946   5.849   2.751  0.0487  0.1661  0.7766
   74CHL1   H1A 6627   5.889   5.772   2.807  3.8445 -2.6440  1.1380
   74CHL1   H1B 6628   5.910   5.953   2.766  0.0282 -0.0780  2.5948
   74CHL1    C2 6629   5.941   5.794   2.611 -0.4823 -0.1311 -0.5979
   74CHL1   H2A 6630   5.841   5.798   2.563  0.8281 -2.9250 -4.0039
   74CHL1   H2B 6631   5.974   5.688   2.618  2.3815  0.7896  4.3563
   74CHL1   C20 6632   6.097   5.927   3.521 -0.0626  0.2555  0.2449
   74CHL1   H20 6633   6.153   5.832   3.524 -0.2102  0.1822  0.8448
   74CHL1   C21 6634   5.952   5.885   3.541  0.4500  0.3687  1.0030
   74CHL1  H21A 6635   5.890   5.975   3.561  1.0950  0.8182  1.0287
   74CHL1  H21B 6636   5.924   5.824   3.629 -2.7421 -1.7415 -1.2454
   74CHL1  H21C 6637   5.913   5.822   3.458  3.1178 -0.0310 -0.0335
   74CHL1   C22 6638   6.146   6.016   3.634  0.3143 -0.2258 -0.5568
   74CHL1  H22A 6639   6.257   6.006   3.637  0.1573 -2.3478  1.2297
   74CHL1  H22B 6640   6.120   6.122   3.615 -2.0353 -0.8430 -1.1727
   74CHL1   C23 6641   6.092   5.976   3.772 -0.0518 -0.0425 -0.9794
   74CHL1  H23A 6642   5.990   6.017   3.788  0.1759  0.9966 -2.0385
   74CHL1  H23B 6643   6.086   5.865   3.779 -0.9011 -0.0831 -2.0992
   74CHL1   C24 6644   6.180   6.035   3.886  0.7318  0.4938 -0.6928
   74CHL1  H24A 6645   6.272   5.973   3.882  0.3147 -0.1351 -0.6925
   74CHL1  H24B 6646   6.202   6.143   3.871 -2.3780  1.0125 -2.3978
   74CHL1   C25 6647   6.102   6.019   4.015  0.4903  0.3317 -0.1654
   74CHL1   H25 6648   6.016   6.089   4.016 -0.0539 -0.3112 -0.4719
   74CHL1   C26 6649   6.040   5.884   4.028  0.4461 -0.2481  1.2281
   74CHL1  H26A 6650   5.955   5.872   3.958  2.0562 -0.5463 -0.7795
   74CHL1  H26B 6651   6.116   5.803   4.013  1.0952  0.8009 -1.8810
   74CHL1  H26C 6652   5.982   5.862   4.120  0.0613 -0.0488  1.0335
   74CHL1   C27 6653   6.201   6.066   4.129 -0.1547  0.3113  0.1828
   74CHL1  H27A 6654   6.152   6.051   4.227 -1.7635 -0.6012 -0.7176
   74CHL1  H27B 6655   6.296   6.009   4.116 -0.0935  0.4243  0.1248
   74CHL1  H27C 6656   6.220   6.175   4.120 -3.0401  0.9428  0.6854
   75CHL1    C3 6657   6.431   0.735   2.372  0.2013 -0.2325  0.7828
   75CHL1    H3 6658   6.528   0.789   2.375  0.9816 -1.2616 -2.1665
   75CHL1    O3 6659   6.384   0.742   2.238 -0.3589 -0.4877 -0.0445
   75CHL1   H3' 6660   6.464   0.747   2.186  0.2815 -0.8382  0.8874
   75CHL1    C4 6661   6.428   0.591   2.438  0.1597 -0.1776 -0.2716
   75CHL1   H4A 6662   6.328   0.549   2.413  0.0175 -1.1354  1.7019
   75CHL1   H4B 6663   6.515   0.537   2.394  1.6619  1.4587  0.5518
   75CHL1    C5 6664   6.450   0.588   2.591 -0.6333  0.0180  0.1691
   75CHL1    C6 6665   6.550   0.526   2.644 -0.5811  0.4340  0.0839
   75CHL1    H6 6666   6.612   0.469   2.574 -0.6481  0.4741 -0.0091
   75CHL1    C7 6667   6.570   0.508   2.791 -0.9256  0.1891 -0.3685
   75CHL1   H7A 6668   6.584   0.400   2.813 -1.0988  0.2963  0.3207
   75CHL1   H7B 6669   6.670   0.549   2.815  0.9505 -3.6091 -0.9228
   75CHL1    C8 6670   6.453   0.559   2.874 -0.0896 -0.0718 -0.3876
   75CHL1    H8 6671   6.365   0.490   2.871 -0.5289  0.3467  1.6962
   75CHL1   C14 6672   6.501   0.579   3.015 -0.5265  0.3897  0.1065
   75CHL1   H14 6673   6.579   0.658   3.007  0.9765 -0.7819  2.0427
   75CHL1   C15 6674   6.566   0.454   3.087  0.2637 -0.6794 -0.2253
   75CHL1  H15A 6675   6.500   0.365   3.080 -0.3622 -0.3797  1.3559
   75CHL1  H15B 6676   6.669   0.436   3.049  0.9752  0.1240  1.2518
   75CHL1   C16 6677   6.565   0.498   3.233  0.2848 -0.1359 -0.0526
   75CHL1  H16A 6678   6.514   0.415   3.288 -2.2642  0.2626 -1.6187
   75CHL1  H16B 6679   6.671   0.500   3.266  0.8194 -0.8247 -1.6182
   75CHL1   C17 6680   6.478   0.628   3.243  0.6823  0.0324  0.1984
   75CHL1   H17 6681   6.555   0.708   3.238  1.5660 -0.8934 -1.8647
   75CHL1   C13 6682   6.394   0.635   3.108 -0.3932  0.5619  0.0450
   75CHL1   C18 6683   6.280   0.535   3.112  0.0335 -0.3276 -1.1289
   75CHL1  H18A 6684   6.230   0.548   3.210  1.0062 -0.0178 -0.6582
   75CHL1  H18B 6685   6.211   0.550   3.027  1.6814  0.9949 -2.3072
   75CHL1  H18C 6686   6.314   0.429   3.111  1.6592  0.1609 -1.2877
   75CHL1   C12 6687   6.355   0.780   3.050 -0.2363  0.2367  0.4360
   75CHL1  H12A 6688   6.273   0.819   3.113 -0.2730 -0.2222  0.6789
   75CHL1  H12B 6689   6.440   0.851   3.058 -0.7668  1.1720 -1.7556
   75CHL1   C11 6690   6.310   0.775   2.908  0.6735  0.6808  0.7641
   75CHL1  H11A 6691   6.214   0.720   2.905  1.3274 -0.5636  1.7278
   75CHL1  H11B 6692   6.292   0.879   2.872 -0.4869  0.2062 -0.0978
   75CHL1    C9 6693   6.409   0.697   2.812  0.8693 -0.5587  0.3879
   75CHL1    H9 6694   6.503   0.757   2.814  0.2680  0.3846  1.1114
   75CHL1   C10 6695   6.350   0.682   2.671 -0.3355  0.0904 -0.2155
   75CHL1   C19 6696   6.212   0.634   2.669 -0.4891  0.1299  0.8120
   75CHL1  H19A 6697   6.204   0.534   2.717  0.2375 -0.6821 -0.6988
   75CHL1  H19B 6698   6.140   0.698   2.726  1.8588  1.4145  2.5067
   75CHL1  H19C 6699   6.169   0.611   2.569 -0.8632 -0.0028  1.0014
   75CHL1    C1 6700   6.363   0.823   2.600  0.5075 -0.6318 -0.0730
   75CHL1   H1A 6701   6.287   0.890   2.645  1.4453 -0.0636  0.7218
   75CHL1   H1B 6702   6.460   0.873   2.618 -0.0338  0.8148 -1.0111
   75CHL1    C2 6703   6.337   0.826   2.448 -0.2746  0.4244  0.3631
   75CHL1   H2A 6704   6.330   0.930   2.409 -3.0107  0.0870 -0.2390
   75CHL1   H2B 6705   6.235   0.782   2.440  0.2737 -0.9329  0.5174
   75CHL1   C20 6706   6.400   0.638   3.374 -0.3821 -0.3056 -0.2673
   75CHL1   H20 6707   6.335   0.549   3.385 -3.0791  1.6534  0.6227
   75CHL1   C21 6708   6.307   0.765   3.371 -0.0748  0.5361  0.0140
   75CHL1  H21A 6709   6.224   0.756   3.298  1.7934 -0.4580 -2.1555
   75CHL1  H21B 6710   6.371   0.850   3.339  0.0591  0.3764 -0.1498
   75CHL1  H21C 6711   6.261   0.773   3.471  1.9805 -1.0729  1.1597
   75CHL1   C22 6712   6.492   0.650   3.493 -0.2076  0.6705 -0.0413
   75CHL1  H22A 6713   6.552   0.556   3.492  0.5715  1.1155  1.4265
   75CHL1  H22B 6714   6.569   0.729   3.481  3.5853 -2.2951  2.2483
   75CHL1   C23 6715   6.431   0.687   3.635  0.2528  0.1892 -0.0867
   75CHL1  H23A 6716   6.517   0.697   3.705 -1.5893  0.3270  2.3029
   75CHL1  H23B 6717   6.379   0.785   3.635  1.9690  1.1634  1.0953
   75CHL1   C24 6718   6.344   0.579   3.694 -0.3536 -0.1887  0.1859
   75CHL1  H24A 6719   6.263   0.545   3.627  3.0929 -3.6812 -2.6925
   75CHL1  H24B 6720   6.412   0.491   3.692 -1.0024 -0.7394  1.3262
   75CHL1   C25 6721   6.303   0.608   3.833 -0.6466  0.2055  0.0050
   75CHL1   H25 6722   6.396   0.612   3.893  1.6801 -0.1781 -3.2911
   75CHL1   C26 6723   6.241   0.744   3.866 -0.3736 -0.2995  0.3930
   75CHL1  H26A 6724   6.304   0.829   3.834  0.1702  0.1410  2.4759
   75CHL1  H26B 6725   6.148   0.752   3.806 -0.3727  1.9116  0.6084
   75CHL1  H26C 6726   6.210   0.755   3.972 -0.3796  0.2787  0.3343
   75CHL1   C27 6727   6.220   0.499   3.902 -0.1781  0.3806 -0.0609
   75CHL1  H27A 6728   6.178   0.522   4.002  0.5919  1.9015 -0.0531
   75CHL1  H27B 6729   6.130   0.490   3.839 -1.7441 -1.9846  2.3285
   75CHL1  H27C 6730   6.273   0.403   3.886 -0.9511 -0.0539 -0.0525
   76CHL1    C3 6731   4.120   5.064   2.462 -0.6360  0.9233 -0.7632
   76CHL1    H3 6732   4.137   4.959   2.492  1.3357  1.4609  0.1494
   76CHL1    O3 6733   4.066   5.058   2.332  0.0884 -0.0970 -0.1068
   76CHL1   H3' 6734   4.121   5.117   2.279  0.7264  0.0452  0.6888
   76CHL1    C4 6735   4.022   5.133   2.563  0.8764 -0.3552  0.2331
   76CHL1   H4A 6736   3.994   5.234   2.526 -2.2250 -0.5679  1.6497
   76CHL1   H4B 6737   3.923   5.082   2.563 -0.2951  1.6802 -2.0606
   76CHL1    C5 6738   4.076   5.161   2.704  0.7090  0.5660  0.0932
   76CHL1    C6 6739   4.008   5.126   2.816 -0.1572  0.4942  0.3692
   76CHL1    H6 6740   3.903   5.091   2.814 -0.4550  1.3593  0.6901
   76CHL1    C7 6741   4.067   5.142   2.951 -0.0951 -0.7886  0.5975
   76CHL1   H7A 6742   3.994   5.195   3.015 -0.0291  0.2590 -0.1587
   76CHL1   H7B 6743   4.083   5.037   2.982 -0.6469 -1.3233 -0.8064
   76CHL1    C8 6744   4.200   5.222   2.966  1.0111 -0.1476  1.0872
   76CHL1    H8 6745   4.150   5.320   2.948 -1.0773 -1.5644 -1.4682
   76CHL1   C14 6746   4.266   5.208   3.098 -0.2582 -0.3713  0.5129
   76CHL1   H14 6747   4.305   5.104   3.094  1.6876  0.3598 -1.4346
   76CHL1   C15 6748   4.188   5.218   3.229  0.5682  0.3183  0.7421
   76CHL1  H15A 6749   4.114   5.301   3.235  0.7978  0.4556  1.8433
   76CHL1  H15B 6750   4.139   5.120   3.245 -0.6344  1.2242  2.9423
   76CHL1   C16 6751   4.297   5.250   3.329  0.1752 -0.4707  0.8063
   76CHL1  H16A 6752   4.295   5.353   3.371 -0.2922  0.1209 -0.6005
   76CHL1  H16B 6753   4.304   5.170   3.405 -0.1458 -2.3237 -1.0203
   76CHL1   C17 6754   4.435   5.253   3.245 -0.6178  0.0024 -0.9312
   76CHL1   H17 6755   4.469   5.147   3.242  1.2258  0.4193  1.7239
   76CHL1   C13 6756   4.402   5.289   3.105 -0.4956  0.7540  0.2734
   76CHL1   C18 6757   4.380   5.436   3.091 -0.0851 -0.1356 -0.3341
   76CHL1  H18A 6758   4.456   5.495   3.146  0.2077  0.7381 -1.6291
   76CHL1  H18B 6759   4.371   5.480   2.990 -2.9870  1.4869  0.5089
   76CHL1  H18C 6760   4.283   5.447   3.145 -1.0703 -2.4805 -1.4451
   76CHL1   C12 6761   4.500   5.239   2.996  0.3213  0.5621  0.1103
   76CHL1  H12A 6762   4.595   5.297   2.987  0.4338  0.3369 -0.2007
   76CHL1  H12B 6763   4.525   5.134   3.022 -2.2642 -0.4553 -1.1839
   76CHL1   C11 6764   4.433   5.250   2.856 -0.3945  0.3141  0.0187
   76CHL1  H11A 6765   4.426   5.357   2.826 -1.6072 -0.3182 -2.1667
   76CHL1  H11B 6766   4.497   5.205   2.776 -0.9716 -1.6339  0.5900
   76CHL1    C9 6767   4.292   5.189   2.844 -0.2688 -0.1171  0.2496
   76CHL1    H9 6768   4.315   5.081   2.851  0.6793 -0.0627 -1.5247
   76CHL1   C10 6769   4.223   5.208   2.710 -0.5567 -0.7965 -0.4343
   76CHL1   C19 6770   4.217   5.360   2.674 -0.2844  0.1609  0.5532
   76CHL1  H19A 6771   4.175   5.373   2.572  0.9036  0.1019  0.0356
   76CHL1  H19B 6772   4.157   5.417   2.748 -2.0338  0.1212 -0.7686
   76CHL1  H19C 6773   4.318   5.407   2.676 -0.0769 -0.2886  2.6700
   76CHL1    C1 6774   4.319   5.135   2.609  0.7971 -0.3054  0.0109
   76CHL1   H1A 6775   4.422   5.176   2.599  1.5018 -1.8677  0.5382
   76CHL1   H1B 6776   4.328   5.029   2.639 -0.6247 -0.2335  0.7899
   76CHL1    C2 6777   4.265   5.125   2.462 -0.3382  0.2494 -0.2394
   76CHL1   H2A 6778   4.337   5.065   2.403  0.3078 -1.0706  1.7927
   76CHL1   H2B 6779   4.271   5.229   2.424 -2.1549  0.4623 -0.0737
   76CHL1   C20 6780   4.545   5.327   3.323 -0.1224 -0.3612 -0.5326
   76CHL1   H20 6781   4.509   5.431   3.312  0.0101 -0.3988 -1.3419
   76CHL1   C21 6782   4.677   5.293   3.254 -0.1539  0.5341 -0.1884
   76CHL1  H21A 6783   4.682   5.350   3.158 -0.1371  1.4772  0.3549
   76CHL1  H21B 6784   4.692   5.183   3.260 -1.3660  0.4323  2.4652
   76CHL1  H21C 6785   4.754   5.344   3.317  0.8974 -1.0299 -0.1643
   76CHL1   C22 6786   4.555   5.284   3.481 -0.3882 -0.8970  0.8486
   76CHL1  H22A 6787   4.649   5.334   3.514 -0.2045 -0.4313 -0.3353
   76CHL1  H22B 6788   4.467   5.333   3.528  1.0750 -0.1892  3.0116
   76CHL1   C23 6789   4.555   5.138   3.513 -0.2742 -0.4054  0.4738
   76CHL1  H23A 6790   4.465   5.085   3.475  1.2796 -1.6133 -1.8430
   76CHL1  H23B 6791   4.625   5.090   3.440  1.9048  1.8737  0.9134
   76CHL1   C24 6792   4.579   5.101   3.658  0.4291  0.2881  0.0629
   76CHL1  H24A 6793   4.665   5.165   3.687 -0.2499  1.5380 -0.5876
   76CHL1  H24B 6794   4.497   5.150   3.716 -0.2242  2.0161 -2.2004
   76CHL1   C25 6795   4.618   4.947   3.688  0.1310 -0.2692 -0.2066
   76CHL1   H25 6796   4.684   4.921   3.604 -1.8710  0.2269 -2.0212
   76CHL1   C26 6797   4.707   4.925   3.810 -0.4032  0.2478 -0.3994
   76CHL1  H26A 6798   4.739   4.819   3.817 -1.6785 -0.1945 -1.0774
   76CHL1  H26B 6799   4.796   4.990   3.798  0.6640 -1.3122 -1.1894
   76CHL1  H26C 6800   4.653   4.942   3.906  0.8212  0.4512  0.2806
   76CHL1   C27 6801   4.502   4.847   3.695  0.3380  0.4543 -0.1517
   76CHL1  H27A 6802   4.438   4.851   3.605  0.9208  2.8732 -0.5507
   76CHL1  H27B 6803   4.544   4.745   3.708  1.8344  0.4814 -3.7659
   76CHL1  H27C 6804   4.438   4.863   3.785  1.7449  0.7668  0.8374
   77SOPE     N 6805   4.670   6.633   6.429 -0.6236 -0.1152  0.4189
   77SOPE   HN1 6806   4.612   6.700   6.482  1.0970  2.2178 -0.4931
   77SOPE   HN2 6807   4.625   6.615   6.336  1.0816 -2.5295 -0.0540
   77SOPE   HN3 6808   4.675   6.541   6.477  1.4067 -0.2300  0.0752
   77SOPE   C12 6809   4.801   6.698   6.398 -0.0067  0.8621 -0.5201
   77SOPE  H12A 6810   4.835   6.682   6.294 -0.2794 -0.3618 -0.4365
   77SOPE  H12B 6811   4.877   6.654   6.466 -0.7630  1.5616  0.8227
   77SOPE   C11 6812   4.794   6.843   6.445  0.0232  0.3073 -0.1043
   77SOPE  H11A 6813   4.896   6.884   6.428  0.2618  0.5084  1.6491
   77SOPE  H11B 6814   4.774   6.854   6.553 -1.1593  0.1761 -0.2898
   77SOPE     P 6815   4.716   7.077   6.371  0.3662 -0.1144  0.0069
   77SOPE   O13 6816   4.845   7.109   6.432  0.0728 -0.4345  0.7169
   77SOPE   O14 6817   4.607   7.144   6.438 -0.4310 -0.3349  0.1576
   77SOPE   O12 6818   4.695   6.919   6.364  0.3977  0.5568  0.1415
   77SOPE   O11 6819   4.716   7.126   6.225  0.3204  0.2680  0.2260
   77SOPE    C1 6820   4.750   7.030   6.123 -0.4720  0.2348 -0.1600
   77SOPE    HA 6821   4.723   7.063   6.020 -1.0862 -0.1408 -0.1222
   77SOPE    HB 6822   4.705   6.930   6.140 -1.3496  1.0927  3.5109
   77SOPE    C2 6823   4.908   7.014   6.114  0.3462 -0.2380  0.4742
   77SOPE    HS 6824   4.942   6.982   6.214  0.4711  0.0042  0.5122
   77SOPE   O21 6825   4.964   7.144   6.081 -0.0282 -0.0634 -0.0771
   77SOPE   C21 6826   5.098   7.148   6.079  0.5026  0.1527 -0.1815
   77SOPE   O22 6827   5.171   7.072   6.134  0.3766 -0.4917  0.0827
   77SOPE   C22 6828   5.143   7.252   5.981  0.5059  0.5037  0.3403
   77SOPE   H2R 6829   5.248   7.230   5.951  0.0996 -0.6572 -0.2770
   77SOPE   H2S 6830   5.141   7.344   6.043  1.3400  0.7823 -0.0307
   77SOPE    C3 6831   4.960   6.902   6.015  0.9164 -0.4165 -0.3034
   77SOPE    HX 6832   4.911   6.808   6.048 -1.2341  0.1914 -1.5819
   77SOPE    HY 6833   5.069   6.886   6.031  0.5326 -2.2680  0.7702
   77SOPE   O31 6834   4.927   6.929   5.877  0.5922 -0.3121  0.0352
   77SOPE   C31 6835   4.859   6.827   5.814  0.3402  0.3981 -0.2915
   77SOPE   O32 6836   4.797   6.740   5.870 -0.1056  0.5972 -0.1199
   77SOPE   C32 6837   4.876   6.829   5.661 -0.1091 -0.3310  0.4624
   77SOPE   H2X 6838   4.979   6.859   5.634  0.8401 -3.4646  0.2567
   77SOPE   H2Y 6839   4.808   6.911   5.628 -0.3797 -0.5081  0.5767
   77SOPE   C23 6840   5.053   7.264   5.851 -0.6206  0.2721 -0.1471
   77SOPE   H3R 6841   4.947   7.293   5.870 -0.8237 -0.2572 -0.4465
   77SOPE   H3S 6842   5.060   7.169   5.795 -1.1111 -0.1109  0.4213
   77SOPE   C24 6843   5.107   7.381   5.766  0.1200 -0.2680  1.0977
   77SOPE   H4R 6844   5.216   7.402   5.771  0.2885 -0.5628 -0.6460
   77SOPE   H4S 6845   5.078   7.388   5.659 -0.5990 -1.0073  1.2375
   77SOPE   C25 6846   5.048   7.512   5.820 -0.1762  0.0646 -0.5211
   77SOPE   H5R 6847   4.937   7.507   5.818 -0.1523 -1.1334  0.0098
   77SOPE   H5S 6848   5.070   7.501   5.929  0.8416  0.7837 -0.6457
   77SOPE   C26 6849   5.113   7.637   5.749 -0.2822  0.1970  0.0896
   77SOPE   H6R 6850   5.212   7.656   5.796 -1.0963  1.6469  1.3368
   77SOPE   H6S 6851   5.132   7.620   5.641  2.0815 -3.7072  0.9220
   77SOPE   C27 6852   5.030   7.766   5.785  0.1930  0.1514  0.0746
   77SOPE   H7R 6853   5.060   7.770   5.892  0.7828 -1.2526 -0.0209
   77SOPE   H7S 6854   5.062   7.852   5.722  0.0507  1.1066  1.2732
   77SOPE   C28 6855   4.883   7.744   5.747  0.1893 -0.3651 -0.0872
   77SOPE   H8R 6856   4.884   7.686   5.652 -0.0734 -0.6957  0.1108
   77SOPE   H8S 6857   4.828   7.693   5.829  1.2096  0.3093  1.0487
   77SOPE   C29 6858   4.827   7.879   5.720  0.3821 -0.2558 -0.6737
   77SOPE   H91 6859   4.834   7.954   5.801 -0.3167 -0.8970  0.0080
   77SOPE  C210 6860   4.751   7.934   5.627 -0.1527 -0.4575 -0.3701
   77SOPE  H101 6861   4.713   8.037   5.636  1.1046  0.1123 -1.2764
   77SOPE  C211 6862   4.703   7.871   5.502  0.1333  0.4550 -0.0743
   77SOPE  H11R 6863   4.596   7.845   5.513  0.6381 -2.1195 -0.6238
   77SOPE  H11S 6864   4.751   7.772   5.484  0.5330  0.5649  0.3586
   77SOPE  C212 6865   4.743   7.957   5.382 -0.1275  0.3340  0.2302
   77SOPE  H12R 6866   4.854   7.962   5.382 -0.0925 -0.2130  1.2247
   77SOPE  H12S 6867   4.724   8.065   5.396  3.0850  1.1962 -1.2208
   77SOPE  C213 6868   4.687   7.906   5.251 -0.2600  0.8159  0.5458
   77SOPE  H13R 6869   4.576   7.894   5.253 -0.1786 -0.8690 -1.6615
   77SOPE  H13S 6870   4.730   7.805   5.238  0.3005  1.1986 -0.6450
   77SOPE  C214 6871   4.725   7.999   5.137  0.1113 -0.2851 -1.0296
   77SOPE  H14R 6872   4.835   8.014   5.125  0.4502  1.0152  2.6485
   77SOPE  H14S 6873   4.684   8.100   5.156  1.6030 -0.1766  2.1578
   77SOPE  C215 6874   4.667   7.942   5.009  0.1041  0.2783 -0.2360
   77SOPE  H15R 6875   4.556   7.939   5.020  0.1195  1.0417  0.2295
   77SOPE  H15S 6876   4.714   7.843   4.994 -1.5247 -0.4754 -0.5666
   77SOPE  C216 6877   4.712   8.030   4.892  0.0887 -0.0021  0.0432
   77SOPE  H16R 6878   4.748   7.965   4.809 -0.7304 -0.3345 -0.0644
   77SOPE  H16S 6879   4.800   8.091   4.920  0.1198 -0.8479  1.9068
   77SOPE  C217 6880   4.603   8.114   4.827 -0.1361 -0.9407 -0.6834
   77SOPE  H17R 6881   4.508   8.062   4.802 -0.6688  1.0357 -3.1482
   77SOPE  H17S 6882   4.640   8.145   4.727  3.6389  2.9757  1.5910
   77SOPE  C218 6883   4.555   8.245   4.894 -0.1159 -0.4102  0.0503
   77SOPE  H18R 6884   4.642   8.300   4.935  1.3427 -1.2297 -1.8179
   77SOPE  H18S 6885   4.496   8.221   4.985  1.0263  1.3374  1.3025
   77SOPE  H18T 6886   4.489   8.307   4.829  0.0671 -0.4664 -0.1914
   77SOPE   C33 6887   4.839   6.704   5.579  0.0097  0.1793 -0.1669
   77SOPE   H3X 6888   4.733   6.672   5.582  0.2242 -0.7343 -1.4579
   77SOPE   H3Y 6889   4.905   6.624   5.619  0.5946 -0.0606 -1.5343
   77SOPE   C34 6890   4.865   6.706   5.426 -0.2143 -0.4821  0.1620
   77SOPE   H4X 6891   4.976   6.712   5.415 -0.2846 -1.8984 -1.7834
   77SOPE   H4Y 6892   4.813   6.789   5.375  1.6051 -1.2415 -3.2081
   77SOPE   C35 6893   4.819   6.580   5.348  0.4792 -0.2989 -0.9890
   77SOPE   H5X 6894   4.710   6.590   5.332  0.3394 -0.2279 -0.0767
   77SOPE   H5Y 6895   4.835   6.491   5.414  0.8328  1.9466  2.1951
   77SOPE   C36 6896   4.886   6.564   5.209  0.4456 -0.0368  0.8816
   77SOPE   H6X 6897   4.845   6.478   5.151  1.3660  0.2346 -0.2252
   77SOPE   H6Y 6898   4.995   6.554   5.231  0.9074 -0.7429 -1.4012
   77SOPE   C37 6899   4.861   6.691   5.122 -0.2054 -0.3417 -0.5945
   77SOPE   H7X 6900   4.897   6.777   5.181  1.5880 -1.2709 -0.2699
   77SOPE   H7Y 6901   4.751   6.706   5.113 -0.1179  1.5751  0.9903
   77SOPE   C38 6902   4.919   6.689   4.980  0.1959 -0.0910  0.1861
   77SOPE   H8X 6903   4.915   6.581   4.952 -0.8254 -0.3311  1.1864
   77SOPE   H8Y 6904   5.024   6.723   4.993  0.0964  0.5626 -0.6389
   77SOPE   C39 6905   4.845   6.775   4.878  0.1210 -0.3617 -0.3044
   77SOPE   H9X 6906   4.858   6.882   4.906 -3.2772  0.1154 -0.1893
   77SOPE   H9Y 6907   4.737   6.749   4.881 -0.1468  0.6678 -0.4300
   77SOPE  C310 6908   4.890   6.771   4.729 -0.0930 -0.1383 -0.1875
   77SOPE  H10X 6909   4.873   6.670   4.687 -3.4794 -1.0587  2.8559
   77SOPE  H10Y 6910   5.000   6.788   4.722 -0.0151 -0.7953 -0.6140
   77SOPE  C311 6911   4.820   6.882   4.644  0.0290 -0.7905  0.5106
   77SOPE  H11X 6912   4.877   6.901   4.551  0.0158 -1.4868  0.3560
   77SOPE  H11Y 6913   4.820   6.967   4.716  0.5417 -0.9406  0.6942
   77SOPE  C312 6914   4.676   6.848   4.608  0.1803  0.6881 -0.1587
   77SOPE  H12X 6915   4.631   6.788   4.690 -0.0336  1.4685  0.3083
   77SOPE  H12Y 6916   4.670   6.781   4.519  1.7010  0.3502 -0.0189
   77SOPE  C313 6917   4.578   6.968   4.580  0.2813  0.0175 -0.1882
   77SOPE  H13X 6918   4.598   7.037   4.665  1.0678  0.1294 -0.4478
   77SOPE  H13Y 6919   4.474   6.929   4.575  0.0435  0.6037  0.1688
   77SOPE  C314 6920   4.620   7.032   4.451 -0.5373  0.1271  0.0342
   77SOPE  H14X 6921   4.718   7.083   4.460 -0.0927  0.1785 -3.6144
   77SOPE  H14Y 6922   4.556   7.120   4.429 -0.8915  0.0577  0.7668
   77SOPE  C315 6923   4.631   6.943   4.327  0.2294 -0.3443  0.7449
   77SOPE  H15X 6924   4.536   6.886   4.316  0.2193 -0.4719  1.4568
   77SOPE  H15Y 6925   4.710   6.866   4.335  0.8329  0.1798 -0.0223
   77SOPE  C316 6926   4.653   7.029   4.203  0.2255 -0.1202 -0.1450
   77SOPE  H16X 6927   4.745   7.091   4.209 -0.2721  0.6671 -0.4351
   77SOPE  H16Y 6928   4.576   7.109   4.192  1.6185  1.2610 -0.3223
   77SOPE  C317 6929   4.658   6.937   4.082 -0.0555 -0.1542  0.6724
   77SOPE  H17X 6930   4.556   6.904   4.053 -0.4607  0.8284  0.9452
   77SOPE  H17Y 6931   4.722   6.850   4.105  3.3381  1.5319 -1.4554
   77SOPE  C318 6932   4.725   7.003   3.959  0.0110 -0.5153  0.6559
   77SOPE  H18X 6933   4.680   6.963   3.866 -2.2877  1.6688  0.7378
   77SOPE  H18Y 6934   4.836   6.995   3.969  0.3359  1.7368 -0.6160
   77SOPE  H18Z 6935   4.698   7.110   3.961 -3.1866 -1.2387  1.2624
   78SOPE     N 6936   2.439   3.820   6.438 -0.7313  0.7383  0.1925
   78SOPE   HN1 6937   2.351   3.804   6.385  0.1387 -3.3018 -0.3552
   78SOPE   HN2 6938   2.413   3.844   6.535  0.2959  0.7533  0.4800
   78SOPE   HN3 6939   2.497   3.901   6.405  0.8123 -1.0229 -1.7526
   78SOPE   C12 6940   2.514   3.687   6.429 -0.0710  0.3635  0.3216
   78SOPE  H12A 6941   2.545   3.686   6.322 -1.2086  1.5775 -0.0481
   78SOPE  H12B 6942   2.439   3.609   6.456 -0.0955  0.3665  0.2625
   78SOPE   C11 6943   2.648   3.688   6.506 -0.3228  0.3405 -0.6730
   78SOPE  H11A 6944   2.687   3.584   6.508 -0.3466  0.3239  1.7318
   78SOPE  H11B 6945   2.629   3.699   6.615  0.9599  0.3913 -0.4363
   78SOPE     P 6946   2.840   3.767   6.349 -0.3049  0.1409  0.1925
   78SOPE   O13 6947   2.918   3.644   6.381 -0.7859 -0.4090  0.3419
   78SOPE   O14 6948   2.926   3.883   6.332  0.4570 -0.3444 -0.5838
   78SOPE   O12 6949   2.737   3.784   6.456  0.2578 -0.1038  0.3248
   78SOPE   O11 6950   2.749   3.743   6.220  0.0921 -0.3392 -0.3922
   78SOPE    C1 6951   2.748   3.618   6.154  0.1111 -1.1708 -0.4048
   78SOPE    HA 6952   2.641   3.604   6.128  0.7452 -1.8149 -2.9651
   78SOPE    HB 6953   2.775   3.534   6.222  0.2419 -0.9430 -0.1732
   78SOPE    C2 6954   2.828   3.620   6.022  0.4134 -0.2510  0.7354
   78SOPE    HS 6955   2.798   3.531   5.961  0.4403 -1.1226  1.9536
   78SOPE   O21 6956   2.967   3.601   6.039 -0.2633 -0.5995 -0.2258
   78SOPE   C21 6957   3.002   3.488   6.094 -0.3465  0.5873 -0.7710
   78SOPE   O22 6958   2.932   3.392   6.125 -0.2779  0.1809 -0.5284
   78SOPE   C22 6959   3.156   3.495   6.131  0.1556 -0.3194  0.1784
   78SOPE   H2R 6960   3.165   3.416   6.208  0.6073 -0.3131  0.1327
   78SOPE   H2S 6961   3.167   3.595   6.179  3.3708 -0.1107 -0.7881
   78SOPE    C3 6962   2.796   3.747   5.942 -0.6141 -0.0388 -1.2873
   78SOPE    HX 6963   2.848   3.837   5.982 -1.2440  0.6136 -1.9091
   78SOPE    HY 6964   2.688   3.763   5.963 -0.6796 -1.5544 -0.3734
   78SOPE   O31 6965   2.804   3.723   5.802  0.2815 -0.5478 -0.5940
   78SOPE   C31 6966   2.921   3.738   5.739 -0.8568 -0.1140 -1.1673
   78SOPE   O32 6967   3.023   3.781   5.795  0.1693  0.1734  0.4069
   78SOPE   C32 6968   2.905   3.702   5.589 -0.4216 -0.3821  0.1159
   78SOPE   H2X 6969   2.828   3.774   5.555  0.9461  1.1790  0.1970
   78SOPE   H2Y 6970   2.863   3.600   5.576  0.0946 -0.6275  0.3354
   78SOPE   C23 6971   3.253   3.473   6.018 -0.5306  0.3719 -0.0549
   78SOPE   H3R 6972   3.356   3.491   6.054 -0.4005  1.0264 -0.7126
   78SOPE   H3S 6973   3.230   3.544   5.935  2.8787 -0.9697 -2.3492
   78SOPE   C24 6974   3.249   3.324   5.972  0.2120  0.6166 -0.0613
   78SOPE   H4R 6975   3.291   3.259   6.052 -0.1193 -0.2301 -0.5618
   78SOPE   H4S 6976   3.143   3.295   5.962  0.0840  1.6213 -2.1262
   78SOPE   C25 6977   3.334   3.300   5.842 -0.3385 -0.1188  0.0504
   78SOPE   H5R 6978   3.440   3.323   5.868 -0.8609  0.7668  1.5170
   78SOPE   H5S 6979   3.343   3.197   5.803  1.8168 -0.3259  0.9382
   78SOPE   C26 6980   3.295   3.388   5.721  0.1868  0.6024  0.6543
   78SOPE   H6R 6981   3.189   3.412   5.747 -0.2555  0.4790 -0.9331
   78SOPE   H6S 6982   3.355   3.480   5.709  2.2158 -0.8426 -1.0454
   78SOPE   C27 6983   3.296   3.302   5.592  0.8075 -0.4598 -0.2154
   78SOPE   H7R 6984   3.397   3.257   5.581  1.3173  0.2307  1.3151
   78SOPE   H7S 6985   3.236   3.210   5.606  0.9498 -0.3684  1.1010
   78SOPE   C28 6986   3.237   3.371   5.467  0.4618  0.0822 -1.0027
   78SOPE   H8R 6987   3.195   3.294   5.398  0.8637 -0.6180 -0.4701
   78SOPE   H8S 6988   3.158   3.448   5.485 -1.6764 -2.2753  0.3240
   78SOPE   C29 6989   3.352   3.439   5.399 -0.2253 -0.0579  0.0443
   78SOPE   H91 6990   3.393   3.528   5.450 -3.9179  0.9899  1.4992
   78SOPE  C210 6991   3.406   3.418   5.282 -0.1235 -0.2391  0.2425
   78SOPE  H101 6992   3.498   3.476   5.263 -1.5083  1.8297 -0.5049
   78SOPE  C211 6993   3.372   3.309   5.174 -0.7506 -0.6350 -0.6080
   78SOPE  H11R 6994   3.272   3.267   5.199 -0.6413  0.0989  1.2198
   78SOPE  H11S 6995   3.451   3.231   5.172 -0.4799 -0.4476  0.9322
   78SOPE  C212 6996   3.362   3.376   5.033 -0.0951  0.5169  0.3609
   78SOPE  H12R 6997   3.461   3.424   5.020 -0.1144  0.7383  0.9907
   78SOPE  H12S 6998   3.276   3.446   5.024  0.1434  0.9291  1.1707
   78SOPE  C213 6999   3.349   3.267   4.917  0.9199  0.5670 -0.1660
   78SOPE  H13R 7000   3.260   3.206   4.943  0.1887  1.5183 -0.3357
   78SOPE  H13S 7001   3.436   3.200   4.906 -0.6842 -1.6321  0.0187
   78SOPE  C214 7002   3.323   3.308   4.776  0.4535 -0.3234  0.6455
   78SOPE  H14R 7003   3.400   3.376   4.735  1.5046 -1.3596  0.8589
   78SOPE  H14S 7004   3.227   3.363   4.770  0.3013 -0.6409  0.0856
   78SOPE  C215 7005   3.298   3.188   4.686  0.4433  0.5966  0.4046
   78SOPE  H15R 7006   3.223   3.117   4.728  1.3718 -0.7659 -0.1739
   78SOPE  H15S 7007   3.395   3.135   4.675 -0.3521 -0.8235 -0.1111
   78SOPE  C216 7008   3.257   3.216   4.542 -0.0830 -0.0909  0.4826
   78SOPE  H16R 7009   3.150   3.239   4.524  0.2221  1.1285  0.0967
   78SOPE  H16S 7010   3.284   3.130   4.477  2.1358  0.9203 -0.0486
   78SOPE  C217 7011   3.333   3.333   4.477  0.7131 -0.3772 -0.3331
   78SOPE  H17R 7012   3.439   3.318   4.447  0.5970  0.4812 -1.1961
   78SOPE  H17S 7013   3.330   3.425   4.539 -1.1487 -1.6857  1.6888
   78SOPE  C218 7014   3.260   3.359   4.343 -0.0971 -0.2194 -0.5869
   78SOPE  H18R 7015   3.152   3.365   4.370 -0.5808 -1.8120 -2.0260
   78SOPE  H18S 7016   3.277   3.269   4.281 -0.1349 -1.4011  1.0366
   78SOPE  H18T 7017   3.304   3.449   4.294 -0.6365  1.7805  2.3453
   78SOPE   C33 7018   3.036   3.723   5.508 -0.1312  0.8557  0.7301
   78SOPE   H3X 7019   3.115   3.653   5.542 -0.7841 -0.9360 -1.2023
   78SOPE   H3Y 7020   3.082   3.823   5.519  2.3949  0.0287 -1.2880
   78SOPE   C34 7021   3.021   3.715   5.352  0.0534  0.4300 -0.5626
   78SOPE   H4X 7022   2.939   3.782   5.318 -1.0984 -1.3163 -1.4232
   78SOPE   H4Y 7023   2.985   3.614   5.321 -0.0246 -0.8949  3.2931
   78SOPE   C35 7024   3.155   3.742   5.271 -0.5610  0.1539 -0.2002
   78SOPE   H5X 7025   3.230   3.661   5.285  1.3229  1.9472  0.5215
   78SOPE   H5Y 7026   3.198   3.833   5.317 -0.3091  0.7975 -1.6501
   78SOPE   C36 7027   3.135   3.772   5.121  0.5699 -0.4653 -0.6542
   78SOPE   H6X 7028   3.234   3.790   5.072  0.3119 -0.8962 -1.3440
   78SOPE   H6Y 7029   3.072   3.864   5.122  0.3156 -0.6389 -0.7213
   78SOPE   C37 7030   3.065   3.660   5.052  0.3347 -0.6889  0.1953
   78SOPE   H7X 7031   2.965   3.652   5.099  1.5898 -0.3640  3.1707
   78SOPE   H7Y 7032   3.131   3.572   5.067  1.9290 -0.1071 -2.5948
   78SOPE   C38 7033   3.052   3.696   4.902 -0.4342  0.2917 -0.5410
   78SOPE   H8X 7034   3.144   3.730   4.850 -0.0243  1.7118  1.0163
   78SOPE   H8Y 7035   2.987   3.783   4.878 -1.2196 -0.1391 -0.0101
   78SOPE   C39 7036   2.975   3.589   4.825  0.1554 -0.1346  0.0950
   78SOPE   H9X 7037   2.868   3.600   4.852  0.6166  1.7020  1.3452
   78SOPE   H9Y 7038   3.002   3.489   4.866 -1.3416 -0.9962 -0.9073
   78SOPE  C310 7039   3.012   3.589   4.676 -0.1879 -0.0678  0.4357
   78SOPE  H10X 7040   3.119   3.558   4.679  0.8255  2.9210 -0.7523
   78SOPE  H10Y 7041   3.033   3.694   4.648  1.4659 -0.4072  0.2660
   78SOPE  C311 7042   2.920   3.521   4.572  0.0248 -0.1300  0.4199
   78SOPE  H11X 7043   2.815   3.547   4.598  0.7903  1.2784  2.3165
   78SOPE  H11Y 7044   2.913   3.411   4.591 -2.3333 -0.1237  0.0016
   78SOPE  C312 7045   2.955   3.550   4.422  0.1168 -0.1061 -0.4538
   78SOPE  H12X 7046   3.065   3.552   4.404  0.4586  0.7100  1.4427
   78SOPE  H12Y 7047   2.918   3.654   4.412 -1.6066 -0.8306 -2.0791
   78SOPE  C313 7048   2.889   3.453   4.332 -0.5127 -0.1488  0.1803
   78SOPE  H13X 7049   2.779   3.456   4.342 -0.5006  1.1989  0.1475
   78SOPE  H13Y 7050   2.925   3.353   4.363  2.0899  0.2343 -1.2414
   78SOPE  C314 7051   2.927   3.468   4.180  0.6846  0.0090 -0.5616
   78SOPE  H14X 7052   2.893   3.374   4.131 -2.6784  0.6449  0.3193
   78SOPE  H14Y 7053   3.036   3.486   4.169  1.0172 -1.8789 -0.7052
   78SOPE  C315 7054   2.843   3.588   4.122 -0.1995 -0.5320 -1.1201
   78SOPE  H15X 7055   2.835   3.674   4.191  1.2654 -2.4948  1.7253
   78SOPE  H15Y 7056   2.742   3.543   4.116 -0.5661 -0.4940  2.6378
   78SOPE  C316 7057   2.912   3.633   3.991  0.5402  0.7121 -0.4497
   78SOPE  H16X 7058   3.018   3.656   4.012  0.6868  0.3836 -0.8063
   78SOPE  H16Y 7059   2.867   3.732   3.966  3.4169  2.0974 -0.4933
   78SOPE  C317 7060   2.892   3.537   3.873  0.3569 -0.4818 -0.7176
   78SOPE  H17X 7061   2.930   3.438   3.905 -0.0080 -0.0183  1.3124
   78SOPE  H17Y 7062   2.952   3.563   3.783  3.1411 -1.3018  0.7896
   78SOPE  C318 7063   2.749   3.525   3.830  0.1772  0.0514  0.3886
   78SOPE  H18X 7064   2.682   3.473   3.902 -0.4693  2.9644  2.0604
   78SOPE  H18Y 7065   2.744   3.466   3.736  0.6943 -0.1113  0.4575
   78SOPE  H18Z 7066   2.695   3.622   3.822 -1.0642 -0.2626  3.4286
   79SOPE     N 7067   2.746   0.973   6.809 -0.1472 -0.2592  0.2391
   79SOPE   HN1 7068   2.836   1.024   6.823  0.7452 -0.9806 -2.2885
   79SOPE   HN2 7069   2.765   0.892   6.747 -3.6693 -0.0757 -1.2637
   79SOPE   HN3 7070   2.691   1.038   6.750 -1.1765 -0.9653  0.4020
   79SOPE   C12 7071   2.683   0.952   6.935  0.5805  0.0524 -0.0753
   79SOPE  H12A 7072   2.703   1.047   6.990  0.1928  0.1350 -0.0715
   79SOPE  H12B 7073   2.726   0.864   6.986  0.1573  0.2727  0.6848
   79SOPE   C11 7074   2.532   0.928   6.913  0.3726 -0.3218 -0.2452
   79SOPE  H11A 7075   2.491   1.007   6.846 -0.6744 -1.0920 -0.5273
   79SOPE  H11B 7076   2.493   0.939   7.016  0.6130  0.8565 -0.2667
   79SOPE     P 7077   2.360   0.755   6.826 -0.0310  0.2017  0.1673
   79SOPE   O13 7078   2.275   0.820   6.931  0.0018  0.4008  0.0737
   79SOPE   O14 7079   2.362   0.607   6.830  0.4388 -0.0270  0.3688
   79SOPE   O12 7080   2.509   0.804   6.854  0.2066 -0.3106 -0.4439
   79SOPE   O11 7081   2.334   0.811   6.682 -0.4568 -0.6455  0.2767
   79SOPE    C1 7082   2.317   0.718   6.572 -0.6758  0.1359  0.2129
   79SOPE    HA 7083   2.236   0.751   6.502 -0.5343 -0.1006 -0.0665
   79SOPE    HB 7084   2.263   0.626   6.604 -0.4406 -1.0271 -2.4763
   79SOPE    C2 7085   2.450   0.690   6.501 -0.5358 -0.0999  0.4479
   79SOPE    HS 7086   2.527   0.750   6.554  0.3557  0.1744 -1.0987
   79SOPE   O21 7087   2.442   0.736   6.364  0.1051 -0.3383 -0.9991
   79SOPE   C21 7088   2.493   0.853   6.329 -0.5543  0.5748 -0.4505
   79SOPE   O22 7089   2.548   0.936   6.399 -0.4186 -0.3822  0.1984
   79SOPE   C22 7090   2.476   0.873   6.181 -0.2699 -0.7991 -0.3803
   79SOPE   H2R 7091   2.541   0.952   6.140 -3.0357  0.5626 -2.5126
   79SOPE   H2S 7092   2.371   0.908   6.169  0.8504  2.9814 -0.3326
   79SOPE    C3 7093   2.492   0.539   6.501  0.7392 -0.3497 -0.0160
   79SOPE    HX 7094   2.406   0.485   6.455  2.4964 -1.6371 -1.9843
   79SOPE    HY 7095   2.508   0.507   6.606 -0.9586  0.1418  0.4264
   79SOPE   O31 7096   2.603   0.502   6.418 -0.0149  0.1388 -0.1873
   79SOPE   C31 7097   2.727   0.507   6.471  0.4085  0.2441 -0.8499
   79SOPE   O32 7098   2.762   0.554   6.580  0.5332  0.6253  0.3508
   79SOPE   C32 7099   2.821   0.459   6.354 -0.0918 -0.2836 -0.7552
   79SOPE   H2X 7100   2.782   0.364   6.314  1.8900 -0.8332 -1.4761
   79SOPE   H2Y 7101   2.921   0.432   6.393 -1.8350 -3.5761  1.9198
   79SOPE   C23 7102   2.512   0.747   6.103  0.1353  0.3429  0.5678
   79SOPE   H3R 7103   2.448   0.661   6.132 -0.3135  0.9541  1.4188
   79SOPE   H3S 7104   2.620   0.724   6.120 -0.2996 -1.4328  1.0856
   79SOPE   C24 7105   2.503   0.748   5.945 -0.0188  0.6384  0.1390
   79SOPE   H4R 7106   2.396   0.743   5.915  0.8330 -1.0865 -3.0698
   79SOPE   H4S 7107   2.539   0.844   5.901 -1.1205  0.9159 -0.2002
   79SOPE   C25 7108   2.577   0.631   5.888 -0.0806  0.2423 -0.3125
   79SOPE   H5R 7109   2.665   0.601   5.947  0.1784 -0.8153 -1.1948
   79SOPE   H5S 7110   2.499   0.552   5.876 -2.1247  2.3535 -2.0757
   79SOPE   C26 7111   2.620   0.666   5.745 -0.5350  0.1133  0.7783
   79SOPE   H6R 7112   2.534   0.702   5.685 -0.8171 -0.6158  0.7414
   79SOPE   H6S 7113   2.697   0.746   5.744 -1.1373  0.7048  0.6079
   79SOPE   C27 7114   2.695   0.560   5.665 -0.3995 -0.4902  0.4768
   79SOPE   H7R 7115   2.781   0.542   5.732  1.2060  1.7726 -0.8222
   79SOPE   H7S 7116   2.640   0.464   5.650 -0.5831 -0.3578  0.2808
   79SOPE   C28 7117   2.743   0.609   5.529 -0.5544  0.8000 -0.1014
   79SOPE   H8R 7118   2.804   0.701   5.537 -0.6472  0.9343 -0.8719
   79SOPE   H8S 7119   2.823   0.537   5.500  0.2385  1.4383  0.4601
   79SOPE   C29 7120   2.637   0.634   5.430 -0.0303  0.1632  0.5633
   79SOPE   H91 7121   2.538   0.658   5.471 -0.4213  0.3177 -0.4240
   79SOPE  C210 7122   2.643   0.613   5.294  0.3490  0.8138  0.2959
   79SOPE  H101 7123   2.554   0.643   5.237  0.1902  0.5647  0.4098
   79SOPE  C211 7124   2.767   0.583   5.215  0.4299  0.6380 -0.4689
   79SOPE  H11R 7125   2.799   0.478   5.227 -3.5864 -0.4788  2.6788
   79SOPE  H11S 7126   2.860   0.635   5.245  0.1149  1.6096 -1.1150
   79SOPE  C212 7127   2.739   0.606   5.064  0.0886  0.4128 -0.2207
   79SOPE  H12R 7128   2.709   0.711   5.048  1.1320  0.9743  1.2902
   79SOPE  H12S 7129   2.650   0.548   5.032 -0.0619 -0.6782  2.0281
   79SOPE  C213 7130   2.857   0.593   4.972 -0.1814  0.6217  0.3296
   79SOPE  H13R 7131   2.867   0.483   4.958  0.1941  0.7171 -0.1637
   79SOPE  H13S 7132   2.945   0.634   5.026  0.3137  0.3040 -0.2246
   79SOPE  C214 7133   2.836   0.650   4.827 -0.2919 -0.1208 -0.5121
   79SOPE  H14R 7134   2.834   0.761   4.823 -1.1974 -0.1379 -0.6542
   79SOPE  H14S 7135   2.741   0.604   4.793 -0.3930  0.1134 -0.5480
   79SOPE  C215 7136   2.949   0.601   4.731  0.6156 -1.2486 -0.4184
   79SOPE  H15R 7137   2.967   0.493   4.745  2.9916 -0.7316  1.2047
   79SOPE  H15S 7138   3.043   0.653   4.761  0.5348 -1.3489  0.0097
   79SOPE  C216 7139   2.919   0.625   4.586  0.1987 -0.5833 -0.2263
   79SOPE  H16R 7140   2.919   0.731   4.554  0.8745 -1.0634 -1.9147
   79SOPE  H16S 7141   2.816   0.589   4.568 -1.2384  2.8342  0.5221
   79SOPE  C217 7142   3.016   0.541   4.495 -0.2097  0.6676  0.3361
   79SOPE  H17R 7143   3.020   0.432   4.515  1.6811  0.3841 -1.2447
   79SOPE  H17S 7144   3.118   0.586   4.499 -1.1199  3.5875 -3.7034
   79SOPE  C218 7145   2.965   0.555   4.350  0.0765  0.1095 -0.1047
   79SOPE  H18R 7146   2.986   0.655   4.308  0.5589 -0.3409 -0.9741
   79SOPE  H18S 7147   2.857   0.530   4.340  0.7239 -2.4799 -1.8486
   79SOPE  H18T 7148   3.030   0.493   4.285 -0.0921  0.0166 -0.1885
   79SOPE   C33 7149   2.842   0.563   6.250  0.0097  0.0673  0.3334
   79SOPE   H3X 7150   2.898   0.639   6.309 -1.5003  1.9864 -0.5823
   79SOPE   H3Y 7151   2.745   0.615   6.233 -0.4893 -0.0582  2.4165
   79SOPE   C34 7152   2.906   0.514   6.117 -0.3329 -0.0329 -0.3227
   79SOPE   H4X 7153   2.935   0.594   6.044  0.2182  0.3815  0.3299
   79SOPE   H4Y 7154   2.823   0.462   6.065 -1.1434 -0.9292  1.7956
   79SOPE   C35 7155   3.027   0.418   6.142  0.0616  0.2224 -0.0635
   79SOPE   H5X 7156   2.980   0.324   6.179  2.2495 -1.1618 -0.5967
   79SOPE   H5Y 7157   3.092   0.438   6.229  1.9692  2.4611 -1.8570
   79SOPE   C36 7158   3.123   0.402   6.024  0.7464  0.1467  0.7622
   79SOPE   H6X 7159   3.203   0.328   6.046  0.5690 -0.4651 -0.5511
   79SOPE   H6Y 7160   3.167   0.501   6.000 -0.1220 -0.1869 -2.7175
   79SOPE   C37 7161   3.044   0.369   5.893  0.1244 -0.5506 -0.3471
   79SOPE   H7X 7162   2.968   0.446   5.869  1.1010  0.5263 -0.0611
   79SOPE   H7Y 7163   2.994   0.273   5.916 -2.6588  1.0260  0.6560
   79SOPE   C38 7164   3.137   0.351   5.775 -0.4322  0.2169  0.3473
   79SOPE   H8X 7165   3.207   0.275   5.816 -0.4344 -0.2856 -0.5397
   79SOPE   H8Y 7166   3.188   0.449   5.758 -0.9393  0.6549  1.2892
   79SOPE   C39 7167   3.056   0.317   5.647 -0.2157 -0.7415  0.3209
   79SOPE   H9X 7168   2.984   0.399   5.627  1.1374 -0.0967 -2.5144
   79SOPE   H9Y 7169   2.996   0.225   5.662 -2.9416  0.5272 -1.7974
   79SOPE  C310 7170   3.138   0.309   5.519 -0.0457 -0.1733  0.1678
   79SOPE  H10X 7171   3.221   0.237   5.538  1.4953  1.1412 -1.3672
   79SOPE  H10Y 7172   3.186   0.403   5.485  2.4103 -1.5248 -0.3841
   79SOPE  C311 7173   3.058   0.250   5.394  0.1885 -0.6024  0.8337
   79SOPE  H11X 7174   3.012   0.340   5.347  0.8287 -0.4840  0.4043
   79SOPE  H11Y 7175   2.979   0.174   5.411 -0.0308 -0.3585  0.9035
   79SOPE  C312 7176   3.150   0.193   5.294  0.3204 -0.2563  0.5001
   79SOPE  H12X 7177   3.098   0.120   5.228  0.0931  0.7691 -0.4814
   79SOPE  H12Y 7178   3.234   0.141   5.346  0.2651  0.4454  1.3003
   79SOPE  C313 7179   3.220   0.300   5.198  0.0275  0.5610  0.1768
   79SOPE  H13X 7180   3.307   0.263   5.139 -2.6690 -1.0000 -3.1374
   79SOPE  H13Y 7181   3.250   0.384   5.265 -0.7144  1.5351 -0.6706
   79SOPE  C314 7182   3.126   0.342   5.085 -0.5196 -0.4058 -0.2186
   79SOPE  H14X 7183   3.041   0.399   5.129 -0.4641 -0.1039 -0.5020
   79SOPE  H14Y 7184   3.103   0.257   5.017 -1.1793 -0.4993  0.1184
   79SOPE  C315 7185   3.199   0.453   5.005 -0.1024 -0.5649 -0.5428
   79SOPE  H15X 7186   3.227   0.537   5.073  0.6212 -0.7531 -0.5992
   79SOPE  H15Y 7187   3.125   0.487   4.930 -3.0888 -3.6390  0.7308
   79SOPE  C316 7188   3.320   0.396   4.921  0.7234  0.0218 -0.5168
   79SOPE  H16X 7189   3.264   0.311   4.875 -4.1764  1.4290  2.0649
   79SOPE  H16Y 7190   3.405   0.363   4.984  0.7198  1.8162  0.4859
   79SOPE  C317 7191   3.362   0.497   4.815 -0.6137 -0.5014 -1.0039
   79SOPE  H17X 7192   3.293   0.497   4.728 -3.5205 -2.2782  1.1373
   79SOPE  H17Y 7193   3.459   0.461   4.774  0.6518 -0.0410  1.3842
   79SOPE  C318 7194   3.366   0.649   4.861 -0.4411 -0.4887  0.4187
   79SOPE  H18X 7195   3.266   0.696   4.856 -0.1946 -0.0662 -1.6660
   79SOPE  H18Y 7196   3.419   0.713   4.787 -0.4830 -0.3596  0.5017
   79SOPE  H18Z 7197   3.405   0.658   4.964  2.4161  0.6781 -0.6488
   80SOPE     N 7198   1.170   3.670   6.648 -0.8371 -0.1281  0.4266
   80SOPE   HN1 7199   1.146   3.612   6.730  1.5598 -0.7084  0.7781
   80SOPE   HN2 7200   1.253   3.624   6.605 -0.6674 -1.5115  2.1657
   80SOPE   HN3 7201   1.183   3.772   6.663  1.1992 -0.2180 -0.3172
   80SOPE   C12 7202   1.063   3.663   6.544 -0.7600 -0.0705  0.9072
   80SOPE  H12A 7203   1.106   3.689   6.445  1.4239 -0.1315  1.7738
   80SOPE  H12B 7204   0.979   3.731   6.568  0.4522  1.4866  0.9543
   80SOPE   C11 7205   1.017   3.516   6.543  0.2956 -0.4329  0.3807
   80SOPE  H11A 7206   1.107   3.451   6.542 -0.7642 -1.9500 -0.2833
   80SOPE  H11B 7207   0.959   3.507   6.448 -0.1295 -1.1970  0.7027
   80SOPE     P 7208   0.913   3.315   6.663 -0.2995  0.2171 -0.5072
   80SOPE   O13 7209   0.783   3.290   6.604  0.2671 -0.1183 -0.1278
   80SOPE   O14 7210   0.921   3.284   6.807 -0.3135 -0.0912 -0.1530
   80SOPE   O12 7211   0.936   3.474   6.653 -0.4192 -0.0779  0.1131
   80SOPE   O11 7212   1.020   3.237   6.575  0.4306 -0.0135  0.1033
   80SOPE    C1 7213   1.142   3.192   6.631 -0.5611 -0.0194 -0.1912
   80SOPE    HA 7214   1.109   3.126   6.714  1.8824 -1.2360 -0.0916
   80SOPE    HB 7215   1.198   3.284   6.656  3.6448 -1.4944 -3.0084
   80SOPE    C2 7216   1.239   3.112   6.527  0.5769  0.2657 -0.2285
   80SOPE    HS 7217   1.264   3.179   6.443  0.6731  0.3917 -0.1011
   80SOPE   O21 7218   1.160   3.009   6.469 -0.1074 -0.0817  0.3231
   80SOPE   C21 7219   1.096   3.037   6.362  0.0934  0.7161  0.0364
   80SOPE   O22 7220   1.089   3.143   6.298 -0.9795  0.8074 -0.3941
   80SOPE   C22 7221   1.022   2.910   6.320 -0.0699 -0.1890 -0.1195
   80SOPE   H2R 7222   0.940   2.912   6.395  0.7902  0.3170  0.8360
   80SOPE   H2S 7223   1.090   2.825   6.340 -0.6414 -0.6443 -0.0810
   80SOPE    C3 7224   1.357   3.045   6.594 -0.6826 -0.1398  0.4863
   80SOPE    HX 7225   1.313   2.971   6.663 -3.2655 -0.7347 -1.6233
   80SOPE    HY 7226   1.426   3.112   6.649  0.8170  0.2527 -1.7142
   80SOPE   O31 7227   1.430   2.969   6.499 -0.3241 -0.0546  0.3343
   80SOPE   C31 7228   1.519   3.038   6.427 -0.2681  0.0726 -1.1700
   80SOPE   O32 7229   1.555   3.152   6.443  0.2681 -0.6002 -0.0287
   80SOPE   C32 7230   1.548   2.973   6.297  0.6455 -0.1964  0.1610
   80SOPE   H2X 7231   1.453   2.934   6.254 -0.1964 -1.4884  2.9597
   80SOPE   H2Y 7232   1.615   2.887   6.315  0.5626 -0.4319 -0.5990
   80SOPE   C23 7233   0.965   2.920   6.174  0.2611  0.5930 -0.1898
   80SOPE   H3R 7234   0.914   3.017   6.154 -0.9739  0.1784  0.8145
   80SOPE   H3S 7235   0.883   2.845   6.165  0.0441  0.7008  0.7969
   80SOPE   C24 7236   1.065   2.894   6.058  0.5998  0.2757 -0.1881
   80SOPE   H4R 7237   1.151   2.963   6.064  0.0889  0.9323 -0.2678
   80SOPE   H4S 7238   1.099   2.788   6.062 -2.1241 -0.6703  0.1317
   80SOPE   C25 7239   1.003   2.923   5.923  0.4819  0.0190  0.7269
   80SOPE   H5R 7240   0.905   2.873   5.906  1.4126 -0.8108 -3.3334
   80SOPE   H5S 7241   1.002   3.033   5.911  0.6192  0.0719  1.2151
   80SOPE   C26 7242   1.090   2.866   5.816  0.1384 -0.3344 -0.0598
   80SOPE   H6R 7243   1.183   2.926   5.807 -0.6874  1.2923  1.4982
   80SOPE   H6S 7244   1.121   2.767   5.857  1.5667  0.7161  1.5706
   80SOPE   C27 7245   1.023   2.849   5.676 -0.3447  0.2432  0.0060
   80SOPE   H7R 7246   1.083   2.774   5.620 -0.3105  0.3210 -0.0619
   80SOPE   H7S 7247   0.920   2.811   5.693 -1.0977  1.9350 -0.5414
   80SOPE   C28 7248   0.993   2.969   5.585 -0.0694 -0.7629 -0.2511
   80SOPE   H8R 7249   0.927   2.942   5.501 -0.9438 -0.3715  0.2958
   80SOPE   H8S 7250   0.957   3.058   5.641  2.4376  0.4077 -0.3666
   80SOPE   C29 7251   1.125   3.006   5.524  0.2080  0.2108  0.2597
   80SOPE   H91 7252   1.190   3.072   5.583  0.3262  1.5336 -1.3046
   80SOPE  C210 7253   1.173   2.966   5.407 -0.0075  0.3558  0.5776
   80SOPE  H101 7254   1.268   3.009   5.373  0.4698 -0.7793  0.4155
   80SOPE  C211 7255   1.105   2.880   5.304  0.6201 -0.6890 -0.6124
   80SOPE  H11R 7256   1.028   2.821   5.358 -0.5634  2.4475  1.3923
   80SOPE  H11S 7257   1.178   2.810   5.258 -0.4147 -2.5446  0.4810
   80SOPE  C212 7258   1.043   2.970   5.184 -0.0028  0.0751  0.5295
   80SOPE  H12R 7259   1.135   3.011   5.137  0.8870 -0.7495  1.5043
   80SOPE  H12S 7260   0.982   3.046   5.238 -2.7944 -1.1720 -0.6884
   80SOPE  C213 7261   0.954   2.890   5.086  0.0864 -0.7590  0.3933
   80SOPE  H13R 7262   0.883   2.830   5.147 -0.8375 -0.0513  0.0247
   80SOPE  H13S 7263   1.011   2.817   5.025  1.1828  0.8095 -0.5364
   80SOPE  C214 7264   0.887   2.983   4.980 -0.7285 -1.3279 -0.1054
   80SOPE  H14R 7265   0.850   3.074   5.031  0.5917 -0.2242 -1.0612
   80SOPE  H14S 7266   0.816   2.911   4.934 -1.3198 -1.0781  0.4134
   80SOPE  C215 7267   0.978   3.040   4.873 -0.1894  0.0256  0.6585
   80SOPE  H15R 7268   1.055   3.107   4.917  1.1235 -1.9745  1.5463
   80SOPE  H15S 7269   0.930   3.110   4.802 -0.5379 -2.4607 -1.6889
   80SOPE  C216 7270   1.044   2.929   4.780 -0.6013  0.0723 -0.4347
   80SOPE  H16R 7271   0.968   2.908   4.702 -0.0184 -2.1979 -0.4466
   80SOPE  H16S 7272   1.065   2.833   4.832  0.6756  0.7984  0.4505
   80SOPE  C217 7273   1.180   2.967   4.724  0.1672 -0.5583 -0.5209
   80SOPE  H17R 7274   1.225   2.887   4.662  0.9331 -0.1215 -0.5366
   80SOPE  H17S 7275   1.252   2.970   4.809  0.6819 -1.4972 -0.9062
   80SOPE  C218 7276   1.180   3.093   4.641  0.3773  0.1085  0.5985
   80SOPE  H18R 7277   1.101   3.084   4.564  1.4131  0.3510 -0.5200
   80SOPE  H18S 7278   1.277   3.101   4.589 -0.3905  1.0754 -0.7286
   80SOPE  H18T 7279   1.156   3.187   4.695 -2.2529  1.4813 -2.6684
   80SOPE   C33 7280   1.616   3.066   6.195 -0.0437 -0.2796 -0.4940
   80SOPE   H3X 7281   1.659   3.011   6.108  1.4263  0.9916 -0.6087
   80SOPE   H3Y 7282   1.699   3.127   6.237 -0.8690  0.4829  0.0475
   80SOPE   C34 7283   1.505   3.159   6.141  0.0691 -0.1212 -0.0287
   80SOPE   H4X 7284   1.455   3.226   6.213  0.8899  0.2977  0.1591
   80SOPE   H4Y 7285   1.428   3.087   6.104  0.5267 -0.8379  0.3995
   80SOPE   C35 7286   1.544   3.243   6.024  0.2717  0.2734 -0.4378
   80SOPE   H5X 7287   1.608   3.330   6.051  0.1522 -0.0476  0.9064
   80SOPE   H5Y 7288   1.446   3.288   5.994 -1.1517 -2.1739  0.2777
   80SOPE   C36 7289   1.575   3.176   5.892  0.2731 -0.4921 -0.3960
   80SOPE   H6X 7290   1.655   3.099   5.901  0.3003 -0.5687 -1.1777
   80SOPE   H6Y 7291   1.613   3.261   5.831 -0.4934  0.4833  0.4682
   80SOPE   C37 7292   1.453   3.127   5.818  0.7210 -0.2351  0.1083
   80SOPE   H7X 7293   1.381   3.210   5.802  0.9629  0.0606  0.5430
   80SOPE   H7Y 7294   1.405   3.050   5.882 -3.5896  0.6055 -1.7568
   80SOPE   C38 7295   1.492   3.074   5.684  0.3294 -0.2171 -0.1292
   80SOPE   H8X 7296   1.402   3.038   5.630 -0.1782  0.6157  0.1534
   80SOPE   H8Y 7297   1.561   2.987   5.694  1.5749  0.5299 -1.6908
   80SOPE   C39 7298   1.551   3.176   5.585  0.7257 -0.1128 -0.6967
   80SOPE   H9X 7299   1.655   3.187   5.625  0.8230 -1.5760 -0.4751
   80SOPE   H9Y 7300   1.498   3.273   5.584  2.1173  0.6735 -1.7080
   80SOPE  C310 7301   1.566   3.123   5.442  0.5036 -0.1182 -0.1657
   80SOPE  H10X 7302   1.465   3.082   5.421 -1.0343  1.9213  2.5039
   80SOPE  H10Y 7303   1.622   3.027   5.445  1.6600  0.4477 -2.2012
   80SOPE  C311 7304   1.599   3.227   5.336 -0.2362 -0.7791 -0.4282
   80SOPE  H11X 7305   1.708   3.249   5.347 -0.4229 -0.9808  2.3073
   80SOPE  H11Y 7306   1.532   3.313   5.353 -2.3853 -2.6142  0.8457
   80SOPE  C312 7307   1.577   3.185   5.189  0.2831 -0.0049  0.1306
   80SOPE  H12X 7308   1.468   3.178   5.168 -0.1159  1.1761  1.6036
   80SOPE  H12Y 7309   1.632   3.089   5.178  2.2894  0.7278  2.6919
   80SOPE  C313 7310   1.652   3.282   5.092 -0.1552 -0.1006  0.1913
   80SOPE  H13X 7311   1.745   3.310   5.146 -0.7408 -1.1868  1.8427
   80SOPE  H13Y 7312   1.598   3.378   5.081  1.0126  0.4060 -1.4738
   80SOPE  C314 7313   1.675   3.201   4.963  0.8893 -0.5048  0.0047
   80SOPE  H14X 7314   1.728   3.105   4.983  0.5274 -0.7947 -0.4397
   80SOPE  H14Y 7315   1.748   3.255   4.899  0.5453 -0.7593 -0.6063
   80SOPE  C315 7316   1.547   3.173   4.885 -0.1838  0.7434 -0.1836
   80SOPE  H15X 7317   1.467   3.249   4.892 -0.2238  0.5986  1.3740
   80SOPE  H15Y 7318   1.515   3.079   4.934  0.4225 -0.1604 -1.4612
   80SOPE  C316 7319   1.582   3.134   4.735 -0.1111 -0.4665  0.8101
   80SOPE  H16X 7320   1.497   3.082   4.684 -1.8733  2.1646  0.8644
   80SOPE  H16Y 7321   1.679   3.081   4.733  0.1100 -0.0635 -0.4374
   80SOPE  C317 7322   1.596   3.268   4.654  0.0540 -0.0684  0.1047
   80SOPE  H17X 7323   1.660   3.344   4.704  1.0527  0.6012 -2.0574
   80SOPE  H17Y 7324   1.501   3.324   4.660 -0.2535 -0.3974 -1.2751
   80SOPE  C318 7325   1.625   3.250   4.502  0.1974 -0.2518 -0.3194
   80SOPE  H18X 7326   1.540   3.194   4.458  1.3952 -2.9743  0.5961
   80SOPE  H18Y 7327   1.710   3.178   4.502 -0.5611 -1.2059  1.8162
   80SOPE  H18Z 7328   1.670   3.340   4.455  0.6136  0.5933  1.6376
   81SOPE     N 7329   4.966   5.554   6.885  0.2987  0.4580 -0.1933
   81SOPE   HN1 7330   5.037   5.481   6.862  0.7254  0.5948  0.6496
   81SOPE   HN2 7331   5.011   5.615   6.956 -0.4967  0.2665  0.4929
   81SOPE   HN3 7332   4.894   5.500   6.938  1.9813 -1.6799  0.0701
   81SOPE   C12 7333   4.932   5.625   6.759 -0.6162 -0.4461  0.1773
   81SOPE  H12A 7334   4.885   5.558   6.684 -0.2532  0.9857 -1.3879
   81SOPE  H12B 7335   5.023   5.659   6.705 -1.9105 -0.6618 -2.2509
   81SOPE   C11 7336   4.839   5.744   6.790 -0.0783  0.3053  0.1685
   81SOPE  H11A 7337   4.836   5.817   6.706 -1.3294 -0.0880 -0.1477
   81SOPE  H11B 7338   4.894   5.804   6.866 -0.7180  0.1921  0.7291
   81SOPE     P 7339   4.610   5.813   6.859  0.0404 -0.2311  0.0847
   81SOPE   O13 7340   4.671   5.938   6.924  0.3916  0.1522  0.1955
   81SOPE   O14 7341   4.494   5.749   6.913  0.1011  0.1546 -0.2211
   81SOPE   O12 7342   4.715   5.696   6.833  0.0496 -0.3154  0.6310
   81SOPE   O11 7343   4.578   5.862   6.713 -0.2565  0.4541 -0.3787
   81SOPE    C1 7344   4.469   5.798   6.638  0.5552  0.3074  0.7371
   81SOPE    HA 7345   4.408   5.879   6.592  0.7651  1.8447  3.0411
   81SOPE    HB 7346   4.396   5.746   6.703 -0.5364  1.0079  0.0995
   81SOPE    C2 7347   4.521   5.702   6.524  0.0622 -0.7151  0.3513
   81SOPE    HS 7348   4.605   5.643   6.567 -1.0516 -0.9559  2.3107
   81SOPE   O21 7349   4.563   5.784   6.410  0.7034  0.3355  0.6368
   81SOPE   C21 7350   4.685   5.773   6.358 -0.6833 -0.1255 -0.1451
   81SOPE   O22 7351   4.768   5.693   6.399  0.0978  0.8306  0.1756
   81SOPE   C22 7352   4.705   5.864   6.248 -0.1518 -0.3413 -0.7513
   81SOPE   H2R 7353   4.801   5.919   6.253  0.5255 -1.4843 -0.8655
   81SOPE   H2S 7354   4.618   5.933   6.243 -0.9124 -1.2931 -0.8317
   81SOPE    C3 7355   4.412   5.601   6.478  0.2798 -0.0269  0.0245
   81SOPE    HX 7356   4.326   5.660   6.441 -0.5340 -0.3733  1.2956
   81SOPE    HY 7357   4.361   5.552   6.564  1.7198  1.5150  1.8383
   81SOPE   O31 7358   4.476   5.504   6.395  0.1863 -0.6408 -0.0994
   81SOPE   C31 7359   4.478   5.534   6.265 -0.1637 -0.4640  0.1746
   81SOPE   O32 7360   4.420   5.626   6.210 -0.8192  0.0850 -0.9764
   81SOPE   C32 7361   4.549   5.436   6.180  0.4709 -0.0952  0.6862
   81SOPE   H2X 7362   4.531   5.336   6.224  0.5097 -0.3013  0.2476
   81SOPE   H2Y 7363   4.656   5.467   6.191 -0.3080  3.5657 -0.3617
   81SOPE   C23 7364   4.702   5.784   6.116  0.4713 -0.0794  0.4850
   81SOPE   H3R 7365   4.663   5.845   6.031  1.0577 -1.9821 -1.2281
   81SOPE   H3S 7366   4.641   5.692   6.123 -0.3767  0.3741 -0.6719
   81SOPE   C24 7367   4.840   5.725   6.075 -0.3244  0.1813 -0.2045
   81SOPE   H4R 7368   4.901   5.802   6.023 -1.8102  2.0493  0.6644
   81SOPE   H4S 7369   4.890   5.686   6.166  0.0749  0.5321 -0.2697
   81SOPE   C25 7370   4.832   5.620   5.967  0.3541  0.1891 -0.4652
   81SOPE   H5R 7371   4.932   5.589   5.931 -0.0258 -1.0516 -0.4818
   81SOPE   H5S 7372   4.785   5.530   6.012 -0.4150  0.8068 -0.0082
   81SOPE   C26 7373   4.753   5.668   5.846 -0.1405 -0.7365  0.0939
   81SOPE   H6R 7374   4.646   5.673   5.873 -0.6696 -1.7033 -1.6615
   81SOPE   H6S 7375   4.764   5.775   5.816 -0.2437 -0.5202  0.8192
   81SOPE   C27 7376   4.776   5.578   5.726  0.0901 -0.0800  0.2440
   81SOPE   H7R 7377   4.880   5.602   5.695 -0.1019 -0.9104 -1.1648
   81SOPE   H7S 7378   4.760   5.471   5.752  1.1627 -0.2318  0.2910
   81SOPE   C28 7379   4.661   5.615   5.624 -0.5229 -0.0139  0.4936
   81SOPE   H8R 7380   4.664   5.537   5.545 -1.4653  2.1020 -1.7456
   81SOPE   H8S 7381   4.561   5.616   5.672 -1.2962 -0.0904 -1.0669
   81SOPE   C29 7382   4.691   5.748   5.552 -0.0971  0.1638 -0.6029
   81SOPE   H91 7383   4.772   5.811   5.592  0.3381 -1.5723  1.4451
   81SOPE  C210 7384   4.616   5.799   5.454 -0.2548  0.0374 -0.0274
   81SOPE  H101 7385   4.659   5.889   5.406  0.9533  0.5914  1.9733
   81SOPE  C211 7386   4.481   5.740   5.402 -0.2509  0.2807  0.0994
   81SOPE  H11R 7387   4.390   5.803   5.412  0.3486  0.8975  2.3273
   81SOPE  H11S 7388   4.460   5.646   5.459  1.2401 -0.7590 -0.9871
   81SOPE  C212 7389   4.485   5.694   5.256  0.2251 -0.9131 -0.3910
   81SOPE  H12R 7390   4.398   5.628   5.234  0.0027  0.1030 -2.9063
   81SOPE  H12S 7391   4.580   5.639   5.241  0.7413  0.1064 -1.0152
   81SOPE  C213 7392   4.476   5.806   5.155 -0.3560  0.6895 -0.5742
   81SOPE  H13R 7393   4.555   5.882   5.170 -0.5906  0.4450  2.3596
   81SOPE  H13S 7394   4.383   5.863   5.178 -1.8019 -1.9875  0.6500
   81SOPE  C214 7395   4.469   5.745   5.020 -0.1084 -0.1911  0.6863
   81SOPE  H14R 7396   4.398   5.659   5.011  0.3639 -0.5591  0.4399
   81SOPE  H14S 7397   4.568   5.704   4.991 -0.5566 -0.5511 -0.3910
   81SOPE  C215 7398   4.423   5.849   4.917 -0.3356  0.0095 -0.2603
   81SOPE  H15R 7399   4.512   5.916   4.919  0.5667 -1.1654  0.4239
   81SOPE  H15S 7400   4.335   5.905   4.954 -0.4614 -0.1104 -0.3798
   81SOPE  C216 7401   4.406   5.780   4.781  0.6067 -0.0566  0.5248
   81SOPE  H16R 7402   4.317   5.714   4.782  1.4944 -1.2834  0.1829
   81SOPE  H16S 7403   4.489   5.717   4.743 -0.4518 -2.1489  1.5471
   81SOPE  C217 7404   4.394   5.882   4.667 -0.1558  0.4773  0.5637
   81SOPE  H17R 7405   4.485   5.945   4.669 -0.0790  0.3548  1.1253
   81SOPE  H17S 7406   4.306   5.948   4.683 -1.3279 -1.2135  1.4549
   81SOPE  C218 7407   4.374   5.823   4.524 -0.0845  0.2513  0.2982
   81SOPE  H18R 7408   4.384   5.913   4.459  1.2380 -1.2969 -1.7576
   81SOPE  H18S 7409   4.278   5.767   4.523  0.7872 -1.4989  3.3046
   81SOPE  H18T 7410   4.457   5.753   4.504 -0.3136 -0.5064  1.8337
   81SOPE   C33 7411   4.496   5.441   6.040 -0.8442  0.6579 -0.0544
   81SOPE   H3X 7412   4.535   5.526   5.980 -1.8140  1.2923  0.1778
   81SOPE   H3Y 7413   4.384   5.441   6.039 -0.8656 -0.7070 -0.1241
   81SOPE   C34 7414   4.517   5.312   5.962  0.8566  0.8346  0.5274
   81SOPE   H4X 7415   4.473   5.223   6.011 -2.7366  0.9459 -2.0997
   81SOPE   H4Y 7416   4.628   5.303   5.966  0.7368 -0.3645  2.2912
   81SOPE   C35 7417   4.464   5.309   5.815 -0.1972 -0.5677 -0.3977
   81SOPE   H5X 7418   4.494   5.407   5.771  3.1401 -0.0170  2.5695
   81SOPE   H5Y 7419   4.353   5.302   5.814 -0.2672 -0.7545  1.8796
   81SOPE   C36 7420   4.532   5.200   5.737  0.6267  0.0217  0.1375
   81SOPE   H6X 7421   4.494   5.105   5.779 -1.1455  0.5437 -0.1990
   81SOPE   H6Y 7422   4.642   5.208   5.751  1.0980  0.2506 -3.0480
   81SOPE   C37 7423   4.482   5.191   5.594  0.6880  0.6747  0.3431
   81SOPE   H7X 7424   4.370   5.195   5.597  0.3259 -1.4683 -3.7142
   81SOPE   H7Y 7425   4.489   5.086   5.558 -2.6703  0.1493  0.8645
   81SOPE   C38 7426   4.530   5.292   5.487  0.4324 -0.4549 -0.5570
   81SOPE   H8X 7427   4.640   5.303   5.479  0.4497  0.2070  0.5224
   81SOPE   H8Y 7428   4.488   5.389   5.521  1.5637 -0.3662  0.6724
   81SOPE   C39 7429   4.474   5.265   5.345  0.2701 -0.7205  0.5127
   81SOPE   H9X 7430   4.403   5.347   5.323 -2.1929 -2.6258  0.9581
   81SOPE   H9Y 7431   4.423   5.166   5.348  0.3178 -0.8185 -1.0079
   81SOPE  C310 7432   4.591   5.276   5.247  0.0030  0.1564  0.1174
   81SOPE  H10X 7433   4.666   5.198   5.272 -1.7604 -1.5043  0.4602
   81SOPE  H10Y 7434   4.633   5.379   5.249  3.1429 -1.0152 -0.1010
   81SOPE  C311 7435   4.554   5.241   5.105 -0.2628 -0.7161  0.4430
   81SOPE  H11X 7436   4.475   5.310   5.067  0.8478 -1.1965 -3.1147
   81SOPE  H11Y 7437   4.523   5.134   5.105 -0.4731 -0.7075 -1.8338
   81SOPE  C312 7438   4.678   5.246   5.008 -0.3674 -0.3383  0.9242
   81SOPE  H12X 7439   4.751   5.170   5.043  2.0349  0.8402 -1.2082
   81SOPE  H12Y 7440   4.734   5.342   5.002 -1.2281  0.1411  0.2197
   81SOPE  C313 7441   4.634   5.203   4.867  0.1195  0.4434  0.7233
   81SOPE  H13X 7442   4.564   5.117   4.872 -0.1681  0.6800  0.7975
   81SOPE  H13Y 7443   4.716   5.170   4.799 -0.7134  0.4735 -0.3306
   81SOPE  C314 7444   4.553   5.308   4.789  0.8972 -0.4547  0.6280
   81SOPE  H14X 7445   4.617   5.399   4.784  0.5541 -0.2505 -0.1271
   81SOPE  H14Y 7446   4.462   5.333   4.847 -0.3148 -0.2078 -1.2902
   81SOPE  C315 7447   4.501   5.285   4.650 -0.2785  0.0336  0.0734
   81SOPE  H15X 7448   4.444   5.189   4.641 -1.8570  1.0820 -1.8773
   81SOPE  H15Y 7449   4.588   5.268   4.582 -0.6412  2.3586 -1.0389
   81SOPE  C316 7450   4.421   5.405   4.595  0.7644  0.0522  0.3283
   81SOPE  H16X 7451   4.486   5.495   4.593  1.3179 -0.3459 -0.4891
   81SOPE  H16Y 7452   4.344   5.438   4.667 -0.1429 -1.1521 -0.0592
   81SOPE  C317 7453   4.351   5.385   4.464 -0.3806  0.7049 -0.2271
   81SOPE  H17X 7454   4.287   5.294   4.472  0.2375  0.2674 -0.1862
   81SOPE  H17Y 7455   4.410   5.361   4.374  0.1345 -1.2402  0.5766
   81SOPE  C318 7456   4.244   5.496   4.436 -0.0914 -0.1310 -0.1673
   81SOPE  H18X 7457   4.195   5.479   4.337 -2.8522 -1.2734  1.2860
   81SOPE  H18Y 7458   4.298   5.592   4.425  2.6311 -1.6478 -1.0458
   81SOPE  H18Z 7459   4.161   5.496   4.510  0.7013  2.5769  0.7944
   82SOPE     N 7460   2.702   4.464   6.632 -0.1091 -0.1633  1.3474
   82SOPE   HN1 7461   2.614   4.501   6.673 -0.4933  0.0048  0.3894
   82SOPE   HN2 7462   2.704   4.361   6.614  0.7459 -0.2207  1.6824
   82SOPE   HN3 7463   2.770   4.484   6.709 -1.7587  1.8999  2.3567
   82SOPE   C12 7464   2.718   4.544   6.505  0.2630  0.6962 -0.1539
   82SOPE  H12A 7465   2.644   4.626   6.503 -0.1734  0.3059 -2.3289
   82SOPE  H12B 7466   2.692   4.479   6.418  1.8202  0.6843 -0.6521
   82SOPE   C11 7467   2.865   4.587   6.483  0.2216  0.1287 -0.0240
   82SOPE  H11A 7468   2.869   4.605   6.373 -1.3422 -3.5123 -0.8298
   82SOPE  H11B 7469   2.935   4.501   6.496  1.7872  1.3318 -0.2202
   82SOPE     P 7470   2.842   4.839   6.531  0.2729  0.3474 -0.1003
   82SOPE   O13 7471   2.935   4.945   6.582 -0.1835  0.4970 -0.3816
   82SOPE   O14 7472   2.699   4.841   6.581  0.1543 -0.0430  0.4165
   82SOPE   O12 7473   2.900   4.700   6.572 -0.7680 -0.3993  0.5981
   82SOPE   O11 7474   2.842   4.830   6.373 -0.5332  0.1902  0.4448
   82SOPE    C1 7475   2.939   4.865   6.281  0.5395  0.4127 -0.1752
   82SOPE    HA 7476   2.966   4.778   6.218  1.0439  0.3717  0.0938
   82SOPE    HB 7477   3.029   4.919   6.316  0.5528  0.0999  0.2757
   82SOPE    C2 7478   2.895   4.978   6.191  0.4155 -0.1432  0.0197
   82SOPE    HS 7479   2.872   5.059   6.263 -1.3728 -1.0684  0.5503
   82SOPE   O21 7480   2.774   4.946   6.116  0.6588  0.2941  0.5928
   82SOPE   C21 7481   2.684   5.037   6.085 -0.0381 -0.0543 -0.0923
   82SOPE   O22 7482   2.672   5.147   6.133 -0.3368  0.6479 -0.5825
   82SOPE   C22 7483   2.595   4.984   5.976  0.0346  0.0657  0.0776
   82SOPE   H2R 7484   2.489   5.008   5.998 -0.5521 -1.3436 -1.0355
   82SOPE   H2S 7485   2.605   4.873   5.969 -0.7635  0.0348 -0.8446
   82SOPE    C3 7486   2.998   5.033   6.090  0.3280  0.3166 -0.2089
   82SOPE    HX 7487   3.032   4.948   6.027  0.2872  0.7508 -0.8319
   82SOPE    HY 7488   3.081   5.074   6.151  2.0581  2.0457 -3.4228
   82SOPE   O31 7489   2.937   5.130   5.999  0.2011 -0.0284 -0.4325
   82SOPE   C31 7490   3.009   5.232   5.963 -0.9784 -0.2898  0.0888
   82SOPE   O32 7491   3.118   5.256   6.020  0.3331 -0.1004  0.1709
   82SOPE   C32 7492   2.954   5.307   5.842 -0.2711  0.4837 -0.1326
   82SOPE   H2X 7493   2.951   5.416   5.861  2.6625  0.9780 -1.8484
   82SOPE   H2Y 7494   2.849   5.278   5.821 -0.4518  0.3643  0.8795
   82SOPE   C23 7495   2.614   5.037   5.831 -0.6103  0.3310  0.4594
   82SOPE   H3R 7496   2.724   5.048   5.817 -0.7412  0.9441 -0.1238
   82SOPE   H3S 7497   2.574   5.140   5.820 -0.7913  0.2368  0.2396
   82SOPE   C24 7498   2.555   4.937   5.725  1.4530 -0.6420 -0.4326
   82SOPE   H4R 7499   2.633   4.862   5.699  1.2360 -1.0211 -0.0078
   82SOPE   H4S 7500   2.468   4.884   5.768  0.2224  1.6319  0.0790
   82SOPE   C25 7501   2.499   4.995   5.593  0.2771  0.2572 -0.3861
   82SOPE   H5R 7502   2.431   4.915   5.557 -0.8614  0.3365  1.4365
   82SOPE   H5S 7503   2.432   5.081   5.616  0.0574  0.1810 -0.7400
   82SOPE   C26 7504   2.616   5.034   5.497  0.3725 -0.4565 -0.5981
   82SOPE   H6R 7505   2.688   5.096   5.555 -2.3745  1.6298  0.8806
   82SOPE   H6S 7506   2.659   4.941   5.457 -0.6303 -0.4374 -1.7725
   82SOPE   C27 7507   2.571   5.109   5.380  0.5117  0.2082  0.1490
   82SOPE   H7R 7508   2.496   5.048   5.324  0.5410 -0.6093  0.9836
   82SOPE   H7S 7509   2.520   5.204   5.406 -0.8672  0.3108 -2.5458
   82SOPE   C28 7510   2.670   5.142   5.270 -0.0433 -0.6576 -0.1128
   82SOPE   H8R 7511   2.611   5.207   5.203 -0.1584  0.1204  0.7171
   82SOPE   H8S 7512   2.753   5.205   5.310  0.2810 -1.3631  0.3703
   82SOPE   C29 7513   2.734   5.008   5.221  0.1847  0.4402  0.4706
   82SOPE   H91 7514   2.806   4.952   5.282  0.2639 -3.6030 -2.9171
   82SOPE  C210 7515   2.702   4.954   5.102  0.1150 -0.2199 -0.2805
   82SOPE  H101 7516   2.741   4.855   5.075  3.9466  1.2783 -0.8216
   82SOPE  C211 7517   2.595   5.000   5.003  0.2185 -0.6203  0.6874
   82SOPE  H11R 7518   2.632   5.087   4.946 -2.2090  0.4533  0.6234
   82SOPE  H11S 7519   2.500   5.022   5.058  0.5435  2.3768  0.1856
   82SOPE  C212 7520   2.552   4.894   4.898  0.0330 -0.7053 -0.0217
   82SOPE  H12R 7521   2.461   4.919   4.839 -0.2406  0.0352  0.6882
   82SOPE  H12S 7522   2.525   4.806   4.960  2.1047 -0.3394  1.5136
   82SOPE  C213 7523   2.665   4.852   4.801  0.1671 -0.2236 -0.5362
   82SOPE  H13R 7524   2.735   4.807   4.875  1.7605  2.1632 -0.4549
   82SOPE  H13S 7525   2.716   4.937   4.751 -1.5212 -0.0836 -2.0964
   82SOPE  C214 7526   2.613   4.736   4.708 -0.0027 -0.1252  0.4320
   82SOPE  H14R 7527   2.561   4.786   4.625 -1.8879 -0.0705  1.5853
   82SOPE  H14S 7528   2.536   4.678   4.763 -0.3080 -0.2328 -0.1080
   82SOPE  C215 7529   2.724   4.642   4.665  0.3122  0.2177 -0.7010
   82SOPE  H15R 7530   2.773   4.595   4.753 -1.8215 -1.1658 -0.1615
   82SOPE  H15S 7531   2.799   4.699   4.607  0.2220  1.0084 -0.0523
   82SOPE  C216 7532   2.678   4.537   4.566  0.1259 -0.3779  0.6140
   82SOPE  H16R 7533   2.622   4.589   4.485  1.4911 -0.3017 -0.3129
   82SOPE  H16S 7534   2.606   4.469   4.615  0.5186 -0.9865  0.3696
   82SOPE  C217 7535   2.801   4.477   4.499 -0.0176 -0.0904  0.1973
   82SOPE  H17R 7536   2.871   4.442   4.578 -2.4321 -1.9839  1.6463
   82SOPE  H17S 7537   2.848   4.552   4.432 -1.8092 -0.3726 -1.4549
   82SOPE  C218 7538   2.756   4.359   4.410 -0.7920 -0.3712 -0.0657
   82SOPE  H18R 7539   2.724   4.271   4.470  1.6139 -0.9910  0.4000
   82SOPE  H18S 7540   2.854   4.354   4.358 -0.9380  0.6722 -0.4758
   82SOPE  H18T 7541   2.677   4.386   4.337 -0.8074  1.8471  0.6922
   82SOPE   C33 7542   3.041   5.281   5.714 -0.3799 -0.0454  0.1457
   82SOPE   H3X 7543   3.032   5.175   5.685 -1.8659  0.8077 -2.9119
   82SOPE   H3Y 7544   3.152   5.294   5.719 -0.0499 -2.3147 -0.1711
   82SOPE   C34 7545   2.989   5.365   5.602 -0.3349 -0.1221 -0.1124
   82SOPE   H4X 7546   3.005   5.467   5.644  1.9451 -0.2983 -0.4546
   82SOPE   H4Y 7547   2.882   5.336   5.594 -0.0809 -1.5214  1.2191
   82SOPE   C35 7548   3.058   5.353   5.463  0.8815  0.3105 -0.5100
   82SOPE   H5X 7549   3.162   5.392   5.468  2.4072 -3.3564 -0.3143
   82SOPE   H5Y 7550   3.003   5.408   5.384  1.8827  1.8087 -0.2124
   82SOPE   C36 7551   3.066   5.207   5.417 -0.0791 -0.2120 -0.3436
   82SOPE   H6X 7552   2.969   5.159   5.396  0.3680 -0.2401 -2.5324
   82SOPE   H6Y 7553   3.123   5.144   5.489  1.4861  0.6892 -0.7314
   82SOPE   C37 7554   3.135   5.195   5.277 -0.0964 -0.0847 -0.4479
   82SOPE   H7X 7555   3.243   5.220   5.284  0.0782 -0.6492 -1.0521
   82SOPE   H7Y 7556   3.081   5.265   5.210 -0.1929  1.4383  1.1394
   82SOPE   C38 7557   3.129   5.049   5.227  0.1962 -0.1804  0.3579
   82SOPE   H8X 7558   3.022   5.017   5.226  0.2339 -0.3021 -0.8914
   82SOPE   H8Y 7559   3.187   4.982   5.294 -2.0336 -1.7938  0.8291
   82SOPE   C39 7560   3.193   5.018   5.091 -0.2797  0.1810 -0.2737
   82SOPE   H9X 7561   3.299   5.050   5.094  0.2895 -1.6389  2.0809
   82SOPE   H9Y 7562   3.136   5.088   5.026 -0.3355 -0.3656 -0.8232
   82SOPE  C310 7563   3.183   4.873   5.048 -0.2098 -0.2479  0.2575
   82SOPE  H10X 7564   3.213   4.808   5.133  0.6806 -1.3315 -0.8439
   82SOPE  H10Y 7565   3.254   4.859   4.964 -0.8538 -0.3646 -0.2776
   82SOPE  C311 7566   3.047   4.834   4.997  0.1959  0.4814 -0.6649
   82SOPE  H11X 7567   3.009   4.911   4.926 -0.7976  0.5599 -0.0734
   82SOPE  H11Y 7568   2.976   4.840   5.082 -0.2394 -0.5151 -0.9521
   82SOPE  C312 7569   3.045   4.693   4.930 -0.0824  0.4402  0.2061
   82SOPE  H12X 7570   2.950   4.665   4.880  1.3782 -0.5634 -2.2419
   82SOPE  H12Y 7571   3.089   4.615   4.995  2.7449  1.2765 -0.5436
   82SOPE  C313 7572   3.117   4.709   4.791  0.1230  0.3886 -0.3674
   82SOPE  H13X 7573   3.226   4.705   4.816 -0.3364 -2.2239  1.6658
   82SOPE  H13Y 7574   3.072   4.798   4.741 -0.9701 -0.0810 -0.2376
   82SOPE  C314 7575   3.111   4.582   4.697  0.6495 -0.5766  0.3354
   82SOPE  H14X 7576   3.011   4.539   4.677  0.7429  0.1416 -1.9415
   82SOPE  H14Y 7577   3.181   4.506   4.739  0.0302 -1.5454 -0.3528
   82SOPE  C315 7578   3.161   4.629   4.555 -0.4796  0.4963  0.2138
   82SOPE  H15X 7579   3.268   4.658   4.560  0.1309 -1.7605  1.8860
   82SOPE  H15Y 7580   3.102   4.717   4.521 -1.0061 -0.8723 -2.6375
   82SOPE  C316 7581   3.150   4.525   4.442  1.0974 -0.0636 -0.7186
   82SOPE  H16X 7582   3.046   4.519   4.404 -0.0751  1.6189  1.9524
   82SOPE  H16Y 7583   3.151   4.431   4.501 -2.3742 -0.5943 -1.3167
   82SOPE  C317 7584   3.257   4.513   4.340  0.6004 -0.3490 -0.0061
   82SOPE  H17X 7585   3.255   4.405   4.312  1.7457 -0.3990  0.0399
   82SOPE  H17Y 7586   3.361   4.535   4.374  0.7283 -1.8815  0.7009
   82SOPE  C318 7587   3.226   4.602   4.212 -1.0464 -0.7038  0.6165
   82SOPE  H18X 7588   3.300   4.597   4.129 -0.1176  0.5543  1.3368
   82SOPE  H18Y 7589   3.219   4.710   4.236 -2.6803 -0.7501  0.4826
   82SOPE  H18Z 7590   3.126   4.572   4.172 -0.8480 -0.6290  0.0526
   83SOPE     N 7591   5.975   5.867   2.115  0.0953 -0.0783 -0.6598
   83SOPE   HN1 7592   5.932   5.787   2.065 -2.2221  0.4093  0.4308
   83SOPE   HN2 7593   6.077   5.861   2.093  0.2813 -1.4421  0.4545
   83SOPE   HN3 7594   5.974   5.853   2.219 -4.2955  1.1067 -0.3583
   83SOPE   C12 7595   5.924   5.993   2.066  0.6417 -0.0172 -0.0469
   83SOPE  H12A 7596   5.955   6.070   2.140  3.2545 -0.1656 -0.8796
   83SOPE  H12B 7597   5.814   5.982   2.059  0.7415 -0.1960 -1.4798
   83SOPE   C11 7598   5.984   6.024   1.931  0.2898  0.0770  0.3584
   83SOPE  H11A 7599   5.936   6.112   1.883 -2.0067 -1.4225 -0.1988
   83SOPE  H11B 7600   5.956   5.946   1.858 -1.5030  0.4745  0.5691
   83SOPE     P 7601   6.202   6.179   1.908 -0.0313  0.2496 -0.1458
   83SOPE   O13 7602   6.208   6.208   1.767  0.6566  0.0747 -0.1686
   83SOPE   O14 7603   6.329   6.188   1.974 -0.2790 -0.0369 -0.2663
   83SOPE   O12 7604   6.129   6.042   1.936 -0.3506  0.3103  0.3291
   83SOPE   O11 7605   6.105   6.282   1.980  0.6772  0.0597  0.1549
   83SOPE    C1 7606   6.138   6.381   2.087 -0.4652  0.0123  0.9682
   83SOPE    HA 7607   6.098   6.482   2.065 -1.3361 -0.5347 -0.0737
   83SOPE    HB 7608   6.246   6.406   2.077 -0.5375 -0.4543 -2.1241
   83SOPE    C2 7609   6.117   6.339   2.234 -0.9877  0.2699 -0.2026
   83SOPE    HS 7610   6.074   6.237   2.230 -0.7180  0.1919 -1.5074
   83SOPE   O21 7611   6.025   6.432   2.293  0.6737  0.1057 -0.2569
   83SOPE   C21 7612   5.897   6.399   2.287 -0.6221  0.6425  0.3496
   83SOPE   O22 7613   5.856   6.301   2.224 -0.6644  0.5956  0.0360
   83SOPE   C22 7614   5.809   6.505   2.359 -0.5212 -0.3159  0.4798
   83SOPE   H2R 7615   5.758   6.566   2.281 -2.2418 -2.7458 -0.4152
   83SOPE   H2S 7616   5.873   6.575   2.416  0.4844  0.5246 -1.5883
   83SOPE    C3 7617   6.243   6.345   2.326  0.1150  0.7323  1.2459
   83SOPE    HX 7618   6.284   6.448   2.327 -1.4375  1.4127 -0.0067
   83SOPE    HY 7619   6.327   6.286   2.285  1.0805  2.5927  0.4406
   83SOPE   O31 7620   6.212   6.303   2.458  0.1001 -0.1664  0.4874
   83SOPE   C31 7621   6.241   6.396   2.552  0.5629 -0.2697 -0.4140
   83SOPE   O32 7622   6.306   6.499   2.531 -0.1673 -0.3578 -0.0575
   83SOPE   C32 7623   6.168   6.365   2.689 -0.3069 -0.6875  0.1831
   83SOPE   H2X 7624   6.249   6.389   2.761 -0.2489  1.2198 -0.4638
   83SOPE   H2Y 7625   6.142   6.257   2.695  0.1086 -0.7770  0.3740
   83SOPE   C23 7626   5.701   6.447   2.446 -0.4741 -0.0976  0.4359
   83SOPE   H3R 7627   5.753   6.385   2.522  3.8110 -0.2394 -2.2256
   83SOPE   H3S 7628   5.650   6.369   2.385 -0.1578  1.2973 -1.7367
   83SOPE   C24 7629   5.609   6.548   2.515  0.1055  0.3925  0.1414
   83SOPE   H4R 7630   5.588   6.628   2.441  1.3141  1.0471  0.4894
   83SOPE   H4S 7631   5.510   6.499   2.530  0.4689 -0.1551  0.8214
   83SOPE   C25 7632   5.676   6.597   2.641  0.0535  0.1707 -0.2214
   83SOPE   H5R 7633   5.654   6.530   2.727 -2.1709  1.5096  0.3187
   83SOPE   H5S 7634   5.786   6.590   2.628 -0.0159  1.5992 -1.9418
   83SOPE   C26 7635   5.632   6.740   2.675 -0.0274  0.3154  0.1906
   83SOPE   H6R 7636   5.643   6.805   2.585  1.5717 -0.5146 -0.2504
   83SOPE   H6S 7637   5.524   6.732   2.700 -0.5211 -1.8924 -2.2214
   83SOPE   C27 7638   5.710   6.803   2.790  0.5276 -0.3702  0.2804
   83SOPE   H7R 7639   5.812   6.803   2.748 -0.3984  1.3012 -2.1924
   83SOPE   H7S 7640   5.681   6.908   2.808  0.3105 -0.2708 -0.6248
   83SOPE   C28 7641   5.691   6.739   2.925  0.0024 -0.4036  0.1446
   83SOPE   H8R 7642   5.583   6.746   2.951 -0.4486 -1.3746 -1.3402
   83SOPE   H8S 7643   5.720   6.634   2.908 -1.6025 -0.7415 -0.6873
   83SOPE   C29 7644   5.788   6.806   3.025 -0.4162  0.1833  0.7403
   83SOPE   H91 7645   5.880   6.847   2.982 -0.8056  1.6530  1.2589
   83SOPE  C210 7646   5.751   6.847   3.144  0.1328 -0.0249 -0.1125
   83SOPE  H101 7647   5.830   6.892   3.206  0.9163 -0.1359 -0.9996
   83SOPE  C211 7648   5.621   6.821   3.217 -0.5063 -0.3304 -0.0564
   83SOPE  H11R 7649   5.568   6.742   3.160 -2.7004  1.9269 -1.3433
   83SOPE  H11S 7650   5.558   6.912   3.224 -0.2147  0.1417 -2.6506
   83SOPE  C212 7651   5.649   6.768   3.360 -0.1630  0.4122 -0.2798
   83SOPE  H12R 7652   5.724   6.689   3.338  0.1706  1.0050 -1.2922
   83SOPE  H12S 7653   5.554   6.724   3.397  0.2776  0.8537  1.4713
   83SOPE  C213 7654   5.711   6.859   3.460 -0.3582 -0.0579 -0.1263
   83SOPE  H13R 7655   5.642   6.921   3.521 -1.2353 -0.6312 -0.5212
   83SOPE  H13S 7656   5.782   6.929   3.411 -0.1267 -1.0333 -1.2215
   83SOPE  C214 7657   5.796   6.788   3.565 -0.2833 -0.2904 -0.4153
   83SOPE  H14R 7658   5.900   6.782   3.526  0.2398  0.8205  0.7100
   83SOPE  H14S 7659   5.760   6.684   3.580  0.2066 -0.7342 -2.1084
   83SOPE  C215 7660   5.822   6.863   3.695  0.4863  0.0815 -0.2720
   83SOPE  H15R 7661   5.733   6.852   3.761  1.3703  0.8443  1.0737
   83SOPE  H15S 7662   5.839   6.972   3.680 -0.1740  0.2436  0.1081
   83SOPE  C216 7663   5.938   6.804   3.774 -0.4089  0.7516  0.0836
   83SOPE  H16R 7664   6.032   6.807   3.715 -0.1270 -0.5009  0.4226
   83SOPE  H16S 7665   5.915   6.695   3.776 -1.6242  0.9630 -1.1791
   83SOPE  C217 7666   5.952   6.857   3.914 -0.3764 -0.6902 -0.4234
   83SOPE  H17R 7667   5.851   6.856   3.960 -1.2732 -0.6746 -2.2915
   83SOPE  H17S 7668   5.983   6.963   3.916  0.9848 -1.0743  0.9461
   83SOPE  C218 7669   6.050   6.782   4.004  0.5552 -0.8018  0.1378
   83SOPE  H18R 7670   6.028   6.673   4.006 -0.8636 -0.5666 -1.2162
   83SOPE  H18S 7671   6.055   6.818   4.109  0.3391 -1.0176  0.2220
   83SOPE  H18T 7672   6.151   6.785   3.958  0.9318  0.2963  0.9918
   83SOPE   C33 7673   6.035   6.450   2.711  0.6463 -0.1527 -0.0607
   83SOPE   H3X 7674   5.948   6.404   2.659  0.8678 -0.8175  0.1381
   83SOPE   H3Y 7675   6.061   6.556   2.693  0.6673  0.2074  1.8840
   83SOPE   C34 7676   5.986   6.430   2.858 -0.3319  0.2683  0.3302
   83SOPE   H4X 7677   5.993   6.321   2.883 -0.3594 -0.1038 -1.1841
   83SOPE   H4Y 7678   5.880   6.458   2.876 -0.7838 -1.7375  1.0593
   83SOPE   C35 7679   6.083   6.491   2.958 -0.0715 -0.3610  0.4266
   83SOPE   H5X 7680   6.094   6.598   2.932  0.1345  0.0904  2.2044
   83SOPE   H5Y 7681   6.184   6.444   2.959  0.8762  1.5783 -0.0636
   83SOPE   C36 7682   6.030   6.472   3.105 -0.7615 -0.6877  0.3032
   83SOPE   H6X 7683   6.042   6.362   3.121 -3.0692 -1.5332 -2.7758
   83SOPE   H6Y 7684   5.924   6.504   3.114 -0.3452  1.1668 -0.8770
   83SOPE   C37 7685   6.104   6.546   3.219  0.0460 -0.1162 -0.1907
   83SOPE   H7X 7686   6.053   6.644   3.232  3.1622  1.6873 -0.5234
   83SOPE   H7Y 7687   6.202   6.580   3.181 -0.4766  1.8872  0.1420
   83SOPE   C38 7688   6.112   6.465   3.349 -0.3125  0.1738 -0.1424
   83SOPE   H8X 7689   6.169   6.372   3.331  0.3414  0.2811  1.2614
   83SOPE   H8Y 7690   6.008   6.442   3.381 -0.3022 -0.9213 -0.8265
   83SOPE   C39 7691   6.182   6.542   3.460  0.2446  0.0412  0.2211
   83SOPE   H9X 7692   6.141   6.645   3.455  0.1351 -0.0610 -1.6329
   83SOPE   H9Y 7693   6.291   6.540   3.436  0.0136 -2.0182 -0.8632
   83SOPE  C310 7694   6.168   6.469   3.594 -0.2533 -0.5686 -0.4893
   83SOPE  H10X 7695   6.207   6.366   3.575  0.2087 -0.1004 -2.2638
   83SOPE  H10Y 7696   6.060   6.456   3.615 -0.1308  0.0148  0.5528
   83SOPE  C311 7697   6.232   6.541   3.712  0.1130 -0.2212 -0.0349
   83SOPE  H11X 7698   6.168   6.627   3.742 -1.6650 -1.6278  0.4142
   83SOPE  H11Y 7699   6.335   6.579   3.696 -0.3359  1.1684  0.2099
   83SOPE  C312 7700   6.253   6.458   3.840  0.0733  0.1611 -1.0469
   83SOPE  H12X 7701   6.287   6.354   3.822 -0.5520 -0.7869  2.4468
   83SOPE  H12Y 7702   6.148   6.442   3.875 -0.1071  0.7705 -1.2959
   83SOPE  C313 7703   6.345   6.534   3.943 -0.2261 -0.2772 -0.2192
   83SOPE  H13X 7704   6.310   6.637   3.966 -0.4383 -0.8419  2.2889
   83SOPE  H13Y 7705   6.441   6.550   3.890 -0.0578  1.3662  0.5067
   83SOPE  C314 7706   6.351   6.464   4.085 -0.5274  0.1560  0.0573
   83SOPE  H14X 7707   6.351   6.353   4.076  1.8059  0.1589 -0.4188
   83SOPE  H14Y 7708   6.256   6.481   4.141 -0.6474 -1.1714  0.2973
   83SOPE  C315 7709   6.474   6.503   4.182 -0.0219  0.2578  0.3885
   83SOPE  H15X 7710   6.484   6.613   4.191  0.4921  0.1344  1.4631
   83SOPE  H15Y 7711   6.563   6.465   4.126 -0.1751  0.5022 -0.0285
   83SOPE  C316 7712   6.457   6.443   4.322 -0.1600 -0.0399  0.6825
   83SOPE  H16X 7713   6.426   6.336   4.316  1.0189 -0.4196  1.1870
   83SOPE  H16Y 7714   6.373   6.495   4.373  1.0719  1.9966  0.7288
   83SOPE  C317 7715   6.596   6.449   4.395 -0.1394 -0.1305  0.6968
   83SOPE  H17X 7716   6.660   6.366   4.360  1.9972  2.8794 -3.4488
   83SOPE  H17Y 7717   6.572   6.437   4.502  3.9405  1.6800  2.0133
   83SOPE  C318 7718   6.672   6.579   4.388 -0.3969 -0.5926 -0.2135
   83SOPE  H18X 7719   6.744   6.569   4.304 -0.6226  0.9475 -0.6275
   83SOPE  H18Y 7720   6.738   6.596   4.475  0.8509  1.0094 -1.4098
   83SOPE  H18Z 7721   6.616   6.675   4.383  2.2959  1.1105  0.5229
   84SOPE     N 7722   0.400   1.657   1.991  0.6760 -0.3486  0.9538
   84SOPE   HN1 7723   0.391   1.699   2.086 -2.0884  2.3822 -0.3317
   84SOPE   HN2 7724   0.369   1.732   1.926  2.8315 -0.6655 -0.5645
   84SOPE   HN3 7725   0.332   1.584   1.963  0.6397  0.1979 -0.4930
   84SOPE   C12 7726   0.543   1.637   1.957  0.3508  0.0715 -0.6279
   84SOPE  H12A 7727   0.545   1.594   1.854  2.7275  0.4743 -0.8132
   84SOPE  H12B 7728   0.591   1.567   2.028  0.8238 -0.9373 -1.9027
   84SOPE   C11 7729   0.628   1.765   1.962 -0.2133  0.9131  0.2925
   84SOPE  H11A 7730   0.625   1.815   1.863  0.8267 -0.2638 -0.3454
   84SOPE  H11B 7731   0.726   1.718   1.979  0.0854  1.2288 -0.4983
   84SOPE     P 7732   0.666   1.998   2.090  0.3142  0.1604  0.2917
   84SOPE   O13 7733   0.582   2.102   2.019  0.3217 -0.7250 -0.1378
   84SOPE   O14 7734   0.811   1.994   2.057  0.2391 -0.7117  0.1854
   84SOPE   O12 7735   0.599   1.852   2.071 -0.0171 -0.3022 -0.5214
   84SOPE   O11 7736   0.651   2.034   2.245 -0.0067 -0.3601  0.2737
   84SOPE    C1 7737   0.529   2.065   2.305  0.2510  0.4182 -0.2377
   84SOPE    HA 7738   0.482   1.965   2.317 -2.1335  1.5453  0.2688
   84SOPE    HB 7739   0.458   2.118   2.240  0.9676  0.9984 -0.5642
   84SOPE    C2 7740   0.538   2.124   2.449 -0.0235 -0.5484 -0.3924
   84SOPE    HS 7741   0.572   2.228   2.427  2.5652 -1.3830 -0.5870
   84SOPE   O21 7742   0.627   2.054   2.531 -0.3777  0.2271 -0.1138
   84SOPE   C21 7743   0.734   2.119   2.578  0.6018  0.2654 -0.0225
   84SOPE   O22 7744   0.768   2.231   2.546 -0.1632 -0.1833 -0.2797
   84SOPE   C22 7745   0.794   2.044   2.702  0.3029  0.1620  0.5118
   84SOPE   H2R 7746   0.904   2.046   2.684  0.1198 -0.8003 -0.8467
   84SOPE   H2S 7747   0.760   1.938   2.699  3.8280 -1.1646  2.0479
   84SOPE    C3 7748   0.402   2.139   2.528  0.3509 -0.2691 -0.5640
   84SOPE    HX 7749   0.383   2.048   2.590 -1.2514  0.0403 -0.5672
   84SOPE    HY 7750   0.324   2.138   2.450 -0.7552 -1.6198  0.5038
   84SOPE   O31 7751   0.408   2.266   2.604 -0.3724  0.6055  0.0949
   84SOPE   C31 7752   0.288   2.299   2.660  0.3747 -0.4299  0.9036
   84SOPE   O32 7753   0.192   2.224   2.667  0.6128  0.0377 -0.5486
   84SOPE   C32 7754   0.295   2.435   2.722 -0.8561 -0.8750  0.1994
   84SOPE   H2X 7755   0.330   2.497   2.637  2.1263 -0.2191  1.7669
   84SOPE   H2Y 7756   0.373   2.442   2.801 -1.7978  0.3893  1.0548
   84SOPE   C23 7757   0.767   2.111   2.841 -0.4750 -0.3081  0.3704
   84SOPE   H3R 7758   0.658   2.124   2.859 -0.2148  0.2298  1.7128
   84SOPE   H3S 7759   0.807   2.214   2.841  1.4484 -0.9964 -0.8913
   84SOPE   C24 7760   0.807   2.032   2.967  0.1062 -1.2779 -0.1535
   84SOPE   H4R 7761   0.750   1.937   2.963  0.0368 -1.2019 -2.4918
   84SOPE   H4S 7762   0.917   2.015   2.973  0.3301  0.3814  1.1720
   84SOPE   C25 7763   0.758   2.116   3.087  0.0897  0.2424  0.0047
   84SOPE   H5R 7764   0.799   2.219   3.077 -0.8039  0.6251  0.2172
   84SOPE   H5S 7765   0.649   2.134   3.073  0.2724  0.3005 -1.6459
   84SOPE   C26 7766   0.797   2.059   3.223 -0.4652 -0.0933 -0.0463
   84SOPE   H6R 7767   0.757   1.955   3.227  0.0654 -0.4657 -2.6192
   84SOPE   H6S 7768   0.908   2.052   3.219 -0.4726 -0.0031 -0.4100
   84SOPE   C27 7769   0.745   2.136   3.347 -0.5606 -0.2746  0.5142
   84SOPE   H7R 7770   0.783   2.240   3.360 -2.4484  0.4522  0.6924
   84SOPE   H7S 7771   0.635   2.152   3.348 -0.4012  0.9042  1.3194
   84SOPE   C28 7772   0.782   2.071   3.474 -0.1141 -0.7507 -0.3101
   84SOPE   H8R 7773   0.750   1.964   3.476  1.7801 -1.3645 -0.8746
   84SOPE   H8S 7774   0.893   2.066   3.474 -0.0442  0.5685 -1.1667
   84SOPE   C29 7775   0.745   2.154   3.593 -0.2003  0.2589 -0.5299
   84SOPE   H91 7776   0.799   2.250   3.604 -2.2849  1.3601  0.5860
   84SOPE  C210 7777   0.641   2.134   3.677 -1.1030 -0.1096 -0.4351
   84SOPE  H101 7778   0.643   2.203   3.762  2.1731  0.5868 -0.9504
   84SOPE  C211 7779   0.561   2.007   3.674  0.5937  0.2430 -0.1850
   84SOPE  H11R 7780   0.572   1.954   3.771 -0.4853  3.1451  1.6424
   84SOPE  H11S 7781   0.585   1.930   3.598  4.6405  0.4447  0.6545
   84SOPE  C212 7782   0.406   2.036   3.686 -0.3794  0.0326  0.6570
   84SOPE  H12R 7783   0.402   2.104   3.774 -0.7098 -0.6678  1.1907
   84SOPE  H12S 7784   0.355   1.942   3.716  0.3947 -0.0761  1.7129
   84SOPE  C213 7785   0.344   2.087   3.556  0.1652  0.3107  0.5131
   84SOPE  H13R 7786   0.393   2.184   3.532 -1.8921  1.6797  1.6118
   84SOPE  H13S 7787   0.241   2.114   3.587 -0.0427  0.9219 -0.6450
   84SOPE  C214 7788   0.347   1.991   3.430  0.2924  1.2463  0.1618
   84SOPE  H14R 7789   0.287   1.901   3.455 -1.6196  2.9630  2.1892
   84SOPE  H14S 7790   0.452   1.958   3.415  0.2350  1.3860 -0.5962
   84SOPE  C215 7791   0.318   2.076   3.305 -0.6402 -0.6386 -0.4961
   84SOPE  H15R 7792   0.396   2.155   3.299  2.2914 -3.2751  0.3483
   84SOPE  H15S 7793   0.220   2.129   3.303  0.4628  1.5662  0.0561
   84SOPE  C216 7794   0.335   1.997   3.173 -0.1239 -0.3445 -0.2653
   84SOPE  H16R 7795   0.259   1.916   3.169 -1.2394  0.6629 -0.1359
   84SOPE  H16S 7796   0.438   1.956   3.181  0.7357  1.4228 -1.5662
   84SOPE  C217 7797   0.337   2.079   3.040  0.0121 -0.3604  0.3112
   84SOPE  H17R 7798   0.402   2.166   3.065  0.4058 -0.4800 -0.2885
   84SOPE  H17S 7799   0.235   2.122   3.029  0.3463 -0.0001 -2.0697
   84SOPE  C218 7800   0.370   1.993   2.914  0.9921 -0.2126 -0.9140
   84SOPE  H18R 7801   0.325   2.036   2.822 -1.4562 -0.0245  0.2908
   84SOPE  H18S 7802   0.321   1.893   2.923  0.9157 -0.2579 -1.7237
   84SOPE  H18T 7803   0.479   1.980   2.896  1.4447  0.2867  1.1975
   84SOPE   C33 7804   0.158   2.473   2.791  0.6249  0.6687  0.4394
   84SOPE   H3X 7805   0.073   2.457   2.721  1.4005 -3.2249  0.1260
   84SOPE   H3Y 7806   0.165   2.581   2.814 -1.4043  0.6943  1.1499
   84SOPE   C34 7807   0.124   2.417   2.929  0.2856 -0.0774  0.0469
   84SOPE   H4X 7808   0.149   2.309   2.919 -1.1666 -0.5185  0.8925
   84SOPE   H4Y 7809   0.015   2.435   2.941  0.5952  0.0091  3.6621
   84SOPE   C35 7810   0.203   2.480   3.048  0.4359  0.6254  0.0557
   84SOPE   H5X 7811   0.160   2.582   3.058 -0.4653  0.6365 -2.9660
   84SOPE   H5Y 7812   0.309   2.485   3.017  0.6570 -0.3282  0.6199
   84SOPE   C36 7813   0.190   2.400   3.183 -0.1533  0.0114 -0.5454
   84SOPE   H6X 7814   0.284   2.413   3.240 -0.3074  0.8717 -0.4703
   84SOPE   H6Y 7815   0.173   2.293   3.159 -1.1111 -0.4137  1.7863
   84SOPE   C37 7816   0.078   2.444   3.291  0.0098 -0.7618 -0.1825
   84SOPE   H7X 7817   0.065   2.366   3.369  0.3921  0.3620  1.0435
   84SOPE   H7Y 7818  -0.020   2.463   3.241  1.1191  0.9299 -1.9114
   84SOPE   C38 7819   0.113   2.574   3.363 -0.1771  0.6326  0.6867
   84SOPE   H8X 7820   0.089   2.654   3.290 -1.8069 -0.4671 -0.0592
   84SOPE   H8Y 7821   0.212   2.584   3.413 -0.6099  3.4068  1.1308
   84SOPE   C39 7822   0.016   2.618   3.476  0.4817 -0.3259  0.0019
   84SOPE   H9X 7823  -0.085   2.610   3.431  0.5053  1.6130 -0.4555
   84SOPE   H9Y 7824   0.044   2.723   3.501  0.5681 -0.2706 -0.3320
   84SOPE  C310 7825   0.019   2.544   3.606  0.5653  0.4139 -1.0853
   84SOPE  H10X 7826  -0.048   2.456   3.597 -0.7945  1.3640 -0.3869
   84SOPE  H10Y 7827  -0.016   2.611   3.687 -3.1584 -1.2187 -1.1522
   84SOPE  C311 7828   0.155   2.487   3.654 -0.0823  0.0612  0.3103
   84SOPE  H11X 7829   0.237   2.560   3.638 -1.7037  1.5197 -2.0033
   84SOPE  H11Y 7830   0.173   2.396   3.594  1.5057 -0.5446  1.6377
   84SOPE  C312 7831   0.146   2.439   3.800 -0.1966  0.1567 -0.5571
   84SOPE  H12X 7832   0.065   2.363   3.810 -1.3339  1.3988 -0.1574
   84SOPE  H12Y 7833   0.123   2.518   3.874 -0.6074 -0.6325  0.1838
   84SOPE  C313 7834   0.281   2.365   3.838  0.4127 -0.3938  0.0381
   84SOPE  H13X 7835   0.370   2.406   3.786  0.5693  0.8751  1.2471
   84SOPE  H13Y 7836   0.277   2.267   3.786 -1.3983 -0.4709  0.2550
   84SOPE  C314 7837   0.303   2.353   3.993  0.0363  0.1206  0.1974
   84SOPE  H14X 7838   0.326   2.454   4.034 -1.1508  0.2992  0.4569
   84SOPE  H14Y 7839   0.389   2.285   4.011  1.3467  1.3076 -1.2515
   84SOPE  C315 7840   0.185   2.286   4.075 -0.8212  0.0977 -0.1603
   84SOPE  H15X 7841   0.161   2.186   4.033 -2.1608  1.4826 -2.9203
   84SOPE  H15Y 7842   0.100   2.356   4.063 -0.7632  0.3305  0.7176
   84SOPE  C316 7843   0.210   2.256   4.221  0.2558 -0.8798  0.5387
   84SOPE  H16X 7844   0.238   2.351   4.272  0.4613 -0.0847 -1.0019
   84SOPE  H16Y 7845   0.305   2.200   4.237  1.1515  0.1247 -1.0058
   84SOPE  C317 7846   0.102   2.180   4.288  0.1591 -0.0493  0.3011
   84SOPE  H17X 7847   0.094   2.077   4.247  0.9253 -0.1663  0.4375
   84SOPE  H17Y 7848   0.001   2.227   4.290  0.8819  1.5604  0.0109
   84SOPE  C318 7849   0.141   2.164   4.439  0.1454  0.7237  0.8376
   84SOPE  H18X 7850   0.128   2.263   4.487 -3.1758  0.7380  0.1239
   84SOPE  H18Y 7851   0.242   2.118   4.444  0.2061  0.7819  0.2327
   84SOPE  H18Z 7852   0.065   2.096   4.483 -0.0977 -0.0262 -0.6510
   85SOPE     N 7853   3.058   4.830   2.041 -0.3159 -0.0597 -0.2817
   85SOPE   HN1 7854   3.038   4.929   2.065 -0.8387 -0.1068 -0.5023
   85SOPE   HN2 7855   3.084   4.782   2.129 -3.4422 -2.9444 -0.7215
   85SOPE   HN3 7856   3.144   4.828   1.983 -0.5425  2.2176 -0.8076
   85SOPE   C12 7857   2.934   4.763   2.000 -0.2447  0.4888  0.8956
   85SOPE  H12A 7858   2.942   4.653   2.014 -2.3306  0.0971 -0.5304
   85SOPE  H12B 7859   2.917   4.776   1.891 -0.5128 -0.7285  0.7807
   85SOPE   C11 7860   2.811   4.798   2.076 -0.3466 -0.9567  0.2490
   85SOPE  H11A 7861   2.828   4.784   2.185 -0.5694 -0.2229  0.3863
   85SOPE  H11B 7862   2.725   4.734   2.047 -0.8728  0.4874 -1.5787
   85SOPE     P 7863   2.714   5.036   2.144 -0.2250 -0.1311 -0.2799
   85SOPE   O13 7864   2.572   5.002   2.160  0.3259 -0.2004 -0.1201
   85SOPE   O14 7865   2.735   5.173   2.092 -0.6934  0.3261 -0.4784
   85SOPE   O12 7866   2.781   4.937   2.049 -0.7714 -0.0835 -0.4304
   85SOPE   O11 7867   2.802   5.023   2.274  0.3762 -0.0711 -0.0855
   85SOPE    C1 7868   2.764   4.953   2.394  0.3357 -0.3603  0.4432
   85SOPE    HA 7869   2.762   4.844   2.370  3.1971  0.0086 -2.0477
   85SOPE    HB 7870   2.663   4.982   2.430  1.0226  1.3946  1.0504
   85SOPE    C2 7871   2.863   4.982   2.510  0.0153  0.0625 -0.4212
   85SOPE    HS 7872   2.859   4.892   2.575 -1.5769  0.0421 -0.5181
   85SOPE   O21 7873   2.812   5.101   2.578  0.4586 -0.0880  0.3791
   85SOPE   C21 7874   2.849   5.104   2.709  0.4801 -0.9822 -0.1106
   85SOPE   O22 7875   2.893   5.014   2.768  0.2680 -0.0714  0.0176
   85SOPE   C22 7876   2.824   5.242   2.772 -0.3934  0.1212  0.1573
   85SOPE   H2R 7877   2.717   5.267   2.784 -0.5787 -0.7763  0.4292
   85SOPE   H2S 7878   2.862   5.320   2.702 -0.9827  1.9802  1.8463
   85SOPE    C3 7879   3.007   5.006   2.461  0.7720  0.5214 -0.8298
   85SOPE    HX 7880   3.019   5.109   2.420  2.3548  0.3929 -0.7591
   85SOPE    HY 7881   3.039   4.929   2.388  2.2892  0.7174 -0.4191
   85SOPE   O31 7882   3.099   4.996   2.573  0.3268 -0.2082 -0.0246
   85SOPE   C31 7883   3.163   4.894   2.607  0.0359  0.1176 -0.1164
   85SOPE   O32 7884   3.140   4.779   2.568  0.3728 -0.1361  0.2046
   85SOPE   C32 7885   3.255   4.919   2.725 -0.1288 -0.3820  0.8866
   85SOPE   H2X 7886   3.280   5.027   2.724 -0.9196 -0.1918  1.2986
   85SOPE   H2Y 7887   3.351   4.863   2.713 -0.6209 -1.3338  1.2928
   85SOPE   C23 7888   2.895   5.244   2.911  0.0749 -0.0195  0.0276
   85SOPE   H3R 7889   3.001   5.210   2.901  0.2477  0.5790 -0.2350
   85SOPE   H3S 7890   2.864   5.159   2.975  2.8392  0.0020  1.5917
   85SOPE   C24 7891   2.864   5.375   2.980  0.2931 -0.6338  0.9905
   85SOPE   H4R 7892   2.941   5.444   2.940  2.4913 -3.9656 -0.9588
   85SOPE   H4S 7893   2.761   5.411   2.956  1.4030  2.0874 -0.0711
   85SOPE   C25 7894   2.878   5.375   3.132 -1.0863 -0.2084  0.2289
   85SOPE   H5R 7895   2.869   5.480   3.167  2.0596  0.5292 -0.8686
   85SOPE   H5S 7896   2.795   5.322   3.182 -1.1309 -1.5702 -1.2200
   85SOPE   C26 7897   3.006   5.314   3.186 -0.2107 -0.4962  1.1652
   85SOPE   H6R 7898   3.016   5.205   3.163  0.8955 -0.1524 -0.1360
   85SOPE   H6S 7899   3.092   5.355   3.128 -1.0016  0.5345  0.6909
   85SOPE   C27 7900   3.018   5.335   3.334 -0.1523  0.0556 -1.2135
   85SOPE   H7R 7901   3.034   5.443   3.352  0.3777 -0.3466  0.9304
   85SOPE   H7S 7902   2.927   5.312   3.393  0.0916 -2.2075 -1.6426
   85SOPE   C28 7903   3.142   5.255   3.394  0.1856 -0.3559  0.8372
   85SOPE   H8R 7904   3.117   5.147   3.386  0.1697 -0.3081  0.2426
   85SOPE   H8S 7905   3.225   5.273   3.323 -0.7501  0.9423  0.0367
   85SOPE   C29 7906   3.153   5.292   3.543 -0.9175  0.0602  0.5624
   85SOPE   H91 7907   3.059   5.322   3.593 -0.3476  3.0123  0.0501
   85SOPE  C210 7908   3.273   5.316   3.600  0.1848  0.2457 -0.0721
   85SOPE  H101 7909   3.284   5.349   3.704  0.2886  1.8782 -0.5639
   85SOPE  C211 7910   3.413   5.297   3.526  1.2123  0.1157 -0.4315
   85SOPE  H11R 7911   3.476   5.385   3.504  1.9635 -0.3020  0.0143
   85SOPE  H11S 7912   3.399   5.250   3.426  0.1170  0.7904 -0.6131
   85SOPE  C212 7913   3.512   5.213   3.613  0.2178  0.1753  0.2875
   85SOPE  H12R 7914   3.596   5.198   3.542  0.3449  2.5668 -0.1293
   85SOPE  H12S 7915   3.469   5.115   3.644 -4.3100  1.9333  0.2032
   85SOPE  C213 7916   3.556   5.270   3.746  0.9303 -0.0215  0.6326
   85SOPE  H13R 7917   3.474   5.257   3.819  0.9925 -0.5631  0.6115
   85SOPE  H13S 7918   3.563   5.381   3.744 -2.0362  0.2336  0.6941
   85SOPE  C214 7919   3.695   5.216   3.787 -0.0518 -0.6623 -0.1287
   85SOPE  H14R 7920   3.768   5.253   3.712  1.3773  0.9978  1.9632
   85SOPE  H14S 7921   3.684   5.106   3.799 -0.9513 -0.6193 -0.4716
   85SOPE  C215 7922   3.750   5.267   3.926  0.2432 -0.0111 -0.1179
   85SOPE  H15R 7923   3.740   5.378   3.923 -1.3114 -0.1440 -1.0623
   85SOPE  H15S 7924   3.857   5.239   3.938  0.0093 -0.9561 -0.1466
   85SOPE  C216 7925   3.662   5.208   4.031  0.0449 -0.1080  0.5493
   85SOPE  H16R 7926   3.706   5.110   4.058  3.5595  1.3622  0.6588
   85SOPE  H16S 7927   3.556   5.198   3.999 -0.0687  0.4975  0.7293
   85SOPE  C217 7928   3.654   5.293   4.161  0.3915  0.2783 -0.4463
   85SOPE  H17R 7929   3.572   5.251   4.223 -0.2027  1.1812 -0.6021
   85SOPE  H17S 7930   3.636   5.400   4.135 -0.6639 -0.5215 -3.3914
   85SOPE  C218 7931   3.776   5.280   4.253 -0.0157  0.7449  0.0892
   85SOPE  H18R 7932   3.799   5.171   4.260 -0.6592  0.7085  2.4948
   85SOPE  H18S 7933   3.749   5.320   4.353 -2.9345  0.6057 -0.5466
   85SOPE  H18T 7934   3.873   5.318   4.214  0.9845 -2.5064 -0.9238
   85SOPE   C33 7935   3.188   4.884   2.857 -1.0223 -0.5064  0.7416
   85SOPE   H3X 7936   3.150   4.780   2.861  0.3682 -1.0027  3.9378
   85SOPE   H3Y 7937   3.105   4.957   2.859 -0.3774  0.4186 -2.1373
   85SOPE   C34 7938   3.275   4.913   2.977  0.0271 -0.4853  0.0375
   85SOPE   H4X 7939   3.327   5.011   2.978  0.7724 -0.8712  1.2240
   85SOPE   H4Y 7940   3.362   4.844   2.981  0.3753 -0.1990 -1.8203
   85SOPE   C35 7941   3.197   4.877   3.108 -0.6698  0.1102  0.0129
   85SOPE   H5X 7942   3.170   4.770   3.096  2.3971 -0.6305 -0.9563
   85SOPE   H5Y 7943   3.099   4.928   3.119 -2.2521 -2.3947 -1.4514
   85SOPE   C36 7944   3.282   4.900   3.234 -0.1610  0.4951 -0.6838
   85SOPE   H6X 7945   3.286   5.010   3.248  0.8276  0.1939  2.0169
   85SOPE   H6Y 7946   3.385   4.861   3.223 -0.0133  1.0696 -1.4672
   85SOPE   C37 7947   3.226   4.834   3.361 -0.6450 -0.7426 -0.1396
   85SOPE   H7X 7948   3.240   4.724   3.348  0.8386 -0.6482  0.3729
   85SOPE   H7Y 7949   3.122   4.865   3.382  0.0157  0.4613  1.6343
   85SOPE   C38 7950   3.294   4.881   3.493 -0.7879  0.6314 -0.1317
   85SOPE   H8X 7951   3.268   4.986   3.517 -3.2551  0.6023 -2.2233
   85SOPE   H8Y 7952   3.404   4.870   3.481 -0.7931  0.8377 -0.3719
   85SOPE   C39 7953   3.264   4.796   3.626  0.2277  0.2402 -0.0157
   85SOPE   H9X 7954   3.308   4.694   3.620 -2.4194 -1.3470  3.8524
   85SOPE   H9Y 7955   3.154   4.787   3.635  0.1612  1.7249  1.0939
   85SOPE  C310 7956   3.305   4.854   3.760  0.0488 -0.1356  0.4931
   85SOPE  H10X 7957   3.404   4.898   3.735  0.2626 -0.7210  0.2909
   85SOPE  H10Y 7958   3.324   4.780   3.840  4.6325  0.9927  0.7723
   85SOPE  C311 7959   3.215   4.964   3.813 -0.4332  0.1100  0.5407
   85SOPE  H11X 7960   3.116   4.920   3.839 -0.3954  0.3445  1.1003
   85SOPE  H11Y 7961   3.203   5.041   3.734 -2.5658  0.7483  1.4242
   85SOPE  C312 7962   3.286   5.034   3.932  0.2863  0.0871 -0.0994
   85SOPE  H12X 7963   3.234   5.132   3.945 -1.4350 -1.0693  2.5466
   85SOPE  H12Y 7964   3.395   5.049   3.916  0.1306  0.0331 -1.3294
   85SOPE  C313 7965   3.264   4.964   4.066 -0.9198  0.4085 -0.0771
   85SOPE  H13X 7966   3.308   4.863   4.052  3.6982  1.8959  1.8436
   85SOPE  H13Y 7967   3.155   4.961   4.090 -1.4310 -0.2151 -2.2370
   85SOPE  C314 7968   3.354   5.023   4.176  0.3936 -0.4806 -0.7342
   85SOPE  H14X 7969   3.387   5.125   4.147  0.7407 -0.5349 -0.5368
   85SOPE  H14Y 7970   3.446   4.962   4.189 -0.8020 -2.0532  0.7976
   85SOPE  C315 7971   3.285   5.035   4.317 -0.2137  1.1313  0.2876
   85SOPE  H15X 7972   3.301   4.948   4.384 -1.4616  0.2832 -0.4670
   85SOPE  H15Y 7973   3.177   5.058   4.310 -0.5521  0.0642  1.6016
   85SOPE  C316 7974   3.347   5.162   4.392 -0.1354  0.5783  0.0997
   85SOPE  H16X 7975   3.343   5.248   4.322  0.8281  2.0575  1.8026
   85SOPE  H16Y 7976   3.453   5.140   4.418 -0.5163  1.0770  2.2687
   85SOPE  C317 7977   3.274   5.185   4.524  0.3919 -0.4565 -0.3196
   85SOPE  H17X 7978   3.173   5.224   4.498  0.8231  1.0255  0.1360
   85SOPE  H17Y 7979   3.328   5.258   4.588  1.4394 -1.2131 -0.3076
   85SOPE  C318 7980   3.255   5.059   4.612  0.0784 -0.1593 -0.1088
   85SOPE  H18X 7981   3.181   4.988   4.570 -1.6737 -0.1544  2.6726
   85SOPE  H18Y 7982   3.199   5.078   4.706  0.7308  0.3942  0.1827
   85SOPE  H18Z 7983   3.354   5.014   4.638 -0.4438  0.3582  3.1902
   86SOPE     N 7984   4.772   1.139   1.526 -0.0549 -0.3203 -0.1645
   86SOPE   HN1 7985   4.863   1.186   1.506  0.4575 -1.6147 -1.0730
   86SOPE   HN2 7986   4.753   1.144   1.628  0.6719 -0.8706  0.0103
   86SOPE   HN3 7987   4.778   1.041   1.490  1.1772  0.0343 -0.9797
   86SOPE   C12 7988   4.679   1.216   1.436 -0.1955  0.6260  0.4984
   86SOPE  H12A 7989   4.710   1.194   1.331  2.6016  2.5201  0.8163
   86SOPE  H12B 7990   4.688   1.323   1.466  0.0225  0.2031  2.0237
   86SOPE   C11 7991   4.534   1.169   1.449 -0.0435  0.5115  0.1693
   86SOPE  H11A 7992   4.527   1.059   1.439 -0.9890  0.6445 -0.7946
   86SOPE  H11B 7993   4.473   1.204   1.363  0.7790  3.1735  0.5830
   86SOPE     P 7994   4.367   1.126   1.657 -0.1951  0.2588  0.3606
   86SOPE   O13 7995   4.404   0.981   1.657 -0.2133  0.0270 -0.0486
   86SOPE   O14 7996   4.230   1.156   1.614  0.0445 -0.2730  0.2728
   86SOPE   O12 7997   4.474   1.210   1.567 -0.2114 -0.3349 -0.3780
   86SOPE   O11 7998   4.401   1.180   1.801 -0.4552 -0.5311 -0.6665
   86SOPE    C1 7999   4.339   1.304   1.844 -0.2247 -0.5456 -0.1340
   86SOPE    HA 8000   4.310   1.371   1.760  3.3414  1.1971 -0.1504
   86SOPE    HB 8001   4.426   1.357   1.886  0.3925 -2.0732  0.5913
   86SOPE    C2 8002   4.227   1.306   1.955 -0.7911 -0.7335  0.7197
   86SOPE    HS 8003   4.179   1.405   1.968 -1.2884  0.1095 -4.9386
   86SOPE   O21 8004   4.290   1.259   2.077 -0.0027 -0.0894 -0.3471
   86SOPE   C21 8005   4.358   1.355   2.145 -0.3804  0.3383  0.6649
   86SOPE   O22 8006   4.369   1.468   2.114 -0.2265  0.1416  0.3378
   86SOPE   C22 8007   4.379   1.308   2.288  0.5777  0.3188  0.1230
   86SOPE   H2R 8008   4.383   1.197   2.282  3.4939  0.3956 -1.7779
   86SOPE   H2S 8009   4.290   1.334   2.349 -0.3212 -0.9341 -0.6311
   86SOPE    C3 8010   4.112   1.210   1.922 -0.3283  0.4436  0.6116
   86SOPE    HX 8011   4.159   1.110   1.914 -0.0023  0.3416  3.0170
   86SOPE    HY 8012   4.069   1.251   1.828 -0.3869  1.9158  1.2547
   86SOPE   O31 8013   4.009   1.213   2.023 -0.2743 -0.0052 -0.1769
   86SOPE   C31 8014   4.008   1.106   2.101  0.0883  0.2554 -0.4574
   86SOPE   O32 8015   4.058   0.995   2.079  0.1117 -0.0531  0.2594
   86SOPE   C32 8016   3.938   1.139   2.230  0.3484 -0.0183  0.4009
   86SOPE   H2X 8017   3.932   1.039   2.279 -0.0430 -0.3104 -0.2395
   86SOPE   H2Y 8018   3.847   1.197   2.205  1.1059  2.5107  2.8941
   86SOPE   C23 8019   4.504   1.363   2.362  0.5768  0.0525  0.0940
   86SOPE   H3R 8020   4.567   1.437   2.309  0.7985  0.2281  0.6013
   86SOPE   H3S 8021   4.569   1.283   2.405  0.6811 -0.6293 -1.2549
   86SOPE   C24 8022   4.464   1.427   2.496  0.0323 -0.1265 -0.8350
   86SOPE   H4R 8023   4.559   1.464   2.540 -0.0693  1.4616 -1.8314
   86SOPE   H4S 8024   4.394   1.512   2.477 -0.9791 -0.5876  0.6275
   86SOPE   C25 8025   4.408   1.321   2.598  0.7467  0.6119  0.3208
   86SOPE   H5R 8026   4.309   1.291   2.557  0.5806  2.3968 -0.7035
   86SOPE   H5S 8027   4.469   1.229   2.605 -2.0411 -1.2418  3.0359
   86SOPE   C26 8028   4.386   1.373   2.740  0.7031  0.4550 -0.7921
   86SOPE   H6R 8029   4.484   1.410   2.777  0.1394  1.7095 -0.5013
   86SOPE   H6S 8030   4.318   1.461   2.739  1.5218  1.1183 -2.2756
   86SOPE   C27 8031   4.321   1.274   2.835  0.2602  0.3058  0.1944
   86SOPE   H7R 8032   4.224   1.251   2.786  0.9435 -2.2069 -0.0829
   86SOPE   H7S 8033   4.376   1.178   2.840  0.1301 -0.2349 -4.2811
   86SOPE   C28 8034   4.292   1.329   2.978 -0.7549  0.6056 -0.2161
   86SOPE   H8R 8035   4.275   1.439   2.976  0.8741  0.9047  0.9487
   86SOPE   H8S 8036   4.202   1.276   3.016  0.4888 -1.3621  0.0690
   86SOPE   C29 8037   4.406   1.310   3.075  0.3964  0.0905  0.0999
   86SOPE   H91 8038   4.504   1.346   3.040  1.1771 -0.4197  1.6264
   86SOPE  C210 8039   4.390   1.273   3.209  0.1441  0.6052  0.8075
   86SOPE  H101 8040   4.479   1.267   3.273 -0.9163 -0.1924  2.2587
   86SOPE  C211 8041   4.264   1.225   3.283  0.5169  0.1730 -0.9465
   86SOPE  H11R 8042   4.287   1.123   3.321 -1.2686 -0.2854 -1.0224
   86SOPE  H11S 8043   4.181   1.209   3.210  0.1345 -1.4209 -0.2143
   86SOPE  C212 8044   4.212   1.319   3.391  0.1245 -0.2678  0.0885
   86SOPE  H12R 8045   4.207   1.425   3.357 -2.2897 -0.4567 -0.3546
   86SOPE  H12S 8046   4.288   1.326   3.472  1.1243  0.3883 -0.8722
   86SOPE  C213 8047   4.073   1.284   3.444 -0.4362 -0.3248  0.4126
   86SOPE  H13R 8048   4.077   1.177   3.473  0.0731 -0.9626 -1.7830
   86SOPE  H13S 8049   4.006   1.301   3.357  0.9248 -1.1386 -0.8519
   86SOPE  C214 8050   4.039   1.375   3.569 -0.4178  0.8363 -0.2654
   86SOPE  H14R 8051   3.931   1.387   3.594 -0.3517  1.0058 -0.0648
   86SOPE  H14S 8052   4.086   1.473   3.545 -0.2183  1.5923  2.7910
   86SOPE  C215 8053   4.091   1.320   3.706  0.1004  0.9281  0.2699
   86SOPE  H15R 8054   4.199   1.294   3.697 -0.3323 -0.5301 -1.3926
   86SOPE  H15S 8055   4.031   1.227   3.715 -1.1420  1.8831  2.8632
   86SOPE  C216 8056   4.065   1.408   3.820 -0.1039  0.3666 -0.3167
   86SOPE  H16R 8057   3.956   1.420   3.842  0.4832  0.0099  3.5722
   86SOPE  H16S 8058   4.112   1.507   3.802  1.2569 -0.3543 -0.8330
   86SOPE  C217 8059   4.112   1.354   3.947 -0.3962  0.2574 -0.3049
   86SOPE  H17R 8060   4.221   1.334   3.956  0.2635  1.7552 -3.5719
   86SOPE  H17S 8061   4.065   1.254   3.962 -0.8843  0.6897  1.3031
   86SOPE  C218 8062   4.059   1.434   4.072 -0.2492  0.4072 -0.2277
   86SOPE  H18R 8063   4.085   1.541   4.055 -0.8564  0.4814 -0.7294
   86SOPE  H18S 8064   4.101   1.402   4.169  1.3595  0.8811 -0.7286
   86SOPE  H18T 8065   3.950   1.423   4.085 -0.3293 -0.3545 -1.3602
   86SOPE   C33 8066   4.030   1.226   2.329  0.1137  0.3203  1.4363
   86SOPE   H3X 8067   4.047   1.316   2.266  1.1055  0.4194  1.8302
   86SOPE   H3Y 8068   4.122   1.166   2.343  0.8706  0.9604 -0.4847
   86SOPE   C34 8069   3.965   1.273   2.455 -0.0422  0.3347 -0.1182
   86SOPE   H4X 8070   3.855   1.292   2.458  0.1829  1.7726 -0.4738
   86SOPE   H4Y 8071   4.014   1.370   2.478  1.6786 -0.9074  1.8121
   86SOPE   C35 8072   3.993   1.174   2.578 -0.5401 -0.1070  0.4475
   86SOPE   H5X 8073   4.103   1.169   2.597 -0.2737  0.9962 -0.6639
   86SOPE   H5Y 8074   3.944   1.076   2.565 -0.1820 -0.1194 -0.9051
   86SOPE   C36 8075   3.927   1.217   2.707 -0.0665 -0.6537  0.3720
   86SOPE   H6X 8076   3.822   1.246   2.689  0.5290  0.7596 -1.0489
   86SOPE   H6Y 8077   3.972   1.308   2.754 -0.8984 -0.7047  1.3035
   86SOPE   C37 8078   3.954   1.118   2.825  0.4347 -0.2588  0.0243
   86SOPE   H7X 8079   4.064   1.112   2.837  0.5938 -1.3912 -1.6648
   86SOPE   H7Y 8080   3.912   1.018   2.798  0.8842 -0.5509  0.4054
   86SOPE   C38 8081   3.879   1.169   2.951 -0.4819  0.1775 -0.0674
   86SOPE   H8X 8082   3.771   1.176   2.926 -0.7025  0.8509  0.9779
   86SOPE   H8Y 8083   3.908   1.274   2.976  1.2552  0.5403 -3.1753
   86SOPE   C39 8084   3.896   1.080   3.072  0.2691  0.0407 -0.0305
   86SOPE   H9X 8085   4.001   1.074   3.108  0.2401 -0.7110 -0.0426
   86SOPE   H9Y 8086   3.883   0.977   3.033 -2.0214  0.3143 -0.1330
   86SOPE  C310 8087   3.805   1.108   3.187  0.0530  0.1028  0.3666
   86SOPE  H10X 8088   3.701   1.083   3.157 -0.2071  1.2385  0.2595
   86SOPE  H10Y 8089   3.799   1.216   3.210 -1.3158  0.1342 -0.0966
   86SOPE  C311 8090   3.840   1.015   3.304 -0.7736 -0.3059  0.0868
   86SOPE  H11X 8091   3.939   1.052   3.339 -1.0739 -0.6814  1.3972
   86SOPE  H11Y 8092   3.856   0.909   3.278 -0.7681 -0.6668  1.4834
   86SOPE  C312 8093   3.760   1.042   3.423  0.2068 -0.4679  0.1961
   86SOPE  H12X 8094   3.659   0.996   3.423 -0.7447  1.4951  0.5807
   86SOPE  H12Y 8095   3.741   1.152   3.425 -1.1473 -0.6867  2.0203
   86SOPE  C313 8096   3.825   1.006   3.555  0.0789  0.3076 -0.8885
   86SOPE  H13X 8097   3.908   1.078   3.569 -1.2150  2.2105 -2.5211
   86SOPE  H13Y 8098   3.855   0.900   3.542 -1.7943 -0.1335 -1.9991
   86SOPE  C314 8099   3.732   1.020   3.673  0.3556  0.0498  0.3282
   86SOPE  H14X 8100   3.631   0.980   3.650  0.4788  0.5919 -1.2958
   86SOPE  H14Y 8101   3.727   1.128   3.701 -3.2673  0.0993 -0.1135
   86SOPE  C315 8102   3.793   0.938   3.783  0.7347  0.0568 -0.1227
   86SOPE  H15X 8103   3.896   0.974   3.804  0.3959  2.2942 -1.9582
   86SOPE  H15Y 8104   3.805   0.832   3.750  0.8278 -0.7925  2.3941
   86SOPE  C316 8105   3.718   0.934   3.916  0.3946 -0.2274  0.0547
   86SOPE  H16X 8106   3.774   0.858   3.975 -0.2911  0.9372  2.3246
   86SOPE  H16Y 8107   3.615   0.893   3.902  0.6435 -0.5987 -0.7693
   86SOPE  C317 8108   3.701   1.071   3.987 -0.1093  0.3184  0.4475
   86SOPE  H17X 8109   3.639   1.125   3.912 -0.0431 -0.4534 -0.1770
   86SOPE  H17Y 8110   3.804   1.111   3.995  0.3607 -0.9630  1.1992
   86SOPE  C318 8111   3.634   1.077   4.120 -0.3127 -0.0033  0.3087
   86SOPE  H18X 8112   3.591   1.179   4.131  0.5593  0.6828 -2.2013
   86SOPE  H18Y 8113   3.707   1.043   4.197  3.1145  0.4926 -2.5014
   86SOPE  H18Z 8114   3.551   1.003   4.128  1.5823 -2.8484 -3.1840
   87SOPE     N 8115   4.359   0.254   1.630  0.5945  0.6444  0.3894
   87SOPE   HN1 8116   4.341   0.298   1.538 -0.4312 -2.3095 -0.9335
   87SOPE   HN2 8117   4.394   0.160   1.602  1.6186  1.5148 -1.4023
   87SOPE   HN3 8118   4.265   0.249   1.675  0.6801  0.7710  0.5849
   87SOPE   C12 8119   4.452   0.342   1.711 -0.8755  0.9883 -0.0693
   87SOPE  H12A 8120   4.405   0.443   1.717  1.9448  2.3333  1.1627
   87SOPE  H12B 8121   4.547   0.344   1.654  0.9134 -0.7504  2.5884
   87SOPE   C11 8122   4.467   0.277   1.850 -0.1801  0.4098  0.3830
   87SOPE  H11A 8123   4.370   0.274   1.904  0.7978 -0.6495  2.1432
   87SOPE  H11B 8124   4.529   0.343   1.914 -2.0569  0.5936  2.0899
   87SOPE     P 8125   4.671   0.118   1.859 -0.2519 -0.0625  0.1069
   87SOPE   O13 8126   4.742   0.191   1.751 -0.3398  0.2564  0.0306
   87SOPE   O14 8127   4.694  -0.031   1.870 -0.2560  1.0759  0.0639
   87SOPE   O12 8128   4.513   0.140   1.830 -0.7014  0.4496 -0.0980
   87SOPE   O11 8129   4.699   0.189   2.000  0.0805  0.1030  0.1771
   87SOPE    C1 8130   4.663   0.129   2.124  0.5689 -0.2105  0.4169
   87SOPE    HA 8131   4.736   0.140   2.207  1.6313 -0.1973 -0.4995
   87SOPE    HB 8132   4.646   0.020   2.115  2.1867 -0.3488 -1.6833
   87SOPE    C2 8133   4.535   0.194   2.174  0.4360  0.2152  0.0921
   87SOPE    HS 8134   4.458   0.203   2.094 -1.0469 -0.7282  1.3686
   87SOPE   O21 8135   4.578   0.324   2.219  0.2463 -0.0682 -0.7935
   87SOPE   C21 8136   4.490   0.418   2.212  0.6854 -0.2230 -0.4272
   87SOPE   O22 8137   4.373   0.406   2.185  0.2858  0.6093 -0.5422
   87SOPE   C22 8138   4.571   0.552   2.211  0.0418  0.3131 -0.4511
   87SOPE   H2R 8139   4.615   0.555   2.109  0.6154 -0.6563 -0.2438
   87SOPE   H2S 8140   4.659   0.556   2.279 -0.3149  3.8003  0.0262
   87SOPE    C3 8141   4.481   0.108   2.288  1.0292  0.4443 -0.6687
   87SOPE    HX 8142   4.553   0.108   2.373  1.3416 -0.0536 -0.9269
   87SOPE    HY 8143   4.479  -0.000   2.262 -2.3524  0.0183  0.8537
   87SOPE   O31 8144   4.343   0.138   2.333  0.3334  1.0018  0.0335
   87SOPE   C31 8145   4.330   0.234   2.422  0.2397  0.4049  0.0185
   87SOPE   O32 8146   4.420   0.279   2.487 -0.3619 -0.0379  0.1174
   87SOPE   C32 8147   4.178   0.261   2.437  0.6814  0.1413  0.1737
   87SOPE   H2X 8148   4.125   0.164   2.436 -1.8507  1.4085 -1.3688
   87SOPE   H2Y 8149   4.149   0.304   2.338  0.0581 -1.9163 -0.5792
   87SOPE   C23 8150   4.483   0.675   2.230 -0.1008  0.6643 -0.7027
   87SOPE   H3R 8151   4.387   0.684   2.175 -0.1495  0.8411 -0.5916
   87SOPE   H3S 8152   4.551   0.755   2.194 -0.0705  0.4560 -1.1066
   87SOPE   C24 8153   4.449   0.698   2.381  0.6318  0.1416  0.0057
   87SOPE   H4R 8154   4.382   0.620   2.423  1.6493 -0.4443  0.5710
   87SOPE   H4S 8155   4.543   0.701   2.441 -0.9297  0.1511  2.6174
   87SOPE   C25 8156   4.400   0.842   2.420  0.2769  0.0746  0.2189
   87SOPE   H5R 8157   4.480   0.905   2.376 -0.1815  0.6752  0.2463
   87SOPE   H5S 8158   4.298   0.864   2.381 -0.2719  1.1525  2.1309
   87SOPE   C26 8159   4.398   0.857   2.571  0.5074  0.0229 -1.1344
   87SOPE   H6R 8160   4.486   0.804   2.613 -0.8180  0.0483  1.9262
   87SOPE   H6S 8161   4.413   0.962   2.604  0.4420 -0.0421 -0.8970
   87SOPE   C27 8162   4.275   0.801   2.639 -0.2220 -0.1046 -0.8819
   87SOPE   H7R 8163   4.183   0.821   2.580 -0.1706 -0.9193 -1.2626
   87SOPE   H7S 8164   4.294   0.691   2.645  0.6485  0.1416  2.7364
   87SOPE   C28 8165   4.261   0.853   2.781  0.0527  0.2632 -0.6980
   87SOPE   H8R 8166   4.350   0.824   2.840 -0.3046 -1.2457 -0.8720
   87SOPE   H8S 8167   4.252   0.964   2.790  0.5934  0.2068  0.9472
   87SOPE   C29 8168   4.132   0.805   2.851  0.1837 -0.3144 -0.6717
   87SOPE   H91 8169   4.040   0.810   2.791 -0.2965 -0.0416  0.0737
   87SOPE  C210 8170   4.120   0.776   2.984  0.7868 -0.3804  0.0792
   87SOPE  H101 8171   4.020   0.765   3.030  0.5321 -1.2576 -0.6549
   87SOPE  C211 8172   4.220   0.767   3.099  0.1131 -0.8707  0.3478
   87SOPE  H11R 8173   4.320   0.791   3.057 -0.2318 -2.4653 -1.4798
   87SOPE  H11S 8174   4.226   0.660   3.126  0.4092 -1.0851 -0.5247
   87SOPE  C212 8175   4.190   0.858   3.223  0.1183  0.1314  0.4438
   87SOPE  H12R 8176   4.080   0.864   3.241  0.3396 -0.8606  2.2538
   87SOPE  H12S 8177   4.210   0.961   3.187 -2.9678  0.8301  0.4013
   87SOPE  C213 8178   4.268   0.819   3.344  0.7852 -0.0071  0.9419
   87SOPE  H13R 8179   4.377   0.839   3.331  0.2964  1.7751 -0.9529
   87SOPE  H13S 8180   4.264   0.708   3.346  0.5684  0.0081  2.1509
   87SOPE  C214 8181   4.216   0.878   3.479 -0.0062 -0.5828  0.4424
   87SOPE  H14R 8182   4.121   0.834   3.516 -0.3518  1.0014  1.5302
   87SOPE  H14S 8183   4.195   0.987   3.466 -1.4993 -0.5578  2.5445
   87SOPE  C215 8184   4.326   0.863   3.579 -0.3694 -0.7151 -0.4076
   87SOPE  H15R 8185   4.428   0.895   3.547  0.6327 -1.2827  2.0224
   87SOPE  H15S 8186   4.344   0.754   3.592  3.1492 -0.0671  1.4376
   87SOPE  C216 8187   4.275   0.935   3.707 -0.2535  0.3459  0.0911
   87SOPE  H16R 8188   4.183   0.888   3.747 -0.8233  0.7425 -0.7188
   87SOPE  H16S 8189   4.255   1.041   3.681  1.1417  0.3939 -0.9779
   87SOPE  C217 8190   4.381   0.936   3.828 -0.6105 -0.3565  0.0485
   87SOPE  H17R 8191   4.477   0.981   3.799 -0.0773 -0.5651  1.3977
   87SOPE  H17S 8192   4.416   0.831   3.842  0.1109 -0.3699 -1.6407
   87SOPE  C218 8193   4.339   0.996   3.968  0.0636 -0.0018 -0.2362
   87SOPE  H18R 8194   4.347   1.107   3.963  1.4518 -0.0405  0.6299
   87SOPE  H18S 8195   4.391   0.960   4.059 -0.8497  0.4759  0.4903
   87SOPE  H18T 8196   4.231   0.976   3.982  0.3409  0.3071  3.3581
   87SOPE   C33 8197   4.150   0.357   2.546 -0.9143 -0.6328  0.5856
   87SOPE   H3X 8198   4.043   0.386   2.553 -0.1550  3.1754 -0.9889
   87SOPE   H3Y 8199   4.198   0.455   2.525 -0.5857 -0.5643  1.5886
   87SOPE   C34 8200   4.168   0.300   2.690  0.4381  0.6506  0.4235
   87SOPE   H4X 8201   4.273   0.281   2.723  1.0437 -2.0118 -2.5411
   87SOPE   H4Y 8202   4.130   0.196   2.682 -1.9904  1.5588 -0.9320
   87SOPE   C35 8203   4.082   0.367   2.796 -0.7294  0.4375 -0.6859
   87SOPE   H5X 8204   3.981   0.384   2.755 -0.0808  2.7362 -1.4608
   87SOPE   H5Y 8205   4.121   0.467   2.825 -1.3750  0.4878  0.0575
   87SOPE   C36 8206   4.082   0.274   2.926 -0.1739  0.1239 -0.1220
   87SOPE   H6X 8207   4.172   0.291   2.989 -0.5427 -0.2554  0.5179
   87SOPE   H6Y 8208   4.081   0.168   2.893 -0.8317 -0.5135  1.7576
   87SOPE   C37 8209   3.959   0.303   3.014  0.2960  0.1742 -0.3522
   87SOPE   H7X 8210   3.925   0.227   3.088 -3.1958  0.9894 -0.9135
   87SOPE   H7Y 8211   3.877   0.299   2.939 -1.6204 -0.5736  1.6451
   87SOPE   C38 8212   3.964   0.432   3.088 -0.1306 -0.5306 -0.2260
   87SOPE   H8X 8213   3.858   0.467   3.094 -1.3800 -3.9336  0.5035
   87SOPE   H8Y 8214   4.014   0.517   3.038 -0.0580 -1.1668 -1.2645
   87SOPE   C39 8215   4.036   0.420   3.224  0.6392 -0.2091  0.0212
   87SOPE   H9X 8216   4.139   0.389   3.195  0.2179  0.2173 -2.0400
   87SOPE   H9Y 8217   3.988   0.340   3.284  1.1528 -0.3712  0.2249
   87SOPE  C310 8218   4.037   0.544   3.309  0.5574  0.4618 -0.4531
   87SOPE  H10X 8219   4.039   0.636   3.248 -0.3665  1.4372  0.9154
   87SOPE  H10Y 8220   4.129   0.541   3.372  1.1467 -1.1191 -1.3486
   87SOPE  C311 8221   3.912   0.565   3.402  0.4844  0.2395  0.3406
   87SOPE  H11X 8222   3.821   0.567   3.338  1.6163  0.4047 -1.3313
   87SOPE  H11Y 8223   3.930   0.661   3.456 -1.4872  0.6154  0.4026
   87SOPE  C312 8224   3.892   0.457   3.504  1.0914  0.0665 -0.9424
   87SOPE  H12X 8225   3.989   0.411   3.534 -0.6749 -3.6942 -0.3348
   87SOPE  H12Y 8226   3.838   0.374   3.455  1.6473 -0.1687 -1.1677
   87SOPE  C313 8227   3.806   0.499   3.632 -1.1830  0.2081  0.4892
   87SOPE  H13X 8228   3.752   0.412   3.675  1.1358 -1.5452  0.0267
   87SOPE  H13Y 8229   3.726   0.568   3.598  0.1897  1.2318 -0.8407
   87SOPE  C314 8230   3.904   0.564   3.734  0.6865  0.2880  0.4023
   87SOPE  H14X 8231   3.929   0.664   3.693 -0.0168 -0.1458 -1.1478
   87SOPE  H14Y 8232   4.001   0.513   3.753  0.2540  0.0625  2.2084
   87SOPE  C315 8233   3.835   0.575   3.874  0.0428  0.5791  0.0818
   87SOPE  H15X 8234   3.730   0.611   3.864 -0.2137 -0.6480 -2.3063
   87SOPE  H15Y 8235   3.887   0.651   3.936 -2.3552  1.7817  0.7174
   87SOPE  C316 8236   3.822   0.445   3.947 -0.2443  0.4632  0.3711
   87SOPE  H16X 8237   3.918   0.400   3.980 -1.5611 -1.2018  2.1925
   87SOPE  H16Y 8238   3.776   0.367   3.882  0.5980  0.5762 -0.3738
   87SOPE  C317 8239   3.740   0.459   4.078  0.1498 -0.0140  0.2946
   87SOPE  H17X 8240   3.728   0.354   4.114  0.1611 -0.4251 -0.8537
   87SOPE  H17Y 8241   3.635   0.491   4.057  0.1969 -0.1987 -0.2322
   87SOPE  C318 8242   3.804   0.545   4.187  0.0902 -0.5944  0.1688
   87SOPE  H18X 8243   3.866   0.483   4.254  0.0559  0.0392  0.7907
   87SOPE  H18Y 8244   3.729   0.599   4.248 -0.6078 -1.1239 -0.2018
   87SOPE  H18Z 8245   3.873   0.619   4.142  0.4165  1.2812  3.4806
   88SOPE     N 8246   4.675   2.236   2.109 -0.3043  0.2600 -0.4864
   88SOPE   HN1 8247   4.602   2.293   2.156  1.3315  1.3216  0.8806
   88SOPE   HN2 8248   4.628   2.153   2.067  0.9180 -0.2512 -0.8935
   88SOPE   HN3 8249   4.753   2.213   2.173  0.2716  3.1604 -0.0022
   88SOPE   C12 8250   4.751   2.328   2.010  0.6813 -0.1742 -0.0529
   88SOPE  H12A 8251   4.670   2.370   1.946 -0.2861 -2.8373 -0.7004
   88SOPE  H12B 8252   4.802   2.264   1.935  0.0126  1.5017 -2.0390
   88SOPE   C11 8253   4.845   2.438   2.068  0.1838  0.9529  0.7508
   88SOPE  H11A 8254   4.783   2.511   2.125 -0.6481 -0.2649  1.4655
   88SOPE  H11B 8255   4.896   2.495   1.988 -2.3872 -0.5160 -2.1439
   88SOPE     P 8256   5.082   2.421   2.177 -0.1197  0.4491 -0.0924
   88SOPE   O13 8257   5.142   2.446   2.046  0.2934  0.1618 -0.0236
   88SOPE   O14 8258   5.155   2.325   2.268  0.2947 -0.5173  0.4537
   88SOPE   O12 8259   4.932   2.373   2.163 -0.3172 -0.1548 -0.0949
   88SOPE   O11 8260   5.079   2.557   2.251  0.2337 -0.1350 -1.0642
   88SOPE    C1 8261   5.006   2.595   2.371  0.1582 -0.2480 -0.1965
   88SOPE    HA 8262   4.916   2.530   2.377 -1.2041  1.4756 -0.9218
   88SOPE    HB 8263   4.968   2.695   2.341 -0.7261 -0.3809  0.4450
   88SOPE    C2 8264   5.098   2.604   2.497  0.2719  0.3578 -0.3037
   88SOPE    HS 8265   5.185   2.670   2.475 -0.6153  1.3971 -0.7542
   88SOPE   O21 8266   5.133   2.472   2.541 -0.4221  0.1178  0.0092
   88SOPE   C21 8267   5.263   2.439   2.562  0.6148 -0.0413  0.3331
   88SOPE   O22 8268   5.351   2.525   2.562 -0.1426 -0.1470  0.1553
   88SOPE   C22 8269   5.281   2.289   2.578  0.3144 -0.2466  0.1655
   88SOPE   H2R 8270   5.329   2.269   2.480 -0.1444 -0.9220  0.0696
   88SOPE   H2S 8271   5.184   2.235   2.578  0.9993 -1.5073  0.4120
   88SOPE    C3 8272   5.016   2.666   2.611 -0.6032 -0.3274 -0.7463
   88SOPE    HX 8273   4.929   2.606   2.644 -2.1323  2.3173  0.3481
   88SOPE    HY 8274   4.989   2.766   2.572  0.5614 -0.2331 -1.3680
   88SOPE   O31 8275   5.112   2.681   2.718 -0.1856  0.4148 -0.4765
   88SOPE   C31 8276   5.122   2.578   2.806  0.4498 -0.6863  0.7337
   88SOPE   O32 8277   5.041   2.489   2.826  0.1819  0.2566  0.2033
   88SOPE   C32 8278   5.245   2.612   2.892  1.0275 -0.4473  0.2470
   88SOPE   H2X 8279   5.277   2.719   2.887  3.4795 -1.0506  1.2606
   88SOPE   H2Y 8280   5.326   2.557   2.840  1.4820  2.0264 -1.8634
   88SOPE   C23 8281   5.370   2.255   2.695  0.3730 -0.2145  0.5326
   88SOPE   H3R 8282   5.314   2.293   2.783 -0.1060 -1.5703  0.8401
   88SOPE   H3S 8283   5.462   2.317   2.690 -0.0659  0.5716  1.9775
   88SOPE   C24 8284   5.386   2.104   2.725  0.3568 -0.4466  0.5046
   88SOPE   H4R 8285   5.289   2.053   2.740  0.2903 -0.4652  0.0320
   88SOPE   H4S 8286   5.430   2.067   2.630 -0.3428 -2.1779  0.8169
   88SOPE   C25 8287   5.493   2.078   2.841  0.4428 -0.4898  0.5060
   88SOPE   H5R 8288   5.511   1.970   2.860  0.9641 -0.3447  0.8447
   88SOPE   H5S 8289   5.591   2.125   2.820 -0.3298  1.1247  0.3623
   88SOPE   C26 8290   5.448   2.130   2.986 -0.2978 -0.4967 -0.7088
   88SOPE   H6R 8291   5.420   2.238   2.983  1.0703 -0.1246 -3.3852
   88SOPE   H6S 8292   5.352   2.080   3.012 -0.8111  0.4277 -0.7683
   88SOPE   C27 8293   5.564   2.107   3.082  0.0527 -0.0096  0.1175
   88SOPE   H7R 8294   5.593   2.000   3.081 -0.7782 -0.2398 -0.3662
   88SOPE   H7S 8295   5.648   2.174   3.057 -2.1160  3.1489  0.7120
   88SOPE   C28 8296   5.520   2.131   3.224  0.2284  0.3488 -0.2433
   88SOPE   H8R 8297   5.438   2.063   3.254  2.4588 -3.0338 -1.2064
   88SOPE   H8S 8298   5.603   2.097   3.289  0.1316 -0.2334 -0.4194
   88SOPE   C29 8299   5.469   2.268   3.254  0.1205 -0.4357  0.1851
   88SOPE   H91 8300   5.435   2.325   3.166 -0.3344  0.5074  0.9596
   88SOPE  C210 8301   5.484   2.346   3.359  0.5489  0.2173 -0.6372
   88SOPE  H101 8302   5.427   2.440   3.366 -0.2607 -0.3492  0.7415
   88SOPE  C211 8303   5.558   2.310   3.480 -0.3722 -0.0424 -0.4367
   88SOPE  H11R 8304   5.662   2.347   3.469 -0.7567  1.6973  1.1548
   88SOPE  H11S 8305   5.563   2.200   3.489 -3.0733 -0.1902  0.1741
   88SOPE  C212 8306   5.530   2.362   3.625 -0.7612 -0.0223  0.7284
   88SOPE  H12R 8307   5.442   2.312   3.670 -0.4190 -2.1047 -0.7444
   88SOPE  H12S 8308   5.517   2.472   3.618  0.3927  0.0793 -0.0719
   88SOPE  C213 8309   5.644   2.330   3.729 -0.6856 -0.2870 -0.0101
   88SOPE  H13R 8310   5.733   2.355   3.668 -0.3462 -0.2177  0.5120
   88SOPE  H13S 8311   5.647   2.222   3.758  2.4031 -0.1202  0.5902
   88SOPE  C214 8312   5.646   2.415   3.864  0.0168 -0.3145  0.3160
   88SOPE  H14R 8313   5.544   2.409   3.906 -0.4683  0.8367 -0.6313
   88SOPE  H14S 8314   5.668   2.521   3.840 -1.6104 -0.2937 -1.3212
   88SOPE  C215 8315   5.743   2.354   3.968  0.2556 -0.3776 -0.5496
   88SOPE  H15R 8316   5.840   2.358   3.913 -0.6047  3.5298 -2.1202
   88SOPE  H15S 8317   5.717   2.247   3.981 -2.5950  0.1344 -1.3593
   88SOPE  C216 8318   5.755   2.428   4.098 -0.0154 -0.5155 -0.0229
   88SOPE  H16R 8319   5.671   2.390   4.161 -0.3169 -0.4672 -0.3923
   88SOPE  H16S 8320   5.733   2.536   4.087 -2.0502 -0.9139 -0.3846
   88SOPE  C217 8321   5.889   2.413   4.180  0.1240  0.0464  0.2242
   88SOPE  H17R 8322   5.977   2.459   4.131 -1.2562  2.8723  0.1961
   88SOPE  H17S 8323   5.888   2.303   4.194  0.9135 -0.2351 -1.6990
   88SOPE  C218 8324   5.885   2.482   4.319 -0.4537 -0.8388 -0.1084
   88SOPE  H18R 8325   5.799   2.439   4.374 -1.0248  0.2319 -0.1361
   88SOPE  H18S 8326   5.870   2.592   4.316  0.5258 -0.7014 -0.3091
   88SOPE  H18T 8327   5.979   2.474   4.376 -0.4099 -0.7611 -0.1687
   88SOPE   C33 8328   5.249   2.555   3.037 -0.4079  0.1022  0.1565
   88SOPE   H3X 8329   5.351   2.545   3.080 -0.3844  1.6333  0.4934
   88SOPE   H3Y 8330   5.205   2.452   3.034  1.9067 -0.9254 -1.0106
   88SOPE   C34 8331   5.177   2.649   3.136 -0.5744  0.1066 -0.1057
   88SOPE   H4X 8332   5.069   2.624   3.123 -0.4315 -0.0221 -1.1917
   88SOPE   H4Y 8333   5.188   2.755   3.106  1.5453 -0.2549 -0.7626
   88SOPE   C35 8334   5.220   2.637   3.282  0.0372  0.0322  0.0583
   88SOPE   H5X 8335   5.328   2.661   3.278  0.0087  0.0412 -1.5297
   88SOPE   H5Y 8336   5.230   2.531   3.312 -0.4573  0.4238  1.6679
   88SOPE   C36 8337   5.143   2.724   3.374 -0.0157 -1.1035  0.1280
   88SOPE   H6X 8338   5.039   2.693   3.395  0.3628 -1.5932  1.3761
   88SOPE   H6Y 8339   5.140   2.831   3.343 -1.3411 -0.7760  1.3078
   88SOPE   C37 8340   5.206   2.726   3.523  0.4378  0.6743  0.0139
   88SOPE   H7X 8341   5.153   2.807   3.577 -1.2704  0.3200 -1.0656
   88SOPE   H7Y 8342   5.309   2.767   3.516  0.6957 -0.1092 -0.9232
   88SOPE   C38 8343   5.198   2.586   3.597  0.0245 -0.3502 -0.1732
   88SOPE   H8X 8344   5.258   2.504   3.553 -1.6161 -0.4868 -2.3287
   88SOPE   H8Y 8345   5.099   2.539   3.577 -0.5185  0.4507  0.5157
   88SOPE   C39 8346   5.225   2.599   3.750  0.3897  0.2812  0.0223
   88SOPE   H9X 8347   5.163   2.678   3.797 -0.3994 -0.4678  0.2641
   88SOPE   H9Y 8348   5.331   2.630   3.764  0.6489 -0.5259 -0.0998
   88SOPE  C310 8349   5.217   2.470   3.825 -0.2827 -0.4274 -0.2229
   88SOPE  H10X 8350   5.314   2.418   3.808 -0.2971 -0.0593 -1.5637
   88SOPE  H10Y 8351   5.126   2.423   3.781 -1.4397  0.9957  0.5564
   88SOPE  C311 8352   5.180   2.484   3.971 -0.6087  0.5357  0.7097
   88SOPE  H11X 8353   5.153   2.381   4.004  1.9409 -1.1077 -1.7829
   88SOPE  H11Y 8354   5.103   2.560   3.994 -2.8409 -1.3653 -0.1066
   88SOPE  C312 8355   5.306   2.515   4.063  0.3085  0.1447 -0.0264
   88SOPE  H12X 8356   5.340   2.618   4.039  1.7262 -0.3944 -0.4405
   88SOPE  H12Y 8357   5.398   2.454   4.046  0.0113  0.0878 -1.5183
   88SOPE  C313 8358   5.274   2.498   4.217  0.2509 -0.1481 -0.0429
   88SOPE  H13X 8359   5.257   2.391   4.240  0.7094  0.1999  2.1114
   88SOPE  H13Y 8360   5.187   2.559   4.248  1.1282  0.5800  1.0359
   88SOPE  C314 8361   5.395   2.544   4.302  0.1230  0.2334  0.2419
   88SOPE  H14X 8362   5.427   2.648   4.276 -1.2445  0.6111 -0.0027
   88SOPE  H14Y 8363   5.478   2.479   4.268 -0.9101 -1.1862  0.3849
   88SOPE  C315 8364   5.387   2.540   4.455  0.1917 -0.0899 -0.4178
   88SOPE  H15X 8365   5.399   2.439   4.499  2.3649 -0.0283 -0.7773
   88SOPE  H15Y 8366   5.283   2.566   4.483  1.1252  1.9288  1.3980
   88SOPE  C316 8367   5.472   2.638   4.531  0.2984  0.0153  0.0162
   88SOPE  H16X 8368   5.457   2.735   4.478  1.0275  1.1998  1.8636
   88SOPE  H16Y 8369   5.581   2.619   4.524  0.7147  1.9815  0.3617
   88SOPE  C317 8370   5.433   2.645   4.683 -0.2308  0.6144  0.9248
   88SOPE  H17X 8371   5.436   2.545   4.731 -0.1213  0.8083  1.3272
   88SOPE  H17Y 8372   5.329   2.683   4.688  0.2810  1.9590  1.8834
   88SOPE  C318 8373   5.514   2.725   4.771  0.6798 -0.0291 -0.3642
   88SOPE  H18X 8374   5.500   2.708   4.880  2.3790 -1.6174 -0.3521
   88SOPE  H18Y 8375   5.512   2.831   4.740 -0.4979 -0.0665 -0.4603
   88SOPE  H18Z 8376   5.622   2.703   4.761  1.3651  2.7980  0.2302
   89SAPC     N 8377   4.019   2.731   6.493 -0.1493 -0.5059  0.0541
   89SAPC   C12 8378   4.085   2.834   6.575  0.1238 -0.6012  1.1133
   89SAPC  H12A 8379   4.013   2.909   6.607 -0.5330 -0.3023 -0.9459
   89SAPC  H12B 8380   4.154   2.890   6.512 -0.6113 -2.2929 -1.3256
   89SAPC   C13 8381   3.943   2.629   6.572  0.1698  0.0446  0.1231
   89SAPC  H13A 8382   3.867   2.663   6.641  1.1283 -0.6076  1.5452
   89SAPC  H13B 8383   3.897   2.563   6.500 -0.7643  1.9136 -1.0599
   89SAPC  H13C 8384   4.018   2.573   6.627  2.4708  1.7642 -1.0842
   89SAPC   C14 8385   3.931   2.808   6.408  0.8367  0.1335 -0.4363
   89SAPC  H14A 8386   3.985   2.871   6.339 -0.1891 -1.3759 -2.7162
   89SAPC  H14B 8387   3.875   2.744   6.343 -0.0963  0.7761 -0.2810
   89SAPC  H14C 8388   3.865   2.872   6.465  1.0803  1.4036 -1.5393
   89SAPC   C15 8389   4.123   2.651   6.421 -0.5112 -0.0176 -0.1397
   89SAPC  H15A 8390   4.196   2.606   6.487 -0.5036  0.0763 -0.0829
   89SAPC  H15B 8391   4.077   2.569   6.369  2.3498 -2.0182  0.2961
   89SAPC  H15C 8392   4.177   2.702   6.343  0.9935 -2.2641 -0.6523
   89SAPC   C11 8393   4.165   2.784   6.700  0.1300 -0.4174 -0.5697
   89SAPC  H11A 8394   4.089   2.724   6.753 -0.5475 -1.7377 -2.8792
   89SAPC  H11B 8395   4.189   2.878   6.755 -1.2671 -0.2741 -0.1436
   89SAPC     P 8396   4.411   2.762   6.610  0.2337  0.2860  0.0087
   89SAPC   O13 8397   4.427   2.904   6.645  0.4250 -0.1028 -0.0016
   89SAPC   O14 8398   4.524   2.674   6.649  0.8949  0.0961  0.1395
   89SAPC   O12 8399   4.285   2.710   6.677  0.2200  0.5028  0.0021
   89SAPC   O11 8400   4.378   2.748   6.464 -0.2452 -0.0720 -0.1714
   89SAPC    C1 8401   4.476   2.790   6.360  0.0230  0.0418 -0.2632
   89SAPC    HA 8402   4.467   2.897   6.331 -3.2002  0.3744  1.5508
   89SAPC    HB 8403   4.577   2.782   6.405  0.3787 -0.1578 -1.0717
   89SAPC    C2 8404   4.468   2.698   6.237  0.4511  0.0257 -0.1152
   89SAPC    HS 8405   4.556   2.716   6.172  0.3375  0.4671 -0.1475
   89SAPC   O21 8406   4.356   2.744   6.164  0.1422 -0.2182  0.1598
   89SAPC   C21 8407   4.369   2.869   6.108  0.4803  0.3772  0.4520
   89SAPC   O22 8408   4.473   2.931   6.089  0.0608  0.2175 -0.5906
   89SAPC   C22 8409   4.229   2.913   6.058  0.5324 -0.5543  0.1191
   89SAPC   H2R 8410   4.160   2.827   6.059  1.4675 -1.3448 -0.8422
   89SAPC   H2S 8411   4.176   2.993   6.113  1.4963  0.2318 -0.0572
   89SAPC    C3 8412   4.458   2.560   6.279 -0.3861  1.0331  0.1697
   89SAPC    HX 8413   4.349   2.543   6.290 -0.2566 -0.0324 -0.0990
   89SAPC    HY 8414   4.503   2.550   6.380 -0.4473 -1.1268  0.0253
   89SAPC   O31 8415   4.522   2.477   6.176 -0.2336  0.0367 -0.5543
   89SAPC   C31 8416   4.553   2.349   6.212 -0.3175  0.2258  0.4897
   89SAPC   O32 8417   4.495   2.280   6.294 -0.7551 -0.4695  0.0658
   89SAPC   C32 8418   4.674   2.300   6.124  0.0181 -0.4449  1.0252
   89SAPC   H2X 8419   4.770   2.319   6.176  0.8802  1.8787 -1.1802
   89SAPC   H2Y 8420   4.668   2.355   6.028 -0.5974  0.1096  1.3698
   89SAPC   C23 8421   4.242   2.960   5.912  0.3056  0.2072  0.2989
   89SAPC   H3R 8422   4.282   2.879   5.847 -0.3829 -1.0043  1.3269
   89SAPC   H3S 8423   4.301   3.053   5.919  2.5663 -1.1047 -0.4004
   89SAPC   C24 8424   4.102   2.998   5.853  0.1550  0.1479  0.2164
   89SAPC   H4R 8425   4.039   3.040   5.934 -0.5823 -1.3831  0.4697
   89SAPC   H4S 8426   4.059   2.899   5.826 -1.7177  0.5473  1.5408
   89SAPC   C25 8427   4.118   3.094   5.741 -0.0167  0.2135 -0.0879
   89SAPC   H5R 8428   4.175   3.185   5.763 -1.2630  1.8147 -2.8971
   89SAPC   C26 8429   4.055   3.086   5.618 -0.0764 -1.0017 -0.6266
   89SAPC   H6R 8430   4.095   3.154   5.540  3.6314 -1.1211  0.9258
   89SAPC   C27 8431   3.954   2.989   5.575 -0.1683  0.0979 -0.1559
   89SAPC   H7R 8432   3.909   2.942   5.665 -0.5714  0.4173 -0.1881
   89SAPC   H7S 8433   4.013   2.912   5.521  0.1339  1.5962 -2.0597
   89SAPC   C28 8434   3.836   3.047   5.496 -0.8960  0.4248 -0.1569
   89SAPC   H8R 8435   3.760   3.105   5.551 -1.5506 -1.2064  0.7294
   89SAPC   C29 8436   3.809   3.021   5.368  0.4399 -0.8847 -0.1463
   89SAPC   H9R 8437   3.718   3.064   5.325  1.3493  1.1746 -0.1205
   89SAPC  C210 8438   3.904   2.943   5.283 -0.9704 -0.4585 -0.1762
   89SAPC  H10R 8439   3.921   2.839   5.316 -1.2008 -0.2200  0.7173
   89SAPC  H10S 8440   4.006   2.985   5.278 -0.2772 -2.2049 -2.1392
   89SAPC  C211 8441   3.845   2.931   5.145  0.2521  0.4831  0.4737
   89SAPC  H11R 8442   3.912   2.968   5.065 -0.9487  0.4728 -0.5785
   89SAPC  C212 8443   3.742   2.857   5.106 -0.5867 -0.5308 -0.0250
   89SAPC  H12R 8444   3.709   2.866   5.001 -0.8560 -0.6590  0.0474
   89SAPC  C213 8445   3.659   2.764   5.191 -0.0728 -0.8519  0.1473
   89SAPC  H13R 8446   3.688   2.773   5.298  2.2564  0.8229 -0.5669
   89SAPC  H13S 8447   3.682   2.659   5.162 -1.2453 -1.7070  2.0519
   89SAPC  C214 8448   3.513   2.799   5.175 -0.0145  0.3489  0.3733
   89SAPC  H14R 8449   3.484   2.752   5.079 -0.7326  1.4297  0.0397
   89SAPC  C215 8450   3.421   2.846   5.260 -0.0068  0.7645 -0.4507
   89SAPC  H15R 8451   3.318   2.858   5.224  0.5746  0.5711 -2.2731
   89SAPC  C216 8452   3.448   2.876   5.403 -0.5583 -0.1506 -0.5475
   89SAPC  H16R 8453   3.371   2.947   5.440  0.4067  0.6442 -0.0133
   89SAPC  H16S 8454   3.547   2.919   5.429 -1.0722 -0.6593  2.6348
   89SAPC  C217 8455   3.450   2.740   5.480 -0.1608 -0.2119 -0.0905
   89SAPC  H17R 8456   3.543   2.680   5.472 -1.6390 -3.0033  2.0044
   89SAPC  H17S 8457   3.364   2.682   5.440 -0.1610  0.6059 -1.3323
   89SAPC  C218 8458   3.419   2.757   5.630 -0.1269  0.1011  0.7965
   89SAPC  H18R 8459   3.446   2.661   5.678 -0.7357 -0.1923  0.5598
   89SAPC  H18S 8460   3.311   2.783   5.642  0.5111  1.8921  3.6166
   89SAPC  C219 8461   3.492   2.872   5.697  0.0594  0.4860  0.7693
   89SAPC  H19R 8462   3.467   2.970   5.651  0.4696 -0.1462 -0.8647
   89SAPC  H19S 8463   3.600   2.859   5.674  0.1514  0.0740  1.4230
   89SAPC  C220 8464   3.465   2.883   5.844 -0.2243 -0.0754 -0.0492
   89SAPC  H20R 8465   3.356   2.896   5.863 -0.0819  1.2727 -0.1000
   89SAPC  H20S 8466   3.514   2.977   5.878 -0.1153  0.4575 -1.5912
   89SAPC  H20T 8467   3.514   2.805   5.907  0.1842  0.4158  0.2463
   89SAPC   C33 8468   4.663   2.149   6.102  0.3161  0.1329 -0.5903
   89SAPC   H3X 8469   4.561   2.125   6.065 -0.1032 -0.2816  0.7840
   89SAPC   H3Y 8470   4.677   2.095   6.199 -2.8254 -2.7935 -1.5469
   89SAPC   C34 8471   4.765   2.099   5.994  0.1408  0.4043  0.1504
   89SAPC   H4X 8472   4.786   1.992   6.017  0.0601  0.6085  1.2539
   89SAPC   H4Y 8473   4.847   2.172   6.012  0.5036 -0.3924  2.0580
   89SAPC   C35 8474   4.703   2.113   5.854 -0.4679 -1.3576 -0.2100
   89SAPC   H5X 8475   4.645   2.208   5.855  1.4072 -0.1680  0.3375
   89SAPC   H5Y 8476   4.632   2.031   5.831 -1.8899  0.0992 -1.2089
   89SAPC   C36 8477   4.822   2.114   5.759 -0.5570 -0.7122  0.4272
   89SAPC   H6X 8478   4.871   2.016   5.776 -0.0728 -0.3512  1.1688
   89SAPC   H6Y 8479   4.892   2.196   5.786  1.5332 -1.9320 -0.9990
   89SAPC   C37 8480   4.796   2.140   5.611 -0.6466 -0.3479 -0.1395
   89SAPC   H7X 8481   4.768   2.248   5.604  2.4323  0.5444 -0.3125
   89SAPC   H7Y 8482   4.713   2.071   5.584 -1.1216 -1.3642  3.3371
   89SAPC   C38 8483   4.910   2.110   5.521  0.1130  0.3390  0.5724
   89SAPC   H8X 8484   4.937   2.004   5.539  2.2578  0.9472  1.2520
   89SAPC   H8Y 8485   5.001   2.170   5.541 -0.9046  1.8983  0.7028
   89SAPC   C39 8486   4.876   2.133   5.370 -0.1367 -0.0853 -0.7445
   89SAPC   H9X 8487   4.831   2.234   5.361 -0.1143  0.1130  1.0168
   89SAPC   H9Y 8488   4.791   2.071   5.333 -0.3351  0.3882 -1.0985
   89SAPC  C310 8489   4.989   2.122   5.276  0.5781 -0.5230  0.0581
   89SAPC  H10X 8490   5.040   2.028   5.304  0.1114 -0.5450  0.8410
   89SAPC  H10Y 8491   5.057   2.209   5.288  0.3661  0.1311 -2.6806
   89SAPC  C311 8492   4.939   2.107   5.134 -0.6689 -0.4745  0.1076
   89SAPC  H11X 8493   4.889   2.201   5.100 -3.5472 -1.6221  0.8667
   89SAPC  H11Y 8494   4.856   2.033   5.142 -0.6275 -0.4645  0.6031
   89SAPC  C312 8495   5.037   2.071   5.022 -0.2642  0.0245 -0.1095
   89SAPC  H12X 8496   4.980   2.030   4.937 -1.5072  3.1118 -0.8801
   89SAPC  H12Y 8497   5.116   2.003   5.062  0.7990  1.1162 -0.2983
   89SAPC  C313 8498   5.108   2.194   4.965 -0.4058 -0.0571  0.0114
   89SAPC  H13X 8499   5.026   2.265   4.941  0.8498  2.2660  2.1926
   89SAPC  H13Y 8500   5.161   2.171   4.871 -1.4251 -0.3543 -0.5117
   89SAPC  C314 8501   5.205   2.259   5.059 -0.1045  0.5793  0.0822
   89SAPC  H14X 8502   5.267   2.178   5.102  0.0666 -0.0040 -1.1985
   89SAPC  H14Y 8503   5.149   2.303   5.144  0.6639 -0.8344  1.3572
   89SAPC  C315 8504   5.287   2.371   4.995 -0.2887 -0.4274  0.4521
   89SAPC  H15X 8505   5.220   2.441   4.941 -1.9958 -1.1348  1.5557
   89SAPC  H15Y 8506   5.351   2.333   4.913 -2.5731 -0.0296 -1.6160
   89SAPC  C316 8507   5.367   2.461   5.097  0.7962 -0.3391  0.1322
   89SAPC  H16X 8508   5.288   2.508   5.159 -1.2259  0.9527 -3.1421
   89SAPC  H16Y 8509   5.423   2.535   5.036 -0.1476 -0.5371 -1.0235
   89SAPC  C317 8510   5.470   2.379   5.184  1.2912  0.5660  0.3472
   89SAPC  H17X 8511   5.521   2.299   5.126 -1.0756 -1.2061  0.5505
   89SAPC  H17Y 8512   5.411   2.335   5.267  0.4294  1.7927  0.4173
   89SAPC  C318 8513   5.567   2.468   5.263  0.1661  0.3106 -0.2974
   89SAPC  H18X 8514   5.516   2.533   5.338  0.7214 -1.9693  2.2098
   89SAPC  H18Y 8515   5.632   2.536   5.205 -0.5796  2.1137  0.9000
   89SAPC  H18Z 8516   5.632   2.411   5.333 -0.3801  1.6945  1.4079
   90SAPC     N 8517   1.975   0.658   6.968 -0.0455 -0.4497  0.1875
   90SAPC   C12 8518   2.086   0.560   6.946 -0.9392  0.1616  0.5476
   90SAPC  H12A 8519   2.121   0.529   7.043  3.3476  2.0522 -0.1753
   90SAPC  H12B 8520   2.175   0.611   6.911 -0.8681 -1.2611 -1.5521
   90SAPC   C13 8521   1.851   0.595   7.034  0.3698  0.1688 -0.4415
   90SAPC  H13A 8522   1.835   0.492   7.004 -0.0240 -0.5188  1.8837
   90SAPC  H13B 8523   1.863   0.588   7.141  0.8332 -2.2988 -0.5947
   90SAPC  H13C 8524   1.761   0.650   7.013 -0.5627 -1.7319 -1.7102
   90SAPC   C14 8525   2.017   0.767   7.061  0.7593  1.0372  0.8009
   90SAPC  H14A 8526   2.108   0.820   7.036  0.7636  1.2223  1.2024
   90SAPC  H14B 8527   1.939   0.842   7.059  1.9775  2.3626  1.6320
   90SAPC  H14C 8528   2.030   0.721   7.157 -0.7454 -2.7784 -0.6340
   90SAPC   C15 8529   1.926   0.724   6.840  0.2395  0.1532  0.5646
   90SAPC  H15A 8530   1.881   0.657   6.769  0.7791  0.2499  0.1210
   90SAPC  H15B 8531   1.864   0.810   6.862  0.9693  1.0379 -0.6806
   90SAPC  H15C 8532   2.006   0.763   6.779  0.3638 -1.5812 -0.4499
   90SAPC   C11 8533   2.071   0.439   6.837  0.4616  0.3293 -0.1555
   90SAPC  H11A 8534   2.162   0.376   6.827 -0.0083 -0.3115 -0.4748
   90SAPC  H11B 8535   2.050   0.492   6.742  0.7891  0.2196 -0.2899
   90SAPC     P 8536   1.955   0.219   6.935 -0.3640 -0.3318 -0.2431
   90SAPC   O13 8537   2.087   0.196   7.007 -0.1203  0.1575 -0.0637
   90SAPC   O14 8538   1.828   0.221   7.014  0.1327  0.2591  0.3290
   90SAPC   O12 8539   1.949   0.367   6.866 -0.0236  0.5298  0.3674
   90SAPC   O11 8540   1.932   0.121   6.815  0.5616  0.3344 -0.1426
   90SAPC    C1 8541   1.966   0.143   6.680 -0.3078 -0.4229  0.6891
   90SAPC    HA 8542   1.896   0.210   6.626  2.2817  0.4751 -1.8025
   90SAPC    HB 8543   2.061   0.200   6.670  0.3713 -1.4971  0.9148
   90SAPC    C2 8544   1.971   0.016   6.592  0.4313  0.3385  0.2273
   90SAPC    HS 8545   2.053  -0.047   6.631  0.7201 -0.7695 -1.9923
   90SAPC   O21 8546   2.008   0.047   6.460  0.2476 -0.9434  0.0637
   90SAPC   C21 8547   2.072  -0.053   6.391 -0.2799 -0.5099 -0.5127
   90SAPC   O22 8548   2.103  -0.162   6.434  0.1226 -0.1174  0.5514
   90SAPC   C22 8549   2.098  -0.005   6.250 -0.1043  0.2726 -0.2856
   90SAPC   H2R 8550   2.003   0.022   6.199 -0.0401 -2.8317 -2.3142
   90SAPC   H2S 8551   2.166   0.083   6.254  3.6624 -2.3597 -0.7199
   90SAPC    C3 8552   1.831  -0.052   6.587 -0.1261  0.3478  0.0176
   90SAPC    HX 8553   1.798  -0.057   6.693  0.6857 -2.1940  0.2434
   90SAPC    HY 8554   1.824  -0.159   6.555 -1.2237 -0.0070  1.3521
   90SAPC   O31 8555   1.739   0.031   6.507 -0.1182  0.0100 -0.9367
   90SAPC   C31 8556   1.727   0.008   6.382 -0.4313  0.2486  0.3373
   90SAPC   O32 8557   1.777  -0.088   6.323  0.1128 -0.3872 -0.0813
   90SAPC   C32 8558   1.652   0.124   6.310 -0.4894  0.3042 -0.5471
   90SAPC   H2X 8559   1.695   0.223   6.332 -0.4863  0.0512  0.6368
   90SAPC   H2Y 8560   1.551   0.128   6.358 -0.3380  2.9796 -0.3106
   90SAPC   C23 8561   2.173  -0.102   6.155 -0.3775  0.1124 -0.4392
   90SAPC   H3R 8562   2.097  -0.183   6.147  2.6004 -2.9078 -0.2119
   90SAPC   H3S 8563   2.264  -0.150   6.196  0.4411  0.6573 -1.5485
   90SAPC   C24 8564   2.198  -0.037   6.013  0.1240 -0.8683 -0.5885
   90SAPC   H4R 8565   2.285  -0.083   5.962  0.8605 -3.0958  2.3922
   90SAPC   H4S 8566   2.213   0.072   6.027 -3.6691 -0.4439  1.6662
   90SAPC   C25 8567   2.079  -0.044   5.923 -0.0851 -0.4838  0.8611
   90SAPC   H5R 8568   1.984  -0.064   5.974 -0.2798 -1.7386  0.0495
   90SAPC   C26 8569   2.063  -0.031   5.790 -0.0776 -0.3960 -0.0175
   90SAPC   H6R 8570   1.966  -0.037   5.737 -0.0484  1.8797 -0.4007
   90SAPC   C27 8571   2.181  -0.003   5.698  0.5861 -0.3309  0.6165
   90SAPC   H7R 8572   2.221  -0.098   5.655 -0.6140  0.6334 -2.9349
   90SAPC   H7S 8573   2.265   0.045   5.752  1.7023  0.7542 -1.9350
   90SAPC   C28 8574   2.135   0.081   5.577  0.1510 -0.5131  0.1177
   90SAPC   H8R 8575   2.139   0.190   5.591  2.6227 -0.2492 -1.9131
   90SAPC   C29 8576   2.084   0.034   5.461 -0.2749  0.2240 -0.5415
   90SAPC   H9R 8577   2.067   0.107   5.381  2.2293  0.4528 -0.9516
   90SAPC  C210 8578   2.065  -0.114   5.434 -0.6880 -1.0528  0.4543
   90SAPC  H10R 8579   2.086  -0.166   5.530  0.2131 -1.7205 -0.0912
   90SAPC  H10S 8580   2.144  -0.133   5.358 -1.0246 -0.1324 -0.1477
   90SAPC  C211 8581   1.931  -0.151   5.370  0.1807  1.0539 -0.7255
   90SAPC  H11R 8582   1.890  -0.227   5.438 -0.2575  0.9338 -1.1235
   90SAPC  C212 8583   1.877  -0.135   5.251  0.2001 -0.6390 -0.3714
   90SAPC  H12R 8584   1.780  -0.178   5.224 -0.0514  0.3320 -1.0859
   90SAPC  C213 8585   1.914  -0.032   5.148 -0.1124  0.5402  0.2503
   90SAPC  H13R 8586   1.940  -0.092   5.058  0.1192  3.4760 -1.7998
   90SAPC  H13S 8587   2.005   0.020   5.186  0.7785 -0.8704  0.1494
   90SAPC  C214 8588   1.800   0.065   5.116  0.3250  0.0220  0.3124
   90SAPC  H14R 8589   1.813   0.168   5.154 -1.3924 -0.1129  1.3508
   90SAPC  C215 8590   1.697   0.036   5.041 -0.4574 -0.1034  0.2590
   90SAPC  H15R 8591   1.626   0.119   5.030 -0.4360  0.0003  0.8989
   90SAPC  C216 8592   1.654  -0.099   4.979  0.2408  0.0327 -0.0358
   90SAPC  H16R 8593   1.544  -0.114   4.989  0.0320  0.1897 -1.7538
   90SAPC  H16S 8594   1.712  -0.183   5.023  0.4047 -0.0226 -0.3564
   90SAPC  C217 8595   1.712  -0.114   4.837 -0.5520 -0.2122 -0.1427
   90SAPC  H17R 8596   1.700  -0.214   4.790  2.7873 -0.1544 -1.3896
   90SAPC  H17S 8597   1.820  -0.096   4.854 -0.7441  0.5197  0.3275
   90SAPC  C218 8598   1.667  -0.012   4.736 -0.0231 -0.7297 -0.9528
   90SAPC  H18R 8599   1.689   0.089   4.778  0.2394 -0.1490 -2.4337
   90SAPC  H18S 8600   1.559  -0.023   4.716 -0.3782  0.4131  0.1738
   90SAPC  C219 8601   1.734  -0.009   4.599 -0.4495 -0.1038  0.0331
   90SAPC  H19R 8602   1.712  -0.105   4.548 -1.9618 -1.3251  2.8086
   90SAPC  H19S 8603   1.844   0.007   4.605 -0.5505 -0.0247  2.7640
   90SAPC  C220 8604   1.674   0.102   4.511  0.1944 -0.2025 -0.2696
   90SAPC  H20R 8605   1.564   0.112   4.503  0.1100  0.1832  1.0722
   90SAPC  H20S 8606   1.720   0.103   4.410 -0.6706 -2.3880 -0.7364
   90SAPC  H20T 8607   1.700   0.196   4.565  2.2226 -2.0129  2.1554
   90SAPC   C33 8608   1.649   0.101   6.156  0.1193  0.2417  0.3255
   90SAPC   H3X 8609   1.560   0.140   6.102  1.5181  1.9475 -0.8474
   90SAPC   H3Y 8610   1.657  -0.007   6.132  0.0654 -0.0012  1.3357
   90SAPC   C34 8611   1.762   0.166   6.080 -0.6300 -0.6748  0.1710
   90SAPC   H4X 8612   1.856   0.109   6.098  1.5515  2.6381  0.1859
   90SAPC   H4Y 8613   1.772   0.270   6.117  1.5684 -0.5500 -0.5971
   90SAPC   C35 8614   1.735   0.172   5.931 -0.1682  0.3511 -0.5794
   90SAPC   H5X 8615   1.636   0.211   5.900  0.5055  0.5584 -2.6299
   90SAPC   H5Y 8616   1.746   0.071   5.884  0.9230  0.9011 -1.5701
   90SAPC   C36 8617   1.843   0.257   5.862  0.3371  0.5734 -0.2971
   90SAPC   H6X 8618   1.949   0.235   5.885  0.6713  1.0705 -1.2908
   90SAPC   H6Y 8619   1.830   0.364   5.889 -0.9251  1.9982 -5.4015
   90SAPC   C37 8620   1.841   0.257   5.705 -1.0556  0.1654  0.9850
   90SAPC   H7X 8621   1.844   0.154   5.664 -0.1627  0.7056 -0.3772
   90SAPC   H7Y 8622   1.935   0.310   5.682 -0.8975 -0.4326  0.2177
   90SAPC   C38 8623   1.725   0.339   5.640 -0.6983 -0.4915 -0.3896
   90SAPC   H8X 8624   1.707   0.438   5.686  1.5483  0.3716 -1.2467
   90SAPC   H8Y 8625   1.632   0.278   5.653 -1.2666  0.2204 -1.0253
   90SAPC   C39 8626   1.746   0.348   5.488 -0.4178  0.5060 -0.8312
   90SAPC   H9X 8627   1.763   0.243   5.456 -0.0296  0.7080 -1.2886
   90SAPC   H9Y 8628   1.840   0.404   5.472 -1.5431  2.7205 -0.1107
   90SAPC  C310 8629   1.626   0.408   5.415 -0.2358  0.7310  0.0659
   90SAPC  H10X 8630   1.589   0.502   5.463  1.3750  0.6792  1.4741
   90SAPC  H10Y 8631   1.550   0.328   5.400  1.6990 -0.9303 -1.3418
   90SAPC  C311 8632   1.681   0.441   5.272 -0.2964  0.4742  0.0035
   90SAPC  H11X 8633   1.721   0.344   5.236 -3.0668 -1.0594  0.7806
   90SAPC  H11Y 8634   1.767   0.509   5.293  0.0385 -0.1339  0.6354
   90SAPC  C312 8635   1.579   0.498   5.176 -0.2407  1.0735 -0.3634
   90SAPC  H12X 8636   1.518   0.581   5.218 -0.1658  0.6510  0.6277
   90SAPC  H12Y 8637   1.502   0.421   5.153  0.7812 -0.5453  1.2597
   90SAPC  C313 8638   1.635   0.538   5.040 -0.0159 -0.1288 -0.4501
   90SAPC  H13X 8639   1.643   0.649   5.028 -0.2836 -0.1862 -1.2349
   90SAPC  H13Y 8640   1.564   0.513   4.958  2.2696  1.3268 -3.0411
   90SAPC  C314 8641   1.768   0.474   4.992  0.1674 -1.1911 -0.4925
   90SAPC  H14X 8642   1.763   0.363   5.000  0.7408 -1.3099 -1.6908
   90SAPC  H14Y 8643   1.853   0.515   5.051 -0.0316  0.4677 -1.2934
   90SAPC  C315 8644   1.798   0.512   4.843  0.2687  0.0992 -0.8911
   90SAPC  H15X 8645   1.793   0.623   4.839 -1.5983  0.0457 -0.7101
   90SAPC  H15Y 8646   1.712   0.472   4.786 -0.1881  1.4060 -1.1542
   90SAPC  C316 8647   1.922   0.457   4.784  0.6441  0.7487 -0.3468
   90SAPC  H16X 8648   2.003   0.446   4.858  0.9853 -0.4466 -0.8694
   90SAPC  H16Y 8649   1.959   0.529   4.707  0.4718 -0.0818 -1.2369
   90SAPC  C317 8650   1.903   0.323   4.721 -0.0436  0.5634 -0.1137
   90SAPC  H17X 8651   1.793   0.310   4.705 -0.6603  2.0998  2.4208
   90SAPC  H17Y 8652   1.928   0.253   4.803 -2.0282  0.7031  0.6672
   90SAPC  C318 8653   1.983   0.294   4.591 -0.2564 -0.5537  0.0764
   90SAPC  H18X 8654   2.086   0.336   4.596 -0.7258  0.8353 -1.1365
   90SAPC  H18Y 8655   1.946   0.345   4.500  1.7322  2.0665  0.5867
   90SAPC  H18Z 8656   1.972   0.185   4.573 -0.9261 -0.5346  0.3316
   91SAPC     N 8657   0.296   0.944   6.575  0.2754 -0.4079 -0.1271
   91SAPC   C12 8658   0.143   0.942   6.613  0.4779 -0.7833 -0.2201
   91SAPC  H12A 8659   0.096   1.032   6.576  1.5062  0.1314  0.6632
   91SAPC  H12B 8660   0.138   0.941   6.721  0.0539  0.0408 -0.2257
   91SAPC   C13 8661   0.373   1.058   6.635 -0.2481 -0.1693  0.4278
   91SAPC  H13A 8662   0.335   1.153   6.600  1.1576 -0.1595 -1.1927
   91SAPC  H13B 8663   0.373   1.067   6.743 -0.0170 -0.0601  0.4197
   91SAPC  H13C 8664   0.478   1.050   6.610 -0.0056 -0.3028  1.4462
   91SAPC   C14 8665   0.351   0.813   6.620 -0.5852 -1.1074 -0.1308
   91SAPC  H14A 8666   0.325   0.785   6.721 -0.6063 -2.2738 -0.4437
   91SAPC  H14B 8667   0.319   0.729   6.561 -2.7031 -0.6334  0.2763
   91SAPC  H14C 8668   0.459   0.816   6.625 -0.6425  2.2246  1.6444
   91SAPC   C15 8669   0.305   0.962   6.427 -0.0639  0.2602  0.4181
   91SAPC  H15A 8670   0.251   0.881   6.380  1.8974  1.0531 -3.7135
   91SAPC  H15B 8671   0.261   1.058   6.406  1.3515  0.8853  0.1790
   91SAPC  H15C 8672   0.401   0.965   6.377 -0.1930  0.5444  0.1850
   91SAPC   C11 8673   0.052   0.822   6.566  0.3256 -0.3854  0.0699
   91SAPC  H11A 8674   0.062   0.811   6.456 -2.1043  0.3190 -0.2760
   91SAPC  H11B 8675  -0.053   0.853   6.585  1.0082  2.4375 -0.3802
   91SAPC     P 8676   0.116   0.566   6.577  0.3101 -0.1213 -0.1847
   91SAPC   O13 8677   0.208   0.587   6.464  0.1717  0.1195 -0.0669
   91SAPC   O14 8678   0.165   0.485   6.691 -0.1798 -0.4265 -0.6103
   91SAPC   O12 8679   0.094   0.704   6.636 -0.0491 -0.1902 -0.0237
   91SAPC   O11 8680  -0.029   0.514   6.512 -0.0083  0.0633  0.4056
   91SAPC    C1 8681  -0.072   0.377   6.510 -0.2132 -0.1122  0.2640
   91SAPC    HA 8682  -0.073   0.343   6.615 -1.4029  0.0774  0.3288
   91SAPC    HB 8683  -0.174   0.374   6.465 -0.2094 -0.5843  0.2740
   91SAPC    C2 8684   0.019   0.284   6.416  0.1318  0.6835  0.4819
   91SAPC    HS 8685   0.123   0.292   6.454  0.4832 -2.0218  0.2735
   91SAPC   O21 8686   0.022   0.328   6.280  0.0396 -0.0704  0.2243
   91SAPC   C21 8687   0.119   0.263   6.210 -1.0023 -0.4129  0.8294
   91SAPC   O22 8688   0.208   0.205   6.265 -0.1586 -0.0919 -0.6512
   91SAPC   C22 8689   0.110   0.298   6.064 -0.5684 -0.1597 -0.1575
   91SAPC   H2R 8690   0.003   0.294   6.035 -0.3327  2.4128 -1.6736
   91SAPC   H2S 8691   0.131   0.407   6.057 -0.6308  0.0367  2.0633
   91SAPC    C3 8692  -0.027   0.143   6.433 -0.5053 -0.4772 -0.3630
   91SAPC    HX 8693  -0.010   0.108   6.537 -0.3871 -2.4614 -1.0040
   91SAPC    HY 8694   0.034   0.067   6.381 -2.1534 -2.7259  0.8035
   91SAPC   O31 8695  -0.170   0.132   6.413 -0.2459  0.1008  0.3480
   91SAPC   C31 8696  -0.208   0.095   6.295 -0.7387 -0.0026  0.2433
   91SAPC   O32 8697  -0.138   0.049   6.209 -0.0941  0.7038 -0.3787
   91SAPC   C32 8698  -0.355   0.103   6.294  0.2079  0.5469  0.2600
   91SAPC   H2X 8699  -0.388   0.197   6.343 -1.5210  0.0893  0.0155
   91SAPC   H2Y 8700  -0.396   0.024   6.360 -0.5551 -0.3938 -1.2661
   91SAPC   C23 8701   0.207   0.204   5.983 -0.1428 -0.6097  0.1123
   91SAPC   H3R 8702   0.161   0.182   5.884 -2.1220  1.5344  0.4661
   91SAPC   H3S 8703   0.218   0.107   6.035 -1.1983  0.0068  1.5426
   91SAPC   C24 8704   0.348   0.273   5.969  0.1686 -0.8649  0.3482
   91SAPC   H4R 8705   0.418   0.203   5.919  1.4784  0.8097 -0.2438
   91SAPC   H4S 8706   0.391   0.279   6.071  0.5439 -2.7047  0.3274
   91SAPC   C25 8707   0.346   0.403   5.891  0.2312  0.0727 -0.0645
   91SAPC   H5R 8708   0.328   0.493   5.953  1.2833 -0.7000  1.4123
   91SAPC   C26 8709   0.368   0.426   5.761 -0.4814  0.1032  0.2657
   91SAPC   H6R 8710   0.369   0.530   5.725  0.3291 -0.5025 -1.5583
   91SAPC   C27 8711   0.389   0.325   5.658 -1.1366  0.1768 -0.1779
   91SAPC   H7R 8712   0.465   0.249   5.688  0.3139  0.6739 -2.3221
   91SAPC   H7S 8713   0.434   0.383   5.575  0.1064 -1.3263 -0.6063
   91SAPC   C28 8714   0.273   0.246   5.603  0.6366  0.8233  0.1398
   91SAPC   H8R 8715   0.212   0.197   5.680  0.8931  0.0528 -0.1341
   91SAPC   C29 8716   0.249   0.219   5.474 -0.0080  0.8434  0.0623
   91SAPC   H9R 8717   0.164   0.156   5.444  1.6313 -1.1053 -0.7159
   91SAPC  C210 8718   0.324   0.264   5.345 -0.0971  0.3005  0.4347
   91SAPC  H10R 8719   0.408   0.194   5.331  1.2402  1.6724  1.3157
   91SAPC  H10S 8720   0.362   0.368   5.354  1.4502 -0.2268  0.1433
   91SAPC  C211 8721   0.246   0.267   5.216  0.3714  0.2563  0.2250
   91SAPC  H11R 8722   0.154   0.326   5.219  1.2687  1.9549 -2.2959
   91SAPC  C212 8723   0.281   0.230   5.092 -0.3537  0.3834  0.1652
   91SAPC  H12R 8724   0.216   0.251   5.006 -0.5832  2.0366  0.7126
   91SAPC  C213 8725   0.406   0.160   5.044 -0.2723 -0.1471 -0.0025
   91SAPC  H13R 8726   0.389   0.051   5.042 -1.2417 -0.0814  2.0196
   91SAPC  H13S 8727   0.481   0.175   5.124 -1.4926  0.2839  1.0889
   91SAPC  C214 8728   0.457   0.211   4.912 -0.4198 -0.9359  0.6028
   91SAPC  H14R 8729   0.466   0.320   4.912 -2.6447 -0.6821 -0.4346
   91SAPC  C215 8730   0.457   0.141   4.796 -1.3486  0.4457  0.0450
   91SAPC  H15R 8731   0.487   0.188   4.702  0.4345  0.2208  0.4562
   91SAPC  C216 8732   0.449  -0.010   4.787  0.4225 -0.4521  0.7443
   91SAPC  H16R 8733   0.356  -0.040   4.735 -0.6037  0.6739  1.8696
   91SAPC  H16S 8734   0.450  -0.064   4.884 -0.1208 -1.2887  0.2942
   91SAPC  C217 8735   0.563  -0.063   4.697 -0.2654  0.9450  0.0610
   91SAPC  H17R 8736   0.666  -0.037   4.730  0.5868 -1.8242 -0.1595
   91SAPC  H17S 8737   0.565  -0.005   4.602 -2.7959  2.1100  0.6478
   91SAPC  C218 8738   0.539  -0.212   4.671 -0.2315  0.3060  0.0323
   91SAPC  H18R 8739   0.446  -0.213   4.611  0.7721 -0.7091 -1.5876
   91SAPC  H18S 8740   0.535  -0.270   4.765  0.7143  0.3676  0.1176
   91SAPC  C219 8741   0.649  -0.269   4.577 -0.4498 -0.5097 -0.0821
   91SAPC  H19R 8742   0.750  -0.283   4.623 -0.5934 -1.9147 -0.1635
   91SAPC  H19S 8743   0.664  -0.203   4.490  0.2999  1.7411  1.6482
   91SAPC  C220 8744   0.610  -0.406   4.514  0.7260  0.0251 -0.3433
   91SAPC  H20R 8745   0.517  -0.402   4.454 -0.7187  3.9085  1.8173
   91SAPC  H20S 8746   0.591  -0.476   4.599  1.2645 -0.5007 -0.6460
   91SAPC  H20T 8747   0.689  -0.457   4.454 -0.4372 -3.2848  0.6979
   91SAPC   C33 8748  -0.425   0.090   6.159  0.7447 -0.3183 -0.5144
   91SAPC   H3X 8749  -0.533   0.097   6.185  0.8007  1.9403 -0.6922
   91SAPC   H3Y 8750  -0.388   0.001   6.103  2.7870 -0.7694  1.4042
   91SAPC   C34 8751  -0.417   0.210   6.069 -0.4489  0.2228 -0.1868
   91SAPC   H4X 8752  -0.314   0.242   6.041 -0.9656  3.6502  1.3280
   91SAPC   H4Y 8753  -0.463   0.296   6.121  0.3515  1.8972 -2.1252
   91SAPC   C35 8754  -0.494   0.184   5.937  0.0969  0.0695  0.0838
   91SAPC   H5X 8755  -0.602   0.183   5.961  0.4777 -1.3686  2.0858
   91SAPC   H5Y 8756  -0.455   0.087   5.900  0.0742  0.3430 -0.6733
   91SAPC   C36 8757  -0.460   0.286   5.830 -0.2047  0.1510  0.6831
   91SAPC   H6X 8758  -0.352   0.288   5.804 -0.8417  0.9641 -2.2551
   91SAPC   H6Y 8759  -0.483   0.384   5.877  0.5381  0.7744 -0.2007
   91SAPC   C37 8760  -0.547   0.277   5.708  0.8969 -0.4975 -0.1586
   91SAPC   H7X 8761  -0.656   0.275   5.733  1.1222 -2.1609  0.7987
   91SAPC   H7Y 8762  -0.529   0.181   5.656  0.8402 -1.3212  1.3073
   91SAPC   C38 8763  -0.515   0.375   5.599  0.8001 -0.0923 -0.0351
   91SAPC   H8X 8764  -0.404   0.379   5.596  0.7739  0.6723 -0.1919
   91SAPC   H8Y 8765  -0.548   0.478   5.625 -1.1638 -0.8498  0.7049
   91SAPC   C39 8766  -0.544   0.325   5.459  0.2909  0.0427 -0.1705
   91SAPC   H9X 8767  -0.652   0.300   5.449 -0.3981  3.4414 -2.9629
   91SAPC   H9Y 8768  -0.493   0.228   5.438  1.6510  1.2645 -2.9142
   91SAPC  C310 8769  -0.503   0.419   5.350  0.3152 -0.0614 -1.3388
   91SAPC  H10X 8770  -0.392   0.415   5.338  0.5261  1.4245 -0.0965
   91SAPC  H10Y 8771  -0.527   0.520   5.389 -0.3529 -0.7075 -0.0302
   91SAPC  C311 8772  -0.568   0.382   5.218  0.3234 -0.1037  0.1415
   91SAPC  H11X 8773  -0.673   0.368   5.253  0.6866 -0.3290  1.1903
   91SAPC  H11Y 8774  -0.549   0.274   5.205 -1.0717 -0.2706 -0.7422
   91SAPC  C312 8775  -0.535   0.477   5.105 -0.8923 -0.0428  0.3351
   91SAPC  H12X 8776  -0.425   0.483   5.093 -0.9125 -0.4373 -0.0545
   91SAPC  H12Y 8777  -0.555   0.585   5.122  2.1288  0.9365 -1.4299
   91SAPC  C313 8778  -0.587   0.427   4.973 -0.5837 -0.4260  0.3442
   91SAPC  H13X 8779  -0.698   0.427   4.968 -0.6357 -3.5186 -1.7953
   91SAPC  H13Y 8780  -0.548   0.323   4.965  1.1849  0.1574  0.9192
   91SAPC  C314 8781  -0.538   0.509   4.854 -0.7470 -0.3449  0.6436
   91SAPC  H14X 8782  -0.464   0.589   4.875 -1.6447  1.3383 -2.0394
   91SAPC  H14Y 8783  -0.614   0.575   4.808  1.5003  2.6009  0.8300
   91SAPC  C315 8784  -0.455   0.431   4.752 -0.2477  0.0123  0.3165
   91SAPC  H15X 8785  -0.373   0.366   4.789 -0.8512  0.1399  1.9593
   91SAPC  H15Y 8786  -0.411   0.501   4.677 -2.8381  0.3354 -1.0297
   91SAPC  C316 8787  -0.541   0.339   4.661 -0.4325  0.0468 -0.3655
   91SAPC  H16X 8788  -0.616   0.401   4.607  1.2389  2.1515 -0.4269
   91SAPC  H16Y 8789  -0.597   0.269   4.726 -0.8943  0.5396 -0.2229
   91SAPC  C317 8790  -0.452   0.274   4.551  0.1089 -0.0469 -0.4325
   91SAPC  H17X 8791  -0.353   0.243   4.591 -0.3384 -1.3325 -0.2995
   91SAPC  H17Y 8792  -0.437   0.343   4.464  0.4719  0.4228 -0.0014
   91SAPC  C318 8793  -0.518   0.147   4.500 -0.1977  0.1182  0.3924
   91SAPC  H18X 8794  -0.517   0.071   4.581  1.5855 -0.6564 -0.3104
   91SAPC  H18Y 8795  -0.474   0.097   4.412  0.1238  0.3630  0.4117
   91SAPC  H18Z 8796  -0.622   0.162   4.464  0.2277 -1.3321 -1.5826
   92SAPC     N 8797   0.810   4.772   6.487 -0.0763 -0.1461 -0.6131
   92SAPC   C12 8798   0.905   4.886   6.506 -0.4416 -0.2946  0.0377
   92SAPC  H12A 8799   0.871   4.982   6.471 -0.2640  0.7495  2.5315
   92SAPC  H12B 8800   0.999   4.856   6.461  0.3380  0.9382  0.7715
   92SAPC   C13 8801   0.872   4.642   6.538  0.8201  0.9038  0.3677
   92SAPC  H13A 8802   0.889   4.652   6.644  0.1293  2.0928  0.3865
   92SAPC  H13B 8803   0.814   4.552   6.521  1.8418  0.1305  0.8625
   92SAPC  H13C 8804   0.968   4.623   6.493  0.3170 -0.4227 -0.2085
   92SAPC   C14 8805   0.693   4.816   6.569  0.3338  0.4747 -0.0172
   92SAPC  H14A 8806   0.636   4.876   6.499  3.0608  0.8005 -2.1595
   92SAPC  H14B 8807   0.637   4.727   6.590  1.1363 -0.4171 -1.4562
   92SAPC  H14C 8808   0.718   4.872   6.658 -1.2074  1.2120 -0.0129
   92SAPC   C15 8809   0.788   4.752   6.349  0.1870 -0.8581  0.4380
   92SAPC  H15A 8810   0.765   4.846   6.301 -0.2823  0.3053  2.7922
   92SAPC  H15B 8811   0.870   4.707   6.295  0.6805  0.6309 -0.1144
   92SAPC  H15C 8812   0.711   4.677   6.339 -0.7987  0.1163  0.5191
   92SAPC   C11 8813   0.962   4.921   6.648 -0.8796 -0.1790  0.0411
   92SAPC  H11A 8814   1.045   4.994   6.637 -0.2914 -0.9508 -0.8944
   92SAPC  H11B 8815   0.999   4.828   6.697 -2.3689 -0.4438  0.7373
   92SAPC     P 8816   0.796   5.108   6.715  0.0045  0.0695  0.1757
   92SAPC   O13 8817   0.651   5.097   6.731  0.0530 -0.5893  0.0499
   92SAPC   O14 8818   0.871   5.192   6.811  0.4017  0.4937  0.3836
   92SAPC   O12 8819   0.855   4.967   6.733  0.5110 -0.1608 -0.1075
   92SAPC   O11 8820   0.834   5.149   6.572  0.2683  0.6387  0.3674
   92SAPC    C1 8821   0.775   5.259   6.501  0.3794 -0.0342  0.4184
   92SAPC    HA 8822   0.664   5.264   6.512  0.2017  0.0704 -1.2436
   92SAPC    HB 8823   0.819   5.357   6.529 -0.9116  1.3215 -1.9426
   92SAPC    C2 8824   0.795   5.237   6.345 -0.2849  0.2243 -0.0581
   92SAPC    HS 8825   0.742   5.140   6.330  1.6980 -1.2081  1.5043
   92SAPC   O21 8826   0.939   5.227   6.316  0.0405  0.0690  0.3715
   92SAPC   C21 8827   0.976   5.130   6.234 -0.5839 -0.2648  0.3629
   92SAPC   O22 8828   0.905   5.043   6.187  0.0767  0.4803  0.6723
   92SAPC   C22 8829   1.121   5.155   6.206  0.3648 -0.2272  0.3414
   92SAPC   H2R 8830   1.116   5.244   6.140 -5.4558 -0.4076 -0.0441
   92SAPC   H2S 8831   1.190   5.178   6.290  1.7910 -0.0445 -0.8433
   92SAPC    C3 8832   0.734   5.340   6.247  0.0778  0.0869  0.0722
   92SAPC    HX 8833   0.796   5.431   6.263  1.2421 -0.7604  0.4771
   92SAPC    HY 8834   0.631   5.356   6.285  0.7255 -0.0296  2.0318
   92SAPC   O31 8835   0.750   5.296   6.111  0.5487  0.0530  0.0606
   92SAPC   C31 8836   0.642   5.295   6.036  0.1567  0.9613 -0.1230
   92SAPC   O32 8837   0.529   5.329   6.069  0.0919 -0.2619  0.0653
   92SAPC   C32 8838   0.674   5.229   5.901  0.5431 -0.0049  0.3640
   92SAPC   H2X 8839   0.670   5.120   5.920 -0.0735 -0.0674 -0.0808
   92SAPC   H2Y 8840   0.778   5.247   5.866  0.9926 -3.2267 -0.2204
   92SAPC   C23 8841   1.189   5.047   6.116 -0.2254 -0.6126  0.0830
   92SAPC   H3R 8842   1.128   4.954   6.116 -2.0571  0.4885 -2.1919
   92SAPC   H3S 8843   1.289   5.021   6.156  0.2959  0.0831 -0.7291
   92SAPC   C24 8844   1.217   5.092   5.968  0.5522  0.1437 -0.4894
   92SAPC   H4R 8845   1.280   5.012   5.924  0.7248 -0.0250  0.0608
   92SAPC   H4S 8846   1.276   5.185   5.958 -0.3461  0.7381 -0.3858
   92SAPC   C25 8847   1.083   5.109   5.903 -0.0458 -0.2003  0.1402
   92SAPC   H5R 8848   0.996   5.111   5.970  0.6078  1.5058  0.9794
   92SAPC   C26 8849   1.059   5.123   5.774 -0.3146  0.3704 -0.3433
   92SAPC   H6R 8850   0.955   5.118   5.738 -0.2509  1.0931 -0.6384
   92SAPC   C27 8851   1.174   5.121   5.675 -0.6934  0.2966  0.2579
   92SAPC   H7R 8852   1.257   5.182   5.715  0.9594 -1.4929 -0.3009
   92SAPC   H7S 8853   1.144   5.182   5.587 -0.0570 -0.0590 -0.2082
   92SAPC   C28 8854   1.233   4.989   5.629  0.1093  0.2276 -0.8954
   92SAPC   H8R 8855   1.260   4.916   5.707  0.5538 -0.6602 -1.8607
   92SAPC   C29 8856   1.261   4.960   5.501 -0.1626  0.4795  0.3866
   92SAPC   H9R 8857   1.322   4.871   5.480  0.8867  1.2106  0.2831
   92SAPC  C210 8858   1.244   5.051   5.378  0.2544  0.0557 -0.1608
   92SAPC  H10R 8859   1.171   5.132   5.401  0.1766 -0.3145  0.9756
   92SAPC  H10S 8860   1.194   5.000   5.293 -0.7141 -0.4016  0.6651
   92SAPC  C211 8861   1.375   5.108   5.336  0.1890 -0.1061 -0.2464
   92SAPC  H11R 8862   1.430   5.152   5.421 -1.1622  0.1912  0.5081
   92SAPC  C212 8863   1.426   5.107   5.212  0.6162 -0.2021  0.6776
   92SAPC  H12R 8864   1.520   5.160   5.189  0.6578  1.3181  3.8295
   92SAPC  C213 8865   1.345   5.068   5.088  0.0273 -0.3727 -0.1012
   92SAPC  H13R 8866   1.366   5.140   5.005  0.6056 -1.4702 -0.9291
   92SAPC  H13S 8867   1.235   5.066   5.108  0.0808  1.5884  0.5813
   92SAPC  C214 8868   1.393   4.931   5.048  0.1488 -0.1366  0.5979
   92SAPC  H14R 8869   1.367   4.859   5.128  1.1610  1.2444  2.2362
   92SAPC  C215 8870   1.440   4.892   4.932  0.4274 -0.3263 -0.0469
   92SAPC  H15R 8871   1.454   4.785   4.911  2.9117 -0.2702  1.0442
   92SAPC  C216 8872   1.452   4.984   4.810  0.1896 -0.1167 -0.0643
   92SAPC  H16R 8873   1.439   5.093   4.829 -0.5266  0.2389 -2.3549
   92SAPC  H16S 8874   1.368   4.961   4.741 -3.2687  4.5036  2.0256
   92SAPC  C217 8875   1.585   4.961   4.733  0.7414 -0.2074 -0.2696
   92SAPC  H17R 8876   1.568   5.023   4.643  0.1962  0.2083  0.1099
   92SAPC  H17S 8877   1.587   4.852   4.708 -0.7243 -0.0736 -1.1218
   92SAPC  C218 8878   1.708   5.009   4.808 -0.1971 -0.3453 -1.1819
   92SAPC  H18R 8879   1.706   4.966   4.910 -0.2420  0.6985 -0.7302
   92SAPC  H18S 8880   1.699   5.115   4.841  0.4304 -1.5304  3.4252
   92SAPC  C219 8881   1.844   4.972   4.752 -0.5828 -0.1878 -0.2643
   92SAPC  H19R 8882   1.858   4.862   4.741  0.4944 -0.0343 -0.5135
   92SAPC  H19S 8883   1.926   5.012   4.815 -1.2763  0.9326 -0.0592
   92SAPC  C220 8884   1.865   5.030   4.616 -0.0357  0.3404  0.5884
   92SAPC  H20R 8885   1.966   5.004   4.577 -0.1865  0.4880  0.1036
   92SAPC  H20S 8886   1.861   5.141   4.625  1.5360  0.5557 -0.8324
   92SAPC  H20T 8887   1.793   4.997   4.539  0.9865  0.3269 -0.3818
   92SAPC   C33 8888   0.569   5.255   5.792  0.4618  0.3929  0.5245
   92SAPC   H3X 8889   0.548   5.363   5.787 -0.9096  0.1665  1.0884
   92SAPC   H3Y 8890   0.479   5.192   5.808  1.1897 -1.1217 -0.9358
   92SAPC   C34 8891   0.624   5.220   5.649  0.0222 -0.4821  0.5010
   92SAPC   H4X 8892   0.652   5.113   5.637  0.1227 -0.4186  0.1540
   92SAPC   H4Y 8893   0.711   5.281   5.619 -1.7830  0.9654 -2.2474
   92SAPC   C35 8894   0.510   5.241   5.544  0.2883 -0.2009  0.5159
   92SAPC   H5X 8895   0.435   5.311   5.586  1.1865  1.4873 -0.5734
   92SAPC   H5Y 8896   0.470   5.141   5.518  3.0245 -1.0735 -0.6932
   92SAPC   C36 8897   0.557   5.305   5.414 -0.5842 -0.4558  0.0147
   92SAPC   H6X 8898   0.666   5.284   5.405 -0.2133 -1.1477  4.2356
   92SAPC   H6Y 8899   0.553   5.416   5.423 -0.4386 -0.1469 -2.8596
   92SAPC   C37 8900   0.489   5.243   5.293  0.5295  0.2761 -0.1020
   92SAPC   H7X 8901   0.381   5.264   5.304  0.2752 -1.6520  2.0010
   92SAPC   H7Y 8902   0.502   5.133   5.302 -3.1865 -0.1465  2.3312
   92SAPC   C38 8903   0.547   5.287   5.158 -0.0513 -0.1726  0.1918
   92SAPC   H8X 8904   0.657   5.277   5.152 -0.0677  0.1287 -0.7421
   92SAPC   H8Y 8905   0.529   5.397   5.152 -0.8196 -0.3485 -0.8809
   92SAPC   C39 8906   0.474   5.236   5.033  0.0247 -0.1991  0.0289
   92SAPC   H9X 8907   0.384   5.296   5.010  1.1775  1.8624  0.5656
   92SAPC   H9Y 8908   0.439   5.132   5.053  1.9759 -1.1742 -1.2517
   92SAPC  C310 8909   0.563   5.223   4.908  0.2181  0.4753  0.0511
   92SAPC  H10X 8910   0.664   5.189   4.939 -0.0808  1.5001  2.3561
   92SAPC  H10Y 8911   0.588   5.315   4.851  1.3378  0.2233  0.1183
   92SAPC  C311 8912   0.508   5.126   4.803 -0.0214 -0.2962  0.0243
   92SAPC  H11X 8913   0.405   5.155   4.776  0.0689  0.4804  0.4957
   92SAPC  H11Y 8914   0.496   5.025   4.848  1.0071 -0.1717  0.6269
   92SAPC  C312 8915   0.608   5.120   4.678  0.0539 -0.1501 -0.1035
   92SAPC  H12X 8916   0.710   5.104   4.721 -0.9880 -3.9009  1.3901
   92SAPC  H12Y 8917   0.597   5.224   4.641 -1.3701  0.8093  2.6984
   92SAPC  C313 8918   0.578   5.012   4.572 -0.2348 -0.5752  0.5054
   92SAPC  H13X 8919   0.568   4.919   4.631 -1.0770 -1.7993 -1.4698
   92SAPC  H13Y 8920   0.671   5.009   4.511 -0.6563  2.4104 -0.4350
   92SAPC  C314 8921   0.448   5.041   4.494  0.7104 -0.6581 -0.0402
   92SAPC  H14X 8922   0.363   5.023   4.563 -0.4790 -0.1112 -1.3146
   92SAPC  H14Y 8923   0.424   4.963   4.419  0.4355 -0.6451  0.0355
   92SAPC  C315 8924   0.443   5.182   4.432 -0.6777  0.3760  0.0233
   92SAPC  H15X 8925   0.462   5.263   4.505  0.9258 -0.5126  0.6317
   92SAPC  H15Y 8926   0.337   5.189   4.396 -1.3610 -0.3575  1.7898
   92SAPC  C316 8927   0.540   5.197   4.321  0.0833  0.1399  0.1338
   92SAPC  H16X 8928   0.508   5.138   4.233  2.2082 -0.3084 -0.3872
   92SAPC  H16Y 8929   0.636   5.160   4.363 -1.5389 -2.2059  2.0352
   92SAPC  C317 8930   0.555   5.345   4.283  0.2470  0.1274  1.3997
   92SAPC  H17X 8931   0.575   5.414   4.368  2.2172  0.2330  0.8900
   92SAPC  H17Y 8932   0.454   5.373   4.246  0.2751 -2.8186 -1.2590
   92SAPC  C318 8933   0.653   5.378   4.166  0.3049 -0.5068 -0.1252
   92SAPC  H18X 8934   0.641   5.481   4.127  1.3806  0.1227  1.1303
   92SAPC  H18Y 8935   0.640   5.309   4.080  1.5397  0.1279 -0.8615
   92SAPC  H18Z 8936   0.756   5.369   4.207  0.3890  2.3337  0.5277
   93SAPC     N 8937   2.687   5.385   6.691  0.8468  0.2475  0.6430
   93SAPC   C12 8938   2.747   5.444   6.560  0.1341 -0.5986  0.3480
   93SAPC  H12A 8939   2.740   5.551   6.555 -2.6396 -0.7681 -2.0319
   93SAPC  H12B 8940   2.681   5.411   6.482 -1.7773 -2.4056  2.5702
   93SAPC   C13 8941   2.764   5.425   6.806 -0.1214 -0.0033  0.0290
   93SAPC  H13A 8942   2.755   5.352   6.885  1.5148 -1.0065 -0.6497
   93SAPC  H13B 8943   2.866   5.429   6.771 -0.6914 -0.8087 -1.8369
   93SAPC  H13C 8944   2.734   5.522   6.844  1.7384 -0.2238  2.2683
   93SAPC   C14 8945   2.551   5.446   6.715 -0.2240 -0.0893  0.1860
   93SAPC  H14A 8946   2.557   5.553   6.709 -0.0526  0.0728  2.3998
   93SAPC  H14B 8947   2.484   5.399   6.645  1.1571  0.3678 -1.5199
   93SAPC  H14C 8948   2.525   5.422   6.817 -0.2629  2.3059  0.7868
   93SAPC   C15 8949   2.679   5.229   6.689  0.4806 -0.2577  0.3294
   93SAPC  H15A 8950   2.621   5.200   6.603  0.4281  2.1596 -0.5458
   93SAPC  H15B 8951   2.776   5.189   6.663  0.5741  0.9083 -1.2281
   93SAPC  H15C 8952   2.643   5.185   6.781  0.3199 -0.4532  0.1744
   93SAPC   C11 8953   2.887   5.396   6.524 -0.2795 -0.3664  0.0522
   93SAPC  H11A 8954   2.914   5.399   6.416 -0.3874 -0.4705  0.0210
   93SAPC  H11B 8955   2.902   5.289   6.550  0.3339  0.0289  1.4232
   93SAPC     P 8956   2.993   5.624   6.572 -0.1579 -0.0027 -0.1603
   93SAPC   O13 8957   2.895   5.705   6.652 -0.2012 -0.7037 -0.4554
   93SAPC   O14 8958   3.135   5.661   6.587  0.2324  0.1506 -0.2183
   93SAPC   O12 8959   2.981   5.468   6.598 -0.8175 -0.0769  0.3265
   93SAPC   O11 8960   2.943   5.646   6.420  0.2824  0.7336 -0.0552
   93SAPC    C1 8961   3.013   5.598   6.308 -0.5092 -0.2256  0.4480
   93SAPC    HA 8962   3.099   5.535   6.342  0.8372  0.7558 -0.9880
   93SAPC    HB 8963   2.943   5.542   6.243 -0.8002  0.6827 -0.0409
   93SAPC    C2 8964   3.070   5.711   6.220  0.3137 -0.6751 -1.2122
   93SAPC    HS 8965   3.155   5.756   6.275 -1.6384  0.0439  1.4180
   93SAPC   O21 8966   2.966   5.801   6.195  0.3614  0.3054 -0.1114
   93SAPC   C21 8967   2.961   5.913   6.273  0.6217  0.3459  0.4595
   93SAPC   O22 8968   3.046   5.948   6.356 -0.0706 -0.0145  0.1875
   93SAPC   C22 8969   2.835   5.991   6.244  0.6202  0.0248 -0.1448
   93SAPC   H2R 8970   2.802   5.961   6.142 -1.8567  0.8102  0.3551
   93SAPC   H2S 8971   2.750   5.974   6.313  0.5181  2.6312  0.4937
   93SAPC    C3 8972   3.125   5.664   6.080  0.4408  0.3320  0.4076
   93SAPC    HX 8973   3.035   5.632   6.023  0.1686 -1.1180  1.6093
   93SAPC    HY 8974   3.198   5.581   6.085  0.8441  0.5314 -1.3197
   93SAPC   O31 8975   3.186   5.774   5.996 -0.1180 -0.2716  0.0930
   93SAPC   C31 8976   3.300   5.826   6.050 -0.4935  0.1791 -0.0049
   93SAPC   O32 8977   3.355   5.779   6.146 -0.4910  0.3205  0.1762
   93SAPC   C32 8978   3.351   5.934   5.954  0.0475  1.0245  0.5880
   93SAPC   H2X 8979   3.315   6.034   5.986 -0.7747  0.1339  2.6866
   93SAPC   H2Y 8980   3.320   5.914   5.849  0.3649  3.5877 -0.0489
   93SAPC   C23 8981   2.862   6.142   6.235  0.0864  0.6588  1.0770
   93SAPC   H3R 8982   2.910   6.160   6.137 -1.2594  0.8188  0.4228
   93SAPC   H3S 8983   2.930   6.183   6.312  0.1053  4.2642 -0.6585
   93SAPC   C24 8984   2.732   6.217   6.254  0.4053 -0.1142  0.3238
   93SAPC   H4R 8985   2.770   6.322   6.258  0.2806 -0.1004  1.6195
   93SAPC   H4S 8986   2.692   6.198   6.355 -2.4221  0.5328 -0.5859
   93SAPC   C25 8987   2.623   6.195   6.154  0.0253 -0.0101  0.1920
   93SAPC   H5R 8988   2.555   6.117   6.191 -0.4001  0.9617  1.5379
   93SAPC   C26 8989   2.593   6.265   6.043 -0.5279 -0.3313  0.0376
   93SAPC   H6R 8990   2.503   6.242   5.984 -1.1359 -0.9733  1.1791
   93SAPC   C27 8991   2.680   6.376   5.988  0.5490 -0.0850  0.2219
   93SAPC   H7R 8992   2.776   6.328   5.963 -0.4996 -2.1210 -0.1011
   93SAPC   H7S 8993   2.694   6.454   6.066 -0.4585  0.0727  0.2609
   93SAPC   C28 8994   2.643   6.442   5.852 -1.1518 -0.3797  0.1810
   93SAPC   H8R 8995   2.550   6.420   5.798 -1.0666  2.4070 -1.2246
   93SAPC   C29 8996   2.727   6.519   5.782  0.1340 -0.4500 -0.5434
   93SAPC   H9R 8997   2.695   6.554   5.683 -0.5721  1.3513  0.2697
   93SAPC  C210 8998   2.863   6.568   5.825 -0.3031  0.5134  0.0495
   93SAPC  H10R 8999   2.936   6.485   5.815 -0.9083  0.1098 -1.1506
   93SAPC  H10S 9000   2.857   6.597   5.932 -0.7992  1.7845 -0.3067
   93SAPC  C211 9001   2.910   6.684   5.742  0.0306 -0.2335 -0.6888
   93SAPC  H11R 9002   2.854   6.778   5.757 -0.5827 -0.9921  2.8078
   93SAPC  C212 9003   3.004   6.673   5.640 -0.3833  0.6545  0.9231
   93SAPC  H12R 9004   3.018   6.767   5.585  1.0873 -0.5455 -0.8918
   93SAPC  C213 9005   3.068   6.541   5.590  0.4636 -0.1902  0.2968
   93SAPC  H13R 9006   3.102   6.486   5.680 -0.6026 -0.4551  0.5497
   93SAPC  H13S 9007   3.159   6.557   5.528  0.0709  0.1360 -0.2007
   93SAPC  C214 9008   2.983   6.452   5.504 -0.1055 -0.3158  0.3368
   93SAPC  H14R 9009   2.912   6.393   5.563 -1.5081 -0.2356 -1.1975
   93SAPC  C215 9010   2.988   6.438   5.370 -0.4521 -0.4384 -0.2866
   93SAPC  H15R 9011   2.912   6.378   5.317  0.3756 -0.2713 -1.7320
   93SAPC  C216 9012   3.082   6.519   5.279 -0.6328 -0.3683  0.9804
   93SAPC  H16R 9013   3.191   6.499   5.295 -0.2856  0.7191  0.1399
   93SAPC  H16S 9014   3.061   6.627   5.296 -2.8686 -0.5842 -0.1486
   93SAPC  C217 9015   3.068   6.499   5.127  0.2990  0.9911 -0.3399
   93SAPC  H17R 9016   3.075   6.391   5.103 -0.4450  0.4441  1.6418
   93SAPC  H17S 9017   3.147   6.542   5.063 -0.2957 -1.2989 -2.7652
   93SAPC  C218 9018   2.938   6.560   5.076  0.6316  0.2650 -0.3246
   93SAPC  H18R 9019   2.943   6.666   5.108  2.9111 -0.1299  0.7996
   93SAPC  H18S 9020   2.854   6.506   5.126  1.5219 -0.0563  0.8465
   93SAPC  C219 9021   2.925   6.556   4.923  0.6898  0.9018  0.6265
   93SAPC  H19R 9022   2.924   6.455   4.878 -1.3074  1.4449 -0.6830
   93SAPC  H19S 9023   3.007   6.607   4.868  0.6150 -0.1926 -0.5474
   93SAPC  C220 9024   2.794   6.627   4.891  0.3378  0.0530 -0.3382
   93SAPC  H20R 9025   2.763   6.623   4.785 -0.1630  0.6365 -0.2207
   93SAPC  H20S 9026   2.817   6.734   4.913  0.7132 -0.0732 -0.1058
   93SAPC  H20T 9027   2.713   6.583   4.952 -0.2304 -1.4004 -2.0509
   93SAPC   C33 9028   3.504   5.965   5.944 -0.5513  0.6800  1.0944
   93SAPC   H3X 9029   3.549   5.873   5.901 -1.7827  1.3902 -2.0337
   93SAPC   H3Y 9030   3.546   6.002   6.040 -0.7761  2.4458  0.5515
   93SAPC   C34 9031   3.543   6.081   5.848  0.3298 -0.1168  1.8357
   93SAPC   H4X 9032   3.652   6.103   5.849  0.9460 -2.8520  1.1685
   93SAPC   H4Y 9033   3.505   6.180   5.882  0.0864  0.6446 -0.4498
   93SAPC   C35 9034   3.508   6.053   5.696  0.7900 -0.8771  0.7645
   93SAPC   H5X 9035   3.400   6.037   5.677  0.8727 -0.1967 -0.3831
   93SAPC   H5Y 9036   3.558   5.956   5.674  0.7483 -0.7046 -0.1261
   93SAPC   C36 9037   3.573   6.159   5.597  0.6845 -0.0414 -0.6323
   93SAPC   H6X 9038   3.682   6.136   5.593  0.6816  0.1323 -2.7210
   93SAPC   H6Y 9039   3.552   6.264   5.628 -0.1167 -0.0195 -1.2235
   93SAPC   C37 9040   3.506   6.146   5.460 -0.3911  0.4982  0.0877
   93SAPC   H7X 9041   3.514   6.046   5.412  2.2685  0.0512  1.2686
   93SAPC   H7Y 9042   3.567   6.210   5.394  0.0832 -1.8985 -1.9726
   93SAPC   C38 9043   3.354   6.188   5.443  0.5387 -0.0870 -0.1622
   93SAPC   H8X 9044   3.338   6.272   5.515  0.0261  0.1125 -0.5078
   93SAPC   H8Y 9045   3.302   6.095   5.475 -1.6497  0.8909 -0.7005
   93SAPC   C39 9046   3.309   6.224   5.307 -0.0345 -0.0806 -1.2785
   93SAPC   H9X 9047   3.364   6.312   5.267  1.3855 -0.7355 -0.8106
   93SAPC   H9Y 9048   3.199   6.239   5.319 -0.5739 -3.8421 -0.1190
   93SAPC  C310 9049   3.352   6.131   5.205  0.1013 -0.0550  0.3215
   93SAPC  H10X 9050   3.335   6.027   5.241 -0.0720  0.1497  0.8407
   93SAPC  H10Y 9051   3.461   6.143   5.188  0.3948 -1.9561  0.6342
   93SAPC  C311 9052   3.291   6.152   5.066  0.4391  0.2355 -0.0806
   93SAPC  H11X 9053   3.320   6.244   5.012  0.7274 -0.3447 -0.9359
   93SAPC  H11Y 9054   3.181   6.144   5.082  0.6149 -1.6271  0.4411
   93SAPC  C312 9055   3.323   6.030   4.972 -0.4568 -0.6691 -0.5611
   93SAPC  H12X 9056   3.314   5.939   5.035 -0.2613 -1.5374 -1.7491
   93SAPC  H12Y 9057   3.429   6.043   4.939 -0.8163 -1.6890 -2.2127
   93SAPC  C313 9058   3.230   6.029   4.853 -0.1530  0.8705  0.1623
   93SAPC  H13X 9059   3.129   6.040   4.899  1.1128  1.9589  2.8599
   93SAPC  H13Y 9060   3.239   5.930   4.803 -0.3364 -0.4619  2.6240
   93SAPC  C314 9061   3.254   6.159   4.766  0.0967  0.4587  0.7894
   93SAPC  H14X 9062   3.360   6.170   4.735  0.5714 -1.1100  1.7587
   93SAPC  H14Y 9063   3.247   6.247   4.833  3.3177 -0.7259  2.9072
   93SAPC  C315 9064   3.154   6.181   4.651  0.2541  0.4120  0.3351
   93SAPC  H15X 9065   3.181   6.279   4.606 -2.7511  0.1084 -2.5009
   93SAPC  H15Y 9066   3.048   6.194   4.682 -0.2933 -2.7320  0.1359
   93SAPC  C316 9067   3.159   6.076   4.539  0.8398 -0.4576 -0.0163
   93SAPC  H16X 9068   3.113   5.985   4.582  0.3296 -0.5407 -0.7382
   93SAPC  H16Y 9069   3.265   6.065   4.509  0.2085 -1.1975 -2.1059
   93SAPC  C317 9070   3.071   6.121   4.413 -0.2235  0.5583 -0.3087
   93SAPC  H17X 9071   3.087   6.038   4.341  0.9516 -0.3008  0.8759
   93SAPC  H17Y 9072   3.114   6.214   4.370 -0.4641  0.4812 -0.7166
   93SAPC  C318 9073   2.921   6.137   4.426  0.0109 -0.1717 -0.2045
   93SAPC  H18X 9074   2.889   6.228   4.482 -1.7490 -1.1061  0.3548
   93SAPC  H18Y 9075   2.877   6.048   4.475 -0.6700  0.8811  1.1690
   93SAPC  H18Z 9076   2.860   6.134   4.334 -0.8406  1.0092  0.2937
   94SAPC     N 9077   0.157   4.369   6.472  0.0101  1.0137  0.1179
   94SAPC   C12 9078   0.256   4.390   6.353 -0.3912  0.2035 -0.0826
   94SAPC  H12A 9079   0.290   4.493   6.347 -0.2292  0.2304  1.0420
   94SAPC  H12B 9080   0.200   4.381   6.261 -0.8917  0.5833  0.1776
   94SAPC   C13 9081   0.050   4.467   6.477  0.8048 -1.6038  0.8610
   94SAPC  H13A 9082   0.008   4.499   6.571 -0.6839  0.1857 -0.3169
   94SAPC  H13B 9083   0.090   4.562   6.442 -0.2185 -1.0360  1.1820
   94SAPC  H13C 9084  -0.032   4.438   6.413 -0.3189 -0.3920  1.7054
   94SAPC   C14 9085   0.099   4.233   6.468  0.1561 -0.4222 -0.4910
   94SAPC  H14A 9086   0.033   4.213   6.552 -0.2103 -1.0313 -0.9150
   94SAPC  H14B 9087   0.056   4.217   6.370  1.2178 -0.0382 -1.0304
   94SAPC  H14C 9088   0.173   4.154   6.474  0.9086  0.2506 -0.8108
   94SAPC   C15 9089   0.243   4.386   6.592  0.8990 -0.0591 -0.2930
   94SAPC  H15A 9090   0.279   4.488   6.597  0.1199  0.2497 -0.8359
   94SAPC  H15B 9091   0.192   4.371   6.686 -1.3416  0.0341 -1.4187
   94SAPC  H15C 9092   0.327   4.321   6.576  0.4127 -0.9419  0.6007
   94SAPC   C11 9093   0.381   4.300   6.341  0.4956 -0.1080 -0.0059
   94SAPC  H11A 9094   0.427   4.325   6.244  0.1098 -1.0717 -0.4531
   94SAPC  H11B 9095   0.348   4.194   6.330  0.8085 -0.0846 -1.2263
   94SAPC     P 9096   0.551   4.466   6.467 -0.3536 -0.1599 -0.0609
   94SAPC   O13 9097   0.449   4.567   6.501  0.5213  0.2439 -0.3439
   94SAPC   O14 9098   0.659   4.446   6.569  0.2569  0.1182  0.3020
   94SAPC   O12 9099   0.476   4.317   6.446  0.2729 -0.9067 -0.5562
   94SAPC   O11 9100   0.617   4.503   6.323  0.4931  0.7267  0.2686
   94SAPC    C1 9101   0.695   4.409   6.255  0.2646 -1.2211  0.4330
   94SAPC    HA 9102   0.799   4.416   6.293  0.4398  0.2188 -0.2411
   94SAPC    HB 9103   0.662   4.304   6.267 -0.5559 -1.0296 -0.0915
   94SAPC    C2 9104   0.706   4.426   6.101  0.2301 -0.4172 -0.1872
   94SAPC    HS 9105   0.786   4.498   6.077 -1.3598  0.8785 -1.8951
   94SAPC   O21 9106   0.576   4.458   6.051  0.1745 -0.7111  0.3909
   94SAPC   C21 9107   0.559   4.589   6.046 -0.0023  0.0028 -0.0999
   94SAPC   O22 9108   0.643   4.678   6.073  0.3964  0.9962  0.0372
   94SAPC   C22 9109   0.411   4.617   6.035  0.5030  0.3160  0.2744
   94SAPC   H2R 9110   0.362   4.524   5.998 -0.9562  0.4107  1.8396
   94SAPC   H2S 9111   0.383   4.636   6.141  2.4735  2.5280  0.4802
   94SAPC    C3 9112   0.752   4.288   6.042  0.8908 -0.8083  0.3493
   94SAPC    HX 9113   0.674   4.209   6.052 -0.3872 -0.1206 -2.8885
   94SAPC    HY 9114   0.837   4.252   6.103  1.1482  1.8675  1.7070
   94SAPC   O31 9115   0.775   4.301   5.903  0.1642  0.4104 -0.3538
   94SAPC   C31 9116   0.890   4.347   5.873 -0.2777  0.0368  0.7592
   94SAPC   O32 9117   0.973   4.392   5.952 -0.7699 -0.1852 -0.1581
   94SAPC   C32 9118   0.913   4.350   5.721  0.4942 -0.4591 -0.2587
   94SAPC   H2X 9119   0.831   4.403   5.668  2.3257  3.5261  0.5480
   94SAPC   H2Y 9120   0.910   4.241   5.699 -1.5324 -1.0724  2.5203
   94SAPC   C23 9121   0.394   4.734   5.932  0.0268 -0.2925 -0.3870
   94SAPC   H3R 9122   0.477   4.807   5.947  0.3260 -0.7205  0.0293
   94SAPC   H3S 9123   0.298   4.787   5.950  0.1124  0.4342 -1.8856
   94SAPC   C24 9124   0.399   4.678   5.782  0.5437  0.0630 -1.0919
   94SAPC   H4R 9125   0.304   4.625   5.762  0.8373 -0.9587  0.1093
   94SAPC   H4S 9126   0.483   4.605   5.780 -0.2821 -1.0567  1.5600
   94SAPC   C25 9127   0.403   4.800   5.697  0.3317 -0.5997 -0.7121
   94SAPC   H5R 9128   0.317   4.869   5.692  1.4246  0.7265 -1.9129
   94SAPC   C26 9129   0.506   4.816   5.618 -0.4943  0.3742  1.1726
   94SAPC   H6R 9130   0.517   4.914   5.570 -2.1076 -0.4413 -1.0211
   94SAPC   C27 9131   0.621   4.730   5.591  0.1766  0.8961  0.7692
   94SAPC   H7R 9132   0.639   4.752   5.484 -0.7318  0.2269  0.4776
   94SAPC   H7S 9133   0.590   4.624   5.603 -0.5575  0.9058 -0.8292
   94SAPC   C28 9134   0.740   4.757   5.672 -0.9112  0.2469 -0.0768
   94SAPC   H8R 9135   0.727   4.729   5.777 -0.4672  1.5951  0.3524
   94SAPC   C29 9136   0.851   4.826   5.640 -0.1648  0.1914 -0.0049
   94SAPC   H9R 9137   0.925   4.829   5.722 -0.1387  0.1403 -0.0269
   94SAPC  C210 9138   0.876   4.917   5.523 -0.2738 -0.3981  0.0436
   94SAPC  H10R 9139   0.965   4.979   5.547 -1.2968  0.7331  1.0484
   94SAPC  H10S 9140   0.790   4.983   5.504  0.9190  0.8398 -1.3025
   94SAPC  C211 9141   0.912   4.834   5.405  0.6963 -0.6198 -0.5703
   94SAPC  H11R 9142   0.977   4.747   5.420 -0.5225 -1.7334 -1.4167
   94SAPC  C212 9143   0.895   4.861   5.268  0.8054  0.0160 -0.1199
   94SAPC  H12R 9144   0.923   4.779   5.199  0.6059  0.9509 -1.3455
   94SAPC  C213 9145   0.825   4.980   5.207 -0.3071 -0.1624  0.2234
   94SAPC  H13R 9146   0.767   5.023   5.291 -2.4603  2.6485 -2.5164
   94SAPC  H13S 9147   0.753   4.940   5.133  1.5716 -0.3378 -1.6014
   94SAPC  C214 9148   0.898   5.084   5.120 -0.1832  0.5505  0.1897
   94SAPC  H14R 9149   0.875   5.190   5.137  2.0899  1.1298  0.0246
   94SAPC  C215 9150   0.979   5.054   5.016 -0.4486  0.6295  0.2551
   94SAPC  H15R 9151   1.031   5.131   4.958  0.3246 -1.7658 -2.3961
   94SAPC  C216 9152   1.007   4.913   4.955 -0.0594  0.1044  0.2959
   94SAPC  H16R 9153   0.940   4.835   4.997 -0.6631  1.6486  2.3875
   94SAPC  H16S 9154   1.114   4.886   4.968 -0.5354 -2.6456 -0.8740
   94SAPC  C217 9155   0.983   4.911   4.797 -0.0887  0.0398 -1.0555
   94SAPC  H17R 9156   0.905   4.984   4.767 -0.9318 -0.6321 -0.5398
   94SAPC  H17S 9157   0.953   4.804   4.795  1.9777 -0.5954 -0.4154
   94SAPC  C218 9158   1.112   4.926   4.719  0.2933 -0.1634  0.5347
   94SAPC  H18R 9159   1.188   4.877   4.783 -0.2960 -1.4272  0.2953
   94SAPC  H18S 9160   1.134   5.034   4.701  0.3418 -0.0284  1.3946
   94SAPC  C219 9161   1.092   4.844   4.585 -0.0321 -0.1208 -0.2975
   94SAPC  H19R 9162   1.073   4.739   4.616 -1.7563 -0.3515 -1.9633
   94SAPC  H19S 9163   1.181   4.838   4.517  0.0931 -2.5092 -0.0062
   94SAPC  C220 9164   0.976   4.892   4.495 -0.3089  0.1025  0.2212
   94SAPC  H20R 9165   0.962   4.821   4.411  0.3337  0.8373 -0.5280
   94SAPC  H20S 9166   0.989   4.998   4.464  0.9874 -0.1665 -0.2165
   94SAPC  H20T 9167   0.879   4.898   4.549 -1.3546 -0.9344 -1.4649
   94SAPC   C33 9168   1.051   4.412   5.696 -0.5988  0.4628 -0.6480
   94SAPC   H3X 9169   1.119   4.333   5.735 -2.0696  0.1685  1.5608
   94SAPC   H3Y 9170   1.060   4.496   5.767  0.4243 -0.9552  0.9872
   94SAPC   C34 9171   1.088   4.435   5.549  0.0930  1.0468 -0.1948
   94SAPC   H4X 9172   1.013   4.499   5.498  0.2232  1.0145 -0.4264
   94SAPC   H4Y 9173   1.088   4.332   5.507 -1.4594  0.9160  0.0378
   94SAPC   C35 9174   1.230   4.502   5.527 -0.3540  0.1532 -0.1630
   94SAPC   H5X 9175   1.306   4.443   5.582  0.3721  0.9079 -0.3256
   94SAPC   H5Y 9176   1.230   4.613   5.541  0.4905  0.1794 -0.3247
   94SAPC   C36 9177   1.273   4.493   5.379  0.3028  0.5823 -0.3905
   94SAPC   H6X 9178   1.263   4.388   5.345  2.3452  0.9642 -2.3786
   94SAPC   H6Y 9179   1.380   4.520   5.377  0.3763  0.2759 -0.5708
   94SAPC   C37 9180   1.192   4.602   5.298 -0.1298  0.3954 -0.1200
   94SAPC   H7X 9181   1.195   4.702   5.347  3.4410 -0.8333  2.5948
   94SAPC   H7Y 9182   1.085   4.574   5.288  0.5644 -3.1747  1.2121
   94SAPC   C38 9183   1.240   4.611   5.148  0.2063  0.2443 -0.5983
   94SAPC   H8X 9184   1.350   4.616   5.157  0.1531  1.9107 -0.5178
   94SAPC   H8Y 9185   1.206   4.703   5.095 -0.5994  0.1958 -0.1922
   94SAPC   C39 9186   1.199   4.484   5.079  0.5230  0.3012 -0.7159
   94SAPC   H9X 9187   1.090   4.501   5.072  0.7839  1.5728 -1.9046
   94SAPC   H9Y 9188   1.233   4.396   5.138  1.0586  2.2539  2.0843
   94SAPC  C310 9189   1.267   4.481   4.941  0.1769  1.1585  0.3123
   94SAPC  H10X 9190   1.243   4.383   4.894 -0.0413  0.5999  1.5371
   94SAPC  H10Y 9191   1.375   4.478   4.967  1.0660  1.1505 -2.9363
   94SAPC  C311 9192   1.236   4.593   4.844  1.0212 -0.0292 -0.3462
   94SAPC  H11X 9193   1.254   4.693   4.889 -0.4065 -1.6923  4.4657
   94SAPC  H11Y 9194   1.128   4.596   4.818  1.5232  0.1032 -2.6088
   94SAPC  C312 9195   1.297   4.578   4.707  0.4032 -0.5139  1.0831
   94SAPC  H12X 9196   1.398   4.533   4.710  0.5284 -0.3647 -0.4229
   94SAPC  H12Y 9197   1.310   4.678   4.661  0.2989 -0.0915  1.9465
   94SAPC  C313 9198   1.216   4.496   4.600 -0.1929 -0.1399 -1.0589
   94SAPC  H13X 9199   1.108   4.520   4.592 -0.6365 -0.6238  2.1081
   94SAPC  H13Y 9200   1.205   4.389   4.630 -0.8334  0.4219  0.8208
   94SAPC  C314 9201   1.279   4.490   4.459 -0.0126  0.7113  0.4763
   94SAPC  H14X 9202   1.387   4.466   4.450 -0.4465 -1.0206 -0.5962
   94SAPC  H14Y 9203   1.285   4.597   4.429 -0.6275  0.1358 -1.9411
   94SAPC  C315 9204   1.196   4.401   4.370  0.2190  0.7085 -0.1524
   94SAPC  H15X 9205   1.088   4.424   4.382 -0.0319 -0.8281  0.8840
   94SAPC  H15Y 9206   1.203   4.291   4.385  0.1986  0.5974 -0.9191
   94SAPC  C316 9207   1.238   4.425   4.227 -0.4026  0.3094 -0.3828
   94SAPC  H16X 9208   1.270   4.532   4.229 -3.6500  1.4041  1.2429
   94SAPC  H16Y 9209   1.147   4.421   4.163  0.4570 -0.1299 -1.6164
   94SAPC  C317 9210   1.347   4.328   4.182 -0.4350 -0.5127  0.4616
   94SAPC  H17X 9211   1.332   4.218   4.192  0.2499 -0.5422  1.2789
   94SAPC  H17Y 9212   1.437   4.350   4.242  1.3339 -0.5018 -2.0280
   94SAPC  C318 9213   1.391   4.355   4.035  0.0827  0.5662 -0.2331
   94SAPC  H18X 9214   1.312   4.318   3.966 -0.6374  0.4309  0.6345
   94SAPC  H18Y 9215   1.490   4.315   4.007  0.2054  0.0159  0.9443
   94SAPC  H18Z 9216   1.407   4.465   4.024 -3.2529  1.0483 -1.4585
   95SAPC     N 9217   1.001   1.014   1.918 -0.7455  0.6032 -0.6592
   95SAPC   C12 9218   0.971   0.936   2.044  0.3297  0.2508  0.1322
   95SAPC  H12A 9219   0.926   0.846   2.003  4.6268 -2.1288  0.0263
   95SAPC  H12B 9220   0.895   0.995   2.094  0.2076  0.3130 -0.1279
   95SAPC   C13 9221   1.104   1.120   1.941 -0.7079  0.3099  0.2444
   95SAPC  H13A 9222   1.196   1.086   1.985 -1.9364  0.3753  3.1332
   95SAPC  H13B 9223   1.140   1.159   1.847 -0.3934  1.2840  0.7596
   95SAPC  H13C 9224   1.066   1.199   2.004  1.3102  1.2746  0.2997
   95SAPC   C14 9225   1.056   0.921   1.809  0.0512 -0.5446 -0.6649
   95SAPC  H14A 9226   0.985   0.854   1.765 -0.9369 -0.3697  0.6106
   95SAPC  H14B 9227   1.097   0.978   1.727 -0.9320 -0.7648 -1.3180
   95SAPC  H14C 9228   1.142   0.865   1.844  0.4783  2.2222  3.5875
   95SAPC   C15 9229   0.873   1.073   1.865  0.8003 -0.4503 -0.1479
   95SAPC  H15A 9230   0.889   1.118   1.768  0.3326  1.2734  0.5449
   95SAPC  H15B 9231   0.797   0.998   1.848  1.4672 -1.4497  1.0602
   95SAPC  H15C 9232   0.832   1.148   1.931 -0.7266 -2.9586  1.9560
   95SAPC   C11 9233   1.082   0.897   2.139  0.0697  0.0226  0.1134
   95SAPC  H11A 9234   1.036   0.837   2.221 -2.2981  0.5757 -0.7222
   95SAPC  H11B 9235   1.119   0.987   2.193  0.3896 -1.1238  1.9095
   95SAPC     P 9236   1.198   0.682   2.044 -0.1827  0.0430  0.2963
   95SAPC   O13 9237   1.081   0.604   2.087 -0.1869  0.3900  0.2442
   95SAPC   O14 9238   1.245   0.659   1.910 -0.1143 -0.0389  0.1860
   95SAPC   O12 9239   1.187   0.836   2.076  0.0004 -0.0297  0.4978
   95SAPC   O11 9240   1.313   0.643   2.141  0.4282  0.0329 -0.3074
   95SAPC    C1 9241   1.296   0.669   2.289  0.1576 -0.1856 -0.6076
   95SAPC    HA 9242   1.269   0.774   2.312 -1.6687 -0.8051  0.2538
   95SAPC    HB 9243   1.210   0.612   2.328  0.9202  0.2151  1.8067
   95SAPC    C2 9244   1.418   0.604   2.356  0.4243 -0.1097 -0.6134
   95SAPC    HS 9245   1.381   0.568   2.454  1.6148 -2.6833 -1.0355
   95SAPC   O21 9246   1.538   0.694   2.363  0.2961  0.8379  0.5399
   95SAPC   C21 9247   1.521   0.804   2.433 -0.2425  0.9325  0.0702
   95SAPC   O22 9248   1.429   0.842   2.500  0.3695  0.1572  0.9806
   95SAPC   C22 9249   1.644   0.897   2.417  0.4832 -0.2534  0.3127
   95SAPC   H2R 9250   1.729   0.840   2.375  0.1393 -0.6711  0.1653
   95SAPC   H2S 9251   1.611   0.964   2.335 -2.5416 -0.1674  1.4426
   95SAPC    C3 9252   1.462   0.463   2.283 -0.2902  0.0264  0.3289
   95SAPC    HX 9253   1.552   0.414   2.327 -1.9260 -1.3401  2.3306
   95SAPC    HY 9254   1.478   0.488   2.176 -0.1994 -2.1687 -0.2150
   95SAPC   O31 9255   1.352   0.367   2.281 -0.3126  0.2141 -0.0888
   95SAPC   C31 9256   1.312   0.315   2.393  0.1600  0.2749 -0.9428
   95SAPC   O32 9257   1.348   0.353   2.504 -0.6557  0.2726  0.4816
   95SAPC   C32 9258   1.190   0.227   2.363 -0.1763 -0.0559  0.4832
   95SAPC   H2X 9259   1.214   0.164   2.275 -0.5387  0.6265 -0.1111
   95SAPC   H2Y 9260   1.113   0.305   2.348 -0.8765 -0.2036  2.8048
   95SAPC   C23 9261   1.667   0.994   2.539 -0.2272 -0.1561 -0.1970
   95SAPC   H3R 9262   1.570   1.038   2.569  0.7748  0.7524  1.9327
   95SAPC   H3S 9263   1.742   1.067   2.502 -1.5095  0.8873 -0.7725
   95SAPC   C24 9264   1.736   0.936   2.656 -0.0889  0.4257  0.3048
   95SAPC   H4R 9265   1.828   0.888   2.616  0.4560  0.3516  1.5937
   95SAPC   H4S 9266   1.672   0.854   2.694 -1.2893  0.7617 -0.9072
   95SAPC   C25 9267   1.757   1.042   2.766  0.1754  0.4052 -0.3925
   95SAPC   H5R 9268   1.806   1.136   2.735 -0.4928  0.4627 -1.3309
   95SAPC   C26 9269   1.692   1.035   2.887 -0.0660 -0.0997 -0.6574
   95SAPC   H6R 9270   1.725   1.105   2.966 -0.5945  0.6493 -1.0879
   95SAPC   C27 9271   1.606   0.917   2.935 -0.8974 -0.9299 -0.3889
   95SAPC   H7R 9272   1.542   0.879   2.852 -1.2418 -1.2672  0.0238
   95SAPC   H7S 9273   1.530   0.952   3.008  0.7377  2.1774  0.0017
   95SAPC   C28 9274   1.694   0.814   3.008  0.7685  0.0198 -0.5118
   95SAPC   H8R 9275   1.733   0.742   2.935  0.3016 -0.6221 -0.1388
   95SAPC   C29 9276   1.698   0.787   3.137 -0.3337  0.1014  0.2154
   95SAPC   H9R 9277   1.758   0.704   3.175  1.1166  1.6756  1.5014
   95SAPC  C210 9278   1.642   0.870   3.250 -0.2546 -0.0598 -0.5096
   95SAPC  H10R 9279   1.653   0.816   3.347  1.9792  0.8112 -0.2245
   95SAPC  H10S 9280   1.531   0.874   3.243 -0.2372  1.0220 -0.3769
   95SAPC  C211 9281   1.701   1.006   3.269 -0.0983  0.6190  0.0334
   95SAPC  H11R 9282   1.775   1.023   3.189 -0.0358 -1.4669 -0.4235
   95SAPC  C212 9283   1.678   1.081   3.375  0.1277 -0.3338  0.8693
   95SAPC  H12R 9284   1.736   1.174   3.388 -1.6232  0.5236  3.3135
   95SAPC  C213 9285   1.584   1.053   3.487 -0.1498  0.1420  0.4674
   95SAPC  H13R 9286   1.530   0.958   3.464 -0.3503  0.1380  0.9458
   95SAPC  H13S 9287   1.520   1.143   3.487  1.0260  1.0757 -2.1032
   95SAPC  C214 9288   1.653   1.035   3.625  0.1153  0.5250 -0.1125
   95SAPC  H14R 9289   1.758   1.004   3.621  0.5051  1.8772 -1.3964
   95SAPC  C215 9290   1.602   1.060   3.746 -0.0371 -0.0290  0.0712
   95SAPC  H15R 9291   1.666   1.043   3.834  1.2518 -3.6836 -1.3701
   95SAPC  C216 9292   1.453   1.103   3.765  0.0933 -0.7329 -0.6237
   95SAPC  H16R 9293   1.398   1.027   3.825 -0.8587 -0.2074 -0.7978
   95SAPC  H16S 9294   1.391   1.109   3.673  1.2978 -1.5890 -1.5228
   95SAPC  C217 9295   1.427   1.225   3.857 -0.4816  0.1888  0.3449
   95SAPC  H17R 9296   1.468   1.313   3.802 -1.4130  0.5335  0.1636
   95SAPC  H17S 9297   1.483   1.209   3.951  1.9594  0.5999 -0.9622
   95SAPC  C218 9298   1.278   1.245   3.892  0.2958 -0.5932  0.4848
   95SAPC  H18R 9299   1.227   1.235   3.794 -0.1846 -2.5211  0.8793
   95SAPC  H18S 9300   1.249   1.348   3.922 -0.3513 -0.2890 -1.0912
   95SAPC  C219 9301   1.213   1.150   3.986 -0.6106  0.1291 -0.2719
   95SAPC  H19R 9302   1.243   1.045   3.964 -2.0922 -0.3727  0.0249
   95SAPC  H19S 9303   1.103   1.161   3.977 -0.5113  3.4741  1.2473
   95SAPC  C220 9304   1.258   1.160   4.133  0.1246  0.2385  0.1797
   95SAPC  H20R 9305   1.369   1.164   4.131  0.3677 -3.0061 -2.4072
   95SAPC  H20S 9306   1.224   1.071   4.191 -2.1909  1.8337  1.4391
   95SAPC  H20T 9307   1.206   1.237   4.194  0.5532 -2.3024  4.1170
   95SAPC   C33 9308   1.131   0.131   2.474  0.4308  0.4064  0.0777
   95SAPC   H3X 9309   1.209   0.056   2.498 -0.6799 -0.8333 -0.0429
   95SAPC   H3Y 9310   1.044   0.072   2.438  1.4024 -0.2827 -1.1937
   95SAPC   C34 9311   1.094   0.203   2.599  0.1243  0.1703 -1.0648
   95SAPC   H4X 9312   1.002   0.262   2.581 -0.0124 -0.3005 -1.9378
   95SAPC   H4Y 9313   1.163   0.283   2.635 -0.4470  0.5978 -0.9185
   95SAPC   C35 9314   1.059   0.103   2.707 -0.4081 -0.2943  0.2278
   95SAPC   H5X 9315   1.154   0.046   2.718 -1.2328 -1.2021  4.8397
   95SAPC   H5Y 9316   0.976   0.036   2.679 -1.3773  0.5723  0.9380
   95SAPC   C36 9317   1.026   0.175   2.835 -0.4998  0.3957 -0.3839
   95SAPC   H6X 9318   0.917   0.193   2.832 -0.9730 -2.0752 -0.0471
   95SAPC   H6Y 9319   1.080   0.272   2.846  0.5782 -0.1327 -0.8657
   95SAPC   C37 9320   1.064   0.093   2.960  0.2017  0.2398 -0.5698
   95SAPC   H7X 9321   1.171   0.064   2.958 -0.0859 -1.1969  1.9240
   95SAPC   H7Y 9322   1.007  -0.003   2.960 -0.5061  0.6457 -1.1483
   95SAPC   C38 9323   1.023   0.155   3.093 -0.2421 -0.0349 -0.0408
   95SAPC   H8X 9324   0.915   0.131   3.099 -0.7011  1.9338  0.2530
   95SAPC   H8Y 9325   1.025   0.266   3.092 -0.1917 -0.0224  0.9896
   95SAPC   C39 9326   1.109   0.111   3.209  0.1814 -0.5751  0.4233
   95SAPC   H9X 9327   1.212   0.152   3.209 -0.0816  0.1165 -0.0074
   95SAPC   H9Y 9328   1.112   0.001   3.204 -0.1842 -0.6759  2.1144
   95SAPC  C310 9329   1.046   0.131   3.347  1.2819  0.1957 -0.5305
   95SAPC  H10X 9330   1.120   0.080   3.413 -0.9796 -2.9581 -0.2030
   95SAPC  H10Y 9331   0.960   0.062   3.359  1.4449  0.2052  0.9722
   95SAPC  C311 9332   1.021   0.278   3.383  0.1175  0.1175  0.2149
   95SAPC  H11X 9333   0.955   0.333   3.313  1.2384  0.8800 -0.2605
   95SAPC  H11Y 9334   1.119   0.328   3.398  1.0870 -0.5062 -3.1856
   95SAPC  C312 9335   0.950   0.289   3.518  0.3754  0.4407  0.5617
   95SAPC  H12X 9336   0.987   0.209   3.586  1.1379  0.6002  0.3415
   95SAPC  H12Y 9337   0.844   0.257   3.512  0.3211  0.5326  0.9664
   95SAPC  C313 9338   0.945   0.425   3.585  0.9616 -0.0498  1.0362
   95SAPC  H13X 9339   1.047   0.467   3.598  2.5995 -3.3568  0.1390
   95SAPC  H13Y 9340   0.898   0.426   3.686  1.4247 -0.5078  1.2656
   95SAPC  C314 9341   0.861   0.515   3.495 -0.3786 -0.0296  0.1853
   95SAPC  H14X 9342   0.884   0.514   3.387  0.4996 -0.0284  0.3636
   95SAPC  H14Y 9343   0.877   0.623   3.515  1.5148 -0.4166  0.9204
   95SAPC  C315 9344   0.706   0.499   3.528  0.6233 -0.6480 -0.3653
   95SAPC  H15X 9345   0.692   0.479   3.637 -1.4732  0.8977 -0.2774
   95SAPC  H15Y 9346   0.661   0.412   3.476 -0.3355 -1.5181  1.7637
   95SAPC  C316 9347   0.636   0.641   3.508  0.3473 -0.5024  0.1126
   95SAPC  H16X 9348   0.642   0.674   3.402  0.0933 -1.1049 -0.0953
   95SAPC  H16Y 9349   0.697   0.704   3.576 -0.3218 -0.1578  0.3986
   95SAPC  C317 9350   0.492   0.632   3.546  0.2955 -0.0420 -0.4133
   95SAPC  H17X 9351   0.490   0.563   3.633 -0.0059  1.1791  0.5787
   95SAPC  H17Y 9352   0.432   0.583   3.467 -1.1616  1.9819 -0.6297
   95SAPC  C318 9353   0.436   0.763   3.603  0.2776  0.0846  1.0712
   95SAPC  H18X 9354   0.361   0.741   3.681 -2.1804 -1.9637 -1.6324
   95SAPC  H18Y 9355   0.387   0.811   3.515  1.4593 -0.6544 -0.0266
   95SAPC  H18Z 9356   0.509   0.842   3.632  1.2990 -0.4567  0.0303
   96SAPC     N 9357   2.757   3.657   1.887  0.0577  0.4406  0.1452
   96SAPC   C12 9358   2.638   3.646   1.971  1.1657  0.5565  0.4766
   96SAPC  H12A 9359   2.553   3.609   1.916 -1.5794  1.4668  3.7682
   96SAPC  H12B 9360   2.600   3.740   2.009 -0.6663  1.0096 -2.1803
   96SAPC   C13 9361   2.804   3.525   1.834 -0.5201  0.3094  0.2294
   96SAPC  H13A 9362   2.735   3.480   1.764  1.9278 -2.7166 -0.4808
   96SAPC  H13B 9363   2.899   3.536   1.784 -0.3529 -0.9613  0.2294
   96SAPC  H13C 9364   2.817   3.454   1.915 -2.7612 -1.5697 -0.9392
   96SAPC   C14 9365   2.715   3.731   1.766  0.9382 -0.2559 -0.0508
   96SAPC  H14A 9366   2.802   3.748   1.704  1.4878  0.1454  0.8049
   96SAPC  H14B 9367   2.646   3.678   1.702  2.1255  1.0642 -2.5975
   96SAPC  H14C 9368   2.689   3.829   1.804  0.8244 -0.7902  1.3190
   96SAPC   C15 9369   2.869   3.726   1.955  0.2119  0.1150  0.1324
   96SAPC  H15A 9370   2.948   3.738   1.883 -0.5473  1.4112 -0.5288
   96SAPC  H15B 9371   2.851   3.821   2.004  1.1439 -0.5856  1.9109
   96SAPC  H15C 9372   2.913   3.672   2.038 -0.5321  2.0670  1.9108
   96SAPC   C11 9373   2.646   3.559   2.100 -0.3510 -0.0270  0.6154
   96SAPC  H11A 9374   2.550   3.577   2.152 -1.1736 -0.3320 -0.7376
   96SAPC  H11B 9375   2.722   3.600   2.169  1.0030 -0.9415 -0.2631
   96SAPC     P 9376   2.553   3.315   2.054  0.2461  0.3899  0.1263
   96SAPC   O13 9377   2.452   3.362   1.955  0.3587 -0.2395  0.5124
   96SAPC   O14 9378   2.618   3.179   2.023 -0.9919  0.1003  0.3033
   96SAPC   O12 9379   2.665   3.422   2.073 -0.3388  0.5584 -0.5087
   96SAPC   O11 9380   2.485   3.313   2.197  0.2712 -0.3006  0.5169
   96SAPC    C1 9381   2.544   3.252   2.311  0.0498 -0.2071 -0.0764
   96SAPC    HA 9382   2.515   3.146   2.318  4.1361 -1.5611 -0.6751
   96SAPC    HB 9383   2.654   3.234   2.303  0.6239  1.3708  2.6042
   96SAPC    C2 9384   2.529   3.339   2.446  0.0932 -0.6831 -0.6135
   96SAPC    HS 9385   2.423   3.330   2.476 -0.0640 -1.0659 -1.2574
   96SAPC   O21 9386   2.575   3.472   2.409 -0.0496 -0.0718  0.1175
   96SAPC   C21 9387   2.504   3.570   2.457  0.3132  0.3146 -0.8293
   96SAPC   O22 9388   2.412   3.549   2.533  0.1924  0.2835 -0.2910
   96SAPC   C22 9389   2.544   3.710   2.407 -0.2494 -0.0613  0.8791
   96SAPC   H2R 9390   2.650   3.718   2.377 -0.8797  1.8623 -1.1076
   96SAPC   H2S 9391   2.489   3.728   2.312  1.2250 -3.0617 -0.6890
   96SAPC    C3 9392   2.624   3.276   2.559 -0.1655  0.2814  0.4195
   96SAPC    HX 9393   2.724   3.298   2.517  0.7496  0.0329  2.3741
   96SAPC    HY 9394   2.607   3.166   2.556 -1.1488  0.4231  0.4753
   96SAPC   O31 9395   2.597   3.329   2.698  0.3248  0.0799  0.1745
   96SAPC   C31 9396   2.686   3.409   2.754 -0.4120 -0.0851  0.1263
   96SAPC   O32 9397   2.793   3.443   2.707  0.5588  0.3613 -0.4121
   96SAPC   C32 9398   2.633   3.465   2.889  0.0226 -0.3267 -1.0801
   96SAPC   H2X 9399   2.530   3.430   2.914 -0.4366  1.6638  0.0272
   96SAPC   H2Y 9400   2.585   3.564   2.874 -1.2296 -0.2746  2.2170
   96SAPC   C23 9401   2.499   3.816   2.502 -0.0012  0.5558 -0.5276
   96SAPC   H3R 9402   2.396   3.799   2.541 -0.4641  3.5976 -0.1956
   96SAPC   H3S 9403   2.490   3.910   2.444  1.3024  0.5400 -0.7778
   96SAPC   C24 9404   2.592   3.839   2.619  0.4213  0.1257  0.6104
   96SAPC   H4R 9405   2.636   3.739   2.637  0.1573 -0.4772 -1.7631
   96SAPC   H4S 9406   2.528   3.866   2.705 -1.2727  1.4846 -0.9909
   96SAPC   C25 9407   2.692   3.946   2.597 -0.3609 -0.2301 -0.1368
   96SAPC   H5R 9408   2.761   3.935   2.512 -0.1689  1.6287 -0.2824
   96SAPC   C26 9409   2.727   4.040   2.683 -1.1304 -0.7038  0.2721
   96SAPC   H6R 9410   2.818   4.100   2.666  0.2230 -1.8748  2.8940
   96SAPC   C27 9411   2.680   4.057   2.825 -0.2678  0.2650 -0.2334
   96SAPC   H7R 9412   2.570   4.065   2.827 -0.4646 -1.9363  0.2074
   96SAPC   H7S 9413   2.722   4.153   2.862  1.1264 -0.6323  0.6060
   96SAPC   C28 9414   2.739   3.957   2.924  0.8443  0.3459 -0.3375
   96SAPC   H8R 9415   2.763   3.862   2.874 -2.1715 -1.1870  0.8355
   96SAPC   C29 9416   2.733   3.956   3.060  0.2915  0.3698  0.5660
   96SAPC   H9R 9417   2.765   3.864   3.112  1.7589  0.2103 -0.5432
   96SAPC  C210 9418   2.674   4.068   3.139  0.6018 -0.5959  0.5863
   96SAPC  H10R 9419   2.606   4.008   3.203 -1.9411  0.1183 -1.2619
   96SAPC  H10S 9420   2.606   4.125   3.072 -0.5130 -0.8646  1.4581
   96SAPC  C211 9421   2.777   4.155   3.206 -0.3546  0.5156 -0.0265
   96SAPC  H11R 9422   2.863   4.175   3.141 -0.6884 -3.9028 -2.1657
   96SAPC  C212 9423   2.752   4.212   3.320  0.2994 -0.5971  0.1713
   96SAPC  H12R 9424   2.822   4.287   3.358  2.4387 -1.8278 -1.1456
   96SAPC  C213 9425   2.631   4.200   3.407  0.7385  0.0681 -0.5607
   96SAPC  H13R 9426   2.551   4.134   3.368  1.3818 -0.7983 -0.4473
   96SAPC  H13S 9427   2.590   4.303   3.413  1.0804  0.2217 -0.7894
   96SAPC  C214 9428   2.674   4.142   3.540 -0.1136  0.6120  0.5069
   96SAPC  H14R 9429   2.763   4.078   3.540 -0.8999 -0.5116  1.5174
   96SAPC  C215 9430   2.613   4.155   3.660 -0.2287  0.0835  0.7496
   96SAPC  H15R 9431   2.653   4.106   3.750 -0.0460 -1.9080 -0.3486
   96SAPC  C216 9432   2.491   4.229   3.692  0.0696 -0.0701  0.3016
   96SAPC  H16R 9433   2.408   4.157   3.705 -0.3142  0.2380 -0.3975
   96SAPC  H16S 9434   2.456   4.273   3.597 -0.6038 -0.2778  0.4513
   96SAPC  C217 9435   2.497   4.313   3.816 -0.5079  0.0673 -0.6561
   96SAPC  H17R 9436   2.400   4.366   3.830 -1.5412 -1.9938  0.6066
   96SAPC  H17S 9437   2.566   4.395   3.789  1.6648 -1.6487 -0.6370
   96SAPC  C218 9438   2.536   4.248   3.950  0.2347  0.1251 -0.1949
   96SAPC  H18R 9439   2.645   4.228   3.941  0.3295  0.6826 -0.3228
   96SAPC  H18S 9440   2.475   4.159   3.978  0.0405  0.5554  0.8078
   96SAPC  C219 9441   2.533   4.352   4.062  0.0798 -0.4644  0.4301
   96SAPC  H19R 9442   2.597   4.438   4.035 -1.9923  0.9041 -0.3626
   96SAPC  H19S 9443   2.586   4.305   4.147 -0.2389  0.0627  0.9228
   96SAPC  C220 9444   2.395   4.386   4.105  0.7697  0.6129  0.4890
   96SAPC  H20R 9445   2.397   4.439   4.203  0.4972 -3.8573  3.1840
   96SAPC  H20S 9446   2.334   4.293   4.114  2.1771 -0.4227 -0.2791
   96SAPC  H20T 9447   2.352   4.448   4.023 -0.2524 -3.3331 -2.2500
   96SAPC   C33 9448   2.734   3.466   3.006 -0.4370 -0.1209 -0.3535
   96SAPC   H3X 9449   2.831   3.513   2.980 -0.4759  1.2200  1.6294
   96SAPC   H3Y 9450   2.766   3.367   3.043  1.3897 -0.2393 -2.0710
   96SAPC   C34 9451   2.677   3.546   3.122  0.3607  0.4388  0.5260
   96SAPC   H4X 9452   2.572   3.511   3.129 -0.0210  0.9835 -1.8020
   96SAPC   H4Y 9453   2.671   3.656   3.110 -2.2934  0.2064 -0.8120
   96SAPC   C35 9454   2.745   3.517   3.258 -0.2000 -0.1874 -0.4002
   96SAPC   H5X 9455   2.847   3.560   3.264 -0.9218  1.6590 -0.4774
   96SAPC   H5Y 9456   2.739   3.409   3.281 -0.9083  0.2172  1.4932
   96SAPC   C36 9457   2.656   3.563   3.372  0.7460  0.1329  0.2345
   96SAPC   H6X 9458   2.717   3.551   3.464  1.6414  0.1385 -0.3393
   96SAPC   H6Y 9459   2.575   3.488   3.371  0.8303 -0.0058 -1.8871
   96SAPC   C37 9460   2.596   3.705   3.379  0.4354  0.2102 -1.0639
   96SAPC   H7X 9461   2.537   3.729   3.287 -2.3925  0.2846  0.6458
   96SAPC   H7Y 9462   2.673   3.781   3.404  0.9206 -0.7806  0.5173
   96SAPC   C38 9463   2.471   3.711   3.469 -0.2554 -1.0634  0.3796
   96SAPC   H8X 9464   2.487   3.669   3.571 -1.9167  1.9967  2.0561
   96SAPC   H8Y 9465   2.380   3.664   3.425 -0.4153 -0.3647 -0.0488
   96SAPC   C39 9466   2.416   3.852   3.484  0.2333 -0.2864 -0.2455
   96SAPC   H9X 9467   2.329   3.878   3.420  1.3628  1.4432 -1.1569
   96SAPC   H9Y 9468   2.488   3.932   3.455  1.2010 -0.3557  1.8038
   96SAPC  C310 9469   2.384   3.877   3.635  0.0479  0.9229  0.1620
   96SAPC  H10X 9470   2.353   3.984   3.646  0.4911  0.8953  2.0406
   96SAPC  H10Y 9471   2.470   3.852   3.701  0.1594 -1.1428 -0.6917
   96SAPC  C311 9472   2.265   3.793   3.680 -0.7579  0.4085 -0.2641
   96SAPC  H11X 9473   2.303   3.690   3.694  0.3277  1.2181  6.1673
   96SAPC  H11Y 9474   2.186   3.793   3.602 -1.8647  0.4969  0.8193
   96SAPC  C312 9475   2.199   3.830   3.816 -0.8307  0.2713  0.3795
   96SAPC  H12X 9476   2.123   3.759   3.853 -0.6418  1.1059  2.5101
   96SAPC  H12Y 9477   2.145   3.927   3.804  0.0946  0.6802 -0.6321
   96SAPC  C313 9478   2.302   3.859   3.924  0.5722  0.0245 -0.0711
   96SAPC  H13X 9479   2.365   3.947   3.899 -0.5223  2.0295  3.4771
   96SAPC  H13Y 9480   2.371   3.773   3.930  0.4476 -0.0181  0.8552
   96SAPC  C314 9481   2.239   3.886   4.061 -0.2640 -0.3191 -0.1682
   96SAPC  H14X 9482   2.184   3.795   4.095 -0.6765 -0.2368 -0.5975
   96SAPC  H14Y 9483   2.168   3.971   4.073  0.8523  0.5751  0.3307
   96SAPC  C315 9484   2.356   3.916   4.159 -0.0585  0.0565  0.4977
   96SAPC  H15X 9485   2.397   4.008   4.112  0.5980 -1.3834 -1.8710
   96SAPC  H15Y 9486   2.440   3.845   4.147  1.1368  1.6607 -1.3765
   96SAPC  C316 9487   2.316   3.936   4.304  0.4355 -0.0760 -0.2887
   96SAPC  H16X 9488   2.307   3.836   4.353 -0.5366 -0.7485 -1.7682
   96SAPC  H16Y 9489   2.215   3.981   4.306  0.3606 -0.2449 -0.2389
   96SAPC  C317 9490   2.408   4.022   4.386 -1.0222  0.1425  0.2663
   96SAPC  H17X 9491   2.378   4.032   4.493 -0.1936  0.0635  0.5143
   96SAPC  H17Y 9492   2.399   4.124   4.343 -2.1634 -0.2772 -0.5352
   96SAPC  C318 9493   2.557   3.979   4.389  0.5231 -0.1546 -0.1435
   96SAPC  H18X 9494   2.626   4.052   4.435 -0.8594 -0.4769  2.6813
   96SAPC  H18Y 9495   2.594   3.955   4.287 -1.8431  0.4887 -1.2396
   96SAPC  H18Z 9496   2.553   3.877   4.434 -3.9087 -1.0345 -1.9343
   97SAPC     N 9497   1.412   2.022   1.870 -0.1342  0.1406 -0.7462
   97SAPC   C12 9498   1.444   1.948   2.000 -0.3935 -0.3982 -0.5774
   97SAPC  H12A 9499   1.419   1.844   1.984 -1.7239 -0.1398 -0.2945
   97SAPC  H12B 9500   1.383   1.996   2.076  1.5528  0.6430  0.3918
   97SAPC   C13 9501   1.459   2.169   1.881  0.1808  0.2890 -0.0294
   97SAPC  H13A 9502   1.410   2.214   1.966  0.7179  1.7214 -0.4655
   97SAPC  H13B 9503   1.566   2.168   1.899 -0.1432  2.6871  2.9060
   97SAPC  H13C 9504   1.431   2.219   1.790  2.2499  0.1423 -0.8150
   97SAPC   C14 9505   1.487   1.959   1.754 -0.6499 -0.8259  0.4054
   97SAPC  H14A 9506   1.473   1.852   1.759  0.3024 -0.9675  0.2281
   97SAPC  H14B 9507   1.457   1.998   1.658 -0.6193 -1.8485 -0.0200
   97SAPC  H14C 9508   1.594   1.973   1.763 -0.2689 -2.7137 -0.7876
   97SAPC   C15 9509   1.272   2.021   1.848  0.3068 -0.2141 -0.3656
   97SAPC  H15A 9510   1.209   2.048   1.932 -1.2763  0.0342 -1.5846
   97SAPC  H15B 9511   1.240   2.071   1.758 -0.6931  1.0650  0.6604
   97SAPC  H15C 9512   1.251   1.915   1.843  3.2979 -0.9422  0.5781
   97SAPC   C11 9513   1.589   1.964   2.048  0.3387 -0.3153  0.7969
   97SAPC  H11A 9514   1.588   1.954   2.159 -0.9795 -1.3121  0.7263
   97SAPC  H11B 9515   1.643   2.060   2.038 -2.7747  1.7738  2.2287
   97SAPC     P 9516   1.672   1.725   1.993  0.0714  0.3063  0.0702
   97SAPC   O13 9517   1.537   1.665   1.967  0.7256  0.0955  0.0266
   97SAPC   O14 9518   1.782   1.674   1.910  0.4715 -0.2428 -0.0739
   97SAPC   O12 9519   1.663   1.874   1.981 -0.2224 -0.3005  0.2460
   97SAPC   O11 9520   1.704   1.705   2.145  0.0494 -0.6567 -0.3856
   97SAPC    C1 9521   1.807   1.625   2.204  0.7057  0.0137 -0.6180
   97SAPC    HA 9522   1.902   1.627   2.146  1.6160  0.3325  0.8353
   97SAPC    HB 9523   1.840   1.677   2.297  1.9582  0.8558 -1.4983
   97SAPC    C2 9524   1.771   1.473   2.240  0.1163 -0.0613 -1.0964
   97SAPC    HS 9525   1.732   1.422   2.150 -0.3744 -3.5777  0.9359
   97SAPC   O21 9526   1.664   1.459   2.343 -0.1548  0.0881 -0.3051
   97SAPC   C21 9527   1.596   1.342   2.335 -0.7870  0.0505  0.4600
   97SAPC   O22 9528   1.608   1.259   2.245 -0.3857  0.5979  0.0506
   97SAPC   C22 9529   1.516   1.316   2.461  0.0075 -0.3092  0.9707
   97SAPC   H2R 9530   1.419   1.275   2.427 -1.1614  1.8527  1.5710
   97SAPC   H2S 9531   1.567   1.226   2.504  3.1278  0.5633 -0.5465
   97SAPC    C3 9532   1.903   1.401   2.284 -0.1710 -0.5391  0.6750
   97SAPC    HX 9533   1.965   1.415   2.192  0.5995  2.6127  1.5707
   97SAPC    HY 9534   1.881   1.294   2.306 -0.6936  0.1433  4.0188
   97SAPC   O31 9535   1.965   1.467   2.396  0.8171 -0.3345 -0.2235
   97SAPC   C31 9536   1.932   1.422   2.514 -0.4957  0.2694  0.4551
   97SAPC   O32 9537   1.862   1.326   2.539  0.0623  0.7164  0.4510
   97SAPC   C32 9538   1.986   1.524   2.613  0.0252 -0.4884  0.2033
   97SAPC   H2X 9539   1.971   1.625   2.570 -0.3268 -0.4584  0.3890
   97SAPC   H2Y 9540   2.094   1.503   2.625  0.0622 -0.0641  0.6542
   97SAPC   C23 9541   1.514   1.444   2.550 -0.1910 -0.2012 -0.0704
   97SAPC   H3R 9542   1.470   1.529   2.495  0.6025 -0.8247 -1.7492
   97SAPC   H3S 9543   1.621   1.467   2.570 -0.3258  0.5309 -0.1869
   97SAPC   C24 9544   1.436   1.429   2.677  0.2043  0.6166  0.4454
   97SAPC   H4R 9545   1.346   1.373   2.641  0.3934 -0.2487  1.2812
   97SAPC   H4S 9546   1.401   1.527   2.717 -0.7576 -1.2068  4.5751
   97SAPC   C25 9547   1.514   1.344   2.775 -0.2202  0.7390  0.8606
   97SAPC   H5R 9548   1.590   1.273   2.740 -0.4579  1.6478 -1.6673
   97SAPC   C26 9549   1.488   1.352   2.902 -0.6312 -0.2865 -0.2287
   97SAPC   H6R 9550   1.542   1.283   2.968  0.2523 -0.5794 -1.2301
   97SAPC   C27 9551   1.377   1.433   2.972  0.4267  0.3406  0.2669
   97SAPC   H7R 9552   1.335   1.376   3.057 -0.5879 -2.4952 -1.9613
   97SAPC   H7S 9553   1.288   1.436   2.906  0.5133 -0.4566  0.0967
   97SAPC   C28 9554   1.432   1.569   3.015 -0.2055 -0.0811  0.0918
   97SAPC   H8R 9555   1.415   1.657   2.950  2.2088  0.3075 -0.1074
   97SAPC   C29 9556   1.482   1.592   3.137 -0.0625 -0.1371  0.3496
   97SAPC   H9R 9557   1.522   1.688   3.170  4.2638 -2.4387  2.6483
   97SAPC  C210 9558   1.520   1.480   3.229  0.3422 -0.5083  0.1660
   97SAPC  H10R 9559   1.630   1.472   3.237  0.2453 -1.8991  0.3921
   97SAPC  H10S 9560   1.497   1.382   3.182 -0.8166  0.2593 -0.9100
   97SAPC  C211 9561   1.462   1.515   3.366  0.1407 -0.2357  0.4410
   97SAPC  H11R 9562   1.353   1.528   3.371 -0.1829 -2.2400 -0.4686
   97SAPC  C212 9563   1.532   1.532   3.476  0.5227 -0.1450 -0.1107
   97SAPC  H12R 9564   1.473   1.574   3.559 -0.3452  2.1772 -1.8084
   97SAPC  C213 9565   1.673   1.507   3.499 -0.1994  0.0706 -0.9390
   97SAPC  H13R 9566   1.735   1.599   3.498 -0.1372  0.1117  1.2944
   97SAPC  H13S 9567   1.712   1.428   3.430 -1.6789 -1.3612 -0.2117
   97SAPC  C214 9568   1.689   1.446   3.640 -0.4924  0.2638 -0.6089
   97SAPC  H14R 9569   1.645   1.345   3.646 -0.0931  0.0281 -1.6300
   97SAPC  C215 9570   1.721   1.506   3.759 -0.4907  0.2814  0.5313
   97SAPC  H15R 9571   1.733   1.444   3.849  1.2348  1.3073  1.0703
   97SAPC  C216 9572   1.785   1.642   3.772  0.4866  0.4391  0.3827
   97SAPC  H16R 9573   1.751   1.691   3.866  0.0434 -0.3467  0.6398
   97SAPC  H16S 9574   1.763   1.703   3.682  0.4974 -3.3523 -2.4019
   97SAPC  C217 9575   1.937   1.619   3.772 -0.4433 -0.5942  0.6246
   97SAPC  H17R 9576   1.977   1.547   3.698  0.4774 -0.1995  0.7308
   97SAPC  H17S 9577   1.955   1.568   3.869  1.7392 -1.2122 -0.0676
   97SAPC  C218 9578   2.007   1.749   3.770 -0.3794  0.0833  0.4988
   97SAPC  H18R 9579   1.950   1.817   3.837 -0.5307 -0.8353  1.3204
   97SAPC  H18S 9580   1.994   1.800   3.672 -0.4717  1.8408  1.3809
   97SAPC  C219 9581   2.152   1.751   3.821  0.1785 -0.7174 -0.3424
   97SAPC  H19R 9582   2.150   1.696   3.917  1.7971 -2.6317 -1.3336
   97SAPC  H19S 9583   2.191   1.854   3.835  0.2018 -0.4994 -1.8434
   97SAPC  C220 9584   2.244   1.678   3.721  0.7518 -0.0473  0.9483
   97SAPC  H20R 9585   2.189   1.589   3.685  2.3610 -1.3692  1.5931
   97SAPC  H20S 9586   2.341   1.659   3.773  1.2212  2.1696  0.9990
   97SAPC  H20T 9587   2.256   1.738   3.628  2.7949 -0.5648  0.8197
   97SAPC   C33 9588   1.914   1.532   2.751 -0.4254  0.3771  0.1278
   97SAPC   H3X 9589   1.919   1.426   2.782  1.9147  0.2966 -0.3861
   97SAPC   H3Y 9590   1.806   1.558   2.737 -0.7906 -0.6403  0.9184
   97SAPC   C34 9591   1.999   1.615   2.849 -0.2862  0.1213 -0.2238
   97SAPC   H4X 9592   2.050   1.702   2.803  0.2953  0.6179  1.2790
   97SAPC   H4Y 9593   2.091   1.558   2.876  0.4198  1.1548 -0.4046
   97SAPC   C35 9594   1.926   1.657   2.979 -0.8087  0.3689  0.5509
   97SAPC   H5X 9595   1.837   1.721   2.959 -0.4232  0.8145  0.2201
   97SAPC   H5Y 9596   1.995   1.710   3.047  0.1275  0.9396 -0.8091
   97SAPC   C36 9597   1.876   1.551   3.070  0.5844  0.3785  0.3412
   97SAPC   H6X 9598   1.781   1.504   3.037  1.2609 -0.1212 -0.9642
   97SAPC   H6Y 9599   1.840   1.593   3.166 -0.4676 -0.1368  0.1843
   97SAPC   C37 9600   1.991   1.453   3.110 -0.1746  0.3376  0.3220
   97SAPC   H7X 9601   2.080   1.517   3.129  0.4727 -0.0290 -1.3045
   97SAPC   H7Y 9602   2.016   1.390   3.023  0.6846  0.6943  0.3015
   97SAPC   C38 9603   1.949   1.361   3.228 -0.3945  0.4049  0.6683
   97SAPC   H8X 9604   1.879   1.283   3.192 -1.8138  0.9407  2.1610
   97SAPC   H8Y 9605   1.895   1.424   3.302 -0.5564  0.0365  0.8695
   97SAPC   C39 9606   2.077   1.300   3.297  0.5081  0.3511 -0.2224
   97SAPC   H9X 9607   2.138   1.392   3.307 -0.8282  1.2150  0.3048
   97SAPC   H9Y 9608   2.116   1.225   3.225  1.4413 -1.4307  2.0206
   97SAPC  C310 9609   2.044   1.226   3.428 -0.1514 -0.1137 -0.7907
   97SAPC  H10X 9610   2.002   1.125   3.410 -1.0026  0.6006 -3.2932
   97SAPC  H10Y 9611   1.962   1.282   3.477  0.8387 -0.5451  1.4570
   97SAPC  C311 9612   2.156   1.204   3.540  0.7084  0.0969  0.4215
   97SAPC  H11X 9613   2.182   1.309   3.567  1.1090 -0.0842  0.7407
   97SAPC  H11Y 9614   2.241   1.150   3.495 -1.0478 -1.6217 -0.9932
   97SAPC  C312 9615   2.108   1.121   3.657  0.1013 -0.5415  0.3639
   97SAPC  H12X 9616   2.058   1.030   3.619 -1.1410  0.4262 -0.4037
   97SAPC  H12Y 9617   2.024   1.181   3.698 -0.3273 -1.8184  1.4028
   97SAPC  C313 9618   2.209   1.080   3.764 -0.4004 -0.8442 -0.8119
   97SAPC  H13X 9619   2.281   1.001   3.734 -0.2732 -1.9190  2.0878
   97SAPC  H13Y 9620   2.148   1.025   3.838 -0.7035 -0.7965 -1.0219
   97SAPC  C314 9621   2.266   1.211   3.842 -0.1330 -0.0197 -0.5114
   97SAPC  H14X 9622   2.198   1.248   3.922  0.7277 -0.8261  0.6270
   97SAPC  H14Y 9623   2.285   1.292   3.768  0.3922  1.4215  1.1302
   97SAPC  C315 9624   2.398   1.176   3.926 -0.1139 -0.0752 -0.2948
   97SAPC  H15X 9625   2.488   1.171   3.861 -1.3613  1.2976 -2.2315
   97SAPC  H15Y 9626   2.376   1.076   3.970 -3.9022  1.0485  0.7473
   97SAPC  C316 9627   2.432   1.278   4.037  0.6466  0.1336  0.2615
   97SAPC  H16X 9628   2.445   1.376   3.986  0.6465 -0.2608 -0.5269
   97SAPC  H16Y 9629   2.527   1.238   4.076  0.9358  0.6730  0.1136
   97SAPC  C317 9630   2.332   1.281   4.154 -0.1774  0.9783  0.1157
   97SAPC  H17X 9631   2.234   1.314   4.114 -1.0889 -2.0072 -0.3941
   97SAPC  H17Y 9632   2.365   1.349   4.235 -0.5037 -0.3864  1.4437
   97SAPC  C318 9633   2.296   1.148   4.227  0.1108 -0.2896  0.1430
   97SAPC  H18X 9634   2.257   1.176   4.327 -0.4236  0.3334 -0.2282
   97SAPC  H18Y 9635   2.386   1.085   4.244  0.5595  0.5202  0.8420
   97SAPC  H18Z 9636   2.214   1.093   4.177 -1.0256  0.6730  0.8978
   98SAPC     N 9637   5.907   2.870   2.455  0.1617 -0.0435  0.0125
   98SAPC   C12 9638   5.932   2.900   2.312 -0.0502 -0.3708 -0.2707
   98SAPC  H12A 9639   5.882   2.830   2.246 -0.0279 -0.1212 -0.5568
   98SAPC  H12B 9640   6.038   2.893   2.294  0.3677  3.8538 -0.4242
   98SAPC   C13 9641   5.926   2.723   2.473 -0.4708  0.0296 -0.3620
   98SAPC  H13A 9642   5.882   2.685   2.564  2.8301 -0.5745  1.1435
   98SAPC  H13B 9643   5.886   2.663   2.393 -0.1677 -2.3243  1.1555
   98SAPC  H13C 9644   6.030   2.696   2.486  0.1311  3.2257  3.0350
   98SAPC   C14 9645   5.987   2.936   2.560  0.7699  0.0893  0.0533
   98SAPC  H14A 9646   5.994   3.044   2.549  2.0803  0.0445  0.2629
   98SAPC  H14B 9647   5.942   2.929   2.658  1.2755  1.5241  0.4199
   98SAPC  H14C 9648   6.089   2.904   2.546  1.2489  0.2392  2.6359
   98SAPC   C15 9649   5.767   2.906   2.483  0.1606  0.4083 -0.1887
   98SAPC  H15A 9650   5.740   2.880   2.584 -1.5149  4.3859  0.5759
   98SAPC  H15B 9651   5.737   3.009   2.474 -1.8592  0.0164  1.3714
   98SAPC  H15C 9652   5.694   2.853   2.423 -0.9804 -2.2484  3.2150
   98SAPC   C11 9653   5.892   3.044   2.257 -0.5731 -0.1460 -0.0278
   98SAPC  H11A 9654   5.784   3.061   2.276 -1.0255 -0.0421 -2.3877
   98SAPC  H11B 9655   5.906   3.046   2.146 -0.7894  2.4783 -0.0784
   98SAPC     P 9656   5.947   3.292   2.276 -0.0375 -0.0834  0.3382
   98SAPC   O13 9657   6.076   3.358   2.242 -0.4005  0.2264 -0.2060
   98SAPC   O14 9658   5.846   3.287   2.167 -0.3432 -1.0083 -0.6158
   98SAPC   O12 9659   5.972   3.145   2.319 -0.1737  0.6370 -0.0193
   98SAPC   O11 9660   5.890   3.375   2.394 -0.1953 -0.2756  0.4148
   98SAPC    C1 9661   5.950   3.374   2.524  0.4516  0.3427  0.2628
   98SAPC    HA 9662   5.977   3.274   2.563  2.4261  1.5287  2.1815
   98SAPC    HB 9663   6.050   3.421   2.516  1.5964 -2.1659 -1.4198
   98SAPC    C2 9664   5.848   3.430   2.623  0.3790 -0.4460  0.2460
   98SAPC    HS 9665   5.756   3.369   2.615  1.5196 -2.3560  1.2439
   98SAPC   O21 9666   5.821   3.566   2.598  0.4624 -0.1140 -0.3295
   98SAPC   C21 9667   5.696   3.601   2.629  0.7325  0.1283  0.6052
   98SAPC   O22 9668   5.615   3.530   2.683  0.0830 -0.2762 -0.3077
   98SAPC   C22 9669   5.677   3.748   2.581  0.2105 -0.2861 -0.7770
   98SAPC   H2R 9670   5.773   3.803   2.595 -0.0354 -0.0073 -0.1314
   98SAPC   H2S 9671   5.662   3.734   2.472 -1.1560 -0.8959 -0.5373
   98SAPC    C3 9672   5.898   3.412   2.767  0.5457 -0.2183 -0.2519
   98SAPC    HX 9673   5.818   3.460   2.828  1.3430 -0.2326  0.8328
   98SAPC    HY 9674   5.993   3.469   2.775  1.2334 -1.4375  0.6889
   98SAPC   O31 9675   5.914   3.270   2.786  0.5360 -0.3916  0.5745
   98SAPC   C31 9676   5.977   3.250   2.902  0.1320 -0.4338  0.1481
   98SAPC   O32 9677   6.002   3.341   2.979 -0.0420  0.3951 -0.2070
   98SAPC   C32 9678   6.009   3.095   2.928  0.5361 -0.3163 -0.5959
   98SAPC   H2X 9679   6.090   3.065   2.858  2.5391  2.1566  0.4965
   98SAPC   H2Y 9680   5.913   3.048   2.899  0.9148 -0.5797 -1.4532
   98SAPC   C23 9681   5.549   3.815   2.628 -0.1531  0.6830 -0.0110
   98SAPC   H3R 9682   5.471   3.739   2.608 -0.2056  0.6352  0.3752
   98SAPC   H3S 9683   5.530   3.908   2.570 -0.6388  0.1662 -0.6865
   98SAPC   C24 9684   5.540   3.854   2.775  0.0463 -0.3140 -0.0873
   98SAPC   H4R 9685   5.603   3.942   2.798 -0.3695 -0.5913  2.3335
   98SAPC   H4S 9686   5.575   3.767   2.833 -0.1628 -0.4398 -0.1486
   98SAPC   C25 9687   5.402   3.878   2.820 -0.7569 -0.0753 -0.1912
   98SAPC   H5R 9688   5.341   3.931   2.745 -2.9139  0.0387  1.5558
   98SAPC   C26 9689   5.357   3.861   2.945 -0.5511  0.1611 -0.1756
   98SAPC   H6R 9690   5.253   3.886   2.969 -0.7015 -1.2132  0.6904
   98SAPC   C27 9691   5.442   3.801   3.060  0.0474 -0.5834 -0.7647
   98SAPC   H7R 9692   5.433   3.863   3.152 -0.5203 -1.7408 -0.0158
   98SAPC   H7S 9693   5.549   3.797   3.029  0.7469 -1.1441  1.5471
   98SAPC   C28 9694   5.404   3.658   3.092 -0.0508 -0.6391 -0.3185
   98SAPC   H8R 9695   5.389   3.610   2.994  0.2444  1.7823 -1.6356
   98SAPC   C29 9696   5.401   3.599   3.210 -0.5375 -0.4415 -0.3821
   98SAPC   H9R 9697   5.382   3.492   3.223 -2.1349  0.0238  1.7838
   98SAPC  C210 9698   5.421   3.662   3.349  0.9010 -0.2766  1.1232
   98SAPC  H10R 9699   5.528   3.688   3.352  0.7174  0.4810  1.2508
   98SAPC  H10S 9700   5.415   3.576   3.419 -0.3389 -0.0628  1.3124
   98SAPC  C211 9701   5.331   3.781   3.392 -0.2203  0.4807 -0.5488
   98SAPC  H11R 9702   5.260   3.819   3.316 -1.5321  1.2634  1.0022
   98SAPC  C212 9703   5.347   3.837   3.512 -0.0985 -0.1565  0.3979
   98SAPC  H12R 9704   5.267   3.909   3.536  0.7762  1.2475 -0.7305
   98SAPC  C213 9705   5.432   3.808   3.634  0.6781 -0.5252 -0.0319
   98SAPC  H13R 9706   5.440   3.698   3.649  3.5585 -0.3905  0.0214
   98SAPC  H13S 9707   5.388   3.844   3.729 -2.1300  0.1492 -1.4747
   98SAPC  C214 9708   5.569   3.860   3.615  0.2520  1.1406 -1.0297
   98SAPC  H14R 9709   5.582   3.924   3.527  1.5920  1.8610 -0.3478
   98SAPC  C215 9710   5.670   3.853   3.711  0.0778  0.3675 -0.4160
   98SAPC  H15R 9711   5.774   3.872   3.683  1.3692 -3.0415  1.4394
   98SAPC  C216 9712   5.666   3.795   3.849 -0.2709  0.1222 -0.7276
   98SAPC  H16R 9713   5.586   3.718   3.850  0.4010 -0.5912 -0.8980
   98SAPC  H16S 9714   5.642   3.870   3.927 -0.4697 -0.2160 -0.4607
   98SAPC  C217 9715   5.801   3.731   3.900  0.0833 -0.0939  0.7170
   98SAPC  H17R 9716   5.836   3.645   3.839 -1.2076  0.4332 -0.8625
   98SAPC  H17S 9717   5.773   3.684   3.997 -0.6816 -1.8207 -0.2887
   98SAPC  C218 9718   5.907   3.831   3.920 -0.4389 -0.1532  0.4565
   98SAPC  H18R 9719   5.878   3.894   4.007 -0.8222  1.5848 -0.8624
   98SAPC  H18S 9720   5.910   3.914   3.846 -0.5804 -0.0481  0.5670
   98SAPC  C219 9721   6.053   3.772   3.935  0.2764  0.0839 -0.4491
   98SAPC  H19R 9722   6.040   3.701   4.020 -2.0315 -0.5716 -1.2916
   98SAPC  H19S 9723   6.111   3.860   3.969 -1.4746  0.9006  0.5292
   98SAPC  C220 9724   6.114   3.711   3.804  0.1343 -0.6170 -0.0715
   98SAPC  H20R 9725   6.222   3.689   3.811  0.7569  1.9186 -0.7432
   98SAPC  H20S 9726   6.110   3.793   3.729 -1.8971 -0.4360  0.1810
   98SAPC  H20T 9727   6.053   3.625   3.770  1.0628 -1.6493  0.7861
   98SAPC   C33 9728   6.056   3.059   3.069  0.0177 -0.8700  0.0954
   98SAPC   H3X 9729   5.995   3.130   3.130 -1.5871 -1.4825 -0.7605
   98SAPC   H3Y 9730   6.161   3.086   3.094 -0.5541  2.2953 -0.4700
   98SAPC   C34 9731   6.024   2.918   3.126  0.2616 -1.0432  0.2157
   98SAPC   H4X 9732   6.014   2.853   3.036  2.1458  1.0622 -1.6416
   98SAPC   H4Y 9733   5.935   2.911   3.192  0.0465 -1.1056 -0.0759
   98SAPC   C35 9734   6.139   2.862   3.211  0.2507  0.4995  0.7370
   98SAPC   H5X 9735   6.136   2.924   3.302 -1.0266  2.2504 -0.4252
   98SAPC   H5Y 9736   6.232   2.877   3.152 -0.8990  1.8374 -0.8532
   98SAPC   C36 9737   6.137   2.718   3.246  1.0820  0.7085  0.0340
   98SAPC   H6X 9738   6.119   2.649   3.160 -1.5416 -1.0484  1.8377
   98SAPC   H6Y 9739   6.044   2.702   3.304  0.6574 -0.5353 -0.9205
   98SAPC   C37 9740   6.258   2.683   3.320 -0.2844  0.3663 -0.0783
   98SAPC   H7X 9741   6.272   2.753   3.405 -0.6369  0.0848  0.2155
   98SAPC   H7Y 9742   6.355   2.702   3.268  0.3078 -0.2487  0.7662
   98SAPC   C38 9743   6.264   2.538   3.369  0.1347 -0.6493  0.2815
   98SAPC   H8X 9744   6.365   2.518   3.411  1.1701 -0.9363 -2.1935
   98SAPC   H8Y 9745   6.257   2.470   3.282  4.1981 -2.2194  0.9562
   98SAPC   C39 9746   6.154   2.492   3.470  0.5815 -0.0103 -0.1081
   98SAPC   H9X 9747   6.172   2.385   3.495  1.6016  0.2670  0.3907
   98SAPC   H9Y 9748   6.054   2.498   3.423  0.5133  0.8372  0.1193
   98SAPC  C310 9749   6.166   2.572   3.602  0.5536  0.5955 -0.2931
   98SAPC  H10X 9750   6.200   2.674   3.576  0.3905  0.3566 -1.5466
   98SAPC  H10Y 9751   6.263   2.537   3.643  1.4559  2.1350 -1.0098
   98SAPC  C311 9752   6.038   2.556   3.679  0.0462  0.1849 -0.0114
   98SAPC  H11X 9753   6.021   2.453   3.718  0.5485 -0.0597 -0.4115
   98SAPC  H11Y 9754   5.960   2.575   3.603  0.9392 -0.4021 -1.1219
   98SAPC  C312 9755   6.034   2.663   3.796 -0.2290  0.6425 -1.3265
   98SAPC  H12X 9756   6.105   2.634   3.876  0.0615 -0.2236 -1.8831
   98SAPC  H12Y 9757   5.931   2.666   3.839 -0.0892  2.5867 -1.0510
   98SAPC  C313 9758   6.079   2.802   3.758  0.2834  0.0162 -0.5796
   98SAPC  H13X 9759   6.015   2.842   3.676 -0.9081 -1.6162 -0.4987
   98SAPC  H13Y 9760   6.183   2.793   3.720  0.4880 -1.5636  0.2889
   98SAPC  C314 9761   6.072   2.902   3.874 -0.6327  0.2631  0.2356
   98SAPC  H14X 9762   6.125   2.861   3.962  0.6338  0.3435 -0.4636
   98SAPC  H14Y 9763   5.968   2.923   3.907 -0.7170  0.6125 -0.2474
   98SAPC  C315 9764   6.127   3.045   3.836  0.0215  0.1829 -0.0137
   98SAPC  H15X 9765   6.066   3.087   3.753 -2.9108 -2.2590  0.7332
   98SAPC  H15Y 9766   6.236   3.049   3.818 -0.0955  0.6031 -0.6532
   98SAPC  C316 9767   6.110   3.147   3.947 -0.0858 -0.5159  0.3600
   98SAPC  H16X 9768   6.155   3.122   4.046 -0.8394  0.4955  0.9753
   98SAPC  H16Y 9769   6.000   3.153   3.963  0.0228  2.3474  0.4930
   98SAPC  C317 9770   6.154   3.285   3.902 -0.1689 -0.0047 -0.7422
   98SAPC  H17X 9771   6.133   3.371   3.970  1.8078  0.0342 -0.1195
   98SAPC  H17Y 9772   6.115   3.305   3.801 -1.6649 -2.2275 -0.6787
   98SAPC  C318 9773   6.303   3.293   3.876  0.4884 -0.1771  0.4059
   98SAPC  H18X 9774   6.330   3.391   3.832 -1.5158 -0.1736 -0.9067
   98SAPC  H18Y 9775   6.335   3.216   3.803 -0.5082  0.6365 -0.9245
   98SAPC  H18Z 9776   6.362   3.269   3.968  0.6471  0.4030  0.4576
   99SAPC     N 9777   1.906   0.688   1.987 -0.0402 -0.0522  0.5237
   99SAPC   C12 9778   1.881   0.578   2.090  0.1832  0.0983 -0.0928
   99SAPC  H12A 9779   1.946   0.494   2.074  1.4958  1.3389 -1.4799
   99SAPC  H12B 9780   1.776   0.550   2.084  0.3905 -0.4671 -1.3409
   99SAPC   C13 9781   1.851   0.664   1.846  0.2514 -0.2147 -0.9656
   99SAPC  H13A 9782   1.898   0.589   1.786 -0.5927 -3.3288  1.9218
   99SAPC  H13B 9783   1.744   0.646   1.843 -0.0433  0.9600  0.6629
   99SAPC  H13C 9784   1.869   0.758   1.796 -1.1862  0.5262 -0.1986
   99SAPC   C14 9785   1.870   0.823   2.043  0.4497 -0.0229  0.2282
   99SAPC  H14A 9786   1.765   0.825   2.067 -0.6875 -2.0781 -3.6691
   99SAPC  H14B 9787   1.926   0.858   2.128 -0.9405  2.7840  0.1389
   99SAPC  H14C 9788   1.882   0.901   1.969 -0.1634 -1.2535 -1.2296
   99SAPC   C15 9789   2.057   0.699   1.967 -0.1131  0.2770  0.0695
   99SAPC  H15A 9790   2.071   0.621   1.893 -1.5237 -0.2293  0.3127
   99SAPC  H15B 9791   2.104   0.790   1.933  1.6429  0.7910  3.5028
   99SAPC  H15C 9792   2.109   0.674   2.058 -0.9517  0.0092  0.4780
   99SAPC   C11 9793   1.902   0.601   2.242 -0.8366 -0.2490  0.6870
   99SAPC  H11A 9794   1.861   0.511   2.292 -0.7762 -0.0947  1.0175
   99SAPC  H11B 9795   1.846   0.687   2.284 -0.7484 -0.3428  1.0013
   99SAPC     P 9796   2.109   0.720   2.346 -0.0259 -0.0365  0.1058
   99SAPC   O13 9797   2.245   0.681   2.381  0.0489 -0.0331  0.1787
   99SAPC   O14 9798   2.097   0.833   2.250 -0.2095  0.9527 -0.3027
   99SAPC   O12 9799   2.044   0.601   2.276  0.2588  0.2019  0.2712
   99SAPC   O11 9800   2.032   0.757   2.482  0.0053  0.5240 -0.1288
   99SAPC    C1 9801   2.072   0.697   2.609 -0.0147 -0.3977  0.5652
   99SAPC    HA 9802   2.176   0.730   2.633  0.6310 -0.2352 -2.1291
   99SAPC    HB 9803   2.011   0.728   2.697  1.6970 -0.4543  1.8222
   99SAPC    C2 9804   2.067   0.544   2.621  0.8289 -0.0081 -0.2142
   99SAPC    HS 9805   2.118   0.507   2.530  0.8474 -0.5368  0.0033
   99SAPC   O21 9806   1.925   0.510   2.620 -0.0834 -0.4364 -0.0089
   99SAPC   C21 9807   1.889   0.390   2.616 -0.0258 -0.3166  0.3196
   99SAPC   O22 9808   1.965   0.289   2.614  0.1575 -0.7291  0.2363
   99SAPC   C22 9809   1.734   0.395   2.618 -0.0220  0.1997 -0.3423
   99SAPC   H2R 9810   1.707   0.442   2.715  1.0750 -0.3847  0.2763
   99SAPC   H2S 9811   1.699   0.465   2.539  1.5001 -0.1392 -1.3550
   99SAPC    C3 9812   2.142   0.503   2.748  0.2747 -0.0559  0.3521
   99SAPC    HX 9813   2.249   0.531   2.751  0.5387 -1.0932  0.8408
   99SAPC    HY 9814   2.149   0.393   2.743 -1.7750 -0.1848 -1.6425
   99SAPC   O31 9815   2.073   0.545   2.866 -0.1327 -0.4226  0.6942
   99SAPC   C31 9816   2.031   0.452   2.950 -0.5703  0.4218 -0.6716
   99SAPC   O32 9817   2.044   0.332   2.934  0.2018 -0.1298  0.2514
   99SAPC   C32 9818   1.986   0.531   3.067 -0.1757  0.2773  0.4317
   99SAPC   H2X 9819   1.888   0.578   3.043  0.7736  0.8764 -2.7638
   99SAPC   H2Y 9820   2.056   0.616   3.078  0.4972 -0.0110 -1.2361
   99SAPC   C23 9821   1.657   0.263   2.614  0.0222  0.9626  0.2078
   99SAPC   H3R 9822   1.714   0.187   2.556 -0.6095  2.0430 -1.9297
   99SAPC   H3S 9823   1.568   0.282   2.550 -0.2195 -0.0299  0.2428
   99SAPC   C24 9824   1.612   0.205   2.757  0.1703 -0.5927  0.1765
   99SAPC   H4R 9825   1.686   0.239   2.833 -1.0054  1.4093  0.5055
   99SAPC   H4S 9826   1.625   0.095   2.757 -0.0403 -0.6800  2.8106
   99SAPC   C25 9827   1.467   0.234   2.784 -0.0619  0.2945 -0.2451
   99SAPC   H5R 9828   1.397   0.227   2.699  1.1012  0.5181 -1.2538
   99SAPC   C26 9829   1.414   0.248   2.911 -0.6697 -0.4238 -0.3838
   99SAPC   H6R 9830   1.307   0.271   2.928 -0.2399  1.4537  0.0163
   99SAPC   C27 9831   1.496   0.271   3.028 -0.2208 -0.5659  0.2980
   99SAPC   H7R 9832   1.443   0.317   3.114 -0.2072 -1.5757  0.8635
   99SAPC   H7S 9833   1.580   0.341   3.007 -0.8561  0.5866  1.3945
   99SAPC   C28 9834   1.546   0.150   3.089 -0.0595  0.2694  0.2253
   99SAPC   H8R 9835   1.594   0.085   3.014  0.0343  1.4600 -0.7757
   99SAPC   C29 9836   1.545   0.103   3.215  0.1010  0.3261  0.0615
   99SAPC   H9R 9837   1.570  -0.003   3.231 -2.8741 -0.2691  1.4106
   99SAPC  C210 9838   1.486   0.180   3.332 -0.0197  0.4978  0.1878
   99SAPC  H10R 9839   1.378   0.151   3.336  0.4907 -1.9345 -1.1800
   99SAPC  H10S 9840   1.487   0.289   3.311 -1.5747  0.4867 -0.0875
   99SAPC  C211 9841   1.558   0.153   3.461  0.3741  0.2943 -0.0805
   99SAPC  H11R 9842   1.664   0.128   3.451 -0.1259 -1.8805 -0.5681
   99SAPC  C212 9843   1.500   0.170   3.587  0.3826 -0.4132 -0.5334
   99SAPC  H12R 9844   1.565   0.152   3.674 -0.4881 -2.3051 -0.2194
   99SAPC  C213 9845   1.358   0.212   3.616  0.0917 -0.3081 -0.1388
   99SAPC  H13R 9846   1.299   0.243   3.527 -2.1712  0.5278  1.5296
   99SAPC  H13S 9847   1.370   0.303   3.678 -1.4245  0.5840 -1.0839
   99SAPC  C214 9848   1.274   0.101   3.676 -0.5867 -0.0391 -0.8875
   99SAPC  H14R 9849   1.210   0.041   3.609 -0.9232 -0.2236 -0.4086
   99SAPC  C215 9850   1.275   0.054   3.802 -0.0603  0.0822 -0.1454
   99SAPC  H15R 9851   1.207  -0.028   3.828 -1.6648  1.4788  0.1743
   99SAPC  C216 9852   1.359   0.110   3.916  0.0942 -0.0719 -0.9894
   99SAPC  H16R 9853   1.455   0.159   3.887  0.8238  0.3707  1.8855
   99SAPC  H16S 9854   1.368   0.024   3.986 -0.1749  1.1936  0.6622
   99SAPC  C217 9855   1.276   0.214   3.997 -0.3071  0.3715  0.3700
   99SAPC  H17R 9856   1.235   0.286   3.924  0.7055 -1.0010 -1.6265
   99SAPC  H17S 9857   1.343   0.262   4.072  0.0991 -0.4593  0.5491
   99SAPC  C218 9858   1.147   0.167   4.071  0.0766  0.3359  0.2178
   99SAPC  H18R 9859   1.168   0.116   4.167 -0.0515  2.2789  1.3222
   99SAPC  H18S 9860   1.090   0.102   4.001 -0.6979  2.0721 -0.8170
   99SAPC  C219 9861   1.053   0.287   4.097  0.0658 -1.0538  0.2449
   99SAPC  H19R 9862   1.022   0.314   3.994 -0.0997 -3.0488 -0.2732
   99SAPC  H19S 9863   1.118   0.362   4.145  0.0498 -2.2061  2.1990
   99SAPC  C220 9864   0.935   0.239   4.183  0.0175 -0.8000 -0.2303
   99SAPC  H20R 9865   0.972   0.190   4.275  0.8831 -2.0769 -1.2106
   99SAPC  H20S 9866   0.876   0.162   4.128 -3.7118  1.5946  0.0550
   99SAPC  H20T 9867   0.866   0.317   4.220  0.6160 -1.3734  2.2442
   99SAPC   C33 9868   1.997   0.454   3.199 -0.0931  0.0321 -0.4131
   99SAPC   H3X 9869   2.037   0.520   3.278 -0.1788 -1.4451  0.9203
   99SAPC   H3Y 9870   2.067   0.367   3.195  0.3152  0.2615  1.1826
   99SAPC   C34 9871   1.865   0.380   3.244  0.2741 -0.6842 -0.1943
   99SAPC   H4X 9872   1.848   0.298   3.170 -2.8605  0.4915 -0.9528
   99SAPC   H4Y 9873   1.776   0.446   3.237  0.9853  0.4612  1.1285
   99SAPC   C35 9874   1.874   0.339   3.398 -0.4099 -0.2279 -0.1123
   99SAPC   H5X 9875   1.964   0.277   3.416 -1.9831 -2.0287  2.2002
   99SAPC   H5Y 9876   1.788   0.270   3.412  0.4690 -1.6421 -1.3752
   99SAPC   C36 9877   1.868   0.464   3.485 -0.1571  0.6111 -0.1193
   99SAPC   H6X 9878   1.816   0.541   3.425 -3.1664 -0.3562  1.0811
   99SAPC   H6Y 9879   1.972   0.502   3.495  0.3582 -0.9804  1.1076
   99SAPC   C37 9880   1.803   0.444   3.626  0.4834 -0.0665 -0.1213
   99SAPC   H7X 9881   1.856   0.374   3.694 -1.6559 -1.0595  0.6496
   99SAPC   H7Y 9882   1.696   0.412   3.619  0.2320  0.3915  1.2468
   99SAPC   C38 9883   1.771   0.579   3.703 -0.1138  0.3541 -0.5115
   99SAPC   H8X 9884   1.720   0.544   3.795  3.1031 -2.1478  0.5255
   99SAPC   H8Y 9885   1.703   0.626   3.629  0.3809  0.6155 -0.8048
   99SAPC   C39 9886   1.890   0.665   3.738  0.4045 -0.1544  0.3047
   99SAPC   H9X 9887   1.951   0.695   3.650 -0.1915 -1.1844 -0.4857
   99SAPC   H9Y 9888   1.947   0.600   3.808 -0.8616 -0.2066  1.3284
   99SAPC  C310 9889   1.846   0.797   3.817 -0.1161 -0.1047 -0.1723
   99SAPC  H10X 9890   1.738   0.786   3.836  0.1587  0.8179  2.2614
   99SAPC  H10Y 9891   1.850   0.886   3.750 -0.2386 -0.1672 -0.2617
   99SAPC  C311 9892   1.900   0.830   3.953  0.1578 -0.2478 -0.1365
   99SAPC  H11X 9893   2.006   0.860   3.938  0.7573 -2.3081 -0.2950
   99SAPC  H11Y 9894   1.881   0.740   4.015 -0.6772 -0.8845 -1.2807
   99SAPC  C312 9895   1.811   0.944   4.008 -0.3134 -0.0365  0.4949
   99SAPC  H12X 9896   1.827   0.938   4.118  1.3410  0.2518  0.3070
   99SAPC  H12Y 9897   1.703   0.934   3.987 -0.6946  1.3835  1.6106
   99SAPC  C313 9898   1.876   1.078   3.966  0.0125 -0.2371  0.5151
   99SAPC  H13X 9899   1.884   1.068   3.855 -2.3287 -1.9763  0.4253
   99SAPC  H13Y 9900   1.981   1.077   4.002 -0.2575 -1.8748  1.3876
   99SAPC  C314 9901   1.801   1.203   4.009 -0.8263  0.3582 -0.4120
   99SAPC  H14X 9902   1.692   1.199   3.985 -1.3719  0.4273  1.7769
   99SAPC  H14Y 9903   1.844   1.291   3.956  1.2136 -1.3138 -1.6236
   99SAPC  C315 9904   1.807   1.237   4.155  0.0925 -0.0747 -0.6266
   99SAPC  H15X 9905   1.915   1.229   4.180  0.5268  0.1944 -2.3557
   99SAPC  H15Y 9906   1.755   1.161   4.218 -0.1484  0.0352 -0.6908
   99SAPC  C316 9907   1.750   1.375   4.190  0.1513  0.4690 -0.5375
   99SAPC  H16X 9908   1.820   1.451   4.150  1.5997  0.0620  1.1192
   99SAPC  H16Y 9909   1.739   1.373   4.300 -1.0784  1.3824 -0.6182
   99SAPC  C317 9910   1.611   1.403   4.131 -0.3201 -0.6234  0.4510
   99SAPC  H17X 9911   1.535   1.327   4.158  0.2717 -1.2896  0.2586
   99SAPC  H17Y 9912   1.607   1.409   4.020 -0.3761 -1.9800  0.3697
   99SAPC  C318 9913   1.559   1.544   4.176 -0.4913 -0.4537 -0.6796
   99SAPC  H18X 9914   1.618   1.626   4.130 -1.8842 -0.3739 -2.4302
   99SAPC  H18Y 9915   1.569   1.550   4.286  0.2524  1.2126 -0.8136
   99SAPC  H18Z 9916   1.452   1.557   4.149 -1.1727  0.0573  2.0055
  100SAPC     N 9917   5.971   5.160   1.828  0.0571  0.4815 -0.1591
  100SAPC   C12 9918   6.113   5.190   1.796  0.0168 -0.1831 -0.2928
  100SAPC  H12A 9919   6.127   5.185   1.689 -1.7476  0.5008 -0.5922
  100SAPC  H12B 9920   6.171   5.113   1.845 -0.2363  0.2865  0.7845
  100SAPC   C13 9921   5.915   5.044   1.750  0.1217  0.5670  0.0705
  100SAPC  H13A 9922   5.965   4.949   1.763 -3.1455 -1.1954  0.8807
  100SAPC  H13B 9923   5.817   5.015   1.784  0.5900 -0.4652  0.6026
  100SAPC  H13C 9924   5.928   5.072   1.647  2.2279  0.5735  0.2901
  100SAPC   C14 9925   5.955   5.120   1.977  0.1158 -0.0000 -0.2348
  100SAPC  H14A 9926   5.859   5.072   1.981 -0.8824  1.9300 -0.3352
  100SAPC  H14B 9927   6.020   5.038   2.006 -0.7958 -1.9235 -3.1893
  100SAPC  H14C 9928   5.954   5.210   2.036 -0.4487  0.7666 -1.3878
  100SAPC   C15 9929   5.887   5.283   1.805 -0.0177 -0.0557 -0.0317
  100SAPC  H15A 9930   5.926   5.375   1.847 -0.1054  0.2324 -0.5766
  100SAPC  H15B 9931   5.880   5.312   1.702 -1.0250  1.1227  0.3463
  100SAPC  H15C 9932   5.784   5.287   1.839  0.3049  3.9638  0.9748
  100SAPC   C11 9933   6.167   5.321   1.864 -0.1625  0.8009  0.2354
  100SAPC  H11A 9934   6.103   5.407   1.835 -2.8529 -1.4168 -0.7954
  100SAPC  H11B 9935   6.269   5.342   1.824  0.6260 -1.5189  0.8544
  100SAPC     P 9936   6.161   5.432   2.097  0.0410 -0.4629 -0.1973
  100SAPC   O13 9937   6.248   5.529   2.021  0.8127 -0.1930 -0.1146
  100SAPC   O14 9938   6.018   5.473   2.099  0.0867  0.6501 -0.1784
  100SAPC   O12 9939   6.167   5.303   2.007 -0.3624 -0.1204 -0.1677
  100SAPC   O11 9940   6.214   5.395   2.242  0.4566  0.7572 -0.5187
  100SAPC    C1 9941   6.236   5.266   2.301 -0.8519 -0.7156  0.1579
  100SAPC    HA 9942   6.155   5.195   2.275  1.4556 -2.9811 -1.2943
  100SAPC    HB 9943   6.327   5.223   2.255 -0.1031  0.6328  0.3322
  100SAPC    C2 9944   6.247   5.263   2.460 -0.2275 -0.7967 -0.1757
  100SAPC    HS 9945   6.148   5.294   2.499 -0.1746  0.0343 -0.6851
  100SAPC   O21 9946   6.350   5.350   2.515 -0.7294  0.0603 -0.3697
  100SAPC   C21 9947   6.339   5.396   2.637 -0.3144 -0.4114 -0.0677
  100SAPC   O22 9948   6.247   5.383   2.713 -0.2611 -0.3676 -0.3589
  100SAPC   C22 9949   6.483   5.455   2.683 -0.1436  0.3897  0.3831
  100SAPC   H2R 9950   6.549   5.453   2.594 -0.6012  0.5301  0.0317
  100SAPC   H2S 9951   6.457   5.561   2.706  0.4044  0.4005  0.9514
  100SAPC    C3 9952   6.295   5.123   2.510 -0.7083  0.2705 -0.0229
  100SAPC    HX 9953   6.400   5.102   2.479  0.1914  2.7509  1.0835
  100SAPC    HY 9954   6.237   5.044   2.457 -1.5206  1.9310 -1.7472
  100SAPC   O31 9955   6.298   5.107   2.655 -0.7405  0.5382 -0.2784
  100SAPC   C31 9956   6.192   5.058   2.701  0.2515  0.4076 -0.1219
  100SAPC   O32 9957   6.096   5.019   2.643  0.5622  0.6273  0.2695
  100SAPC   C32 9958   6.196   5.080   2.861 -0.3849  0.0213  0.1868
  100SAPC   H2X 9959   6.213   5.189   2.877 -0.1345 -0.1796  1.3566
  100SAPC   H2Y 9960   6.284   5.030   2.906  0.4972  0.8296 -0.5722
  100SAPC   C23 9961   6.560   5.373   2.792 -0.3631  0.0661 -0.3896
  100SAPC   H3R 9962   6.658   5.423   2.805  1.6097 -2.9107 -2.3842
  100SAPC   H3S 9963   6.578   5.270   2.754  1.3069  0.5693 -1.0526
  100SAPC   C24 9964   6.501   5.366   2.935 -0.1510  0.4709 -0.0079
  100SAPC   H4R 9965   6.554   5.293   3.000  0.5695 -1.6040 -2.6894
  100SAPC   H4S 9966   6.405   5.310   2.924 -1.0638  2.0683 -0.4397
  100SAPC   C25 9967   6.472   5.495   2.993  0.6630 -0.0509 -0.2686
  100SAPC   H5R 9968   6.427   5.558   2.915 -0.6452 -0.6369 -0.0181
  100SAPC   C26 9969   6.475   5.526   3.128  0.6605 -0.3027  0.6237
  100SAPC   H6R 9970   6.431   5.622   3.159  1.6391  1.4959 -2.9195
  100SAPC   C27 9971   6.524   5.437   3.240  0.1931  0.2575  0.4190
  100SAPC   H7R 9972   6.612   5.488   3.285  0.4485 -0.0493  0.2707
  100SAPC   H7S 9973   6.556   5.336   3.206  0.1624 -0.1449  1.5480
  100SAPC   C28 9974   6.417   5.391   3.334 -0.0530 -0.0393  0.3632
  100SAPC   H8R 9975   6.343   5.320   3.294 -0.4289  0.6741 -0.2395
  100SAPC   C29 9976   6.410   5.431   3.465  0.9024  0.4633  0.1380
  100SAPC   H9R 9977   6.316   5.404   3.516  2.4092 -2.2448  1.7629
  100SAPC  C210 9978   6.492   5.534   3.528 -0.5385 -0.1537 -0.0014
  100SAPC  H10R 9979   6.560   5.582   3.454 -1.7371  0.2324 -0.8867
  100SAPC  H10S 9980   6.553   5.487   3.608 -1.5846 -2.5841 -0.5522
  100SAPC  C211 9981   6.399   5.640   3.586 -0.6887  0.6149 -0.1327
  100SAPC  H11R 9982   6.362   5.703   3.504 -1.2184 -1.0821 -1.2607
  100SAPC  C212 9983   6.354   5.666   3.715  0.4461 -0.3666  0.6036
  100SAPC  H12R 9984   6.281   5.748   3.722  0.9517  0.2284 -0.7177
  100SAPC  C213 9985   6.398   5.590   3.840  0.2524  0.2967 -0.9077
  100SAPC  H13R 9986   6.489   5.531   3.817  0.0164 -0.8281  0.8923
  100SAPC  H13S 9987   6.314   5.522   3.865  1.4910 -0.2086  2.2879
  100SAPC  C214 9988   6.424   5.695   3.942  0.7644 -0.8513 -0.2012
  100SAPC  H14R 9989   6.484   5.779   3.903 -0.5524 -1.0401 -2.8496
  100SAPC  C215 9990   6.397   5.687   4.075  0.7540  0.0558  0.5531
  100SAPC  H15R 9991   6.436   5.770   4.135 -0.8402  2.0854 -1.0467
  100SAPC  C216 9992   6.330   5.565   4.143 -0.3228  0.3636  0.6614
  100SAPC  H16R 9993   6.280   5.493   4.076  0.5111 -0.7510  1.1901
  100SAPC  H16S 9994   6.252   5.598   4.215  0.1310  2.1154  0.4024
  100SAPC  C217 9995   6.432   5.492   4.237  1.0894 -0.2332 -0.0750
  100SAPC  H17R 9996   6.376   5.427   4.307 -0.2007  0.5259 -0.3746
  100SAPC  H17S 9997   6.495   5.554   4.305  1.1398 -2.0833  1.6668
  100SAPC  C218 9998   6.518   5.389   4.155  0.0348 -0.2242  0.1861
  100SAPC  H18R 9999   6.587   5.448   4.091 -1.5035 -0.8554 -2.1497
  100SAPC  H18S10000   6.451   5.338   4.083  1.6368 -2.1694 -0.0467
  100SAPC  C21910001   6.581   5.280   4.239 -0.0409 -0.0399  0.7221
  100SAPC  H19R10002   6.627   5.199   4.177 -1.0803 -1.2522  1.4814
  100SAPC  H19S10003   6.502   5.234   4.302 -1.3411  2.8581  1.3503
  100SAPC  C22010004   6.691   5.328   4.339  0.1661 -0.0280  0.5304
  100SAPC  H20R10005   6.663   5.385   4.430  0.0234 -0.8659  1.0278
  100SAPC  H20S10006   6.767   5.387   4.285 -2.3064  1.5206 -1.4759
  100SAPC  H20T10007   6.751   5.237   4.361 -2.1998 -1.1517  2.9692
  100SAPC   C3310008   6.072   5.039   2.933  0.5264  0.3756  0.1843
  100SAPC   H3X10009   6.039   4.935   2.912 -0.7393  0.4444  1.6066
  100SAPC   H3Y10010   5.981   5.089   2.891 -0.4732 -1.1723  0.4068
  100SAPC   C3410011   6.089   5.052   3.088 -0.3835  0.3654  0.3299
  100SAPC   H4X10012   6.107   5.159   3.109  0.2357 -0.0285  1.9277
  100SAPC   H4Y10013   6.182   4.993   3.101 -1.8869 -2.6017 -1.1305
  100SAPC   C3510014   5.976   4.994   3.172 -0.2101  0.0847  0.1584
  100SAPC   H5X10015   5.927   4.911   3.118  0.4680  0.7071 -1.4542
  100SAPC   H5Y10016   5.902   5.076   3.181  0.1607  0.2655  2.0726
  100SAPC   C3610017   6.012   4.956   3.313  0.0866  0.2399  0.1852
  100SAPC   H6X10018   6.067   4.860   3.307 -1.6360 -0.9033  1.6406
  100SAPC   H6Y10019   5.916   4.937   3.364  0.5169 -0.7262  0.6672
  100SAPC   C3710020   6.097   5.065   3.369 -0.3135  0.1635  0.5955
  100SAPC   H7X10021   6.038   5.159   3.373  2.0833  1.7185  1.0432
  100SAPC   H7Y10022   6.187   5.072   3.304 -0.8573  0.0610 -0.1898
  100SAPC   C3810023   6.135   5.046   3.517  0.6136  0.0978  0.0147
  100SAPC   H8X10024   6.187   5.137   3.552 -0.3236  0.7250 -0.1758
  100SAPC   H8Y10025   6.201   4.956   3.523 -0.8883 -1.0100  0.6482
  100SAPC   C3910026   6.008   5.025   3.596  0.2487 -0.4505 -0.1765
  100SAPC   H9X10027   5.970   4.922   3.579 -0.4839 -0.2946  0.4706
  100SAPC   H9Y10028   5.936   5.097   3.551  0.7770 -0.0147 -0.3413
  100SAPC  C31010029   6.029   5.038   3.752  0.2436 -0.7413  0.3452
  100SAPC  H10X10030   5.937   5.072   3.805  1.2912  1.4966  0.8677
  100SAPC  H10Y10031   6.102   5.119   3.772 -0.2940 -0.1022 -0.1899
  100SAPC  C31110032   6.062   4.906   3.818 -0.3531  0.4967 -0.1539
  100SAPC  H11X10033   6.140   4.861   3.754 -0.4645  0.8850 -0.5688
  100SAPC  H11Y10034   5.972   4.844   3.799  0.8143 -1.1861 -0.4598
  100SAPC  C31210035   6.087   4.910   3.966 -0.0719 -1.0611  0.6755
  100SAPC  H12X10036   6.059   4.813   4.013 -0.3168 -1.7800 -0.8981
  100SAPC  H12Y10037   6.036   4.997   4.014 -1.4644 -1.0669 -0.6944
  100SAPC  C31310038   6.238   4.923   3.995  0.2691  0.2140  0.0993
  100SAPC  H13X10039   6.276   5.019   3.953  0.3157 -0.2355 -0.9214
  100SAPC  H13Y10040   6.290   4.843   3.937 -0.2380 -0.5833  0.7260
  100SAPC  C31410041   6.292   4.916   4.137  0.1591  0.0959 -0.4440
  100SAPC  H14X10042   6.272   4.817   4.184  0.7118 -0.1528 -0.7335
  100SAPC  H14Y10043   6.240   4.994   4.196 -0.8122 -0.1344 -0.9702
  100SAPC  C31510044   6.444   4.932   4.152  0.1419 -0.0032 -0.2653
  100SAPC  H15X10045   6.467   5.037   4.124 -1.0156  0.2570 -0.2862
  100SAPC  H15Y10046   6.479   4.856   4.079 -2.0176 -1.5063  0.1548
  100SAPC  C31610047   6.488   4.910   4.294 -0.0461 -0.2370  0.6144
  100SAPC  H16X10048   6.459   4.995   4.360  1.3673  0.8275 -0.0890
  100SAPC  H16Y10049   6.599   4.904   4.293 -0.1224 -2.8896  0.1577
  100SAPC  C31710050   6.449   4.777   4.362 -0.1438  0.2696  0.2809
  100SAPC  H17X10051   6.475   4.700   4.286 -1.2587 -0.1887  0.3499
  100SAPC  H17Y10052   6.342   4.765   4.386 -0.2853 -0.7859 -0.7573
  100SAPC  C31810053   6.531   4.748   4.486  0.2888  0.4863 -0.0352
  100SAPC  H18X10054   6.632   4.715   4.453  1.3740  1.9846  1.5710
  100SAPC  H18Y10055   6.489   4.670   4.552 -0.8334  0.3711 -0.8581
  100SAPC  H18Z10056   6.550   4.838   4.549  1.5765  2.9998 -3.6524
  101OSM      N10057   5.593   4.123   6.566 -0.5065  0.1048 -0.8343
  101OSM    C1510058   5.451   4.103   6.612 -0.1637 -0.8050 -0.4075
  101OSM   H15A10059   5.398   4.033   6.550 -2.6633 -1.8098  2.6220
  101OSM   H15B10060   5.402   4.200   6.616 -0.5506 -0.9317 -1.7427
  101OSM   H15C10061   5.449   4.063   6.712  2.3504  0.2577  0.1629
  101OSM    C1410062   5.667   4.185   6.684  0.2406  0.2577  0.3587
  101OSM   H14A10063   5.627   4.274   6.729  1.3437  0.3613  1.1935
  101OSM   H14B10064   5.772   4.200   6.659  0.7960 -0.7629  1.9367
  101OSM   H14C10065   5.674   4.116   6.766  0.8170  0.7604  0.7427
  101OSM    C1310066   5.658   4.000   6.523  0.4409 -0.3073  0.2329
  101OSM   H13A10067   5.756   4.023   6.484  0.0902 -1.0202 -1.1310
  101OSM   H13B10068   5.605   3.963   6.436  0.1435  3.0746 -1.2030
  101OSM   H13C10069   5.664   3.930   6.604  2.0450 -0.5096 -0.0133
  101OSM    C1210070   5.588   4.223   6.447  0.3732 -1.2403  0.0565
  101OSM   H12A10071   5.524   4.306   6.473 -2.2187 -3.1360  0.2242
  101OSM   H12B10072   5.523   4.178   6.374 -2.2882 -1.8702  2.5799
  101OSM    C1110073   5.722   4.254   6.372  0.1813  0.7544  0.0869
  101OSM   H11A10074   5.705   4.327   6.290  0.8940  0.6915 -0.1261
  101OSM   H11B10075   5.749   4.155   6.328 -0.7255  1.4091 -2.1025
  101OSM      P10076   5.875   4.428   6.495  0.0123  0.0133  0.1479
  101OSM    O1310077   5.819   4.458   6.629 -0.6426  0.0487  0.6396
  101OSM    O1410078   6.022   4.428   6.490 -0.3534 -0.4847  0.1194
  101OSM    O1110079   5.807   4.528   6.397 -0.5524  0.0651  0.1888
  101OSM    O1210080   5.824   4.289   6.458  0.6615 -0.2820 -0.3172
  101OSM    C1S10081   5.881   4.578   6.285 -0.2416 -0.5059 -1.0548
  101OSM    H1S10082   5.875   4.504   6.202  0.1771 -0.2878 -1.2866
  101OSM    H1T10083   5.990   4.586   6.306 -0.2479 -2.5630 -0.0065
  101OSM     NF10084   5.911   4.757   6.109  0.4537 -0.1043 -0.4716
  101OSM    HNF10085   5.970   4.837   6.121 -1.8788  1.6714 -0.1572
  101OSM    C2S10086   5.834   4.712   6.229  0.4378 -0.7250 -0.1891
  101OSM    H2S10087   5.724   4.711   6.214  0.2905 -0.8122  0.8083
  101OSM    C3S10088   5.850   4.824   6.342 -0.2537 -0.3599  0.2784
  101OSM    H3S10089   5.960   4.834   6.357 -0.0706  1.0429 -1.5428
  101OSM     O310090   5.791   4.793   6.467 -0.3147  1.1908 -0.4748
  101OSM    HO310091   5.761   4.702   6.468 -0.9465  1.3457 -2.3263
  101OSM    C4S10092   5.799   4.961   6.283  0.6410 -0.1071  0.8843
  101OSM    H4S10093   5.886   5.021   6.254 -1.5083  1.3398 -3.3925
  101OSM    C5S10094   5.676   5.012   6.264 -0.8674  0.4963 -0.9561
  101OSM    H5S10095   5.599   4.943   6.299  0.7909 -0.8070  0.2609
  101OSM    C6S10096   5.643   5.137   6.193 -0.4135  0.0009  0.2481
  101OSM    H6S10097   5.729   5.207   6.190  0.1143 -0.6611 -0.3302
  101OSM    H6T10098   5.563   5.186   6.252 -1.7466 -1.4464 -0.2814
  101OSM    C7S10099   5.585   5.125   6.048 -0.1257 -0.2305 -0.0597
  101OSM    H7S10100   5.540   5.222   6.019  0.0196  0.0652  0.6807
  101OSM    H7T10101   5.507   5.046   6.040 -1.9483  1.6152 -1.6246
  101OSM    C8S10102   5.689   5.084   5.943 -0.4800 -0.9062 -0.0161
  101OSM    H8S10103   5.714   4.976   5.951 -2.3865 -1.5290 -1.7739
  101OSM    H8T10104   5.783   5.139   5.969 -1.4215  1.6400 -1.6367
  101OSM    C9S10105   5.647   5.123   5.804  0.2719 -0.4661  0.5992
  101OSM    H9S10106   5.612   5.229   5.804  1.0159 -0.2064 -0.1439
  101OSM    H9T10107   5.567   5.052   5.775  0.4177 -0.9141  1.2679
  101OSM   C10S10108   5.754   5.123   5.693  0.5404 -0.2979  0.1465
  101OSM   H10S10109   5.804   5.025   5.707 -1.1642 -1.5624 -1.9276
  101OSM   H10T10110   5.829   5.203   5.706 -0.2766  0.1778  2.2045
  101OSM   C11S10111   5.700   5.115   5.552  0.1998  0.5518 -0.1127
  101OSM   H11S10112   5.660   5.216   5.530 -0.0513  0.4570 -0.0993
  101OSM   H11T10113   5.614   5.045   5.546 -1.2170  2.2225 -0.2122
  101OSM   C12S10114   5.808   5.082   5.446  0.3263  0.1342 -0.5816
  101OSM   H12S10115   5.827   4.973   5.460  0.1952  0.1985  0.1287
  101OSM   H12T10116   5.894   5.148   5.474 -0.0627  0.2953  0.2568
  101OSM   C13S10117   5.757   5.113   5.300  0.7876  0.0479 -0.1119
  101OSM   H13S10118   5.701   5.209   5.295 -0.0361 -0.4424 -0.5997
  101OSM   H13T10119   5.683   5.037   5.268  1.6910 -0.1496 -1.8292
  101OSM   C14S10120   5.879   5.120   5.197 -0.3960 -0.2771 -0.4287
  101OSM   H14S10121   5.932   5.023   5.208  0.5286  0.3141  0.4779
  101OSM   H14T10122   5.947   5.204   5.224 -1.0331 -0.2759  1.3156
  101OSM   C15S10123   5.826   5.140   5.054  0.0714 -0.5078  0.3557
  101OSM   H15S10124   5.751   5.221   5.057  0.6729  0.0723 -0.1194
  101OSM   H15T10125   5.764   5.053   5.022 -1.5421  0.4907  0.6571
  101OSM   C16S10126   5.937   5.166   4.950  0.2130  0.5362 -0.6022
  101OSM   H16S10127   6.021   5.094   4.959  1.8866  2.2871 -1.4378
  101OSM   H16T10128   5.981   5.262   4.983  2.1923 -0.9167  1.3027
  101OSM   C17S10129   5.895   5.184   4.804  0.2677 -0.0540 -1.3467
  101OSM   H17S10130   5.836   5.095   4.772 -0.1206 -0.4510  0.3608
  101OSM   H17T10131   5.989   5.187   4.745 -0.1758 -0.5031 -2.0926
  101OSM   C18S10132   5.815   5.307   4.762 -0.2015 -0.3299  0.6470
  101OSM   H18S10133   5.754   5.350   4.844 -3.2540 -2.9658  0.0088
  101OSM   H18T10134   5.747   5.280   4.678 -1.1115 -0.0768  1.2908
  101OSM   H18U10135   5.881   5.387   4.723  0.7079 -0.5182  1.7424
  101OSM    C1F10136   5.913   4.695   5.990  0.6255  0.4216 -0.1186
  101OSM     OF10137   5.836   4.599   5.968 -0.2321  0.2658 -0.3036
  101OSM    C2F10138   5.996   4.755   5.886 -0.5060  0.1762 -0.7578
  101OSM    H2F10139   6.102   4.724   5.902 -0.7654 -0.8258 -0.9224
  101OSM    H2G10140   5.988   4.865   5.900 -0.5029 -0.0301  1.1025
  101OSM    C3F10141   5.959   4.711   5.745 -0.6078  0.0560  0.0903
  101OSM    H3F10142   5.859   4.743   5.709  0.3523  0.3653 -2.5748
  101OSM    H3G10143   5.945   4.601   5.751 -2.6185  0.2912  0.3633
  101OSM    C4F10144   6.049   4.765   5.632 -0.0797  0.0918 -0.1344
  101OSM    H4F10145   6.155   4.739   5.653  0.0928  0.8708 -0.0344
  101OSM    H4G10146   6.032   4.874   5.624  0.4851  0.3551  1.8509
  101OSM    C5F10147   5.994   4.697   5.508  0.1852 -0.1016  1.1826
  101OSM    H5F10148   5.893   4.742   5.502  0.3675  0.0575 -2.4793
  101OSM    H5G10149   5.998   4.586   5.506  1.2018 -0.0717  0.3543
  101OSM    C6F10150   6.062   4.753   5.384  0.0667 -0.1005 -0.0684
  101OSM    H6F10151   6.160   4.705   5.362  0.1359  0.2902 -0.6319
  101OSM    H6G10152   6.075   4.861   5.403  0.1813  0.1036 -1.2521
  101OSM    C7F10153   5.971   4.746   5.256  0.3606  0.1793  0.1581
  101OSM    H7F10154   5.884   4.814   5.269 -0.5435 -0.4633 -2.0224
  101OSM    H7G10155   5.924   4.648   5.234 -0.5713  0.8389 -0.9182
  101OSM    C8F10156   6.054   4.792   5.138 -0.6041  0.0009  0.5477
  101OSM    H8F10157   6.147   4.733   5.128  0.4904  1.6279  0.7015
  101OSM    H8G10158   6.095   4.894   5.151  2.2925 -0.8698 -0.9996
  101OSM    C9F10159   5.977   4.782   5.008 -0.4878  0.7813 -0.2670
  101OSM    H9F10160   5.900   4.860   4.999 -2.6514 -1.4081 -2.2510
  101OSM   C10F10161   6.005   4.704   4.902  0.0008  0.0908 -0.4680
  101OSM   H10F10162   5.939   4.713   4.814 -1.1569 -1.6880  0.1605
  101OSM   C11F10163   6.088   4.580   4.899  0.2850  0.6771 -0.4227
  101OSM   H11F10164   6.014   4.498   4.908 -0.3914  1.4956  2.4205
  101OSM   H11G10165   6.160   4.572   4.984  0.2235  3.1716 -0.0740
  101OSM   C12F10166   6.167   4.567   4.768  0.5294  0.3860  0.1172
  101OSM   H12F10167   6.228   4.475   4.782 -2.0528 -1.6959 -1.4537
  101OSM   H12G10168   6.229   4.659   4.761  0.1138  0.5658 -1.6003
  101OSM   C13F10169   6.082   4.561   4.634 -0.7225 -0.1477 -0.2047
  101OSM   H13F10170   6.049   4.662   4.601 -2.2128  0.1850  2.0673
  101OSM   H13G10171   5.997   4.489   4.640 -1.1893  0.2442 -1.7379
  101OSM   C14F10172   6.177   4.517   4.529  0.0014  0.1647  0.3804
  101OSM   H14F10173   6.214   4.415   4.554 -2.4704 -0.4857  1.6950
  101OSM   H14G10174   6.261   4.588   4.543 -1.1640  1.3220  1.8456
  101OSM   C15F10175   6.101   4.514   4.397  0.3347 -0.3225  0.2677
  101OSM   H15F10176   6.051   4.611   4.375 -1.1621 -1.0197  0.4791
  101OSM   H15G10177   6.021   4.439   4.417 -0.2099  0.7947  2.6481
  101OSM   C16F10178   6.183   4.460   4.275 -0.1783 -0.7504 -0.1874
  101OSM   H16F10179   6.228   4.370   4.322 -2.1698 -1.3707  0.6678
  101OSM   H16G10180   6.261   4.535   4.250 -2.0976  0.7552 -2.0941
  101OSM   C17F10181   6.105   4.408   4.155 -0.5963  0.2680 -0.0872
  101OSM   H17F10182   6.168   4.365   4.074 -2.1225 -3.2160  0.4197
  101OSM   H17G10183   6.046   4.490   4.108 -0.9655 -1.6369 -3.2307
  101OSM   C18F10184   6.012   4.289   4.178 -0.2751  0.1225  0.1587
  101OSM   H18F10185   5.991   4.218   4.095 -1.0081 -1.5589  1.7033
  101OSM   H18G10186   5.911   4.331   4.201  0.3717  2.7240 -1.3276
  101OSM   H18H10187   6.053   4.226   4.259  0.1599 -0.7518 -0.7223
  102OSM      N10188   3.499   1.882   6.719 -0.0094 -0.2952 -0.0438
  102OSM    C1510189   3.378   1.969   6.720 -0.3342 -0.6844  0.0281
  102OSM   H15A10190   3.289   1.913   6.695 -0.2592 -0.4277 -0.8697
  102OSM   H15B10191   3.397   2.059   6.663  0.6075  0.4249  1.9803
  102OSM   H15C10192   3.356   2.004   6.819 -1.0572 -1.2917  0.0854
  102OSM    C1410193   3.592   1.955   6.805 -0.3811  0.1864  0.1177
  102OSM   H14A10194   3.548   1.976   6.901  0.5121  0.2264  0.5260
  102OSM   H14B10195   3.613   2.051   6.762 -0.3631 -0.2013 -0.7613
  102OSM   H14C10196   3.687   1.906   6.822 -0.1779 -0.1913 -1.8847
  102OSM    C1310197   3.465   1.748   6.790  0.4961  0.0612 -0.4799
  102OSM   H13A10198   3.423   1.671   6.727 -0.6650  0.0052  0.3233
  102OSM   H13B10199   3.402   1.776   6.873  1.6222  1.2858 -0.0172
  102OSM   H13C10200   3.558   1.709   6.828 -0.5802 -3.7228 -1.3525
  102OSM    C1210201   3.562   1.864   6.584  0.3274  0.2556 -0.3250
  102OSM   H12A10202   3.481   1.829   6.523 -0.5835  0.7575  0.5659
  102OSM   H12B10203   3.646   1.797   6.598 -1.2072 -1.8192 -0.6783
  102OSM    C1110204   3.611   1.993   6.523  0.1431 -0.1979 -0.2739
  102OSM   H11A10205   3.656   1.957   6.428 -1.4976 -1.9512 -0.4582
  102OSM   H11B10206   3.695   2.028   6.587 -0.9974 -0.8986  1.6950
  102OSM      P10207   3.542   2.233   6.479  0.0086 -0.0139  0.2622
  102OSM    O1310208   3.444   2.288   6.384  0.2877 -0.4760  0.9821
  102OSM    O1410209   3.546   2.290   6.612  0.7399 -0.4639  0.1271
  102OSM    O1110210   3.688   2.215   6.413  0.0014  0.0394  0.2125
  102OSM    O1210211   3.504   2.090   6.495 -0.3110 -0.2109 -0.0807
  102OSM    C1S10212   3.731   2.156   6.292 -0.2740  0.1531 -0.0687
  102OSM    H1S10213   3.651   2.097   6.243 -0.6758  1.0280 -0.4946
  102OSM    H1T10214   3.811   2.087   6.327 -0.1831  0.5178  0.4481
  102OSM     NF10215   3.831   2.164   6.061  0.0618  0.0344 -0.4059
  102OSM    HNF10216   3.924   2.129   6.048 -0.0567 -0.2921 -0.3842
  102OSM    C2S10217   3.801   2.241   6.179 -0.2348  0.1552 -0.6127
  102OSM    H2S10218   3.731   2.321   6.149  1.0380  1.4292 -0.3025
  102OSM    C3S10219   3.927   2.310   6.253  0.1129 -0.0856 -0.6307
  102OSM    H3S10220   3.999   2.229   6.278 -0.5920 -1.7736 -3.4942
  102OSM     O310221   3.905   2.374   6.378 -0.2663  0.1035 -0.5352
  102OSM    HO310222   3.817   2.351   6.407 -0.3424  0.4900 -0.4619
  102OSM    C4S10223   3.990   2.409   6.161 -0.5579 -0.7884  0.1751
  102OSM    H4S10224   3.929   2.496   6.133 -0.6993 -1.3595 -1.4100
  102OSM    C5S10225   4.114   2.410   6.110  0.6324 -0.0486  0.2181
  102OSM    H5S10226   4.187   2.330   6.128 -0.5979 -1.0389  1.0079
  102OSM    C6S10227   4.167   2.525   6.024 -0.7286 -0.3340 -0.5301
  102OSM    H6S10228   4.271   2.547   6.056  0.1495  0.4804 -3.5864
  102OSM    H6T10229   4.100   2.613   6.032 -1.8842 -1.3454  1.6208
  102OSM    C7S10230   4.187   2.476   5.880 -0.0590 -0.5448  0.4054
  102OSM    H7S10231   4.089   2.433   5.849  0.8259 -3.7056  1.5319
  102OSM    H7T10232   4.260   2.392   5.878  1.1702  0.4759  1.3342
  102OSM    C8S10233   4.228   2.596   5.794  0.5007 -0.3406 -0.4290
  102OSM    H8S10234   4.318   2.641   5.841  0.3512 -1.1320  0.6382
  102OSM    H8T10235   4.139   2.662   5.792  0.5311 -0.2741  0.2058
  102OSM    C9S10236   4.259   2.554   5.655  0.6760  0.5269 -0.3727
  102OSM    H9S10237   4.176   2.500   5.605 -0.2236  1.5971 -0.0673
  102OSM    H9T10238   4.350   2.489   5.660  0.0236 -0.3379  0.9619
  102OSM   C10S10239   4.283   2.674   5.562 -0.7946  0.1219  0.7634
  102OSM   H10S10240   4.377   2.727   5.587 -0.9538  1.0066 -0.4251
  102OSM   H10T10241   4.195   2.741   5.568 -3.0974 -2.4003 -1.6393
  102OSM   C11S10242   4.292   2.633   5.417 -0.1572 -0.0805  0.5291
  102OSM   H11S10243   4.197   2.594   5.373  0.4745  0.2601 -1.1879
  102OSM   H11T10244   4.374   2.560   5.403  0.8481  1.4713 -2.2391
  102OSM   C12S10245   4.345   2.735   5.320  1.0860  0.0347  0.6872
  102OSM   H12S10246   4.443   2.781   5.347 -0.0021  1.5412  2.3346
  102OSM   H12T10247   4.272   2.818   5.330  2.3326  1.2483 -0.0219
  102OSM   C13S10248   4.342   2.690   5.174 -0.3966  0.6285  0.2527
  102OSM   H13S10249   4.252   2.625   5.166 -0.0698 -0.1434  2.2809
  102OSM   H13T10250   4.432   2.628   5.155 -1.2942 -0.9344  0.8848
  102OSM   C14S10251   4.341   2.811   5.080  0.0776  0.1798  0.1831
  102OSM   H14S10252   4.261   2.879   5.116 -0.5225 -0.3646 -0.1120
  102OSM   H14T10253   4.314   2.780   4.976  0.1478  0.8994 -0.0539
  102OSM   C15S10254   4.480   2.898   5.077 -0.2212  0.1676  0.3302
  102OSM   H15S10255   4.553   2.833   5.024 -0.8512 -1.0384  0.9048
  102OSM   H15T10256   4.508   2.931   5.180 -0.9247  0.0130  0.5711
  102OSM   C16S10257   4.466   3.025   4.996 -0.4491  0.5042 -0.1382
  102OSM   H16S10258   4.530   3.099   5.050 -0.8939  0.1238  0.9394
  102OSM   H16T10259   4.360   3.057   5.005 -1.5219 -2.2206 -1.8584
  102OSM   C17S10260   4.495   3.005   4.847 -0.1345 -0.1426  0.2019
  102OSM   H17S10261   4.428   2.926   4.807 -1.4959  0.3365  1.4333
  102OSM   H17T10262   4.601   2.976   4.832 -0.0514 -1.5264  2.8176
  102OSM   C18S10263   4.463   3.130   4.763 -0.1596  0.3629 -0.4542
  102OSM   H18S10264   4.513   3.218   4.809 -1.0777 -0.0810  1.5123
  102OSM   H18T10265   4.356   3.160   4.770  0.1495  1.9395 -1.8883
  102OSM   H18U10266   4.497   3.123   4.657 -2.2872 -1.4543 -1.0966
  102OSM    C1F10267   3.730   2.127   5.985  0.0971  0.1342 -0.4878
  102OSM     OF10268   3.611   2.161   6.009 -0.2187 -0.2163  0.2623
  102OSM    C2F10269   3.758   2.025   5.875 -0.4376 -0.4366  0.2723
  102OSM    H2F10270   3.671   1.956   5.872 -0.3413 -0.7302  2.6132
  102OSM    H2G10271   3.839   1.955   5.905 -0.8426 -0.7846  0.5661
  102OSM    C3F10272   3.793   2.075   5.730 -0.0110 -1.0357 -1.0806
  102OSM    H3F10273   3.883   2.139   5.746  0.1752 -1.3185 -0.9713
  102OSM    H3G10274   3.709   2.137   5.692 -1.8197 -1.9986  1.1061
  102OSM    C4F10275   3.820   1.965   5.635 -0.2932  0.1116  0.0333
  102OSM    H4F10276   3.727   1.910   5.610 -0.2763 -1.0290  2.2250
  102OSM    H4G10277   3.882   1.883   5.679 -0.3946 -0.5559 -1.0239
  102OSM    C5F10278   3.883   2.009   5.503  0.6010  0.0610 -0.5938
  102OSM    H5F10279   3.976   2.065   5.523  0.4512  0.3246 -0.6379
  102OSM    H5G10280   3.812   2.074   5.449 -0.7074  0.2999  1.3016
  102OSM    C6F10281   3.924   1.884   5.422 -1.1083 -0.3082 -0.3343
  102OSM    H6F10282   3.841   1.813   5.397 -2.4049  1.9087 -2.8048
  102OSM    H6G10283   3.998   1.824   5.480 -0.3335  0.7242 -0.2208
  102OSM    C7F10284   4.006   1.921   5.297  0.5809 -0.0376  0.1563
  102OSM    H7F10285   4.090   1.990   5.317  0.6983 -0.1792  0.1581
  102OSM    H7G10286   3.934   1.972   5.229 -0.1440  1.3012  1.8549
  102OSM    C8F10287   4.050   1.795   5.215  0.1500  0.2212  0.9154
  102OSM    H8F10288   4.082   1.826   5.113  0.0383  0.9831  1.1067
  102OSM    H8G10289   3.956   1.737   5.206  1.7585 -2.9956  3.0363
  102OSM    C9F10290   4.161   1.719   5.287  0.8010  0.2713 -0.0272
  102OSM    H9F10291   4.241   1.785   5.324  0.9323 -0.4314  0.9894
  102OSM   C10F10292   4.163   1.586   5.311  0.2782 -0.2621 -0.5049
  102OSM   H10F10293   4.255   1.552   5.361  0.3075  0.0487 -0.3440
  102OSM   C11F10294   4.057   1.486   5.283  0.2071  0.4466  0.1134
  102OSM   H11F10295   3.961   1.528   5.248 -0.2911 -0.5652  0.2526
  102OSM   H11G10296   4.039   1.419   5.369  0.4086 -0.4401 -0.5218
  102OSM   C12F10297   4.096   1.382   5.172 -0.4635 -0.6510  0.3696
  102OSM   H12F10298   4.045   1.284   5.179 -2.4820 -0.0834 -3.8651
  102OSM   H12G10299   4.201   1.344   5.180  0.4049  0.9219 -2.3094
  102OSM   C13F10300   4.075   1.439   5.037  0.0063  0.6381 -0.3465
  102OSM   H13F10301   4.150   1.519   5.020  1.1983 -0.2499  0.5896
  102OSM   H13G10302   3.972   1.482   5.035 -0.9419 -1.0693  2.9213
  102OSM   C14F10303   4.097   1.336   4.917  0.5811 -0.0461  0.0031
  102OSM   H14F10304   4.049   1.242   4.954 -0.2594  2.0415  4.9758
  102OSM   H14G10305   4.208   1.331   4.922  0.7897  2.2459 -1.2184
  102OSM   C15F10306   4.046   1.407   4.787  0.3866 -0.2768 -0.2180
  102OSM   H15F10307   3.963   1.479   4.800 -0.0486 -0.2631 -2.6093
  102OSM   H15G10308   4.012   1.321   4.726  0.7931 -0.4911 -0.1515
  102OSM   C16F10309   4.162   1.465   4.703 -0.4012 -0.3013 -0.0166
  102OSM   H16F10310   4.232   1.384   4.672 -1.5492 -0.2541 -3.1097
  102OSM   H16G10311   4.227   1.538   4.755  1.9329 -2.4543  0.2981
  102OSM   C17F10312   4.100   1.528   4.576 -0.8824  0.0841  0.4084
  102OSM   H17F10313   4.014   1.588   4.614  0.9748  3.4248 -0.2289
  102OSM   H17G10314   4.061   1.449   4.508  1.5960 -1.6477  0.8819
  102OSM   C18F10315   4.198   1.622   4.515 -0.0239  0.0242  0.3983
  102OSM   H18F10316   4.220   1.706   4.585  3.6894 -0.4934  0.0693
  102OSM   H18G10317   4.154   1.665   4.423  1.9233  3.0565  0.7515
  102OSM   H18H10318   4.300   1.587   4.489  1.2210  1.0499  3.4345
  103OSM      N10319   5.091   4.767   6.534 -0.0290  0.2039  0.0366
  103OSM    C1510320   5.201   4.701   6.611  0.2902 -0.6575  0.7928
  103OSM   H15A10321   5.209   4.748   6.708  1.2729  0.1924  0.3275
  103OSM   H15B10322   5.299   4.735   6.582 -0.8042  2.0198 -0.1157
  103OSM   H15C10323   5.208   4.593   6.608  2.6367 -0.5888 -3.0992
  103OSM    C1410324   4.963   4.773   6.594  0.6039  0.1934  0.5124
  103OSM   H14A10325   4.916   4.676   6.605  0.9686  0.0194  0.5405
  103OSM   H14B10326   4.884   4.833   6.551 -0.0970  0.5817  2.2458
  103OSM   H14C10327   4.967   4.799   6.699  0.6815  0.2980  0.4840
  103OSM    C1310328   5.130   4.916   6.524 -0.3605 -0.7005 -0.2698
  103OSM   H13A10329   5.043   4.968   6.488  0.5173 -0.2866 -1.9090
  103OSM   H13B10330   5.210   4.928   6.452  1.4243  0.3243  1.7743
  103OSM   H13C10331   5.162   4.946   6.622 -3.7881  0.8827  0.4857
  103OSM    C1210332   5.094   4.712   6.394  0.3026 -0.1318  0.6100
  103OSM   H12A10333   5.198   4.714   6.365  0.4343  1.4709  1.0731
  103OSM   H12B10334   5.035   4.770   6.325 -0.4131 -0.0951  1.2332
  103OSM    C1110335   5.055   4.565   6.371 -0.5557 -0.3996 -0.2083
  103OSM   H11A10336   5.064   4.534   6.265 -0.8099 -2.0879  0.2229
  103OSM   H11B10337   4.955   4.544   6.415 -0.8696 -0.6051 -1.0096
  103OSM      P10338   5.275   4.414   6.405  0.0278 -0.4089  0.4489
  103OSM    O1310339   5.378   4.444   6.511  0.6476 -0.1322 -0.3415
  103OSM    O1410340   5.266   4.274   6.373 -0.1037 -0.1158 -0.0714
  103OSM    O1110341   5.316   4.486   6.268  0.2479  0.2394 -0.3099
  103OSM    O1210342   5.136   4.478   6.446 -0.4508 -0.0567 -0.2015
  103OSM    C1S10343   5.450   4.463   6.218  0.2553  0.5389 -0.2399
  103OSM    H1S10344   5.485   4.359   6.236  2.5287  1.3879  0.6444
  103OSM    H1T10345   5.529   4.515   6.277 -1.6195  0.0395  2.9289
  103OSM     NF10346   5.602   4.436   6.014  0.0491 -0.6510 -0.3051
  103OSM    HNF10347   5.677   4.500   6.000 -0.8415  0.1003 -1.8668
  103OSM    C2S10348   5.475   4.495   6.071 -0.6567 -0.3506 -0.9248
  103OSM    H2S10349   5.390   4.449   6.015 -0.6495  0.6027 -1.7495
  103OSM    C3S10350   5.466   4.649   6.061  0.1697 -0.1135 -1.0586
  103OSM    H3S10351   5.541   4.684   6.135  0.8677 -0.7482 -1.4479
  103OSM     O310352   5.330   4.702   6.087 -0.1746 -0.1648  0.0983
  103OSM    HO310353   5.286   4.630   6.133  1.3551 -1.4969 -0.4533
  103OSM    C4S10354   5.524   4.691   5.922  0.2641 -0.3330  0.6319
  103OSM    H4S10355   5.631   4.665   5.914  0.6635  0.9894  1.2442
  103OSM    C5S10356   5.463   4.760   5.822 -0.8978  0.1933 -0.0956
  103OSM    H5S10357   5.366   4.804   5.850 -2.2862 -2.0888 -1.0513
  103OSM    C6S10358   5.525   4.799   5.691  0.4137 -0.6630 -0.1856
  103OSM    H6S10359   5.634   4.817   5.682  0.0259  2.5741  0.1909
  103OSM    H6T10360   5.484   4.901   5.671 -0.6980 -0.3870  2.9752
  103OSM    C7S10361   5.493   4.707   5.575 -0.0279  0.3139  0.0804
  103OSM    H7S10362   5.384   4.721   5.558 -0.1641 -1.0204 -0.2625
  103OSM    H7T10363   5.508   4.599   5.593  1.4615  0.3979 -0.4833
  103OSM    C8S10364   5.565   4.735   5.434 -0.3791 -0.3472  0.0615
  103OSM    H8S10365   5.669   4.697   5.442 -0.6078 -0.8274  0.8654
  103OSM    H8T10366   5.571   4.845   5.423  3.2574 -0.2211  1.7863
  103OSM    C9S10367   5.501   4.664   5.317 -0.2590 -0.2277  0.0879
  103OSM    H9S10368   5.413   4.728   5.295 -0.6410  0.6841  3.7102
  103OSM    H9T10369   5.467   4.561   5.340 -0.8204  0.3263  1.8882
  103OSM   C10S10370   5.596   4.663   5.187 -0.7857 -0.4229  0.7187
  103OSM   H10S10371   5.682   4.597   5.211  1.2246  1.3883 -0.9884
  103OSM   H10T10372   5.635   4.766   5.169 -1.8446 -0.1622 -0.2080
  103OSM   C11S10373   5.538   4.610   5.058  0.0711 -0.7066 -0.5111
  103OSM   H11S10374   5.444   4.664   5.038  0.8337  0.1323 -1.9424
  103OSM   H11T10375   5.524   4.499   5.065 -2.5109 -0.4044  0.2100
  103OSM   C12S10376   5.620   4.651   4.938  0.4936 -0.4500  0.2238
  103OSM   H12S10377   5.727   4.634   4.962  0.9478  2.4157  0.5941
  103OSM   H12T10378   5.601   4.760   4.934  0.4587 -0.2942  3.0202
  103OSM   C13S10379   5.569   4.588   4.802 -0.5869 -0.4663 -0.4493
  103OSM   H13S10380   5.461   4.604   4.780 -0.6864  1.3147  1.0682
  103OSM   H13T10381   5.579   4.477   4.799 -1.0375 -0.5070 -3.2579
  103OSM   C14S10382   5.634   4.664   4.681  0.6772 -1.6035 -0.5421
  103OSM   H14S10383   5.744   4.671   4.669  0.4864  1.8088 -1.1187
  103OSM   H14T10384   5.595   4.768   4.684  1.8398 -1.1500 -0.7462
  103OSM   C15S10385   5.573   4.609   4.553 -0.3854 -0.5145  0.2889
  103OSM   H15S10386   5.608   4.670   4.467  0.6441 -2.7613 -0.9645
  103OSM   H15T10387   5.463   4.610   4.537 -0.0294  0.8235 -2.8122
  103OSM   C16S10388   5.621   4.473   4.509  0.0639 -0.1912 -0.2306
  103OSM   H16S10389   5.596   4.405   4.593 -0.4759  0.5335  0.2113
  103OSM   H16T10390   5.731   4.476   4.493 -0.3102  0.7393 -3.2970
  103OSM   C17S10391   5.562   4.440   4.376  0.2505  0.3636  0.1073
  103OSM   H17S10392   5.460   4.482   4.370  0.9994  2.2095 -0.8413
  103OSM   H17T10393   5.549   4.332   4.357  0.7365  0.0929  1.2272
  103OSM   C18S10394   5.631   4.506   4.251  0.9003  0.2379  0.1597
  103OSM   H18S10395   5.585   4.605   4.230 -0.9158 -0.5059  0.4795
  103OSM   H18T10396   5.601   4.448   4.161  1.7478  1.7355 -1.1311
  103OSM   H18U10397   5.742   4.516   4.255  0.8495  0.4490  1.9237
  103OSM    C1F10398   5.612   4.303   5.994 -0.7184 -0.1195 -0.3383
  103OSM     OF10399   5.516   4.228   6.004  0.2471  0.3776  0.1290
  103OSM    C2F10400   5.751   4.245   5.971  0.5946 -0.1046 -0.4528
  103OSM    H2F10401   5.759   4.159   6.040  1.5893 -0.8604 -1.4617
  103OSM    H2G10402   5.828   4.324   5.983 -1.3633  1.7556  0.5806
  103OSM    C3F10403   5.766   4.182   5.825  0.6885  0.2877  0.8096
  103OSM    H3F10404   5.695   4.099   5.806  1.3805 -0.9458  3.2125
  103OSM    H3G10405   5.866   4.137   5.808  1.9806  2.9002  0.8675
  103OSM    C4F10406   5.757   4.281   5.711 -0.1579  0.4554 -0.8331
  103OSM    H4F10407   5.807   4.373   5.748 -1.2172  1.0816 -0.9094
  103OSM    H4G10408   5.652   4.318   5.701  0.5515  2.8788 -0.1031
  103OSM    C5F10409   5.819   4.215   5.583  0.3213 -0.0592 -0.4256
  103OSM    H5F10410   5.754   4.126   5.569 -1.6079  0.7220  2.7323
  103OSM    H5G10411   5.921   4.187   5.617 -1.1629 -2.1894  2.6656
  103OSM    C6F10412   5.839   4.286   5.448  0.1198 -0.3795  0.1336
  103OSM    H6F10413   5.890   4.383   5.464 -0.1988  0.4442 -3.1686
  103OSM    H6G10414   5.734   4.295   5.413 -0.9977 -0.8151  3.0910
  103OSM    C7F10415   5.928   4.206   5.345  0.2474 -0.3875 -0.1131
  103OSM    H7F10416   5.872   4.113   5.322 -2.2821  1.0199 -0.0125
  103OSM    H7G10417   6.023   4.182   5.398  2.1836  2.0369 -2.2550
  103OSM    C8F10418   5.980   4.279   5.214  0.2477  0.4453  0.2550
  103OSM    H8F10419   6.051   4.208   5.166 -2.1627 -2.2171  0.3189
  103OSM    H8G10420   6.033   4.368   5.253 -1.1068  0.8755  1.2107
  103OSM    C9F10421   5.866   4.338   5.124  0.0431  0.9452  0.0803
  103OSM    H9F10422   5.806   4.422   5.164 -0.7230  0.0819  0.7830
  103OSM   C10F10423   5.839   4.295   5.000 -0.5680 -0.5896 -0.1485
  103OSM   H10F10424   5.751   4.338   4.949 -0.1553 -0.1117 -0.4696
  103OSM   C11F10425   5.908   4.183   4.923  0.1638 -0.4231  0.8681
  103OSM   H11F10426   5.917   4.102   4.998 -0.1675  0.8296  2.3080
  103OSM   H11G10427   6.014   4.202   4.897 -0.5089 -0.8226 -2.7178
  103OSM   C12F10428   5.837   4.126   4.799  0.1111 -0.5401 -0.4698
  103OSM   H12F10429   5.729   4.118   4.826  0.4037 -1.0802  0.6301
  103OSM   H12G10430   5.869   4.021   4.783  1.9757  0.0143 -0.5353
  103OSM   C13F10431   5.859   4.209   4.667 -0.0035  0.9747  0.4638
  103OSM   H13F10432   5.831   4.312   4.695 -1.7842  0.1938  1.7592
  103OSM   H13G10433   5.793   4.186   4.581  0.9526 -2.2268  0.4523
  103OSM   C14F10434   6.010   4.199   4.613  0.3235 -0.4318 -0.7633
  103OSM   H14F10435   6.076   4.246   4.688 -4.4738  3.2236  1.7218
  103OSM   H14G10436   6.014   4.265   4.524  0.6161  2.3953  1.2060
  103OSM   C15F10437   6.055   4.064   4.577  0.3257  0.9446  0.2642
  103OSM   H15F10438   5.968   4.010   4.535  0.2535 -1.3050  3.0143
  103OSM   H15G10439   6.074   4.010   4.672 -2.0670  0.8476  0.7395
  103OSM   C16F10440   6.180   4.070   4.491  0.0041 -0.6612  0.0035
  103OSM   H16F10441   6.261   4.131   4.537 -0.4021  0.5720 -0.8629
  103OSM   H16G10442   6.159   4.124   4.396 -0.4146 -0.4687  0.2018
  103OSM   C17F10443   6.251   3.937   4.462 -0.3589  0.3899 -0.2346
  103OSM   H17F10444   6.278   3.889   4.558 -2.5447  0.0481  0.2592
  103OSM   H17G10445   6.341   3.968   4.404  0.4864  0.3324  1.0266
  103OSM   C18F10446   6.154   3.830   4.404 -0.4496  0.2742  0.5399
  103OSM   H18F10447   6.060   3.835   4.464  0.0228 -1.1183  1.4414
  103OSM   H18G10448   6.201   3.730   4.396 -0.2573  0.4069  0.0216
  103OSM   H18H10449   6.124   3.857   4.301 -0.2680 -0.5159  0.2751
  104OSM      N10450   6.291   3.773   6.833  0.7868 -0.2903  0.5089
  104OSM    C1510451   6.175   3.700   6.889  0.0806  0.0146 -0.3664
  104OSM   H15A10452   6.163   3.616   6.821  2.2859 -1.2901  0.7436
  104OSM   H15B10453   6.084   3.755   6.906  0.8042  1.2723 -0.4437
  104OSM   H15C10454   6.201   3.655   6.983 -0.3305  0.9427  0.1960
  104OSM    C1410455   6.333   3.889   6.920  0.4052  0.2387  0.0262
  104OSM   H14A10456   6.400   3.959   6.873 -1.6464  1.7473 -0.8009
  104OSM   H14B10457   6.385   3.844   7.004 -1.7679 -2.5382  0.0505
  104OSM   H14C10458   6.244   3.942   6.949 -1.1667 -1.4227 -1.5066
  104OSM    C1310459   6.406   3.683   6.827 -0.0315 -0.4330  0.1278
  104OSM   H13A10460   6.437   3.658   6.928 -2.6540 -0.5483  0.9878
  104OSM   H13B10461   6.481   3.739   6.774 -0.1002  1.8684  2.2260
  104OSM   H13C10462   6.385   3.601   6.761 -1.8100 -0.7504  1.0150
  104OSM    C1210463   6.245   3.820   6.691  0.8753  0.4542  0.7405
  104OSM   H12A10464   6.329   3.876   6.652  0.8213  0.4324  0.5928
  104OSM   H12B10465   6.168   3.893   6.715 -0.1109  0.0844 -1.1279
  104OSM    C1110466   6.184   3.718   6.592 -0.8230 -0.2171  0.4487
  104OSM   H11A10467   6.244   3.625   6.591  0.4552  0.5812 -0.2099
  104OSM   H11B10468   6.202   3.759   6.490  1.0991  0.1826  0.9049
  104OSM      P10469   5.934   3.790   6.632 -0.0521  0.4594  0.4989
  104OSM    O1310470   5.803   3.719   6.636 -0.3353 -0.1467  0.2515
  104OSM    O1410471   5.960   3.881   6.746  0.0035 -0.1098  0.0158
  104OSM    O1110472   5.946   3.878   6.498  0.8358  0.1574 -0.6009
  104OSM    O1210473   6.052   3.687   6.614  0.6500 -0.2929 -0.2306
  104OSM    C1S10474   5.967   3.823   6.368  0.5402  0.8959  0.5523
  104OSM    H1S10475   5.877   3.766   6.336  1.3146 -0.0073 -0.0855
  104OSM    H1T10476   6.049   3.747   6.364 -1.2047 -1.0805  0.5717
  104OSM     NF10477   6.012   3.890   6.143 -0.0253 -0.2542  0.1498
  104OSM    HNF10478   6.100   3.892   6.096 -0.2074  1.1824 -0.1725
  104OSM    C2S10479   5.999   3.938   6.276 -0.1093 -0.3221  0.1084
  104OSM    H2S10480   5.917   4.011   6.284 -0.2530 -0.6546  2.1261
  104OSM    C3S10481   6.123   4.021   6.326  0.1127  0.5544  0.8314
  104OSM    H3S10482   6.213   3.956   6.322 -0.0801  0.2212  1.7536
  104OSM     O310483   6.116   4.067   6.462  0.0415  0.2655 -0.0861
  104OSM    HO310484   6.034   4.032   6.498 -0.8211  0.9831 -1.2536
  104OSM    C4S10485   6.156   4.135   6.236 -0.0076  0.3005  0.3303
  104OSM    H4S10486   6.248   4.110   6.180  0.0165 -0.2638  0.6169
  104OSM    C5S10487   6.087   4.249   6.215 -0.0969  0.0468 -0.4319
  104OSM    H5S10488   5.995   4.278   6.268  1.7980  0.8821  2.5813
  104OSM    C6S10489   6.127   4.347   6.110 -0.0830  0.3657 -0.4006
  104OSM    H6S10490   6.206   4.417   6.144 -0.2377  0.0907  0.5611
  104OSM    H6T10491   6.039   4.413   6.096  0.0928  0.4756 -1.0156
  104OSM    C7S10492   6.158   4.286   5.973 -0.2535  0.3120  1.1610
  104OSM    H7S10493   6.082   4.209   5.946 -0.5467  0.7209  0.8248
  104OSM    H7T10494   6.257   4.235   5.972  0.1470  1.0774  0.9070
  104OSM    C8S10495   6.165   4.385   5.866 -0.7256 -0.5510  0.0870
  104OSM    H8S10496   6.227   4.474   5.888 -2.0746  0.2808  0.6066
  104OSM    H8T10497   6.067   4.428   5.838 -0.9247 -0.8350  0.3555
  104OSM    C9S10498   6.223   4.329   5.728  0.2313 -0.0722  0.4486
  104OSM    H9S10499   6.138   4.272   5.683  0.7311 -0.6975  0.2752
  104OSM    H9T10500   6.300   4.252   5.749  0.9080  0.7468  1.0314
  104OSM   C10S10501   6.261   4.443   5.641 -0.3367 -0.2042  0.1138
  104OSM   H10S10502   6.332   4.506   5.698  0.0900 -1.6263  1.1988
  104OSM   H10T10503   6.172   4.507   5.622 -0.6535 -1.1826 -2.0682
  104OSM   C11S10504   6.320   4.386   5.512  0.3588  0.0596 -0.2528
  104OSM   H11S10505   6.285   4.287   5.473  0.5394 -0.0536 -0.1291
  104OSM   H11T10506   6.426   4.359   5.530  0.5138 -0.7635 -2.1245
  104OSM   C12S10507   6.320   4.494   5.405 -0.4802 -0.0763  0.6600
  104OSM   H12S10508   6.298   4.596   5.444 -0.0558  0.8257 -1.3202
  104OSM   H12T10509   6.237   4.470   5.335 -0.6305  0.2207  0.7335
  104OSM   C13S10510   6.449   4.497   5.323  0.0966  0.1199 -0.1571
  104OSM   H13S10511   6.455   4.397   5.274 -1.0888  1.0219 -2.2428
  104OSM   H13T10512   6.527   4.521   5.398 -1.0316 -1.2216  1.5107
  104OSM   C14S10513   6.446   4.601   5.205  0.1708 -0.0440  0.1385
  104OSM   H14S10514   6.419   4.700   5.245 -0.2561 -0.0898 -0.0394
  104OSM   H14T10515   6.364   4.580   5.134  1.3753 -1.3469 -0.9356
  104OSM   C15S10516   6.579   4.608   5.136 -0.3811  0.3007  0.2203
  104OSM   H15S10517   6.607   4.504   5.106  3.0520  0.9221  0.8824
  104OSM   H15T10518   6.651   4.641   5.213 -0.7568  1.6862 -0.0017
  104OSM   C16S10519   6.589   4.695   5.013  0.2061  0.1719 -0.5121
  104OSM   H16S10520   6.610   4.801   5.040 -0.9367  0.1574  0.5161
  104OSM   H16T10521   6.494   4.692   4.954  1.1346 -1.3813 -2.0442
  104OSM   C17S10522   6.708   4.649   4.917  0.4400 -0.0709 -0.6761
  104OSM   H17S10523   6.713   4.540   4.893  4.4012 -0.1872  0.0112
  104OSM   H17T10524   6.802   4.653   4.976 -0.2895 -0.0139  0.5228
  104OSM   C18S10525   6.711   4.725   4.786  0.3894  0.0697 -0.0670
  104OSM   H18S10526   6.781   4.670   4.721  2.0185 -4.1049  4.5526
  104OSM   H18T10527   6.750   4.827   4.808 -3.6390  1.0672  4.0802
  104OSM   H18U10528   6.613   4.715   4.735 -0.8702  0.0502  2.1880
  104OSM    C1F10529   5.908   3.840   6.072  0.0732  0.1463 -0.3085
  104OSM     OF10530   5.797   3.855   6.122 -0.0519 -0.3004  0.2348
  104OSM    C2F10531   5.942   3.764   5.955  0.3771 -0.6065  0.1390
  104OSM    H2F10532   5.872   3.678   5.955 -0.7105  0.1922 -2.2413
  104OSM    H2G10533   6.047   3.727   5.963  1.1728  1.1832 -1.1738
  104OSM    C3F10534   5.936   3.839   5.823  0.3594 -0.6832 -0.5741
  104OSM    H3F10535   6.028   3.899   5.808  0.5482 -1.0696 -0.9911
  104OSM    H3G10536   5.850   3.910   5.825  0.7902 -0.1803  0.1988
  104OSM    C4F10537   5.928   3.748   5.710  0.2845  0.0926  0.3971
  104OSM    H4F10538   5.833   3.692   5.716 -0.0607  0.4643 -1.1161
  104OSM    H4G10539   6.009   3.673   5.710  0.6349  0.4520  1.1010
  104OSM    C5F10540   5.931   3.823   5.572 -0.6249 -0.4506  0.0562
  104OSM    H5F10541   6.015   3.894   5.563 -2.4165  1.4370 -4.3030
  104OSM    H5G10542   5.834   3.873   5.549 -0.4579 -0.7202 -1.3014
  104OSM    C6F10543   5.945   3.724   5.459  0.2603  0.8256 -0.4190
  104OSM    H6F10544   5.873   3.640   5.455  1.9731 -0.6990 -0.9290
  104OSM    H6G10545   6.051   3.690   5.463 -0.1296 -0.2632  1.0896
  104OSM    C7F10546   5.930   3.794   5.329 -1.1283  0.3492  0.7080
  104OSM    H7F10547   6.018   3.861   5.325 -0.5319 -0.4268 -3.0867
  104OSM    H7G10548   5.835   3.852   5.327  0.9541  4.0131 -0.3473
  104OSM    C8F10549   5.931   3.713   5.190  0.0014  0.5758 -0.3534
  104OSM    H8F10550   5.851   3.636   5.186  1.4823 -1.0639 -0.0399
  104OSM    H8G10551   6.026   3.656   5.191 -0.5437 -0.3578 -0.1165
  104OSM    C9F10552   5.914   3.803   5.069 -0.2636 -0.5689 -0.1013
  104OSM    H9F10553   5.844   3.887   5.081  2.9859  2.3648  0.0886
  104OSM   C10F10554   5.971   3.800   4.951 -0.6611 -0.2235 -0.0474
  104OSM   H10F10555   5.975   3.889   4.886  1.5847  0.1421  0.5247
  104OSM   C11F10556   6.061   3.696   4.894  0.5974 -0.2517 -0.3176
  104OSM   H11F10557   6.072   3.604   4.955  0.4330  1.2248  2.1211
  104OSM   H11G10558   6.166   3.733   4.896  0.2147  0.8571  0.4707
  104OSM   C12F10559   6.044   3.647   4.747  0.4385  0.7331 -0.1234
  104OSM   H12F10560   6.107   3.705   4.676  3.1014 -1.6026  0.1316
  104OSM   H12G10561   5.939   3.644   4.709  0.6573 -0.8282 -0.6704
  104OSM   C13F10562   6.100   3.500   4.732  0.2592 -0.2234  0.2509
  104OSM   H13F10563   6.024   3.423   4.758  0.6128 -0.5066  0.4666
  104OSM   H13G10564   6.193   3.496   4.793  0.0540  1.0264  0.6818
  104OSM   C14F10565   6.161   3.471   4.593 -0.0982  0.2110 -0.3970
  104OSM   H14F10566   6.221   3.379   4.579  1.8789  1.4792 -0.6297
  104OSM   H14G10567   6.219   3.558   4.555 -0.6380  1.5509  1.6552
  104OSM   C15F10568   6.050   3.464   4.486  0.3379 -0.2379  0.2589
  104OSM   H15F10569   5.987   3.554   4.501  0.0308 -0.4091  0.0116
  104OSM   H15G10570   5.976   3.384   4.508 -1.6889  1.5973  0.3669
  104OSM   C16F10571   6.091   3.450   4.338  0.5225 -0.3932 -0.3773
  104OSM   H16F10572   6.120   3.344   4.323 -0.6017 -1.0161  1.4921
  104OSM   H16G10573   6.180   3.513   4.321 -0.1062  0.4618 -0.5920
  104OSM   C17F10574   5.983   3.502   4.238 -0.4304  0.4234  0.0605
  104OSM   H17F10575   6.026   3.509   4.136 -3.2280 -0.0692 -1.2553
  104OSM   H17G10576   5.958   3.606   4.269 -0.9972 -0.0502  1.2639
  104OSM   C18F10577   5.857   3.419   4.236  0.8668 -0.7820  0.2230
  104OSM   H18F10578   5.797   3.472   4.158  0.5426  0.0183  0.9984
  104OSM   H18G10579   5.798   3.436   4.329  1.1394 -1.1683  0.4670
  104OSM   H18H10580   5.869   3.310   4.218  1.2498 -0.4852 -1.4719
  105OSM      N10581   5.204   3.758   6.978  0.3952  0.4398 -0.6582
  105OSM    C1510582   5.257   3.763   7.117 -0.1084 -0.1099 -0.3665
  105OSM   H15A10583   5.333   3.688   7.136 -0.1390 -0.3440 -1.1346
  105OSM   H15B10584   5.188   3.761   7.200  2.6740  1.3400  2.1579
  105OSM   H15C10585   5.305   3.860   7.121 -1.2277  0.4589 -0.3772
  105OSM    C1410586   5.145   3.620   6.968  0.0063 -0.5881 -0.1710
  105OSM   H14A10587   5.101   3.601   6.870 -1.6639  0.2329  0.3766
  105OSM   H14B10588   5.067   3.606   7.041  1.1081  0.3819  1.2494
  105OSM   H14C10589   5.210   3.536   6.987 -0.1911 -0.7982 -0.4046
  105OSM    C1310590   5.106   3.863   6.975  1.2201  0.2050 -0.1857
  105OSM   H13A10591   5.145   3.960   6.948  1.7925 -0.4641 -1.8828
  105OSM   H13B10592   5.050   3.874   7.067  0.7606 -1.0414 -0.2929
  105OSM   H13C10593   5.027   3.838   6.905  0.0393 -0.7773  1.4357
  105OSM    C1210594   5.304   3.779   6.867  0.1557  0.0164 -0.5210
  105OSM   H12A10595   5.367   3.691   6.870 -1.1333 -0.9393  1.3227
  105OSM   H12B10596   5.360   3.870   6.880 -1.5330  1.0592 -0.2959
  105OSM    C1110597   5.240   3.783   6.726 -0.3553  0.9043 -0.5918
  105OSM   H11A10598   5.301   3.818   6.640 -1.0345  3.5953 -0.0966
  105OSM   H11B10599   5.152   3.852   6.729  0.3033  1.7180  1.6052
  105OSM      P10600   5.266   3.548   6.621  0.6134 -0.0771 -0.0907
  105OSM    O1310601   5.408   3.573   6.658  0.1278  0.2647  0.1529
  105OSM    O1410602   5.210   3.415   6.651 -0.1928 -0.6113  0.3625
  105OSM    O1110603   5.250   3.565   6.466 -0.3024 -0.2405 -0.6201
  105OSM    O1210604   5.181   3.660   6.684 -0.3648 -0.2463  0.5990
  105OSM    C1S10605   5.136   3.531   6.394  1.3803  0.3213 -0.0907
  105OSM    H1S10606   5.068   3.619   6.385 -0.8358 -1.4225 -1.4939
  105OSM    H1T10607   5.069   3.457   6.443  0.3046  1.8120  0.8107
  105OSM     NF10608   5.050   3.503   6.158 -0.2953  0.2024 -1.1949
  105OSM    HNF10609   5.010   3.417   6.129 -0.4219  0.1602 -0.9040
  105OSM    C2S10610   5.173   3.486   6.246 -0.0445  0.0867  0.3150
  105OSM    H2S10611   5.247   3.563   6.214  1.1002 -0.5469  1.3387
  105OSM    C3S10612   5.231   3.344   6.244  0.5398  0.1906  0.3281
  105OSM    H3S10613   5.176   3.278   6.314  1.5720  1.0996  2.0545
  105OSM     O310614   5.361   3.331   6.298 -0.4578 -0.0114  0.4266
  105OSM    HO310615   5.394   3.421   6.302  0.4049 -0.3581  1.8978
  105OSM    C4S10616   5.231   3.291   6.104  0.2718  0.6640 -0.9618
  105OSM    H4S10617   5.138   3.235   6.082  1.6261 -2.5634  0.7910
  105OSM    C5S10618   5.321   3.288   6.004  0.4469 -0.0221  0.3182
  105OSM    H5S10619   5.421   3.323   6.032 -0.4909  1.4260  2.0348
  105OSM    C6S10620   5.296   3.226   5.870 -0.4981 -0.7563 -0.1745
  105OSM    H6S10621   5.319   3.118   5.874 -0.0808 -0.6704 -0.2406
  105OSM    H6T10622   5.368   3.258   5.792 -0.0304 -1.7805 -0.1692
  105OSM    C7S10623   5.158   3.251   5.810 -0.1306 -0.2806 -0.4228
  105OSM    H7S10624   5.135   3.359   5.798  0.0668 -0.2230 -0.2886
  105OSM    H7T10625   5.083   3.209   5.880 -1.5684  1.0133 -1.1178
  105OSM    C8S10626   5.143   3.180   5.677  0.6865 -0.1069 -1.0453
  105OSM    H8S10627   5.170   3.073   5.686  1.9679  0.2627 -0.2678
  105OSM    H8T10628   5.205   3.220   5.594  0.6110  0.9465 -0.6196
  105OSM    C9S10629   4.996   3.187   5.626  0.7696  1.0293  0.7851
  105OSM    H9S10630   4.958   3.292   5.623  2.6847  1.7876  1.6964
  105OSM    H9T10631   4.942   3.132   5.707 -1.5670 -0.1055 -1.3838
  105OSM   C10S10632   4.979   3.110   5.491  0.5790 -0.2029  0.2471
  105OSM   H10S10633   4.875   3.072   5.494  0.6389 -0.3376  0.6742
  105OSM   H10T10634   5.047   3.023   5.482 -1.2939 -1.9627  2.2236
  105OSM   C11S10635   5.007   3.201   5.374 -0.7136 -0.6970 -0.2249
  105OSM   H11S10636   5.111   3.235   5.389 -0.7062 -1.0686  0.6573
  105OSM   H11T10637   4.945   3.292   5.389 -0.6785 -1.0443  2.6054
  105OSM   C12S10638   4.991   3.137   5.236  0.2578  0.2662 -0.1436
  105OSM   H12S10639   4.888   3.100   5.223 -0.2870  0.6391  2.5899
  105OSM   H12T10640   5.053   3.045   5.229 -1.6273 -0.9384 -2.3048
  105OSM   C13S10641   5.028   3.246   5.128  0.4643  0.9195  0.8974
  105OSM   H13S10642   5.136   3.267   5.144  1.0267 -1.9425  1.4155
  105OSM   H13T10643   4.964   3.336   5.128  0.7505  1.1363 -0.5124
  105OSM   C14S10644   5.009   3.185   4.983 -0.4004 -0.4296 -0.7535
  105OSM   H14S10645   5.015   3.268   4.909 -1.7055 -1.8286 -2.5128
  105OSM   H14T10646   4.909   3.138   4.982  0.0327 -1.3724 -0.8839
  105OSM   C15S10647   5.131   3.104   4.937 -0.3338  0.2562  0.8270
  105OSM   H15S10648   5.136   3.009   4.995 -0.2130 -0.7018 -0.6660
  105OSM   H15T10649   5.218   3.170   4.958 -1.0101  1.8221 -1.0600
  105OSM   C16S10650   5.136   3.077   4.783  0.0663  0.1766 -1.2418
  105OSM   H16S10651   5.132   3.164   4.714  1.9396  0.5401 -0.9563
  105OSM   H16T10652   5.048   3.015   4.754  0.5990 -2.1174  1.5519
  105OSM   C17S10653   5.253   2.989   4.745 -0.2577  0.9288 -0.5363
  105OSM   H17S10654   5.257   2.898   4.807 -0.8666  2.3023  1.6462
  105OSM   H17T10655   5.349   3.046   4.739 -0.0409  0.4946 -1.3232
  105OSM   C18S10656   5.230   2.936   4.597  0.1306 -0.1736  0.1515
  105OSM   H18S10657   5.219   3.023   4.528  1.1114 -0.4859 -0.4211
  105OSM   H18T10658   5.149   2.861   4.590  1.7906 -2.0017 -0.5500
  105OSM   H18U10659   5.323   2.883   4.565  0.6613  1.6712 -1.5506
  105OSM    C1F10660   4.978   3.612   6.134  1.0659 -0.9328  0.4797
  105OSM     OF10661   4.987   3.713   6.206 -0.4025  0.1028  0.3317
  105OSM    C2F10662   4.875   3.611   6.022 -0.0227 -0.1541  0.5488
  105OSM    H2F10663   4.779   3.614   6.079 -0.7704 -1.0495 -0.6204
  105OSM    H2G10664   4.889   3.529   5.949  0.1204  0.6998 -0.4114
  105OSM    C3F10665   4.878   3.743   5.945  0.0698  0.6314  0.2946
  105OSM    H3F10666   4.981   3.774   5.918  0.3024 -0.3551 -0.0201
  105OSM    H3G10667   4.859   3.819   6.023 -1.8384 -2.8022  3.5083
  105OSM    C4F10668   4.791   3.740   5.816 -0.3898  0.4305  0.0782
  105OSM    H4F10669   4.684   3.733   5.844 -0.4656  0.7256 -0.1249
  105OSM    H4G10670   4.809   3.644   5.763  0.7256  1.4257 -1.4513
  105OSM    C5F10671   4.807   3.861   5.723 -0.2406  0.2763 -0.1935
  105OSM    H5F10672   4.916   3.874   5.707 -0.3391  1.2642 -0.1214
  105OSM    H5G10673   4.765   3.955   5.765  0.6725  0.5074  0.2226
  105OSM    C6F10674   4.746   3.821   5.583  0.0586 -1.0217  0.8446
  105OSM    H6F10675   4.733   3.918   5.530 -0.8947  0.2080  3.1967
  105OSM    H6G10676   4.649   3.774   5.609 -0.9694  1.2362  1.3737
  105OSM    C7F10677   4.840   3.725   5.499  0.5790 -0.4423  0.4925
  105OSM    H7F10678   4.848   3.627   5.550  0.3235 -1.9175 -2.1332
  105OSM    H7G10679   4.937   3.777   5.485  0.1159 -0.3454 -3.7318
  105OSM    C8F10680   4.790   3.690   5.355  0.9307 -0.6943  0.4125
  105OSM    H8F10681   4.685   3.658   5.368  1.2168 -1.8759 -0.0342
  105OSM    H8G10682   4.838   3.597   5.318  1.7389 -0.8796  1.8502
  105OSM    C9F10683   4.797   3.792   5.243  0.0218 -0.3155 -0.5120
  105OSM    H9F10684   4.771   3.896   5.270  3.0080  1.4406 -3.6456
  105OSM   C10F10685   4.840   3.773   5.110 -0.6756 -0.2082 -0.4538
  105OSM   H10F10686   4.840   3.859   5.042 -0.5919 -0.2166 -0.4649
  105OSM   C11F10687   4.881   3.641   5.054  1.0566  0.0501 -0.0562
  105OSM   H11F10688   4.790   3.585   5.023  0.2178  0.6206  1.2853
  105OSM   H11G10689   4.953   3.592   5.121  1.8444  1.7001  0.3579
  105OSM   C12F10690   4.960   3.648   4.920  0.0957 -0.2741 -0.0441
  105OSM   H12F10691   4.974   3.541   4.895  0.3765 -0.1773 -0.3116
  105OSM   H12G10692   5.049   3.707   4.951 -1.5557  1.1669  2.2701
  105OSM   C13F10693   4.894   3.698   4.793 -0.0433 -0.3936 -0.2538
  105OSM   H13F10694   4.850   3.799   4.807 -0.5113 -0.4009 -1.5215
  105OSM   H13G10695   4.810   3.627   4.778  0.2868 -0.6531 -0.9474
  105OSM   C14F10696   4.989   3.705   4.666 -0.1327 -0.5305 -0.1944
  105OSM   H14F10697   5.037   3.605   4.675 -1.8428 -1.3109  0.9222
  105OSM   H14G10698   5.073   3.776   4.678 -0.4097 -0.7040  3.9973
  105OSM   C15F10699   4.906   3.709   4.535  0.2139 -0.5748  0.2941
  105OSM   H15F10700   4.870   3.813   4.520 -0.0020 -1.0178 -2.6996
  105OSM   H15G10701   4.819   3.641   4.545 -1.0815  1.1476  1.3601
  105OSM   C16F10702   4.976   3.652   4.407 -0.6440  0.1861 -0.6471
  105OSM   H16F10703   5.020   3.552   4.429  0.7681  0.3517 -2.4642
  105OSM   H16G10704   5.061   3.719   4.381  0.4065 -0.9281 -0.2339
  105OSM   C17F10705   4.882   3.646   4.287 -0.6776  0.5361  0.0370
  105OSM   H17F10706   4.822   3.739   4.275 -1.0041  0.3084 -0.1011
  105OSM   H17G10707   4.808   3.564   4.303  2.7499 -2.7579  0.5959
  105OSM   C18F10708   4.956   3.615   4.157 -0.3851 -0.1541  0.5840
  105OSM   H18F10709   5.028   3.695   4.131 -1.4477  0.2570 -1.2456
  105OSM   H18G10710   4.882   3.632   4.076  1.0697 -0.3781 -0.8500
  105OSM   H18H10711   4.992   3.510   4.144 -2.3811 -0.8545  0.4081
  106OSM      N10712   3.178   2.504   6.734  0.4363 -0.0413  0.2587
  106OSM    C1510713   3.233   2.426   6.621 -0.0267  0.4421 -0.4781
  106OSM   H15A10714   3.173   2.436   6.531 -0.4361  2.0684 -0.0607
  106OSM   H15B10715   3.238   2.322   6.650  0.8473  0.4940 -0.4368
  106OSM   H15C10716   3.333   2.457   6.595  0.4355 -0.3042  0.3581
  106OSM    C1410717   3.296   2.533   6.823  0.2742  0.1990 -0.4705
  106OSM   H14A10718   3.322   2.443   6.877 -1.4651 -0.6042 -0.9042
  106OSM   H14B10719   3.272   2.614   6.891  2.1345  0.0719  0.4100
  106OSM   H14C10720   3.373   2.563   6.753  0.8176  0.3697  0.1900
  106OSM    C1310721   3.109   2.639   6.688 -0.6308  0.0198 -0.5561
  106OSM   H13A10722   3.185   2.710   6.660 -0.1945 -0.1750  0.1145
  106OSM   H13B10723   3.061   2.692   6.769  2.3660  2.5667 -0.2354
  106OSM   H13C10724   3.040   2.616   6.608  0.2518 -0.2921 -1.2455
  106OSM    C1210725   3.071   2.424   6.809 -0.1195 -0.4456 -0.3855
  106OSM   H12A10726   2.992   2.405   6.738 -1.6452 -1.9563  1.6020
  106OSM   H12B10727   3.032   2.484   6.890 -0.6980  2.0772 -2.3991
  106OSM    C1110728   3.107   2.280   6.866  0.3797 -0.5514  0.5149
  106OSM   H11A10729   3.022   2.248   6.930 -0.2467 -1.4836 -0.7569
  106OSM   H11B10730   3.197   2.288   6.931  0.4824 -4.1964  1.0191
  106OSM      P10731   3.019   2.078   6.708 -0.5887  0.2137 -0.1280
  106OSM    O1310732   3.061   1.943   6.742 -0.3925 -0.3240  0.5357
  106OSM    O1410733   2.887   2.117   6.751  0.4371  0.1081  0.5575
  106OSM    O1110734   3.025   2.087   6.553  0.3189 -0.4373  0.3314
  106OSM    O1210735   3.131   2.185   6.752  0.3422 -0.6905 -0.1872
  106OSM    C1S10736   3.152   2.082   6.487  0.1082  0.0830  0.6941
  106OSM    H1S10737   3.195   1.982   6.508 -0.9062 -0.7501 -0.9834
  106OSM    H1T10738   3.226   2.157   6.523  0.1322  0.4059 -0.0109
  106OSM     NF10739   3.269   2.047   6.262  0.2901 -0.6670 -0.5445
  106OSM    HNF10740   3.335   2.119   6.242 -0.2441 -0.7549 -2.9463
  106OSM    C2S10741   3.150   2.092   6.331 -0.2891  0.3241 -0.6416
  106OSM    H2S10742   3.066   2.025   6.303  0.2530 -0.4190 -0.5069
  106OSM    C3S10743   3.107   2.240   6.291  0.2794  0.2610  0.0917
  106OSM    H3S10744   3.191   2.310   6.314  0.6700  0.3382 -1.4389
  106OSM     O310745   2.982   2.294   6.348  0.4053  0.9384 -0.1104
  106OSM    HO310746   2.962   2.223   6.410  0.5946  3.4962  3.1621
  106OSM    C4S10747   3.097   2.235   6.141 -0.3977 -0.0327  0.1494
  106OSM    H4S10748   3.173   2.302   6.097 -1.0489  0.0503 -0.8689
  106OSM    C5S10749   3.011   2.183   6.056  0.6827  0.8304  0.8943
  106OSM    H5S10750   2.923   2.121   6.080  0.5990  0.8007  0.5108
  106OSM    C6S10751   3.020   2.208   5.905  0.7946  0.1378 -0.6618
  106OSM    H6S10752   2.935   2.269   5.867  0.4803 -0.2245 -0.5418
  106OSM    H6T10753   3.006   2.112   5.851 -0.7070  0.1119 -0.2683
  106OSM    C7S10754   3.157   2.267   5.857 -0.6037 -0.2953  0.0647
  106OSM    H7S10755   3.247   2.220   5.901 -1.2270 -1.1541  0.4443
  106OSM    H7T10756   3.167   2.377   5.868  0.8091 -0.4236  0.1542
  106OSM    C8S10757   3.182   2.223   5.706 -0.3838 -0.7668 -0.1047
  106OSM    H8S10758   3.108   2.274   5.640  1.2858  0.5283 -1.0541
  106OSM    H8T10759   3.171   2.114   5.688  0.6812 -0.9839  0.5163
  106OSM    C9S10760   3.318   2.275   5.658 -0.4020 -0.1979  0.3206
  106OSM    H9S10761   3.402   2.250   5.726 -1.0396  0.4697  1.3727
  106OSM    H9T10762   3.304   2.385   5.656  1.1007  0.0747  2.1291
  106OSM   C10S10763   3.331   2.235   5.515 -0.8406 -0.4913 -0.4021
  106OSM   H10S10764   3.231   2.217   5.471 -0.4730 -0.0810 -1.4304
  106OSM   H10T10765   3.372   2.132   5.506 -1.4876 -0.8045  0.1123
  106OSM   C11S10766   3.405   2.352   5.442 -0.6877  0.8134 -0.2225
  106OSM   H11S10767   3.510   2.354   5.477 -1.3200  0.7649  1.8089
  106OSM   H11T10768   3.351   2.447   5.463 -1.9575 -0.1398  1.0517
  106OSM   C12S10769   3.418   2.303   5.298  0.3530  0.0434 -0.1161
  106OSM   H12S10770   3.313   2.293   5.264 -0.4349 -0.9261  2.3463
  106OSM   H12T10771   3.474   2.209   5.281  0.0982  0.1262 -1.5072
  106OSM   C13S10772   3.472   2.410   5.202 -0.7814 -0.6075 -0.3483
  106OSM   H13S10773   3.571   2.442   5.240 -0.1778 -2.1682 -0.5173
  106OSM   H13T10774   3.401   2.495   5.202  1.2040  1.1450  0.1211
  106OSM   C14S10775   3.497   2.354   5.060  0.2571  0.0530 -0.7248
  106OSM   H14S10776   3.405   2.306   5.021 -1.2568  0.8586  1.6553
  106OSM   H14T10777   3.587   2.288   5.061  0.8425  0.8313 -0.9118
  106OSM   C15S10778   3.528   2.466   4.966 -0.2622 -0.3597  0.0692
  106OSM   H15S10779   3.627   2.502   5.000  0.5988 -1.7213 -0.9282
  106OSM   H15T10780   3.453   2.548   4.973 -1.0455 -1.1277  0.7964
  106OSM   C16S10781   3.559   2.414   4.826  0.1562  0.3503  0.4524
  106OSM   H16S10782   3.651   2.352   4.826  1.3215  1.9910  1.9539
  106OSM   H16T10783   3.572   2.496   4.752 -0.2168 -0.7264 -0.8533
  106OSM   C17S10784   3.446   2.321   4.760  1.0292 -0.3491 -0.3022
  106OSM   H17S10785   3.348   2.373   4.752  1.7134  1.4252  1.8474
  106OSM   H17T10786   3.426   2.229   4.819 -2.7903 -0.4422 -1.4650
  106OSM   C18S10787   3.490   2.266   4.621 -0.0117  0.2985  0.0219
  106OSM   H18S10788   3.582   2.207   4.643  0.4101 -0.1224 -2.5722
  106OSM   H18T10789   3.524   2.348   4.554  0.1002  0.3021  0.0838
  106OSM   H18U10790   3.409   2.205   4.576 -0.6576  0.3836  1.0279
  106OSM    C1F10791   3.307   1.918   6.268 -1.2215 -0.5005  0.3787
  106OSM     OF10792   3.242   1.833   6.322  0.8018 -0.0905  0.5188
  106OSM    C2F10793   3.443   1.894   6.199  0.4502 -0.6884 -0.3559
  106OSM    H2F10794   3.518   1.865   6.276 -1.8031 -1.6909  1.5962
  106OSM    H2G10795   3.464   1.996   6.161 -0.4430 -0.3049  0.1311
  106OSM    C3F10796   3.431   1.792   6.086  0.4250 -0.1487 -0.6583
  106OSM    H3F10797   3.401   1.698   6.138 -0.1080  2.0162  3.4141
  106OSM    H3G10798   3.533   1.786   6.042  0.8916  1.9080  0.0167
  106OSM    C4F10799   3.321   1.816   5.983  0.2800  0.3981  0.5977
  106OSM    H4F10800   3.335   1.921   5.948  3.8827 -0.6849 -1.8180
  106OSM    H4G10801   3.219   1.813   6.025 -0.1770 -1.1940 -0.5639
  106OSM    C5F10802   3.338   1.733   5.858 -0.8819 -0.2585 -0.4532
  106OSM    H5F10803   3.238   1.693   5.833 -0.9387 -0.6048  0.2961
  106OSM    H5G10804   3.406   1.653   5.893  1.6543  2.2162  0.7022
  106OSM    C6F10805   3.400   1.807   5.734  0.2463  0.3712  0.9478
  106OSM    H6F10806   3.504   1.839   5.759  1.2651 -1.6022 -0.4264
  106OSM    H6G10807   3.339   1.896   5.709 -1.3617 -1.0695 -0.4569
  106OSM    C7F10808   3.393   1.711   5.614 -0.4469 -0.9548  0.3075
  106OSM    H7F10809   3.287   1.692   5.586 -0.2255 -2.7954  0.6111
  106OSM    H7G10810   3.434   1.611   5.641  1.1627 -1.4116 -3.2605
  106OSM    C8F10811   3.468   1.749   5.489  0.2571 -0.0356  0.3315
  106OSM    H8F10812   3.574   1.762   5.518  0.6828  0.1796 -1.2067
  106OSM    H8G10813   3.445   1.849   5.446  1.2881  0.9593  1.9846
  106OSM    C9F10814   3.453   1.638   5.386  0.9927 -0.0734 -0.0736
  106OSM    H9F10815   3.396   1.547   5.407  2.1397 -1.2336 -1.6851
  106OSM   C10F10816   3.534   1.635   5.276 -0.0687 -0.4688 -0.2750
  106OSM   H10F10817   3.540   1.549   5.209 -0.7985 -0.4298 -0.3956
  106OSM   C11F10818   3.637   1.743   5.248 -0.0969  0.2276 -0.1005
  106OSM   H11F10819   3.738   1.698   5.235  0.2949  0.6911  1.1719
  106OSM   H11G10820   3.648   1.810   5.336 -1.5952  1.8962 -1.1084
  106OSM   C12F10821   3.615   1.838   5.119 -0.0572  0.3895 -0.2400
  106OSM   H12F10822   3.711   1.890   5.103  1.8487 -2.3602  1.3431
  106OSM   H12G10823   3.532   1.911   5.131  0.3004  0.5623  1.3788
  106OSM   C13F10824   3.577   1.739   5.000 -1.8010  1.0832  0.2831
  106OSM   H13F10825   3.476   1.697   5.017 -1.7804  0.9826  0.1602
  106OSM   H13G10826   3.650   1.656   4.992 -0.9743  1.8651 -0.5252
  106OSM   C14F10827   3.578   1.817   4.870  0.6828  0.0115  0.4003
  106OSM   H14F10828   3.682   1.840   4.837  0.1041  0.6543 -1.0297
  106OSM   H14G10829   3.531   1.914   4.897 -1.2209 -1.5192  3.0234
  106OSM   C15F10830   3.506   1.742   4.760 -0.0362 -0.5660 -0.0802
  106OSM   H15F10831   3.398   1.734   4.785  0.0119  0.8031  0.6526
  106OSM   H15G10832   3.558   1.644   4.771 -0.9817 -1.2092 -1.1710
  106OSM   C16F10833   3.513   1.816   4.625  0.5967  0.2878 -0.3813
  106OSM   H16F10834   3.617   1.848   4.604  1.2994 -0.5577  1.5812
  106OSM   H16G10835   3.460   1.912   4.609 -0.1828 -0.2007 -0.7970
  106OSM   C17F10836   3.462   1.721   4.511  0.0113  1.0452  0.3103
  106OSM   H17F10837   3.355   1.700   4.530  0.1038 -0.7548 -0.8702
  106OSM   H17G10838   3.517   1.624   4.520 -0.3683  1.0012  2.5568
  106OSM   C18F10839   3.468   1.778   4.369  0.1701  0.1515  0.8432
  106OSM   H18F10840   3.421   1.877   4.353  1.2775  0.6647  0.6806
  106OSM   H18G10841   3.434   1.699   4.298  2.7986 -0.7810  0.4853
  106OSM   H18H10842   3.576   1.803   4.356  0.5698 -0.3089  2.9398
  107OSM      N10843   6.073   6.688   6.849 -0.0354  0.4640 -0.4827
  107OSM    C1510844   6.200   6.701   6.924  0.0170  0.2154 -0.1846
  107OSM   H15A10845   6.282   6.674   6.859  0.6276  2.3557 -0.3770
  107OSM   H15B10846   6.214   6.640   7.012 -0.7042 -0.0142 -0.2215
  107OSM   H15C10847   6.213   6.804   6.954  0.5844 -0.0074  0.3659
  107OSM    C1410848   6.048   6.537   6.811  0.1216 -0.0899 -0.4250
  107OSM   H14A10849   6.134   6.499   6.759 -0.2183 -0.1041 -0.9823
  107OSM   H14B10850   5.953   6.523   6.761 -0.8849 -0.0817  1.4073
  107OSM   H14C10851   6.039   6.479   6.902 -0.7865  1.9886  0.8842
  107OSM    C1310852   5.961   6.714   6.947 -0.3807 -0.2504  0.3176
  107OSM   H13A10853   5.974   6.666   7.043  1.4997  1.2040  0.8802
  107OSM   H13B10854   5.871   6.670   6.908  0.8982 -2.8073  0.0878
  107OSM   H13C10855   5.962   6.820   6.970  2.3552  0.2941 -1.7839
  107OSM    C1210856   6.070   6.781   6.733 -0.1275 -0.1107  0.0513
  107OSM   H12A10857   6.158   6.764   6.673 -0.1831  3.3673 -1.2744
  107OSM   H12B10858   6.084   6.880   6.774 -0.9367 -0.2152  0.5947
  107OSM    C1110859   5.952   6.775   6.635 -0.1060  0.5011 -0.7188
  107OSM   H11A10860   5.864   6.787   6.701  0.4545 -1.5664  0.4987
  107OSM   H11B10861   5.946   6.678   6.581 -0.1702  0.0108  0.1513
  107OSM      P10862   5.983   7.032   6.563  0.2655 -0.1511  0.0319
  107OSM    O1310863   5.857   7.074   6.624 -0.6590 -0.5428  0.1984
  107OSM    O1410864   6.111   7.061   6.633 -0.1745  0.1329 -0.0698
  107OSM    O1110865   5.987   7.095   6.421 -0.5492 -0.2581  0.5284
  107OSM    O1210866   5.965   6.876   6.538  0.4193 -0.0366 -0.2350
  107OSM    C1S10867   5.934   7.025   6.312  0.1681  0.1064 -0.4592
  107OSM    H1S10868   5.836   6.980   6.341 -0.1827  1.6130  0.8539
  107OSM    H1T10869   5.998   6.948   6.264 -0.7635 -1.2627  0.4209
  107OSM     NF10870   5.829   7.050   6.100  0.0476 -0.5028  0.1785
  107OSM    HNF10871   5.885   7.031   6.019 -0.4519 -0.1712 -0.2557
  107OSM    C2S10872   5.906   7.122   6.192  0.0928 -0.6377  0.6970
  107OSM    H2S10873   5.849   7.206   6.235 -0.1922  0.2904 -1.3727
  107OSM    C3S10874   6.044   7.176   6.137  0.0467 -0.2822 -0.4726
  107OSM    H3S10875   6.100   7.091   6.093 -0.2589 -1.4240  1.2218
  107OSM     O310876   6.131   7.220   6.240 -0.3404  0.0474 -0.3697
  107OSM    HO310877   6.076   7.200   6.316 -0.3565  0.6311 -0.2191
  107OSM    C4S10878   6.023   7.290   6.039  0.4268  0.8440  0.6896
  107OSM    H4S10879   5.982   7.243   5.949 -3.3762  2.0501  1.5956
  107OSM    C5S10880   6.062   7.423   6.038 -0.4023 -0.3965 -0.7433
  107OSM    H5S10881   6.104   7.462   6.132  0.0483 -0.3435 -0.9655
  107OSM    C6S10882   6.035   7.525   5.929 -0.1491  0.0627 -0.5170
  107OSM    H6S10883   6.108   7.609   5.936 -2.7459  2.3085  3.6892
  107OSM    H6T10884   5.942   7.583   5.945  0.3977  0.8825 -0.2324
  107OSM    C7S10885   6.037   7.473   5.784  0.1008 -0.7274  0.3026
  107OSM    H7S10886   5.941   7.422   5.760  0.1542 -0.9217  0.5056
  107OSM    H7T10887   6.105   7.386   5.774  1.5892  0.4607 -0.3704
  107OSM    C8S10888   6.061   7.575   5.676 -0.6523 -0.3354  0.7781
  107OSM    H8S10889   6.169   7.599   5.688 -0.7494 -0.6155  2.4931
  107OSM    H8T10890   6.009   7.671   5.694  1.7218  1.2586 -0.2871
  107OSM    C9S10891   6.050   7.507   5.540  0.0534 -0.4842  0.2018
  107OSM    H9S10892   5.948   7.464   5.529  0.4155 -1.0032 -1.5908
  107OSM    H9T10893   6.111   7.413   5.540  1.1151  0.1415 -1.5234
  107OSM   C10S10894   6.075   7.608   5.424  0.1955 -0.0173 -0.2940
  107OSM   H10S10895   6.183   7.628   5.410  0.1082  0.9038  0.2766
  107OSM   H10T10896   6.021   7.696   5.465 -0.0059 -0.0536 -0.4791
  107OSM   C11S10897   6.024   7.577   5.283  0.0306  0.0953 -0.3324
  107OSM   H11S10898   5.917   7.605   5.278  0.0272 -0.1631 -3.6508
  107OSM   H11T10899   6.025   7.467   5.266 -1.1268  0.2318 -1.3918
  107OSM   C12S10900   6.104   7.655   5.185 -0.4911  0.4333  0.0507
  107OSM   H12S10901   6.209   7.620   5.173 -0.9517 -0.5911 -1.1848
  107OSM   H12T10902   6.123   7.757   5.227 -0.3902  0.0272  1.0145
  107OSM   C13S10903   6.048   7.662   5.046  0.7634  0.0267 -0.5203
  107OSM   H13S10904   5.967   7.736   5.034  1.1680  0.1285 -3.6378
  107OSM   H13T10905   6.010   7.565   5.007  1.4691  0.1802 -1.6509
  107OSM   C14S10906   6.158   7.700   4.947  0.4464  0.5270 -0.0132
  107OSM   H14S10907   6.222   7.612   4.924 -1.3957 -0.7676 -0.4386
  107OSM   H14T10908   6.226   7.774   4.995  0.3798 -0.2377  1.3161
  107OSM   C15S10909   6.110   7.747   4.808  0.3713  0.4433 -0.0884
  107OSM   H15S10910   6.093   7.856   4.821 -1.3225  0.1669  0.2560
  107OSM   H15T10911   6.013   7.699   4.784  1.0270 -0.7230 -0.5028
  107OSM   C16S10912   6.208   7.723   4.694 -0.9789  0.5765 -0.2865
  107OSM   H16S10913   6.245   7.618   4.703  1.6020  1.5095  0.8716
  107OSM   H16T10914   6.301   7.779   4.717 -1.1818  0.2716  1.3922
  107OSM   C17S10915   6.154   7.749   4.554 -0.0932 -0.3245  0.2360
  107OSM   H17S10916   6.232   7.716   4.483 -0.3898  2.6279 -1.6599
  107OSM   H17T10917   6.147   7.860   4.547  0.8712 -0.3515 -2.6032
  107OSM   C18S10918   6.015   7.698   4.521 -0.3452 -0.0219  0.3120
  107OSM   H18S10919   5.943   7.766   4.572  0.3417  1.3760 -0.5317
  107OSM   H18T10920   6.012   7.589   4.540  0.2408 -0.7922 -3.4107
  107OSM   H18U10921   6.003   7.699   4.411  0.2234 -1.0267  0.2240
  107OSM    C1F10922   5.695   7.033   6.106  0.0388  0.2396  0.1357
  107OSM     OF10923   5.628   7.064   6.205 -0.3677 -0.2324 -0.1263
  107OSM    C2F10924   5.618   6.970   5.988  0.4347  0.0055  0.1538
  107OSM    H2F10925   5.659   6.870   5.966  0.4453 -0.1200  0.7246
  107OSM    H2G10926   5.636   7.041   5.904  1.2044 -0.4551 -0.0841
  107OSM    C3F10927   5.470   6.969   6.020  0.4478 -1.0364  0.4362
  107OSM    H3F10928   5.441   7.070   6.056  0.7589  0.1385 -2.3415
  107OSM    H3G10929   5.455   6.897   6.103 -0.4274  0.3742  1.5319
  107OSM    C4F10930   5.384   6.921   5.895 -0.2351 -0.1559  0.2302
  107OSM    H4F10931   5.286   6.927   5.946  0.5115  1.9845  1.5541
  107OSM    H4G10932   5.420   6.816   5.884 -0.8316 -0.2016 -1.4710
  107OSM    C5F10933   5.393   7.008   5.766 -0.4311  0.1758 -0.8594
  107OSM    H5F10934   5.495   7.001   5.721 -0.1600 -0.3867 -0.1677
  107OSM    H5G10935   5.380   7.116   5.786 -3.8358 -0.5963  2.1770
  107OSM    C6F10936   5.273   6.979   5.670  0.2284  0.3595 -0.9638
  107OSM    H6F10937   5.184   6.995   5.734  0.6691  1.5562 -0.6092
  107OSM    H6G10938   5.283   6.875   5.633  2.7762  0.4346 -0.6832
  107OSM    C7F10939   5.257   7.077   5.555 -0.3681  0.0605 -0.9449
  107OSM    H7F10940   5.335   7.048   5.481  0.1847 -3.0379  0.7101
  107OSM    H7G10941   5.272   7.180   5.595 -0.7256 -0.6281  1.0466
  107OSM    C8F10942   5.124   7.055   5.473  0.0074 -0.5300 -0.1132
  107OSM    H8F10943   5.049   7.065   5.555 -0.7904 -0.0913 -0.8821
  107OSM    H8G10944   5.106   6.957   5.425 -2.1834  0.3392 -1.2174
  107OSM    C9F10945   5.101   7.154   5.365 -0.0030  0.1063 -0.6125
  107OSM    H9F10946   5.027   7.227   5.401 -0.4496 -0.9804  0.7697
  107OSM   C10F10947   5.131   7.143   5.238  0.4027  0.8671  0.4330
  107OSM   H10F10948   5.128   7.233   5.175  2.5884 -0.1142 -1.2320
  107OSM   C11F10949   5.191   7.023   5.167  0.7598  0.3570  0.3481
  107OSM   H11F10950   5.169   6.927   5.219  1.9185 -0.5024 -0.6850
  107OSM   H11G10951   5.302   7.031   5.166  0.7547  0.7546  1.6066
  107OSM   C12F10952   5.145   7.004   5.030  0.2495 -0.8548  0.1396
  107OSM   H12F10953   5.035   6.989   5.037 -0.3261  2.4650 -0.0172
  107OSM   H12G10954   5.198   6.912   4.997  3.5670  1.0334 -0.2347
  107OSM   C13F10955   5.165   7.120   4.933  0.7966  0.2958 -0.4586
  107OSM   H13F10956   5.257   7.161   4.978 -0.4495 -1.0714  3.8736
  107OSM   H13G10957   5.079   7.189   4.946 -1.3951 -1.5595 -3.6819
  107OSM   C14F10958   5.173   7.075   4.790  0.1030 -0.0299  0.0078
  107OSM   H14F10959   5.076   7.027   4.766  0.1675 -3.3919  4.9779
  107OSM   H14G10960   5.252   6.999   4.774 -1.5198 -1.8394  0.2210
  107OSM   C15F10961   5.192   7.187   4.691 -0.4909 -0.3751  0.2649
  107OSM   H15F10962   5.292   7.235   4.695 -0.2672 -0.9184  1.8852
  107OSM   H15G10963   5.122   7.269   4.719  0.5449  0.7877 -0.4548
  107OSM   C16F10964   5.165   7.144   4.543  0.2412  0.0883 -0.5408
  107OSM   H16F10965   5.059   7.110   4.551 -0.2225  1.8396  1.5142
  107OSM   H16G10966   5.234   7.063   4.510  1.8883  1.7273 -1.2743
  107OSM   C17F10967   5.174   7.261   4.432  0.1748 -0.2579 -0.7849
  107OSM   H17F10968   5.121   7.227   4.340 -0.5866  0.7694 -0.7377
  107OSM   H17G10969   5.284   7.264   4.416  0.6829 -0.8116  2.0772
  107OSM   C18F10970   5.121   7.405   4.471 -0.0490  0.5327 -0.1143
  107OSM   H18F10971   5.142   7.470   4.383  0.8292  0.2555 -0.1235
  107OSM   H18G10972   5.179   7.455   4.551  0.0732  1.0790 -0.5403
  107OSM   H18H10973   5.013   7.396   4.492 -0.2240  2.6654  0.0963
  108OSM      N10974   0.185   6.076   6.486 -0.0293 -0.2592 -0.3007
  108OSM    C1510975   0.237   6.140   6.605 -0.1245 -0.2924  0.5079
  108OSM   H15A10976   0.255   6.245   6.586  0.6144 -0.8344 -2.3200
  108OSM   H15B10977   0.334   6.098   6.626  0.8065  0.2664 -2.2539
  108OSM   H15C10978   0.167   6.126   6.686  0.3410 -1.3596  0.7501
  108OSM    C1410979   0.287   6.107   6.382  0.0917 -0.5249 -0.0695
  108OSM   H14A10980   0.287   6.212   6.359  0.7206  0.2257  2.9248
  108OSM   H14B10981   0.260   6.057   6.290  0.2394 -1.7366  0.5236
  108OSM   H14C10982   0.390   6.089   6.410  0.1494  1.0306  0.8281
  108OSM    C1310983   0.188   5.929   6.502  0.1676 -0.4688 -0.3331
  108OSM   H13A10984   0.132   5.892   6.417 -1.5426 -1.1936  1.0441
  108OSM   H13B10985   0.138   5.902   6.593 -1.0349  0.6646 -0.6139
  108OSM   H13C10986   0.288   5.890   6.501  0.5757  0.5349 -0.1266
  108OSM    C1210987   0.044   6.127   6.438 -0.8117  0.7137 -0.2706
  108OSM   H12A10988   0.023   6.083   6.342  1.3768  0.4037 -0.6545
  108OSM   H12B10989   0.039   6.235   6.427 -2.3029  0.7261  0.2380
  108OSM    C1110990  -0.081   6.091   6.520  1.1133 -0.2575  0.0974
  108OSM   H11A10991  -0.097   5.982   6.510  0.8841 -0.0351 -2.9506
  108OSM   H11B10992  -0.172   6.134   6.471  1.0926  0.3985  0.6922
  108OSM      P10993  -0.102   6.285   6.694 -0.1704  0.0540  0.1051
  108OSM    O1310994  -0.226   6.276   6.777 -0.1801 -0.2589 -0.1957
  108OSM    O1410995   0.010   6.351   6.769  0.0298 -0.0718  0.5298
  108OSM    O1110996  -0.126   6.354   6.552  0.8060 -0.0515  0.2404
  108OSM    O1210997  -0.067   6.134   6.653  0.1687  0.3757  0.2368
  108OSM    C1S10998  -0.037   6.452   6.498 -0.2919  0.0671  0.1231
  108OSM    H1S10999   0.069   6.433   6.525 -0.7043 -0.1262  1.6756
  108OSM    H1T11000  -0.076   6.550   6.534  0.3685  0.4151 -0.0980
  108OSM     NF11001   0.048   6.533   6.272  0.5595  0.6102 -0.3460
  108OSM    HNF11002   0.012   6.598   6.205  1.8165  1.7045 -0.0183
  108OSM    C2S11003  -0.055   6.453   6.338 -0.6070  0.3531  0.1283
  108OSM    H2S11004  -0.027   6.354   6.298 -3.8587 -1.5096  2.0208
  108OSM    C3S11005  -0.195   6.488   6.298 -0.1466  0.0069  0.4387
  108OSM    H3S11006  -0.213   6.598   6.294  0.2502  0.0550 -0.1359
  108OSM     O311007  -0.300   6.460   6.388  0.5322  0.4344 -0.1480
  108OSM    HO311008  -0.255   6.426   6.466  1.1258  2.5713  0.5016
  108OSM    C4S11009  -0.226   6.447   6.161  0.6030  0.1211 -0.1880
  108OSM    H4S11010  -0.238   6.527   6.086  0.8177 -0.6138 -1.0276
  108OSM    C5S11011  -0.239   6.318   6.133  0.5328  0.1889  0.0558
  108OSM    H5S11012  -0.212   6.236   6.201  0.9445 -1.1472 -1.6291
  108OSM    C6S11013  -0.290   6.264   6.005  0.0311 -0.3101 -0.0235
  108OSM    H6S11014  -0.331   6.343   5.940  0.1526 -0.1263  0.1233
  108OSM    H6T11015  -0.354   6.174   6.017 -1.5447  0.6932 -0.6308
  108OSM    C7S11016  -0.162   6.222   5.920 -0.4447 -0.0809  0.5148
  108OSM    H7S11017  -0.115   6.140   5.979  0.3532  0.3790  0.5299
  108OSM    H7T11018  -0.090   6.303   5.894 -0.1269 -1.4203 -3.5580
  108OSM    C8S11019  -0.204   6.170   5.776  0.2222  0.7406 -0.0805
  108OSM    H8S11020  -0.298   6.115   5.799  0.0118  1.0171 -0.2758
  108OSM    H8T11021  -0.128   6.094   5.746 -0.6526  0.0626 -0.6325
  108OSM    C9S11022  -0.218   6.273   5.662 -0.7174 -0.5118 -0.0512
  108OSM    H9S11023  -0.115   6.292   5.625 -1.0495  0.1554 -0.6629
  108OSM    H9T11024  -0.245   6.371   5.706 -3.1446 -0.8084 -0.7171
  108OSM   C10S11025  -0.315   6.236   5.554 -0.4372 -0.9262  0.1135
  108OSM   H10S11026  -0.420   6.218   5.584 -0.9828  0.8988 -0.5600
  108OSM   H10T11027  -0.287   6.139   5.507 -1.2331 -2.1456  2.0686
  108OSM   C11S11028  -0.303   6.339   5.433 -0.1797 -0.5863 -1.0454
  108OSM   H11S11029  -0.196   6.360   5.412 -0.4437  0.9092 -1.0153
  108OSM   H11T11030  -0.343   6.440   5.458 -1.2186 -0.4494 -3.0640
  108OSM   C12S11031  -0.365   6.294   5.300 -0.0300 -0.1227  0.7451
  108OSM   H12S11032  -0.464   6.246   5.308 -0.6346  0.9938  0.2604
  108OSM   H12T11033  -0.298   6.215   5.258  0.8102 -0.6060  2.8860
  108OSM   C13S11034  -0.365   6.405   5.196  0.1398 -0.0272  0.0466
  108OSM   H13S11035  -0.257   6.419   5.173 -0.0844  0.2190 -0.9118
  108OSM   H13T11036  -0.397   6.501   5.244  0.8014  0.0162  0.4157
  108OSM   C14S11037  -0.450   6.362   5.077  0.9228 -0.1470 -0.2485
  108OSM   H14S11038  -0.557   6.353   5.106  1.1968 -0.5725  0.6617
  108OSM   H14T11039  -0.410   6.261   5.055  2.2254 -0.4226  2.9431
  108OSM   C15S11040  -0.420   6.458   4.958  0.2559  0.1336  0.4720
  108OSM   H15S11041  -0.310   6.475   4.950  0.1629  0.4632 -0.2021
  108OSM   H15T11042  -0.458   6.561   4.972  2.0449  0.8624  0.3001
  108OSM   C16S11043  -0.457   6.395   4.825 -0.3630  0.3475 -0.0702
  108OSM   H16S11044  -0.568   6.393   4.813 -0.2386  0.1208 -1.3907
  108OSM   H16T11045  -0.423   6.289   4.818  0.0604  0.5507 -1.2459
  108OSM   C17S11046  -0.414   6.473   4.702  0.2388  0.9503  0.4811
  108OSM   H17S11047  -0.442   6.405   4.618  2.3644 -0.3339  0.7521
  108OSM   H17T11048  -0.310   6.511   4.708  0.3738  0.5169  0.9232
  108OSM   C18S11049  -0.495   6.602   4.677  0.2886 -0.5782  0.6115
  108OSM   H18S11050  -0.458   6.654   4.586  0.1739 -0.3016  0.7241
  108OSM   H18T11051  -0.482   6.667   4.766  0.4475 -1.1241  0.9901
  108OSM   H18U11052  -0.604   6.584   4.664 -0.2846  0.8708  2.8557
  108OSM    C1F11053   0.178   6.504   6.284  0.0506 -0.6602  0.7049
  108OSM     OF11054   0.210   6.398   6.332 -0.2996  0.0688 -0.4090
  108OSM    C2F11055   0.275   6.606   6.230 -0.1000 -0.8191  0.1598
  108OSM    H2F11056   0.315   6.670   6.312 -0.2299 -0.2946 -0.1772
  108OSM    H2G11057   0.216   6.660   6.153  1.3199 -3.1133 -2.7119
  108OSM    C3F11058   0.387   6.539   6.141  0.3770  0.0591  0.4983
  108OSM    H3F11059   0.337   6.488   6.056 -0.5384 -0.9412  1.5881
  108OSM    H3G11060   0.438   6.466   6.208  1.2052  1.3787  1.3612
  108OSM    C4F11061   0.501   6.631   6.089 -0.4810 -0.1540  0.3639
  108OSM    H4F11062   0.585   6.570   6.048  1.3929  2.1462  0.5604
  108OSM    H4G11063   0.548   6.689   6.171  0.4014 -0.5130  0.1280
  108OSM    C5F11064   0.467   6.715   5.964  0.0681 -0.6689 -0.5416
  108OSM    H5F11065   0.558   6.769   5.930 -0.3619 -0.4483 -1.3565
  108OSM    H5G11066   0.391   6.790   5.995  1.1768  0.7031 -1.0218
  108OSM    C6F11067   0.421   6.641   5.839 -0.3103  1.2505  0.4485
  108OSM    H6F11068   0.326   6.591   5.867  0.5355 -1.6578 -1.4300
  108OSM    H6G11069   0.495   6.559   5.833 -2.0355 -0.7278  3.5392
  108OSM    C7F11070   0.413   6.724   5.714 -0.4364  0.5254 -0.0863
  108OSM    H7F11071   0.519   6.743   5.686 -0.1544  0.7421  1.0840
  108OSM    H7G11072   0.360   6.817   5.743 -1.9256 -0.5445  0.7509
  108OSM    C8F11073   0.333   6.646   5.607  0.0869 -0.3626 -0.0463
  108OSM    H8F11074   0.298   6.723   5.535 -2.0056 -0.6815  0.5657
  108OSM    H8G11075   0.243   6.609   5.662  0.3472  0.2241  0.7951
  108OSM    C9F11076   0.424   6.545   5.549  0.0799  0.5057 -0.4390
  108OSM    H9F11077   0.467   6.471   5.617 -0.2159  0.6606 -0.0807
  108OSM   C10F11078   0.472   6.545   5.425 -0.4921 -0.0066  0.0129
  108OSM   H10F11079   0.529   6.459   5.387 -1.8017 -1.1980  0.6346
  108OSM   C11F11080   0.439   6.658   5.327  0.6140 -0.3037  0.4990
  108OSM   H11F11081   0.518   6.673   5.251 -0.3504  2.7662 -0.0574
  108OSM   H11G11082   0.419   6.756   5.375 -0.6724  0.5536 -1.6151
  108OSM   C12F11083   0.308   6.625   5.248 -0.0262  0.0168  0.2100
  108OSM   H12F11084   0.289   6.719   5.190  1.3045  0.6957  0.8448
  108OSM   H12G11085   0.221   6.600   5.312 -0.3197 -0.4013 -0.3410
  108OSM   C13F11086   0.328   6.516   5.144 -0.7053  0.0704  0.7963
  108OSM   H13F11087   0.320   6.417   5.193 -0.6969  0.1028  0.8639
  108OSM   H13G11088   0.425   6.536   5.094 -0.4783  0.2172  1.2836
  108OSM   C14F11089   0.236   6.525   5.020  0.4553  0.1766  0.1060
  108OSM   H14F11090   0.256   6.629   4.988  0.2295  0.8727  2.1118
  108OSM   H14G11091   0.128   6.526   5.047  0.8057  0.6181  1.5826
  108OSM   C15F11092   0.257   6.408   4.924  0.2815 -0.3060  0.8060
  108OSM   H15F11093   0.218   6.316   4.972 -0.3580 -0.9716 -0.9221
  108OSM   H15G11094   0.366   6.394   4.903  0.2082 -0.1506  0.3157
  108OSM   C16F11095   0.194   6.442   4.785 -0.1908 -0.3704 -0.0063
  108OSM   H16F11096   0.225   6.538   4.740  1.4909 -2.5815 -4.1490
  108OSM   H16G11097   0.083   6.441   4.789 -0.1788  0.0327  0.5878
  108OSM   C17F11098   0.233   6.340   4.676 -0.4407 -0.3996 -0.3660
  108OSM   H17F11099   0.207   6.238   4.709 -1.1531 -0.3319 -0.7033
  108OSM   H17G11100   0.341   6.344   4.650 -0.0270 -3.2746  0.5798
  108OSM   C18F11101   0.165   6.373   4.542 -1.1127  0.0287  0.5219
  108OSM   H18F11102   0.054   6.373   4.553 -1.0020  1.4317  1.9732
  108OSM   H18G11103   0.175   6.292   4.467 -1.8174  0.5801 -0.1779
  108OSM   H18H11104   0.192   6.463   4.484 -0.6180 -1.3110 -1.4171
  109OSM      N11105   3.254   3.188   6.606  0.2268 -0.5255  0.6082
  109OSM    C1511106   3.279   3.328   6.545  0.4404 -0.4808 -0.2014
  109OSM   H15A11107   3.378   3.339   6.503  1.9436  1.2284  3.3691
  109OSM   H15B11108   3.275   3.402   6.624 -2.0560 -0.8527  0.0705
  109OSM   H15C11109   3.207   3.360   6.472 -0.4029 -0.6310  0.5517
  109OSM    C1411110   3.358   3.171   6.719  0.5374  0.1742 -0.0871
  109OSM   H14A11111   3.452   3.163   6.666  0.7154 -1.9591  0.4382
  109OSM   H14B11112   3.347   3.075   6.768 -0.7033  0.4012  0.1080
  109OSM   H14C11113   3.340   3.253   6.786 -3.4705  1.1336 -2.0196
  109OSM    C1311114   3.118   3.191   6.674 -1.2062 -0.2868  0.7487
  109OSM   H13A11115   3.042   3.209   6.600  1.1059 -0.4434 -1.8321
  109OSM   H13B11116   3.105   3.278   6.737  2.1745  1.4818 -0.7200
  109OSM   H13C11117   3.106   3.102   6.734  0.6594 -0.4396  0.9563
  109OSM    C1211118   3.256   3.087   6.494  0.4334  0.4820  0.7534
  109OSM   H12A11119   3.355   3.086   6.450  0.7928 -0.8878  1.5438
  109OSM   H12B11120   3.185   3.113   6.416  1.9597 -1.1031 -1.2877
  109OSM    C1111121   3.233   2.931   6.526  0.2914 -0.5850 -0.0916
  109OSM   H11A11122   3.224   2.879   6.428  1.0049 -1.8887  0.5025
  109OSM   H11B11123   3.138   2.925   6.581  0.8058 -0.2708  0.8463
  109OSM      P11124   3.491   2.857   6.539  0.4663 -0.0077 -0.4858
  109OSM    O1311125   3.508   2.945   6.425 -0.0800  0.2473 -0.0688
  109OSM    O1411126   3.586   2.867   6.652  0.2418 -0.0536  0.3054
  109OSM    O1111127   3.490   2.706   6.488  0.8344  0.0846  0.1988
  109OSM    O1211128   3.342   2.882   6.600  0.2229  0.2817 -0.9523
  109OSM    C1S11129   3.394   2.647   6.390  0.0340 -0.6371 -0.4493
  109OSM    H1S11130   3.292   2.692   6.396  0.7992  1.3369 -1.2054
  109OSM    H1T11131   3.383   2.537   6.402 -1.3820 -0.4112  0.4837
  109OSM     NF11132   3.351   2.621   6.158  0.3920  0.2479  0.1399
  109OSM    HNF11133   3.372   2.539   6.105 -1.3456  0.5220 -1.0615
  109OSM    C2S11134   3.449   2.658   6.248 -0.1295 -0.2635 -0.0854
  109OSM    H2S11135   3.475   2.763   6.224 -1.1633  0.0491  0.1148
  109OSM    C3S11136   3.588   2.583   6.244 -0.1036  0.2848  0.4078
  109OSM    H3S11137   3.571   2.478   6.277 -1.0429 -0.1538 -1.3385
  109OSM     O311138   3.689   2.626   6.336  0.9299  0.4719  0.9523
  109OSM    HO311139   3.643   2.685   6.397  1.5084  0.4014  1.4612
  109OSM    C4S11140   3.651   2.569   6.104 -0.6623  0.6591 -0.5301
  109OSM    H4S11141   3.637   2.465   6.069 -1.1131  0.7892 -0.7378
  109OSM    C5S11142   3.737   2.654   6.044  0.2583  0.4138  0.7363
  109OSM    H5S11143   3.760   2.755   6.080 -0.2871  0.7876  0.0583
  109OSM    C6S11144   3.794   2.620   5.910 -0.4621  0.3035  0.5717
  109OSM    H6S11145   3.904   2.633   5.906 -0.1979 -1.8152 -2.1556
  109OSM    H6T11146   3.735   2.690   5.847 -0.6432  1.7843  2.3115
  109OSM    C7S11147   3.775   2.475   5.865 -0.3094 -0.2426  0.4344
  109OSM    H7S11148   3.667   2.450   5.862 -0.2889 -0.2954 -1.5804
  109OSM    H7T11149   3.821   2.403   5.936  0.8943 -0.4007 -0.4710
  109OSM    C8S11150   3.841   2.450   5.733 -0.3124  0.3332 -0.9263
  109OSM    H8S11151   3.916   2.368   5.740  1.9025  2.3908  3.1214
  109OSM    H8T11152   3.899   2.537   5.695  1.5327 -0.4723 -0.1142
  109OSM    C9S11153   3.741   2.420   5.625  0.1027 -0.2431  0.0502
  109OSM    H9S11154   3.671   2.507   5.626  1.3269  0.7958  2.1680
  109OSM    H9T11155   3.680   2.333   5.657 -0.2450  0.5920  1.7782
  109OSM   C10S11156   3.811   2.385   5.492  0.6589  0.2263 -1.0747
  109OSM   H10S11157   3.727   2.350   5.427 -0.2598  1.1793 -0.4262
  109OSM   H10T11158   3.885   2.306   5.517  1.2352  0.0648 -3.1358
  109OSM   C11S11159   3.877   2.486   5.401 -0.0892 -0.3319  0.0202
  109OSM   H11S11160   3.942   2.550   5.465  0.0055  0.2909 -0.6830
  109OSM   H11T11161   3.802   2.558   5.362  1.2897  0.5649 -1.0986
  109OSM   C12S11162   3.969   2.408   5.297 -0.0261 -0.4855  0.1031
  109OSM   H12S11163   4.052   2.356   5.351 -0.3811 -0.9294  0.2323
  109OSM   H12T11164   4.023   2.476   5.228  1.7206 -3.7827 -2.0595
  109OSM   C13S11165   3.892   2.302   5.220 -0.0456 -0.1136  0.5169
  109OSM   H13S11166   3.799   2.357   5.192 -0.0797  0.9227  2.4610
  109OSM   H13T11167   3.845   2.229   5.289  0.7441 -0.3171  0.8461
  109OSM   C14S11168   3.964   2.233   5.099  0.1953  0.6505  0.9352
  109OSM   H14S11169   4.011   2.141   5.140  2.0173  0.7304 -0.8430
  109OSM   H14T11170   4.047   2.299   5.066 -1.4163  1.5535 -1.5675
  109OSM   C15S11171   3.864   2.197   4.991 -0.2653  0.1838 -0.3922
  109OSM   H15S11172   3.815   2.291   4.957  0.5547  0.7876  0.0465
  109OSM   H15T11173   3.783   2.128   5.021 -1.1344  1.2896 -0.1383
  109OSM   C16S11174   3.929   2.125   4.870 -0.2263 -0.4095 -0.4202
  109OSM   H16S11175   3.993   2.191   4.808  0.5077 -1.1797 -0.5021
  109OSM   H16T11176   3.852   2.091   4.797  0.8331 -1.2178 -1.1934
  109OSM   C17S11177   4.029   2.013   4.908 -0.2185  0.3727 -0.1375
  109OSM   H17S11178   3.977   1.961   4.992 -1.1563  1.2782 -0.1318
  109OSM   H17T11179   4.121   2.058   4.951  0.6727 -0.0723 -1.5161
  109OSM   C18S11180   4.068   1.907   4.804 -0.2752 -0.4146  0.2930
  109OSM   H18S11181   4.149   1.838   4.837 -1.0195 -0.8505  1.2637
  109OSM   H18T11182   4.086   1.957   4.707 -1.0870 -1.8026 -0.6053
  109OSM   H18U11183   3.983   1.837   4.787  0.1073 -1.3437  1.9017
  109OSM    C1F11184   3.245   2.695   6.124  0.3975  0.3128 -0.0281
  109OSM     OF11185   3.239   2.813   6.159  0.5693 -0.1774  0.0329
  109OSM    C2F11186   3.129   2.622   6.059 -0.5088 -0.3366  0.6850
  109OSM    H2F11187   3.051   2.591   6.131 -0.8421  0.2562  0.5854
  109OSM    H2G11188   3.173   2.536   6.003  0.4852  1.6629 -1.8252
  109OSM    C3F11189   3.072   2.712   5.948 -0.0111  0.1294  0.8926
  109OSM    H3F11190   3.141   2.772   5.885 -0.5143  1.6894  1.7829
  109OSM    H3G11191   3.012   2.790   6.000  0.3830 -0.6778  2.6114
  109OSM    C4F11192   2.971   2.638   5.848  0.2185  0.3209 -0.2918
  109OSM    H4F11193   2.886   2.708   5.837  0.0240  0.4411  1.6816
  109OSM    H4G11194   2.929   2.546   5.895  3.0276 -0.6716  0.5036
  109OSM    C5F11195   3.036   2.621   5.706  0.0579  0.0156 -0.4229
  109OSM    H5F11196   3.123   2.553   5.716 -0.7034 -0.7193  2.0754
  109OSM    H5G11197   3.069   2.720   5.669  1.4194 -0.4138 -0.4395
  109OSM    C6F11198   2.952   2.553   5.598 -0.6001  0.0618 -0.3176
  109OSM    H6F11199   2.856   2.608   5.584 -0.6202 -0.4203 -2.5990
  109OSM    H6G11200   2.922   2.452   5.634  1.0357  0.4271  2.3220
  109OSM    C7F11201   3.036   2.520   5.472  0.3351 -0.0642 -0.3534
  109OSM    H7F11202   3.135   2.480   5.501  1.1362  1.2010 -1.2377
  109OSM    H7G11203   3.061   2.617   5.425  2.7927  0.4226  1.7336
  109OSM    C8F11204   2.962   2.414   5.388  0.5830  0.7958  0.4407
  109OSM    H8F11205   2.934   2.327   5.452 -0.4199 -0.9349 -2.2029
  109OSM    H8G11206   3.023   2.375   5.304  0.4301 -0.4444  0.8717
  109OSM    C9F11207   2.834   2.452   5.326 -0.3569 -0.1920 -0.7851
  109OSM    H9F11208   2.744   2.414   5.376 -0.7820  0.3994 -1.0873
  109OSM   C10F11209   2.819   2.527   5.212 -0.0212  0.6806 -0.4931
  109OSM   H10F11210   2.717   2.532   5.170 -0.6947 -1.6384  0.6372
  109OSM   C11F11211   2.925   2.584   5.120 -0.1247 -0.0096 -0.8081
  109OSM   H11F11212   3.026   2.562   5.160  0.4979  2.1271 -1.0638
  109OSM   H11G11213   2.918   2.695   5.110  0.9669  0.1710  0.2155
  109OSM   C12F11214   2.899   2.533   4.979 -0.1567 -0.5567  0.2409
  109OSM   H12F11215   2.802   2.551   4.928  0.0110 -0.4566 -0.0403
  109OSM   H12G11216   2.895   2.422   4.985  0.6499 -0.5954  0.0638
  109OSM   C13F11217   3.012   2.568   4.874 -0.5852  0.0381 -0.7178
  109OSM   H13F11218   2.998   2.499   4.789  2.1690 -2.9113  1.0095
  109OSM   H13G11219   3.114   2.564   4.918 -0.7190  1.2189 -0.2572
  109OSM   C14F11220   2.998   2.709   4.815  1.1040  0.5336  0.1373
  109OSM   H14F11221   2.990   2.779   4.901  2.3091 -1.2971  1.8093
  109OSM   H14G11222   2.895   2.713   4.774  0.6510  3.4411  1.3016
  109OSM   C15F11223   3.105   2.758   4.718 -0.9626 -0.1868 -0.8035
  109OSM   H15F11224   3.086   2.866   4.703 -0.1451  0.1831  0.6712
  109OSM   H15G11225   3.085   2.705   4.622 -1.3162 -1.4163 -0.0792
  109OSM   C16F11226   3.250   2.732   4.761  0.2624 -0.1098  0.5928
  109OSM   H16F11227   3.269   2.628   4.792  1.6049  0.2287  0.9620
  109OSM   H16G11228   3.285   2.789   4.851  0.3420 -0.9165  1.0813
  109OSM   C17F11229   3.344   2.771   4.650  0.5834  0.2672  1.2260
  109OSM   H17F11230   3.308   2.864   4.602  1.6134 -0.0570 -0.2326
  109OSM   H17G11231   3.329   2.698   4.567 -0.7067 -0.2568  1.8880
  109OSM   C18F11232   3.479   2.776   4.711 -0.5310 -0.1811 -0.4506
  109OSM   H18F11233   3.503   2.856   4.784 -1.2136  0.0698 -0.4977
  109OSM   H18G11234   3.562   2.795   4.639  0.5513 -1.6312  0.3737
  109OSM   H18H11235   3.489   2.677   4.759 -1.6146 -1.2947 -2.3925
  110OSM      N11236   1.880   5.543   6.422 -0.8758  0.3306  0.2110
  110OSM    C1511237   1.888   5.393   6.431 -0.9535 -0.8511  0.1941
  110OSM   H15A11238   1.964   5.377   6.505  0.7189 -1.4384 -1.5716
  110OSM   H15B11239   1.933   5.367   6.336  2.4115  1.4460  0.9738
  110OSM   H15C11240   1.790   5.354   6.454 -1.5311 -0.5233 -1.5787
  110OSM    C1411241   1.815   5.588   6.550  0.3281  0.3469  0.4199
  110OSM   H14A11242   1.890   5.595   6.627  1.9363 -0.0998 -1.0441
  110OSM   H14B11243   1.742   5.517   6.585  2.4586 -1.7156  0.9456
  110OSM   H14C11244   1.778   5.689   6.538  0.6123  0.3147 -0.8924
  110OSM    C1311245   2.013   5.601   6.410 -0.1886  0.2482  0.4608
  110OSM   H13A11246   2.001   5.707   6.394  0.2559  0.5576  1.9501
  110OSM   H13B11247   2.060   5.563   6.321  1.2201  2.7996  0.0405
  110OSM   H13C11248   2.084   5.586   6.490  0.4031  0.9310  0.0720
  110OSM    C1211249   1.795   5.581   6.303  0.6327 -0.2271 -0.4725
  110OSM   H12A11250   1.700   5.534   6.320  0.0766  1.1700  0.4160
  110OSM   H12B11251   1.836   5.538   6.213  0.2068 -0.7805 -0.4023
  110OSM    C1111252   1.754   5.734   6.278  0.2896  0.0879  0.2602
  110OSM   H11A11253   1.709   5.755   6.178 -0.1425  0.4825  0.5326
  110OSM   H11B11254   1.853   5.784   6.283  0.1085  0.5858 -0.8265
  110OSM      P11255   1.646   5.903   6.438 -0.2128  0.0863 -0.2610
  110OSM    O1311256   1.517   5.903   6.512 -0.2376 -0.4000 -0.1528
  110OSM    O1411257   1.771   5.942   6.503 -0.8988  0.4002 -0.1157
  110OSM    O1111258   1.630   5.992   6.308  0.3331  0.0183 -0.0598
  110OSM    O1211259   1.661   5.758   6.383 -0.0582 -0.9040  0.1235
  110OSM    C1S11260   1.708   6.106   6.272 -0.3720 -0.4252 -0.1227
  110OSM    H1S11261   1.803   6.102   6.329  0.7440 -2.2862 -2.0163
  110OSM    H1T11262   1.653   6.199   6.300 -1.5581 -0.6830 -1.4984
  110OSM     NF11263   1.857   6.207   6.095 -0.0861  0.3262  0.0229
  110OSM    HNF11264   1.827   6.292   6.053  0.9768  0.3764 -0.6578
  110OSM    C2S11265   1.749   6.113   6.122 -0.6964  0.5927  0.0936
  110OSM    H2S11266   1.783   6.008   6.107 -0.6453  0.7119 -0.6611
  110OSM    C3S11267   1.621   6.137   6.043 -0.3010 -0.0429  1.1097
  110OSM    H3S11268   1.585   6.234   6.082  1.1876  0.2772  1.7771
  110OSM     O311269   1.505   6.061   6.065  0.1928 -0.7665 -0.1532
  110OSM    HO311270   1.526   6.010   6.143 -0.3357  0.6735  0.9648
  110OSM    C4S11271   1.649   6.135   5.898  0.4694 -0.5392 -0.8171
  110OSM    H4S11272   1.647   6.240   5.863  2.6127  0.1699  1.0161
  110OSM    C5S11273   1.661   6.038   5.806  0.0736  0.2290 -0.2275
  110OSM    H5S11274   1.659   5.937   5.849 -0.4450  0.6901  0.8699
  110OSM    C6S11275   1.689   6.054   5.660 -0.0532  0.4425  0.3912
  110OSM    H6S11276   1.613   5.992   5.607  0.6472  0.6256 -0.8788
  110OSM    H6T11277   1.777   5.991   5.638 -0.4291 -0.0222  0.2071
  110OSM    C7S11278   1.690   6.196   5.584 -0.1318  0.1296 -0.2703
  110OSM    H7S11279   1.779   6.252   5.620 -0.7244  0.0722  1.3816
  110OSM    H7T11280   1.602   6.254   5.621  0.0583  0.9769 -1.1067
  110OSM    C8S11281   1.691   6.175   5.436  0.3202 -0.1200 -0.0601
  110OSM    H8S11282   1.599   6.114   5.419 -0.5037  0.8666  0.7691
  110OSM    H8T11283   1.785   6.124   5.407  2.1191  2.6629  0.5424
  110OSM    C9S11284   1.690   6.311   5.369 -0.4221 -0.4231  0.5542
  110OSM    H9S11285   1.737   6.394   5.426 -1.6991  1.4102 -0.8971
  110OSM    H9T11286   1.586   6.350   5.368  0.8766  3.4943  1.0542
  110OSM   C10S11287   1.752   6.321   5.230  0.1542 -0.1951 -0.0531
  110OSM   H10S11288   1.859   6.292   5.239  0.2213 -0.0960 -0.4935
  110OSM   H10T11289   1.751   6.427   5.198  0.6408  0.1038  0.9010
  110OSM   C11S11290   1.684   6.234   5.124 -0.6948  0.5555 -0.1096
  110OSM   H11S11291   1.666   6.136   5.171  0.2079  0.6819  0.5311
  110OSM   H11T11292   1.764   6.198   5.055  0.1209  0.6780  0.7454
  110OSM   C12S11293   1.557   6.286   5.057 -1.5167 -0.4932 -0.2402
  110OSM   H12S11294   1.591   6.382   5.013 -1.6820 -0.7005 -0.8179
  110OSM   H12T11295   1.474   6.312   5.127 -1.9629 -1.4981 -0.3782
  110OSM   C13S11296   1.495   6.201   4.941  0.0522 -0.7816  0.6150
  110OSM   H13S11297   1.432   6.119   4.980  0.5516 -0.7594  1.5032
  110OSM   H13T11298   1.578   6.149   4.889 -0.7934 -1.0396 -0.5182
  110OSM   C14S11299   1.410   6.280   4.835  0.3754  0.0932 -0.3056
  110OSM   H14S11300   1.365   6.206   4.766  0.5121  0.2178 -0.5303
  110OSM   H14T11301   1.476   6.336   4.766  0.1608 -1.5662 -1.9341
  110OSM   C15S11302   1.302   6.371   4.890  0.8361 -0.1307 -0.1266
  110OSM   H15S11303   1.344   6.454   4.951 -1.2801  1.8575 -1.2332
  110OSM   H15T11304   1.242   6.301   4.952  3.2838 -1.8523  0.4127
  110OSM   C16S11305   1.225   6.425   4.759 -0.4370  0.2629  0.3429
  110OSM   H16S11306   1.156   6.344   4.729  1.6486 -0.7638 -2.0538
  110OSM   H16T11307   1.300   6.435   4.678 -1.3921 -0.4547 -0.6569
  110OSM   C17S11308   1.150   6.556   4.790 -0.6802 -0.2784 -0.3990
  110OSM   H17S11309   1.224   6.634   4.819  0.5579 -1.4889 -0.2364
  110OSM   H17T11310   1.075   6.551   4.872 -1.5569  0.2155 -1.1500
  110OSM   C18S11311   1.086   6.597   4.654  0.0326  0.3242 -0.2608
  110OSM   H18S11312   1.167   6.588   4.579  0.1606  1.8570 -0.3298
  110OSM   H18T11313   1.052   6.703   4.651 -1.5681  0.1078  3.6244
  110OSM   H18U11314   1.003   6.525   4.633  0.6520 -1.0945  1.7616
  110OSM    C1F11315   1.981   6.189   6.130 -0.3251  0.0803  0.0342
  110OSM     OF11316   2.021   6.078   6.145 -0.9142 -0.2168  0.5465
  110OSM    C2F11317   2.050   6.316   6.152  0.4927  1.1592  0.7583
  110OSM    H2F11318   2.087   6.311   6.257 -0.8999 -1.2484  1.2165
  110OSM    H2G11319   1.973   6.396   6.140 -0.1499  0.0989 -5.5337
  110OSM    C3F11320   2.164   6.331   6.051 -0.0939  0.0499  0.5416
  110OSM    H3F11321   2.242   6.252   6.062 -1.0510 -0.8593  1.0108
  110OSM    H3G11322   2.217   6.425   6.076 -1.1935  0.7879  0.1432
  110OSM    C4F11323   2.123   6.352   5.904  0.2887  0.1619 -0.3370
  110OSM    H4F11324   2.078   6.453   5.893 -0.5817 -0.2909 -1.1358
  110OSM    H4G11325   2.052   6.278   5.861  1.4500 -0.5020 -1.1812
  110OSM    C5F11326   2.245   6.353   5.809 -0.2262 -0.5081 -0.2350
  110OSM    H5F11327   2.277   6.247   5.797 -1.8651 -1.2903  1.6373
  110OSM    H5G11328   2.325   6.416   5.854 -1.6111  1.4615 -0.3995
  110OSM    C6F11329   2.215   6.399   5.670 -0.2380 -0.5117 -0.0991
  110OSM    H6F11330   2.138   6.478   5.682  0.9475  0.4794  1.5021
  110OSM    H6G11331   2.168   6.313   5.618 -2.2475 -1.3544  2.8937
  110OSM    C7F11332   2.333   6.452   5.583 -0.2481  0.2582 -0.1908
  110OSM    H7F11333   2.393   6.527   5.639  0.3880  0.4174 -1.0724
  110OSM    H7G11334   2.291   6.512   5.500  1.8664  1.1559 -0.6736
  110OSM    C8F11335   2.433   6.339   5.533 -0.5811 -0.5376 -0.1469
  110OSM    H8F11336   2.372   6.281   5.461 -0.7793  0.9926 -1.2637
  110OSM    H8G11337   2.468   6.266   5.609  0.8248 -3.1438 -3.0710
  110OSM    C9F11338   2.560   6.389   5.484 -0.0624 -0.5609 -0.0233
  110OSM    H9F11339   2.653   6.378   5.542  0.6686  0.6729 -0.9060
  110OSM   C10F11340   2.581   6.470   5.375 -0.5021  0.0916 -0.5132
  110OSM   H10F11341   2.684   6.501   5.352 -1.7700  4.6518 -0.9994
  110OSM   C11F11342   2.483   6.514   5.265  0.4704  1.3356 -0.3645
  110OSM   H11F11343   2.492   6.623   5.244  1.0816  1.3910  0.1846
  110OSM   H11G11344   2.383   6.494   5.310  0.4297  0.4241 -0.8455
  110OSM   C12F11345   2.502   6.430   5.136  0.1133  0.3556 -0.6946
  110OSM   H12F11346   2.507   6.320   5.151 -1.1180 -0.0239 -2.6379
  110OSM   H12G11347   2.597   6.451   5.083  0.2950  0.3630 -0.3665
  110OSM   C13F11348   2.378   6.428   5.037  0.5619  0.4252  0.3253
  110OSM   H13F11349   2.285   6.413   5.096  0.0401 -3.1789 -1.1500
  110OSM   H13G11350   2.391   6.339   4.972  2.9962  1.8707 -1.3532
  110OSM   C14F11351   2.375   6.555   4.944 -0.0684  0.3192  0.1601
  110OSM   H14F11352   2.454   6.544   4.866 -1.5719  0.4757 -1.4323
  110OSM   H14G11353   2.383   6.649   5.002  0.0976  0.3261  0.1269
  110OSM   C15F11354   2.242   6.552   4.873  0.1635  0.0633  0.2860
  110OSM   H15F11355   2.167   6.593   4.943  0.5692  0.9288  0.2196
  110OSM   H15G11356   2.210   6.455   4.830 -2.3409  1.3407 -0.8646
  110OSM   C16F11357   2.223   6.649   4.754  0.0494  0.3628  0.1404
  110OSM   H16F11358   2.127   6.638   4.698  1.0573  0.5541 -1.6748
  110OSM   H16G11359   2.308   6.623   4.688 -1.6399 -0.6246 -1.7848
  110OSM   C17F11360   2.234   6.799   4.786 -0.0071  0.2028 -0.5801
  110OSM   H17F11361   2.239   6.855   4.690 -0.3543 -1.2111 -1.4563
  110OSM   H17G11362   2.330   6.819   4.839 -0.8621  1.2568  0.6249
  110OSM   C18F11363   2.123   6.865   4.875 -0.4105  0.3192  0.1643
  110OSM   H18F11364   2.119   6.976   4.882 -1.1585  0.3080  0.0020
  110OSM   H18G11365   2.141   6.821   4.975  1.6660 -1.9986 -1.1211
  110OSM   H18H11366   2.030   6.824   4.831  0.1890 -1.4783  0.4881
  111OSM      N11367   1.354   4.389   6.828  0.1684  0.2227 -0.1767
  111OSM    C1511368   1.306   4.502   6.916  0.4150  0.3803 -0.1301
  111OSM   H15A11369   1.203   4.480   6.942  0.7217 -1.1512 -0.1075
  111OSM   H15B11370   1.308   4.600   6.870  1.1332 -0.2284 -1.4465
  111OSM   H15C11371   1.370   4.508   7.002 -2.4204  1.3147  2.0682
  111OSM    C1411372   1.495   4.420   6.791  0.1170  0.1912  0.9234
  111OSM   H14A11373   1.509   4.521   6.753 -2.6107  0.5185  0.5800
  111OSM   H14B11374   1.520   4.360   6.705 -3.2314  1.6558 -1.2843
  111OSM   H14C11375   1.568   4.408   6.869  0.1662  0.7181  0.9613
  111OSM    C1311376   1.354   4.256   6.909 -0.0235 -0.6133  0.5550
  111OSM   H13A11377   1.250   4.224   6.913 -0.2670 -0.3794 -2.1348
  111OSM   H13B11378   1.397   4.266   7.008  0.1573  0.5012  0.3712
  111OSM   H13C11379   1.399   4.178   6.850 -0.6336  0.1845 -1.0320
  111OSM    C1211380   1.265   4.381   6.701  0.2210  0.5381 -0.2350
  111OSM   H12A11381   1.266   4.474   6.646 -2.0842 -0.2600 -1.7707
  111OSM   H12B11382   1.162   4.370   6.731 -0.1576  0.4884 -1.4864
  111OSM    C1111383   1.307   4.277   6.587  0.1320 -0.3792 -0.3156
  111OSM   H11A11384   1.416   4.293   6.573  1.0337 -3.6533  1.8050
  111OSM   H11B11385   1.246   4.290   6.495 -1.8669 -1.3917  0.7790
  111OSM      P11386   1.156   4.070   6.639  0.0450  0.1368  0.0272
  111OSM    O1311387   1.172   3.938   6.702  0.3870 -0.0463  0.3305
  111OSM    O1411388   1.044   4.161   6.673 -0.3858  0.5659  0.1657
  111OSM    O1111389   1.163   4.043   6.490 -0.9049  0.5150 -0.1889
  111OSM    O1211390   1.289   4.152   6.641 -0.1471  0.0612 -0.0758
  111OSM    C1S11391   1.261   3.976   6.413 -0.3316 -0.1885  0.1950
  111OSM    H1S11392   1.289   3.882   6.465 -0.8355 -0.8915 -0.7681
  111OSM    H1T11393   1.345   4.047   6.401 -1.2338  1.3543  2.4271
  111OSM     NF11394   1.319   3.901   6.191 -0.2553  0.0865  0.3212
  111OSM    HNF11395   1.388   3.962   6.152  0.5551 -1.7177 -1.2859
  111OSM    C2S11396   1.214   3.954   6.267 -0.4345  0.5966  0.6982
  111OSM    H2S11397   1.135   3.876   6.267 -1.2307  1.3803  1.3857
  111OSM    C3S11398   1.143   4.075   6.198 -0.6010 -0.4838  0.2801
  111OSM    H3S11399   1.222   4.153   6.200 -0.3614 -0.7305  0.7270
  111OSM     O311400   1.028   4.131   6.260 -0.3102  0.5526  0.3447
  111OSM    HO311401   1.015   4.074   6.337  0.1407 -0.4229 -0.2868
  111OSM    C4S11402   1.108   4.031   6.060  0.4506 -0.0121 -0.4972
  111OSM    H4S11403   1.091   3.923   6.049 -3.0811  0.4426 -0.7224
  111OSM    C5S11404   1.110   4.104   5.947 -0.2728  0.1013  0.2289
  111OSM    H5S11405   1.136   4.211   5.936  0.5220 -0.3665 -4.4205
  111OSM    C6S11406   1.120   4.036   5.809 -0.1842 -0.1337 -0.0483
  111OSM    H6S11407   1.044   4.069   5.734 -1.3424 -0.4372  0.9575
  111OSM    H6T11408   1.125   3.926   5.805 -0.6678 -0.1519 -0.2527
  111OSM    C7S11409   1.260   4.082   5.758 -0.0709 -0.0127 -0.2603
  111OSM    H7S11410   1.341   4.055   5.830 -0.5852  2.1858  1.2375
  111OSM    H7T11411   1.274   4.192   5.755  2.5006 -0.2698 -0.3589
  111OSM    C8S11412   1.301   4.011   5.625 -0.0977 -0.1248  0.0328
  111OSM    H8S11413   1.266   3.906   5.625  2.8777 -1.2323 -1.7852
  111OSM    H8T11414   1.411   4.006   5.609  0.1782 -0.1897  1.7333
  111OSM    C9S11415   1.257   4.095   5.506 -0.2127 -0.7859  0.0371
  111OSM    H9S11416   1.319   4.185   5.484 -1.6226 -0.2822 -2.1731
  111OSM    H9T11417   1.155   4.136   5.518 -0.2433 -0.5315 -1.0569
  111OSM   C10S11418   1.255   4.020   5.370  0.0792  0.0481  0.4478
  111OSM   H10S11419   1.193   3.931   5.395 -2.1187  1.2929 -0.3421
  111OSM   H10T11420   1.356   3.982   5.344  0.6412  0.9797  1.1957
  111OSM   C11S11421   1.188   4.091   5.249 -0.6359  0.1418  0.5648
  111OSM   H11S11422   1.246   4.186   5.246 -2.3994  1.4029  2.8137
  111OSM   H11T11423   1.081   4.105   5.276 -0.2605  1.0671  1.6902
  111OSM   C12S11424   1.192   4.022   5.120 -0.2779  0.0004  1.5658
  111OSM   H12S11425   1.134   3.927   5.116  0.1933 -0.2629 -1.1982
  111OSM   H12T11426   1.295   3.995   5.090 -0.5719 -1.3923  1.7364
  111OSM   C13S11427   1.139   4.121   5.011  0.3026 -0.3015  0.1337
  111OSM   H13S11428   1.194   4.218   5.013 -2.0688  1.1122  1.0683
  111OSM   H13T11429   1.033   4.142   5.038 -0.3211 -0.8472 -1.7554
  111OSM   C14S11430   1.132   4.059   4.875 -0.1280  0.1620 -0.0096
  111OSM   H14S11431   1.111   3.951   4.886  1.5210 -0.3658 -1.5234
  111OSM   H14T11432   1.231   4.075   4.826 -0.5902 -0.5070 -1.1948
  111OSM   C15S11433   1.030   4.123   4.789 -0.1604  0.6463 -0.6321
  111OSM   H15S11434   1.063   4.227   4.768  1.5485 -0.1355 -2.0520
  111OSM   H15T11435   0.937   4.123   4.850 -0.7670 -1.2195 -1.4660
  111OSM   C16S11436   1.011   4.042   4.656 -0.9073  0.3036  0.3576
  111OSM   H16S11437   0.915   4.070   4.608 -0.8474 -2.2789 -1.4567
  111OSM   H16T11438   1.003   3.933   4.676 -0.4803  0.5737  2.1949
  111OSM   C17S11439   1.125   4.053   4.550  0.1538 -0.0819 -0.0557
  111OSM   H17S11440   1.218   4.008   4.592  0.3251  0.4374  0.1276
  111OSM   H17T11441   1.143   4.162   4.546 -1.5002  0.4944  3.7996
  111OSM   C18S11442   1.088   4.001   4.411  1.0430 -0.8267 -0.1777
  111OSM   H18S11443   1.102   3.891   4.411  1.1243 -0.8255 -1.3041
  111OSM   H18T11444   1.154   4.037   4.329 -0.3626 -0.5157 -1.2227
  111OSM   H18U11445   0.983   4.026   4.384  2.1913  1.2239 -3.2556
  111OSM    C1F11446   1.359   3.777   6.207  0.1882  0.1337  0.0352
  111OSM     OF11447   1.297   3.697   6.273  0.1232 -0.5637 -0.2558
  111OSM    C2F11448   1.487   3.729   6.152 -0.9214 -0.1335 -0.4780
  111OSM    H2F11449   1.544   3.699   6.243 -1.7166  0.3806  0.2017
  111OSM    H2G11450   1.539   3.808   6.093  0.0921 -1.5811 -1.5960
  111OSM    C3F11451   1.474   3.607   6.065 -0.0505  0.2339 -0.0356
  111OSM    H3F11452   1.390   3.539   6.088  0.2425 -0.4706 -0.9774
  111OSM    H3G11453   1.565   3.543   6.072  0.3949  0.8246 -0.2376
  111OSM    C4F11454   1.464   3.656   5.916  0.6080 -0.5276 -0.3175
  111OSM    H4F11455   1.549   3.724   5.898  0.2243  0.0211 -0.0821
  111OSM    H4G11456   1.365   3.706   5.905  0.7094 -0.0487  0.8342
  111OSM    C5F11457   1.477   3.546   5.814  1.0765  0.4243 -0.3417
  111OSM    H5F11458   1.387   3.545   5.750  0.6912 -0.0149  0.1970
  111OSM    H5G11459   1.479   3.453   5.874  1.2267  0.7542  0.1735
  111OSM    C6F11460   1.594   3.561   5.713 -0.1726 -0.1695  0.5445
  111OSM    H6F11461   1.608   3.468   5.654  0.4355 -1.3165  2.4334
  111OSM    H6G11462   1.686   3.562   5.775 -0.1770 -2.0746  0.6252
  111OSM    C7F11463   1.592   3.696   5.629 -0.3456  0.5886  0.6861
  111OSM    H7F11464   1.610   3.783   5.697  3.1217 -0.0564  0.7630
  111OSM    H7G11465   1.487   3.700   5.592  0.0096 -1.4464 -0.6874
  111OSM    C8F11466   1.687   3.691   5.509 -0.3046 -1.0809 -0.0311
  111OSM    H8F11467   1.791   3.671   5.544 -1.1502 -1.0387  2.6801
  111OSM    H8G11468   1.693   3.793   5.464  0.1885  0.2661  2.9038
  111OSM    C9F11469   1.636   3.594   5.407  0.0971 -0.0002 -0.5093
  111OSM    H9F11470   1.604   3.494   5.441  2.3210 -0.3852  0.6579
  111OSM   C10F11471   1.610   3.626   5.280 -0.2010  0.1879  0.5994
  111OSM   H10F11472   1.580   3.547   5.210  0.8169  1.7709 -1.7463
  111OSM   C11F11473   1.627   3.758   5.216  0.3950 -0.3593 -0.2700
  111OSM   H11F11474   1.577   3.830   5.285  2.7576  1.3367 -0.2108
  111OSM   H11G11475   1.567   3.776   5.124 -1.0054  0.7474  0.8165
  111OSM   C12F11476   1.774   3.802   5.203  0.7963  0.0595  0.1618
  111OSM   H12F11477   1.822   3.787   5.302  0.6572 -1.1258  0.0621
  111OSM   H12G11478   1.786   3.908   5.169 -0.3113 -0.5680 -2.4323
  111OSM   C13F11479   1.851   3.711   5.105  0.3875 -0.4263  0.5753
  111OSM   H13F11480   1.833   3.605   5.132 -2.5569 -0.6213 -1.7215
  111OSM   H13G11481   1.961   3.726   5.114  0.5878 -0.4573 -1.3691
  111OSM   C14F11482   1.832   3.758   4.957  0.6512 -0.1421  1.0441
  111OSM   H14F11483   1.864   3.862   4.934 -0.2617 -0.3345 -1.4110
  111OSM   H14G11484   1.725   3.768   4.931  1.1401  0.9343 -0.6951
  111OSM   C15F11485   1.888   3.665   4.853  0.3929  0.5404  0.7372
  111OSM   H15F11486   1.868   3.562   4.892 -1.3061  0.6874  0.3115
  111OSM   H15G11487   1.999   3.673   4.842  0.3327  0.1436 -0.3466
  111OSM   C16F11488   1.839   3.689   4.716  0.3718 -0.1099  0.1345
  111OSM   H16F11489   1.847   3.797   4.693 -2.4912  0.5284  1.6288
  111OSM   H16G11490   1.728   3.677   4.714  0.1301  1.9086 -1.0231
  111OSM   C17F11491   1.904   3.611   4.606  0.3285 -0.4607  0.0524
  111OSM   H17F11492   1.928   3.509   4.644  0.8876 -0.6241 -0.7259
  111OSM   H17G11493   2.002   3.659   4.586 -0.1086 -0.1934 -1.5574
  111OSM   C18F11494   1.831   3.611   4.466 -0.2740  0.2292  0.3259
  111OSM   H18F11495   1.726   3.574   4.466  0.2196 -1.4798 -2.6275
  111OSM   H18G11496   1.881   3.550   4.388  0.6222  0.8420  0.4129
  111OSM   H18H11497   1.838   3.708   4.412  0.1029  0.7689  1.3174
  112OSM      N11498   3.336   0.884   6.509  0.7707 -0.1560 -0.5157
  112OSM    C1511499   3.215   0.816   6.580 -0.3354 -0.2998  0.6656
  112OSM   H15A11500   3.220   0.835   6.686  0.0371  0.2696  0.5542
  112OSM   H15B11501   3.215   0.713   6.548  0.7135 -0.0246 -0.2707
  112OSM   H15C11502   3.116   0.850   6.551 -1.0295 -0.2432  2.9257
  112OSM    C1411503   3.453   0.825   6.569 -0.4683  0.2062  0.1550
  112OSM   H14A11504   3.457   0.847   6.675 -1.2327 -1.7919  0.6544
  112OSM   H14B11505   3.547   0.863   6.531  1.7696 -2.4838  2.5077
  112OSM   H14C11506   3.462   0.717   6.562  0.9187  0.4342 -2.9720
  112OSM    C1311507   3.336   0.840   6.359  0.6706  0.0160 -0.7658
  112OSM   H13A11508   3.246   0.877   6.311 -0.3415 -1.5991 -0.1943
  112OSM   H13B11509   3.335   0.734   6.338  0.9450 -0.0256 -0.5640
  112OSM   H13C11510   3.427   0.869   6.308  0.0172 -1.7021 -3.1254
  112OSM    C1211511   3.350   1.031   6.540  0.8051  0.1461  0.0040
  112OSM   H12A11512   3.261   1.083   6.508 -0.3811 -2.1819 -0.6826
  112OSM   H12B11513   3.438   1.069   6.491  1.1064 -0.2320  0.2481
  112OSM    C1111514   3.362   1.074   6.689  0.4790 -0.5684  0.7464
  112OSM   H11A11515   3.380   1.183   6.702 -0.8586 -0.4540  1.9496
  112OSM   H11B11516   3.449   1.030   6.741 -0.2493 -2.5247  0.3838
  112OSM      P11517   3.107   1.133   6.759  0.6912  0.1059 -0.2490
  112OSM    O1311518   3.014   1.076   6.855 -0.2524 -0.0434 -0.2015
  112OSM    O1411519   3.127   1.278   6.785 -0.2048  1.0215  0.1019
  112OSM    O1111520   3.071   1.111   6.605 -0.1348  0.1273  0.1441
  112OSM    O1211521   3.242   1.045   6.763 -0.2926 -0.1550  0.0943
  112OSM    C1S11522   3.019   1.216   6.523  0.3010 -0.5181 -0.5408
  112OSM    H1S11523   3.073   1.308   6.553 -0.8352  0.1006 -0.3425
  112OSM    H1T11524   2.912   1.236   6.549  0.8264  4.1492 -1.1326
  112OSM     NF11525   3.011   1.315   6.294 -0.1889 -0.0771  0.5795
  112OSM    HNF11526   2.937   1.307   6.228  0.4651  2.1496 -0.5471
  112OSM    C2S11527   3.037   1.195   6.371 -0.8094 -1.0769  0.9679
  112OSM    H2S11528   3.146   1.175   6.364 -0.3396  1.5337 -0.1143
  112OSM    C3S11529   2.965   1.071   6.326  0.2228 -0.1487 -0.5661
  112OSM    H3S11530   2.855   1.087   6.337  0.0881 -0.7138 -1.0628
  112OSM     O311531   2.982   0.958   6.413 -0.0492  0.1080  0.4458
  112OSM    HO311532   2.993   1.007   6.495 -1.6593  3.5019 -1.1332
  112OSM    C4S11533   3.004   1.032   6.192 -0.2433 -0.3060  0.3336
  112OSM    H4S11534   3.112   1.031   6.174 -0.0406 -1.0454  1.5260
  112OSM    C5S11535   2.908   0.998   6.103 -0.4307 -0.0409  0.8887
  112OSM    H5S11536   2.804   1.009   6.139 -0.4735 -2.6295  1.7334
  112OSM    C6S11537   2.930   0.965   5.964  0.2377  0.1226 -0.2436
  112OSM    H6S11538   2.933   1.053   5.897  1.6395  0.0707 -0.2793
  112OSM    H6T11539   2.841   0.908   5.930 -0.8492  2.0142 -0.7146
  112OSM    C7S11540   3.050   0.869   5.939 -1.0685  0.3877 -0.2229
  112OSM    H7S11541   3.035   0.786   6.011 -0.6097 -1.2221 -1.8971
  112OSM    H7T11542   3.135   0.931   5.973 -1.6015  0.8263  0.3383
  112OSM    C8S11543   3.059   0.810   5.799  0.1159 -0.5688 -0.0961
  112OSM    H8S11544   2.963   0.766   5.764 -0.0675 -0.3540  0.1354
  112OSM    H8T11545   3.139   0.733   5.807 -0.5426 -1.0570  2.4636
  112OSM    C9S11546   3.103   0.909   5.688  0.4331  0.3592 -0.4475
  112OSM    H9S11547   3.205   0.945   5.714 -0.1225  1.6340  0.0739
  112OSM    H9T11548   3.041   1.001   5.694  0.6317  0.5349 -1.1170
  112OSM   C10S11549   3.085   0.850   5.542 -0.1214  0.4422 -0.3561
  112OSM   H10S11550   3.108   0.931   5.470  0.4202 -0.8005 -1.6225
  112OSM   H10T11551   2.982   0.809   5.530 -0.1941  0.2657  0.7989
  112OSM   C11S11552   3.175   0.728   5.525 -0.1374 -1.5649  0.2515
  112OSM   H11S11553   3.138   0.649   5.593 -0.8475  0.2294  2.0400
  112OSM   H11T11554   3.280   0.758   5.546 -1.0211  2.3835 -0.1637
  112OSM   C12S11555   3.168   0.673   5.380 -0.1093 -0.1601  0.3089
  112OSM   H12S11556   3.063   0.652   5.350  1.2351 -1.2522 -4.5264
  112OSM   H12T11557   3.226   0.579   5.370 -0.1460 -0.2805  1.1184
  112OSM   C13S11558   3.234   0.771   5.272 -0.5261  0.0064 -0.7285
  112OSM   H13S11559   3.290   0.696   5.212 -1.6903 -1.4497 -0.0487
  112OSM   H13T11560   3.316   0.837   5.309 -0.0269 -2.1740  2.5308
  112OSM   C14S11561   3.139   0.832   5.170 -0.4297  0.4752 -0.7443
  112OSM   H14S11562   3.062   0.896   5.219  0.7503  1.4880 -0.1617
  112OSM   H14T11563   3.086   0.755   5.110 -3.6336  2.8536 -1.2337
  112OSM   C15S11564   3.203   0.940   5.074 -0.1331 -0.9513 -0.1385
  112OSM   H15S11565   3.302   0.913   5.031 -0.1683  0.7818 -1.4295
  112OSM   H15T11566   3.217   1.032   5.135  2.4869 -0.3419 -1.5096
  112OSM   C16S11567   3.116   0.970   4.950  0.2645 -0.8523 -0.2522
  112OSM   H16S11568   3.070   0.876   4.913 -1.1829 -0.1492 -0.3002
  112OSM   H16T11569   3.184   1.015   4.874  0.0831 -0.4893 -0.2029
  112OSM   C17S11570   3.001   1.067   4.973 -0.4082 -0.5454 -0.2816
  112OSM   H17S11571   3.041   1.151   5.033  0.6233 -0.7038 -0.7267
  112OSM   H17T11572   2.930   1.015   5.041  1.5938 -0.9339  1.6267
  112OSM   C18S11573   2.944   1.121   4.844  0.1388  0.0098 -0.0334
  112OSM   H18S11574   2.891   1.044   4.784  0.9895 -1.7300  1.3718
  112OSM   H18T11575   3.027   1.156   4.778  0.9061 -2.4410 -0.4615
  112OSM   H18U11576   2.873   1.204   4.864  1.8284  1.3677  0.6106
  112OSM    C1F11577   3.084   1.426   6.300 -0.0390 -0.5315 -0.2473
  112OSM     OF11578   3.181   1.438   6.372 -0.1702 -0.6932 -0.5213
  112OSM    C2F11579   3.054   1.526   6.186 -0.2242 -0.2219 -0.2189
  112OSM    H2F11580   3.047   1.469   6.091 -0.4468 -0.4429 -0.0675
  112OSM    H2G11581   3.136   1.602   6.182  0.8705 -1.3695 -0.2573
  112OSM    C3F11582   2.924   1.604   6.210  0.4794 -0.6105  0.0112
  112OSM    H3F11583   2.906   1.643   6.312  0.3163 -0.4264 -0.0876
  112OSM    H3G11584   2.831   1.552   6.179  1.1386 -1.5605 -0.4303
  112OSM    C4F11585   2.920   1.728   6.115  0.0937 -0.0369  0.1525
  112OSM    H4F11586   2.996   1.804   6.142  0.1594 -0.1356  0.2458
  112OSM    H4G11587   2.824   1.779   6.138  0.3720 -0.7722  3.3969
  112OSM    C5F11588   2.936   1.686   5.970 -0.1778 -0.1474  0.2201
  112OSM    H5F11589   2.849   1.626   5.933 -0.3744  0.7078 -0.7617
  112OSM    H5G11590   3.029   1.632   5.942 -1.1964 -1.0904 -1.5884
  112OSM    C6F11591   2.924   1.798   5.866 -0.4524  0.8981 -0.0129
  112OSM    H6F11592   2.982   1.890   5.892  1.0934  0.4151 -1.5531
  112OSM    H6G11593   2.824   1.847   5.866  0.2853  2.5558  1.8151
  112OSM    C7F11594   2.955   1.747   5.723 -0.2859 -0.3416 -0.0709
  112OSM    H7F11595   2.955   1.637   5.738 -2.3570  0.0247  4.0815
  112OSM    H7G11596   3.060   1.774   5.703 -0.2930 -1.6117 -2.0230
  112OSM    C8F11597   2.851   1.785   5.614 -0.1041 -0.3780  0.9169
  112OSM    H8F11598   2.749   1.758   5.648 -2.4813 -0.2251 -4.9008
  112OSM    H8G11599   2.884   1.728   5.525  0.5794 -0.2306  1.0698
  112OSM    C9F11600   2.862   1.933   5.584 -0.1864 -0.4700  0.7921
  112OSM    H9F11601   2.819   1.993   5.664  0.0368 -0.5538  0.9762
  112OSM   C10F11602   2.900   2.002   5.473  0.8082  0.0271 -0.6044
  112OSM   H10F11603   2.905   2.111   5.471 -2.1525  0.3850  2.4286
  112OSM   C11F11604   2.973   1.939   5.359 -0.3758  0.5697 -0.7535
  112OSM   H11F11605   2.920   1.955   5.263 -1.1068  0.2015 -0.4229
  112OSM   H11G11606   2.986   1.829   5.361 -0.1757  0.6009 -0.0745
  112OSM   C12F11607   3.123   1.985   5.344  0.2781  0.2039  0.1522
  112OSM   H12F11608   3.180   1.977   5.439  0.7860  0.7122 -0.1054
  112OSM   H12G11609   3.132   2.091   5.311  0.6541 -0.3788 -1.7643
  112OSM   C13F11610   3.188   1.900   5.235  0.1060  0.1310 -0.4754
  112OSM   H13F11611   3.202   1.795   5.271  0.0608  0.3757  0.2715
  112OSM   H13G11612   3.290   1.942   5.222  0.2112  0.1202  0.2648
  112OSM   C14F11613   3.118   1.895   5.101 -0.0245 -0.2974  0.3938
  112OSM   H14F11614   3.012   1.864   5.101 -0.2579  0.1478 -2.6679
  112OSM   H14G11615   3.171   1.820   5.038  0.2651 -0.1085  0.4057
  112OSM   C15F11616   3.122   2.033   5.034  0.3257 -0.3627  0.5311
  112OSM   H15F11617   3.228   2.065   5.029  0.4085 -0.6108  0.6758
  112OSM   H15G11618   3.075   2.107   5.102  3.0631  0.6802  1.3888
  112OSM   C16F11619   3.057   2.041   4.893 -0.1865 -0.1698  0.3091
  112OSM   H16F11620   2.950   2.013   4.904 -0.0471 -2.6686 -2.9298
  112OSM   H16G11621   3.106   1.966   4.826  2.0384  0.6901  0.8969
  112OSM   C17F11622   3.065   2.174   4.831 -0.7868  0.4781 -0.6508
  112OSM   H17F11623   3.167   2.199   4.797 -0.1688 -0.3890  0.5071
  112OSM   H17G11624   3.040   2.250   4.908  2.2865 -0.2050  1.1652
  112OSM   C18F11625   2.978   2.204   4.710 -0.0651 -0.0473 -0.4716
  112OSM   H18F11626   3.007   2.307   4.678  2.7169 -0.6343 -0.1212
  112OSM   H18G11627   2.872   2.191   4.737  0.1230 -1.0907 -0.2065
  112OSM   H18H11628   3.005   2.138   4.625 -0.7386  2.3742 -2.7194
  113OSM      N11629   0.285   1.947   6.812  0.1623 -0.0527  0.0956
  113OSM    C1511630   0.152   1.931   6.871 -0.3350  0.2383  0.0504
  113OSM   H15A11631   0.156   1.871   6.960  0.4991 -1.3920 -1.0193
  113OSM   H15B11632   0.092   1.878   6.798  2.0997 -0.3670 -1.6516
  113OSM   H15C11633   0.097   2.017   6.904 -0.4149 -0.0138  0.5805
  113OSM    C1411634   0.359   2.042   6.897 -0.9561  0.3002 -0.2861
  113OSM   H14A11635   0.456   2.062   6.854 -0.9692  1.1942  0.0741
  113OSM   H14B11636   0.376   2.000   6.995  0.2488 -0.4780 -0.8005
  113OSM   H14C11637   0.310   2.138   6.906 -0.6662  0.6661 -2.0869
  113OSM    C1311638   0.356   1.816   6.814 -0.0598 -0.3793 -0.4020
  113OSM   H13A11639   0.295   1.742   6.765  2.0797 -1.6972 -1.1945
  113OSM   H13B11640   0.380   1.795   6.918  2.0188  0.2937 -0.6967
  113OSM   H13C11641   0.451   1.823   6.764 -0.2862  1.2605 -0.6462
  113OSM    C1211642   0.272   1.998   6.667 -0.1953  0.2423 -0.1715
  113OSM   H12A11643   0.213   2.088   6.665  0.8128  1.1439  3.7684
  113OSM   H12B11644   0.216   1.924   6.611  1.6082 -0.9173 -0.5667
  113OSM    C1111645   0.397   2.046   6.587  0.4974 -0.6632 -0.3557
  113OSM   H11A11646   0.451   2.124   6.646 -1.0941 -0.3892  0.8102
  113OSM   H11B11647   0.369   2.095   6.492 -0.2131  0.7317  0.5356
  113OSM      P11648   0.438   1.806   6.466 -0.1462 -0.3154  0.0355
  113OSM    O1311649   0.550   1.708   6.470  0.3885  0.2928  0.4048
  113OSM    O1411650   0.298   1.759   6.494  0.5569 -0.5386  0.0142
  113OSM    O1111651   0.435   1.873   6.327  0.8782  0.2104 -0.0442
  113OSM    O1211652   0.474   1.924   6.567  0.2863  0.1216  0.0171
  113OSM    C1S11653   0.554   1.924   6.266 -0.5417 -0.2445 -0.5861
  113OSM    H1S11654   0.636   1.850   6.276  0.2287  0.7330  0.6034
  113OSM    H1T11655   0.588   2.019   6.313 -0.8180 -0.8142  0.8197
  113OSM     NF11656   0.647   1.976   6.049 -0.6625  0.1705  0.4789
  113OSM    HNF11657   0.698   2.060   6.031  1.5163 -1.1016  0.3506
  113OSM    C2S11658   0.524   1.974   6.123 -0.4687 -0.2557  0.0060
  113OSM    H2S11659   0.451   1.904   6.078 -0.4445 -0.3508  0.1119
  113OSM    C3S11660   0.448   2.114   6.124 -0.1459 -0.6833 -0.2206
  113OSM    H3S11661   0.512   2.191   6.171  0.9453 -1.0391 -1.0748
  113OSM     O311662   0.329   2.116   6.207  0.3323 -0.4448  0.8052
  113OSM    HO311663   0.331   2.032   6.255  2.2726  0.2589  2.1060
  113OSM    C4S11664   0.407   2.149   5.981  0.0310 -0.0682 -0.5420
  113OSM    H4S11665   0.493   2.188   5.923 -0.0277 -1.8896 -1.9534
  113OSM    C5S11666   0.294   2.124   5.906 -0.1406 -0.0772  0.1484
  113OSM    H5S11667   0.214   2.081   5.968  0.3342  1.4571  1.9134
  113OSM    C6S11668   0.271   2.144   5.755 -0.4124  0.1725  0.3660
  113OSM    H6S11669   0.185   2.211   5.737 -1.4520 -1.2850 -0.2786
  113OSM    H6T11670   0.250   2.045   5.710  0.9481  0.7704 -1.7265
  113OSM    C7S11671   0.390   2.200   5.673 -0.5238  0.2104  0.4394
  113OSM    H7S11672   0.442   2.286   5.719 -1.4428  0.1123  1.7003
  113OSM    H7T11673   0.337   2.237   5.582 -3.4672  0.0705  1.9804
  113OSM    C8S11674   0.488   2.091   5.617  1.4189 -0.0299  0.1553
  113OSM    H8S11675   0.436   2.010   5.561 -1.1539  1.1194  0.7458
  113OSM    H8T11676   0.517   2.036   5.708  0.8664  0.8223  0.8652
  113OSM    C9S11677   0.608   2.129   5.529 -0.0884 -0.2235  0.0437
  113OSM    H9S11678   0.689   2.175   5.590  1.0106 -1.0428 -0.7486
  113OSM    H9T11679   0.588   2.202   5.449 -1.4047 -1.4156 -0.7606
  113OSM   C10S11680   0.665   2.006   5.464 -0.2577 -0.2310  0.4303
  113OSM   H10S11681   0.584   1.955   5.408 -2.3570  0.7841  2.3859
  113OSM   H10T11682   0.700   1.940   5.546  0.2637  1.0016  1.2325
  113OSM   C11S11683   0.782   2.041   5.368  0.7542 -0.4103  0.1936
  113OSM   H11S11684   0.858   2.105   5.420 -2.4779  2.3039  1.9601
  113OSM   H11T11685   0.740   2.088   5.277  0.8471 -0.9486 -0.1293
  113OSM   C12S11686   0.838   1.904   5.321  0.2810 -0.2919  1.1487
  113OSM   H12S11687   0.766   1.861   5.248 -0.0868  0.6010  0.9677
  113OSM   H12T11688   0.841   1.833   5.406  2.4637 -1.5327  0.1211
  113OSM   C13S11689   0.970   1.903   5.244  0.1647  0.1270 -0.4830
  113OSM   H13S11690   1.004   1.798   5.234  0.0440  0.1628 -1.3120
  113OSM   H13T11691   1.037   1.964   5.308  1.2284  0.4701 -1.8881
  113OSM   C14S11692   0.956   1.969   5.110 -0.1559 -0.2403 -0.2279
  113OSM   H14S11693   0.895   2.061   5.108 -2.1007 -1.4520 -2.5158
  113OSM   H14T11694   0.898   1.892   5.054  0.4250 -0.3832 -0.6358
  113OSM   C15S11695   1.092   2.002   5.034 -0.2875 -0.4942 -0.3157
  113OSM   H15S11696   1.149   1.913   4.999  0.6985  0.2325 -0.6290
  113OSM   H15T11697   1.162   2.054   5.103 -0.7458  0.2961 -0.4304
  113OSM   C16S11698   1.073   2.100   4.923  0.5727  0.8279  0.0714
  113OSM   H16S11699   1.170   2.146   4.897  1.4812 -0.5303  0.9507
  113OSM   H16T11700   1.000   2.179   4.952  1.1712  0.7634  1.9294
  113OSM   C17S11701   1.003   2.029   4.796 -0.7362  0.3886 -0.1838
  113OSM   H17S11702   0.969   2.112   4.730 -1.8003  0.4304  0.3839
  113OSM   H17T11703   0.912   1.966   4.810 -1.4200  1.5923  1.0686
  113OSM   C18S11704   1.106   1.935   4.720 -0.2375 -0.8299  0.2999
  113OSM   H18S11705   1.124   1.840   4.774  2.4192 -1.2913 -1.2029
  113OSM   H18T11706   1.200   1.993   4.727 -1.4367  1.1031  1.3674
  113OSM   H18U11707   1.068   1.923   4.616  0.9884 -0.9117 -0.1552
  113OSM    C1F11708   0.698   1.861   6.005 -0.5016  0.1207  0.1218
  113OSM     OF11709   0.646   1.756   6.040 -0.0042  0.1392  0.1646
  113OSM    C2F11710   0.832   1.862   5.937 -0.8416  0.6920 -0.2702
  113OSM    H2F11711   0.908   1.879   6.016  0.1228  0.4522 -1.1256
  113OSM    H2G11712   0.848   1.945   5.865 -0.4191  0.1100 -0.8581
  113OSM    C3F11713   0.861   1.735   5.856 -0.2396  0.3257 -0.0877
  113OSM    H3F11714   0.865   1.649   5.927  0.3848 -0.7880 -1.4197
  113OSM    H3G11715   0.953   1.730   5.796 -1.5679 -2.2446 -2.1214
  113OSM    C4F11716   0.749   1.691   5.755  0.4482 -0.0701 -0.7653
  113OSM    H4F11717   0.706   1.776   5.698 -1.6953 -1.6011 -1.5698
  113OSM    H4G11718   0.659   1.661   5.813  1.1615 -1.3376 -0.2524
  113OSM    C5F11719   0.786   1.573   5.664  0.2896 -0.0629 -0.0682
  113OSM    H5F11720   0.819   1.484   5.722 -1.3093  0.0279  1.0678
  113OSM    H5G11721   0.871   1.596   5.596  2.1815 -1.7883  1.5413
  113OSM    C6F11722   0.660   1.535   5.581 -0.6346 -0.0300 -0.4702
  113OSM    H6F11723   0.631   1.625   5.523  0.7272 -0.2368 -1.5080
  113OSM    H6G11724   0.576   1.508   5.649 -0.1071 -1.7567 -0.4518
  113OSM    C7F11725   0.690   1.427   5.477  0.3072 -0.7038  0.0484
  113OSM    H7F11726   0.634   1.338   5.513  1.7822 -0.7403  2.4561
  113OSM    H7G11727   0.798   1.407   5.487  0.6658  0.5352 -1.0857
  113OSM    C8F11728   0.648   1.456   5.331 -0.6533 -0.0820 -0.6993
  113OSM    H8F11729   0.552   1.512   5.333 -0.4844  0.2135 -0.7770
  113OSM    H8G11730   0.637   1.358   5.280  0.2876 -1.2949  1.3441
  113OSM    C9F11731   0.749   1.537   5.257 -0.1275 -0.9033 -0.7862
  113OSM    H9F11732   0.830   1.566   5.325 -0.8260 -0.1077 -0.2806
  113OSM   C10F11733   0.747   1.574   5.128 -0.2841  0.4771 -0.0461
  113OSM   H10F11734   0.832   1.631   5.089 -0.1767  1.5062  1.5686
  113OSM   C11F11735   0.630   1.543   5.028  0.1742 -0.2187  0.4077
  113OSM   H11F11736   0.616   1.622   4.951 -0.5278 -0.3156  0.4291
  113OSM   H11G11737   0.533   1.545   5.082  0.0231 -0.9583  0.1721
  113OSM   C12F11738   0.642   1.403   4.954 -0.3881 -0.3432 -0.2478
  113OSM   H12F11739   0.688   1.339   5.033 -0.5081  0.1847  0.2578
  113OSM   H12G11740   0.717   1.419   4.873 -0.8623  2.2355 -0.2515
  113OSM   C13F11741   0.502   1.355   4.905  0.4755 -0.8290  0.2744
  113OSM   H13F11742   0.432   1.376   4.989  1.7879 -3.4819  2.1775
  113OSM   H13G11743   0.508   1.246   4.884  0.5361 -0.7208 -0.2652
  113OSM   C14F11744   0.449   1.429   4.781  0.2503 -0.0178  0.0538
  113OSM   H14F11745   0.451   1.538   4.800 -3.0572  0.3115 -0.8490
  113OSM   H14G11746   0.343   1.399   4.762  0.7688 -1.5423 -0.5939
  113OSM   C15F11747   0.523   1.401   4.647  0.5535 -0.2796 -0.0054
  113OSM   H15F11748   0.484   1.303   4.612  1.3816 -0.8515  0.6166
  113OSM   H15G11749   0.633   1.386   4.657  0.3285 -0.4278  3.2033
  113OSM   C16F11750   0.488   1.493   4.539 -0.3028 -0.7036  0.2374
  113OSM   H16F11751   0.521   1.595   4.570 -0.7780 -0.3964 -0.2548
  113OSM   H16G11752   0.382   1.501   4.509  0.0409  1.3096 -0.6290
  113OSM   C17F11753   0.574   1.463   4.421 -0.3640 -0.0378  0.0929
  113OSM   H17F11754   0.532   1.368   4.382 -1.0950  0.1830  0.3317
  113OSM   H17G11755   0.679   1.441   4.452 -0.7779  0.0831  1.7011
  113OSM   C18F11756   0.566   1.571   4.309  0.3395  0.3381 -0.1930
  113OSM   H18F11757   0.606   1.532   4.213 -0.3478  1.4035 -0.9373
  113OSM   H18G11758   0.611   1.670   4.332 -0.1368  0.4047  0.4898
  113OSM   H18H11759   0.458   1.593   4.298  0.6404  3.1340  1.5052
  114OSM      N11760   1.176   0.641   6.804  0.1183  0.1175 -0.8152
  114OSM    C1511761   1.138   0.512   6.748  0.6126  0.0941  0.8289
  114OSM   H15A11762   1.097   0.445   6.823 -2.2091  0.0643 -0.6316
  114OSM   H15B11763   1.222   0.463   6.701  0.1942 -2.2091  2.3053
  114OSM   H15C11764   1.062   0.533   6.675  1.0999  1.3252  0.6538
  114OSM    C1411765   1.050   0.706   6.854  0.5055  0.1707  0.2312
  114OSM   H14A11766   1.066   0.786   6.925 -0.6621  0.9444 -0.3341
  114OSM   H14B11767   0.984   0.641   6.909 -1.1892  1.0050 -0.7146
  114OSM   H14C11768   0.989   0.748   6.774 -1.1100 -0.4257  1.1055
  114OSM    C1311769   1.262   0.620   6.919 -0.3101 -0.6957 -0.0219
  114OSM   H13A11770   1.351   0.569   6.886  0.5279  0.7492 -0.0661
  114OSM   H13B11771   1.212   0.584   7.008 -0.8179 -2.7979 -1.0934
  114OSM   H13C11772   1.303   0.716   6.948 -0.4375 -0.0628 -1.8134
  114OSM    C1211773   1.244   0.730   6.702 -0.5903 -0.5278 -0.5247
  114OSM   H12A11774   1.342   0.692   6.675  0.3579  0.9347  0.6729
  114OSM   H12B11775   1.269   0.820   6.756  0.0500 -0.9510 -0.0981
  114OSM    C1111776   1.161   0.770   6.576  0.1243  0.1877 -0.5583
  114OSM   H11A11777   1.069   0.829   6.593 -1.4553 -2.9383  3.2254
  114OSM   H11B11778   1.122   0.673   6.536 -0.3656 -1.6460  3.8586
  114OSM      P11779   1.269   0.985   6.477 -0.0523 -0.1815 -0.1060
  114OSM    O1311780   1.264   1.033   6.617  0.1702 -0.1485 -0.2946
  114OSM    O1411781   1.381   1.028   6.397 -0.3824  0.2870  0.1870
  114OSM    O1111782   1.148   1.048   6.396  0.2052 -0.5955 -0.7065
  114OSM    O1211783   1.249   0.830   6.476 -0.0613  0.1239 -0.0349
  114OSM    C1S11784   1.062   0.974   6.308  0.5191 -0.3597 -0.9267
  114OSM    H1S11785   0.958   1.007   6.329 -0.3269 -3.1853 -0.1522
  114OSM    H1T11786   1.059   0.868   6.342  1.1745 -0.0525  0.1380
  114OSM     NF11787   0.965   1.011   6.088  0.5917  0.4610  0.3616
  114OSM    HNF11788   0.940   0.943   6.020 -1.8311 -0.5238  2.0753
  114OSM    C2S11789   1.088   0.989   6.160 -0.2839  0.1166 -0.5900
  114OSM    H2S11790   1.158   1.074   6.150  0.9393 -0.5909  1.2932
  114OSM    C3S11791   1.164   0.860   6.101  0.2242 -0.9043 -0.1772
  114OSM    H3S11792   1.093   0.775   6.098 -1.6352  0.4209  2.3335
  114OSM     O311793   1.285   0.828   6.162 -0.8828 -0.4254 -1.1367
  114OSM    HO311794   1.270   0.871   6.246  0.9997 -0.1047 -0.9245
  114OSM    C4S11795   1.189   0.888   5.953  0.3858 -0.7204 -0.2247
  114OSM    H4S11796   1.127   0.826   5.887 -1.1348 -1.1408  1.5081
  114OSM    C5S11797   1.270   0.979   5.900 -0.2064  0.3185  0.1150
  114OSM    H5S11798   1.338   1.034   5.966 -0.7521  0.6208  0.4226
  114OSM    C6S11799   1.304   1.001   5.754 -0.2844  0.1538  0.0027
  114OSM    H6S11800   1.398   1.056   5.735 -2.1675  3.0315 -1.7482
  114OSM    H6T11801   1.230   1.069   5.707 -0.6778 -1.2377 -1.4931
  114OSM    C7S11802   1.310   0.873   5.674  0.5510 -0.2489  0.6020
  114OSM    H7S11803   1.210   0.826   5.689  1.5220 -2.8316 -0.4598
  114OSM    H7T11804   1.381   0.795   5.710  0.0525 -1.6183 -1.1999
  114OSM    C8S11805   1.338   0.895   5.525 -0.2867  0.0862  0.2354
  114OSM    H8S11806   1.358   0.796   5.478 -1.1180 -0.4036  0.8829
  114OSM    H8T11807   1.428   0.958   5.515 -1.2444  1.5719  0.6461
  114OSM    C9S11808   1.230   0.972   5.447  0.3341 -0.1266  0.3645
  114OSM    H9S11809   1.197   1.065   5.499  2.3844  0.6275  0.3944
  114OSM    H9T11810   1.143   0.903   5.436 -0.1265  0.6577 -1.3065
  114OSM   C10S11811   1.277   1.007   5.303  0.1233 -0.9991  0.0762
  114OSM   H10S11812   1.381   1.047   5.309  0.8949 -3.1381  2.2111
  114OSM   H10T11813   1.211   1.089   5.265  0.0565 -0.1654  1.8805
  114OSM   C11S11814   1.283   0.891   5.206 -0.3132 -0.6238  0.0626
  114OSM   H11S11815   1.183   0.842   5.205 -0.9369  0.6121  0.2721
  114OSM   H11T11816   1.362   0.829   5.254  0.0046  0.3616  0.8312
  114OSM   C12S11817   1.319   0.945   5.064  0.0595 -0.4445  0.1718
  114OSM   H12S11818   1.251   1.032   5.053  1.5250  0.7307  0.0032
  114OSM   H12T11819   1.299   0.865   4.990 -0.9644 -1.0633  1.0825
  114OSM   C13S11820   1.465   0.988   5.051  0.3753 -0.5161 -0.3161
  114OSM   H13S11821   1.528   0.904   5.087 -0.4772 -1.0016  0.0601
  114OSM   H13T11822   1.480   1.075   5.119 -2.9236  0.6285 -0.8705
  114OSM   C14S11823   1.492   1.038   4.903  0.5854  0.5120 -0.3425
  114OSM   H14S11824   1.569   1.118   4.896  0.1930  1.2264  2.3782
  114OSM   H14T11825   1.404   1.095   4.865 -0.6846 -1.1524 -0.0014
  114OSM   C15S11826   1.522   0.914   4.809 -0.5865 -1.3670 -0.0855
  114OSM   H15S11827   1.443   0.836   4.820 -0.9267 -0.8776  1.1419
  114OSM   H15T11828   1.621   0.871   4.835 -0.3309 -0.6276  0.1926
  114OSM   C16S11829   1.530   0.947   4.659 -0.4536 -0.3801  0.2499
  114OSM   H16S11830   1.577   0.857   4.613  1.7835  1.1619 -0.6694
  114OSM   H16T11831   1.594   1.035   4.636 -1.8451  0.0735 -2.1432
  114OSM   C17S11832   1.390   0.971   4.599  0.4358 -0.2989 -1.2035
  114OSM   H17S11833   1.337   1.057   4.645 -0.5705 -1.1642 -0.7139
  114OSM   H17T11834   1.328   0.881   4.619 -0.3730  0.8158  1.7812
  114OSM   C18S11835   1.386   0.993   4.448 -0.2305  0.6166  0.5603
  114OSM   H18S11836   1.282   1.024   4.424  0.1848  1.2653 -0.4448
  114OSM   H18T11837   1.403   0.906   4.381  2.0551  1.6830 -0.3228
  114OSM   H18U11838   1.452   1.074   4.412 -0.0895  1.6138  2.8368
  114OSM    C1F11839   0.915   1.131   6.090 -0.3651 -0.3476  0.6377
  114OSM     OF11840   0.956   1.219   6.163  0.4051  1.1313 -0.1088
  114OSM    C2F11841   0.803   1.157   5.992  0.1598  0.2369  0.3716
  114OSM    H2F11842   0.713   1.206   6.033  0.9587  1.8671  0.2753
  114OSM    H2G11843   0.762   1.060   5.958 -2.8867  1.5071  0.1093
  114OSM    C3F11844   0.833   1.245   5.867 -0.3681  0.1729  0.0829
  114OSM    H3F11845   0.900   1.331   5.890 -1.2895  1.0333 -0.3790
  114OSM    H3G11846   0.734   1.285   5.836 -0.0133  1.5836  0.6466
  114OSM    C4F11847   0.891   1.163   5.741 -0.5177 -0.1429  0.4270
  114OSM    H4F11848   0.989   1.119   5.770  0.8534  1.7406 -1.0393
  114OSM    H4G11849   0.907   1.240   5.662  0.8476 -2.1564 -1.3828
  114OSM    C5F11850   0.787   1.071   5.678  0.4255 -0.3292 -0.5184
  114OSM    H5F11851   0.696   1.135   5.673  1.1407  0.6257 -1.9992
  114OSM    H5G11852   0.778   0.982   5.744 -0.9058  0.5038  0.4993
  114OSM    C6F11853   0.820   1.016   5.546 -0.0955  0.2401  0.7236
  114OSM    H6F11854   0.748   0.937   5.518  1.0659 -0.5949 -0.0318
  114OSM    H6G11855   0.926   0.981   5.545 -0.1864 -0.0956 -1.5223
  114OSM    C7F11856   0.818   1.117   5.422 -0.2540 -0.2085 -0.5099
  114OSM    H7F11857   0.883   1.205   5.437 -0.7440 -0.2769  2.6596
  114OSM    H7G11858   0.717   1.165   5.424 -1.8284 -3.2792  1.1016
  114OSM    C8F11859   0.839   1.032   5.298 -0.5665 -0.0097 -0.0056
  114OSM    H8F11860   0.783   0.936   5.295 -1.5238  0.3314  3.3356
  114OSM    H8G11861   0.944   0.997   5.308 -1.3269 -2.1516  1.1328
  114OSM    C9F11862   0.826   1.112   5.180 -0.1167  0.5215  0.1461
  114OSM    H9F11863   0.819   1.221   5.194 -1.5866  0.4943 -0.1805
  114OSM   C10F11864   0.842   1.073   5.047  0.4183 -0.2846 -0.4670
  114OSM   H10F11865   0.821   1.150   4.972 -0.2796  0.8486  0.8421
  114OSM   C11F11866   0.844   0.928   5.009 -0.7335 -0.1307 -0.0323
  114OSM   H11F11867   0.773   0.863   5.065 -1.4418  0.8449  0.2225
  114OSM   H11G11868   0.944   0.885   5.032 -1.6098 -3.4374 -1.7474
  114OSM   C12F11869   0.815   0.927   4.863  0.2507 -0.3322  0.5016
  114OSM   H12F11870   0.888   0.983   4.800 -1.9041  2.2533  0.1360
  114OSM   H12G11871   0.712   0.960   4.839 -0.0305 -0.4224  1.5802
  114OSM   C13F11872   0.819   0.785   4.806 -0.6025  0.1636  0.1240
  114OSM   H13F11873   0.718   0.746   4.828 -1.1281  1.4763  0.1135
  114OSM   H13G11874   0.898   0.717   4.844 -1.8584 -0.9748  0.7453
  114OSM   C14F11875   0.844   0.785   4.662  0.0007 -0.2681  0.5377
  114OSM   H14F11876   0.843   0.677   4.635  0.6163 -0.5610  1.6693
  114OSM   H14G11877   0.943   0.822   4.628 -1.2161  3.1541  0.3903
  114OSM   C15F11878   0.745   0.881   4.582 -0.5334 -1.0811 -0.8410
  114OSM   H15F11879   0.771   0.984   4.615  0.6191 -1.6062 -0.0301
  114OSM   H15G11880   0.640   0.856   4.609 -0.2415 -3.1539 -1.3974
  114OSM   C16F11881   0.763   0.870   4.430  0.2035 -0.1428 -0.3328
  114OSM   H16F11882   0.748   0.765   4.396  1.1121 -0.6214  0.6802
  114OSM   H16G11883   0.865   0.905   4.403 -0.6802  3.7393  0.7350
  114OSM   C17F11884   0.659   0.963   4.365 -1.1006  0.0816  1.1245
  114OSM   H17F11885   0.560   0.924   4.396 -1.9594 -1.7230 -3.1684
  114OSM   H17G11886   0.664   0.958   4.254  1.3510  2.4273  1.0208
  114OSM   C18F11887   0.671   1.112   4.402 -0.0724  0.1266  0.1204
  114OSM   H18F11888   0.641   1.123   4.509  0.4430 -2.7941  0.6556
  114OSM   H18G11889   0.606   1.174   4.336  0.8838 -0.2664 -1.2181
  114OSM   H18H11890   0.772   1.152   4.376 -0.9705  2.3681 -0.1942
  115OSM      N11891   4.663   3.716   6.418  0.5527 -0.2583 -0.6194
  115OSM    C1511892   4.673   3.801   6.543 -0.0598 -0.0488 -0.0391
  115OSM   H15A11893   4.680   3.754   6.639 -0.4290  0.1523  0.0867
  115OSM   H15B11894   4.601   3.882   6.546  0.5663  0.4974  0.5491
  115OSM   H15C11895   4.763   3.860   6.543 -1.0613  1.5713 -1.1316
  115OSM    C1411896   4.523   3.673   6.394 -0.1405 -0.2610 -0.4033
  115OSM   H14A11897   4.478   3.627   6.481 -1.7731  0.8143 -0.6320
  115OSM   H14B11898   4.508   3.598   6.318  0.2232 -1.1163  0.3605
  115OSM   H14C11899   4.463   3.762   6.381  0.9963  0.4620 -0.8468
  115OSM    C1311900   4.698   3.808   6.300 -0.1674 -0.3519  0.0109
  115OSM   H13A11901   4.701   3.756   6.205  1.4499 -0.1680 -0.0730
  115OSM   H13B11902   4.796   3.852   6.310  0.7281 -1.5391 -2.7751
  115OSM   H13C11903   4.626   3.888   6.292 -0.9420 -0.9454  0.8803
  115OSM    C1211904   4.756   3.590   6.433 -0.0815  0.3346 -0.1217
  115OSM   H12A11905   4.768   3.573   6.539 -2.7828 -2.1121 -0.0822
  115OSM   H12B11906   4.850   3.618   6.388 -1.3807  3.4790 -1.1790
  115OSM    C1111907   4.723   3.460   6.365  0.4801  0.1464 -0.0438
  115OSM   H11A11908   4.820   3.406   6.359 -0.3296 -1.4978  1.0201
  115OSM   H11B11909   4.699   3.467   6.257  1.4720 -1.2446 -0.3883
  115OSM      P11910   4.660   3.300   6.570  0.0642  0.0034  0.1001
  115OSM    O1311911   4.758   3.378   6.648 -0.0919 -0.2977  0.2609
  115OSM    O1411912   4.535   3.257   6.641  0.1303  0.7337 -0.1095
  115OSM    O1111913   4.737   3.178   6.511  0.1905 -0.5795 -0.5228
  115OSM    O1211914   4.620   3.378   6.437 -0.4531  0.3486 -0.0144
  115OSM    C1S11915   4.711   3.128   6.378  0.3544  0.1784 -0.1611
  115OSM    H1S11916   4.648   3.190   6.310  0.3675  0.2677 -0.0917
  115OSM    H1T11917   4.654   3.033   6.388 -1.5397  1.5420  4.2777
  115OSM     NF11918   4.815   3.060   6.167  0.5536  0.3806  0.2478
  115OSM    HNF11919   4.774   2.973   6.143  2.2008 -0.8505  1.6893
  115OSM    C2S11920   4.842   3.074   6.309  0.5496 -0.8231  0.5909
  115OSM    H2S11921   4.918   3.153   6.323  0.9307 -1.0234 -0.2841
  115OSM    C3S11922   4.894   2.951   6.388  0.0858  0.1130 -1.3825
  115OSM    H3S11923   4.825   2.865   6.373  1.6110 -1.0427 -2.0529
  115OSM     O311924   4.890   2.974   6.526  1.1326 -0.3504 -0.1799
  115OSM    HO311925   4.859   3.065   6.527 -0.6965 -0.9011 -1.3121
  115OSM    C4S11926   5.035   2.914   6.345  0.0437  0.0742 -0.3332
  115OSM    H4S11927   5.033   2.844   6.260  1.4181  0.5458 -0.7865
  115OSM    C5S11928   5.146   2.979   6.384 -0.1578  0.2446  0.0825
  115OSM    H5S11929   5.139   3.068   6.448  0.0910  0.5967 -0.3694
  115OSM    C6S11930   5.281   2.961   6.317 -0.1695 -0.0030 -0.4734
  115OSM    H6S11931   5.346   2.938   6.404 -0.3709  0.4662 -0.1976
  115OSM    H6T11932   5.318   3.062   6.290  2.7046 -0.5203  1.1036
  115OSM    C7S11933   5.293   2.859   6.199 -0.0165 -0.4848 -0.7214
  115OSM    H7S11934   5.270   2.915   6.106  1.3500  0.9700 -0.2232
  115OSM    H7T11935   5.217   2.778   6.197 -0.5479 -0.0725  0.8056
  115OSM    C8S11936   5.437   2.814   6.177 -0.4548  0.3069  0.1962
  115OSM    H8S11937   5.469   2.764   6.272  2.9085 -0.8990 -1.4244
  115OSM    H8T11938   5.510   2.893   6.151 -1.4789  0.8475 -1.0993
  115OSM    C9S11939   5.455   2.707   6.071  0.0202  0.2716  0.1133
  115OSM    H9S11940   5.386   2.622   6.090 -0.1733 -0.0664 -1.8632
  115OSM    H9T11941   5.555   2.658   6.070  0.9738  2.1002  0.6262
  115OSM   C10S11942   5.420   2.757   5.925  0.1172 -0.3084 -0.2530
  115OSM   H10S11943   5.506   2.819   5.893 -1.8489  2.4630 -0.5792
  115OSM   H10T11944   5.339   2.834   5.930 -0.3923 -0.8710  0.3399
  115OSM   C11S11945   5.395   2.646   5.820  0.8358 -0.3031 -0.4435
  115OSM   H11S11946   5.325   2.566   5.852  0.5334 -0.2474 -0.9503
  115OSM   H11T11947   5.488   2.595   5.785  0.1158 -1.6854 -0.4013
  115OSM   C12S11948   5.335   2.703   5.696  0.5167 -0.6237  0.7362
  115OSM   H12S11949   5.238   2.756   5.712  0.9080  0.0340  0.9889
  115OSM   H12T11950   5.322   2.614   5.632  0.3820 -0.2917  0.3008
  115OSM   C13S11951   5.429   2.801   5.621 -0.6657 -0.2837 -0.1670
  115OSM   H13S11952   5.531   2.767   5.649  0.1596  2.9322  1.2053
  115OSM   H13T11953   5.404   2.906   5.647 -0.2141 -1.1450  4.6337
  115OSM   C14S11954   5.415   2.785   5.472 -0.5713 -0.5069 -0.3706
  115OSM   H14S11955   5.315   2.813   5.434 -0.0518  0.7738 -0.8575
  115OSM   H14T11956   5.437   2.678   5.453  3.2856  0.5247 -3.1501
  115OSM   C15S11957   5.534   2.849   5.395  0.8795 -0.1557 -0.3103
  115OSM   H15S11958   5.633   2.819   5.435  0.3122  0.4158  1.6675
  115OSM   H15T11959   5.535   2.958   5.416  0.2951 -0.2161  0.0668
  115OSM   C16S11960   5.524   2.829   5.244 -0.5339  1.0158  0.1847
  115OSM   H16S11961   5.546   2.725   5.213  2.2318  1.3355  0.7591
  115OSM   H16T11962   5.615   2.870   5.194  0.6763 -1.3599  0.2977
  115OSM   C17S11963   5.401   2.889   5.169  0.3175  0.1504  0.0244
  115OSM   H17S11964   5.302   2.847   5.194 -2.3241  5.8919  0.7999
  115OSM   H17T11965   5.414   2.864   5.061 -0.2294 -0.3693  0.0739
  115OSM   C18S11966   5.378   3.035   5.209  0.9156 -0.4207 -0.1724
  115OSM   H18S11967   5.371   3.057   5.317  2.5220 -1.2703  0.1249
  115OSM   H18T11968   5.286   3.071   5.158  0.8715 -0.7096 -0.2990
  115OSM   H18U11969   5.460   3.096   5.165  0.3200 -0.1642 -0.9679
  115OSM    C1F11970   4.809   3.162   6.085 -0.0034 -1.7594 -0.6030
  115OSM     OF11971   4.872   3.268   6.110  0.0122  0.2845 -0.3981
  115OSM    C2F11972   4.723   3.150   5.967  0.0926  0.5257 -0.8811
  115OSM    H2F11973   4.640   3.082   5.997  2.1312 -1.4125  0.6619
  115OSM    H2G11974   4.767   3.104   5.876  0.3662  0.3659 -0.6707
  115OSM    C3F11975   4.655   3.281   5.915 -0.9408  0.2723  0.6773
  115OSM    H3F11976   4.733   3.359   5.903 -1.8150  1.0443 -0.2163
  115OSM    H3G11977   4.587   3.327   5.990 -1.1561  0.8830  0.1199
  115OSM    C4F11978   4.568   3.255   5.800  0.0680  0.5056 -0.0808
  115OSM    H4F11979   4.500   3.342   5.788 -0.0507  0.3429 -0.5888
  115OSM    H4G11980   4.504   3.170   5.833  1.1245 -0.7530 -1.1582
  115OSM    C5F11981   4.630   3.223   5.660  0.1634  0.7093  0.2709
  115OSM    H5F11982   4.714   3.152   5.677  2.2627  3.0795  0.4072
  115OSM    H5G11983   4.677   3.319   5.628  1.8505 -0.0952  0.2503
  115OSM    C6F11984   4.525   3.168   5.568  0.0640 -0.1289 -0.0404
  115OSM    H6F11985   4.431   3.223   5.589  1.8239  2.8305  0.7307
  115OSM    H6G11986   4.504   3.066   5.606 -2.1246  0.0249 -0.7168
  115OSM    C7F11987   4.556   3.174   5.418 -0.6263 -0.3126  0.1716
  115OSM    H7F11988   4.481   3.113   5.363  1.1353 -0.6412 -1.9730
  115OSM    H7G11989   4.648   3.113   5.414  0.0350  0.4448  2.4766
  115OSM    C8F11990   4.578   3.315   5.353  0.5464 -1.0114  0.5957
  115OSM    H8F11991   4.603   3.296   5.247  0.8872 -0.6269  0.6051
  115OSM    H8G11992   4.662   3.371   5.398  2.3887 -0.8304 -2.7657
  115OSM    C9F11993   4.450   3.392   5.380  0.1537  0.0239 -0.5006
  115OSM    H9F11994   4.453   3.461   5.466 -0.3431 -0.3858 -0.1454
  115OSM   C10F11995   4.339   3.379   5.305 -0.3816  0.1838 -0.2296
  115OSM   H10F11996   4.245   3.427   5.337 -0.5176 -2.1481  3.4607
  115OSM   C11F11997   4.335   3.303   5.168 -0.5759  0.6508 -0.5367
  115OSM   H11F11998   4.240   3.247   5.162 -0.4038  0.2330  0.4430
  115OSM   H11G11999   4.429   3.244   5.158  0.5050  2.4605 -1.7909
  115OSM   C12F12000   4.332   3.381   5.032 -0.1449  0.0095  0.2514
  115OSM   H12F12001   4.245   3.450   5.041 -1.6233 -1.8153  0.5278
  115OSM   H12G12002   4.321   3.308   4.949 -1.9061  0.9277 -0.3971
  115OSM   C13F12003   4.469   3.459   5.016 -0.1880 -0.0274 -0.8269
  115OSM   H13F12004   4.547   3.384   4.991  0.7315  0.3648  0.7462
  115OSM   H13G12005   4.496   3.502   5.114  1.9112  0.1977 -1.4641
  115OSM   C14F12006   4.454   3.565   4.897 -0.0727 -0.3483 -0.4542
  115OSM   H14F12007   4.514   3.658   4.909 -0.3703 -0.1116 -0.7573
  115OSM   H14G12008   4.348   3.600   4.893  0.5117  1.4714 -0.9412
  115OSM   C15F12009   4.472   3.494   4.765 -0.3571 -0.3451 -0.1736
  115OSM   H15F12010   4.392   3.417   4.761 -1.4822  0.8262 -1.2320
  115OSM   H15G12011   4.566   3.436   4.776  0.1471  0.7236  1.4067
  115OSM   C16F12012   4.459   3.593   4.649  0.2849  0.1994  0.3127
  115OSM   H16F12013   4.549   3.655   4.627  0.6888 -0.3382  0.4178
  115OSM   H16G12014   4.381   3.669   4.670  0.6171  1.5643 -2.8864
  115OSM   C17F12015   4.426   3.512   4.522  0.0098 -0.7836 -0.2894
  115OSM   H17F12016   4.355   3.435   4.560 -2.4416  1.3611 -0.2524
  115OSM   H17G12017   4.516   3.454   4.492  0.3796 -0.6206  0.4718
  115OSM   C18F12018   4.360   3.591   4.413  1.1026  0.2234 -0.2987
  115OSM   H18F12019   4.324   3.516   4.338  0.8748 -0.5343  0.5475
  115OSM   H18G12020   4.440   3.660   4.377  2.0216  0.5399  2.1267
  115OSM   H18H12021   4.281   3.660   4.448  0.5656 -0.0771 -0.8784
  116OSM      N12022   1.112   1.451   6.499  0.1877 -0.6697 -0.0241
  116OSM    C1512023   1.003   1.393   6.411 -0.9043  0.5031  0.6555
  116OSM   H15A12024   1.031   1.377   6.308 -1.2287  0.3863  0.5838
  116OSM   H15B12025   0.916   1.457   6.404 -0.0317  1.6620  0.3066
  116OSM   H15C12026   0.969   1.301   6.458  1.0183 -1.2452 -1.1583
  116OSM    C1412027   1.051   1.480   6.633 -0.3712 -0.3807  0.3804
  116OSM   H14A12028   1.009   1.396   6.686 -0.9550  1.5164  3.1499
  116OSM   H14B12029   0.968   1.543   6.605 -1.4004 -0.7654  2.3938
  116OSM   H14C12030   1.124   1.530   6.694 -0.6984  0.0428  0.4260
  116OSM    C1312031   1.212   1.339   6.510 -1.3612  0.0437 -0.2781
  116OSM   H13A12032   1.293   1.369   6.575 -0.8276  0.3729 -1.0882
  116OSM   H13B12033   1.249   1.313   6.413 -1.9977 -5.0120  0.5625
  116OSM   H13C12034   1.166   1.249   6.550  0.1458 -1.0511 -0.9269
  116OSM    C1212035   1.170   1.574   6.432  0.4710  0.1142  0.6326
  116OSM   H12A12036   1.093   1.650   6.428 -0.0944 -0.1548  3.8255
  116OSM   H12B12037   1.194   1.538   6.333  1.8308  0.2586  0.8911
  116OSM    C1112038   1.303   1.642   6.482 -0.5708  0.0049  0.2740
  116OSM   H11A12039   1.286   1.698   6.577 -1.4969 -0.4914  0.4201
  116OSM   H11B12040   1.335   1.717   6.407  0.8254  1.8826  2.5829
  116OSM      P12041   1.531   1.499   6.448 -0.0957 -1.0190 -0.0040
  116OSM    O1312042   1.639   1.512   6.544  0.0902  0.2672 -0.2778
  116OSM    O1412043   1.513   1.356   6.404 -0.4990 -0.0303  0.1326
  116OSM    O1112044   1.549   1.594   6.329 -0.0232 -0.1680  0.5004
  116OSM    O1212045   1.396   1.541   6.515 -0.9966  0.1543 -0.4536
  116OSM    C1S12046   1.466   1.609   6.212  0.0457  0.1763 -0.7471
  116OSM    H1S12047   1.405   1.701   6.220 -0.7841 -0.3990 -0.1268
  116OSM    H1T12048   1.402   1.520   6.195  0.7806 -0.7817  1.1698
  116OSM     NF12049   1.493   1.695   5.974  0.3767  0.3194 -0.2601
  116OSM    HNF12050   1.450   1.635   5.907 -0.6539 -0.1037  0.7411
  116OSM    C2S12051   1.559   1.629   6.089 -0.5956  0.7283  0.0018
  116OSM    H2S12052   1.645   1.699   6.094 -0.4282  1.1096 -4.1718
  116OSM    C3S12053   1.626   1.487   6.050 -0.2677  0.6249 -0.0592
  116OSM    H3S12054   1.545   1.412   6.047 -2.2263  2.6499 -1.3628
  116OSM     O312055   1.714   1.433   6.147  0.1499  0.1271  0.5036
  116OSM    HO312056   1.708   1.500   6.216 -0.5491  0.7725 -0.1766
  116OSM    C4S12057   1.696   1.495   5.919  0.1007  0.5281  0.6318
  116OSM    H4S12058   1.642   1.437   5.843  1.2413 -0.4296  0.5249
  116OSM    C5S12059   1.812   1.561   5.902 -0.2119  0.0050  0.2952
  116OSM    H5S12060   1.856   1.617   5.985  0.8182 -2.9603  1.8646
  116OSM    C6S12061   1.911   1.557   5.788 -0.0093  0.2719 -0.5486
  116OSM    H6S12062   1.989   1.485   5.820 -1.1294 -0.3113  1.0284
  116OSM    H6T12063   1.954   1.660   5.786 -2.1423  1.3342  1.4847
  116OSM    C7S12064   1.851   1.517   5.652  0.2443 -0.5729 -0.2860
  116OSM    H7S12065   1.773   1.593   5.629  0.6129 -0.4914 -1.3573
  116OSM    H7T12066   1.811   1.414   5.654  0.1124 -0.6049 -2.3331
  116OSM    C8S12067   1.951   1.531   5.547 -0.2372 -0.1537  0.4264
  116OSM    H8S12068   2.033   1.456   5.562  0.2097  0.1495 -0.4141
  116OSM    H8T12069   2.000   1.628   5.567  0.5345 -0.6034  0.7959
  116OSM    C9S12070   1.889   1.531   5.409  0.3577  0.4138 -0.8177
  116OSM    H9S12071   1.799   1.595   5.404  0.0877  0.1578  0.5663
  116OSM    H9T12072   1.862   1.427   5.383  0.4985 -0.1965  1.2942
  116OSM   C10S12073   1.988   1.592   5.304  0.1725 -0.6130  0.3606
  116OSM   H10S12074   2.083   1.535   5.301  1.4703  1.4184 -3.3991
  116OSM   H10T12075   2.011   1.693   5.345 -0.4401  0.0366 -0.8401
  116OSM   C11S12076   1.925   1.614   5.166 -0.4256 -0.1087 -0.0896
  116OSM   H11S12077   1.999   1.667   5.102  0.3972  1.8523  2.3438
  116OSM   H11T12078   1.850   1.694   5.179  0.5374  0.5890  1.4839
  116OSM   C12S12079   1.875   1.486   5.095 -0.2501 -0.2202 -0.4080
  116OSM   H12S12080   1.794   1.444   5.159 -0.3193  2.0005  1.0629
  116OSM   H12T12081   1.964   1.421   5.088  0.7295  1.0584 -0.0648
  116OSM   C13S12082   1.833   1.520   4.953  0.0664 -0.0821 -0.7308
  116OSM   H13S12083   1.907   1.596   4.921  0.4483 -0.2643 -0.2910
  116OSM   H13T12084   1.735   1.572   4.948 -0.9361 -1.7349  0.5485
  116OSM   C14S12085   1.822   1.409   4.850 -0.9544 -0.2109  0.1694
  116OSM   H14S12086   1.747   1.330   4.870 -1.0451 -0.8393 -2.3021
  116OSM   H14T12087   1.921   1.358   4.849 -0.6080  0.4347 -1.9278
  116OSM   C15S12088   1.784   1.471   4.715  0.1622  0.1566  0.5830
  116OSM   H15S12089   1.820   1.406   4.632  1.6533  0.6239  0.8277
  116OSM   H15T12090   1.848   1.561   4.709 -1.2724  1.1112 -1.0543
  116OSM   C16S12091   1.637   1.512   4.707  0.2122  0.3987 -0.2560
  116OSM   H16S12092   1.608   1.569   4.798 -1.7366 -0.0920 -0.5154
  116OSM   H16T12093   1.579   1.418   4.696  2.2020 -0.8730 -0.3276
  116OSM   C17S12094   1.620   1.598   4.585 -0.5334 -0.1192 -0.3795
  116OSM   H17S12095   1.632   1.541   4.490 -2.0732  2.0366 -1.9552
  116OSM   H17T12096   1.702   1.672   4.577 -2.1571  1.7482 -0.2364
  116OSM   C18S12097   1.492   1.672   4.572  0.7327  0.2396 -0.6120
  116OSM   H18S12098   1.501   1.736   4.481 -1.6052 -1.8444 -2.4763
  116OSM   H18T12099   1.469   1.728   4.665 -0.9499  0.6362 -1.2389
  116OSM   H18U12100   1.402   1.615   4.541  1.0003 -0.3306 -0.3555
  116OSM    C1F12101   1.433   1.819   5.976 -0.2405 -0.0836 -0.2293
  116OSM     OF12102   1.450   1.901   6.066  0.4336  0.0878 -0.1387
  116OSM    C2F12103   1.330   1.842   5.868 -0.2726  0.3196 -0.1139
  116OSM    H2F12104   1.232   1.821   5.916  0.4118 -2.1526  0.3249
  116OSM    H2G12105   1.346   1.775   5.781  2.5433  1.5355 -0.6557
  116OSM    C3F12106   1.321   1.988   5.805  0.0398  0.0102 -0.3327
  116OSM    H3F12107   1.407   2.012   5.739  0.3059  0.2013  0.0809
  116OSM    H3G12108   1.321   2.059   5.890  0.9760 -1.1432  0.6530
  116OSM    C4F12109   1.190   1.998   5.717  0.0623 -0.1322 -0.4887
  116OSM    H4F12110   1.108   1.980   5.790 -0.2520 -1.6875 -1.1858
  116OSM    H4G12111   1.167   1.923   5.639  0.5664 -1.1154  0.2855
  116OSM    C5F12112   1.155   2.135   5.660 -0.1648  0.4135 -0.8122
  116OSM    H5F12113   1.171   2.222   5.728  1.4372  0.1862 -0.8421
  116OSM    H5G12114   1.048   2.135   5.630  0.7672 -0.5496 -4.6270
  116OSM    C6F12115   1.241   2.174   5.536  0.2860  0.5837 -0.4676
  116OSM    H6F12116   1.240   2.081   5.474  2.0816  0.4868 -0.4044
  116OSM    H6G12117   1.344   2.169   5.578  0.9389 -0.3012 -2.0620
  116OSM    C7F12118   1.189   2.297   5.460 -0.0165  0.3792  0.0355
  116OSM    H7F12119   1.177   2.383   5.530 -2.6407  1.5763 -1.7329
  116OSM    H7G12120   1.089   2.276   5.417  0.3685  0.7892 -1.0737
  116OSM    C8F12121   1.282   2.334   5.343  0.5114 -0.2535  0.0119
  116OSM    H8F12122   1.273   2.253   5.268 -2.6261 -0.0987  0.0925
  116OSM    H8G12123   1.387   2.327   5.379  0.3212  1.3705  0.9903
  116OSM    C9F12124   1.249   2.472   5.290 -0.1353  0.2095  0.0111
  116OSM    H9F12125   1.262   2.550   5.365 -0.1353  0.3965 -0.1826
  116OSM   C10F12126   1.215   2.502   5.162  0.4204  0.2660  0.0454
  116OSM   H10F12127   1.174   2.602   5.140 -0.2331 -0.5112 -2.5485
  116OSM   C11F12128   1.196   2.401   5.049  0.8380 -0.4390  0.4105
  116OSM   H11F12129   1.093   2.406   5.006 -0.3294 -0.2317  3.0520
  116OSM   H11G12130   1.202   2.297   5.086 -1.6913 -1.0947 -0.7954
  116OSM   C12F12131   1.307   2.405   4.942  0.3896  0.2535 -0.5518
  116OSM   H12F12132   1.305   2.315   4.876  1.4097  0.2553 -0.5894
  116OSM   H12G12133   1.402   2.436   4.991 -0.0498 -1.3923  1.5104
  116OSM   C13F12134   1.297   2.532   4.847  0.5410 -0.3627 -1.0650
  116OSM   H13F12135   1.310   2.620   4.913  0.4457 -1.0626 -0.0851
  116OSM   H13G12136   1.203   2.537   4.787 -0.3516 -0.2511  0.3025
  116OSM   C14F12137   1.408   2.543   4.741 -0.0195  0.5410 -0.3403
  116OSM   H14F12138   1.407   2.457   4.670  0.1576 -1.1921  1.6785
  116OSM   H14G12139   1.505   2.527   4.793  1.4332 -0.5038 -3.1574
  116OSM   C15F12140   1.405   2.666   4.662  0.2687 -0.8948 -0.2564
  116OSM   H15F12141   1.404   2.758   4.724 -1.0059 -0.2935 -1.1484
  116OSM   H15G12142   1.309   2.674   4.607 -1.0772 -0.5122  2.0113
  116OSM   C16F12143   1.528   2.690   4.573 -0.1332 -0.2934  0.0689
  116OSM   H16F12144   1.531   2.606   4.501 -3.7786  0.2922 -0.9665
  116OSM   H16G12145   1.626   2.685   4.625  0.6865  0.0600 -1.3977
  116OSM   C17F12146   1.514   2.827   4.498 -0.6871  0.9310 -0.4979
  116OSM   H17F12147   1.482   2.905   4.570  0.0119 -0.1648  1.0373
  116OSM   H17G12148   1.442   2.818   4.413  0.9871 -0.1091 -1.8689
  116OSM   C18F12149   1.638   2.865   4.425 -0.3911  0.3561 -0.6462
  116OSM   H18F12150   1.736   2.847   4.473 -0.0333  0.1907 -1.4231
  116OSM   H18G12151   1.629   2.974   4.405 -0.1031  0.8950  1.8700
  116OSM   H18H12152   1.640   2.810   4.328 -0.4576 -0.7604 -0.0347
  117OSM      N12153   0.668   5.610   6.993 -0.6394 -0.0757 -0.3099
  117OSM    C1512154   0.755   5.487   7.008  0.4121 -0.5597  0.1697
  117OSM   H15A12155   0.858   5.504   6.979  0.2423  0.5192  0.1762
  117OSM   H15B12156   0.721   5.400   6.953 -2.7712 -0.2100  1.4091
  117OSM   H15C12157   0.750   5.452   7.110  0.5074 -2.1925 -0.3499
  117OSM    C1412158   0.533   5.581   7.052 -0.0088 -1.1882  0.0574
  117OSM   H14A12159   0.536   5.533   7.148 -2.4816 -0.4184  0.5809
  117OSM   H14B12160   0.479   5.508   6.993  0.2610 -2.3593  1.2277
  117OSM   H14C12161   0.475   5.671   7.067  2.6534  1.1684 -2.5893
  117OSM    C1312162   0.727   5.727   7.070  0.2755 -0.6957 -0.3812
  117OSM   H13A12163   0.678   5.823   7.065  1.7305  0.0333 -0.9043
  117OSM   H13B12164   0.831   5.742   7.046 -0.0740  4.0767  0.2636
  117OSM   H13C12165   0.707   5.707   7.175 -2.0428 -0.3389 -0.6866
  117OSM    C1212166   0.664   5.647   6.846 -0.1181  0.5216 -0.6354
  117OSM   H12A12167   0.761   5.685   6.816  0.1628  1.2671  1.1004
  117OSM   H12B12168   0.598   5.731   6.832  0.2910  0.8357 -0.6808
  117OSM    C1112169   0.615   5.540   6.741 -0.3266 -0.3174 -0.2653
  117OSM   H11A12170   0.672   5.444   6.740 -0.6331 -0.5023 -1.1196
  117OSM   H11B12171   0.639   5.561   6.634  1.8143 -2.2809 -0.2770
  117OSM      P12172   0.365   5.611   6.701  0.0441 -0.2051 -0.1909
  117OSM    O1312173   0.228   5.561   6.722 -0.0487  0.2323 -0.6432
  117OSM    O1412174   0.395   5.744   6.762 -0.0276  0.0146 -0.7946
  117OSM    O1112175   0.402   5.608   6.548  0.5991  0.0584  0.2684
  117OSM    O1212176   0.474   5.511   6.757  0.2509  0.5547  0.3347
  117OSM    C1S12177   0.394   5.479   6.480  0.0029 -0.2373  0.2199
  117OSM    H1S12178   0.336   5.404   6.538  1.2903 -3.1156 -2.0025
  117OSM    H1T12179   0.491   5.424   6.482 -1.2405 -2.7558 -2.0209
  117OSM     NF12180   0.328   5.368   6.267 -0.3599  0.0391 -0.1555
  117OSM    HNF12181   0.386   5.353   6.188  1.6896 -0.1400  1.3208
  117OSM    C2S12182   0.343   5.494   6.334  0.2344 -0.2966  0.4656
  117OSM    H2S12183   0.245   5.544   6.347  0.9422  0.8460  1.7847
  117OSM    C3S12184   0.433   5.592   6.250  0.5486 -0.3426  0.1040
  117OSM    H3S12185   0.531   5.541   6.240  0.4855 -0.4980  0.2698
  117OSM     O312186   0.453   5.720   6.315 -0.0697  0.0514 -0.1407
  117OSM    HO312187   0.466   5.690   6.405 -1.4952 -0.6098 -0.1188
  117OSM    C4S12188   0.378   5.607   6.106  0.3647 -0.0618  0.3907
  117OSM    H4S12189   0.391   5.517   6.045 -0.6990 -1.5726  2.2860
  117OSM    C5S12190   0.323   5.721   6.053  0.1642  0.4437 -0.3396
  117OSM    H5S12191   0.294   5.795   6.129  0.0397 -1.1240  1.2047
  117OSM    C6S12192   0.267   5.742   5.918  0.4179  0.2957  0.5677
  117OSM    H6S12193   0.317   5.837   5.888  0.7563 -0.3044 -0.8338
  117OSM    H6T12194   0.158   5.765   5.928  0.8876  2.9698  0.2648
  117OSM    C7S12195   0.317   5.625   5.827  0.2170 -0.0576 -0.0086
  117OSM    H7S12196   0.252   5.540   5.859 -1.2092  1.0841  0.2411
  117OSM    H7T12197   0.425   5.601   5.831  0.2155 -0.1319 -0.3249
  117OSM    C8S12198   0.294   5.642   5.674 -0.1151 -0.3203 -1.0684
  117OSM    H8S12199   0.186   5.663   5.660 -0.3009 -0.2214  0.4438
  117OSM    H8T12200   0.312   5.547   5.618  0.2406 -0.6811 -0.3441
  117OSM    C9S12201   0.375   5.752   5.607  0.1892  0.1523  0.1688
  117OSM    H9S12202   0.485   5.758   5.626 -0.1399  1.9610  1.8285
  117OSM    H9T12203   0.337   5.847   5.651  0.5401  0.3578  0.0367
  117OSM   C10S12204   0.348   5.767   5.455  0.4814 -0.1001 -0.0920
  117OSM   H10S12205   0.412   5.687   5.412  2.1292  0.9686  0.2843
  117OSM   H10T12206   0.384   5.865   5.416  0.2243 -0.1693 -0.5091
  117OSM   C11S12207   0.203   5.754   5.412  0.6013 -1.1798 -0.0165
  117OSM   H11S12208   0.127   5.808   5.471  0.7378  0.5489 -1.3328
  117OSM   H11T12209   0.180   5.646   5.426 -1.9455 -0.6341  0.3979
  117OSM   C12S12210   0.170   5.786   5.267 -0.4008  0.8697 -0.2268
  117OSM   H12S12211   0.176   5.897   5.258 -2.4101  0.9927 -0.6004
  117OSM   H12T12212   0.068   5.758   5.234 -0.4874  0.8410  0.0661
  117OSM   C13S12213   0.265   5.707   5.176  0.1590 -0.0341  0.3531
  117OSM   H13S12214   0.260   5.599   5.199  1.0453 -0.1118  0.2105
  117OSM   H13T12215   0.368   5.740   5.200 -0.4565  0.4565  2.5815
  117OSM   C14S12216   0.236   5.722   5.029  0.8233 -0.0752 -1.0525
  117OSM   H14S12217   0.280   5.821   5.003  0.7967  0.2681  0.1226
  117OSM   H14T12218   0.126   5.721   5.021  0.7570 -0.6753 -0.2722
  117OSM   C15S12219   0.291   5.614   4.938 -0.6361 -0.1924 -0.0530
  117OSM   H15S12220   0.297   5.519   4.996 -0.8817  0.8705  1.7880
  117OSM   H15T12221   0.396   5.635   4.910 -0.6460 -0.9142 -0.6638
  117OSM   C16S12222   0.216   5.593   4.812 -0.0920  0.2134  0.2613
  117OSM   H16S12223   0.194   5.690   4.762  0.1592  0.4908  0.6744
  117OSM   H16T12224   0.114   5.558   4.836 -0.1483  0.0483 -0.2134
  117OSM   C17S12225   0.288   5.503   4.710  0.4467  0.0677  0.3153
  117OSM   H17S12226   0.319   5.411   4.766  3.0277 -1.9524 -3.9079
  117OSM   H17T12227   0.382   5.557   4.688  0.0661  0.1681 -1.1504
  117OSM   C18S12228   0.206   5.471   4.582 -0.5374  0.0679  0.3799
  117OSM   H18S12229   0.277   5.406   4.528 -0.5355 -1.3319  1.9842
  117OSM   H18T12230   0.186   5.563   4.522 -1.0606  0.8423  1.6851
  117OSM   H18U12231   0.109   5.420   4.601 -0.1209 -1.2728 -0.9358
  117OSM    C1F12232   0.240   5.272   6.300 -0.3268 -0.0912  0.0798
  117OSM     OF12233   0.146   5.298   6.371  0.5294 -0.5529  0.3095
  117OSM    C2F12234   0.278   5.139   6.253  0.9101 -0.1397  0.8147
  117OSM    H2F12235   0.317   5.077   6.336 -0.4617 -0.1028  1.5179
  117OSM    H2G12236   0.353   5.146   6.171 -0.5243 -0.2624 -0.5558
  117OSM    C3F12237   0.161   5.068   6.183  0.0334  0.2475  0.6756
  117OSM    H3F12238   0.071   5.072   6.248  0.6284 -0.3553  1.5600
  117OSM    H3G12239   0.191   4.961   6.187 -1.1108 -0.0498  3.2202
  117OSM    C4F12240   0.135   5.117   6.043 -0.2821  0.2277 -0.0637
  117OSM    H4F12241   0.219   5.094   5.975 -1.2106  0.5686 -1.3784
  117OSM    H4G12242   0.134   5.228   6.039 -0.0829  0.2033 -1.9532
  117OSM    C5F12243   0.022   5.046   5.971  0.4916  0.0067  0.1866
  117OSM    H5F12244  -0.069   5.109   5.964  0.7310  0.1974 -1.4770
  117OSM    H5G12245  -0.005   4.954   6.028  0.8357  0.2128  0.6947
  117OSM    C6F12246   0.047   4.995   5.824 -0.0160  0.1723  0.5820
  117OSM    H6F12247  -0.046   4.945   5.789 -0.9785  2.8098 -0.9067
  117OSM    H6G12248   0.125   4.917   5.837 -1.8227 -1.9685 -0.5905
  117OSM    C7F12249   0.097   5.106   5.729  0.3097 -0.5367  0.1111
  117OSM    H7F12250   0.125   5.065   5.629  0.1044 -0.0228 -0.1625
  117OSM    H7G12251   0.190   5.152   5.770 -1.0647  2.7401 -0.1562
  117OSM    C8F12252   0.004   5.225   5.700 -0.2845  0.2336 -0.1848
  117OSM    H8F12253   0.006   5.281   5.795  0.5208  0.6411 -0.4331
  117OSM    H8G12254  -0.102   5.192   5.693 -0.5587  0.4380  2.2665
  117OSM    C9F12255   0.037   5.326   5.596 -0.0283  0.6685 -0.0320
  117OSM    H9F12256   0.058   5.426   5.637 -0.2391  0.4613  0.5915
  117OSM   C10F12257   0.054   5.301   5.462 -0.1514  0.3911  0.6290
  117OSM   H10F12258   0.089   5.385   5.400 -0.3040 -0.2209 -0.3008
  117OSM   C11F12259   0.032   5.175   5.383  0.1733 -0.5285  0.0243
  117OSM   H11F12260   0.011   5.087   5.447  1.0392 -0.2570  0.6867
  117OSM   H11G12261   0.133   5.154   5.342  0.9549 -2.2571  2.6030
  117OSM   C12F12262  -0.073   5.172   5.271  0.2033 -0.2497 -0.2216
  117OSM   H12F12263  -0.169   5.220   5.299  0.2429  0.2423 -0.9138
  117OSM   H12G12264  -0.107   5.067   5.254  0.2786 -0.5922  1.5362
  117OSM   C13F12265  -0.030   5.231   5.134 -0.3019  0.7628  0.1375
  117OSM   H13F12266  -0.002   5.337   5.153  0.5916  0.7705 -1.1340
  117OSM   H13G12267  -0.113   5.211   5.063  0.1619 -2.0489  0.2568
  117OSM   C14F12268   0.089   5.158   5.081  0.4351 -0.2379  0.0691
  117OSM   H14F12269   0.081   5.047   5.083  5.2613 -0.7807  0.1511
  117OSM   H14G12270   0.184   5.180   5.134 -1.1077  2.0416  2.1225
  117OSM   C15F12271   0.114   5.202   4.936  0.5177 -0.3360  0.7203
  117OSM   H15F12272   0.219   5.192   4.902  0.0933 -1.5603 -0.2866
  117OSM   H15G12273   0.078   5.307   4.927 -0.6940 -0.7609  0.5226
  117OSM   C16F12274   0.036   5.117   4.824 -0.3482 -0.2213  0.5686
  117OSM   H16F12275  -0.073   5.111   4.844 -0.0566 -2.5094  1.8775
  117OSM   H16G12276   0.066   5.011   4.840  2.8513  0.8065  2.2798
  117OSM   C17F12277   0.063   5.154   4.682  0.0497  0.4136 -0.2870
  117OSM   H17F12278   0.171   5.172   4.667  0.4420  0.6298  2.3506
  117OSM   H17G12279   0.008   5.248   4.665 -1.3576 -0.1808  0.7936
  117OSM   C18F12280   0.027   5.023   4.601  0.2547  0.4351 -0.3182
  117OSM   H18F12281   0.079   4.929   4.630 -0.7022  0.2798  1.0074
  117OSM   H18G12282   0.050   5.032   4.493  1.9388  1.0904  0.0710
  117OSM   H18H12283  -0.080   4.991   4.609  0.8536 -1.4038  1.0399
  118OSM      N12284   0.111   2.696   6.701  0.6439  0.3584 -0.8369
  118OSM    C1512285   0.244   2.740   6.656  1.1021  0.2844  0.0246
  118OSM   H15A12286   0.272   2.837   6.695  2.6267 -0.4877  0.9381
  118OSM   H15B12287   0.256   2.731   6.549  1.9701  1.4660  0.0023
  118OSM   H15C12288   0.321   2.676   6.697  0.7558  0.9435  1.7824
  118OSM    C1412289   0.065   2.577   6.628 -0.2772 -0.3544 -1.0335
  118OSM   H14A12290   0.085   2.609   6.527  0.0081  2.3124 -0.2012
  118OSM   H14B12291  -0.036   2.547   6.649  0.1890 -0.8607  0.6309
  118OSM   H14C12292   0.121   2.486   6.647  1.5794  0.3935 -2.5573
  118OSM    C1312293   0.117   2.668   6.845 -0.1410 -0.2787 -0.6468
  118OSM   H13A12294   0.024   2.631   6.886 -0.8677  1.5449 -0.5145
  118OSM   H13B12295   0.123   2.762   6.898  0.7621 -1.0071  0.6019
  118OSM   H13C12296   0.206   2.624   6.887  1.0667  2.6693  0.1430
  118OSM    C1212297   0.006   2.807   6.676 -0.0462  0.5707  0.1941
  118OSM   H12A12298   0.030   2.899   6.727  0.0711  0.6948 -0.0836
  118OSM   H12B12299  -0.080   2.765   6.726  0.8898 -1.7078  0.0018
  118OSM    C1112300  -0.036   2.828   6.533 -0.2668 -0.4559 -0.0166
  118OSM   H11A12301   0.054   2.835   6.468  0.6956  1.1583  1.4006
  118OSM   H11B12302  -0.082   2.929   6.528  0.4503 -0.1054  0.3855
  118OSM      P12303  -0.281   2.739   6.528  0.0910 -0.4517 -0.1787
  118OSM    O1312304  -0.352   2.625   6.473  0.0589  0.0318  0.1726
  118OSM    O1412305  -0.295   2.747   6.674  0.2426 -0.7259 -0.6017
  118OSM    O1112306  -0.318   2.872   6.454  0.0025 -0.1233  0.4735
  118OSM    O1212307  -0.131   2.726   6.494 -0.3221 -0.0145  0.2193
  118OSM    C1S12308  -0.336   2.875   6.312  0.5736  0.8503  0.5490
  118OSM    H1S12309  -0.399   2.786   6.286  1.3935  0.5092 -0.3407
  118OSM    H1T12310  -0.241   2.871   6.254  1.3517  0.1225  1.8264
  118OSM     NF12311  -0.415   2.994   6.110 -0.2808  0.6671  0.1341
  118OSM    HNF12312  -0.335   3.034   6.066  1.1384 -0.1558  1.8567
  118OSM    C2S12313  -0.390   3.003   6.255  0.1668 -0.3365  0.6522
  118OSM    H2S12314  -0.486   3.016   6.310  0.8757  0.1185  1.8245
  118OSM    C3S12315  -0.300   3.123   6.295 -0.8555 -0.3370  0.2379
  118OSM    H3S12316  -0.199   3.099   6.255  1.3518  0.8226  4.4714
  118OSM     O312317  -0.276   3.138   6.436 -0.5682  0.2875  0.5411
  118OSM    HO312318  -0.312   3.054   6.464 -1.5907  0.4103 -0.3399
  118OSM    C4S12319  -0.347   3.253   6.244 -0.1884 -0.1770  0.2312
  118OSM    H4S12320  -0.441   3.288   6.289 -0.7884  0.1286 -1.2083
  118OSM    C5S12321  -0.290   3.325   6.144  0.1430  0.3890 -0.5542
  118OSM    H5S12322  -0.196   3.294   6.098  0.3869 -0.1419  0.2774
  118OSM    C6S12323  -0.357   3.453   6.093  0.6402  0.2481  0.2468
  118OSM    H6S12324  -0.306   3.548   6.117  0.1772  1.0052 -1.6062
  118OSM    H6T12325  -0.459   3.464   6.136  1.3761  0.9779  1.8918
  118OSM    C7S12326  -0.370   3.454   5.936  0.6025 -0.1573 -0.5108
  118OSM    H7S12327  -0.452   3.381   5.917 -0.7464  0.9879  0.5751
  118OSM    H7T12328  -0.271   3.424   5.897  0.3217 -0.8903 -0.6777
  118OSM    C8S12329  -0.409   3.592   5.883  0.2032 -0.8029 -1.0000
  118OSM    H8S12330  -0.341   3.664   5.933 -0.5480 -2.8235  3.4127
  118OSM    H8T12331  -0.513   3.618   5.911  0.1313 -1.8337 -0.2277
  118OSM    C9S12332  -0.393   3.609   5.733  0.3330 -0.2493  0.0356
  118OSM    H9S12333  -0.287   3.624   5.703  0.3554  3.5358  1.4473
  118OSM    H9T12334  -0.445   3.698   5.692  1.1048 -0.4818 -1.5009
  118OSM   C10S12335  -0.439   3.487   5.654  0.4440  0.4889  0.0219
  118OSM   H10S12336  -0.533   3.439   5.689  2.2112 -2.0135  1.6684
  118OSM   H10T12337  -0.364   3.405   5.660 -1.1620 -0.9798  1.1229
  118OSM   C11S12338  -0.476   3.527   5.513 -0.0018  0.8157  0.7417
  118OSM   H11S12339  -0.536   3.621   5.524 -0.5817  0.7384 -1.3231
  118OSM   H11T12340  -0.537   3.444   5.471 -1.6006  1.6189  1.3585
  118OSM   C12S12341  -0.350   3.555   5.421 -0.4490 -0.0145 -1.1041
  118OSM   H12S12342  -0.288   3.463   5.431 -1.7159 -0.6392  2.4704
  118OSM   H12T12343  -0.297   3.641   5.467 -0.3898 -1.3805  1.5369
  118OSM   C13S12344  -0.371   3.575   5.271  0.2083  0.2797  0.6811
  118OSM   H13S12345  -0.452   3.649   5.252 -1.2007 -1.8810 -2.6794
  118OSM   H13T12346  -0.405   3.477   5.231 -0.3698  0.9242 -0.4483
  118OSM   C14S12347  -0.251   3.605   5.190  0.1184  0.3905 -0.2499
  118OSM   H14S12348  -0.175   3.525   5.180  2.1222  1.9636  1.5094
  118OSM   H14T12349  -0.211   3.701   5.229 -0.1337  1.4160 -2.3703
  118OSM   C15S12350  -0.289   3.641   5.039 -0.3230 -0.6175 -0.2281
  118OSM   H15S12351  -0.358   3.729   5.046 -0.0234 -0.4471  0.7659
  118OSM   H15T12352  -0.332   3.556   4.983 -1.3207  0.4555 -1.1644
  118OSM   C16S12353  -0.166   3.687   4.959 -0.2675  0.1390  0.0322
  118OSM   H16S12354  -0.111   3.596   4.924  0.2347  0.6866 -0.6475
  118OSM   H16T12355  -0.099   3.746   5.025  0.9259  0.6932 -1.6115
  118OSM   C17S12356  -0.210   3.781   4.845 -0.5110  0.7253 -0.7480
  118OSM   H17S12357  -0.121   3.787   4.778  1.2225 -2.1368  1.0506
  118OSM   H17T12358  -0.231   3.881   4.888 -0.5524  0.9871 -1.3704
  118OSM   C18S12359  -0.326   3.720   4.764 -0.3426  0.3298  0.5824
  118OSM   H18S12360  -0.340   3.763   4.662 -1.5064 -1.9730 -0.3059
  118OSM   H18T12361  -0.425   3.730   4.814 -2.1944 -0.4561 -2.5926
  118OSM   H18U12362  -0.313   3.611   4.748 -0.0282  0.4825 -0.2409
  118OSM    C1F12363  -0.520   2.918   6.062  0.1228  0.6419  0.6876
  118OSM     OF12364  -0.600   2.862   6.137 -0.3571 -0.0288  0.4043
  118OSM    C2F12365  -0.534   2.899   5.914 -0.4969 -0.2336  0.4403
  118OSM    H2F12366  -0.431   2.910   5.873 -0.5995  1.8774  0.6125
  118OSM    H2G12367  -0.584   2.990   5.874 -1.5047 -0.2640  1.5785
  118OSM    C3F12368  -0.611   2.776   5.849  0.4106  0.5638  0.0195
  118OSM    H3F12369  -0.692   2.751   5.921  0.7721 -1.6518 -0.2710
  118OSM    H3G12370  -0.547   2.685   5.852 -3.3138 -2.2524  1.9658
  118OSM    C4F12371  -0.654   2.787   5.701 -0.1625 -0.1450 -0.0083
  118OSM    H4F12372  -0.737   2.861   5.705 -0.4670 -0.5021  0.3062
  118OSM    H4G12373  -0.699   2.695   5.658  2.0470 -2.2816  1.9845
  118OSM    C5F12374  -0.551   2.843   5.598  0.5142  0.0461  0.0532
  118OSM    H5F12375  -0.448   2.815   5.631  0.7281 -0.7601 -1.2257
  118OSM    H5G12376  -0.558   2.953   5.609  0.2988  0.1931 -1.4550
  118OSM    C6F12377  -0.578   2.802   5.456 -0.0873  0.3107 -0.1552
  118OSM    H6F12378  -0.568   2.692   5.451 -0.4774  0.2540  0.2203
  118OSM    H6G12379  -0.508   2.847   5.383  4.2291 -1.7879  2.3033
  118OSM    C7F12380  -0.730   2.821   5.411 -0.2821  0.2759  0.5208
  118OSM    H7F12381  -0.759   2.926   5.431  2.2761  0.4703  3.9794
  118OSM    H7G12382  -0.789   2.743   5.465  0.0419  0.3624  1.0012
  118OSM    C8F12383  -0.748   2.772   5.264 -0.4415  0.5996  0.1688
  118OSM    H8F12384  -0.856   2.749   5.256 -0.9822  2.0462  2.4978
  118OSM    H8G12385  -0.687   2.682   5.245  0.4081  0.8763  1.4779
  118OSM    C9F12386  -0.708   2.871   5.164 -0.0671 -0.4860  0.9136
  118OSM    H9F12387  -0.726   2.976   5.193  0.9160  0.0349 -0.2938
  118OSM   C10F12388  -0.650   2.855   5.042  0.0078 -0.3833  0.2036
  118OSM   H10F12389  -0.631   2.945   4.981 -2.9330  0.7035  0.7524
  118OSM   C11F12390  -0.621   2.723   4.969 -0.4399  0.4423 -0.2221
  118OSM   H11F12391  -0.619   2.733   4.858  0.7808 -1.1579 -0.3686
  118OSM   H11G12392  -0.689   2.640   4.998 -0.3201  0.0116 -1.1307
  118OSM   C12F12393  -0.484   2.681   5.027 -0.0231  0.8563 -0.1836
  118OSM   H12F12394  -0.472   2.681   5.137  2.3059  1.1884 -0.3862
  118OSM   H12G12395  -0.407   2.751   4.989  1.5656  0.7940  2.6062
  118OSM   C13F12396  -0.450   2.542   4.974 -0.0356 -0.4411 -0.4579
  118OSM   H13F12397  -0.481   2.524   4.869 -2.4880 -1.0138  0.3023
  118OSM   H13G12398  -0.505   2.486   5.052 -1.4998  0.5516 -0.7360
  118OSM   C14F12399  -0.293   2.520   4.985  0.3262  0.8949 -0.3463
  118OSM   H14F12400  -0.257   2.527   5.090  1.0348 -1.0810 -0.4285
  118OSM   H14G12401  -0.244   2.596   4.920  0.7791 -0.0869 -1.1968
  118OSM   C15F12402  -0.240   2.380   4.952 -0.1140  0.1836 -0.2423
  118OSM   H15F12403  -0.296   2.309   5.018  0.4303  1.6150  1.8826
  118OSM   H15G12404  -0.132   2.368   4.972 -0.4607 -1.0041  1.1559
  118OSM   C16F12405  -0.248   2.336   4.805 -0.2705  0.0180 -0.6710
  118OSM   H16F12406  -0.203   2.418   4.746 -0.0331 -0.3895 -1.0603
  118OSM   H16G12407  -0.355   2.338   4.775 -0.2117  2.5846 -0.9371
  118OSM   C17F12408  -0.177   2.198   4.782 -0.1983 -0.6099 -0.1669
  118OSM   H17F12409  -0.075   2.212   4.823  0.2326 -2.1946 -0.6329
  118OSM   H17G12410  -0.170   2.191   4.671  2.2726  1.1079 -0.1936
  118OSM   C18F12411  -0.222   2.082   4.867 -0.1701  0.0811  0.3448
  118OSM   H18F12412  -0.214   2.107   4.976 -0.6395  0.9366  0.1974
  118OSM   H18G12413  -0.180   1.983   4.842  0.5776  0.8622 -1.6568
  118OSM   H18H12414  -0.333   2.074   4.858 -0.2576  0.5680  0.8580
  119OSM      N12415   3.644   5.528   6.731 -0.0633 -0.6004  0.2191
  119OSM    C1512416   3.574   5.410   6.795  1.0425 -0.8463  0.3473
  119OSM   H15A12417   3.606   5.321   6.742  0.7092 -0.2666 -0.8701
  119OSM   H15B12418   3.467   5.422   6.786  0.9712 -0.5098  1.4935
  119OSM   H15C12419   3.610   5.406   6.897  0.8731 -0.2995  0.4330
  119OSM    C1412420   3.615   5.524   6.590 -0.5134  0.0839 -0.0506
  119OSM   H14A12421   3.509   5.539   6.576 -0.4375  0.2332 -0.4833
  119OSM   H14B12422   3.653   5.433   6.547 -0.4230  0.1705 -0.1585
  119OSM   H14C12423   3.672   5.598   6.535 -2.0795  0.8274 -0.7328
  119OSM    C1312424   3.599   5.660   6.789  0.3670  0.3820 -0.0215
  119OSM   H13A12425   3.633   5.673   6.890  1.9627 -0.3589 -0.4421
  119OSM   H13B12426   3.491   5.668   6.798 -0.1307 -0.1204 -3.8208
  119OSM   H13C12427   3.620   5.742   6.722  1.2209 -0.1000 -0.3622
  119OSM    C1212428   3.796   5.514   6.762  0.1769 -0.1840 -0.4295
  119OSM   H12A12429   3.822   5.522   6.866  0.1627  2.1001 -0.5573
  119OSM   H12B12430   3.841   5.606   6.729  0.4616 -0.0242  0.3788
  119OSM    C1112431   3.861   5.387   6.702  0.4952 -0.7069 -0.1790
  119OSM   H11A12432   3.807   5.292   6.724 -0.9722 -0.5956 -2.9184
  119OSM   H11B12433   3.957   5.385   6.758  0.5900  0.6762 -0.2575
  119OSM      P12434   4.022   5.491   6.527  0.2512 -0.0505 -0.1229
  119OSM    O1312435   3.996   5.636   6.558  0.2391 -0.3586 -0.3672
  119OSM    O1412436   4.136   5.416   6.588  0.9723  0.3236 -0.0556
  119OSM    O1112437   4.035   5.468   6.372  0.2480  0.0285 -0.2725
  119OSM    O1212438   3.887   5.408   6.562 -0.4457 -0.0942  0.2366
  119OSM    C1S12439   3.910   5.430   6.301  0.4309  0.3409  0.8912
  119OSM    H1S12440   3.820   5.489   6.329  1.1284  1.8421  0.0912
  119OSM    H1T12441   3.875   5.326   6.320 -0.9502  0.5611 -0.2714
  119OSM     NF12442   3.797   5.435   6.068 -0.5885  0.0520 -0.5206
  119OSM    HNF12443   3.774   5.346   6.029  0.6173  0.0528 -1.2906
  119OSM    C2S12444   3.924   5.442   6.140  0.2607  0.1976  0.0869
  119OSM    H2S12445   3.954   5.549   6.132  0.0907  0.1703 -1.0526
  119OSM    C3S12446   4.032   5.346   6.086 -0.0682 -0.1234 -0.3831
  119OSM    H3S12447   4.001   5.240   6.089 -0.5172  0.0229  0.0922
  119OSM     O312448   4.149   5.348   6.172  0.2869  0.1870  0.6372
  119OSM    HO312449   4.129   5.419   6.234  2.3825  2.2060 -0.8429
  119OSM    C4S12450   4.071   5.388   5.945 -0.0508 -0.5066 -0.6598
  119OSM    H4S12451   4.102   5.492   5.932 -1.0110 -0.2367 -0.8579
  119OSM    C5S12452   4.069   5.298   5.843  0.2914 -0.2096 -0.6284
  119OSM    H5S12453   4.038   5.194   5.861 -2.2952  0.1480 -2.4379
  119OSM    C6S12454   4.088   5.341   5.702  0.5777  0.0296  0.2317
  119OSM    H6S12455   4.135   5.260   5.642 -1.0743 -0.5334 -0.3456
  119OSM    H6T12456   4.144   5.436   5.683  0.1839 -0.4112 -3.9642
  119OSM    C7S12457   3.962   5.375   5.616 -0.8510 -0.3686 -0.4933
  119OSM    H7S12458   3.921   5.462   5.672 -0.2198 -0.1195 -0.4170
  119OSM    H7T12459   3.881   5.299   5.622 -0.8121 -0.3260  0.8017
  119OSM    C8S12460   3.978   5.436   5.479 -0.0562  0.5529  0.4971
  119OSM    H8S12461   4.051   5.520   5.492  0.2492  0.1801  1.2787
  119OSM    H8T12462   3.880   5.463   5.434 -1.3973 -1.6907  1.8910
  119OSM    C9S12463   4.048   5.327   5.384 -0.8442  0.0220  0.0218
  119OSM    H9S12464   3.984   5.238   5.366  0.6818 -1.5511  1.9476
  119OSM    H9T12465   4.141   5.294   5.435 -0.7668  1.2670  0.7392
  119OSM   C10S12466   4.077   5.386   5.249  0.4050  1.4182  0.4188
  119OSM   H10S12467   4.154   5.467   5.252  0.6946  1.1759 -0.2115
  119OSM   H10T12468   3.980   5.435   5.224 -0.4497  0.3152  1.4627
  119OSM   C11S12469   4.124   5.293   5.132 -0.1943 -0.2501  0.7124
  119OSM   H11S12470   4.044   5.220   5.112 -0.2494 -0.3188  1.1622
  119OSM   H11T12471   4.215   5.240   5.169  0.9076  0.3419 -1.0423
  119OSM   C12S12472   4.164   5.380   5.010 -0.5318  0.2169 -0.2103
  119OSM   H12S12473   4.206   5.312   4.933 -0.7954 -0.5719  0.3189
  119OSM   H12T12474   4.242   5.446   5.054  0.3519 -0.6269 -0.4643
  119OSM   C13S12475   4.043   5.453   4.946 -0.2989 -0.9000  0.2275
  119OSM   H13S12476   3.987   5.513   5.021  0.9929  1.1330 -0.3464
  119OSM   H13T12477   3.977   5.367   4.924 -1.9050  0.0955  0.9933
  119OSM   C14S12478   4.075   5.542   4.830  0.2128 -0.1787 -0.0259
  119OSM   H14S12479   4.134   5.487   4.754  0.5917 -2.1247  1.5984
  119OSM   H14T12480   4.137   5.630   4.859 -0.3018  0.0461  0.4283
  119OSM   C15S12481   3.953   5.599   4.759  0.6467 -0.3636 -0.3805
  119OSM   H15S12482   3.974   5.631   4.654  0.2565 -0.6608 -0.5489
  119OSM   H15T12483   3.930   5.683   4.829  1.6991 -1.1516  0.9636
  119OSM   C16S12484   3.832   5.503   4.755 -0.1732 -0.3258 -0.5059
  119OSM   H16S12485   3.787   5.494   4.856 -1.0809  0.4088 -0.8221
  119OSM   H16T12486   3.880   5.409   4.722  1.7886  0.0166  1.1891
  119OSM   C17S12487   3.732   5.550   4.654 -0.4757 -0.0589 -0.1447
  119OSM   H17S12488   3.795   5.542   4.563  1.1708 -1.2116  1.0352
  119OSM   H17T12489   3.719   5.660   4.671  1.9935  0.5980 -1.9280
  119OSM   C18S12490   3.614   5.466   4.657 -0.2553 -0.6716  1.0579
  119OSM   H18S12491   3.567   5.470   4.757  2.2109 -0.8355  2.3092
  119OSM   H18T12492   3.644   5.360   4.642  0.5344 -0.4164  0.7779
  119OSM   H18U12493   3.548   5.486   4.570  1.4989 -0.5120 -0.2964
  119OSM    C1F12494   3.700   5.524   6.083 -0.1363 -0.0624  0.4283
  119OSM     OF12495   3.707   5.625   6.148  0.6042 -0.2397 -0.2070
  119OSM    C2F12496   3.575   5.487   6.024  0.1730  0.4179  0.4327
  119OSM    H2F12497   3.494   5.537   6.081 -0.1817  1.1453 -0.6741
  119OSM    H2G12498   3.554   5.378   6.026  1.4481  0.0639 -1.7442
  119OSM    C3F12499   3.580   5.540   5.879 -0.0363  0.1451 -0.5702
  119OSM    H3F12500   3.645   5.476   5.817 -0.7155 -0.4262 -0.7084
  119OSM    H3G12501   3.625   5.641   5.881 -1.2040  0.6838  1.4934
  119OSM    C4F12502   3.439   5.553   5.814  0.0467  0.3418  0.5302
  119OSM    H4F12503   3.370   5.593   5.892 -1.4112 -0.2012 -0.4400
  119OSM    H4G12504   3.401   5.449   5.809  1.8095 -0.4063  1.5905
  119OSM    C5F12505   3.427   5.638   5.685  0.0983  0.5426  0.1217
  119OSM    H5F12506   3.474   5.587   5.597  0.5573 -1.3536  1.3954
  119OSM    H5G12507   3.465   5.741   5.701 -4.3941  2.2738  0.9821
  119OSM    C6F12508   3.275   5.651   5.649  1.3517 -0.3806 -0.0422
  119OSM    H6F12509   3.230   5.712   5.731  0.2441 -1.0327 -0.1621
  119OSM    H6G12510   3.244   5.545   5.647 -0.5687  0.1605 -0.8190
  119OSM    C7F12511   3.251   5.726   5.516  0.2771  0.0246 -0.1624
  119OSM    H7F12512   3.317   5.693   5.433  0.5913  1.4345 -0.4995
  119OSM    H7G12513   3.277   5.833   5.528 -0.8508  0.2732  0.2302
  119OSM    C8F12514   3.100   5.733   5.471  0.2057  0.4828 -0.1866
  119OSM    H8F12515   3.027   5.765   5.548 -2.9408  0.9415 -3.1197
  119OSM    H8G12516   3.075   5.628   5.447  2.6336 -0.5745  1.4415
  119OSM    C9F12517   3.077   5.827   5.363  0.4962  0.0269 -0.1189
  119OSM    H9F12518   3.027   5.921   5.387 -1.6787 -0.1330 -3.4124
  119OSM   C10F12519   3.082   5.799   5.234 -0.4566 -0.3417 -0.8284
  119OSM   H10F12520   3.050   5.872   5.158  0.6922 -1.8402 -2.8742
  119OSM   C11F12521   3.129   5.667   5.176  0.0984 -0.0014  0.2918
  119OSM   H11F12522   3.071   5.582   5.217 -2.0069  1.1556 -0.1237
  119OSM   H11G12523   3.234   5.662   5.209  0.9226 -0.5365 -2.1799
  119OSM   C12F12524   3.139   5.666   5.022  1.3269 -0.4161  0.7236
  119OSM   H12F12525   3.210   5.734   4.971  1.2859 -0.7288  0.2447
  119OSM   H12G12526   3.041   5.693   4.976  0.1404 -3.7407  0.9559
  119OSM   C13F12527   3.186   5.529   4.970 -1.0396  0.4567  0.1693
  119OSM   H13F12528   3.106   5.453   4.984  1.2487 -2.6211 -2.0355
  119OSM   H13G12529   3.263   5.497   5.044 -4.5552 -1.5927  3.2365
  119OSM   C14F12530   3.251   5.527   4.824  0.1394  0.0540  0.4835
  119OSM   H14F12531   3.290   5.424   4.807 -0.4063  0.0504 -0.8633
  119OSM   H14G12532   3.336   5.597   4.817  0.3833 -0.3452 -0.6756
  119OSM   C15F12533   3.145   5.560   4.720  0.3426  0.2952  0.2937
  119OSM   H15F12534   3.087   5.646   4.760 -0.0751 -0.7037  1.9319
  119OSM   H15G12535   3.077   5.473   4.713  0.0631  0.0747  3.9630
  119OSM   C16F12536   3.203   5.585   4.581 -0.3703 -0.6084 -0.7731
  119OSM   H16F12537   3.271   5.499   4.563  1.2952  0.2325  1.1857
  119OSM   H16G12538   3.265   5.677   4.582  1.7764 -1.9521  2.1362
  119OSM   C17F12539   3.104   5.596   4.461  0.7017  0.6438 -0.0532
  119OSM   H17F12540   3.027   5.517   4.473  0.4927  0.9168  0.4261
  119OSM   H17G12541   3.151   5.584   4.361 -0.2656 -1.8017 -0.2699
  119OSM   C18F12542   3.016   5.720   4.459  0.4003 -0.4094  0.4887
  119OSM   H18F12543   2.964   5.731   4.557 -1.1044 -0.0802 -0.3029
  119OSM   H18G12544   2.938   5.712   4.380 -0.3979  1.0158  1.0870
  119OSM   H18H12545   3.073   5.814   4.441  2.2753 -1.1118  2.4302
  120OSM      N12546   1.296   6.192   6.643 -0.7415 -0.3828  0.2046
  120OSM    C1512547   1.174   6.102   6.614 -0.6096 -0.7437 -0.6101
  120OSM   H15A12548   1.101   6.130   6.688  0.2961 -2.2563  0.9474
  120OSM   H15B12549   1.201   6.000   6.639  1.4213  0.2093  1.4576
  120OSM   H15C12550   1.139   6.109   6.512 -0.2778 -1.7936 -0.8064
  120OSM    C1412551   1.241   6.331   6.645 -0.0056 -0.1378 -0.5172
  120OSM   H14A12552   1.186   6.355   6.735  0.7313  0.0370 -0.0985
  120OSM   H14B12553   1.176   6.354   6.562 -0.1094  0.0896 -0.3734
  120OSM   H14C12554   1.316   6.409   6.650 -0.6154  0.4199  0.1485
  120OSM    C1312555   1.348   6.158   6.776 -0.4359  0.4736 -0.2533
  120OSM   H13A12556   1.396   6.061   6.782 -2.4621 -0.8047 -2.6022
  120OSM   H13B12557   1.278   6.160   6.859  0.8326 -0.4122  0.8909
  120OSM   H13C12558   1.428   6.227   6.798 -0.8566  0.5508  1.1759
  120OSM    C1212559   1.403   6.179   6.533  0.0673 -0.2388 -0.4700
  120OSM   H12A12560   1.438   6.078   6.546  1.2821  0.1110 -0.8432
  120OSM   H12B12561   1.485   6.249   6.543 -2.0672  2.3370  0.5667
  120OSM    C1112562   1.348   6.199   6.388 -0.0812  0.5073 -0.3909
  120OSM   H11A12563   1.258   6.137   6.367 -0.4915  1.4505 -1.4962
  120OSM   H11B12564   1.430   6.150   6.331  2.0283  1.4171  1.6980
  120OSM      P12565   1.425   6.453   6.343 -0.2633 -0.1611  0.0625
  120OSM    O1312566   1.357   6.575   6.388 -0.3279  0.5460 -0.2244
  120OSM    O1412567   1.547   6.419   6.427 -0.0814 -0.1283 -0.2806
  120OSM    O1112568   1.465   6.465   6.194 -0.0774  0.5278 -0.4965
  120OSM    O1212569   1.319   6.335   6.342  0.2342  0.2649 -0.4906
  120OSM    C1S12570   1.360   6.483   6.096 -0.0309  0.2761  0.5015
  120OSM    H1S12571   1.268   6.521   6.147  0.0863 -0.3340  1.1927
  120OSM    H1T12572   1.350   6.383   6.049 -0.1176 -0.0165  1.1244
  120OSM     NF12573   1.306   6.602   5.883 -0.2138  0.3378  0.2898
  120OSM    HNF12574   1.297   6.545   5.801 -1.0391  0.7387  0.0861
  120OSM    C2S12575   1.410   6.568   5.979  0.0314  0.4056 -0.9639
  120OSM    H2S12576   1.432   6.667   6.026 -0.1821  0.7984 -1.6772
  120OSM    C3S12577   1.549   6.505   5.915 -0.2764  0.6464 -0.0657
  120OSM    H3S12578   1.511   6.408   5.876 -0.0029  0.8263 -0.7960
  120OSM     O312579   1.657   6.494   6.006 -0.1502  0.3177 -1.4285
  120OSM    HO312580   1.614   6.524   6.086 -0.7449 -1.3685 -1.0829
  120OSM    C4S12581   1.593   6.605   5.806  0.9175 -0.5303 -0.4681
  120OSM    H4S12582   1.653   6.692   5.835  0.9068 -0.2003 -1.3890
  120OSM    C5S12583   1.565   6.600   5.675  0.3938 -0.0680 -0.7551
  120OSM    H5S12584   1.510   6.513   5.640 -0.4903  0.1084  0.1468
  120OSM    C6S12585   1.616   6.696   5.576 -0.1297  0.1493  0.3139
  120OSM    H6S12586   1.631   6.656   5.473 -0.5147  2.4201 -0.6640
  120OSM    H6T12587   1.715   6.729   5.615 -0.2296 -1.7721  2.4349
  120OSM    C7S12588   1.515   6.815   5.556 -0.0701  0.1585 -0.3085
  120OSM    H7S12589   1.563   6.894   5.495  0.3113 -0.8076 -1.2925
  120OSM    H7T12590   1.482   6.860   5.653 -0.4510 -1.8868  0.5557
  120OSM    C8S12591   1.382   6.773   5.486  0.4351  0.3837  0.4845
  120OSM    H8S12592   1.329   6.701   5.552  1.0174 -0.5004  0.0086
  120OSM    H8T12593   1.398   6.723   5.388 -2.3259  0.2639  0.0112
  120OSM    C9S12594   1.283   6.885   5.449  0.1692  0.0578 -0.3942
  120OSM    H9S12595   1.337   6.972   5.406 -2.2177  1.4492 -0.7697
  120OSM    H9T12596   1.230   6.917   5.541 -1.3722  1.9960 -1.8648
  120OSM   C10S12597   1.182   6.829   5.350 -0.3219 -0.6721  0.1149
  120OSM   H10S12598   1.097   6.901   5.346 -0.1832 -0.4821 -3.6901
  120OSM   H10T12599   1.136   6.736   5.387 -1.1796 -0.3531 -0.1187
  120OSM   C11S12600   1.242   6.806   5.207  0.4637  0.7712  0.0884
  120OSM   H11S12601   1.179   6.737   5.146 -1.0331  1.2597  1.0098
  120OSM   H11T12602   1.339   6.753   5.213 -0.2562 -0.9336 -1.9817
  120OSM   C12S12603   1.253   6.931   5.118  0.2487 -0.1030 -0.1258
  120OSM   H12S12604   1.322   7.003   5.166 -0.3333  1.0158 -0.9094
  120OSM   H12T12605   1.153   6.978   5.104  1.2103  1.8998 -0.5648
  120OSM   C13S12606   1.296   6.904   4.974 -0.1681 -0.1426 -0.2125
  120OSM   H13S12607   1.212   6.862   4.914 -0.2195 -1.0315  0.4596
  120OSM   H13T12608   1.375   6.826   4.978 -1.1944 -1.3221 -1.7160
  120OSM   C14S12609   1.324   7.033   4.900 -0.2687  0.3663  0.3710
  120OSM   H14S12610   1.407   7.077   4.959  1.1089 -0.9357 -0.5342
  120OSM   H14T12611   1.236   7.102   4.901 -0.7683 -0.1948 -1.1557
  120OSM   C15S12612   1.364   7.019   4.749 -0.6221 -0.4073 -0.2201
  120OSM   H15S12613   1.299   6.958   4.683  0.6892  2.2653 -4.4209
  120OSM   H15T12614   1.473   6.995   4.747  0.0109  2.1632 -0.7114
  120OSM   C16S12615   1.366   7.157   4.679  0.3191  0.4048  0.8249
  120OSM   H16S12616   1.432   7.229   4.732 -1.3575  2.0277  0.8011
  120OSM   H16T12617   1.269   7.205   4.704 -0.0198 -0.1637  0.6196
  120OSM   C17S12618   1.373   7.147   4.528  0.0438  0.0818  0.0343
  120OSM   H17S12619   1.301   7.066   4.503 -1.8696  0.7758  2.7840
  120OSM   H17T12620   1.477   7.114   4.506  0.9655  2.8063 -0.1229
  120OSM   C18S12621   1.334   7.279   4.450  0.2315  1.7918  0.2975
  120OSM   H18S12622   1.223   7.283   4.448  0.2145  0.9709 -0.6123
  120OSM   H18T12623   1.369   7.270   4.345 -1.2162 -0.1880 -0.0711
  120OSM   H18U12624   1.385   7.366   4.497  2.0373 -0.2437  2.3631
  120OSM    C1F12625   1.208   6.684   5.919 -0.5963  0.4798  0.0268
  120OSM     OF12626   1.222   6.740   6.029  0.6257 -0.2201 -0.2347
  120OSM    C2F12627   1.084   6.704   5.838  0.4557 -0.1398  0.3307
  120OSM    H2F12628   1.059   6.802   5.791 -3.4284 -1.8121 -1.5564
  120OSM    H2G12629   0.989   6.696   5.895 -0.5700  1.4051 -1.0743
  120OSM    C3F12630   1.071   6.589   5.737  0.1475  0.2047  0.2069
  120OSM    H3F12631   1.086   6.495   5.793 -0.5532 -0.8543 -1.3346
  120OSM    H3G12632   1.149   6.605   5.659 -1.1762  0.0142 -1.2086
  120OSM    C4F12633   0.941   6.590   5.653  0.8198  0.2767 -0.0508
  120OSM    H4F12634   0.936   6.686   5.597 -2.5656  0.6111  0.6285
  120OSM    H4G12635   0.849   6.596   5.714  2.0541 -0.3615  1.9861
  120OSM    C5F12636   0.934   6.455   5.583 -0.5293 -0.3981  0.4264
  120OSM    H5F12637   0.930   6.374   5.659 -0.0573 -0.4792  0.3620
  120OSM    H5G12638   1.023   6.448   5.517 -2.0258  1.8975 -2.0397
  120OSM    C6F12639   0.811   6.440   5.488  0.6006 -0.4005  1.1224
  120OSM    H6F12640   0.816   6.533   5.428 -0.3983  0.0978  1.7987
  120OSM    H6G12641   0.712   6.448   5.537 -0.7653  2.1840 -1.7408
  120OSM    C7F12642   0.815   6.324   5.387  0.5364  0.0889 -0.3489
  120OSM    H7F12643   0.914   6.328   5.337  0.2881 -0.8074 -0.9425
  120OSM    H7G12644   0.743   6.337   5.303  0.1530 -1.0189 -0.2211
  120OSM    C8F12645   0.783   6.189   5.458 -0.1449 -0.0060  0.0391
  120OSM    H8F12646   0.842   6.184   5.552  0.4975 -0.0432 -0.3607
  120OSM    H8G12647   0.829   6.107   5.400  2.8412  1.6635 -0.1217
  120OSM    C9F12648   0.637   6.172   5.490 -0.4767  0.6594  0.0724
  120OSM    H9F12649   0.601   6.219   5.582 -1.9834 -1.1189  0.4564
  120OSM   C10F12650   0.549   6.115   5.404 -0.9523 -0.1300 -0.8902
  120OSM   H10F12651   0.443   6.114   5.434 -1.0108  2.8319 -0.7327
  120OSM   C11F12652   0.586   6.048   5.279  0.3634 -0.4569  0.7657
  120OSM   H11F12653   0.577   5.937   5.274  2.2650 -0.6094 -0.4525
  120OSM   H11G12654   0.689   6.071   5.244  0.5161 -2.0025  0.1325
  120OSM   C12F12655   0.492   6.107   5.168  0.5560 -0.5224 -0.0868
  120OSM   H12F12656   0.501   6.217   5.172 -1.8285 -0.3026  1.7872
  120OSM   H12G12657   0.383   6.097   5.189  0.8572  0.0832  1.9051
  120OSM   C13F12658   0.519   6.042   5.032 -0.0652 -0.2262  0.2661
  120OSM   H13F12659   0.456   5.951   5.019 -1.0133  0.5345 -0.6423
  120OSM   H13G12660   0.624   6.010   5.016 -0.2697  0.2146 -2.5799
  120OSM   C14F12661   0.480   6.136   4.917 -0.1131 -0.0540  0.7930
  120OSM   H14F12662   0.527   6.234   4.937 -1.2702  0.4445  1.1984
  120OSM   H14G12663   0.369   6.145   4.925 -0.0325  3.4665 -0.4736
  120OSM   C15F12664   0.501   6.081   4.774  0.4942  0.2416  0.2251
  120OSM   H15F12665   0.610   6.062   4.760  0.8805  2.9459 -1.2301
  120OSM   H15G12666   0.483   6.165   4.703 -0.8182  0.8859  1.2952
  120OSM   C16F12667   0.423   5.955   4.750  0.3560 -0.4462 -0.1161
  120OSM   H16F12668   0.320   5.980   4.784 -0.2872 -0.6665 -1.8104
  120OSM   H16G12669   0.461   5.871   4.813 -1.1553 -1.1409 -0.0746
  120OSM   C17F12670   0.427   5.895   4.604  0.4078 -0.7645 -0.2498
  120OSM   H17F12671   0.370   5.800   4.593 -0.5726 -0.0041 -2.1659
  120OSM   H17G12672   0.529   5.857   4.586  0.5650  0.0846 -1.2011
  120OSM   C18F12673   0.380   5.998   4.501  0.5390  0.4246  0.0935
  120OSM   H18F12674   0.280   6.029   4.538  0.1983  0.2323 -0.6437
  120OSM   H18G12675   0.367   5.948   4.403 -0.8865  0.4622  0.2352
  120OSM   H18H12676   0.459   6.076   4.494  1.1217 -0.0954  0.8013
  121OSM      N12677   0.551   0.437   6.625 -0.6767  0.1074  0.0669
  121OSM    C1512678   0.500   0.505   6.504  0.1110 -0.7506 -0.9796
  121OSM   H15A12679   0.536   0.458   6.414  0.9632  0.9034 -1.5533
  121OSM   H15B12680   0.539   0.606   6.505 -0.7477 -0.4050  0.7298
  121OSM   H15C12681   0.392   0.513   6.503  0.0036 -1.3889  1.4482
  121OSM    C1412682   0.461   0.463   6.741  0.2429  1.0615  0.7258
  121OSM   H14A12683   0.487   0.403   6.827  1.8474 -1.8435 -1.6020
  121OSM   H14B12684   0.357   0.443   6.722  0.6655  1.6103 -2.6769
  121OSM   H14C12685   0.461   0.566   6.774 -1.8672  1.1196  0.7045
  121OSM    C1312686   0.558   0.288   6.592 -0.5708  0.5939 -0.0759
  121OSM   H13A12687   0.632   0.274   6.515 -0.0138 -0.4704  0.6228
  121OSM   H13B12688   0.469   0.251   6.543  0.0208 -0.4328 -0.4035
  121OSM   H13C12689   0.571   0.234   6.685 -1.3267  0.4227 -0.0613
  121OSM    C1212690   0.687   0.489   6.671  0.3494 -0.6445 -0.0919
  121OSM   H12A12691   0.756   0.470   6.590 -0.5721  2.5963 -1.8118
  121OSM   H12B12692   0.736   0.438   6.752  0.9745  2.4803  1.6332
  121OSM    C1112693   0.696   0.641   6.693  0.1774 -0.2103 -0.5605
  121OSM   H11A12694   0.798   0.663   6.733 -0.3475  2.2015 -0.3664
  121OSM   H11B12695   0.635   0.672   6.780 -0.8242 -1.0393 -0.9556
  121OSM      P12696   0.756   0.854   6.546 -0.0242 -0.5402  0.3345
  121OSM    O1312697   0.673   0.964   6.485 -0.1451  0.4197 -0.1586
  121OSM    O1412698   0.843   0.897   6.652  0.0325  0.4513 -0.1145
  121OSM    O1112699   0.844   0.796   6.429 -0.5185  0.1943 -0.2738
  121OSM    O1212700   0.663   0.729   6.584 -0.2910  0.7495 -0.0982
  121OSM    C1S12701   0.790   0.762   6.300 -0.1387 -0.3175  0.4919
  121OSM    H1S12702   0.811   0.845   6.229 -0.1999  0.7603  1.7012
  121OSM    H1T12703   0.680   0.748   6.289 -0.4939 -0.1594  3.1419
  121OSM     NF12704   0.786   0.608   6.112  0.7393 -0.2146  0.5045
  121OSM    HNF12705   0.717   0.536   6.111  0.1367  0.3578 -0.2363
  121OSM    C2S12706   0.860   0.640   6.236  0.6398 -0.2240 -0.4863
  121OSM    H2S12707   0.960   0.671   6.201  0.3253 -0.2241 -1.4247
  121OSM    C3S12708   0.872   0.521   6.326 -0.1822  0.8847 -0.6930
  121OSM    H3S12709   0.770   0.491   6.358  1.1175 -0.1513  3.0349
  121OSM     O312710   0.944   0.551   6.443  0.1849 -0.0439  0.5386
  121OSM    HO312711   0.963   0.645   6.442  0.6639 -0.1385  0.2563
  121OSM    C4S12712   0.934   0.408   6.245  0.2218 -0.4767 -0.6391
  121OSM    H4S12713   1.016   0.432   6.176 -0.9366 -0.3336 -2.0186
  121OSM    C5S12714   0.884   0.283   6.242  0.0527  0.4542 -0.1832
  121OSM    H5S12715   0.808   0.253   6.316  2.9333  0.3992  2.9559
  121OSM    C6S12716   0.937   0.170   6.157 -0.3596 -0.3312 -0.4026
  121OSM    H6S12717   0.941   0.079   6.220  0.6730  0.2805  0.4468
  121OSM    H6T12718   1.039   0.191   6.117 -0.6376  1.5313 -0.2390
  121OSM    C7S12719   0.836   0.138   6.044  0.5807  0.1439 -0.3284
  121OSM    H7S12720   0.735   0.135   6.090  0.2337  0.4646 -1.0501
  121OSM    H7T12721   0.856   0.030   6.024 -0.7079 -0.2089  0.2090
  121OSM    C8S12722   0.850   0.219   5.914  0.2872 -0.4159  0.2047
  121OSM    H8S12723   0.957   0.209   5.886 -0.1908 -1.9154 -1.1920
  121OSM    H8T12724   0.831   0.327   5.926 -1.8916 -0.5558 -1.4645
  121OSM    C9S12725   0.760   0.176   5.793  0.2559 -0.1210 -0.3938
  121OSM    H9S12726   0.654   0.210   5.804  0.2657  0.4758 -1.9182
  121OSM    H9T12727   0.753   0.066   5.783  2.1208 -0.3222  0.1529
  121OSM   C10S12728   0.806   0.230   5.655 -0.6640  0.6014  0.0495
  121OSM   H10S12729   0.916   0.211   5.658 -0.3865  2.1257  2.6564
  121OSM   H10T12730   0.801   0.340   5.647 -1.0582  0.6620  1.0080
  121OSM   C11S12731   0.746   0.158   5.533 -0.1978  0.4281  0.0281
  121OSM   H11S12732   0.635   0.158   5.530 -0.2413  1.8564  0.8452
  121OSM   H11T12733   0.787   0.055   5.538  3.0611  1.5210 -1.6820
  121OSM   C12S12734   0.807   0.214   5.396 -0.1021 -0.3172 -0.5736
  121OSM   H12S12735   0.918   0.208   5.401  0.2033  0.2621 -4.2778
  121OSM   H12T12736   0.782   0.322   5.401 -0.2340 -0.3969  2.3814
  121OSM   C13S12737   0.775   0.153   5.264 -0.1191 -0.6598  1.0063
  121OSM   H13S12738   0.833   0.211   5.189 -0.3886 -0.0689  1.2488
  121OSM   H13T12739   0.674   0.172   5.223  1.2147  0.5902 -1.9257
  121OSM   C14S12740   0.810   0.005   5.262 -0.1934  0.2438  0.1894
  121OSM   H14S12741   0.748  -0.064   5.323 -1.4617  2.4563  1.5222
  121OSM   H14T12742   0.908  -0.005   5.313 -0.5104  0.1034  0.7821
  121OSM   C15S12743   0.805  -0.053   5.119  0.1847  0.5420 -0.3897
  121OSM   H15S12744   0.880   0.007   5.063  2.9514  0.8810  3.3105
  121OSM   H15T12745   0.703  -0.028   5.083 -0.0387 -0.6434 -0.6151
  121OSM   C16S12746   0.837  -0.208   5.103 -1.0450 -0.6552  0.2391
  121OSM   H16S12747   0.794  -0.262   5.191  0.6593 -1.9910  0.3000
  121OSM   H16T12748   0.947  -0.224   5.105 -1.1162 -2.0915 -2.3680
  121OSM   C17S12749   0.762  -0.274   4.982  0.4166 -0.3122 -0.4028
  121OSM   H17S12750   0.798  -0.235   4.884  2.1933 -0.9910 -0.0509
  121OSM   H17T12751   0.653  -0.253   4.987  0.6598  1.2223 -0.7631
  121OSM   C18S12752   0.779  -0.427   4.975  0.2452 -1.2755 -0.2701
  121OSM   H18S12753   0.872  -0.448   4.919  0.0808  0.0817 -1.0866
  121OSM   H18T12754   0.698  -0.472   4.913 -0.2049  0.8267 -1.3131
  121OSM   H18U12755   0.769  -0.477   5.074 -1.7479 -3.3579 -1.4276
  121OSM    C1F12756   0.787   0.676   6.000 -0.0227  0.5087 -0.4843
  121OSM     OF12757   0.874   0.761   5.976  0.0241  0.2765 -0.0327
  121OSM    C2F12758   0.691   0.637   5.897  0.0052 -0.3016 -0.1863
  121OSM    H2F12759   0.608   0.708   5.916  0.5587  0.4236 -0.4039
  121OSM    H2G12760   0.662   0.531   5.915  0.6554 -0.5081 -0.3275
  121OSM    C3F12761   0.764   0.643   5.757  0.3071  0.2294  0.2417
  121OSM    H3F12762   0.850   0.574   5.746  1.0282  1.1259  0.1392
  121OSM    H3G12763   0.811   0.740   5.730  1.0145 -0.2973 -0.4939
  121OSM    C4F12764   0.655   0.624   5.655  0.8417  0.1446 -0.3955
  121OSM    H4F12765   0.580   0.706   5.658 -0.7484 -1.2137 -1.2402
  121OSM    H4G12766   0.597   0.530   5.670  0.7446  0.0516 -1.3107
  121OSM    C5F12767   0.724   0.618   5.511  0.0369  0.4034 -0.5332
  121OSM    H5F12768   0.799   0.536   5.510 -1.8087 -1.3417 -0.4631
  121OSM    H5G12769   0.769   0.717   5.487 -1.0241  0.6716 -1.5182
  121OSM    C6F12770   0.614   0.583   5.410 -0.2532 -0.2446 -0.2470
  121OSM    H6F12771   0.528   0.654   5.416 -0.9945 -1.1552  0.2556
  121OSM    H6G12772   0.578   0.481   5.437  1.3532  0.1345  4.0420
  121OSM    C7F12773   0.662   0.575   5.268  0.3228  0.0840  0.4668
  121OSM    H7F12774   0.755   0.515   5.257  0.6147  0.7644 -1.0053
  121OSM    H7G12775   0.700   0.673   5.230  0.9994 -0.9501 -1.6738
  121OSM    C8F12776   0.556   0.505   5.173 -0.7283  0.0688  0.7944
  121OSM    H8F12777   0.535   0.403   5.211 -0.1822 -0.3814 -0.0967
  121OSM    H8G12778   0.601   0.489   5.073  1.3326 -0.2549  1.7348
  121OSM    C9F12779   0.419   0.569   5.157  0.9844  0.0830  0.5290
  121OSM    H9F12780   0.355   0.561   5.246  0.7986 -3.7375  0.2444
  121OSM   C10F12781   0.365   0.625   5.048  0.0159  1.2319  0.9569
  121OSM   H10F12782   0.270   0.679   5.054  0.5984  2.2148  1.6006
  121OSM   C11F12783   0.426   0.651   4.920 -0.1227  0.5841 -0.3952
  121OSM   H11F12784   0.521   0.594   4.909 -1.7544 -2.2653 -1.0127
  121OSM   H11G12785   0.459   0.757   4.921 -0.2648  0.7090  3.2174
  121OSM   C12F12786   0.341   0.604   4.802  0.5872  0.1548  0.1142
  121OSM   H12F12787   0.258   0.677   4.789 -1.0723 -1.2639  2.0963
  121OSM   H12G12788   0.287   0.508   4.814  1.6402 -0.2633  1.9762
  121OSM   C13F12789   0.417   0.578   4.667 -1.2762 -0.0907 -0.7403
  121OSM   H13F12790   0.504   0.513   4.693  0.9876  2.4994 -1.3716
  121OSM   H13G12791   0.472   0.671   4.641 -0.7850 -0.3461 -0.6299
  121OSM   C14F12792   0.336   0.525   4.550  0.7643 -0.0289 -0.1106
  121OSM   H14F12793   0.252   0.598   4.547  1.6853  1.1949  2.0743
  121OSM   H14G12794   0.298   0.427   4.586  0.8430  0.5619  1.6313
  121OSM   C15F12795   0.399   0.514   4.414 -0.3071  0.1803 -0.1721
  121OSM   H15F12796   0.447   0.614   4.403  1.5892 -0.0943  3.8272
  121OSM   H15G12797   0.321   0.497   4.336 -1.1913  0.4022  0.6340
  121OSM   C16F12798   0.504   0.406   4.396  0.0660  0.6473  0.2934
  121OSM   H16F12799   0.575   0.401   4.481 -0.7930  1.0704  1.0604
  121OSM   H16G12800   0.567   0.448   4.315  2.5979  0.4248  2.0371
  121OSM   C17F12801   0.447   0.269   4.349 -0.0430  0.1273  0.2164
  121OSM   H17F12802   0.409   0.277   4.245 -0.4151 -1.6434  0.1903
  121OSM   H17G12803   0.367   0.229   4.415 -0.6307  0.9810  0.0413
  121OSM   C18F12804   0.549   0.169   4.341 -0.1543 -0.2918  0.0603
  121OSM   H18F12805   0.583   0.142   4.443  0.6498  0.1272 -0.0871
  121OSM   H18G12806   0.642   0.201   4.289  0.5467 -0.0707  1.4096
  121OSM   H18H12807   0.519   0.077   4.287 -0.7452 -0.4478  0.6469
  122OSM      N12808   5.764   2.239   6.809 -0.6536 -0.0225  0.1772
  122OSM    C1512809   5.887   2.230   6.891 -0.2201 -0.3708  1.5147
  122OSM   H15A12810   5.910   2.128   6.918 -1.1767 -0.3283  2.5394
  122OSM   H15B12811   5.881   2.291   6.980 -2.3423  1.4041  0.2682
  122OSM   H15C12812   5.975   2.265   6.838  0.9091 -0.0037  3.5217
  122OSM    C1412813   5.795   2.152   6.688  0.1944  0.5572  0.1618
  122OSM   H14A12814   5.884   2.189   6.638 -0.8312  1.8929 -0.7455
  122OSM   H14B12815   5.721   2.139   6.610  0.9429  3.3955 -1.1870
  122OSM   H14C12816   5.836   2.061   6.727  1.9228  2.4429  3.1371
  122OSM    C1312817   5.664   2.174   6.885 -0.5916 -0.9623  0.4593
  122OSM   H13A12818   5.645   2.229   6.976  1.3101 -1.2829  1.0988
  122OSM   H13B12819   5.689   2.074   6.918 -0.2920 -0.8290  0.6443
  122OSM   H13C12820   5.574   2.172   6.826  2.8421 -2.2104 -5.5350
  122OSM    C1212821   5.734   2.382   6.760  0.3985  0.9823 -0.3780
  122OSM   H12A12822   5.726   2.453   6.841  0.5324 -0.5473  1.0334
  122OSM   H12B12823   5.637   2.379   6.712 -0.3259 -0.4629  1.0500
  122OSM    C1112824   5.822   2.440   6.645 -0.1738  0.1454 -0.3842
  122OSM   H11A12825   5.776   2.534   6.609 -0.7769 -0.3695 -0.9950
  122OSM   H11B12826   5.808   2.370   6.560  3.0568  0.9293 -1.6901
  122OSM      P12827   5.989   2.582   6.770 -0.2959  0.4339 -0.1414
  122OSM    O1312828   5.870   2.623   6.851  0.2980  0.1878  0.0417
  122OSM    O1412829   6.110   2.541   6.845  0.2170  0.2612 -0.6019
  122OSM    O1112830   6.019   2.702   6.671 -0.3263 -0.7090  0.1885
  122OSM    O1212831   5.956   2.460   6.675 -0.0129  0.4925  0.1851
  122OSM    C1S12832   6.113   2.692   6.559  0.0165  0.4985  0.6483
  122OSM    H1S12833   6.187   2.610   6.572  2.2652  2.2245 -0.4207
  122OSM    H1T12834   6.172   2.786   6.550 -0.5606  0.9393  1.3386
  122OSM     NF12835   6.128   2.633   6.306 -0.0747  0.1601 -0.2564
  122OSM    HNF12836   6.155   2.709   6.247 -2.0867  0.6221 -0.6366
  122OSM    C2S12837   6.034   2.655   6.416 -0.1693 -0.1594 -0.1360
  122OSM    H2S12838   5.973   2.565   6.438 -2.0888  1.1757  0.3265
  122OSM    C3S12839   5.928   2.763   6.394  0.4154  0.0676  0.1884
  122OSM    H3S12840   5.968   2.866   6.403  1.8136 -0.3035 -1.2922
  122OSM     O312841   5.823   2.757   6.486 -0.0978 -0.0589 -0.7708
  122OSM    HO312842   5.863   2.719   6.565 -2.3552  2.1845  1.7008
  122OSM    C4S12843   5.866   2.763   6.255  0.6394 -0.7813  0.0431
  122OSM    H4S12844   5.848   2.660   6.221 -1.3531 -0.5150  0.1644
  122OSM    C5S12845   5.852   2.860   6.167 -0.4899 -0.0665 -0.3518
  122OSM    H5S12846   5.887   2.962   6.192  0.5024 -0.5198  0.1587
  122OSM    C6S12847   5.801   2.842   6.027 -0.2063 -0.1600 -0.1054
  122OSM    H6S12848   5.852   2.907   5.953 -0.1128  0.4068  0.4495
  122OSM    H6T12849   5.696   2.878   6.017 -0.6228 -1.8957 -2.9966
  122OSM    C7S12850   5.821   2.701   5.965 -0.3974  0.2550 -1.2229
  122OSM    H7S12851   5.764   2.628   6.024  0.4893  1.2276  0.9393
  122OSM    H7T12852   5.927   2.675   5.989  0.0788  1.7530 -1.5698
  122OSM    C8S12853   5.790   2.693   5.819  0.1251 -1.1207 -0.2376
  122OSM    H8S12854   5.854   2.774   5.778  0.1932 -0.0320  1.8841
  122OSM    H8T12855   5.681   2.714   5.815  0.4734  0.8756  0.0004
  122OSM    C9S12856   5.808   2.553   5.760  0.3001 -0.5927  0.3236
  122OSM    H9S12857   5.737   2.476   5.795  0.1411 -0.6263 -0.0689
  122OSM    H9T12858   5.911   2.527   5.794  0.7577  1.9120  1.0935
  122OSM   C10S12859   5.823   2.563   5.610  0.5541 -0.6025  0.1568
  122OSM   H10S12860   5.894   2.643   5.581 -0.9118  0.4114 -0.7787
  122OSM   H10T12861   5.726   2.584   5.561  1.4717  0.5381 -1.2418
  122OSM   C11S12862   5.884   2.439   5.547  0.9642 -0.4972  0.6516
  122OSM   H11S12863   5.812   2.359   5.575  0.5604 -0.2681  0.2726
  122OSM   H11T12864   5.986   2.412   5.581  2.9480  2.2198 -2.4867
  122OSM   C12S12865   5.903   2.447   5.394  0.3269  0.3079 -0.5683
  122OSM   H12S12866   6.000   2.489   5.359  0.3979 -0.5711 -1.4694
  122OSM   H12T12867   5.824   2.509   5.347 -2.0326 -2.3918 -0.4279
  122OSM   C13S12868   5.908   2.315   5.314  0.1083 -0.0750  0.4114
  122OSM   H13S12869   5.819   2.256   5.344 -0.1688  0.4452  0.6365
  122OSM   H13T12870   5.998   2.253   5.334 -1.3276 -2.4065 -0.0319
  122OSM   C14S12871   5.882   2.337   5.164  0.0133 -0.0647 -0.0264
  122OSM   H14S12872   5.918   2.439   5.139  2.6358 -0.7597  0.5171
  122OSM   H14T12873   5.775   2.316   5.147 -1.2503  3.8238  1.8921
  122OSM   C15S12874   5.962   2.233   5.083  0.0892  0.3115 -0.1089
  122OSM   H15S12875   5.909   2.215   4.987 -1.4625  1.2933  0.5223
  122OSM   H15T12876   5.978   2.138   5.137 -1.3280  0.3614  0.4332
  122OSM   C16S12877   6.098   2.288   5.047 -0.4048  0.0437  0.3749
  122OSM   H16S12878   6.145   2.327   5.140 -1.2751 -0.2195  0.9340
  122OSM   H16T12879   6.099   2.373   4.976  0.3121 -1.0302 -0.9560
  122OSM   C17S12880   6.188   2.184   4.974  0.6767  0.2333 -0.3191
  122OSM   H17S12881   6.187   2.095   5.041 -1.3707 -1.3730 -2.3150
  122OSM   H17T12882   6.293   2.219   4.963  1.3144 -1.4619 -0.0182
  122OSM   C18S12883   6.140   2.133   4.837 -0.5574 -0.4587  1.1146
  122OSM   H18S12884   6.102   2.211   4.769  1.9563  0.4224  0.6327
  122OSM   H18T12885   6.063   2.056   4.861 -1.6800 -0.4999 -2.1279
  122OSM   H18U12886   6.224   2.084   4.783 -1.1546  0.0338 -0.3012
  122OSM    C1F12887   6.189   2.513   6.294  0.3302 -0.4263 -0.5077
  122OSM     OF12888   6.168   2.426   6.376 -0.1129 -0.0204 -0.0400
  122OSM    C2F12889   6.285   2.499   6.183 -0.9786 -0.9808  0.0503
  122OSM    H2F12890   6.388   2.515   6.222 -0.9219 -0.4669 -0.3106
  122OSM    H2G12891   6.253   2.581   6.116 -2.5767 -1.0758  0.6498
  122OSM    C3F12892   6.289   2.370   6.107 -0.2744 -0.3174  0.3218
  122OSM    H3F12893   6.317   2.287   6.176  2.6674  0.0709 -0.2671
  122OSM    H3G12894   6.364   2.367   6.025  0.1864  1.0452  0.6732
  122OSM    C4F12895   6.149   2.335   6.044  0.2038 -0.4459 -0.0454
  122OSM    H4F12896   6.110   2.411   5.973 -1.9856 -2.1084 -0.7771
  122OSM    H4G12897   6.075   2.324   6.126 -0.1432 -0.0235 -0.2954
  122OSM    C5F12898   6.138   2.199   5.980 -0.0845  0.6155  0.1772
  122OSM    H5F12899   6.034   2.182   5.944 -0.7869 -2.0554  3.0961
  122OSM    H5G12900   6.155   2.121   6.057 -4.2850  0.2319  0.9447
  122OSM    C6F12901   6.232   2.177   5.860  0.1669 -0.0949 -0.5035
  122OSM    H6F12902   6.208   2.080   5.812 -0.8177  0.0821 -0.3881
  122OSM    H6G12903   6.333   2.171   5.905 -0.0105  1.2916  0.1268
  122OSM    C7F12904   6.245   2.299   5.768  0.3602  0.0959  0.2893
  122OSM    H7F12905   6.274   2.388   5.829  2.3444  0.4725 -1.1024
  122OSM    H7G12906   6.150   2.330   5.720  1.0728  1.1174 -0.5271
  122OSM    C8F12907   6.349   2.289   5.659 -0.4726 -0.1448  0.1902
  122OSM    H8F12908   6.329   2.191   5.610 -2.2351  1.8383 -3.5582
  122OSM    H8G12909   6.455   2.290   5.692  0.0515  1.6893 -1.3369
  122OSM    C9F12910   6.328   2.381   5.544  0.3056  0.4240  0.4549
  122OSM    H9F12911   6.257   2.463   5.562 -1.5939 -0.7488 -1.1890
  122OSM   C10F12912   6.388   2.368   5.421 -0.2388 -0.0877 -0.9827
  122OSM   H10F12913   6.350   2.427   5.337 -0.4901  0.2301 -0.6447
  122OSM   C11F12914   6.500   2.273   5.381  0.1943  0.1952  0.0902
  122OSM   H11F12915   6.467   2.221   5.288 -0.4232  1.8093 -0.6274
  122OSM   H11G12916   6.530   2.190   5.448 -0.1312 -0.2448 -0.3058
  122OSM   C12F12917   6.635   2.347   5.341  0.5766 -0.4380 -0.3898
  122OSM   H12F12918   6.622   2.424   5.261 -0.5957  0.6615  0.7988
  122OSM   H12G12919   6.697   2.260   5.313 -0.7116 -1.7212  0.5887
  122OSM   C13F12920   6.685   2.429   5.462 -0.5559  0.2061  0.4149
  122OSM   H13F12921   6.600   2.491   5.499 -1.2957 -0.6067  0.1183
  122OSM   H13G12922   6.773   2.490   5.432 -0.7446  0.7049  0.8536
  122OSM   C14F12923   6.738   2.345   5.581  0.7688  0.5834  0.0736
  122OSM   H14F12924   6.820   2.282   5.540  2.0038  1.7109  0.7549
  122OSM   H14G12925   6.663   2.268   5.611  1.3166 -0.1646 -0.4408
  122OSM   C15F12926   6.794   2.422   5.701  0.9089 -0.3954 -0.4839
  122OSM   H15F12927   6.878   2.487   5.669  1.0598 -0.1880  0.3255
  122OSM   H15G12928   6.833   2.356   5.781 -0.5710  0.7565  1.2657
  122OSM   C16F12929   6.688   2.505   5.773 -0.0652  0.0915 -0.4652
  122OSM   H16F12930   6.613   2.442   5.824 -0.5183  0.3938 -0.7519
  122OSM   H16G12931   6.637   2.571   5.700  1.5119  0.8518 -0.9203
  122OSM   C17F12932   6.749   2.587   5.893  0.0502  0.5954 -0.1097
  122OSM   H17F12933   6.807   2.673   5.852  2.4505 -1.1160 -0.5604
  122OSM   H17G12934   6.826   2.521   5.939 -1.5446 -0.8339  0.6005
  122OSM   C18F12935   6.641   2.634   5.994 -0.3422 -0.7156  0.8006
  122OSM   H18F12936   6.588   2.548   6.039  1.8613 -3.0484 -0.8019
  122OSM   H18G12937   6.571   2.701   5.940  1.1646  0.1796 -0.1496
  122OSM   H18H12938   6.680   2.689   6.082 -0.3232 -0.3706  0.5809
  123OSM      N12939   0.488   3.360   2.113 -0.2326 -0.6624  0.5550
  123OSM    C1512940   0.527   3.263   2.007  0.4758 -0.3815  0.8718
  123OSM   H15A12941   0.594   3.316   1.940  0.6834 -0.5410  0.9510
  123OSM   H15B12942   0.436   3.245   1.952  0.3967 -0.5335  1.0512
  123OSM   H15C12943   0.570   3.172   2.047  0.0246 -1.0024 -0.0434
  123OSM    C1412944   0.415   3.482   2.059  0.2991 -0.4359  1.1761
  123OSM   H14A12945   0.374   3.548   2.134 -1.7200 -0.5086  0.2081
  123OSM   H14B12946   0.333   3.452   1.995  0.4620  0.5040  0.5082
  123OSM   H14C12947   0.477   3.544   1.997 -1.0953 -1.4219 -1.3674
  123OSM    C1312948   0.398   3.286   2.201 -0.1776 -0.1174  0.8676
  123OSM   H13A12949   0.364   3.341   2.287  0.8310  1.9382  0.0373
  123OSM   H13B12950   0.455   3.204   2.241  1.5847  0.5344 -0.1691
  123OSM   H13C12951   0.312   3.255   2.144  0.8536  0.1984 -0.9378
  123OSM    C1212952   0.613   3.414   2.184 -0.5180 -0.0214 -0.8696
  123OSM   H12A12953   0.583   3.447   2.282 -2.1097 -1.0031 -0.9863
  123OSM   H12B12954   0.659   3.495   2.129 -2.4241  2.0762  0.4526
  123OSM    C1112955   0.717   3.304   2.219  0.3228  0.2776 -0.5663
  123OSM   H11A12956   0.797   3.375   2.248  0.6740 -0.2755 -0.1690
  123OSM   H11B12957   0.762   3.259   2.128  2.5595  0.6762  0.2869
  123OSM      P12958   0.682   3.057   2.306 -0.0722 -0.3593 -0.2117
  123OSM    O1312959   0.622   3.012   2.435 -0.4395  0.1223  0.2219
  123OSM    O1412960   0.642   2.998   2.179  0.1489 -0.3652 -0.5189
  123OSM    O1112961   0.837   3.052   2.331  0.5508  0.6669  0.1718
  123OSM    O1212962   0.659   3.209   2.314 -0.1877 -0.8475 -0.3626
  123OSM    C1S12963   0.904   3.121   2.430  0.0007 -0.0395 -0.0544
  123OSM    H1S12964   0.844   3.204   2.473  0.4414 -0.3703  1.2356
  123OSM    H1T12965   0.985   3.169   2.371 -0.6084 -0.7889 -1.5735
  123OSM     NF12966   1.045   3.137   2.633  0.0123  0.2038  0.2453
  123OSM    HNF12967   1.142   3.118   2.649 -0.2642 -1.0330  0.5632
  123OSM    C2S12968   0.974   3.042   2.549 -0.5718  0.0845 -0.4348
  123OSM    H2S12969   0.894   2.980   2.594 -1.0564  1.0314  0.0298
  123OSM    C3S12970   1.065   2.934   2.487  0.6664  0.4534  0.1490
  123OSM    H3S12971   1.141   2.995   2.433  0.0833  0.5967 -0.5402
  123OSM     O312972   1.006   2.847   2.394  0.6342 -0.2434  0.3882
  123OSM    HO312973   0.916   2.879   2.381 -0.4089 -0.4808  5.1613
  123OSM    C4S12974   1.134   2.868   2.601 -0.6289  0.5693 -0.9782
  123OSM    H4S12975   1.227   2.922   2.623 -0.8855  0.5635  0.2334
  123OSM    C5S12976   1.104   2.751   2.659  0.3720  0.3031 -1.1567
  123OSM    H5S12977   1.022   2.688   2.622  1.0981 -0.5465 -1.3469
  123OSM    C6S12978   1.171   2.698   2.783  0.4408  0.3981 -1.0272
  123OSM    H6S12979   1.268   2.750   2.801 -0.6140  1.8043  1.1552
  123OSM    H6T12980   1.196   2.592   2.763 -1.3698 -0.8834  2.5271
  123OSM    C7S12981   1.067   2.707   2.897 -0.1983 -0.4581 -0.2926
  123OSM    H7S12982   1.108   2.643   2.978  0.9045  1.5156  0.7946
  123OSM    H7T12983   0.978   2.649   2.867  0.9338 -2.0395 -0.7471
  123OSM    C8S12984   1.044   2.846   2.950 -0.1871 -0.2367  0.1955
  123OSM    H8S12985   0.976   2.912   2.891 -0.4065  0.4602  1.1988
  123OSM    H8T12986   1.140   2.902   2.952 -0.5477  0.3772  1.8383
  123OSM    C9S12987   0.999   2.863   3.099  0.1732  0.0524  0.2331
  123OSM    H9S12988   0.894   2.827   3.097  0.0689  0.2272  1.6490
  123OSM    H9T12989   0.993   2.969   3.131  0.0401  0.9767 -2.5690
  123OSM   C10S12990   1.064   2.789   3.219 -0.2469 -0.2753 -0.3872
  123OSM   H10S12991   1.168   2.828   3.226 -1.0721  1.9285  0.2401
  123OSM   H10T12992   1.059   2.678   3.220 -0.1295 -0.2787 -0.0737
  123OSM   C11S12993   0.998   2.836   3.353 -0.4773  0.3928 -0.9302
  123OSM   H11S12994   0.892   2.804   3.365 -0.2387 -0.4358 -0.9814
  123OSM   H11T12995   0.984   2.946   3.344  0.8578  0.5224 -1.5535
  123OSM   C12S12996   1.087   2.805   3.480  0.6540 -0.9800 -0.2908
  123OSM   H12S12997   1.192   2.834   3.462 -0.0557  1.2044 -1.2863
  123OSM   H12T12998   1.087   2.694   3.485 -0.3599 -0.9379  2.1246
  123OSM   C13S12999   1.021   2.860   3.606  0.3336 -0.1484  0.6241
  123OSM   H13S13000   0.923   2.813   3.627 -1.6081  1.7121 -3.3083
  123OSM   H13T13001   0.990   2.967   3.598 -0.3938 -0.3445  0.7497
  123OSM   C14S13002   1.104   2.853   3.735  0.6707 -0.1996  0.1668
  123OSM   H14S13003   1.201   2.906   3.719  0.0161  0.8497 -0.4914
  123OSM   H14T13004   1.119   2.745   3.755 -2.0259 -0.4473  1.1903
  123OSM   C15S13005   1.035   2.911   3.856  0.3243  1.0565  0.3794
  123OSM   H15S13006   0.945   2.848   3.872  1.1100 -1.0121 -2.5301
  123OSM   H15T13007   1.008   3.018   3.837  0.4224  1.0041 -0.0567
  123OSM   C16S13008   1.129   2.905   3.973 -0.1982  0.2865  0.3544
  123OSM   H16S13009   1.226   2.945   3.940  0.4499 -1.5061 -0.0267
  123OSM   H16T13010   1.163   2.800   3.987  0.4859  0.5887  1.0067
  123OSM   C17S13011   1.073   2.973   4.102  0.3667 -0.0361  0.0039
  123OSM   H17S13012   1.004   3.054   4.070 -1.3506 -1.1158  0.7814
  123OSM   H17T13013   1.157   3.010   4.164 -0.1379 -1.5682  1.6777
  123OSM   C18S13014   0.996   2.882   4.199  0.0521 -0.0941  1.2796
  123OSM   H18S13015   0.947   2.948   4.274  0.8104  2.6203 -0.4567
  123OSM   H18T13016   1.056   2.806   4.253  2.1211  1.4465  1.2499
  123OSM   H18U13017   0.919   2.829   4.139  0.2175  0.5797  0.4602
  123OSM    C1F13018   0.980   3.232   2.702  0.7803  0.4161  0.6148
  123OSM     OF13019   0.855   3.228   2.730 -0.1384  0.1804 -0.5499
  123OSM    C2F13020   1.065   3.338   2.756  0.1253 -0.6707  0.2127
  123OSM    H2F13021   1.061   3.402   2.664 -1.2070 -2.6788 -1.2209
  123OSM    H2G13022   1.167   3.297   2.767  0.8803 -0.2500 -3.6576
  123OSM    C3F13023   1.010   3.415   2.877 -0.0891  0.2465  0.0905
  123OSM    H3F13024   0.904   3.442   2.854 -0.6150  0.1457  2.1839
  123OSM    H3G13025   1.086   3.496   2.873  1.1758 -0.9447 -1.2212
  123OSM    C4F13026   1.016   3.342   3.011 -0.6305 -0.1140  0.0465
  123OSM    H4F13027   1.120   3.315   3.037 -0.9163 -1.5953 -0.2427
  123OSM    H4G13028   0.974   3.239   3.001  0.3269 -0.3220 -2.7973
  123OSM    C5F13029   0.940   3.403   3.133  0.4168 -0.3588  0.2848
  123OSM    H5F13030   0.834   3.415   3.102  0.0222  0.9544  1.9681
  123OSM    H5G13031   0.985   3.503   3.149  1.9393 -0.8378 -0.7830
  123OSM    C6F13032   0.948   3.317   3.266 -0.7389  0.2253 -0.5843
  123OSM    H6F13033   1.050   3.317   3.308 -0.7699 -0.7417 -0.5028
  123OSM    H6G13034   0.924   3.211   3.244  0.5935 -0.6453  1.8560
  123OSM    C7F13035   0.847   3.381   3.368 -0.1732  0.5220  0.6210
  123OSM    H7F13036   0.750   3.401   3.319 -0.6558 -1.8326  0.5078
  123OSM    H7G13037   0.892   3.481   3.389 -1.1781  1.0253  0.4200
  123OSM    C8F13038   0.804   3.312   3.502 -0.3412 -0.6573 -0.5423
  123OSM    H8F13039   0.785   3.209   3.465 -3.2102  0.3975 -2.3807
  123OSM    H8G13040   0.713   3.348   3.556  0.9644  1.1596  0.5405
  123OSM    C9F13041   0.925   3.311   3.599  0.3434  0.5062 -0.6567
  123OSM    H9F13042   1.016   3.296   3.538  1.0202  2.4114 -0.2012
  123OSM   C10F13043   0.936   3.341   3.734 -1.2459  0.1245 -0.3990
  123OSM   H10F13044   1.035   3.331   3.781 -1.2090 -0.2284 -0.5453
  123OSM   C11F13045   0.825   3.392   3.824  0.3489  0.3338 -0.3269
  123OSM   H11F13046   0.727   3.402   3.774 -0.7813 -0.7114  1.5789
  123OSM   H11G13047   0.840   3.494   3.866 -4.1134  1.1634 -0.2792
  123OSM   C12F13048   0.802   3.293   3.946 -1.2931 -0.1669  0.2856
  123OSM   H12F13049   0.900   3.256   3.982 -0.4491  0.5536 -1.1776
  123OSM   H12G13050   0.750   3.203   3.906  0.5106 -0.1324 -2.3834
  123OSM   C13F13051   0.718   3.357   4.054  0.2598  0.5745 -0.8667
  123OSM   H13F13052   0.624   3.398   4.009  0.0246  0.5727 -0.3813
  123OSM   H13G13053   0.762   3.443   4.109 -0.4541 -0.9427  2.3232
  123OSM   C14F13054   0.677   3.256   4.163  0.0543 -0.1899  0.5734
  123OSM   H14F13055   0.779   3.243   4.205  0.2371  1.4885  0.7165
  123OSM   H14G13056   0.641   3.162   4.115  0.9157  0.5729 -1.7245
  123OSM   C15F13057   0.578   3.318   4.259  0.4006  0.6506 -0.5217
  123OSM   H15F13058   0.476   3.287   4.228 -1.0250  2.6460  1.7084
  123OSM   H15G13059   0.590   3.428   4.271  2.9809  0.3266  0.5904
  123OSM   C16F13060   0.628   3.296   4.405 -0.1649  0.6038 -0.1786
  123OSM   H16F13061   0.735   3.327   4.406 -0.1314  0.7437 -2.5141
  123OSM   H16G13062   0.625   3.186   4.421 -1.8536  0.6482 -0.0069
  123OSM   C17F13063   0.539   3.364   4.511 -0.5459  0.5289  0.5447
  123OSM   H17F13064   0.439   3.315   4.504 -0.6935  1.0195 -1.1747
  123OSM   H17G13065   0.514   3.470   4.490 -1.9562  0.5677  2.1373
  123OSM   C18F13066   0.591   3.359   4.655  0.8823  0.0368  0.1821
  123OSM   H18F13067   0.634   3.258   4.673  0.4378 -0.0212  0.9761
  123OSM   H18G13068   0.513   3.381   4.731  1.0327  0.7887  0.1248
  123OSM   H18H13069   0.679   3.424   4.679  0.6181 -0.2870  2.2869
  124OSM      N13070   0.381   5.992   1.934 -0.2030  0.4410 -0.6105
  124OSM    C1513071   0.279   6.093   1.888  0.1816 -0.6070  0.2692
  124OSM   H15A13072   0.295   6.113   1.783  1.3173  0.7745  0.6670
  124OSM   H15B13073   0.291   6.188   1.939 -0.9741 -0.7429  0.8214
  124OSM   H15C13074   0.179   6.063   1.914 -0.4685  0.9538 -0.3134
  124OSM    C1413075   0.337   5.861   1.871 -0.4915 -0.0384  0.3498
  124OSM   H14A13076   0.335   5.872   1.764 -0.1382  2.7140  0.5593
  124OSM   H14B13077   0.234   5.844   1.900 -1.6749  3.0780 -1.5796
  124OSM   H14C13078   0.388   5.769   1.896 -0.4077  0.2397  1.2732
  124OSM    C1313079   0.513   6.031   1.868  0.2769 -0.8124  0.3086
  124OSM   H13A13080   0.588   5.959   1.898  2.2067  0.5051 -1.0267
  124OSM   H13B13081   0.556   6.125   1.899  2.0386 -0.8691 -1.6496
  124OSM   H13C13082   0.523   6.023   1.760  0.5764 -1.5794  0.3848
  124OSM    C1213083   0.390   5.992   2.079  0.0765  0.2747  0.1827
  124OSM   H12A13084   0.293   5.971   2.123 -0.3663  0.5920 -0.6045
  124OSM   H12B13085   0.402   6.093   2.116 -1.1063  0.9627 -1.1870
  124OSM    C1113086   0.484   5.885   2.139 -0.0031  0.5185 -0.9675
  124OSM   H11A13087   0.455   5.790   2.089  2.4731  0.5489 -2.6512
  124OSM   H11B13088   0.462   5.858   2.244 -2.0539 -0.4870 -1.5867
  124OSM      P13089   0.680   6.039   2.201  0.0631 -0.2001  0.2512
  124OSM    O1313090   0.814   6.080   2.153  0.1239  0.0265 -0.3049
  124OSM    O1413091   0.599   6.159   2.219  0.1399  0.1976  0.1992
  124OSM    O1113092   0.688   5.960   2.336  0.3965  0.2166  0.6538
  124OSM    O1213093   0.613   5.927   2.110 -0.0312  0.1138 -0.3703
  124OSM    C1S13094   0.806   5.884   2.372  0.0779  0.8649  0.2651
  124OSM    H1S13095   0.902   5.939   2.362 -0.2007  1.3980  0.4850
  124OSM    H1T13096   0.817   5.794   2.307 -0.4152  2.6922 -2.5487
  124OSM     NF13097   0.922   5.775   2.557  0.0448 -0.3441 -0.1319
  124OSM    HNF13098   0.923   5.675   2.553 -2.4043 -0.3999 -0.8531
  124OSM    C2S13099   0.804   5.839   2.519  0.8142  0.1412 -0.2726
  124OSM    H2S13100   0.799   5.939   2.569  2.2327 -0.8129  1.9072
  124OSM    C3S13101   0.675   5.748   2.546  0.3330 -0.0529  0.1774
  124OSM    H3S13102   0.689   5.646   2.505 -1.1278 -1.4248  2.8567
  124OSM     O313103   0.563   5.806   2.486  0.1514 -0.0130 -0.2118
  124OSM    HO313104   0.594   5.863   2.416  0.3791 -0.9943 -0.9381
  124OSM    C4S13105   0.649   5.741   2.691  0.2367  0.4997  0.0834
  124OSM    H4S13106   0.637   5.841   2.735 -0.9401  1.0217 -1.3324
  124OSM    C5S13107   0.678   5.635   2.763 -0.6641  0.0140 -0.5697
  124OSM    H5S13108   0.721   5.547   2.712 -0.4201 -0.1725 -0.0509
  124OSM    C6S13109   0.686   5.634   2.915  0.0660 -0.1138  0.2661
  124OSM    H6S13110   0.623   5.716   2.955  0.0290 -0.4036  0.8052
  124OSM    H6T13111   0.788   5.663   2.945  0.6006 -0.9626 -0.6609
  124OSM    C7S13112   0.652   5.499   2.985  0.7272 -0.2310  1.0721
  124OSM    H7S13113   0.738   5.440   2.948  2.0372  3.4303 -2.5745
  124OSM    H7T13114   0.562   5.452   2.939  1.5127 -1.2845  0.5899
  124OSM    C8S13115   0.654   5.518   3.143 -0.0640  0.3758  0.2859
  124OSM    H8S13116   0.754   5.547   3.182  0.9081 -0.8466 -1.1380
  124OSM    H8T13117   0.648   5.414   3.182  2.0298  0.0180 -0.2117
  124OSM    C9S13118   0.546   5.606   3.200  0.0040 -0.2619  0.4042
  124OSM    H9S13119   0.452   5.554   3.172  1.6405 -2.9955 -0.4476
  124OSM    H9T13120   0.543   5.710   3.160 -0.1862 -0.6131 -0.5385
  124OSM   C10S13121   0.550   5.610   3.355  0.6306 -0.7582 -0.9817
  124OSM   H10S13122   0.646   5.660   3.377  0.5027 -1.2475  0.8509
  124OSM   H10T13123   0.557   5.512   3.407 -0.6622 -0.4095 -0.0900
  124OSM   C11S13124   0.420   5.665   3.416 -0.2149  0.4330  0.1207
  124OSM   H11S13125   0.333   5.627   3.358  1.0064 -4.4629  1.0347
  124OSM   H11T13126   0.428   5.776   3.415 -0.0610  0.4462  1.5187
  124OSM   C12S13127   0.398   5.630   3.562 -0.6761  0.5922  0.1718
  124OSM   H12S13128   0.374   5.523   3.576 -1.0598  0.6559  0.0432
  124OSM   H12T13129   0.300   5.675   3.590 -2.4557 -2.0202 -1.4322
  124OSM   C13S13130   0.515   5.666   3.652 -0.1377  0.4331 -0.0475
  124OSM   H13S13131   0.552   5.767   3.624  0.4070  0.0236 -0.8678
  124OSM   H13T13132   0.591   5.585   3.649 -0.9279 -0.3678  0.9935
  124OSM   C14S13133   0.476   5.679   3.803 -0.8682  0.4542 -0.3457
  124OSM   H14S13134   0.413   5.770   3.813 -3.2641 -1.1390 -0.3755
  124OSM   H14T13135   0.566   5.669   3.868 -1.3309  1.6911  0.5362
  124OSM   C15S13136   0.370   5.574   3.848 -1.3848  0.2884 -0.3324
  124OSM   H15S13137   0.423   5.478   3.833  0.8644  1.4351 -0.1331
  124OSM   H15T13138   0.279   5.587   3.784 -1.4821 -2.4444 -0.8675
  124OSM   C16S13139   0.325   5.595   3.992  0.2840 -0.2123 -0.5859
  124OSM   H16S13140   0.290   5.699   4.008 -0.6384 -0.7045  0.7895
  124OSM   H16T13141   0.410   5.582   4.063 -0.8944 -0.5801  0.8192
  124OSM   C17S13142   0.213   5.507   4.046 -0.5415  0.4820 -0.2678
  124OSM   H17S13143   0.115   5.545   4.009 -1.6590  0.6103  2.5412
  124OSM   H17T13144   0.225   5.521   4.156  1.6743  0.1927 -0.4341
  124OSM   C18S13145   0.234   5.361   4.026  0.5724  0.8946  0.4870
  124OSM   H18S13146   0.220   5.320   3.924 -1.1991 -3.0450  2.1064
  124OSM   H18T13147   0.167   5.304   4.094  0.6603 -0.8324 -0.7967
  124OSM   H18U13148   0.333   5.331   4.065  0.4078 -0.4204 -0.0603
  124OSM    C1F13149   1.032   5.842   2.571  0.1867  0.2442 -0.5298
  124OSM     OF13150   1.035   5.960   2.577 -0.2337 -0.1307  0.0990
  124OSM    C2F13151   1.162   5.762   2.584  0.0191  0.2673 -0.5970
  124OSM    H2F13152   1.241   5.800   2.515  0.0190  0.3408 -0.5570
  124OSM    H2G13153   1.141   5.656   2.560  0.3522 -0.3428  1.6282
  124OSM    C3F13154   1.218   5.766   2.727  0.3407 -0.5220 -0.2150
  124OSM    H3F13155   1.257   5.862   2.767  2.9407 -2.0602  1.3007
  124OSM    H3G13156   1.306   5.697   2.732  0.0337 -0.8779  0.3582
  124OSM    C4F13157   1.129   5.716   2.837  0.7051 -0.3359 -0.3813
  124OSM    H4F13158   1.096   5.611   2.823 -0.3580 -0.0109 -0.4483
  124OSM    H4G13159   1.037   5.779   2.832  0.5622 -0.5298 -0.2331
  124OSM    C5F13160   1.183   5.722   2.981 -0.4279 -0.7648 -0.8434
  124OSM    H5F13161   1.201   5.824   3.020  2.3856 -2.0845  1.6404
  124OSM    H5G13162   1.279   5.666   2.986 -1.1814 -2.1127 -0.8534
  124OSM    C6F13163   1.092   5.666   3.088  0.4641  0.1234 -0.6704
  124OSM    H6F13164   1.087   5.555   3.084  0.2467 -0.0508  2.4202
  124OSM    H6G13165   0.991   5.710   3.073 -0.1998  0.1118  2.8939
  124OSM    C7F13166   1.138   5.701   3.237  0.1793 -0.0959 -0.2342
  124OSM    H7F13167   1.097   5.798   3.272  0.9565  0.2694 -0.3222
  124OSM    H7G13168   1.248   5.716   3.237  0.2498  0.0744 -3.2792
  124OSM    C8F13169   1.105   5.601   3.354  0.3390 -0.4767  0.7401
  124OSM    H8F13170   1.173   5.621   3.439 -0.9838  1.1331  1.4724
  124OSM    H8G13171   1.122   5.496   3.320 -2.1911 -1.2389  1.6003
  124OSM    C9F13172   0.963   5.623   3.391  0.1186  0.3472 -0.7812
  124OSM    H9F13173   0.891   5.617   3.308 -1.6162 -1.1255  0.7589
  124OSM   C10F13174   0.912   5.638   3.510  0.3752  0.0041 -0.1008
  124OSM   H10F13175   0.802   5.639   3.519  0.3897 -0.1880  0.1077
  124OSM   C11F13176   0.978   5.641   3.641 -0.4029 -0.2769 -0.4839
  124OSM   H11F13177   1.071   5.701   3.632 -0.7153  0.9733  3.2646
  124OSM   H11G13178   1.004   5.538   3.674  0.0432 -0.0747 -0.2020
  124OSM   C12F13179   0.892   5.711   3.753  0.3106  0.4763  0.3213
  124OSM   H12F13180   0.793   5.661   3.760  1.0134 -1.6774 -2.8966
  124OSM   H12G13181   0.880   5.819   3.732 -1.0737  0.2754 -0.0604
  124OSM   C13F13182   0.962   5.717   3.886  0.0490  0.1876  0.1477
  124OSM   H13F13183   1.042   5.794   3.884 -0.0186  0.2890  1.1742
  124OSM   H13G13184   1.007   5.618   3.911 -1.6381 -0.3375  1.2665
  124OSM   C14F13185   0.865   5.747   4.003  0.5383  0.2043  0.6771
  124OSM   H14F13186   0.932   5.741   4.091  1.5695  1.1463 -0.0100
  124OSM   H14G13187   0.793   5.662   4.006  2.5123 -1.5692  0.0650
  124OSM   C15F13188   0.793   5.882   3.999 -0.5834  0.0852 -0.3628
  124OSM   H15F13189   0.702   5.878   3.936  0.1011  1.1894 -1.4633
  124OSM   H15G13190   0.857   5.956   3.946 -1.0308  2.4289  2.1573
  124OSM   C16F13191   0.760   5.944   4.134 -0.0240 -0.1116  0.0470
  124OSM   H16F13192   0.764   6.055   4.136 -1.9931  0.0367  3.0547
  124OSM   H16G13193   0.837   5.915   4.209  0.7000  2.4166  0.3735
  124OSM   C17F13194   0.625   5.916   4.197  0.2054  0.1294 -0.4955
  124OSM   H17F13195   0.549   5.964   4.132 -0.2138 -0.1419 -0.2040
  124OSM   H17G13196   0.622   5.964   4.297  1.0202 -0.5129 -0.1479
  124OSM   C18F13197   0.597   5.773   4.228 -0.2867 -0.3456  0.1519
  124OSM   H18F13198   0.660   5.732   4.310  0.3300 -0.6094 -0.4429
  124OSM   H18G13199   0.625   5.709   4.142 -1.7547 -1.9863  0.8380
  124OSM   H18H13200   0.492   5.750   4.258 -0.1205 -0.2302  0.8473
  125OSM      N13201   2.970   1.661   1.812  0.0350 -0.4329  0.3110
  125OSM    C1513202   2.907   1.639   1.941  0.3410  0.1013 -0.7270
  125OSM   H15A13203   2.854   1.725   1.978  0.4599  0.0126 -0.3477
  125OSM   H15B13204   2.989   1.619   2.009  0.6695 -1.9992 -1.6841
  125OSM   H15C13205   2.841   1.554   1.935 -2.3580  2.0793 -0.7090
  125OSM    C1413206   3.030   1.533   1.773  0.7867 -0.8079 -0.1740
  125OSM   H14A13207   3.064   1.533   1.671  0.8730  0.7614 -0.1799
  125OSM   H14B13208   2.959   1.453   1.789  0.7846 -0.8899 -0.5850
  125OSM   H14C13209   3.104   1.509   1.848  0.6537 -1.1662 -0.1554
  125OSM    C1313210   2.858   1.696   1.715  0.4506 -0.5655  0.3551
  125OSM   H13A13211   2.788   1.615   1.706 -0.5855  0.4411 -1.0285
  125OSM   H13B13212   2.910   1.707   1.621 -0.8836 -1.0344 -0.4502
  125OSM   H13C13213   2.803   1.784   1.745 -0.0044 -0.9844  0.7604
  125OSM    C1213214   3.075   1.766   1.821 -0.4429 -0.4000  0.0598
  125OSM   H12A13215   3.042   1.865   1.847 -0.7120 -1.1049  2.7272
  125OSM   H12B13216   3.137   1.771   1.733  0.4851  0.9720  0.7630
  125OSM    C1113217   3.186   1.737   1.936 -0.3762  0.0219  0.4526
  125OSM   H11A13218   3.275   1.797   1.907  0.4885 -1.4801 -0.1234
  125OSM   H11B13219   3.214   1.630   1.947 -2.1308 -0.3047  2.3506
  125OSM      P13220   3.139   1.922   2.109  0.2067 -0.1758  0.0175
  125OSM    O1313221   3.272   1.974   2.078 -0.3434 -0.6873  0.5609
  125OSM    O1413222   3.027   1.996   2.046  0.5304 -0.2188  0.2539
  125OSM    O1113223   3.115   1.927   2.265 -0.2389 -0.4054  0.9603
  125OSM    O1213224   3.139   1.774   2.065  0.6725  0.3754 -0.0801
  125OSM    C1S13225   3.005   1.846   2.315  0.0262  0.6521  0.7230
  125OSM    H1S13226   3.038   1.741   2.307 -0.9427  0.4224 -0.5615
  125OSM    H1T13227   2.906   1.853   2.264 -0.1547  0.2032  1.0062
  125OSM     NF13228   2.922   1.767   2.536 -0.5451  1.1980 -0.9449
  125OSM    HNF13229   2.823   1.763   2.548 -0.1735 -0.0310  4.7748
  125OSM    C2S13230   2.981   1.880   2.464  0.5818  0.2194 -0.2927
  125OSM    H2S13231   3.083   1.898   2.503  0.0310 -0.1593  1.3789
  125OSM    C3S13232   2.906   2.018   2.481 -0.5763  0.7336 -0.7118
  125OSM    H3S13233   2.804   2.006   2.440  0.1800 -0.1513 -2.4551
  125OSM     O313234   2.962   2.119   2.401  0.7503 -0.1817 -0.7889
  125OSM    HO313235   3.025   2.068   2.348  1.7941  0.1689  0.0701
  125OSM    C4S13236   2.892   2.067   2.628  0.1637 -0.5141  0.0180
  125OSM    H4S13237   2.987   2.103   2.669  0.3068  1.6720 -2.0378
  125OSM    C5S13238   2.776   2.075   2.692 -0.8490 -0.1796 -0.8825
  125OSM    H5S13239   2.690   2.039   2.633 -0.5403 -2.1758 -0.2113
  125OSM    C6S13240   2.767   2.113   2.839 -0.2125  0.1848  0.1883
  125OSM    H6S13241   2.691   2.194   2.848 -2.0863 -1.5460  0.7890
  125OSM    H6T13242   2.861   2.156   2.878  0.9050 -1.7062 -0.2629
  125OSM    C7S13243   2.738   1.983   2.921 -0.4277  0.1640 -0.3021
  125OSM    H7S13244   2.834   1.928   2.927 -0.4447  0.2741  2.1246
  125OSM    H7T13245   2.663   1.915   2.875 -2.3932  0.8007  1.7757
  125OSM    C8S13246   2.687   2.001   3.065 -0.7140 -0.2441 -0.6507
  125OSM    H8S13247   2.709   1.913   3.129 -1.3260 -1.0278 -1.4953
  125OSM    H8T13248   2.576   2.003   3.064 -0.9198 -1.6643  2.9433
  125OSM    C9S13249   2.741   2.123   3.149 -0.3682 -0.5016  0.4417
  125OSM    H9S13250   2.694   2.215   3.108 -2.9228 -1.0422  1.9289
  125OSM    H9T13251   2.852   2.118   3.153 -0.1486  1.2481 -1.5556
  125OSM   C10S13252   2.710   2.134   3.297 -0.5799 -0.0755 -0.4403
  125OSM   H10S13253   2.765   2.061   3.359 -3.0458 -1.9628 -0.3441
  125OSM   H10T13254   2.603   2.114   3.320 -0.7393  0.9019 -0.2903
  125OSM   C11S13255   2.737   2.280   3.347 -0.6192  0.1242  0.0691
  125OSM   H11S13256   2.671   2.347   3.287  0.5468  2.2789  1.0768
  125OSM   H11T13257   2.841   2.311   3.326 -0.4701 -0.6690 -0.3703
  125OSM   C12S13258   2.684   2.301   3.491  0.1411  0.4336 -0.5789
  125OSM   H12S13259   2.579   2.266   3.501 -0.1596  1.4388 -0.0381
  125OSM   H12T13260   2.678   2.412   3.504  2.2094  0.4749  0.4049
  125OSM   C13S13261   2.771   2.245   3.608 -0.1782  0.1068  0.1110
  125OSM   H13S13262   2.862   2.309   3.604 -0.3887  0.3528 -2.6042
  125OSM   H13T13263   2.791   2.139   3.582 -2.0527 -1.1607  3.2908
  125OSM   C14S13264   2.712   2.255   3.750 -0.9629  0.2442  1.1984
  125OSM   H14S13265   2.783   2.213   3.824 -1.4730  0.7395  1.9852
  125OSM   H14T13266   2.626   2.184   3.752  0.0819 -1.0476  1.5394
  125OSM   C15S13267   2.692   2.400   3.789  0.7183 -0.0800 -0.0459
  125OSM   H15S13268   2.599   2.434   3.739 -1.2703 -0.2383  3.2490
  125OSM   H15T13269   2.777   2.461   3.752  2.3756 -1.9769  0.4988
  125OSM   C16S13270   2.665   2.434   3.935 -0.2618  0.1832 -0.4475
  125OSM   H16S13271   2.698   2.539   3.952 -0.2546  0.0666  0.3149
  125OSM   H16T13272   2.745   2.389   3.997 -0.5635  0.2338 -0.0070
  125OSM   C17S13273   2.523   2.417   3.993  0.0343  0.1763 -0.4578
  125OSM   H17S13274   2.507   2.308   3.979  1.9322 -0.3364  0.8676
  125OSM   H17T13275   2.451   2.468   3.926  1.1203  0.5037 -1.3939
  125OSM   C18S13276   2.502   2.445   4.141 -0.5211  0.3561 -0.0378
  125OSM   H18S13277   2.537   2.546   4.173  1.6445 -0.1231 -0.7584
  125OSM   H18T13278   2.553   2.375   4.210 -0.3728  1.5193  1.0825
  125OSM   H18U13279   2.394   2.433   4.164 -0.0854  0.3618  2.2673
  125OSM    C1F13280   2.980   1.647   2.553 -0.1107 -0.0961 -0.0658
  125OSM     OF13281   3.102   1.631   2.563  0.5252 -0.2415  0.0569
  125OSM    C2F13282   2.895   1.533   2.572 -0.4197  0.5026 -0.4498
  125OSM    H2F13283   2.881   1.469   2.482 -1.7701 -0.2153  0.2389
  125OSM    H2G13284   2.794   1.577   2.589  0.0299  1.1251  0.7321
  125OSM    C3F13285   2.937   1.439   2.691  0.4778  0.0825 -0.1366
  125OSM    H3F13286   3.026   1.385   2.652 -1.7201 -4.0044 -0.0639
  125OSM    H3G13287   2.856   1.365   2.708  1.2562 -0.9338 -0.7359
  125OSM    C4F13288   2.961   1.529   2.813  0.2156  0.6079 -0.7242
  125OSM    H4F13289   2.887   1.611   2.807 -2.4928 -1.7764 -2.1689
  125OSM    H4G13290   3.065   1.569   2.807  0.1105  0.9512 -0.3030
  125OSM    C5F13291   2.928   1.458   2.949 -0.1871 -0.4258  0.4383
  125OSM    H5F13292   2.989   1.366   2.952 -1.7965 -1.5226  1.0375
  125OSM    H5G13293   2.819   1.437   2.939 -0.1536 -0.7650  0.7990
  125OSM    C6F13294   2.946   1.541   3.081 -0.3219 -0.5101 -0.3892
  125OSM    H6F13295   2.890   1.636   3.071  1.4614  0.9028  2.0041
  125OSM    H6G13296   3.053   1.570   3.085 -0.3597 -0.4054 -0.0848
  125OSM    C7F13297   2.910   1.454   3.202 -0.3088 -0.4801 -0.1531
  125OSM    H7F13298   2.955   1.355   3.180 -0.3622 -0.7197  0.7646
  125OSM    H7G13299   2.801   1.443   3.222 -0.0205 -1.5949  0.9455
  125OSM    C8F13300   2.983   1.507   3.326 -0.2013  0.5154  0.7297
  125OSM    H8F13301   3.093   1.521   3.317 -0.3065  1.5059  0.8413
  125OSM    H8G13302   2.970   1.429   3.404  1.3830 -0.8352 -0.2816
  125OSM    C9F13303   2.942   1.644   3.371  0.5442 -0.3116  0.2147
  125OSM    H9F13304   2.859   1.683   3.311  1.5791  1.4894 -0.1435
  125OSM   C10F13305   2.999   1.718   3.470  0.3404  0.1502 -0.1498
  125OSM   H10F13306   2.957   1.815   3.501  1.5382  0.1767  1.4514
  125OSM   C11F13307   3.119   1.667   3.542  0.8127 -0.1876  0.3669
  125OSM   H11F13308   3.208   1.650   3.478  1.0787 -1.9402  1.1323
  125OSM   H11G13309   3.088   1.564   3.569  0.9793 -0.4349 -0.3567
  125OSM   C12F13310   3.152   1.742   3.670 -0.5844  0.0361 -0.2330
  125OSM   H12F13311   3.076   1.714   3.746  0.5288 -0.4436  0.7329
  125OSM   H12G13312   3.154   1.853   3.661  0.2779  0.0350 -0.1023
  125OSM   C13F13313   3.285   1.693   3.737 -0.4239 -0.3768  0.4721
  125OSM   H13F13314   3.374   1.731   3.682 -0.1023 -0.7168  0.7606
  125OSM   H13G13315   3.285   1.583   3.724  1.7230 -0.4854  1.0156
  125OSM   C14F13316   3.297   1.733   3.882 -0.7202  0.3011  1.5916
  125OSM   H14F13317   3.218   1.683   3.941 -0.8570 -0.1695  1.0199
  125OSM   H14G13318   3.298   1.845   3.882  0.7327  0.3224  0.6211
  125OSM   C15F13319   3.434   1.679   3.929 -0.1049 -0.4464  0.0273
  125OSM   H15F13320   3.488   1.761   3.981  0.4368  0.7325 -2.2532
  125OSM   H15G13321   3.507   1.663   3.847  3.4942 -0.0841  2.8918
  125OSM   C16F13322   3.413   1.558   4.023 -0.5460 -0.1434  0.4236
  125OSM   H16F13323   3.359   1.478   3.968 -1.0304 -0.3241  1.1454
  125OSM   H16G13324   3.348   1.569   4.113  1.2323 -1.0623  1.8769
  125OSM   C17F13325   3.555   1.517   4.076 -0.0115  0.7274  0.0966
  125OSM   H17F13326   3.538   1.442   4.156  1.1641  0.3028 -0.0259
  125OSM   H17G13327   3.601   1.599   4.135  0.2689  0.1575  0.6933
  125OSM   C18F13328   3.648   1.462   3.966  0.5546  0.6762  0.0492
  125OSM   H18F13329   3.719   1.389   4.009 -0.4074  0.4880  1.3953
  125OSM   H18G13330   3.700   1.549   3.920  1.0149  0.4355  0.1122
  125OSM   H18H13331   3.594   1.402   3.891  0.3748 -0.0642  0.7526
  126OSM      N13332   2.449   2.342   1.923 -0.0139 -0.5234  0.5040
  126OSM    C1513333   2.548   2.355   2.030 -0.9253 -0.3557  0.5452
  126OSM   H15A13334   2.648   2.342   1.990 -1.0744 -2.6622  0.7862
  126OSM   H15B13335   2.526   2.278   2.103  0.6122 -0.4505  0.9437
  126OSM   H15C13336   2.549   2.456   2.069  0.8856  0.0593 -0.4896
  126OSM    C1413337   2.462   2.454   1.825 -0.2437 -0.7109  0.6332
  126OSM   H14A13338   2.452   2.550   1.873  0.9208 -0.5180  0.5113
  126OSM   H14B13339   2.390   2.441   1.746  0.6939 -1.5888 -0.1118
  126OSM   H14C13340   2.556   2.453   1.771 -0.4153 -3.2067  0.2591
  126OSM    C1313341   2.458   2.209   1.848 -1.3365 -0.1151  0.0469
  126OSM   H13A13342   2.385   2.188   1.771  1.9102  1.1474 -3.7328
  126OSM   H13B13343   2.444   2.132   1.923 -0.4681  2.2837  2.8402
  126OSM   H13C13344   2.550   2.189   1.794 -1.6748 -1.9714  0.0975
  126OSM    C1213345   2.307   2.357   1.983  0.4686  0.0141 -0.3289
  126OSM   H12A13346   2.233   2.353   1.904 -1.3668  0.4348  1.2985
  126OSM   H12B13347   2.308   2.449   2.039 -0.3066 -0.7978  1.0973
  126OSM    C1113348   2.267   2.247   2.077 -0.8319  0.7539  0.4723
  126OSM   H11A13349   2.191   2.290   2.146  0.3121  1.6276  1.2317
  126OSM   H11B13350   2.355   2.226   2.141 -1.2218  0.7471  1.0139
  126OSM      P13351   2.085   2.151   1.913 -0.1345 -0.3566  0.2090
  126OSM    O1313352   2.097   2.259   1.812  0.3707 -0.0299  0.2813
  126OSM    O1413353   2.058   2.012   1.876 -0.3634  0.0020  0.5860
  126OSM    O1113354   1.974   2.195   2.013 -0.2829  0.2740  0.3105
  126OSM    O1213355   2.212   2.137   2.003  0.4226  0.0795  0.2214
  126OSM    C1S13356   1.939   2.111   2.125  0.3241 -0.1280  0.0388
  126OSM    H1S13357   2.026   2.054   2.164  0.0913  1.2336  2.7938
  126OSM    H1T13358   1.868   2.034   2.088  0.4626 -1.1704  1.8018
  126OSM     NF13359   1.809   2.095   2.339 -0.6003  0.1787 -0.1660
  126OSM    HNF13360   1.712   2.105   2.362 -0.5315 -3.0246  2.2068
  126OSM    C2S13361   1.870   2.191   2.247 -0.7241  0.0754 -0.3413
  126OSM    H2S13362   1.953   2.226   2.312  0.0879 -4.2363  1.2641
  126OSM    C3S13363   1.773   2.303   2.188 -0.5558 -0.2082 -0.2653
  126OSM    H3S13364   1.682   2.262   2.139 -1.4134 -1.8287  2.4316
  126OSM     O313365   1.840   2.401   2.112  0.0294  0.0957  0.0137
  126OSM    HO313366   1.935   2.395   2.123  0.1496 -1.9816 -1.5182
  126OSM    C4S13367   1.717   2.384   2.308  0.0873 -0.1085  0.0662
  126OSM    H4S13368   1.794   2.430   2.371  1.9363 -0.1609 -2.0419
  126OSM    C5S13369   1.586   2.400   2.340 -0.4696 -0.2188  0.3703
  126OSM    H5S13370   1.500   2.355   2.288 -1.5117 -0.2901  2.1001
  126OSM    C6S13371   1.547   2.478   2.458  0.0473  0.1455  0.0910
  126OSM    H6S13372   1.448   2.525   2.438  0.6743  2.0643  1.2572
  126OSM    H6T13373   1.619   2.562   2.458  0.3839 -0.1398  0.5264
  126OSM    C7S13374   1.547   2.404   2.594 -0.0577  0.6472 -0.9043
  126OSM    H7S13375   1.645   2.355   2.614 -0.3119  0.5887  0.2830
  126OSM    H7T13376   1.472   2.322   2.591  0.4900  0.1464 -1.1755
  126OSM    C8S13377   1.506   2.487   2.714 -0.3991 -0.5724  0.1155
  126OSM    H8S13378   1.403   2.504   2.676 -1.4223 -2.4701  1.8905
  126OSM    H8T13379   1.562   2.583   2.708 -0.6871 -0.4302 -0.4116
  126OSM    C9S13380   1.516   2.422   2.855 -0.4899 -0.0753  0.6541
  126OSM    H9S13381   1.626   2.417   2.871  0.0447 -1.6774 -2.6727
  126OSM    H9T13382   1.479   2.317   2.862 -0.4687 -0.3471 -2.1171
  126OSM   C10S13383   1.454   2.513   2.960  0.4248 -0.7897 -0.4379
  126OSM   H10S13384   1.345   2.517   2.936  0.2309  0.6955  0.5786
  126OSM   H10T13385   1.503   2.612   2.955 -1.7949  0.3662 -0.3800
  126OSM   C11S13386   1.496   2.464   3.096  0.0474 -0.0032  0.4101
  126OSM   H11S13387   1.599   2.503   3.112 -0.3908  2.3586 -1.7390
  126OSM   H11T13388   1.483   2.354   3.095  1.6794 -0.2371  1.2948
  126OSM   C12S13389   1.417   2.521   3.216 -0.0134  0.4963  0.0575
  126OSM   H12S13390   1.308   2.499   3.208 -0.1078  0.7290  0.6184
  126OSM   H12T13391   1.420   2.632   3.212 -1.0477  0.5491  0.2734
  126OSM   C13S13392   1.467   2.472   3.355  0.4531  0.4368  0.5882
  126OSM   H13S13393   1.573   2.504   3.363  1.4653 -2.5464  0.4985
  126OSM   H13T13394   1.467   2.361   3.356  1.6246  0.3828 -1.0067
  126OSM   C14S13395   1.380   2.528   3.474 -0.0798  0.9417 -0.0492
  126OSM   H14S13396   1.276   2.489   3.471  0.5288 -0.9491  1.0410
  126OSM   H14T13397   1.378   2.637   3.453  0.3820  0.8926 -0.3549
  126OSM   C15S13398   1.449   2.496   3.604 -0.0595  0.0293 -0.8277
  126OSM   H15S13399   1.550   2.540   3.591  0.2752 -0.5267 -0.1496
  126OSM   H15T13400   1.447   2.386   3.617 -3.3083  0.1056  0.2555
  126OSM   C16S13401   1.383   2.569   3.725  0.0130  0.1086 -0.2517
  126OSM   H16S13402   1.273   2.551   3.718 -0.0203  0.1988 -0.0040
  126OSM   H16T13403   1.400   2.678   3.709 -0.8425  0.0386 -1.8786
  126OSM   C17S13404   1.437   2.531   3.862  0.4723 -0.7740 -0.3485
  126OSM   H17S13405   1.545   2.552   3.850  0.3066 -0.2706 -1.0920
  126OSM   H17T13406   1.418   2.422   3.870 -3.3123 -0.2977 -0.7091
  126OSM   C18S13407   1.378   2.605   3.983 -0.0172  0.1615  0.4699
  126OSM   H18S13408   1.391   2.542   4.075  1.4352 -0.9210 -0.4313
  126OSM   H18T13409   1.268   2.611   3.977 -0.1537  0.3237  2.3438
  126OSM   H18U13410   1.420   2.707   3.986  0.5529 -0.0685  0.5108
  126OSM    C1F13411   1.865   1.992   2.402  0.2785  0.1256  0.1185
  126OSM     OF13412   1.984   1.959   2.384 -0.1260  0.1568 -0.3973
  126OSM    C2F13413   1.789   1.909   2.510 -0.2386 -0.0851  0.4950
  126OSM    H2F13414   1.787   1.805   2.471 -0.9864 -0.0587  0.4437
  126OSM    H2G13415   1.684   1.944   2.522 -0.6080 -0.9046 -0.2156
  126OSM    C3F13416   1.847   1.924   2.657 -0.0190  0.1674 -0.1638
  126OSM    H3F13417   1.957   1.911   2.654  0.0493  0.7812 -0.5536
  126OSM    H3G13418   1.797   1.841   2.712  0.9218 -0.4479 -0.2137
  126OSM    C4F13419   1.809   2.067   2.719 -0.0081 -0.2011 -1.1893
  126OSM    H4F13420   1.711   2.096   2.676 -0.6707 -0.7074 -0.0581
  126OSM    H4G13421   1.886   2.139   2.684  0.9166 -1.4429 -1.8078
  126OSM    C5F13422   1.817   2.059   2.874  0.0421  0.4246  0.1725
  126OSM    H5F13423   1.812   2.163   2.914  1.3199  0.7564 -0.4956
  126OSM    H5G13424   1.906   1.998   2.899  0.1154 -0.6274 -2.4276
  126OSM    C6F13425   1.701   1.991   2.932  0.5403 -0.7406 -0.1379
  126OSM    H6F13426   1.734   1.896   2.979  2.3671 -0.4241 -0.6950
  126OSM    H6G13427   1.630   1.954   2.856  1.6869 -2.5035 -0.4149
  126OSM    C7F13428   1.628   2.086   3.030  0.2300  0.2674  0.0498
  126OSM    H7F13429   1.528   2.049   3.063  0.0464 -1.6473 -2.3887
  126OSM    H7G13430   1.616   2.184   2.980  2.0137 -0.1600 -1.3126
  126OSM    C8F13431   1.718   2.126   3.156 -0.0555  0.1084 -0.6592
  126OSM    H8F13432   1.663   2.195   3.224 -0.3441 -0.0802 -0.7000
  126OSM    H8G13433   1.815   2.173   3.127 -0.6775  1.2940 -0.8739
  126OSM    C9F13434   1.762   1.996   3.226  0.3903 -1.0465  0.0919
  126OSM    H9F13435   1.865   1.961   3.209  0.5385 -0.3277 -0.5970
  126OSM   C10F13436   1.690   1.936   3.321 -0.1835  0.1850 -0.8539
  126OSM   H10F13437   1.742   1.857   3.376 -2.4611  0.6267  2.1984
  126OSM   C11F13438   1.559   1.976   3.370  0.8640 -0.5575 -0.3382
  126OSM   H11F13439   1.499   1.886   3.395  0.4197 -0.6909 -1.8181
  126OSM   H11G13440   1.489   2.007   3.290 -0.2956 -0.7967  0.5537
  126OSM   C12F13441   1.551   2.068   3.495  0.3090  0.0593 -0.3120
  126OSM   H12F13442   1.447   2.092   3.526  0.9976  2.0058  0.6879
  126OSM   H12G13443   1.592   2.166   3.463  1.6125 -0.7165 -1.1157
  126OSM   C13F13444   1.637   2.025   3.614  0.4767 -0.0642 -0.0418
  126OSM   H13F13445   1.745   2.035   3.589  0.0349  1.4947 -1.5122
  126OSM   H13G13446   1.618   1.918   3.636  1.1533  0.0166  1.0283
  126OSM   C14F13447   1.599   2.100   3.739  0.0434  0.2401 -0.2279
  126OSM   H14F13448   1.490   2.120   3.737 -0.1904 -0.6994  1.5640
  126OSM   H14G13449   1.648   2.200   3.735 -2.2002  1.4486  0.6787
  126OSM   C15F13450   1.631   2.029   3.874  0.3426  0.0667  0.0074
  126OSM   H15F13451   1.624   1.919   3.855  0.8650 -0.5388  2.8563
  126OSM   H15G13452   1.562   2.058   3.956  0.7693  2.3548 -0.3772
  126OSM   C16F13453   1.778   2.056   3.906  0.0550 -0.1130  0.5717
  126OSM   H16F13454   1.793   2.165   3.892 -0.1165 -0.3008 -1.4330
  126OSM   H16G13455   1.833   2.010   3.821  0.5309  1.0558  0.2271
  126OSM   C17F13456   1.827   2.002   4.045  0.5375 -1.1528  1.1243
  126OSM   H17F13457   1.805   1.893   4.043  0.3326 -1.1367 -2.1741
  126OSM   H17G13458   1.770   2.045   4.130 -2.0162 -0.4927 -0.8192
  126OSM   C18F13459   1.975   2.030   4.066  0.0395  0.1936  0.1706
  126OSM   H18F13460   2.008   2.000   4.168 -0.4193  2.2041  0.9668
  126OSM   H18G13461   1.988   2.139   4.051  2.6469 -0.1129 -0.2324
  126OSM   H18H13462   2.036   1.976   3.991 -0.9214  0.3510 -0.7384
  127OSM      N13463   6.583   4.063   1.697  0.1698  0.0343  0.5079
  127OSM    C1513464   6.618   4.050   1.548  0.2463  0.1003 -0.0902
  127OSM   H15A13465   6.534   4.011   1.493 -0.2814  0.6732  0.2895
  127OSM   H15B13466   6.707   3.991   1.536 -0.3251 -0.8726  0.3067
  127OSM   H15C13467   6.638   4.147   1.504  0.7098  0.1772  0.2800
  127OSM    C1413468   6.613   3.923   1.759  0.2769  0.3819 -0.4646
  127OSM   H14A13469   6.612   3.954   1.863 -0.0386  2.1653 -0.9559
  127OSM   H14B13470   6.710   3.883   1.736 -0.0009  0.3643 -1.6833
  127OSM   H14C13471   6.533   3.851   1.755 -0.6073  1.2848  0.2835
  127OSM    C1313472   6.681   4.158   1.759  0.0485  0.0484 -0.1026
  127OSM   H13A13473   6.676   4.146   1.867 -0.1994 -2.2060 -0.3180
  127OSM   H13B13474   6.659   4.259   1.727 -0.4897 -0.7056 -2.2249
  127OSM   H13C13475   6.777   4.136   1.716 -0.4292 -0.6701 -0.8184
  127OSM    C1213476   6.447   4.113   1.716 -0.1476 -0.5642  0.5312
  127OSM   H12A13477   6.432   4.133   1.822 -0.2306 -2.7691  0.9862
  127OSM   H12B13478   6.367   4.044   1.692 -0.8771  0.2937  0.4303
  127OSM    C1113479   6.418   4.246   1.647 -0.2090 -0.1300 -0.4487
  127OSM   H11A13480   6.309   4.266   1.655  0.2717  3.2731 -0.9515
  127OSM   H11B13481   6.444   4.239   1.539 -0.0933  1.9353 -0.5961
  127OSM      P13482   6.411   4.486   1.769 -0.0800 -0.3229  0.2038
  127OSM    O1313483   6.510   4.579   1.830  0.3981 -0.0151  0.2231
  127OSM    O1413484   6.325   4.534   1.657  0.4798 -0.0399 -0.0582
  127OSM    O1113485   6.334   4.425   1.882  0.1861 -0.0447 -0.2888
  127OSM    O1213486   6.481   4.361   1.709  0.1739  0.1947 -0.0981
  127OSM    C1S13487   6.394   4.362   1.995  0.2017  0.3615  0.6825
  127OSM    H1S13488   6.504   4.375   1.995  0.2125  0.7441 -1.7408
  127OSM    H1T13489   6.383   4.253   1.980 -0.9040  0.2409  2.1912
  127OSM     NF13490   6.391   4.346   2.246  0.5568  0.6987 -0.2265
  127OSM    HNF13491   6.349   4.258   2.268 -3.3645  2.3774 -0.1994
  127OSM    C2S13492   6.329   4.407   2.127  0.0345 -0.4270 -0.9435
  127OSM    H2S13493   6.353   4.514   2.145 -0.4537 -0.8468  3.1817
  127OSM    C3S13494   6.171   4.388   2.130 -0.6341 -0.0491  0.3476
  127OSM    H3S13495   6.147   4.280   2.138  1.6134 -0.8019 -1.7009
  127OSM     O313496   6.105   4.432   2.009  0.3229 -0.5349 -0.3650
  127OSM    HO313497   6.182   4.435   1.952  1.1110 -1.4314  0.6073
  127OSM    C4S13498   6.104   4.459   2.242 -0.2960 -0.8666  0.1532
  127OSM    H4S13499   6.086   4.567   2.234 -1.9222 -1.0286  1.2047
  127OSM    C5S13500   6.062   4.411   2.357 -0.3573  0.2696  0.5031
  127OSM    H5S13501   6.064   4.301   2.362 -0.4902  0.2680  0.5348
  127OSM    C6S13502   5.993   4.489   2.461 -0.0706 -0.7433  0.6646
  127OSM    H6S13503   5.888   4.452   2.465 -0.3126  0.0263  1.5876
  127OSM    H6T13504   5.989   4.597   2.437  0.3789 -0.4653  1.7624
  127OSM    C7S13505   6.050   4.484   2.601 -0.9269 -0.3173 -0.5202
  127OSM    H7S13506   6.043   4.382   2.643 -1.2909  0.6362  1.8820
  127OSM    H7T13507   5.992   4.541   2.677 -0.5122  1.4726 -1.4900
  127OSM    C8S13508   6.197   4.534   2.602  0.5205  0.6383 -0.0234
  127OSM    H8S13509   6.203   4.634   2.554  0.1362  1.1804  1.0189
  127OSM    H8T13510   6.261   4.468   2.541 -0.0077  0.6550 -0.6054
  127OSM    C9S13511   6.251   4.556   2.744 -0.6924  0.3399 -0.8800
  127OSM    H9S13512   6.358   4.585   2.741 -0.3819 -0.6646  0.0113
  127OSM    H9T13513   6.251   4.464   2.805  2.0136  1.3406  0.7562
  127OSM   C10S13514   6.184   4.652   2.845  0.2475  0.1747  0.0448
  127OSM   H10S13515   6.089   4.596   2.859 -0.6089  1.1204 -1.6681
  127OSM   H10T13516   6.156   4.752   2.805  0.0451 -0.2052 -0.7931
  127OSM   C11S13517   6.254   4.670   2.978  0.4622 -0.0736  0.0015
  127OSM   H11S13518   6.213   4.761   3.026  1.7710  1.3299 -1.4380
  127OSM   H11T13519   6.358   4.696   2.949 -0.4204  2.4193 -1.2109
  127OSM   C12S13520   6.249   4.550   3.071  0.2091  0.8817 -0.0022
  127OSM   H12S13521   6.281   4.457   3.021  0.6328  0.2763  1.3673
  127OSM   H12T13522   6.141   4.536   3.091  0.2029 -1.6221 -1.4659
  127OSM   C13S13523   6.314   4.591   3.204  0.1983 -0.2140 -0.9354
  127OSM   H13S13524   6.291   4.688   3.252 -1.3981 -0.8927 -0.2492
  127OSM   H13T13525   6.422   4.602   3.181  0.7964  0.2730  1.7595
  127OSM   C14S13526   6.295   4.492   3.323 -0.5051 -0.6934 -0.2436
  127OSM   H14S13527   6.383   4.511   3.387 -1.8667  1.6576  1.0701
  127OSM   H14T13528   6.292   4.383   3.299 -0.1619 -0.7139 -0.1973
  127OSM   C15S13529   6.158   4.520   3.392 -0.6466  0.1815  0.1261
  127OSM   H15S13530   6.080   4.478   3.325  0.4564 -0.0053 -1.0912
  127OSM   H15T13531   6.154   4.631   3.392  0.1222  0.2650 -2.3147
  127OSM   C16S13532   6.150   4.470   3.536  0.7788  0.1282 -0.2864
  127OSM   H16S13533   6.198   4.370   3.533  0.7337  0.0818  0.4197
  127OSM   H16T13534   6.043   4.459   3.564  1.1913  0.5199  1.5833
  127OSM   C17S13535   6.218   4.568   3.626 -0.1498  0.0706 -0.1295
  127OSM   H17S13536   6.174   4.668   3.607 -0.6204 -0.1895 -0.4354
  127OSM   H17T13537   6.327   4.587   3.613 -0.7560  2.1229 -3.2949
  127OSM   C18S13538   6.194   4.541   3.774  0.0174 -0.0410 -0.4004
  127OSM   H18S13539   6.093   4.512   3.808  0.5013  0.3461  1.4977
  127OSM   H18T13540   6.229   4.637   3.819 -0.6188  0.0100 -0.0092
  127OSM   H18U13541   6.259   4.458   3.809 -0.1613  0.0591  0.1794
  127OSM    C1F13542   6.511   4.354   2.301 -0.5145  0.5405  0.9276
  127OSM     OF13543   6.598   4.425   2.245  0.4251  0.1245  0.0128
  127OSM    C2F13544   6.543   4.270   2.419 -0.0324 -0.1922  0.0885
  127OSM    H2F13545   6.535   4.162   2.391 -0.2658 -1.0100  2.9905
  127OSM    H2G13546   6.478   4.300   2.503 -0.9893  0.2404 -0.7831
  127OSM    C3F13547   6.682   4.292   2.461 -0.2103 -0.1661  0.0093
  127OSM    H3F13548   6.745   4.271   2.372 -1.2039 -2.6675 -0.1943
  127OSM    H3G13549   6.715   4.216   2.536  0.6312  2.4761  2.5179
  127OSM    C4F13550   6.700   4.422   2.536  0.0375 -0.6573 -0.5457
  127OSM    H4F13551   6.664   4.507   2.474 -0.8706 -1.0299 -0.5449
  127OSM    H4G13552   6.807   4.432   2.567 -0.0461  0.3489 -0.5416
  127OSM    C5F13553   6.624   4.430   2.668  0.2404 -0.4994 -0.3732
  127OSM    H5F13554   6.516   4.432   2.642  0.4537 -0.6094 -1.2918
  127OSM    H5G13555   6.648   4.528   2.713  1.9671 -0.8700 -0.3912
  127OSM    C6F13556   6.662   4.328   2.775  0.4238  0.2156  0.1323
  127OSM    H6F13557   6.769   4.301   2.787 -0.3965 -3.0493  1.1745
  127OSM    H6G13558   6.617   4.238   2.729 -0.0686  0.7330 -0.4162
  127OSM    C7F13559   6.601   4.363   2.911  0.0201 -0.2603  0.8076
  127OSM    H7F13560   6.491   4.373   2.898  0.2963 -0.3240 -2.2861
  127OSM    H7G13561   6.647   4.459   2.941  2.9730 -0.4961 -2.3656
  127OSM    C8F13562   6.629   4.261   3.019 -0.3531  0.1292 -0.3922
  127OSM    H8F13563   6.604   4.158   2.982 -0.5582 -0.1005  0.3709
  127OSM    H8G13564   6.558   4.276   3.103  1.2989 -0.2615  1.1256
  127OSM    C9F13565   6.767   4.281   3.080  0.0022 -0.3326 -0.3437
  127OSM    H9F13566   6.846   4.231   3.022 -0.0026 -1.2345  0.3987
  127OSM   C10F13567   6.796   4.352   3.192 -0.6452 -0.4066 -0.2556
  127OSM   H10F13568   6.902   4.351   3.222  0.1917 -0.1784 -2.9065
  127OSM   C11F13569   6.693   4.433   3.273 -0.2625 -0.0978 -0.3864
  127OSM   H11F13570   6.592   4.422   3.228  0.0227 -0.5008 -0.9314
  127OSM   H11G13571   6.722   4.540   3.275  0.6341 -0.3178  2.0452
  127OSM   C12F13572   6.689   4.393   3.425  0.2296 -1.0402  0.1931
  127OSM   H12F13573   6.653   4.481   3.482 -2.4184 -2.5574  1.0380
  127OSM   H12G13574   6.792   4.363   3.455  0.1332 -0.3204  1.3026
  127OSM   C13F13575   6.585   4.293   3.457  0.0516  0.3979 -0.2965
  127OSM   H13F13576   6.617   4.191   3.427 -2.6517 -1.0192  1.2769
  127OSM   H13G13577   6.490   4.309   3.402  1.4268  0.0353 -2.9540
  127OSM   C14F13578   6.555   4.295   3.603  0.1550  0.2366  0.2051
  127OSM   H14F13579   6.512   4.394   3.630  1.4174  1.2446 -1.3062
  127OSM   H14G13580   6.648   4.281   3.662 -0.0213  0.5770  0.5694
  127OSM   C15F13581   6.456   4.193   3.655  0.9542 -0.1634  0.1487
  127OSM   H15F13582   6.470   4.095   3.604  3.3451  0.9616 -1.5913
  127OSM   H15G13583   6.353   4.228   3.632  0.0266  1.2633  5.2238
  127OSM   C16F13584   6.454   4.180   3.810 -0.3212 -0.0425 -0.2738
  127OSM   H16F13585   6.422   4.277   3.855 -0.5384 -0.5145  0.6118
  127OSM   H16G13586   6.554   4.157   3.853 -0.3798  1.2017  0.6099
  127OSM   C17F13587   6.356   4.075   3.866  0.5797  0.2998 -0.2234
  127OSM   H17F13588   6.387   3.974   3.830 -0.7103 -0.0822 -0.3314
  127OSM   H17G13589   6.252   4.101   3.835 -0.0603 -1.4195  0.3443
  127OSM   C18F13590   6.351   4.055   4.016  0.1178  0.0347  0.4130
  127OSM   H18F13591   6.275   3.993   4.069  0.6278 -1.4979 -0.5629
  127OSM   H18G13592   6.353   4.159   4.055  0.3076 -0.0683  0.6812
  127OSM   H18H13593   6.454   4.026   4.044  1.0315  1.0303 -1.6801
  128OSM      N13594   1.003   2.899   2.019  0.4619 -0.1398 -0.6725
  128OSM    C1513595   1.015   2.971   1.892 -0.4493  0.3608 -0.0619
  128OSM   H15A13596   0.978   3.072   1.900  0.7376  0.9261 -1.1731
  128OSM   H15B13597   0.987   2.920   1.801  1.4297 -3.1619  1.1332
  128OSM   H15C13598   1.121   2.991   1.883 -0.4544  0.9979  1.1334
  128OSM    C1413599   1.095   2.777   2.013  0.1142  0.0534 -0.2117
  128OSM   H14A13600   1.057   2.707   1.940  1.4133 -2.4547  1.3547
  128OSM   H14B13601   1.106   2.724   2.107 -0.9155  0.6249  0.2546
  128OSM   H14C13602   1.195   2.803   1.984  0.2195 -2.4494 -2.4234
  128OSM    C1313603   1.053   3.001   2.121 -0.6159 -0.0743  0.0580
  128OSM   H13A13604   0.976   3.076   2.129 -1.6807 -1.1649  0.3071
  128OSM   H13B13605   1.149   3.041   2.092  0.4565 -2.2551  0.3832
  128OSM   H13C13606   1.061   2.959   2.220  1.0970 -0.0495 -0.0409
  128OSM    C1213607   0.863   2.850   2.044 -0.5682  0.4136  0.0647
  128OSM   H12A13608   0.793   2.921   2.085  1.6791  2.1767  1.1210
  128OSM   H12B13609   0.870   2.782   2.127 -1.4035  0.1751 -0.0527
  128OSM    C1113610   0.785   2.773   1.932  0.2703  0.2992  0.0433
  128OSM   H11A13611   0.763   2.850   1.855  1.2594  0.2370 -0.3142
  128OSM   H11B13612   0.687   2.734   1.966  0.0657 -0.5289 -1.3853
  128OSM      P13613   0.855   2.526   1.933 -0.6202  0.5855  0.5959
  128OSM    O1313614   0.722   2.475   1.903 -0.4048 -0.5926 -0.4273
  128OSM    O1413615   0.971   2.447   1.886 -0.7020 -0.1641 -0.4428
  128OSM    O1113616   0.867   2.557   2.085  0.0728  0.1005  0.0752
  128OSM    O1213617   0.868   2.668   1.872 -0.0349  0.4242 -0.3105
  128OSM    C1S13618   0.933   2.470   2.173  0.3736  0.1795  0.0484
  128OSM    H1S13619   1.041   2.474   2.145  0.0965  0.3618 -1.0296
  128OSM    H1T13620   0.905   2.363   2.167 -2.2403  0.5239  3.1565
  128OSM     NF13621   0.947   2.403   2.412  0.6205  0.0277  0.5875
  128OSM    HNF13622   0.877   2.368   2.475  0.4869  0.2990  0.5900
  128OSM    C2S13623   0.895   2.503   2.322  0.0568  0.2928  0.2685
  128OSM    H2S13624   0.954   2.594   2.347  0.3827  0.1002  0.2101
  128OSM    C3S13625   0.742   2.540   2.343  0.6518  0.0563 -0.0514
  128OSM    H3S13626   0.675   2.453   2.330  1.2069 -0.4600  0.4976
  128OSM     O313627   0.685   2.639   2.257 -0.6408 -0.1250  0.9293
  128OSM    HO313628   0.759   2.647   2.197  0.6880 -0.7252  2.4167
  128OSM    C4S13629   0.713   2.573   2.492  0.2092  0.6759 -0.0581
  128OSM    H4S13630   0.707   2.482   2.554  0.8321  1.1757  0.7648
  128OSM    C5S13631   0.711   2.693   2.550  0.0508  0.0210 -0.2639
  128OSM    H5S13632   0.725   2.782   2.487  0.0432  0.1289 -0.1151
  128OSM    C6S13633   0.681   2.717   2.699  0.3838  0.7589 -0.3210
  128OSM    H6S13634   0.579   2.753   2.726  0.5790 -0.8633  3.0891
  128OSM    H6T13635   0.741   2.795   2.751  0.5735  1.2451 -1.2437
  128OSM    C7S13636   0.700   2.585   2.790 -0.2735 -0.1694  0.4564
  128OSM    H7S13637   0.802   2.544   2.778 -0.4760 -0.1301 -1.9370
  128OSM    H7T13638   0.631   2.505   2.757  0.8983 -0.0267 -2.6575
  128OSM    C8S13639   0.667   2.612   2.939  0.4150 -0.3282 -0.8346
  128OSM    H8S13640   0.557   2.612   2.951  0.6054 -1.3052  1.6776
  128OSM    H8T13641   0.686   2.716   2.974 -0.4732 -0.5354  0.3322
  128OSM    C9S13642   0.745   2.520   3.034  0.4978 -0.1429  0.0965
  128OSM    H9S13643   0.853   2.546   3.038  1.0017 -1.9207 -0.7561
  128OSM    H9T13644   0.742   2.418   2.989  0.9707 -0.1544  0.0866
  128OSM   C10S13645   0.704   2.539   3.184  0.3680 -0.3342  0.3887
  128OSM   H10S13646   0.727   2.641   3.220 -2.7090  1.4042 -1.9486
  128OSM   H10T13647   0.769   2.473   3.244  0.2453  0.2394  1.1654
  128OSM   C11S13648   0.563   2.503   3.203 -0.6263  0.0397 -0.6628
  128OSM   H11S13649   0.531   2.417   3.140 -1.2917 -0.1671 -0.0642
  128OSM   H11T13650   0.488   2.584   3.195 -2.1485 -0.8431  2.6691
  128OSM   C12S13651   0.549   2.460   3.351  0.1021  1.3014 -0.2073
  128OSM   H12S13652   0.633   2.399   3.391 -0.0189  1.3935  0.1964
  128OSM   H12T13653   0.460   2.394   3.357  2.1083 -1.6465 -0.4968
  128OSM   C13S13654   0.537   2.574   3.450 -0.5759  0.1031 -0.2413
  128OSM   H13S13655   0.432   2.607   3.463  0.8832  4.2390  3.8316
  128OSM   H13T13656   0.592   2.666   3.420 -1.8251  1.1975  0.6814
  128OSM   C14S13657   0.607   2.538   3.583  0.2526 -0.0880 -0.5511
  128OSM   H14S13658   0.569   2.441   3.621 -1.9082  0.7242 -0.4740
  128OSM   H14T13659   0.566   2.598   3.667 -1.9337 -1.7219 -0.3674
  128OSM   C15S13660   0.761   2.550   3.578  0.3208  0.3618  0.5210
  128OSM   H15S13661   0.785   2.634   3.510  0.5618  0.4221  0.6813
  128OSM   H15T13662   0.818   2.463   3.540 -0.4748  0.2287 -0.4042
  128OSM   C16S13663   0.827   2.574   3.714  0.9279 -0.3255  0.1903
  128OSM   H16S13664   0.765   2.654   3.759  1.5639 -0.9020  2.1855
  128OSM   H16T13665   0.927   2.619   3.694  0.4015  1.1101  0.6467
  128OSM   C17S13666   0.842   2.459   3.809  0.0960  0.4926  0.2581
  128OSM   H17S13667   0.921   2.395   3.764  1.1939  1.7261  0.4099
  128OSM   H17T13668   0.748   2.400   3.810  1.0441 -1.0921 -0.2944
  128OSM   C18S13669   0.881   2.507   3.942 -0.5199  0.1015 -0.0989
  128OSM   H18S13670   0.980   2.557   3.938  0.0125 -0.9867 -3.0491
  128OSM   H18T13671   0.904   2.424   4.013  0.4079  0.1386 -0.3497
  128OSM   H18U13672   0.804   2.579   3.977  0.6123  0.8615  0.9203
  128OSM    C1F13673   1.077   2.367   2.430  0.1102 -0.2030  0.1794
  128OSM     OF13674   1.169   2.420   2.375 -0.7945  0.2908  0.2260
  128OSM    C2F13675   1.110   2.267   2.532 -0.1226  0.0387  0.0726
  128OSM    H2F13676   1.217   2.240   2.527 -0.2386 -0.8516  1.6211
  128OSM    H2G13677   1.049   2.179   2.503  0.2960  0.3228 -1.8177
  128OSM    C3F13678   1.103   2.333   2.674  0.2070  0.0288  0.0440
  128OSM    H3F13679   0.997   2.360   2.692  0.9012  1.5916  2.1271
  128OSM    H3G13680   1.162   2.426   2.670  1.7178 -0.9108 -0.3715
  128OSM    C4F13681   1.137   2.239   2.786 -0.5026  0.3717  0.5301
  128OSM    H4F13682   1.247   2.229   2.797 -0.3157  2.6114  1.0366
  128OSM    H4G13683   1.089   2.139   2.780 -0.3285  0.3512 -0.7098
  128OSM    C5F13684   1.086   2.306   2.916 -0.3508 -0.1726 -0.2170
  128OSM    H5F13685   0.975   2.314   2.923 -0.2885  0.2630  0.2606
  128OSM    H5G13686   1.133   2.406   2.926  0.6516 -0.6912  0.4648
  128OSM    C6F13687   1.137   2.225   3.041  0.3059 -0.6193 -0.0436
  128OSM    H6F13688   1.248   2.215   3.034  0.2442 -2.4535  1.0738
  128OSM    H6G13689   1.085   2.128   3.033  0.8128 -1.0693  1.5944
  128OSM    C7F13690   1.094   2.274   3.182  0.6095 -0.9152 -0.4886
  128OSM    H7F13691   0.989   2.252   3.208  0.8819 -1.1067  0.4886
  128OSM    H7G13692   1.086   2.385   3.172 -2.2547 -1.2282 -3.7368
  128OSM    C8F13693   1.189   2.219   3.287 -0.0663 -0.3316 -0.0446
  128OSM    H8F13694   1.173   2.279   3.379  1.5231 -0.6942  0.4984
  128OSM    H8G13695   1.293   2.245   3.258 -0.6575  2.0344 -0.2878
  128OSM    C9F13696   1.169   2.071   3.320 -0.3138 -0.9936  0.3930
  128OSM    H9F13697   1.165   2.010   3.229 -0.4346 -0.5454  0.0935
  128OSM   C10F13698   1.169   2.028   3.445 -0.7908  0.4208 -0.3729
  128OSM   H10F13699   1.160   1.919   3.460 -1.3617  0.6674  1.3497
  128OSM   C11F13700   1.167   2.109   3.573  0.1196  0.3082 -0.9225
  128OSM   H11F13701   1.073   2.168   3.579 -0.0161 -0.0706  3.1946
  128OSM   H11G13702   1.253   2.179   3.585 -0.3510  1.2644 -2.7207
  128OSM   C12F13703   1.150   2.028   3.701  0.5237 -0.1233  0.3806
  128OSM   H12F13704   1.246   1.977   3.724  1.7663  2.5766  1.6919
  128OSM   H12G13705   1.048   1.985   3.698 -0.5499  2.1526  1.5896
  128OSM   C13F13706   1.135   2.124   3.825 -0.1748  0.7592  0.1727
  128OSM   H13F13707   1.044   2.184   3.805  0.3644  1.6307  0.3073
  128OSM   H13G13708   1.224   2.190   3.837 -0.4484  1.4744 -1.4692
  128OSM   C14F13709   1.117   2.048   3.953 -0.1895 -0.5985 -0.4059
  128OSM   H14F13710   1.212   2.023   4.005 -0.3416  1.0274  0.7356
  128OSM   H14G13711   1.052   1.960   3.935 -0.8878 -0.2156  0.1653
  128OSM   C15F13712   1.019   2.122   4.048 -0.9836 -0.0752  0.2302
  128OSM   H15F13713   1.063   2.223   4.057  0.2781 -0.5217 -0.7629
  128OSM   H15G13714   1.032   2.081   4.151 -0.1284  1.4464  0.7626
  128OSM   C16F13715   0.869   2.116   4.011 -0.2107  0.5679  0.2026
  128OSM   H16F13716   0.844   2.015   3.972  1.4491  0.3763 -0.4344
  128OSM   H16G13717   0.854   2.192   3.931 -2.2287  0.8459  0.7985
  128OSM   C17F13718   0.777   2.162   4.123 -0.1914 -0.0375  0.5813
  128OSM   H17F13719   0.830   2.236   4.187  0.1368  2.5369 -2.4135
  128OSM   H17G13720   0.764   2.077   4.193  0.2480 -0.8853 -0.3356
  128OSM   C18F13721   0.638   2.219   4.082 -0.2740  0.3628  0.0445
  128OSM   H18F13722   0.583   2.254   4.172 -0.2421 -1.6883  0.9195
  128OSM   H18G13723   0.563   2.147   4.043 -0.4293 -0.1385  1.2239
  128OSM   H18H13724   0.656   2.304   4.013  0.6005  0.1563  0.0017
  129OSM      N13725   2.421   3.004   1.735  0.2606 -0.2332 -0.2125
  129OSM    C1513726   2.542   2.980   1.665  1.1761  0.2504  0.1862
  129OSM   H15A13727   2.623   3.027   1.719 -0.0759  1.1347  1.3522
  129OSM   H15B13728   2.547   3.011   1.562  1.0181 -0.8958 -0.1852
  129OSM   H15C13729   2.570   2.875   1.669  0.0466 -0.1718 -1.5605
  129OSM    C1413730   2.389   3.152   1.725 -0.6698 -0.0907  0.2243
  129OSM   H14A13731   2.457   3.218   1.779 -0.0725 -0.9944  0.6135
  129OSM   H14B13732   2.290   3.170   1.762  0.1040  1.9215  1.4837
  129OSM   H14C13733   2.403   3.191   1.626  0.0734  0.9008  0.7053
  129OSM    C1313734   2.303   2.925   1.666 -0.6590  0.1101 -0.4407
  129OSM   H13A13735   2.211   2.953   1.715 -0.2904 -0.3130  0.5361
  129OSM   H13B13736   2.311   2.819   1.688 -2.7840  0.1372  0.7772
  129OSM   H13C13737   2.293   2.944   1.561  1.3095 -0.0742 -0.7002
  129OSM    C1213738   2.436   2.946   1.880 -0.5268  0.2274 -0.2890
  129OSM   H12A13739   2.357   2.980   1.945 -0.6059  1.0053 -0.7672
  129OSM   H12B13740   2.527   2.987   1.921 -1.7883  1.8423  1.0337
  129OSM    C1113741   2.452   2.796   1.888  0.2674  0.4005  0.0315
  129OSM   H11A13742   2.489   2.780   1.991  0.9582 -1.5518 -0.4729
  129OSM   H11B13743   2.537   2.755   1.829 -0.7843 -1.1195 -0.4991
  129OSM      P13744   2.222   2.714   1.975 -0.2516  0.0799 -0.1760
  129OSM    O1313745   2.102   2.665   1.910  0.2390  0.3728  1.1496
  129OSM    O1413746   2.273   2.637   2.089  0.6339 -0.5363 -0.6882
  129OSM    O1113747   2.217   2.863   2.016  0.4998 -0.0353  0.3200
  129OSM    O1213748   2.336   2.719   1.861 -0.1128  0.2752 -0.1570
  129OSM    C1S13749   2.111   2.922   2.093  0.2792  0.0553  0.5472
  129OSM    H1S13750   2.010   2.880   2.072  0.0427  2.3474 -4.2269
  129OSM    H1T13751   2.088   3.027   2.065 -1.8350  0.8873  4.5564
  129OSM     NF13752   2.027   2.965   2.317  0.1396  0.2015  0.7639
  129OSM    HNF13753   2.024   3.061   2.344  0.4357  0.4822 -0.1711
  129OSM    C2S13754   2.142   2.921   2.248  0.1347  0.5909 -0.1182
  129OSM    H2S13755   2.161   2.815   2.277  0.8335  0.4863 -0.9225
  129OSM    C3S13756   2.263   3.006   2.276 -0.2816 -0.0487 -0.5810
  129OSM    H3S13757   2.223   3.109   2.262 -3.8656 -0.9325  1.7849
  129OSM     O313758   2.369   2.971   2.184  0.3903  0.1838 -0.1518
  129OSM    HO313759   2.323   2.933   2.109 -1.4659  2.4262 -0.2627
  129OSM    C4S13760   2.301   2.996   2.422  0.6494  0.5393 -0.0732
  129OSM    H4S13761   2.260   3.076   2.485  0.9425  1.3206 -0.8593
  129OSM    C5S13762   2.394   2.919   2.473  0.1981  0.0581  0.1199
  129OSM    H5S13763   2.443   2.849   2.405  0.5377  0.1810  0.2327
  129OSM    C6S13764   2.455   2.918   2.609  0.3590  0.2035  0.0043
  129OSM    H6S13765   2.566   2.930   2.604  0.6177 -1.7590 -0.1609
  129OSM    H6T13766   2.455   2.814   2.648  1.6764  0.8522  1.9029
  129OSM    C7S13767   2.400   3.020   2.703 -0.9999 -0.2146  0.0806
  129OSM    H7S13768   2.298   2.999   2.739 -0.8157  1.5160  1.7771
  129OSM    H7T13769   2.412   3.127   2.675  1.3487 -1.0791 -2.7166
  129OSM    C8S13770   2.481   3.007   2.834 -0.0260  0.1209  0.6877
  129OSM    H8S13771   2.585   3.043   2.817 -0.5504  1.0023 -0.8275
  129OSM    H8T13772   2.476   2.904   2.876 -2.0278 -0.0768  0.0446
  129OSM    C9S13773   2.433   3.116   2.933  0.7587 -0.3149 -0.3467
  129OSM    H9S13774   2.328   3.086   2.954  0.5328  1.7439  1.9239
  129OSM    H9T13775   2.447   3.216   2.886  2.1572 -0.5090 -0.4022
  129OSM   C10S13776   2.501   3.108   3.067 -0.3611 -0.3675  0.7616
  129OSM   H10S13777   2.604   3.147   3.054 -1.1254  0.6834 -3.4945
  129OSM   H10T13778   2.512   3.006   3.109 -2.5669 -2.0337 -2.3005
  129OSM   C11S13779   2.433   3.190   3.178  0.5244 -0.9263  0.5474
  129OSM   H11S13780   2.325   3.167   3.183  0.2282  0.4772  1.1483
  129OSM   H11T13781   2.438   3.297   3.149  1.4329 -1.0050  0.3778
  129OSM   C12S13782   2.502   3.196   3.314 -0.3734  0.1909  0.5766
  129OSM   H12S13783   2.597   3.254   3.313 -0.9455  1.1912  1.6649
  129OSM   H12T13784   2.516   3.091   3.349 -0.1646  0.1340  0.3229
  129OSM   C13S13785   2.411   3.257   3.417 -0.0813 -0.5080 -0.1009
  129OSM   H13S13786   2.302   3.235   3.410 -0.8134  2.3514  0.8300
  129OSM   H13T13787   2.415   3.368   3.407 -1.6500 -0.5617 -1.9379
  129OSM   C14S13788   2.457   3.234   3.562  0.3910 -0.0770  0.5272
  129OSM   H14S13789   2.552   3.286   3.587  1.6226 -1.5403 -0.9069
  129OSM   H14T13790   2.480   3.128   3.589 -0.3585  0.4399  3.5846
  129OSM   C15S13791   2.352   3.281   3.665 -0.0457  0.2092 -0.4485
  129OSM   H15S13792   2.252   3.244   3.634 -1.1728  0.2714  2.6922
  129OSM   H15T13793   2.351   3.392   3.674 -0.7104  0.1169  0.9365
  129OSM   C16S13794   2.368   3.235   3.803  0.8897 -0.0584  0.1988
  129OSM   H16S13795   2.468   3.256   3.848  0.8191 -1.2567  0.9497
  129OSM   H16T13796   2.359   3.124   3.797 -2.4941  0.0967  0.9086
  129OSM   C17S13797   2.249   3.272   3.903 -0.4397 -0.2708  0.0505
  129OSM   H17S13798   2.150   3.232   3.872 -0.1564  0.3680 -1.8332
  129OSM   H17T13799   2.240   3.382   3.904  1.2780 -0.1073  0.4751
  129OSM   C18S13800   2.277   3.219   4.041  0.0746 -0.5423 -0.3956
  129OSM   H18S13801   2.177   3.212   4.089 -0.1112  1.5614 -0.3583
  129OSM   H18T13802   2.341   3.291   4.098 -0.7462  1.3798 -1.8228
  129OSM   H18U13803   2.314   3.115   4.032 -2.2296 -1.3088 -1.4507
  129OSM    C1F13804   1.920   2.880   2.321  0.7952 -0.7321  0.9086
  129OSM     OF13805   1.925   2.768   2.272 -0.5138 -0.0089 -0.5472
  129OSM    C2F13806   1.791   2.930   2.374  0.3305  0.4278  0.5694
  129OSM    H2F13807   1.721   2.973   2.301 -1.8956 -0.8226  1.8581
  129OSM    H2G13808   1.816   3.012   2.445 -0.0714  1.2860 -0.2697
  129OSM    C3F13809   1.714   2.815   2.442  0.0712  0.4934 -0.2383
  129OSM    H3F13810   1.786   2.762   2.508 -1.7094 -0.2100  1.2307
  129OSM    H3G13811   1.686   2.758   2.351 -2.3634  1.7674 -0.3730
  129OSM    C4F13812   1.599   2.860   2.533  0.1913  0.2950 -0.2075
  129OSM    H4F13813   1.583   2.765   2.589 -0.5190  0.3024 -0.3878
  129OSM    H4G13814   1.497   2.879   2.493 -0.2070  1.4317  1.2838
  129OSM    C5F13815   1.636   2.959   2.645  0.3580 -0.9289 -0.0010
  129OSM    H5F13816   1.644   3.064   2.610 -0.1710 -0.1539  2.0758
  129OSM    H5G13817   1.738   2.937   2.681  0.2919 -0.4882  0.4685
  129OSM    C6F13818   1.533   2.950   2.768 -0.6833 -0.7027  0.6062
  129OSM    H6F13819   1.515   2.851   2.816 -1.2701 -0.4678  0.8786
  129OSM    H6G13820   1.431   2.981   2.737 -0.8626 -1.5191  0.3622
  129OSM    C7F13821   1.582   3.059   2.860 -0.7516  0.1011  0.4854
  129OSM    H7F13822   1.602   3.154   2.807  0.6001  0.5301  1.6937
  129OSM    H7G13823   1.674   3.022   2.909 -1.4944 -1.0093  1.0979
  129OSM    C8F13824   1.486   3.092   2.980  0.3459 -0.0057  0.3639
  129OSM    H8F13825   1.411   3.169   2.952 -1.0924 -1.1963  0.8169
  129OSM    H8G13826   1.560   3.146   3.043 -0.7717  1.7227  0.2792
  129OSM    C9F13827   1.431   2.971   3.052  0.1493  0.4015  0.1490
  129OSM    H9F13828   1.364   2.913   2.987  1.6702 -0.3835 -0.7599
  129OSM   C10F13829   1.462   2.928   3.176 -0.1340 -0.4486  0.2176
  129OSM   H10F13830   1.405   2.842   3.215 -0.7208  0.2893  1.0316
  129OSM   C11F13831   1.561   2.995   3.278  0.3438  0.4535  0.0454
  129OSM   H11F13832   1.615   3.080   3.232  4.5716 -1.1149  1.6258
  129OSM   H11G13833   1.652   2.939   3.310  0.2686  0.9469  1.1926
  129OSM   C12F13834   1.486   3.049   3.403  0.8975  0.2274  0.1117
  129OSM   H12F13835   1.558   3.102   3.469  0.2465  1.2341  0.0300
  129OSM   H12G13836   1.444   2.967   3.464  1.8144 -0.6887 -0.4723
  129OSM   C13F13837   1.369   3.143   3.371 -0.2368 -0.3906 -0.1854
  129OSM   H13F13838   1.267   3.110   3.342  0.1386  0.3465 -2.6069
  129OSM   H13G13839   1.402   3.190   3.276 -2.6650 -1.5330 -1.6803
  129OSM   C14F13840   1.356   3.257   3.476 -0.0770  0.0299 -0.3709
  129OSM   H14F13841   1.287   3.334   3.434  2.4050  2.2540 -0.5824
  129OSM   H14G13842   1.455   3.302   3.497 -0.4973  1.9013 -2.1339
  129OSM   C15F13843   1.296   3.205   3.608  0.1675 -0.0622  0.2325
  129OSM   H15F13844   1.340   3.105   3.626 -0.1529 -0.3581 -0.5782
  129OSM   H15G13845   1.185   3.201   3.607  0.0948  0.6742 -2.5710
  129OSM   C16F13846   1.335   3.302   3.722  0.2127 -0.5207 -1.1344
  129OSM   H16F13847   1.285   3.401   3.722 -0.0463 -0.5379  2.0582
  129OSM   H16G13848   1.443   3.328   3.718  0.4424 -1.6218 -3.5956
  129OSM   C17F13849   1.302   3.249   3.858 -0.3238 -0.1338  0.9293
  129OSM   H17F13850   1.379   3.170   3.875 -0.0110  0.2352  1.2373
  129OSM   H17G13851   1.198   3.209   3.854 -0.4280  0.2580 -1.4171
  129OSM   C18F13852   1.299   3.353   3.970  0.3098  0.4009 -0.4369
  129OSM   H18F13853   1.308   3.315   4.073 -0.3925  0.2676 -0.4226
  129OSM   H18G13854   1.198   3.400   3.970  0.5457  0.9135  0.0558
  129OSM   H18H13855   1.384   3.423   3.959  0.0608  0.7966  0.1029
  130OSM      N13856   1.362   5.742   1.931 -0.4178  0.0748  0.1477
  130OSM    C1513857   1.238   5.827   1.900  0.2240 -0.3978  0.1355
  130OSM   H15A13858   1.174   5.834   1.986  0.9983  1.1833  0.6119
  130OSM   H15B13859   1.173   5.778   1.828 -2.0433 -0.3306  2.0101
  130OSM   H15C13860   1.272   5.923   1.864  1.3374 -1.0002 -0.4674
  130OSM    C1413861   1.419   5.693   1.797 -0.4857  0.6877  0.0310
  130OSM   H14A13862   1.356   5.617   1.753  0.4428 -1.8123  2.6754
  130OSM   H14B13863   1.509   5.635   1.807 -0.9620 -0.2549 -1.0808
  130OSM   H14C13864   1.442   5.771   1.726 -0.6063 -1.0418 -1.9830
  130OSM    C1313865   1.455   5.825   2.009 -0.5101 -0.3637  0.3340
  130OSM   H13A13866   1.406   5.868   2.095 -1.0549 -0.1026 -0.1014
  130OSM   H13B13867   1.499   5.902   1.947  2.2006 -2.4148 -0.5050
  130OSM   H13C13868   1.541   5.766   2.036  1.5841  1.9488 -0.8818
  130OSM    C1213869   1.329   5.612   2.009  0.3057 -0.5636  0.0017
  130OSM   H12A13870   1.423   5.560   2.022  0.7289  0.5445  1.7795
  130OSM   H12B13871   1.259   5.551   1.955  1.8028 -2.2003 -0.1908
  130OSM    C1113872   1.273   5.618   2.160  0.1709 -0.3915 -0.0418
  130OSM   H11A13873   1.354   5.667   2.218  0.0057  0.7147 -0.7265
  130OSM   H11B13874   1.260   5.511   2.190 -0.3963 -0.4229 -0.3828
  130OSM      P13875   1.016   5.653   2.118 -0.1649 -0.1279  0.1839
  130OSM    O1313876   0.937   5.769   2.073 -0.0928  0.2924 -0.0381
  130OSM    O1413877   1.029   5.548   2.016  0.6438  0.1679 -0.1906
  130OSM    O1113878   0.940   5.588   2.238  0.3871  1.2156  0.0982
  130OSM    O1213879   1.155   5.702   2.171  0.3393  0.4917  0.1619
  130OSM    C1S13880   0.984   5.474   2.312  0.4234 -0.2966  0.1280
  130OSM    H1S13881   1.060   5.492   2.391  0.0269 -1.8240  0.9092
  130OSM    H1T13882   1.038   5.398   2.251 -0.7781 -1.0339 -0.0607
  130OSM     NF13883   0.903   5.317   2.502 -0.4829 -1.2864  0.2205
  130OSM    HNF13884   0.898   5.219   2.485  1.5252 -1.6831  1.5729
  130OSM    C2S13885   0.866   5.407   2.392 -0.4022 -1.0755  0.7977
  130OSM    H2S13886   0.812   5.485   2.448  1.6742  0.5568  0.6360
  130OSM    C3S13887   0.748   5.347   2.297 -0.6071  0.3558 -0.1423
  130OSM    H3S13888   0.794   5.259   2.246 -1.0408 -0.7884  1.3621
  130OSM     O313889   0.711   5.434   2.189  0.1163 -0.8336  0.0101
  130OSM    HO313890   0.773   5.506   2.198 -2.7489  1.5521  2.9478
  130OSM    C4S13891   0.625   5.298   2.377  0.6467  0.3112 -0.6561
  130OSM    H4S13892   0.618   5.189   2.370  2.5180  0.2377 -2.8595
  130OSM    C5S13893   0.530   5.375   2.443 -0.2735 -0.0261 -0.0483
  130OSM    H5S13894   0.547   5.484   2.440  3.0029 -0.4594 -1.5804
  130OSM    C6S13895   0.414   5.307   2.517 -0.6055 -1.2831 -0.1351
  130OSM    H6S13896   0.420   5.199   2.490  2.2499 -1.5283  1.0967
  130OSM    H6T13897   0.313   5.347   2.495 -0.1932 -0.7398 -1.1091
  130OSM    C7S13898   0.434   5.312   2.665 -0.1494 -0.2672  0.2909
  130OSM    H7S13899   0.430   5.421   2.685 -0.6560 -0.3766  0.8221
  130OSM    H7T13900   0.534   5.273   2.698 -0.6889 -0.5975  1.6233
  130OSM    C8S13901   0.320   5.230   2.727 -0.6636 -0.1384 -0.6661
  130OSM    H8S13902   0.321   5.126   2.688 -0.5333  0.1318 -1.3848
  130OSM    H8T13903   0.222   5.269   2.690 -0.4533 -0.1061 -1.1868
  130OSM    C9S13904   0.317   5.229   2.883 -0.8461 -0.1755  0.0840
  130OSM    H9S13905   0.422   5.222   2.918 -1.0939 -3.2568  0.4631
  130OSM    H9T13906   0.284   5.127   2.912  0.6397  0.3751  4.4484
  130OSM   C10S13907   0.243   5.338   2.952  0.0954 -0.6026 -0.1016
  130OSM   H10S13908   0.139   5.336   2.914 -0.1677 -0.9585  0.6060
  130OSM   H10T13909   0.283   5.439   2.929 -0.3515 -0.2412  0.6645
  130OSM   C11S13910   0.237   5.319   3.102  0.4693  0.0087 -0.1174
  130OSM   H11S13911   0.323   5.363   3.157  0.2165  0.7620 -0.3113
  130OSM   H11T13912   0.227   5.210   3.119 -1.5660  0.3186  0.9925
  130OSM   C12S13913   0.121   5.385   3.168  0.2501 -0.1238 -0.6612
  130OSM   H12S13914   0.032   5.373   3.102 -0.9505  3.4283  0.0878
  130OSM   H12T13915   0.147   5.493   3.168  0.3822 -0.1309  1.0674
  130OSM   C13S13916   0.097   5.321   3.307 -0.1478  0.3130 -0.2869
  130OSM   H13S13917   0.074   5.212   3.306 -1.0918  0.5071 -1.0387
  130OSM   H13T13918   0.004   5.363   3.350  0.6121 -0.5501  2.3640
  130OSM   C14S13919   0.193   5.350   3.417  0.1503  0.1646  0.2407
  130OSM   H14S13920   0.201   5.455   3.451 -0.1921  0.1620  0.3309
  130OSM   H14T13921   0.295   5.327   3.378 -1.0466  0.0938 -3.1155
  130OSM   C15S13922   0.167   5.268   3.550  0.6145  0.3236 -0.1915
  130OSM   H15S13923   0.256   5.290   3.613  0.5028 -0.3399  0.2038
  130OSM   H15T13924   0.164   5.158   3.531 -0.8455  0.4419 -0.8066
  130OSM   C16S13925   0.037   5.309   3.616 -0.3166 -0.8606  0.5913
  130OSM   H16S13926  -0.047   5.308   3.543 -0.9852  1.5352  1.2736
  130OSM   H16T13927   0.043   5.415   3.648  0.1160 -0.9398  0.7761
  130OSM   C17S13928  -0.007   5.224   3.737 -0.2330 -0.5013  0.4905
  130OSM   H17S13929   0.079   5.207   3.806 -1.1536  2.6461  2.6400
  130OSM   H17T13930  -0.040   5.125   3.699 -0.1600 -0.8761  1.3723
  130OSM   C18S13931  -0.126   5.294   3.805  0.1708  0.9405  0.8153
  130OSM   H18S13932  -0.096   5.398   3.828 -1.2810  1.5188  0.2020
  130OSM   H18T13933  -0.163   5.238   3.893  1.3369  1.9387  1.9923
  130OSM   H18U13934  -0.214   5.309   3.739 -0.4126  0.3676  1.4470
  130OSM    C1F13935   0.975   5.353   2.601  0.5459 -0.2606 -0.3557
  130OSM     OF13936   1.006   5.473   2.617 -0.0156 -0.7548  0.5918
  130OSM    C2F13937   1.007   5.253   2.697 -0.8622  0.2468 -0.0845
  130OSM    H2F13938   1.055   5.164   2.651 -2.6980 -0.9075  0.1269
  130OSM    H2G13939   0.918   5.211   2.748 -0.3396 -0.7528  0.0265
  130OSM    C3F13940   1.107   5.306   2.803 -0.7848  0.0169 -0.2429
  130OSM    H3F13941   1.072   5.399   2.852 -0.4924  1.0206 -1.8565
  130OSM    H3G13942   1.203   5.321   2.749 -0.7505 -1.6027 -0.6830
  130OSM    C4F13943   1.148   5.211   2.916 -0.2865  0.6205  0.0072
  130OSM    H4F13944   1.194   5.118   2.877  1.7701  2.5592 -2.4804
  130OSM    H4G13945   1.054   5.168   2.959 -0.0329 -1.4293 -1.3347
  130OSM    C5F13946   1.227   5.276   3.029  0.1276 -0.1571  0.4795
  130OSM    H5F13947   1.168   5.367   3.053  0.5342 -0.1321  1.4009
  130OSM    H5G13948   1.322   5.311   2.983  0.6146 -0.7207  1.0374
  130OSM    C6F13949   1.251   5.194   3.156 -0.1363 -0.4641  0.3337
  130OSM    H6F13950   1.278   5.090   3.128 -0.4547 -0.4457 -0.0540
  130OSM    H6G13951   1.147   5.196   3.196  0.0992 -1.0147  0.9984
  130OSM    C7F13952   1.346   5.271   3.250  0.5902 -0.6536  0.0908
  130OSM    H7F13953   1.331   5.381   3.248  2.3372 -0.3909 -0.9130
  130OSM    H7G13954   1.446   5.262   3.202  0.8502 -0.4513  0.5889
  130OSM    C8F13955   1.352   5.209   3.387  0.0923  0.3903 -0.1018
  130OSM    H8F13956   1.450   5.232   3.434  0.1581  0.5417 -0.3166
  130OSM    H8G13957   1.365   5.101   3.364 -1.4638 -0.1889  1.5399
  130OSM    C9F13958   1.233   5.228   3.484  0.3694  0.6031 -0.7984
  130OSM    H9F13959   1.146   5.179   3.437  1.7600 -0.1186 -2.7708
  130OSM   C10F13960   1.249   5.275   3.611  0.1688 -0.6734 -0.2172
  130OSM   H10F13961   1.166   5.290   3.682  0.3336 -0.1118 -0.1380
  130OSM   C11F13962   1.376   5.325   3.674  0.4578 -0.2113  0.0175
  130OSM   H11F13963   1.351   5.417   3.731  0.5293 -1.0374  1.4117
  130OSM   H11G13964   1.443   5.347   3.587  0.1116  0.1384 -0.1637
  130OSM   C12F13965   1.449   5.221   3.757 -0.3099  0.1413 -0.4741
  130OSM   H12F13966   1.506   5.144   3.699  1.0847  1.0288 -0.3293
  130OSM   H12G13967   1.375   5.162   3.815 -0.4736 -0.2655 -1.0810
  130OSM   C13F13968   1.557   5.290   3.852 -0.0864  0.7088  0.8829
  130OSM   H13F13969   1.575   5.397   3.829 -1.8067  1.1147  1.3226
  130OSM   H13G13970   1.650   5.229   3.849 -0.7768 -0.9163  5.2341
  130OSM   C14F13971   1.508   5.290   3.998 -0.0235 -1.0012  0.2063
  130OSM   H14F13972   1.486   5.184   4.023  1.8621 -1.5259 -0.1956
  130OSM   H14G13973   1.428   5.367   4.007  1.9330  1.4516 -1.7785
  130OSM   C15F13974   1.619   5.346   4.096  0.1991  0.2547  0.1563
  130OSM   H15F13975   1.569   5.391   4.185  0.0640 -0.6281  0.5426
  130OSM   H15G13976   1.679   5.425   4.046 -1.3229  1.1875 -0.2439
  130OSM   C16F13977   1.721   5.247   4.159 -0.2482  0.2552 -0.0467
  130OSM   H16F13978   1.742   5.167   4.085 -2.9446 -0.5107 -0.0858
  130OSM   H16G13979   1.661   5.190   4.233  1.0894  0.7053  1.4169
  130OSM   C17F13980   1.850   5.305   4.209 -0.1270 -0.2113  0.1955
  130OSM   H17F13981   1.828   5.360   4.303  1.4451  0.9770 -0.0869
  130OSM   H17G13982   1.898   5.382   4.144 -1.5423 -0.8239 -1.6657
  130OSM   C18F13983   1.955   5.194   4.229  0.1150 -0.5303 -0.0080
  130OSM   H18F13984   1.926   5.111   4.297  1.1077 -2.1846 -1.5249
  130OSM   H18G13985   2.039   5.238   4.285 -0.6095  0.6706  0.1634
  130OSM   H18H13986   1.989   5.160   4.129  0.1890  1.6475 -0.7689
  131OSM      N13987   1.082   1.694   1.436 -0.4141  0.3214  0.1330
  131OSM    C1513988   1.159   1.627   1.330 -0.5545  1.4235  0.4604
  131OSM   H15A13989   1.096   1.566   1.268 -0.1406  1.8205 -0.3626
  131OSM   H15B13990   1.228   1.558   1.376 -0.1570  1.4000 -0.1569
  131OSM   H15C13991   1.214   1.700   1.271  2.2696 -0.3359  0.7054
  131OSM    C1413992   1.173   1.774   1.519 -0.4559  0.6247  0.6721
  131OSM   H14A13993   1.121   1.807   1.607  1.7903 -0.3722  2.4693
  131OSM   H14B13994   1.211   1.858   1.463 -0.3980 -1.2262 -2.2841
  131OSM   H14C13995   1.261   1.717   1.546  0.4035  1.1587 -0.8563
  131OSM    C1313996   0.985   1.787   1.363  0.0194 -0.3908 -0.3537
  131OSM   H13A13997   1.033   1.849   1.289 -0.4310 -0.6729 -0.8854
  131OSM   H13B13998   0.916   1.835   1.430 -0.8569  0.1030 -1.5720
  131OSM   H13C13999   0.924   1.717   1.308  0.4063 -1.9708  1.1528
  131OSM    C1214000   1.009   1.596   1.519 -0.4238 -0.0029 -0.0293
  131OSM   H12A14001   1.074   1.512   1.541  0.4471  0.5546 -0.3973
  131OSM   H12B14002   0.931   1.555   1.457 -0.5099  0.5216 -0.2732
  131OSM    C1114003   0.942   1.642   1.653  0.0102  0.3258 -0.9007
  131OSM   H11A14004   0.864   1.571   1.689  0.6791  0.4778  0.9775
  131OSM   H11B14005   0.897   1.738   1.620  0.3659  0.5783 -0.6606
  131OSM      P14006   1.100   1.557   1.841  0.0663  0.2401  0.1395
  131OSM    O1314007   1.016   1.437   1.859  0.0975 -0.3461 -0.3603
  131OSM    O1414008   1.234   1.522   1.795 -0.3422 -0.1350 -0.2949
  131OSM    O1114009   1.124   1.631   1.979  0.1111 -0.3481 -0.2530
  131OSM    O1214010   1.040   1.673   1.750 -0.4885 -0.9212  0.5910
  131OSM    C1S14011   1.013   1.682   2.052  0.9090 -0.2470 -1.1280
  131OSM    H1S14012   0.911   1.660   2.015 -0.2859  1.9481  0.6006
  131OSM    H1T14013   1.012   1.793   2.045  0.0945 -0.0475  1.1669
  131OSM     NF14014   0.907   1.687   2.283  0.6941 -0.3166  0.3033
  131OSM    HNF14015   0.923   1.766   2.341 -1.8975 -0.2831  1.0914
  131OSM    C2S14016   1.022   1.646   2.202  0.6649  0.5070  0.0645
  131OSM    H2S14017   1.030   1.537   2.218 -1.9969 -0.2325 -2.7552
  131OSM    C3S14018   1.142   1.714   2.267 -0.9251 -0.2053 -0.5844
  131OSM    H3S14019   1.143   1.825   2.253 -1.1924 -0.3705 -2.0433
  131OSM     O314020   1.270   1.670   2.209  0.2124  0.1886  0.2736
  131OSM    HO314021   1.246   1.646   2.120  0.4759  0.4499  0.1318
  131OSM    C4S14022   1.161   1.683   2.417  1.0771  0.6077 -0.2237
  131OSM    H4S14023   1.194   1.579   2.437 -1.0104  0.1870  1.4911
  131OSM    C5S14024   1.131   1.758   2.525 -0.5767  0.3555  0.5021
  131OSM    H5S14025   1.104   1.864   2.510  0.5523  0.6602  0.5327
  131OSM    C6S14026   1.145   1.712   2.663 -0.0189  0.1033  0.4345
  131OSM    H6S14027   1.249   1.695   2.700 -0.6031 -0.6944  1.7855
  131OSM    H6T14028   1.090   1.616   2.670  3.3119 -1.8842  1.7339
  131OSM    C7S14029   1.086   1.822   2.762 -0.4837 -0.3784 -0.2938
  131OSM    H7S14030   0.978   1.841   2.744  0.0725  1.7553 -1.6923
  131OSM    H7T14031   1.109   1.928   2.739 -2.7368  0.4053  0.7310
  131OSM    C8S14032   1.099   1.790   2.907  0.1548 -0.0643  0.4387
  131OSM    H8S14033   1.076   1.888   2.955 -0.1053  0.6645 -1.0816
  131OSM    H8T14034   1.206   1.767   2.926 -0.3911 -3.2556  0.2212
  131OSM    C9S14035   1.006   1.675   2.948  0.3742  0.6354 -0.0894
  131OSM    H9S14036   1.014   1.591   2.876  3.2143  0.9105 -0.1851
  131OSM    H9T14037   0.901   1.709   2.934  0.5966  1.4780  0.1835
  131OSM   C10S14038   1.008   1.634   3.093 -0.7574 -0.8928  0.0514
  131OSM   H10S14039   1.111   1.604   3.123 -0.2956  2.1281  1.9800
  131OSM   H10T14040   0.944   1.547   3.118  0.0267 -1.3672  0.4744
  131OSM   C11S14041   0.968   1.757   3.186  0.0326  0.3320  0.1542
  131OSM   H11S14042   0.868   1.791   3.151 -0.5314 -1.9206 -0.5639
  131OSM   H11T14043   1.038   1.842   3.175  0.8216 -0.4961 -1.4831
  131OSM   C12S14044   0.949   1.714   3.332  0.2205 -0.5043 -0.4200
  131OSM   H12S14045   0.867   1.639   3.333 -0.3850  0.0931 -1.9482
  131OSM   H12T14046   0.915   1.803   3.389  2.6330 -0.0595  0.4308
  131OSM   C13S14047   1.076   1.656   3.406  0.1130  0.3881 -0.1177
  131OSM   H13S14048   1.163   1.715   3.370  1.3320 -1.4346 -0.2947
  131OSM   H13T14049   1.099   1.554   3.367  3.5500  1.4220 -1.2006
  131OSM   C14S14050   1.066   1.645   3.557 -0.1670 -0.3323 -0.0850
  131OSM   H14S14051   1.000   1.560   3.587 -1.0871  0.3815 -0.0565
  131OSM   H14T14052   1.018   1.735   3.600  1.7463  1.1951 -0.9915
  131OSM   C15S14053   1.200   1.651   3.634  0.3214 -0.3915  0.2829
  131OSM   H15S14054   1.257   1.745   3.622  0.9754 -0.9542 -1.3234
  131OSM   H15T14055   1.265   1.571   3.591  1.7451  1.0658 -0.3768
  131OSM   C16S14056   1.188   1.635   3.788 -0.3417 -0.3214 -0.0849
  131OSM   H16S14057   1.124   1.547   3.806 -0.3697 -0.1089  0.9040
  131OSM   H16T14058   1.141   1.727   3.829 -2.1133 -0.2540 -2.1274
  131OSM   C17S14059   1.325   1.621   3.868  0.1931 -0.1700 -0.4242
  131OSM   H17S14060   1.390   1.550   3.811  0.2629  1.1872 -2.1007
  131OSM   H17T14061   1.295   1.571   3.962 -1.6425  1.1165 -0.2797
  131OSM   C18S14062   1.409   1.752   3.904 -0.0852  0.2619 -0.5723
  131OSM   H18S14063   1.491   1.724   3.973  1.0265  0.3099 -1.8282
  131OSM   H18T14064   1.346   1.832   3.950 -2.8753 -3.5772  2.9629
  131OSM   H18U14065   1.464   1.790   3.815  1.7006  3.3532  1.6303
  131OSM    C1F14066   0.785   1.630   2.265 -0.2699 -0.3563 -0.4612
  131OSM     OF14067   0.776   1.535   2.191  0.4021  0.2057  0.0656
  131OSM    C2F14068   0.671   1.687   2.345 -0.2379  0.0436  0.1758
  131OSM    H2F14069   0.626   1.775   2.295 -0.1264 -0.8210 -1.5147
  131OSM    H2G14070   0.724   1.732   2.432  2.0059 -1.0032 -0.5789
  131OSM    C3F14071   0.566   1.582   2.399 -0.0788 -0.1205 -0.3731
  131OSM    H3F14072   0.617   1.509   2.466  1.7036  1.2295 -0.1723
  131OSM    H3G14073   0.525   1.534   2.308 -0.6109  1.1750 -0.8340
  131OSM    C4F14074   0.449   1.647   2.463  0.0794  0.7069 -0.3424
  131OSM    H4F14075   0.367   1.572   2.464  2.2105 -1.8573 -2.1761
  131OSM    H4G14076   0.406   1.723   2.393 -3.1959 -0.1062  0.6197
  131OSM    C5F14077   0.462   1.724   2.602 -0.7568 -0.5004  0.8075
  131OSM    H5F14078   0.363   1.765   2.630 -0.9082 -1.0862  1.1600
  131OSM    H5G14079   0.526   1.812   2.582 -2.7707  0.3209 -2.9223
  131OSM    C6F14080   0.517   1.626   2.710  0.0502 -0.5286  0.2139
  131OSM    H6F14081   0.611   1.591   2.661 -0.3840  2.2763 -2.9232
  131OSM    H6G14082   0.457   1.537   2.739 -0.8187  0.3321  1.1607
  131OSM    C7F14083   0.561   1.695   2.848  0.7279 -0.7113  0.3782
  131OSM    H7F14084   0.478   1.741   2.905  0.9396  1.1606 -0.7196
  131OSM    H7G14085   0.636   1.773   2.825  0.7403 -0.6085  0.7655
  131OSM    C8F14086   0.625   1.591   2.934 -0.2124 -0.8613 -0.7264
  131OSM    H8F14087   0.692   1.643   3.006 -0.7915 -0.4663 -0.4617
  131OSM    H8G14088   0.708   1.545   2.875  0.7048 -0.4197  0.1975
  131OSM    C9F14089   0.535   1.492   2.990  0.6344  0.1883 -0.7397
  131OSM    H9F14090   0.527   1.401   2.928  6.2663 -1.7173  0.6979
  131OSM   C10F14091   0.488   1.502   3.114 -0.8174  0.9147  0.2892
  131OSM   H10F14092   0.434   1.417   3.158  0.2899 -0.8782 -1.6383
  131OSM   C11F14093   0.520   1.616   3.212  0.3644 -0.2897  0.5541
  131OSM   H11F14094   0.432   1.684   3.218 -0.6745 -1.6573  1.4008
  131OSM   H11G14095   0.613   1.675   3.206  0.4067 -0.4126 -0.1004
  131OSM   C12F14096   0.514   1.549   3.355 -0.6244 -0.0415 -1.0519
  131OSM   H12F14097   0.602   1.483   3.366  0.5904  1.2005 -2.7869
  131OSM   H12G14098   0.428   1.482   3.376  0.1879 -0.6694  0.3967
  131OSM   C13F14099   0.518   1.665   3.459  0.1860  0.3612  0.6043
  131OSM   H13F14100   0.418   1.713   3.458 -0.2808 -0.5363 -1.3847
  131OSM   H13G14101   0.592   1.739   3.420 -0.2597 -0.0049 -0.9973
  131OSM   C14F14102   0.560   1.625   3.595 -0.1436 -0.1984  0.8177
  131OSM   H14F14103   0.504   1.538   3.635  0.0364 -0.6126  0.1839
  131OSM   H14G14104   0.539   1.713   3.659  1.1197  0.1915  0.7270
  131OSM   C15F14105   0.712   1.600   3.592 -0.6933 -0.5228  0.4304
  131OSM   H15F14106   0.775   1.679   3.546  1.3325 -2.5826 -0.5825
  131OSM   H15G14107   0.739   1.498   3.556  0.2529 -0.7515  1.7244
  131OSM   C16F14108   0.754   1.583   3.740 -0.2448 -0.6843 -0.4513
  131OSM   H16F14109   0.855   1.543   3.759 -0.4931 -0.2831  2.2245
  131OSM   H16G14110   0.683   1.514   3.790  0.1069 -1.7565 -1.4100
  131OSM   C17F14111   0.773   1.717   3.821  0.4463  0.0343  0.4135
  131OSM   H17F14112   0.689   1.789   3.811  0.1386 -0.3785 -0.0103
  131OSM   H17G14113   0.854   1.781   3.779  0.0627  0.2473  0.0015
  131OSM   C18F14114   0.799   1.701   3.972 -0.1702  0.3077 -0.1077
  131OSM   H18F14115   0.894   1.644   3.979 -0.4677 -0.4126 -1.6369
  131OSM   H18G14116   0.723   1.644   4.030 -1.4338 -1.7417 -3.5190
  131OSM   H18H14117   0.815   1.798   4.024 -1.3022  0.9203 -0.8578
  132OSM      N14118   6.644   3.332   1.730  0.2712  0.8919 -0.4262
  132OSM    C1514119   6.776   3.341   1.677 -0.3362 -0.7477 -0.8338
  132OSM   H15A14120   6.842   3.258   1.698 -0.0696 -0.6168 -1.1547
  132OSM   H15B14121   6.825   3.430   1.713  0.5672 -1.4955 -0.1718
  132OSM   H15C14122   6.771   3.361   1.571  1.6279 -1.8941 -1.1993
  132OSM    C1414123   6.569   3.235   1.647  0.4813 -0.7555 -0.2088
  132OSM   H14A14124   6.464   3.224   1.670 -0.3491 -0.0774 -3.2486
  132OSM   H14B14125   6.604   3.135   1.668 -2.7023 -2.1105 -0.7190
  132OSM   H14C14126   6.580   3.261   1.543  1.6718  0.0665  0.1074
  132OSM    C1314127   6.658   3.276   1.869  0.2427  0.7370 -0.5254
  132OSM   H13A14128   6.562   3.258   1.916  2.0128 -0.7068  2.9778
  132OSM   H13B14129   6.702   3.346   1.938  0.9538  1.1570 -1.4009
  132OSM   H13C14130   6.703   3.178   1.859  0.4265  0.9287 -1.5991
  132OSM    C1214131   6.572   3.464   1.744 -0.0238  0.6915  0.1042
  132OSM   H12A14132   6.472   3.451   1.782 -1.2214  3.5595 -1.7637
  132OSM   H12B14133   6.559   3.501   1.644  0.9147 -1.3005 -0.7985
  132OSM    C1114134   6.640   3.580   1.829  0.2003  0.2038 -0.0560
  132OSM   H11A14135   6.655   3.547   1.934  4.7730  0.9551 -0.2519
  132OSM   H11B14136   6.566   3.662   1.818 -0.9704 -0.7562  0.5307
  132OSM      P14137   6.894   3.622   1.869  0.1092 -0.0386  0.0728
  132OSM    O1314138   6.958   3.492   1.855  0.3178 -0.0597  0.0048
  132OSM    O1414139   6.980   3.740   1.827 -0.2221  0.1830 -0.3036
  132OSM    O1114140   6.848   3.647   2.014 -0.3846 -0.4312 -0.0278
  132OSM    O1214141   6.768   3.619   1.773  0.0142 -0.2846  0.3696
  132OSM    C1S14142   6.856   3.545   2.114 -0.2667 -0.5493 -0.0383
  132OSM    H1S14143   6.961   3.509   2.117  0.3434  1.1644  1.6511
  132OSM    H1T14144   6.789   3.458   2.096 -0.7527 -0.4118  0.9822
  132OSM     NF14145   6.846   3.504   2.348  0.3399 -0.6374  0.2991
  132OSM    HNF14146   6.771   3.439   2.355  0.2318 -0.6904 -1.1009
  132OSM    C2S14147   6.822   3.606   2.247  0.3121 -0.6220  0.5156
  132OSM    H2S14148   6.884   3.696   2.269  0.5386 -0.5573 -0.3512
  132OSM    C3S14149   6.671   3.657   2.232  0.2876 -0.4148 -0.0113
  132OSM    H3S14150   6.615   3.586   2.167 -1.9889 -1.1348  2.5337
  132OSM     O314151   6.657   3.781   2.154 -0.3198  0.5785 -0.4279
  132OSM    HO314152   6.737   3.773   2.102 -0.4129 -1.5620 -0.3078
  132OSM    C4S14153   6.619   3.658   2.381  0.4969  0.1182 -0.4998
  132OSM    H4S14154   6.574   3.559   2.399 -0.0065  0.4310 -0.0290
  132OSM    C5S14155   6.648   3.745   2.477 -0.3500  0.1252  0.1394
  132OSM    H5S14156   6.721   3.823   2.451  1.8701 -0.9901  2.5351
  132OSM    C6S14157   6.613   3.733   2.630 -0.4987 -0.1659 -0.0027
  132OSM    H6S14158   6.555   3.641   2.653  0.7854 -0.8498  0.6017
  132OSM    H6T14159   6.549   3.823   2.641  0.3785  0.3374  1.1265
  132OSM    C7S14160   6.726   3.750   2.725 -0.5650 -0.5389  0.3766
  132OSM    H7S14161   6.778   3.842   2.691 -0.2046 -1.7430 -2.6238
  132OSM    H7T14162   6.790   3.660   2.722  1.9243  1.1213  0.9157
  132OSM    C8S14163   6.687   3.755   2.873  0.4258 -0.3568  0.6578
  132OSM    H8S14164   6.633   3.660   2.889 -2.9626  0.6822 -3.0488
  132OSM    H8T14165   6.618   3.841   2.883  0.0855 -0.8435  2.9487
  132OSM    C9S14166   6.800   3.778   2.966  0.3428  0.0355  0.5956
  132OSM    H9S14167   6.845   3.876   2.941 -0.6002 -0.5248 -4.4281
  132OSM    H9T14168   6.869   3.693   2.947  0.1005 -0.2738  1.0822
  132OSM   C10S14169   6.757   3.769   3.108 -0.4198  0.0744 -0.7468
  132OSM   H10S14170   6.847   3.732   3.162  0.3036 -0.7383 -2.4556
  132OSM   H10T14171   6.681   3.688   3.110 -0.0327 -0.3174 -1.5394
  132OSM   C11S14172   6.700   3.896   3.170 -0.0421  0.6505  1.2742
  132OSM   H11S14173   6.616   3.937   3.111  2.4522  1.0691 -2.2767
  132OSM   H11T14174   6.772   3.979   3.183 -0.6130  1.2933  0.4012
  132OSM   C12S14175   6.646   3.865   3.309 -0.6362 -0.0475 -0.4027
  132OSM   H12S14176   6.582   3.775   3.308 -2.2302  1.0464 -0.1837
  132OSM   H12T14177   6.575   3.944   3.341  0.9362  1.3074 -0.1238
  132OSM   C13S14178   6.760   3.840   3.415  0.6773  0.4490  0.2769
  132OSM   H13S14179   6.842   3.910   3.389  0.9938  0.3627  1.0299
  132OSM   H13T14180   6.804   3.738   3.409  0.0603  0.2250 -0.6354
  132OSM   C14S14181   6.714   3.854   3.558 -0.8687 -0.5730  0.5371
  132OSM   H14S14182   6.664   3.949   3.585  0.3448 -0.1392  1.3157
  132OSM   H14T14183   6.804   3.852   3.622  0.1301 -1.4426 -0.8264
  132OSM   C15S14184   6.621   3.743   3.613  0.5017  0.2447 -0.1902
  132OSM   H15S14185   6.649   3.642   3.575  2.6336  0.1098  1.5330
  132OSM   H15T14186   6.517   3.764   3.580 -0.3914 -1.0209  1.6558
  132OSM   C16S14187   6.614   3.724   3.762 -0.4754 -0.0157 -0.0996
  132OSM   H16S14188   6.575   3.822   3.797  2.6514  1.7444 -1.1276
  132OSM   H16T14189   6.718   3.719   3.800 -0.4866  1.0735  0.1053
  132OSM   C17S14190   6.515   3.610   3.810 -0.4566  0.2073 -0.3354
  132OSM   H17S14191   6.545   3.515   3.761 -0.6101  0.8653 -1.7578
  132OSM   H17T14192   6.410   3.636   3.784 -1.0459 -3.0409 -1.6872
  132OSM   C18S14193   6.515   3.582   3.962  0.0422 -0.0856  0.0261
  132OSM   H18S14194   6.467   3.665   4.018  2.6906  2.8268 -1.7049
  132OSM   H18T14195   6.619   3.575   4.000 -0.1539 -0.6926  0.4622
  132OSM   H18U14196   6.464   3.484   3.971  1.0934 -0.7433 -0.9248
  132OSM    C1F14197   6.969   3.472   2.390 -0.3848  0.0588 -0.0911
  132OSM     OF14198   7.065   3.540   2.348  0.3998 -0.1927 -0.1126
  132OSM    C2F14199   6.980   3.356   2.488 -0.4056  0.2972 -0.2321
  132OSM    H2F14200   7.073   3.353   2.550 -2.1411  0.4644  2.5777
  132OSM    H2G14201   6.973   3.260   2.432  0.8328 -0.4349  0.7953
  132OSM    C3F14202   6.871   3.363   2.595  0.2715  0.2954  0.2028
  132OSM    H3F14203   6.771   3.368   2.549  0.9876 -1.1154 -1.6136
  132OSM    H3G14204   6.895   3.454   2.655 -1.1199  0.0155  1.2264
  132OSM    C4F14205   6.875   3.239   2.689 -0.1553  0.1463 -0.4353
  132OSM    H4F14206   6.973   3.238   2.741 -0.4102 -2.4917  0.0937
  132OSM    H4G14207   6.877   3.148   2.625  2.1911 -1.7217  2.0712
  132OSM    C5F14208   6.766   3.232   2.785  0.6154  0.4260 -0.2198
  132OSM    H5F14209   6.756   3.135   2.836 -0.5354  1.8707  2.4831
  132OSM    H5G14210   6.673   3.247   2.726  0.4942 -0.3237 -0.2211
  132OSM    C6F14211   6.767   3.331   2.893  0.3942 -0.4058  0.0889
  132OSM    H6F14212   6.668   3.339   2.942 -0.1131  0.8814 -1.0916
  132OSM    H6G14213   6.781   3.433   2.852 -0.1460  0.2956  1.5727
  132OSM    C7F14214   6.872   3.307   2.999 -0.2106  0.0698  0.4843
  132OSM    H7F14215   6.972   3.329   2.954 -0.7270  2.7635  0.4828
  132OSM    H7G14216   6.876   3.202   3.035  2.6775  0.1683  0.7052
  132OSM    C8F14217   6.864   3.400   3.115  0.8000 -0.0882 -0.0907
  132OSM    H8F14218   6.866   3.507   3.088  0.9159  0.2602  1.2201
  132OSM    H8G14219   6.962   3.381   3.164  0.6230 -0.0413  0.2883
  132OSM    C9F14220   6.746   3.387   3.205 -0.3723 -0.0982 -0.7631
  132OSM    H9F14221   6.652   3.429   3.167 -0.7332 -0.3562 -0.1764
  132OSM   C10F14222   6.748   3.338   3.335  0.1545 -0.9232  0.6424
  132OSM   H10F14223   6.655   3.353   3.392 -0.0139 -0.8629  0.3551
  132OSM   C11F14224   6.863   3.281   3.410 -0.0260  0.4941  0.0013
  132OSM   H11F14225   6.961   3.308   3.365  0.0291 -0.2203 -0.3194
  132OSM   H11G14226   6.858   3.171   3.396  0.1337  0.3750  0.8005
  132OSM   C12F14227   6.882   3.313   3.557 -0.4307  0.5602  0.8065
  132OSM   H12F14228   6.916   3.416   3.579  0.6740  0.0964  1.3523
  132OSM   H12G14229   6.969   3.254   3.593 -1.3152 -0.7357  0.8743
  132OSM   C13F14230   6.755   3.283   3.627  0.6622  0.0962 -0.3546
  132OSM   H13F14231   6.724   3.178   3.611 -1.8323  0.7211  0.0245
  132OSM   H13G14232   6.667   3.340   3.589  0.9773  1.2665  0.6162
  132OSM   C14F14233   6.759   3.308   3.776  0.6636  0.1907  0.1459
  132OSM   H14F14234   6.664   3.273   3.822  1.0318  0.7935  1.3887
  132OSM   H14G14235   6.769   3.417   3.796  2.8129 -0.1828  1.3061
  132OSM   C15F14236   6.867   3.221   3.847 -0.0761 -0.7896  0.3202
  132OSM   H15F14237   6.966   3.239   3.799 -1.7292  1.5392 -2.4990
  132OSM   H15G14238   6.848   3.113   3.829  1.0284 -0.6560 -1.9708
  132OSM   C16F14239   6.854   3.238   4.003 -0.0922 -0.1026 -0.0289
  132OSM   H16F14240   6.755   3.193   4.025 -0.4805  0.4178 -0.6538
  132OSM   H16G14241   6.845   3.343   4.039  0.1995 -1.4181  4.4195
  132OSM   C17F14242   6.965   3.146   4.066 -0.0673 -0.1779  0.1183
  132OSM   H17F14243   7.059   3.205   4.060 -1.3071  1.7594 -1.4989
  132OSM   H17G14244   6.975   3.052   4.006 -1.6598 -2.6975  3.4439
  132OSM   C18F14245   6.954   3.100   4.206  0.6465 -0.1370 -0.1248
  132OSM   H18F14246   7.056   3.093   4.250  0.7176 -0.6301 -0.3560
  132OSM   H18G14247   6.904   3.001   4.215  1.5068 -0.6951 -1.2519
  132OSM   H18H14248   6.892   3.177   4.256  1.2025  0.1818  0.0859
  133OSM      N14249   3.832   2.531   1.944 -0.0926  0.1512 -0.3356
  133OSM    C1514250   3.939   2.613   1.876  0.2056 -0.2279 -0.3649
  133OSM   H15A14251   4.035   2.602   1.926  0.6718  3.4044 -0.2040
  133OSM   H15B14252   3.916   2.717   1.861 -0.9523 -0.4335 -0.0663
  133OSM   H15C14253   3.947   2.577   1.774 -3.1463 -2.2778 -0.0347
  133OSM    C1414254   3.692   2.569   1.891 -0.1452  0.4682  0.6923
  133OSM   H14A14255   3.615   2.511   1.939 -1.3752  2.1102  0.7928
  133OSM   H14B14256   3.690   2.565   1.783  4.8228  0.9636  0.3298
  133OSM   H14C14257   3.658   2.669   1.914 -2.9141  0.2126 -1.7224
  133OSM    C1314258   3.852   2.389   1.918 -0.1152  0.4492  0.4205
  133OSM   H13A14259   3.856   2.364   1.813  0.2342 -1.0405  0.7653
  133OSM   H13B14260   3.776   2.322   1.958  0.4961 -2.0775 -2.3379
  133OSM   H13C14261   3.947   2.362   1.962  0.3247 -1.3884 -1.5312
  133OSM    C1214262   3.821   2.549   2.091 -0.1456  0.1296  0.1832
  133OSM   H12A14263   3.720   2.520   2.114 -0.5644  0.4912 -1.1326
  133OSM   H12B14264   3.823   2.656   2.111 -1.7552  0.2573 -0.2157
  133OSM    C1114265   3.926   2.471   2.179  0.0054 -0.6527  0.1891
  133OSM   H11A14266   3.897   2.364   2.179  0.4629 -0.7806  0.0896
  133OSM   H11B14267   3.909   2.512   2.280 -0.1985 -2.0319  0.7315
  133OSM      P14268   4.175   2.560   2.210 -0.0296  0.0486  0.1695
  133OSM    O1314269   4.307   2.529   2.143  0.1971  0.3860 -0.3920
  133OSM    O1414270   4.134   2.698   2.237 -0.1739  0.7137  0.4494
  133OSM    O1114271   4.180   2.484   2.358 -0.1768  0.3117  0.2457
  133OSM    O1214272   4.062   2.484   2.132 -0.2864 -0.2202  0.3562
  133OSM    C1S14273   4.244   2.548   2.471 -0.5986 -0.0904 -0.2882
  133OSM    H1S14274   4.321   2.617   2.431 -1.0406 -1.4273 -3.8212
  133OSM    H1T14275   4.296   2.460   2.515 -1.8177 -1.8786 -2.2363
  133OSM     NF14276   4.225   2.677   2.683  0.1982 -0.2090 -0.2147
  133OSM    HNF14277   4.227   2.632   2.772  0.6982  1.2518  0.5600
  133OSM    C2S14278   4.148   2.606   2.581 -0.0305 -0.1401 -0.2232
  133OSM    H2S14279   4.088   2.677   2.521  0.5724  1.6255  1.1402
  133OSM    C3S14280   4.050   2.501   2.639  0.3942 -0.2059 -0.5977
  133OSM    H3S14281   4.111   2.418   2.682  1.2967  0.5889 -0.3143
  133OSM     O314282   3.973   2.435   2.539  0.2717 -0.4253 -0.1494
  133OSM    HO314283   4.018   2.458   2.458 -1.7723  0.2456 -1.1652
  133OSM    C4S14284   3.965   2.551   2.751 -0.7362  0.1949  0.3579
  133OSM    H4S14285   4.016   2.540   2.848 -1.1483  0.6139  0.6247
  133OSM    C5S14286   3.847   2.611   2.730 -0.0364  0.1732 -0.7347
  133OSM    H5S14287   3.817   2.616   2.624 -0.4407 -0.3897 -0.6534
  133OSM    C6S14288   3.766   2.688   2.833 -0.2995  0.1706 -0.7612
  133OSM    H6S14289   3.681   2.620   2.855  1.9874 -2.4324  0.8953
  133OSM    H6T14290   3.717   2.780   2.796  1.0802  2.0314  1.7219
  133OSM    C7S14291   3.842   2.722   2.958  0.3511  1.4408  0.0342
  133OSM    H7S14292   3.934   2.783   2.950  0.5109  1.4454  1.6422
  133OSM    H7T14293   3.863   2.624   3.007  0.2509  0.6146 -1.4969
  133OSM    C8S14294   3.757   2.809   3.055 -0.1877  0.2643  1.0435
  133OSM    H8S14295   3.681   2.736   3.092  0.6703 -2.2618 -1.7875
  133OSM    H8T14296   3.722   2.891   2.989  0.0881  1.1898  2.0216
  133OSM    C9S14297   3.840   2.868   3.170  0.9121  0.3682  0.1700
  133OSM    H9S14298   3.905   2.948   3.130 -0.1198  1.5646  0.7927
  133OSM    H9T14299   3.906   2.786   3.204 -0.4773 -0.5814  0.6621
  133OSM   C10S14300   3.768   2.941   3.287  0.7615 -0.1814 -0.3709
  133OSM   H10S14301   3.676   2.884   3.312  0.6248  0.7304  1.4266
  133OSM   H10T14302   3.734   3.040   3.249  0.7138 -0.2105 -0.4043
  133OSM   C11S14303   3.858   2.956   3.418  0.3285  0.0334 -0.3952
  133OSM   H11S14304   3.938   3.033   3.411 -1.2762  1.9374  0.9437
  133OSM   H11T14305   3.887   2.852   3.442 -0.9385  0.0761  1.5314
  133OSM   C12S14306   3.781   3.013   3.542 -0.3629 -0.5652  0.0985
  133OSM   H12S14307   3.693   2.949   3.566 -1.8829  0.7805 -1.6597
  133OSM   H12T14308   3.750   3.117   3.519 -0.4028 -0.2662  1.4035
  133OSM   C13S14309   3.865   3.023   3.671  0.2429 -0.3079 -0.5804
  133OSM   H13S14310   3.951   3.092   3.666  0.2249  0.0408  2.0927
  133OSM   H13T14311   3.905   2.921   3.691 -0.6866 -1.5527 -4.3089
  133OSM   C14S14312   3.769   3.072   3.784 -1.0012  0.4582  0.2686
  133OSM   H14S14313   3.667   3.028   3.787 -0.5826 -0.5408  0.4372
  133OSM   H14T14314   3.748   3.181   3.779  1.7720  1.1353  1.4077
  133OSM   C15S14315   3.821   3.050   3.929 -0.1832 -0.1062  0.0842
  133OSM   H15S14316   3.828   2.941   3.948  1.6712 -0.1958 -0.8998
  133OSM   H15T14317   3.751   3.098   4.001 -1.8915 -0.1854 -1.4209
  133OSM   C16S14318   3.960   3.125   3.950  0.0321 -0.3056 -0.9987
  133OSM   H16S14319   3.955   3.230   3.914 -0.5878  0.6130  1.5830
  133OSM   H16T14320   4.037   3.065   3.897  1.2492  0.3396  0.0081
  133OSM   C17S14321   3.997   3.141   4.096  0.2767 -0.4528 -0.3706
  133OSM   H17S14322   4.009   3.043   4.147  0.9606 -0.1623  0.0357
  133OSM   H17T14323   3.913   3.184   4.155  0.7014 -0.9620  0.6333
  133OSM   C18S14324   4.108   3.241   4.136  0.3930  0.0868  0.4454
  133OSM   H18S14325   4.208   3.205   4.104  0.8645  0.9240  0.9350
  133OSM   H18T14326   4.122   3.273   4.242  0.7757 -1.0378  0.7482
  133OSM   H18U14327   4.082   3.333   4.080 -1.0143 -0.3985  0.2690
  133OSM    C1F14328   4.289   2.789   2.665  0.2305  0.9368 -0.6093
  133OSM     OF14329   4.276   2.852   2.562  0.4156 -0.1198 -0.5588
  133OSM    C2F14330   4.376   2.826   2.782 -0.2429 -0.3846  0.0550
  133OSM    H2F14331   4.370   2.760   2.871  0.6396 -0.8184 -0.2038
  133OSM    H2G14332   4.345   2.925   2.823  0.7580 -0.3271  0.7019
  133OSM    C3F14333   4.527   2.842   2.742  0.9560  0.5363  0.1192
  133OSM    H3F14334   4.533   2.935   2.682  1.8979 -1.2195 -2.7001
  133OSM    H3G14335   4.541   2.756   2.672 -1.3340  0.7108 -0.6394
  133OSM    C4F14336   4.638   2.837   2.851 -0.1927  0.5175  0.5125
  133OSM    H4F14337   4.732   2.852   2.794  0.1023  2.0524  1.3666
  133OSM    H4G14338   4.637   2.733   2.892  2.6536 -0.0501 -0.6119
  133OSM    C5F14339   4.603   2.931   2.957 -0.5247 -0.4939  0.4668
  133OSM    H5F14340   4.507   2.902   3.004 -1.9094  1.2800 -1.0934
  133OSM    H5G14341   4.587   3.036   2.924 -0.5490 -1.4012 -2.7753
  133OSM    C6F14342   4.711   2.942   3.072 -0.1625 -0.1121  0.2940
  133OSM    H6F14343   4.703   2.861   3.148 -0.2129  1.8633  2.5073
  133OSM    H6G14344   4.680   3.032   3.130 -2.3477 -0.5442 -0.1134
  133OSM    C7F14345   4.857   2.979   3.042  0.2198  0.2964 -0.3101
  133OSM    H7F14346   4.862   3.070   2.978  1.3456  0.1175 -0.5077
  133OSM    H7G14347   4.893   2.900   2.973 -1.4362  0.4445 -1.4008
  133OSM    C8F14348   4.943   2.984   3.169 -1.0939  0.5127 -0.0718
  133OSM    H8F14349   4.947   2.879   3.205 -0.6335  0.4889 -0.1930
  133OSM    H8G14350   4.891   3.044   3.247  0.8799 -0.1398  1.8214
  133OSM    C9F14351   5.086   3.033   3.134 -0.4039  0.6967  0.4402
  133OSM    H9F14352   5.140   2.978   3.055 -1.3570 -0.1340  0.3518
  133OSM   C10F14353   5.167   3.125   3.188  0.1265  0.4136  0.1016
  133OSM   H10F14354   5.266   3.132   3.140 -1.0646 -0.0446 -2.6013
  133OSM   C11F14355   5.148   3.218   3.303  0.1612 -0.4036 -0.3948
  133OSM   H11F14356   5.049   3.203   3.353 -0.7528  1.3012 -1.5890
  133OSM   H11G14357   5.154   3.327   3.281  0.2245  0.1352  1.9699
  133OSM   C12F14358   5.259   3.185   3.405 -0.6239 -0.0414 -0.0663
  133OSM   H12F14359   5.359   3.217   3.370 -0.0639  1.2765  2.4878
  133OSM   H12G14360   5.268   3.075   3.419 -2.1757 -0.3714 -1.3207
  133OSM   C13F14361   5.247   3.252   3.544 -0.4970 -0.7201 -0.0698
  133OSM   H13F14362   5.151   3.225   3.593 -1.2425  2.2825  0.3111
  133OSM   H13G14363   5.235   3.361   3.525 -1.0628 -0.9502 -1.1379
  133OSM   C14F14364   5.357   3.212   3.643 -0.3038 -0.1758  0.9779
  133OSM   H14F14365   5.449   3.256   3.600 -0.8661  1.6518  1.5712
  133OSM   H14G14366   5.359   3.101   3.631 -0.0103 -0.0021 -1.0593
  133OSM   C15F14367   5.336   3.256   3.789 -0.5423  0.1545  0.0608
  133OSM   H15F14368   5.431   3.242   3.845 -2.0772 -3.0523  2.1634
  133OSM   H15G14369   5.257   3.194   3.836  1.7033 -3.1195 -0.1257
  133OSM   C16F14370   5.305   3.403   3.801  0.3025  0.2426  1.2553
  133OSM   H16F14371   5.340   3.459   3.711  0.4155 -0.8935  0.5766
  133OSM   H16G14372   5.364   3.452   3.882 -0.6438  1.8956  0.9872
  133OSM   C17F14373   5.155   3.443   3.801  0.3911 -0.2439 -0.0144
  133OSM   H17F14374   5.120   3.395   3.895  0.3899 -0.3099 -0.0488
  133OSM   H17G14375   5.096   3.402   3.717 -2.0776  2.7461  0.0678
  133OSM   C18F14376   5.107   3.589   3.817 -0.8410  0.1749  0.2034
  133OSM   H18F14377   5.166   3.662   3.756  0.9756 -1.1344  0.3077
  133OSM   H18G14378   5.117   3.606   3.926  0.1245 -0.1807  0.1840
  133OSM   H18H14379   4.997   3.591   3.799 -1.4404  0.9831  3.3663
  134OSM      N14380   2.175   6.723   2.071 -0.7508  0.2737 -0.9239
  134OSM    C1514381   2.028   6.700   2.074 -0.0266  0.1842  0.0038
  134OSM   H15A14382   2.017   6.599   2.111 -0.7388  1.2621  2.9979
  134OSM   H15B14383   1.978   6.699   1.978 -1.5994 -1.7043  0.7640
  134OSM   H15C14384   1.974   6.774   2.130  0.0314 -0.6963  1.2686
  134OSM    C1414385   2.219   6.656   1.951 -0.4549 -0.0539 -0.1480
  134OSM   H14A14386   2.198   6.550   1.956 -0.2707 -0.0525  1.2027
  134OSM   H14B14387   2.324   6.678   1.940 -0.5472  0.5380  0.1065
  134OSM   H14C14388   2.164   6.692   1.865  0.9549 -1.0764 -1.5308
  134OSM    C1314389   2.200   6.873   2.046  0.0296 -0.1064  0.5673
  134OSM   H13A14390   2.308   6.879   2.040 -0.0438  0.0838 -1.7571
  134OSM   H13B14391   2.157   6.920   2.132 -1.9917 -2.9675  1.2705
  134OSM   H13C14392   2.153   6.886   1.949  0.8643 -0.6050  0.0810
  134OSM    C1214393   2.240   6.667   2.197  0.4401  0.2080 -0.1764
  134OSM   H12A14394   2.346   6.689   2.198  0.7422 -0.7605  3.4175
  134OSM   H12B14395   2.222   6.561   2.213 -0.7140  0.8069  3.4093
  134OSM    C1114396   2.194   6.731   2.330 -1.1092  0.5954 -0.0175
  134OSM   H11A14397   2.246   6.674   2.411  2.1517 -0.2151 -2.4663
  134OSM   H11B14398   2.089   6.704   2.351 -1.6223  0.8717 -2.0880
  134OSM      P14399   2.370   6.933   2.367 -0.0670  0.6856 -0.1381
  134OSM    O1314400   2.461   6.855   2.285 -0.1074  0.7428 -0.0816
  134OSM    O1414401   2.369   7.082   2.352 -0.2681  0.0380  0.1894
  134OSM    O1114402   2.387   6.906   2.529  0.4944  0.3085 -0.1704
  134OSM    O1214403   2.218   6.875   2.341 -0.0862 -0.1607 -0.1023
  134OSM    C1S14404   2.270   6.908   2.616  0.2577 -0.0296 -0.1498
  134OSM    H1S14405   2.218   6.810   2.604 -0.0496 -0.0460  1.1517
  134OSM    H1T14406   2.201   6.993   2.598  1.2231  0.6371 -0.7992
  134OSM     NF14407   2.183   6.905   2.849  0.0552  0.2294  0.3070
  134OSM    HNF14408   2.139   6.993   2.868  0.5237  0.7357 -0.8531
  134OSM    C2S14409   2.308   6.917   2.773  0.0872  0.1984  0.6042
  134OSM    H2S14410   2.361   6.822   2.795 -0.9129 -0.3350  0.7615
  134OSM    C3S14411   2.401   7.033   2.802 -0.3895  0.6314 -0.1376
  134OSM    H3S14412   2.356   7.132   2.781  3.1705  3.1663  2.9540
  134OSM     O314413   2.518   7.030   2.722 -0.0235 -0.3485 -0.0484
  134OSM    HO314414   2.499   6.958   2.662 -2.7584 -0.5265  0.9025
  134OSM    C4S14415   2.430   7.028   2.949  0.0288  0.4415 -0.4668
  134OSM    H4S14416   2.461   6.926   2.976 -0.3849  0.4484  0.0560
  134OSM    C5S14417   2.419   7.120   3.042  0.1095 -0.5393 -0.2235
  134OSM    H5S14418   2.382   7.220   3.014 -2.0116 -0.4117  2.5480
  134OSM    C6S14419   2.453   7.086   3.189  0.0443  0.3902  0.6803
  134OSM    H6S14420   2.528   7.160   3.224  2.7731 -2.5201  1.5566
  134OSM    H6T14421   2.507   6.989   3.197 -0.4404  0.2126  1.9368
  134OSM    C7S14422   2.327   7.082   3.279 -0.2997 -0.2909 -0.0573
  134OSM    H7S14423   2.245   7.024   3.232 -1.2795 -0.9028  2.2554
  134OSM    H7T14424   2.286   7.185   3.284  0.8560  0.2490 -1.3058
  134OSM    C8S14425   2.348   7.037   3.424  0.0336  1.3101 -0.6592
  134OSM    H8S14426   2.439   7.085   3.467  0.9681 -0.4771 -0.5274
  134OSM    H8T14427   2.368   6.929   3.406 -0.7254  0.2962  3.3937
  134OSM    C9S14428   2.236   7.055   3.525 -0.1212 -0.6590 -0.0065
  134OSM    H9S14429   2.153   6.982   3.516  0.2218 -1.1209  0.5001
  134OSM    H9T14430   2.183   7.151   3.512 -0.2236 -0.7647 -0.3702
  134OSM   C10S14431   2.278   7.062   3.671 -0.3019 -0.1280 -0.0989
  134OSM   H10S14432   2.363   7.132   3.684 -1.2775  0.9417  0.8117
  134OSM   H10T14433   2.311   6.962   3.704  0.6100 -0.5530 -2.1630
  134OSM   C11S14434   2.162   7.118   3.751  0.6729 -0.2858 -0.3834
  134OSM   H11S14435   2.072   7.059   3.727  1.0364 -1.8087  1.7458
  134OSM   H11T14436   2.135   7.220   3.714 -2.2344 -1.0566 -0.5841
  134OSM   C12S14437   2.187   7.119   3.904  0.1294  0.3775  0.0556
  134OSM   H12S14438   2.089   7.130   3.954  0.4533  1.7150  0.4469
  134OSM   H12T14439   2.246   7.205   3.942  3.7917 -2.3839  1.2870
  134OSM   C13S14440   2.255   6.989   3.969  0.7484 -0.2054 -0.1307
  134OSM   H13S14441   2.354   6.985   3.919  0.9263  0.7875  0.1129
  134OSM   H13T14442   2.195   6.900   3.941  3.2030 -1.9499 -0.1489
  134OSM   C14S14443   2.265   7.009   4.131  0.6245 -1.0757 -0.2494
  134OSM   H14S14444   2.165   7.038   4.170 -0.2447 -1.3907 -2.1339
  134OSM   H14T14445   2.329   7.088   4.175 -1.9706  0.5139  0.9013
  134OSM   C15S14446   2.289   6.883   4.217 -0.2042  0.1339  0.1415
  134OSM   H15S14447   2.383   6.841   4.173 -0.1163 -0.4870  0.9165
  134OSM   H15T14448   2.210   6.808   4.197 -0.6398  0.7471 -0.4683
  134OSM   C16S14449   2.314   6.912   4.364  0.3807 -0.3673  0.6748
  134OSM   H16S14450   2.228   6.968   4.406 -0.0407 -1.2704  1.0398
  134OSM   H16T14451   2.402   6.980   4.367 -1.1499  1.7425 -0.1321
  134OSM   C17S14452   2.356   6.798   4.452 -0.4394  0.3543 -0.2925
  134OSM   H17S14453   2.283   6.715   4.457  1.2592 -1.2320 -0.5319
  134OSM   H17T14454   2.368   6.848   4.550  1.6162 -3.0654  1.3653
  134OSM   C18S14455   2.490   6.742   4.411 -0.3493 -0.5425  0.2792
  134OSM   H18S14456   2.484   6.688   4.314 -1.6208 -1.2729  0.7351
  134OSM   H18T14457   2.534   6.687   4.497 -2.0256  0.2536  1.7139
  134OSM   H18U14458   2.566   6.818   4.384  1.6683 -3.0377 -1.5995
  134OSM    C1F14459   2.109   6.796   2.849 -0.1002  2.0428  0.1469
  134OSM     OF14460   2.170   6.685   2.847 -0.6454  0.1801  0.3003
  134OSM    C2F14461   1.963   6.801   2.878  0.7662  0.8813 -0.2902
  134OSM    H2F14462   1.905   6.765   2.790 -1.4210  0.0139  1.4035
  134OSM    H2G14463   1.928   6.905   2.894 -1.4538  0.1831 -0.3326
  134OSM    C3F14464   1.907   6.721   2.998  0.2839  0.3310  0.0137
  134OSM    H3F14465   1.940   6.615   2.990 -3.2658 -0.9283  0.0317
  134OSM    H3G14466   1.796   6.713   3.003  0.3065 -1.6115 -1.3242
  134OSM    C4F14467   1.959   6.779   3.127  0.3415  0.1554 -0.3725
  134OSM    H4F14468   1.934   6.887   3.131 -2.2355 -0.2911 -1.8138
  134OSM    H4G14469   2.066   6.768   3.155 -0.2561  1.7140  3.0299
  134OSM    C5F14470   1.895   6.709   3.251 -0.3522  0.3613  0.6359
  134OSM    H5F14471   1.929   6.604   3.241  0.0845  0.6728 -2.2387
  134OSM    H5G14472   1.785   6.708   3.235 -0.2911 -2.7616 -0.4231
  134OSM    C6F14473   1.949   6.764   3.386  0.1971 -0.7208  0.0374
  134OSM    H6F14474   1.899   6.863   3.385  1.7712  0.1197  0.3893
  134OSM    H6G14475   2.056   6.795   3.388  0.1178 -0.4533  2.1918
  134OSM    C7F14476   1.888   6.696   3.509  0.4770 -0.1452  0.2121
  134OSM    H7F14477   1.935   6.598   3.531  0.3692 -0.2765 -0.1492
  134OSM    H7G14478   1.779   6.675   3.498  1.0159 -2.1555 -2.0859
  134OSM    C8F14479   1.893   6.772   3.649 -0.0709 -0.4907 -0.0270
  134OSM    H8F14480   1.842   6.870   3.635  0.0600 -0.5554 -1.0412
  134OSM    H8G14481   1.997   6.791   3.683 -0.6838  0.5405  1.3443
  134OSM    C9F14482   1.821   6.702   3.761  0.1398 -0.5737  0.8387
  134OSM    H9F14483   1.759   6.621   3.718  1.3019 -0.1002 -1.9016
  134OSM   C10F14484   1.844   6.725   3.895  0.8189  0.9789 -0.4690
  134OSM   H10F14485   1.792   6.665   3.971  1.7837  2.7600  1.6984
  134OSM   C11F14486   1.930   6.825   3.959  0.0484  0.1829  0.0098
  134OSM   H11F14487   1.992   6.877   3.883 -1.4449  1.6019 -0.2762
  134OSM   H11G14488   2.001   6.778   4.031  0.4641 -2.9368 -2.2245
  134OSM   C12F14489   1.843   6.919   4.040  0.2307  0.1502  0.0042
  134OSM   H12F14490   1.911   6.981   4.102  0.0077  1.0702 -0.6550
  134OSM   H12G14491   1.778   6.857   4.106  1.0417 -1.4028 -0.6221
  134OSM   C13F14492   1.755   7.014   3.965 -0.5417  0.3801  0.1821
  134OSM   H13F14493   1.700   6.957   3.888 -1.9486  1.7017  0.1778
  134OSM   H13G14494   1.822   7.079   3.905 -1.6059  0.3581 -1.0606
  134OSM   C14F14495   1.666   7.113   4.040 -0.3975  0.2182  0.0455
  134OSM   H14F14496   1.608   7.048   4.110  1.2700 -0.2504  1.0686
  134OSM   H14G14497   1.587   7.148   3.971  0.5607  2.9234  0.1851
  134OSM   C15F14498   1.743   7.224   4.100  0.6573  0.7129  0.4020
  134OSM   H15F14499   1.748   7.297   4.017 -0.3372 -1.2614 -1.4969
  134OSM   H15G14500   1.844   7.204   4.143  0.4677 -2.9246 -0.4905
  134OSM   C16F14501   1.661   7.286   4.212 -0.0269  0.3249 -0.3091
  134OSM   H16F14502   1.662   7.229   4.308 -0.0774 -1.8365 -1.5373
  134OSM   H16G14503   1.557   7.295   4.175 -0.4676  0.5980  0.9548
  134OSM   C17F14504   1.696   7.431   4.242 -0.1280 -0.4289  0.2061
  134OSM   H17F14505   1.680   7.496   4.154 -0.1208 -0.9015 -0.1464
  134OSM   H17G14506   1.803   7.437   4.273 -0.1603 -0.1012  0.2547
  134OSM   C18F14507   1.621   7.502   4.354 -0.0017 -0.2492 -0.4464
  134OSM   H18F14508   1.514   7.510   4.324  0.1939  2.4658 -0.6254
  134OSM   H18G14509   1.665   7.602   4.374 -0.3618 -0.1595 -0.0720
  134OSM   H18H14510   1.626   7.441   4.447  0.6541  0.0241 -0.2974
  135OSM      N14511   5.725   3.597   1.911 -0.1185  0.4989  0.1002
  135OSM    C1514512   5.651   3.474   1.870  0.6200  0.5128  0.0333
  135OSM   H15A14513   5.713   3.397   1.825 -1.6891 -1.4762  0.0444
  135OSM   H15B14514   5.575   3.491   1.795  0.2158 -0.6102  0.1722
  135OSM   H15C14515   5.618   3.430   1.963  2.2497 -1.3467 -0.1828
  135OSM    C1414516   5.815   3.559   2.020  0.3571 -0.1856 -0.4989
  135OSM   H14A14517   5.770   3.493   2.093  2.0421 -2.0522 -1.0528
  135OSM   H14B14518   5.852   3.654   2.055  1.3114 -0.5774 -0.4073
  135OSM   H14C14519   5.906   3.514   1.982  1.5600 -0.8192  2.7714
  135OSM    C1314520   5.792   3.642   1.784  0.1139 -0.0413 -0.7905
  135OSM   H13A14521   5.837   3.558   1.733 -0.8143 -0.9111 -0.2101
  135OSM   H13B14522   5.870   3.712   1.809 -0.2956 -0.1386  0.8489
  135OSM   H13C14523   5.725   3.686   1.711  1.0240  1.4481 -0.7647
  135OSM    C1214524   5.623   3.707   1.954  0.4284  0.6848 -0.1462
  135OSM   H12A14525   5.527   3.689   1.909 -0.0445  1.3923  0.5664
  135OSM   H12B14526   5.660   3.801   1.916 -1.9923  1.3892 -0.9025
  135OSM    C1114527   5.600   3.725   2.107  0.3007  0.2538 -0.1294
  135OSM   H11A14528   5.531   3.808   2.132 -2.0041 -1.6882  0.3855
  135OSM   H11B14529   5.697   3.741   2.160 -0.3054 -2.3571  2.0427
  135OSM      P14530   5.384   3.583   2.157 -0.2242 -0.0820 -0.2850
  135OSM    O1314531   5.336   3.581   2.017  0.3631  0.0727  0.1021
  135OSM    O1414532   5.351   3.460   2.232  0.0370 -0.4064 -0.0153
  135OSM    O1114533   5.339   3.711   2.234  0.6710  0.0915 -0.4416
  135OSM    O1214534   5.543   3.604   2.158  0.4467 -0.1181 -0.5206
  135OSM    C1S14535   5.218   3.707   2.309  0.6114  0.5572  0.8258
  135OSM    H1S14536   5.204   3.606   2.355 -0.9363  0.4134  0.0768
  135OSM    H1T14537   5.135   3.723   2.238  1.5503 -0.8185 -0.6781
  135OSM     NF14538   5.083   3.806   2.495 -0.3468 -0.1637  1.3167
  135OSM    HNF14539   5.017   3.880   2.486 -0.4652  0.0111  3.3092
  135OSM    C2S14540   5.209   3.816   2.417  0.0471 -0.4082 -0.3668
  135OSM    H2S14541   5.289   3.811   2.495  0.3355  1.3713 -0.4896
  135OSM    C3S14542   5.235   3.953   2.343  0.2710 -0.3726 -0.0767
  135OSM    H3S14543   5.178   3.975   2.250 -0.0202 -0.3127  0.1163
  135OSM     O314544   5.366   3.957   2.285 -0.6156  0.9299  0.2181
  135OSM    HO314545   5.385   3.864   2.301 -0.4724  0.8203 -0.5775
  135OSM    C4S14546   5.201   4.070   2.434 -0.3435 -0.2419  0.1481
  135OSM    H4S14547   5.096   4.097   2.455  0.3313  0.9006  2.2911
  135OSM    C5S14548   5.287   4.128   2.517 -0.0810  0.6294  0.1722
  135OSM    H5S14549   5.393   4.099   2.524 -0.0871  0.1178 -1.3837
  135OSM    C6S14550   5.241   4.208   2.634  0.3854  0.1497  0.2939
  135OSM    H6S14551   5.229   4.157   2.732 -1.2613  0.2170  0.1509
  135OSM    H6T14552   5.139   4.248   2.619  0.5014  0.7231  0.9428
  135OSM    C7S14553   5.333   4.326   2.651 -0.2069  0.6547  0.3496
  135OSM    H7S14554   5.325   4.383   2.557 -2.6019 -0.1297  0.0084
  135OSM    H7T14555   5.437   4.288   2.664 -0.3391  0.1131 -0.1520
  135OSM    C8S14556   5.290   4.419   2.765 -0.0379 -0.0062 -0.1405
  135OSM    H8S14557   5.179   4.424   2.763 -0.2037 -2.4130 -1.1299
  135OSM    H8T14558   5.339   4.517   2.750 -2.4178  1.2900  0.1156
  135OSM    C9S14559   5.346   4.367   2.898 -0.2409  0.4854  0.6632
  135OSM    H9S14560   5.457   4.366   2.893 -0.2547 -0.8595 -0.0139
  135OSM    H9T14561   5.323   4.258   2.905  0.3103  0.3970  1.1285
  135OSM   C10S14562   5.295   4.463   3.013  0.1788  0.0468  0.1371
  135OSM   H10S14563   5.193   4.435   3.049  0.2418  0.8096  0.9380
  135OSM   H10T14564   5.309   4.567   2.978  1.5652 -0.3797 -0.6610
  135OSM   C11S14565   5.391   4.465   3.128  0.0912  0.5828  0.0618
  135OSM   H11S14566   5.487   4.509   3.095  0.6763 -1.8067 -1.7036
  135OSM   H11T14567   5.410   4.359   3.157 -0.0934  0.1910 -1.1582
  135OSM   C12S14568   5.331   4.541   3.239 -0.3191  0.3760 -0.0989
  135OSM   H12S14569   5.391   4.519   3.330  1.3473  0.9151 -1.0260
  135OSM   H12T14570   5.228   4.513   3.267  0.7580 -1.1913  2.7151
  135OSM   C13S14571   5.338   4.685   3.211 -0.1854 -0.0203 -0.2288
  135OSM   H13S14572   5.273   4.692   3.121 -0.4236 -2.6710 -0.3260
  135OSM   H13T14573   5.441   4.719   3.187 -0.1646 -0.1645 -0.3375
  135OSM   C14S14574   5.276   4.780   3.312  0.5018  1.0168  0.3202
  135OSM   H14S14575   5.171   4.747   3.326  0.8913 -0.2810  0.3063
  135OSM   H14T14576   5.276   4.884   3.271 -0.4743  1.3011  1.0168
  135OSM   C15S14577   5.350   4.781   3.451 -0.3038  0.2521  0.9206
  135OSM   H15S14578   5.446   4.835   3.433 -1.7388  1.8540 -2.7182
  135OSM   H15T14579   5.381   4.678   3.482  1.2985  0.4795  0.2160
  135OSM   C16S14580   5.267   4.841   3.564  0.1322 -0.8036 -0.3454
  135OSM   H16S14581   5.191   4.761   3.579  0.2583 -0.9118 -0.2755
  135OSM   H16T14582   5.230   4.943   3.542 -0.7189 -1.5508 -2.6882
  135OSM   C17S14583   5.348   4.862   3.690 -0.4917 -0.1745 -0.5428
  135OSM   H17S14584   5.337   4.971   3.709 -1.1716 -0.3406  0.0140
  135OSM   H17T14585   5.458   4.847   3.677 -0.2558 -0.3168  1.3270
  135OSM   C18S14586   5.302   4.799   3.822 -0.0290  1.0049  0.0906
  135OSM   H18S14587   5.320   4.689   3.814  0.3468  0.9396  1.4953
  135OSM   H18T14588   5.196   4.820   3.844 -0.2932 -1.1485  1.2100
  135OSM   H18U14589   5.370   4.843   3.898 -0.0931 -0.0160  0.7696
  135OSM    C1F14590   5.045   3.709   2.577 -0.1758  0.5225  0.2908
  135OSM     OF14591   5.100   3.601   2.586 -0.0790  0.5069  0.1857
  135OSM    C2F14592   4.922   3.740   2.650  0.2515 -0.1320 -0.5183
  135OSM    H2F14593   4.901   3.673   2.736  0.9836  0.4248  0.1033
  135OSM    H2G14594   4.839   3.726   2.577 -0.5293  0.7949  0.1677
  135OSM    C3F14595   4.905   3.886   2.691 -0.6876 -0.5153  0.7832
  135OSM    H3F14596   4.803   3.895   2.736 -0.6632  0.1325  0.7187
  135OSM    H3G14597   4.910   3.959   2.608 -0.7238 -1.6366 -0.2176
  135OSM    C4F14598   5.005   3.929   2.799  0.1716 -0.0262 -0.2794
  135OSM    H4F14599   5.104   3.952   2.753 -0.9944  2.9958 -1.5876
  135OSM    H4G14600   5.013   3.852   2.879 -2.7560  1.4038  1.5664
  135OSM    C5F14601   4.955   4.061   2.867  0.5543 -0.3745 -0.0613
  135OSM    H5F14602   4.851   4.065   2.905  0.5608 -0.1731 -0.0632
  135OSM    H5G14603   4.942   4.130   2.780  1.0225 -2.1859 -1.6503
  135OSM    C6F14604   5.057   4.119   2.966 -0.1301  0.1544  0.1163
  135OSM    H6F14605   5.050   4.230   2.959  0.1001  0.2081  0.7324
  135OSM    H6G14606   5.162   4.097   2.939  0.5835  1.3532  1.7688
  135OSM    C7F14607   5.036   4.076   3.107  0.0815  0.2729 -0.2858
  135OSM    H7F14608   5.036   3.965   3.115 -2.3182  0.2294 -0.1756
  135OSM    H7G14609   4.935   4.108   3.140  1.0697 -0.1327  3.6920
  135OSM    C8F14610   5.138   4.129   3.215 -0.2023 -0.7657 -0.3499
  135OSM    H8F14611   5.167   4.232   3.184 -1.3174 -0.6392 -1.0258
  135OSM    H8G14612   5.229   4.065   3.215  0.4012  0.0769 -0.2066
  135OSM    C9F14613   5.071   4.140   3.355 -0.3185  0.1235  0.2644
  135OSM    H9F14614   4.963   4.119   3.355 -1.2392  3.4980  4.2206
  135OSM   C10F14615   5.120   4.201   3.462 -0.0039  0.4620 -1.0886
  135OSM   H10F14616   5.048   4.203   3.545  1.5633 -3.9558  0.6647
  135OSM   C11F14617   5.262   4.259   3.459  0.0947 -0.0366  0.1895
  135OSM   H11F14618   5.264   4.345   3.390  2.5320  0.4423  0.7557
  135OSM   H11G14619   5.334   4.179   3.431  2.0381  1.4930  0.5950
  135OSM   C12F14620   5.307   4.312   3.599  0.5726  0.2192  0.4891
  135OSM   H12F14621   5.255   4.398   3.647  2.8351  0.7455  2.1900
  135OSM   H12G14622   5.408   4.353   3.581  0.4905  0.9513  1.5847
  135OSM   C13F14623   5.307   4.198   3.709  0.0121 -0.6290  0.4816
  135OSM   H13F14624   5.398   4.134   3.709 -0.8672 -1.9586 -1.4374
  135OSM   H13G14625   5.232   4.118   3.693  0.5952 -1.0863 -0.0408
  135OSM   C14F14626   5.302   4.264   3.854 -0.4773  0.2105 -0.2245
  135OSM   H14F14627   5.208   4.321   3.869 -0.8445  0.1844 -2.1988
  135OSM   H14G14628   5.388   4.333   3.871 -1.1612  0.9351  0.3201
  135OSM   C15F14629   5.280   4.160   3.971  1.1203  0.0575  0.2080
  135OSM   H15F14630   5.181   4.111   3.969  0.2035  1.2498  4.6159
  135OSM   H15G14631   5.266   4.221   4.063 -1.1530  0.2550 -0.2217
  135OSM   C16F14632   5.397   4.069   4.002  0.3113  0.3435 -0.5122
  135OSM   H16F14633   5.484   4.138   4.010  0.6089  0.0558 -1.2273
  135OSM   H16G14634   5.419   3.999   3.919 -0.6695  1.3046 -1.6170
  135OSM   C17F14635   5.367   3.986   4.135 -0.4268 -0.7072 -0.3575
  135OSM   H17F14636   5.331   4.063   4.206  1.1236 -0.7622  0.5309
  135OSM   H17G14637   5.461   3.946   4.179 -0.4572 -1.1158 -0.6595
  135OSM   C18F14638   5.265   3.875   4.123 -0.2633  0.1710  0.1689
  135OSM   H18F14639   5.251   3.817   4.217  1.3612  0.1994  0.4637
  135OSM   H18G14640   5.282   3.809   4.035  0.6123 -1.2817  1.3753
  135OSM   H18H14641   5.160   3.908   4.114 -1.3388 -2.6128  1.2084
  136OSM      N14642   6.254   6.573   1.678  0.0707 -0.8617  1.0855
  136OSM    C1514643   6.180   6.548   1.809  0.5140 -0.2031  0.2175
  136OSM   H15A14644   6.118   6.460   1.802 -0.6150  0.6642 -1.4218
  136OSM   H15B14645   6.128   6.639   1.832 -0.2295 -0.3740 -0.7331
  136OSM   H15C14646   6.252   6.534   1.888  2.2503  0.1403 -1.2130
  136OSM    C1414647   6.351   6.463   1.651  0.2302  0.2633 -0.1951
  136OSM   H14A14648   6.304   6.366   1.650  0.5418  0.1119 -0.1869
  136OSM   H14B14649   6.423   6.451   1.730  0.4393 -1.3502 -0.6031
  136OSM   H14C14650   6.405   6.467   1.557 -0.3339 -0.0438 -0.5390
  136OSM    C1314651   6.151   6.572   1.568 -0.0187  1.0736  0.2140
  136OSM   H13A14652   6.066   6.636   1.584 -0.2254  1.0076 -0.5530
  136OSM   H13B14653   6.109   6.473   1.560  3.1021 -0.5007  1.5070
  136OSM   H13C14654   6.183   6.592   1.466 -0.6207 -1.7118 -0.5967
  136OSM    C1214655   6.326   6.707   1.682 -0.2176 -0.2189 -0.0132
  136OSM   H12A14656   6.252   6.785   1.687  0.4288  0.4255 -0.3468
  136OSM   H12B14657   6.374   6.734   1.589 -1.4618  0.6786 -0.4304
  136OSM    C1114658   6.419   6.728   1.803  0.1140 -0.5898 -0.5745
  136OSM   H11A14659   6.484   6.817   1.794 -0.2539 -0.0918  1.3112
  136OSM   H11B14660   6.488   6.641   1.798 -1.0372 -1.4755 -1.8631
  136OSM      P14661   6.282   6.855   1.978  0.3077 -0.3361  0.0664
  136OSM    O1314662   6.378   6.970   1.952  0.2565 -0.2782  0.0944
  136OSM    O1414663   6.145   6.858   1.917 -0.0769  0.7423 -0.2154
  136OSM    O1114664   6.254   6.843   2.129 -0.2028 -0.1851 -0.3312
  136OSM    O1214665   6.356   6.727   1.933  0.2721 -0.2271  0.3920
  136OSM    C1S14666   6.337   6.773   2.221 -0.1651  0.3246 -1.0061
  136OSM    H1S14667   6.445   6.791   2.198  0.2050 -1.6983 -1.0313
  136OSM    H1T14668   6.321   6.664   2.207  0.5791 -0.4133  2.7592
  136OSM     NF14669   6.415   6.748   2.450  0.0795  0.5702  0.1749
  136OSM    HNF14670   6.386   6.666   2.498  0.7785  1.6681  2.6595
  136OSM    C2S14671   6.314   6.814   2.366 -0.2851  0.1083  0.0748
  136OSM    H2S14672   6.334   6.922   2.379  4.1988 -0.6780  1.1421
  136OSM    C3S14673   6.167   6.795   2.413 -0.0940 -0.7888 -0.2365
  136OSM    H3S14674   6.141   6.691   2.387 -2.5702 -0.1732 -0.4396
  136OSM     O314675   6.072   6.858   2.327  0.0797 -0.0929  0.0900
  136OSM    HO314676   6.105   6.869   2.237  1.1588 -0.2393  0.4636
  136OSM    C4S14677   6.138   6.839   2.559 -0.2744 -0.1922 -0.1712
  136OSM    H4S14678   6.129   6.757   2.632 -0.3703  0.3219  0.4062
  136OSM    C5S14679   6.115   6.968   2.586 -0.1684  0.3598 -0.4934
  136OSM    H5S14680   6.123   7.039   2.502  1.0053 -0.5211 -1.1662
  136OSM    C6S14681   6.112   7.027   2.723  0.2588  0.6063 -0.4309
  136OSM    H6S14682   6.008   7.064   2.734  0.6220  1.8094 -0.9009
  136OSM    H6T14683   6.180   7.115   2.727  0.0990  0.6890  0.5950
  136OSM    C7S14684   6.147   6.945   2.849  0.0250 -0.6340 -0.5124
  136OSM    H7S14685   6.244   6.892   2.844 -0.0333 -1.0824  1.8673
  136OSM    H7T14686   6.068   6.868   2.860  0.4157 -0.8784  0.6655
  136OSM    C8S14687   6.142   7.036   2.974 -0.1323 -0.0042 -0.2751
  136OSM    H8S14688   6.040   7.080   2.968  0.0409  0.3788 -0.4335
  136OSM    H8T14689   6.216   7.119   2.978 -0.7563  0.5034  2.0184
  136OSM    C9S14690   6.150   6.958   3.107 -0.0670  0.1749  0.0408
  136OSM    H9S14691   6.259   6.943   3.124 -0.0390  1.1478  0.8452
  136OSM    H9T14692   6.098   6.861   3.093 -0.8690  0.5332  0.4569
  136OSM   C10S14693   6.102   7.037   3.235 -0.4900 -0.6173 -0.2310
  136OSM   H10S14694   5.991   7.047   3.235 -0.5427 -0.8852 -1.9324
  136OSM   H10T14695   6.155   7.134   3.246 -0.2267 -0.3522 -3.1136
  136OSM   C11S14696   6.116   6.955   3.364  0.2019 -0.6267 -0.2666
  136OSM   H11S14697   6.088   6.848   3.360  1.6483 -1.1007  1.1134
  136OSM   H11T14698   6.046   6.986   3.444 -0.3488 -2.2340 -0.0989
  136OSM   C12S14699   6.262   6.950   3.420  0.3576 -0.3670 -1.4844
  136OSM   H12S14700   6.299   7.053   3.403  0.6816 -0.5027 -1.5944
  136OSM   H12T14701   6.328   6.884   3.361 -0.8117  0.4136 -3.8506
  136OSM   C13S14702   6.265   6.923   3.572 -0.4405 -0.7841  0.3925
  136OSM   H13S14703   6.239   6.816   3.589  2.1066 -1.3347  1.2212
  136OSM   H13T14704   6.183   6.977   3.625 -0.9783 -0.9522 -0.2473
  136OSM   C14S14705   6.403   6.961   3.632 -0.4524  0.4488 -0.1487
  136OSM   H14S14706   6.414   7.067   3.661 -0.0748  0.2759  0.3577
  136OSM   H14T14707   6.484   6.943   3.558 -0.1957 -1.0616  0.4515
  136OSM   C15S14708   6.415   6.883   3.757  0.0436  0.6586  0.3485
  136OSM   H15S14709   6.429   6.777   3.726  2.2995  1.1386 -0.4914
  136OSM   H15T14710   6.317   6.876   3.808 -0.2355  1.2690 -0.0880
  136OSM   C16S14711   6.520   6.935   3.852  0.2185  0.3578 -0.4934
  136OSM   H16S14712   6.539   7.041   3.827 -0.4905  0.0642 -2.4889
  136OSM   H16T14713   6.612   6.874   3.839  0.2116  0.2541 -0.0715
  136OSM   C17S14714   6.468   6.926   4.003  0.4716 -1.1273 -0.2532
  136OSM   H17S14715   6.453   6.818   4.021 -0.6006 -0.9924 -0.3056
  136OSM   H17T14716   6.371   6.980   4.004  1.4172  0.6623  0.0329
  136OSM   C18S14717   6.573   6.986   4.109 -0.1078  0.4474  0.1267
  136OSM   H18S14718   6.587   7.096   4.101  2.0681  0.1065 -2.2121
  136OSM   H18T14719   6.668   6.933   4.085  0.1378  0.9923 -0.1376
  136OSM   H18U14720   6.545   6.946   4.208 -0.4924  0.9343  0.2167
  136OSM    C1F14721   6.538   6.788   2.447  0.1711 -0.8686 -0.1604
  136OSM     OF14722   6.564   6.899   2.404  0.3158  0.2389  0.1981
  136OSM    C2F14723   6.644   6.698   2.509 -0.5410  0.5012  0.4211
  136OSM    H2F14724   6.713   6.671   2.427 -1.0029  1.7113 -0.3943
  136OSM    H2G14725   6.601   6.602   2.546 -0.3433  0.4678  0.5647
  136OSM    C3F14726   6.731   6.769   2.615 -0.3444 -0.0685 -0.3458
  136OSM    H3F14727   6.771   6.860   2.564 -1.1081  0.4307 -0.0853
  136OSM    H3G14728   6.814   6.698   2.632 -0.6590  0.3806  4.2779
  136OSM    C4F14729   6.662   6.814   2.746 -0.1880  0.1317 -0.1958
  136OSM    H4F14730   6.594   6.902   2.742 -1.9554 -0.9519  2.6480
  136OSM    H4G14731   6.746   6.833   2.816 -2.7206  1.3443  2.7786
  136OSM    C5F14732   6.573   6.707   2.811  0.8608  0.3460  0.1966
  136OSM    H5F14733   6.632   6.614   2.825 -1.8758 -1.2062  2.0744
  136OSM    H5G14734   6.493   6.682   2.738  2.0859 -2.0128 -0.4294
  136OSM    C6F14735   6.513   6.743   2.949 -0.3979 -0.3152 -0.2746
  136OSM    H6F14736   6.468   6.652   2.994  3.7517 -2.9829 -0.9925
  136OSM    H6G14737   6.443   6.826   2.927  1.0194  0.6169 -1.4046
  136OSM    C7F14738   6.614   6.802   3.052  0.1706  0.3364  0.1654
  136OSM    H7F14739   6.659   6.887   2.995  3.1021 -0.6980  0.7662
  136OSM    H7G14740   6.691   6.723   3.067  2.2358  2.3148  0.4978
  136OSM    C8F14741   6.536   6.851   3.178 -0.9422 -0.3903  0.6534
  136OSM    H8F14742   6.480   6.771   3.231 -3.2861  0.7408  0.0089
  136OSM    H8G14743   6.454   6.910   3.133 -0.4129 -1.1159 -1.3870
  136OSM    C9F14744   6.632   6.928   3.277  0.1145 -0.1270  0.3678
  136OSM    H9F14745   6.628   7.038   3.277 -1.2965 -0.1575  1.2052
  136OSM   C10F14746   6.714   6.870   3.370 -0.5814  0.1326 -0.2488
  136OSM   H10F14747   6.780   6.938   3.427  0.8566 -0.3960 -1.2120
  136OSM   C11F14748   6.744   6.719   3.376 -0.4872  0.6871 -0.2387
  136OSM   H11F14749   6.852   6.701   3.399 -0.3537  0.5963 -0.9168
  136OSM   H11G14750   6.720   6.663   3.284  1.0001  0.6365 -0.6270
  136OSM   C12F14751   6.678   6.656   3.504 -0.6352 -0.0811  0.7053
  136OSM   H12F14752   6.700   6.548   3.491 -0.0084 -0.0113  1.1420
  136OSM   H12G14753   6.571   6.683   3.494 -0.2802  0.6561 -2.0932
  136OSM   C13F14754   6.734   6.706   3.646 -0.0959 -0.7233  0.8027
  136OSM   H13F14755   6.692   6.634   3.719 -0.6665 -0.1153  1.0799
  136OSM   H13G14756   6.700   6.810   3.663  2.4589  0.4655 -0.7494
  136OSM   C14F14757   6.889   6.715   3.662  0.7412 -0.2046  0.3987
  136OSM   H14F14758   6.931   6.787   3.588 -0.2927  0.8326  0.7969
  136OSM   H14G14759   6.929   6.613   3.645 -0.1041 -0.5775  0.5911
  136OSM   C15F14760   6.928   6.757   3.803  0.4395  0.4824  0.4432
  136OSM   H15F14761   6.895   6.861   3.823  0.4109  0.5035  0.2839
  136OSM   H15G14762   7.039   6.753   3.796  0.4487  1.7661 -0.3736
  136OSM   C16F14763   6.879   6.673   3.921 -0.3713  0.5888  0.7747
  136OSM   H16F14764   6.771   6.684   3.944 -0.9326 -0.3385 -1.1626
  136OSM   H16G14765   6.929   6.712   4.012  1.4158 -0.3105  0.2280
  136OSM   C17F14766   6.918   6.524   3.915 -0.0282  0.0492  0.6281
  136OSM   H17F14767   7.027   6.504   3.906 -0.4139 -1.4936 -1.4645
  136OSM   H17G14768   6.857   6.479   3.834 -3.3673  1.6585  2.0137
  136OSM   C18F14769   6.881   6.437   4.042  0.5339 -0.5734 -0.2799
  136OSM   H18F14770   6.943   6.459   4.131 -0.5434 -0.2843  0.4209
  136OSM   H18G14771   6.887   6.328   4.023  1.0765 -0.6505  0.3193
  136OSM   H18H14772   6.771   6.441   4.059  0.3815 -1.6580 -0.9114
  137OSM      N14773   4.886   4.449   1.279 -0.0114 -0.4495 -0.1218
  137OSM    C1514774   5.012   4.524   1.249 -0.6726  0.7441  0.1918
  137OSM   H15A14775   5.036   4.606   1.314 -1.5286  0.7306  0.5339
  137OSM   H15B14776   5.021   4.551   1.145 -0.4038 -0.8539 -0.2288
  137OSM   H15C14777   5.086   4.446   1.262  0.1371  1.1800 -1.4967
  137OSM    C1414778   4.777   4.535   1.223  0.5315 -0.0570 -0.2868
  137OSM   H14A14779   4.747   4.614   1.290 -0.2012 -1.5956  1.2875
  137OSM   H14B14780   4.696   4.467   1.200  1.5343 -0.8528 -1.6590
  137OSM   H14C14781   4.801   4.581   1.128  1.4221 -0.7012 -0.3880
  137OSM    C1314782   4.892   4.319   1.199  0.4376 -0.8799 -0.2652
  137OSM   H13A14783   4.811   4.251   1.220 -0.1248 -0.6148 -1.5008
  137OSM   H13B14784   4.984   4.265   1.219  0.5743 -0.3510  0.6255
  137OSM   H13C14785   4.896   4.342   1.094 -0.8527  3.5348  0.4380
  137OSM    C1214786   4.867   4.427   1.430  0.2347 -0.3675 -0.6929
  137OSM   H12A14787   4.931   4.347   1.465 -1.9843 -1.2931  1.4777
  137OSM   H12B14788   4.770   4.383   1.442  0.3705 -0.6205 -0.5176
  137OSM    C1114789   4.874   4.549   1.528 -0.2048 -0.0302 -0.2482
  137OSM   H11A14790   4.849   4.515   1.630  3.1751 -0.2316  0.6482
  137OSM   H11B14791   4.797   4.625   1.506  1.5658  1.8189 -0.3780
  137OSM      P14792   5.115   4.543   1.605  0.0405  0.0483  0.2951
  137OSM    O1314793   5.096   4.395   1.602 -0.3757  0.0748 -0.0560
  137OSM    O1414794   5.246   4.585   1.553 -0.1279  1.1344 -0.3115
  137OSM    O1114795   5.108   4.592   1.757  0.0661  0.0240  0.0275
  137OSM    O1214796   5.003   4.612   1.525  0.3351  0.2302  0.1676
  137OSM    C1S14797   5.009   4.692   1.798 -0.1165  0.1685 -0.2848
  137OSM    H1S14798   4.912   4.639   1.813 -0.9335  1.2799 -1.4593
  137OSM    H1T14799   4.999   4.772   1.723  1.8069 -0.5092 -1.3437
  137OSM     NF14800   4.935   4.869   1.962 -0.1516  0.6345  0.0772
  137OSM    HNF14801   4.960   4.963   1.942  1.9725  0.6605  2.4431
  137OSM    C2S14802   5.035   4.768   1.935  0.0497  0.4216  0.6989
  137OSM    H2S14803   5.033   4.690   2.014  0.2481 -1.1570 -0.7990
  137OSM    C3S14804   5.177   4.836   1.932 -0.0343  0.1984  0.1795
  137OSM    H3S14805   5.151   4.919   1.862 -3.6667 -1.8169 -1.1682
  137OSM     O314806   5.285   4.758   1.865  0.1804  0.0295  0.1967
  137OSM    HO314807   5.245   4.675   1.839 -0.6174  0.3299  0.4573
  137OSM    C4S14808   5.226   4.878   2.067  0.5993 -0.0108  0.8265
  137OSM    H4S14809   5.256   4.804   2.143  1.4255  0.2357  0.7484
  137OSM    C5S14810   5.237   5.005   2.094  0.2650  0.3659 -0.0887
  137OSM    H5S14811   5.211   5.075   2.013 -1.4659  0.6214  0.6507
  137OSM    C6S14812   5.289   5.067   2.217 -0.6178  1.2589 -0.2240
  137OSM    H6S14813   5.386   5.114   2.193 -0.6090  0.8499 -1.0228
  137OSM    H6T14814   5.319   4.996   2.297 -2.4573  2.4583  1.6248
  137OSM    C7S14815   5.195   5.172   2.266 -0.2059 -0.5899  0.2031
  137OSM    H7S14816   5.114   5.139   2.334  0.9147  1.1548  2.5717
  137OSM    H7T14817   5.134   5.234   2.197 -1.5699  1.1176  2.7767
  137OSM    C8S14818   5.267   5.264   2.371  0.4319 -0.3718 -1.1851
  137OSM    H8S14819   5.188   5.334   2.407 -0.0074 -0.0659 -2.6796
  137OSM    H8T14820   5.341   5.332   2.324 -0.7590  0.7954 -1.4342
  137OSM    C9S14821   5.329   5.188   2.484 -0.0035  0.1914 -0.6256
  137OSM    H9S14822   5.433   5.154   2.468 -0.1571 -1.4832  1.4881
  137OSM    H9T14823   5.274   5.096   2.515  0.7136 -0.4687 -1.2791
  137OSM   C10S14824   5.327   5.276   2.611  0.1229  0.2478 -0.4531
  137OSM   H10S14825   5.375   5.211   2.686 -0.1478 -0.2095 -0.6705
  137OSM   H10T14826   5.221   5.300   2.635  0.2648 -0.8798  1.5043
  137OSM   C11S14827   5.412   5.401   2.613 -0.7956 -0.2288  0.4204
  137OSM   H11S14828   5.376   5.475   2.539 -0.7479 -0.8724 -0.2565
  137OSM   H11T14829   5.518   5.383   2.585 -0.4947  1.0155  0.6966
  137OSM   C12S14830   5.408   5.463   2.753 -0.5888 -0.0046  0.1061
  137OSM   H12S14831   5.409   5.372   2.817  0.5270  0.0339  0.1658
  137OSM   H12T14832   5.319   5.521   2.786 -0.2751  1.1586 -1.0260
  137OSM   C13S14833   5.522   5.567   2.772  0.4198  0.3273  0.3719
  137OSM   H13S14834   5.504   5.660   2.713  2.8109  0.7283  0.1529
  137OSM   H13T14835   5.617   5.532   2.725 -0.0913 -0.0952 -0.3707
  137OSM   C14S14836   5.522   5.611   2.918 -0.1866 -0.0451 -0.1240
  137OSM   H14S14837   5.517   5.517   2.977 -2.9110 -0.6133 -1.1419
  137OSM   H14T14838   5.425   5.652   2.952  0.2596  0.2847  0.7944
  137OSM   C15S14839   5.635   5.697   2.967 -0.3983  0.2708  0.0455
  137OSM   H15S14840   5.638   5.788   2.903 -1.1442  0.6901  0.5867
  137OSM   H15T14841   5.733   5.645   2.968 -0.5088 -0.0520 -1.6882
  137OSM   C16S14842   5.599   5.749   3.107 -0.6486  0.3342  0.1212
  137OSM   H16S14843   5.490   5.769   3.109 -1.0021 -1.2979 -0.5354
  137OSM   H16T14844   5.651   5.838   3.146 -1.9400  0.0096  2.7708
  137OSM   C17S14845   5.630   5.646   3.224  0.1702 -0.4062  0.4051
  137OSM   H17S14846   5.737   5.619   3.224  0.1401 -0.6164  1.7566
  137OSM   H17T14847   5.571   5.554   3.203  0.7138 -0.1624 -2.5633
  137OSM   C18S14848   5.593   5.709   3.361  0.0474 -0.0999  0.1515
  137OSM   H18S14849   5.610   5.637   3.444  3.0537  2.1916  1.6979
  137OSM   H18T14850   5.488   5.745   3.362  0.7474  2.1306  1.6043
  137OSM   H18U14851   5.655   5.797   3.386  1.3059 -0.5432 -1.2289
  137OSM    C1F14852   4.808   4.845   1.988 -1.2171 -0.0991  0.0207
  137OSM     OF14853   4.766   4.730   2.003 -0.0196  0.0390  0.3580
  137OSM    C2F14854   4.716   4.961   1.995  0.4751  0.0025  0.0644
  137OSM    H2F14855   4.629   4.929   1.934  0.4334 -0.0833  0.1688
  137OSM    H2G14856   4.766   5.047   1.944 -0.8014  0.3570 -0.6236
  137OSM    C3F14857   4.664   4.995   2.136  0.1736  0.0396  0.3355
  137OSM    H3F14858   4.601   4.918   2.187  0.6787 -0.2781  0.4844
  137OSM    H3G14859   4.594   5.082   2.132 -1.0246 -0.9206 -0.4562
  137OSM    C4F14860   4.772   5.048   2.231 -0.0978  0.8713 -0.1892
  137OSM    H4F14861   4.830   5.127   2.178 -0.6085  0.7861 -0.8850
  137OSM    H4G14862   4.844   4.964   2.246 -2.0473 -1.2467 -1.9207
  137OSM    C5F14863   4.718   5.082   2.370  0.0341 -0.9773 -0.6415
  137OSM    H5F14864   4.679   4.991   2.419  1.8394 -1.2374  0.3957
  137OSM    H5G14865   4.638   5.160   2.371  0.0833 -0.8181  2.5856
  137OSM    C6F14866   4.831   5.140   2.459 -0.3662  0.0690  0.8845
  137OSM    H6F14867   4.868   5.236   2.418 -0.9407 -0.8672 -2.0380
  137OSM    H6G14868   4.918   5.075   2.481  0.2600  0.9015  0.8975
  137OSM    C7F14869   4.774   5.181   2.594  0.7042  1.1501  0.4052
  137OSM    H7F14870   4.720   5.095   2.638  1.9944  0.9689  1.7388
  137OSM    H7G14871   4.688   5.248   2.573 -1.6185 -1.4066  1.2302
  137OSM    C8F14872   4.863   5.232   2.705 -0.6501 -0.0061  0.6133
  137OSM    H8F14873   4.927   5.148   2.737  0.3900  0.9504  1.1336
  137OSM    H8G14874   4.792   5.246   2.789 -2.0486  2.0813 -0.8056
  137OSM    C9F14875   4.933   5.361   2.682 -0.6606  0.3713 -0.0321
  137OSM    H9F14876   4.941   5.401   2.580 -2.2409 -0.4589 -0.5208
  137OSM   C10F14877   4.964   5.442   2.787 -1.1309  0.5583  0.8106
  137OSM   H10F14878   5.017   5.537   2.768 -3.1851  1.9154  1.3981
  137OSM   C11F14879   4.969   5.396   2.931 -0.3179  0.2962 -0.6434
  137OSM   H11F14880   5.005   5.291   2.941  0.2269  0.3739 -1.6174
  137OSM   H11G14881   4.869   5.395   2.980  0.9603  1.4693  2.2068
  137OSM   C12F14882   5.067   5.479   3.022  0.4094  0.2906 -0.7064
  137OSM   H12F14883   5.024   5.580   3.040 -0.2036  0.2584 -1.8738
  137OSM   H12G14884   5.166   5.493   2.973  0.9369  0.1101  0.2692
  137OSM   C13F14885   5.086   5.410   3.161 -0.6698 -0.1735 -0.1116
  137OSM   H13F14886   5.137   5.313   3.140  0.6298  0.3824  0.4097
  137OSM   H13G14887   4.987   5.395   3.208 -0.3971  1.1707  0.9483
  137OSM   C14F14888   5.171   5.488   3.253  0.1649 -0.0738 -0.6819
  137OSM   H14F14889   5.117   5.584   3.264 -0.3710 -0.4996  0.6700
  137OSM   H14G14890   5.263   5.506   3.193  0.1150  2.0262 -0.2024
  137OSM   C15F14891   5.211   5.425   3.394  0.4072 -0.1685  0.2631
  137OSM   H15F14892   5.251   5.322   3.381 -1.0136 -0.7103  0.0006
  137OSM   H15G14893   5.116   5.414   3.451 -0.4407  0.4631 -0.9857
  137OSM   C16F14894   5.310   5.510   3.472 -0.3512 -0.4058  0.0654
  137OSM   H16F14895   5.274   5.615   3.467 -1.3634 -0.7078  0.6594
  137OSM   H16G14896   5.403   5.499   3.414 -0.6612 -1.2783 -0.2880
  137OSM   C17F14897   5.342   5.468   3.616  0.2304 -0.4047  0.5824
  137OSM   H17F14898   5.377   5.364   3.631 -1.8080 -1.1442  0.5806
  137OSM   H17G14899   5.246   5.466   3.672  0.6402 -3.1060  1.3078
  137OSM   C18F14900   5.441   5.568   3.677 -0.3288  0.0369  0.2955
  137OSM   H18F14901   5.547   5.538   3.663 -0.5067 -0.6905  0.4434
  137OSM   H18G14902   5.428   5.571   3.787 -2.4567  0.6702  0.0667
  137OSM   H18H14903   5.420   5.668   3.633 -0.7459  0.2452  0.9591
  138OSM      N14904   4.037   5.853   1.695  0.7074 -0.3191 -0.0480
  138OSM    C1514905   3.913   5.885   1.616 -0.3305  0.0943  0.0839
  138OSM   H15A14906   3.855   5.794   1.611 -0.2108  0.0141  0.1451
  138OSM   H15B14907   3.947   5.936   1.527 -0.0133 -1.3105 -0.6362
  138OSM   H15C14908   3.851   5.952   1.674  0.2876 -1.0837  2.2230
  138OSM    C1414909   4.125   5.774   1.615 -0.3122 -0.1678  0.1221
  138OSM   H14A14910   4.079   5.691   1.564  0.9614 -1.0382  0.3411
  138OSM   H14B14911   4.209   5.737   1.671 -0.2929  0.1208  0.2868
  138OSM   H14C14912   4.159   5.841   1.537  0.2950  1.1120  1.4316
  138OSM    C1314913   4.092   5.991   1.714  0.1430  0.1148 -0.0700
  138OSM   H13A14914   4.027   6.059   1.768 -0.2423 -0.7322  0.5631
  138OSM   H13B14915   4.145   6.024   1.626  1.1594  0.4478  0.6515
  138OSM   H13C14916   4.180   5.982   1.776 -1.1017 -0.9766  1.6346
  138OSM    C1214917   3.992   5.781   1.818  0.2503 -0.4483 -0.1798
  138OSM   H12A14918   3.956   5.686   1.781  0.5917 -0.9728  0.7840
  138OSM   H12B14919   3.913   5.834   1.868  0.9240  0.3867  0.0280
  138OSM    C1114920   4.100   5.759   1.925 -0.8236  0.1631  0.9239
  138OSM   H11A14921   4.198   5.737   1.879 -0.4161  3.5793 -0.1855
  138OSM   H11B14922   4.079   5.675   1.994  0.9303 -1.2441 -0.1783
  138OSM      P14923   4.032   5.931   2.111 -0.3413  0.0724 -0.4194
  138OSM    O1314924   3.946   6.032   2.053  0.2522  0.4104  0.6237
  138OSM    O1414925   3.976   5.822   2.190  0.1752  0.1003  0.0247
  138OSM    O1114926   4.136   6.012   2.203 -0.7273  0.1491  0.7925
  138OSM    O1214927   4.128   5.881   2.000  0.5047  0.2990  0.1251
  138OSM    C1S14928   4.128   6.043   2.338  0.0796  0.1414  0.0414
  138OSM    H1S14929   4.064   5.975   2.398  1.6559 -0.3617  1.2211
  138OSM    H1T14930   4.091   6.147   2.347 -2.7186 -0.6798 -0.8555
  138OSM     NF14931   4.277   6.021   2.548  0.0006  0.1769 -0.2618
  138OSM    HNF14932   4.303   6.108   2.588 -0.4791 -1.0040  2.9345
  138OSM    C2S14933   4.271   6.026   2.404 -0.1136  0.6861 -0.2418
  138OSM    H2S14934   4.316   5.931   2.366  1.3238  1.5511 -0.7902
  138OSM    C3S14935   4.366   6.131   2.340 -0.0750  0.4368  0.5095
  138OSM    H3S14936   4.305   6.224   2.349 -3.6862 -1.4738 -1.8933
  138OSM     O314937   4.389   6.129   2.199 -0.2521  0.3401  0.1221
  138OSM    HO314938   4.319   6.069   2.174 -1.2972  0.4938  2.4727
  138OSM    C4S14939   4.499   6.141   2.396 -0.7130 -0.4967  0.1164
  138OSM    H4S14940   4.551   6.044   2.403  0.2210  0.1136  2.9696
  138OSM    C5S14941   4.565   6.256   2.435  0.2769 -0.2111 -0.3608
  138OSM    H5S14942   4.507   6.349   2.427 -3.5489 -2.2886  0.6324
  138OSM    C6S14943   4.710   6.266   2.485  0.0031  0.0625 -0.3866
  138OSM    H6S14944   4.729   6.375   2.484 -1.8122  0.4405  0.7854
  138OSM    H6T14945   4.788   6.232   2.414  1.2279  2.6274 -0.3446
  138OSM    C7S14946   4.741   6.210   2.621 -0.4589 -0.2602  0.0449
  138OSM    H7S14947   4.843   6.244   2.649 -1.0891 -0.4954  3.0242
  138OSM    H7T14948   4.755   6.101   2.606  0.0309 -0.0741 -0.9028
  138OSM    C8S14949   4.639   6.238   2.728 -0.2445 -0.5607 -0.5933
  138OSM    H8S14950   4.541   6.194   2.702 -1.8406  2.0227  0.6716
  138OSM    H8T14951   4.605   6.343   2.739 -0.0591 -0.5134 -0.4604
  138OSM    C9S14952   4.666   6.185   2.865 -0.7003  0.2288 -0.1184
  138OSM    H9S14953   4.760   6.232   2.901 -0.5059  0.7968 -1.3313
  138OSM    H9T14954   4.676   6.075   2.854 -2.4717  0.0492 -0.0876
  138OSM   C10S14955   4.560   6.200   2.972 -0.1010  0.0615  0.6151
  138OSM   H10S14956   4.463   6.156   2.939 -1.0763  0.8158  2.3267
  138OSM   H10T14957   4.540   6.306   3.001 -2.3321 -1.1084  3.8461
  138OSM   C11S14958   4.594   6.129   3.107  0.8021  0.4251  0.6139
  138OSM   H11S14959   4.584   6.019   3.091  0.0108  0.6991 -0.9689
  138OSM   H11T14960   4.504   6.152   3.169  0.2821 -0.5597  0.2522
  138OSM   C12S14961   4.720   6.188   3.168  0.5326 -0.1001  0.0418
  138OSM   H12S14962   4.711   6.298   3.158 -1.9297 -0.3306 -0.9888
  138OSM   H12T14963   4.810   6.136   3.127 -1.2181 -1.9458 -1.6532
  138OSM   C13S14964   4.706   6.165   3.320 -0.2219  0.1449 -0.7254
  138OSM   H13S14965   4.702   6.055   3.336  2.8693  0.0538  0.1439
  138OSM   H13T14966   4.615   6.210   3.365  0.3130  1.9773 -1.4109
  138OSM   C14S14967   4.832   6.206   3.391 -0.4642 -0.0171 -0.6043
  138OSM   H14S14968   4.860   6.312   3.377  2.3373 -0.1699  2.6366
  138OSM   H14T14969   4.920   6.155   3.347 -0.7357 -1.2643  0.2371
  138OSM   C15S14970   4.817   6.175   3.536 -0.9258 -0.3522  0.1970
  138OSM   H15S14971   4.824   6.066   3.552 -0.5749 -0.0508  2.3005
  138OSM   H15T14972   4.715   6.211   3.562 -0.0366  4.3557 -1.6322
  138OSM   C16S14973   4.925   6.245   3.629 -0.3118 -0.3960  0.6131
  138OSM   H16S14974   4.911   6.354   3.611 -1.7708 -0.5181  0.9475
  138OSM   H16T14975   5.025   6.215   3.589 -1.5098 -1.0917 -2.0815
  138OSM   C17S14976   4.900   6.209   3.777 -0.7575  0.1041 -0.1182
  138OSM   H17S14977   4.903   6.099   3.789 -0.0166  0.2933  1.7312
  138OSM   H17T14978   4.796   6.239   3.804 -0.1527  0.4024  2.0838
  138OSM   C18S14979   4.996   6.280   3.871 -0.3416 -0.6671  0.2508
  138OSM   H18S14980   4.986   6.388   3.847 -1.1561 -0.8649 -0.3176
  138OSM   H18T14981   5.102   6.248   3.865 -0.0216  0.4028 -0.0938
  138OSM   H18U14982   4.967   6.262   3.976  0.7022 -0.5391  0.5729
  138OSM    C1F14983   4.216   5.921   2.611 -0.5168  0.6566  0.0348
  138OSM     OF14984   4.181   5.832   2.539  0.1097  0.0929  0.3259
  138OSM    C2F14985   4.196   5.922   2.757 -0.3822  0.1337  0.0396
  138OSM    H2F14986   4.100   5.867   2.771 -0.3546  0.3262  1.0758
  138OSM    H2G14987   4.177   6.026   2.789 -1.0421 -1.0090  3.8822
  138OSM    C3F14988   4.295   5.849   2.849  0.4127 -0.0859  0.2750
  138OSM    H3F14989   4.397   5.893   2.837  0.1891  0.7570  1.2722
  138OSM    H3G14990   4.292   5.743   2.815 -1.9103 -0.7679  2.3560
  138OSM    C4F14991   4.255   5.873   2.994 -0.5015 -0.5175 -0.2666
  138OSM    H4F14992   4.149   5.846   3.013 -0.0191 -0.8691  2.4537
  138OSM    H4G14993   4.268   5.982   3.014 -0.1448 -0.4627 -0.7742
  138OSM    C5F14994   4.337   5.792   3.092  0.5389  0.1652  0.0729
  138OSM    H5F14995   4.443   5.816   3.074 -0.2950  2.7171 -2.0884
  138OSM    H5G14996   4.308   5.688   3.065 -0.5088 -0.1914  2.3367
  138OSM    C6F14997   4.310   5.823   3.242  0.7142 -0.3015 -0.1083
  138OSM    H6F14998   4.206   5.786   3.259  0.4829  0.7548  0.8799
  138OSM    H6G14999   4.315   5.933   3.255  0.6493 -0.4796  1.5944
  138OSM    C7F15000   4.409   5.753   3.340  0.0660  0.3777  0.0144
  138OSM    H7F15001   4.507   5.800   3.318  0.9534 -1.1767  0.4899
  138OSM    H7G15002   4.417   5.646   3.313  1.9986  0.1612  1.2326
  138OSM    C8F15003   4.391   5.753   3.491  0.4390 -0.6142  0.3279
  138OSM    H8F15004   4.484   5.714   3.536 -0.9941 -4.2506  0.4268
  138OSM    H8G15005   4.324   5.668   3.514  3.0569 -2.1588  2.8277
  138OSM    C9F15006   4.345   5.882   3.553  0.9059  0.3837  0.8574
  138OSM    H9F15007   4.242   5.914   3.528  1.6244  2.3971  0.2542
  138OSM   C10F15008   4.412   5.954   3.646  0.2046  0.1187 -0.4240
  138OSM   H10F15009   4.347   6.034   3.686  0.8030  0.1624  0.4883
  138OSM   C11F15010   4.557   5.946   3.687  0.8001 -0.2253  0.0664
  138OSM   H11F15011   4.619   6.037   3.671  0.3098 -0.1091 -1.2844
  138OSM   H11G15012   4.605   5.866   3.625  0.2594  0.1219 -0.8260
  138OSM   C12F15013   4.567   5.904   3.832 -0.1717 -0.1374  0.4262
  138OSM   H12F15014   4.491   5.825   3.854 -0.0008 -0.2740  0.5346
  138OSM   H12G15015   4.534   5.989   3.895  0.3677 -0.5961  1.3501
  138OSM   C13F15016   4.707   5.867   3.885  0.4399 -0.0128  0.2944
  138OSM   H13F15017   4.785   5.946   3.880  2.2170 -1.7606 -1.7867
  138OSM   H13G15018   4.745   5.783   3.823 -0.5427  0.2982 -0.7653
  138OSM   C14F15019   4.715   5.821   4.038  0.2995  0.4803  0.3368
  138OSM   H14F15020   4.822   5.794   4.053 -0.1652 -0.5410  2.0512
  138OSM   H14G15021   4.654   5.731   4.061  0.5159  0.4942  0.9698
  138OSM   C15F15022   4.677   5.922   4.153 -0.4925 -0.5693 -0.5281
  138OSM   H15F15023   4.568   5.943   4.147 -0.6213 -1.2092 -0.5088
  138OSM   H15G15024   4.732   6.018   4.151  1.5088 -1.6156  1.0334
  138OSM   C16F15025   4.710   5.870   4.294 -0.3014 -0.5609 -0.2724
  138OSM   H16F15026   4.820   5.852   4.290  0.5574  3.7660 -1.1891
  138OSM   H16G15027   4.659   5.776   4.323  0.7163 -0.7917  0.8429
  138OSM   C17F15028   4.675   5.972   4.395  0.7536  0.3333  0.8911
  138OSM   H17F15029   4.566   5.991   4.384  0.1171 -2.0388  2.3670
  138OSM   H17G15030   4.717   6.070   4.364 -1.9187  1.0175 -0.9047
  138OSM   C18F15031   4.716   5.938   4.540 -0.3125 -0.6262  0.3813
  138OSM   H18F15032   4.708   6.024   4.610  0.2855 -0.6713  0.5118
  138OSM   H18G15033   4.824   5.917   4.554 -0.4683 -0.2032  2.5924
  138OSM   H18H15034   4.667   5.849   4.584  0.1124 -1.4413 -0.7566
  139OSM      N15035   5.809   4.308   1.723 -0.2245 -0.0766 -0.5689
  139OSM    C1515036   5.836   4.419   1.625 -0.3005 -0.1704 -0.0212
  139OSM   H15A15037   5.910   4.394   1.550  1.3053 -1.6816  1.9633
  139OSM   H15B15038   5.846   4.519   1.664 -1.4709 -0.0402 -0.0193
  139OSM   H15C15039   5.747   4.436   1.567 -1.2833  1.0256  1.7709
  139OSM    C1415040   5.692   4.360   1.799  0.6762  0.1603  0.0230
  139OSM   H14A15041   5.611   4.384   1.732 -1.5086  2.0814  3.0980
  139OSM   H14B15042   5.722   4.455   1.841  1.6800  0.5376 -1.4799
  139OSM   H14C15043   5.647   4.296   1.873 -1.8784  0.2228 -1.3485
  139OSM    C1315044   5.766   4.188   1.652  0.0926 -0.3070  0.3240
  139OSM   H13A15045   5.741   4.107   1.719 -0.2019 -0.2092  0.3331
  139OSM   H13B15046   5.845   4.147   1.591 -0.0824  0.6904 -0.5940
  139OSM   H13C15047   5.678   4.204   1.591 -0.2182 -0.2714  0.7773
  139OSM    C1215048   5.919   4.278   1.815  0.1795  0.2734 -0.6024
  139OSM   H12A15049   5.894   4.202   1.887 -0.2757  0.8848 -0.1142
  139OSM   H12B15050   5.941   4.360   1.881  1.3448 -0.3794 -0.1388
  139OSM    C1115051   6.054   4.233   1.754 -0.4788  0.2121 -0.1453
  139OSM   H11A15052   6.130   4.233   1.836  1.2567  1.4009 -1.6769
  139OSM   H11B15053   6.089   4.317   1.690 -0.0730  0.8481  0.8740
  139OSM      P15054   6.063   3.978   1.779  0.0085  0.0297 -0.1933
  139OSM    O1315055   5.969   3.866   1.751  0.4147 -0.5644 -0.2991
  139OSM    O1415056   6.209   3.947   1.782 -0.0822  0.0297  0.1216
  139OSM    O1115057   6.018   4.031   1.916 -0.0483 -0.0018  0.1135
  139OSM    O1215058   6.046   4.109   1.687  0.6672  0.4326  0.2744
  139OSM    C1S15059   6.086   3.978   2.034 -0.6472 -0.2262 -0.7123
  139OSM    H1S15060   6.190   4.015   2.047 -1.1578  0.8041  0.7080
  139OSM    H1T15061   6.082   3.867   2.034  0.7431 -0.3527  1.6491
  139OSM     NF15062   6.092   3.952   2.272 -0.0918 -0.2030  0.4688
  139OSM    HNF15063   6.065   3.859   2.296  1.8208 -0.0847  3.7625
  139OSM    C2S15064   6.017   4.021   2.168 -0.0270 -0.0334 -0.1552
  139OSM    H2S15065   6.032   4.131   2.172  1.6576 -0.1878 -1.1825
  139OSM    C3S15066   5.863   3.992   2.167  0.0741  0.1103 -0.5928
  139OSM    H3S15067   5.860   3.881   2.172 -0.1505  0.1132 -0.6654
  139OSM     O315068   5.787   4.023   2.050  0.1097  0.0952 -0.6184
  139OSM    HO315069   5.860   4.043   1.990  1.2999 -1.1323  0.3569
  139OSM    C4S15070   5.812   4.039   2.300  0.0618  0.0418  0.2894
  139OSM    H4S15071   5.839   3.976   2.386 -1.7832  0.5536  1.2955
  139OSM    C5S15072   5.753   4.158   2.333  0.3571 -0.4032 -0.3804
  139OSM    H5S15073   5.734   4.236   2.258 -0.1130  0.5432  0.6851
  139OSM    C6S15074   5.714   4.196   2.479  0.1176 -0.1149  0.6418
  139OSM    H6S15075   5.614   4.159   2.509  0.7818 -0.4280  2.6413
  139OSM    H6T15076   5.724   4.307   2.470  2.9744 -0.4557 -2.1778
  139OSM    C7S15077   5.809   4.141   2.589  0.5758  0.5012  0.2584
  139OSM    H7S15078   5.904   4.198   2.585  2.0548 -1.8112  0.3779
  139OSM    H7T15079   5.844   4.036   2.578  0.7220  0.7137 -1.5860
  139OSM    C8S15080   5.763   4.187   2.729 -0.4209 -0.2608  0.5106
  139OSM    H8S15081   5.670   4.127   2.747 -0.8403  0.4053  0.5988
  139OSM    H8T15082   5.746   4.296   2.735 -1.0676 -0.2925 -0.5283
  139OSM    C9S15083   5.863   4.161   2.835  0.8785  0.8229 -0.4256
  139OSM    H9S15084   5.958   4.195   2.787  0.2421 -0.1499 -2.5172
  139OSM    H9T15085   5.882   4.055   2.863 -1.2172  0.7152  0.7921
  139OSM   C10S15086   5.839   4.235   2.965 -0.7130  0.7792  0.1169
  139OSM   H10S15087   5.854   4.343   2.948  0.8017  1.0257  2.5884
  139OSM   H10T15088   5.924   4.206   3.030  1.2068  0.0347 -2.5747
  139OSM   C11S15089   5.701   4.199   3.027  0.2160  0.4458  0.0261
  139OSM   H11S15090   5.689   4.089   3.018 -2.5273  0.6852 -0.0481
  139OSM   H11T15091   5.627   4.240   2.955 -0.9382  0.5589  1.2323
  139OSM   C12S15092   5.676   4.236   3.169 -1.0894 -0.3886 -0.0806
  139OSM   H12S15093   5.566   4.225   3.185 -1.9236  0.9104 -3.8363
  139OSM   H12T15094   5.690   4.345   3.185  0.0390 -0.4583 -0.5181
  139OSM   C13S15095   5.771   4.165   3.266  0.5367  0.2357  0.2635
  139OSM   H13S15096   5.875   4.187   3.235  0.5517 -2.9820 -2.4209
  139OSM   H13T15097   5.753   4.057   3.252 -0.3747  0.3323  0.6284
  139OSM   C14S15098   5.742   4.194   3.413 -0.1855  0.2146  0.6834
  139OSM   H14S15099   5.638   4.162   3.435 -0.8604  2.1768  0.6123
  139OSM   H14T15100   5.748   4.305   3.416 -1.3874  0.3365 -0.4923
  139OSM   C15S15101   5.845   4.139   3.515 -0.3272  0.2808  0.1002
  139OSM   H15S15102   5.950   4.143   3.479 -0.1464 -0.1406  0.5832
  139OSM   H15T15103   5.831   4.029   3.514  1.1750  0.0633  0.8255
  139OSM   C16S15104   5.846   4.192   3.659  0.6183 -0.2036  0.4481
  139OSM   H16S15105   5.912   4.281   3.663  2.7176 -1.7342  1.4424
  139OSM   H16T15106   5.896   4.109   3.713  0.9725 -1.2421 -1.4062
  139OSM   C17S15107   5.705   4.217   3.724 -0.3836 -0.6326  0.3087
  139OSM   H17S15108   5.658   4.117   3.728  0.8194 -1.1967  3.7533
  139OSM   H17T15109   5.642   4.290   3.668  1.4207 -1.1919 -2.7129
  139OSM   C18S15110   5.728   4.267   3.871 -0.5879  0.2088 -0.6290
  139OSM   H18S15111   5.639   4.258   3.936 -0.6353  0.7535 -0.6126
  139OSM   H18T15112   5.774   4.368   3.867 -1.5683  0.6841 -0.1668
  139OSM   H18U15113   5.797   4.198   3.923 -0.2507  1.2426  0.3259
  139OSM    C1F15114   6.211   4.002   2.330 -0.0882  0.0977  0.4897
  139OSM     OF15115   6.262   4.100   2.286  0.0922 -0.1294  0.1536
  139OSM    C2F15116   6.280   3.921   2.440  0.6826 -0.2120 -0.6479
  139OSM    H2F15117   6.366   3.883   2.380  1.2855  1.3073 -0.7778
  139OSM    H2G15118   6.210   3.839   2.468  0.7559 -1.2379 -3.1611
  139OSM    C3F15119   6.336   3.997   2.563 -0.6523 -0.2464  0.5454
  139OSM    H3F15120   6.412   4.072   2.533 -1.4415  0.1986 -0.4381
  139OSM    H3G15121   6.373   3.918   2.632  1.2491 -0.7096 -0.9171
  139OSM    C4F15122   6.221   4.074   2.627  0.7193  0.6388 -0.0019
  139OSM    H4F15123   6.130   4.015   2.648  1.1317 -0.2625 -0.6816
  139OSM    H4G15124   6.187   4.150   2.554 -0.7716 -1.0809 -1.1859
  139OSM    C5F15125   6.260   4.158   2.754  0.0133  0.3190  0.4011
  139OSM    H5F15126   6.172   4.222   2.770 -0.2429 -0.2539  1.3380
  139OSM    H5G15127   6.355   4.215   2.743  0.3771  0.2103  2.6551
  139OSM    C6F15128   6.285   4.062   2.877 -0.5575 -0.6611  0.3698
  139OSM    H6F15129   6.373   3.999   2.851 -0.9150 -0.8291 -0.4580
  139OSM    H6G15130   6.202   3.988   2.876 -0.2923 -0.9611  0.0544
  139OSM    C7F15131   6.285   4.137   3.011  0.3616  0.9709 -0.3158
  139OSM    H7F15132   6.193   4.198   3.018  1.6768  3.0448 -0.1529
  139OSM    H7G15133   6.358   4.220   3.010 -0.3148  1.6076 -2.5442
  139OSM    C8F15134   6.298   4.028   3.118  0.1787 -0.1202 -0.5821
  139OSM    H8F15135   6.390   3.969   3.101  0.1331 -0.7209  1.0697
  139OSM    H8G15136   6.216   3.953   3.111  0.4418 -0.4972  0.2664
  139OSM    C9F15137   6.313   4.085   3.255  0.1902  0.0888 -0.0839
  139OSM    H9F15138   6.363   4.183   3.253  0.3072  0.0446  0.5335
  139OSM   C10F15139   6.287   4.021   3.370 -0.3631 -0.2493 -0.5587
  139OSM   H10F15140   6.296   4.068   3.469 -0.1969  0.6497 -0.9973
  139OSM   C11F15141   6.239   3.874   3.378  0.3528  0.2671  0.5810
  139OSM   H11F15142   6.256   3.836   3.482  0.5000  0.3895  0.6027
  139OSM   H11G15143   6.301   3.819   3.304  2.0460  2.4211  0.2851
  139OSM   C12F15144   6.087   3.867   3.356 -0.0615 -0.1949 -0.7990
  139OSM   H12F15145   6.058   3.921   3.263  2.1670 -0.7736 -1.9064
  139OSM   H12G15146   6.035   3.931   3.430  0.8028 -0.1098 -0.2521
  139OSM   C13F15147   6.024   3.725   3.346 -0.2135 -0.5723  0.5061
  139OSM   H13F15148   6.032   3.663   3.438 -1.0054 -0.3985  0.7071
  139OSM   H13G15149   6.083   3.670   3.270  1.8616 -0.1039  1.6920
  139OSM   C14F15150   5.877   3.721   3.316 -0.8350 -0.0864  0.8577
  139OSM   H14F15151   5.833   3.787   3.394 -0.6129  1.3360 -0.1805
  139OSM   H14G15152   5.831   3.620   3.319 -0.7342 -0.1351  0.7571
  139OSM   C15F15153   5.829   3.786   3.184 -0.8299 -0.1045  0.2355
  139OSM   H15F15154   5.869   3.890   3.178 -0.8533  0.0183  1.9297
  139OSM   H15G15155   5.718   3.790   3.178 -0.8091  0.0083 -0.1468
  139OSM   C16F15156   5.871   3.715   3.059  0.0660  0.3831 -0.6252
  139OSM   H16F15157   5.795   3.711   2.979 -0.7342  4.3430 -0.2499
  139OSM   H16G15158   5.897   3.612   3.093 -0.4240 -0.9481 -3.9017
  139OSM   C17F15159   5.989   3.787   2.984  0.3993  0.8937 -0.5879
  139OSM   H17F15160   6.074   3.798   3.055  0.7223 -0.7581 -0.6730
  139OSM   H17G15161   5.947   3.886   2.957  0.5298  0.5485 -2.1343
  139OSM   C18F15162   6.041   3.709   2.866  0.6196  0.6716  0.2606
  139OSM   H18F15163   6.096   3.616   2.891  1.8699  0.7118 -2.0584
  139OSM   H18G15164   6.107   3.782   2.815 -1.2773  2.7840  0.6980
  139OSM   H18H15165   5.957   3.689   2.796 -1.2900 -0.6379  2.7503
  140OSM      N15166   4.880   1.757   1.628  0.0870  0.4345  0.0941
  140OSM    C1515167   4.852   1.663   1.515  0.0725  0.2653 -0.2483
  140OSM   H15A15168   4.859   1.559   1.543  2.8365 -0.2400 -2.3649
  140OSM   H15B15169   4.933   1.681   1.446 -0.4780  2.6324 -0.3834
  140OSM   H15C15170   4.756   1.693   1.476 -0.2916  0.2165  0.5835
  140OSM    C1415171   5.022   1.726   1.669 -0.0699  0.4791  0.0942
  140OSM   H14A15172   5.043   1.786   1.756 -0.7900 -0.5362  0.9959
  140OSM   H14B15173   5.093   1.753   1.592  0.0722 -0.1595 -0.0072
  140OSM   H14C15174   5.038   1.620   1.684 -1.2923 -0.0078 -1.6422
  140OSM    C1315175   4.875   1.896   1.575 -0.0056 -0.2582 -0.7096
  140OSM   H13A15176   4.941   1.908   1.490  0.7789  0.8377  0.0145
  140OSM   H13B15177   4.898   1.964   1.656  0.4507 -0.9349 -0.2631
  140OSM   H13C15178   4.775   1.921   1.544  0.1741  3.6302  1.1767
  140OSM    C1215179   4.773   1.728   1.729 -0.2617 -0.2177 -0.2387
  140OSM   H12A15180   4.776   1.623   1.755  1.2223 -0.1778 -0.1438
  140OSM   H12B15181   4.672   1.746   1.694  0.2761  0.1270 -1.7016
  140OSM    C1115182   4.779   1.807   1.850  0.2110 -0.1337 -0.1738
  140OSM   H11A15183   4.686   1.788   1.908 -0.0277  1.4130  0.0067
  140OSM   H11B15184   4.767   1.914   1.821 -1.7598 -0.6526 -1.4568
  140OSM      P15185   4.922   1.674   2.015  0.0162  0.8155 -0.1867
  140OSM    O1315186   4.864   1.549   1.957 -0.0052  0.4162 -0.5255
  140OSM    O1415187   5.065   1.663   2.042 -0.3186  0.4658  0.5505
  140OSM    O1115188   4.860   1.704   2.156  1.2650 -0.1011 -0.7699
  140OSM    O1215189   4.887   1.801   1.934 -0.0699 -0.0524  0.0797
  140OSM    C1S15190   4.912   1.798   2.248  0.3874  1.2488  0.4383
  140OSM    H1S15191   4.974   1.875   2.197 -1.1692  2.0360 -0.3287
  140OSM    H1T15192   4.977   1.752   2.326 -1.6048  0.0708  1.4712
  140OSM     NF15193   4.830   1.975   2.400  0.4771 -0.2757 -0.7843
  140OSM    HNF15194   4.837   1.967   2.499 -2.9713 -2.6147 -0.5455
  140OSM    C2S15195   4.790   1.850   2.328 -0.3738  0.2240  0.0595
  140OSM    H2S15196   4.714   1.890   2.257  2.1952  0.8570 -2.5435
  140OSM    C3S15197   4.725   1.753   2.422 -0.1567  0.5658  0.3576
  140OSM    H3S15198   4.794   1.712   2.499 -0.4993  0.6444  0.7079
  140OSM     O315199   4.673   1.644   2.359  0.2512  1.0226 -0.3503
  140OSM    HO315200   4.713   1.651   2.272 -0.7244  0.9153 -0.8154
  140OSM    C4S15201   4.622   1.825   2.514 -0.3013 -0.3113  0.3927
  140OSM    H4S15202   4.678   1.853   2.605 -0.3328  1.2707 -0.0366
  140OSM    C5S15203   4.491   1.850   2.497 -0.0114  0.1871 -0.2287
  140OSM    H5S15204   4.453   1.823   2.397 -1.1917 -1.2444  0.5806
  140OSM    C6S15205   4.393   1.914   2.587 -0.2764 -0.3484  0.6794
  140OSM    H6S15206   4.302   1.850   2.594 -0.3333 -0.4971 -0.9053
  140OSM    H6T15207   4.350   2.005   2.539 -2.2515 -1.1504  0.8254
  140OSM    C7S15208   4.446   1.948   2.736  0.7038 -0.8543 -0.1466
  140OSM    H7S15209   4.372   2.010   2.790  3.4598  0.7610  2.0153
  140OSM    H7T15210   4.538   2.007   2.721  1.3474 -2.5127 -4.0029
  140OSM    C8S15211   4.464   1.822   2.809 -0.4553 -0.1570  0.0041
  140OSM    H8S15212   4.540   1.754   2.764 -2.0972 -2.0132 -0.1125
  140OSM    H8T15213   4.369   1.767   2.795 -0.8614  1.0042 -2.1282
  140OSM    C9S15214   4.498   1.842   2.957  0.7114  0.4046 -0.4690
  140OSM    H9S15215   4.411   1.884   3.012 -0.5676 -0.6799 -1.6091
  140OSM    H9T15216   4.575   1.922   2.965 -0.4671  1.5651 -0.5537
  140OSM   C10S15217   4.554   1.717   3.033 -0.1098 -0.9813  0.6648
  140OSM   H10S15218   4.641   1.678   2.977 -0.7118  2.2865 -2.9824
  140OSM   H10T15219   4.476   1.639   3.020  0.2789 -1.0657 -1.3807
  140OSM   C11S15220   4.577   1.747   3.182 -0.0857  0.0967 -0.1319
  140OSM   H11S15221   4.627   1.844   3.198  0.1382  0.0628 -0.6260
  140OSM   H11T15222   4.641   1.658   3.203 -0.9134 -0.7351 -1.0054
  140OSM   C12S15223   4.451   1.741   3.270 -0.2712  0.0418  0.9609
  140OSM   H12S15224   4.386   1.655   3.244 -1.3803  1.6988 -2.1829
  140OSM   H12T15225   4.387   1.829   3.251  0.9863  0.7492 -0.2104
  140OSM   C13S15226   4.487   1.754   3.417  0.1027  0.0619  0.8889
  140OSM   H13S15227   4.549   1.845   3.430 -1.3863  1.2953 -0.2544
  140OSM   H13T15228   4.552   1.665   3.429  0.1117 -0.0458  0.1106
  140OSM   C14S15229   4.373   1.758   3.520  1.0276  0.1831  0.2177
  140OSM   H14S15230   4.324   1.658   3.527  1.0839  0.2378  1.5798
  140OSM   H14T15231   4.293   1.826   3.483  0.9182  0.4496  0.9346
  140OSM   C15S15232   4.408   1.803   3.657  0.2076  0.1089 -0.2135
  140OSM   H15S15233   4.467   1.897   3.653  1.0093 -0.3102  1.2759
  140OSM   H15T15234   4.469   1.725   3.707  1.9468  0.2218 -2.0523
  140OSM   C16S15235   4.277   1.831   3.729  0.4036  0.1662 -0.1326
  140OSM   H16S15236   4.231   1.731   3.741  3.9654 -1.4046  2.0034
  140OSM   H16T15237   4.210   1.896   3.668 -0.0972 -1.2506 -1.1353
  140OSM   C17S15238   4.292   1.886   3.871 -0.1063 -0.9932 -1.2290
  140OSM   H17S15239   4.344   1.984   3.864  0.9464 -1.6259 -2.9540
  140OSM   H17T15240   4.362   1.821   3.928  1.7769  0.1293 -2.1708
  140OSM   C18S15241   4.154   1.904   3.950  0.0162 -0.3879 -0.0889
  140OSM   H18S15242   4.186   1.911   4.056  1.6234 -1.1438 -0.4988
  140OSM   H18T15243   4.090   1.814   3.932  3.4626 -3.2119  0.7076
  140OSM   H18U15244   4.102   2.000   3.929  0.4128 -0.4538 -1.4771
  140OSM    C1F15245   4.869   2.094   2.355  0.1524  0.5025 -0.6093
  140OSM     OF15246   4.879   2.108   2.236  0.0795 -0.1429  0.3186
  140OSM    C2F15247   4.913   2.194   2.456  0.3261  0.5776 -0.2884
  140OSM    H2F15248   4.981   2.266   2.405 -0.8535  0.3551 -2.3249
  140OSM    H2G15249   4.965   2.140   2.537 -1.5085 -1.2173 -0.2420
  140OSM    C3F15250   4.797   2.287   2.505 -0.3958  0.0360  0.5905
  140OSM    H3F15251   4.767   2.341   2.413  2.5716  1.7952  0.5101
  140OSM    H3G15252   4.838   2.349   2.588  2.1063  0.7309 -1.0314
  140OSM    C4F15253   4.680   2.215   2.567 -0.0876 -0.0958 -0.1295
  140OSM    H4F15254   4.700   2.170   2.667 -2.7972  0.2902  0.6481
  140OSM    H4G15255   4.655   2.128   2.503  0.5812  1.2197 -2.2760
  140OSM    C5F15256   4.558   2.310   2.580  1.2032  0.0126  0.7927
  140OSM    H5F15257   4.463   2.253   2.590  1.7873 -1.3688 -0.9795
  140OSM    H5G15258   4.554   2.374   2.489  0.5764  0.2739  0.9990
  140OSM    C6F15259   4.564   2.412   2.700 -0.6651  0.4739  0.5320
  140OSM    H6F15260   4.490   2.494   2.689 -0.0867  0.9492  0.1603
  140OSM    H6G15261   4.667   2.452   2.692  0.1197 -1.3618  0.8736
  140OSM    C7F15262   4.547   2.349   2.842 -1.4820  0.0222  0.8625
  140OSM    H7F15263   4.601   2.252   2.838  1.1113  1.4237 -0.8106
  140OSM    H7G15264   4.438   2.330   2.849 -1.6439  0.0103 -1.0082
  140OSM    C8F15265   4.607   2.431   2.957  0.3993  0.1067  0.1229
  140OSM    H8F15266   4.562   2.379   3.044  1.4217 -1.6320 -0.3292
  140OSM    H8G15267   4.559   2.531   2.966 -0.0630 -0.3118  3.7616
  140OSM    C9F15268   4.756   2.443   2.966 -0.3724 -0.2794 -0.1051
  140OSM    H9F15269   4.820   2.453   2.877  0.4752  0.5535  0.5940
  140OSM   C10F15270   4.828   2.464   3.080  0.2881 -0.9641  0.3122
  140OSM   H10F15271   4.936   2.476   3.062  0.4093 -1.3602  0.7631
  140OSM   C11F15272   4.762   2.464   3.215  0.2441  0.0393  0.7369
  140OSM   H11F15273   4.848   2.450   3.285  0.9156 -0.9761 -0.2679
  140OSM   H11G15274   4.705   2.368   3.215 -0.7151  0.5540 -1.5540
  140OSM   C12F15275   4.699   2.592   3.252  0.6612 -1.0320 -0.4406
  140OSM   H12F15276   4.627   2.623   3.173 -1.3640 -1.1391  1.2873
  140OSM   H12G15277   4.782   2.666   3.251  0.8896 -1.2884 -1.0858
  140OSM   C13F15278   4.626   2.609   3.386  0.1142 -0.6347 -0.4238
  140OSM   H13F15279   4.528   2.558   3.386  0.4590 -1.3376 -1.7675
  140OSM   H13G15280   4.600   2.717   3.396  0.6127 -0.3845 -1.6347
  140OSM   C14F15281   4.709   2.572   3.516  0.3164  0.3069  0.1754
  140OSM   H14F15282   4.810   2.616   3.504  0.1453  1.0760  1.3258
  140OSM   H14G15283   4.712   2.461   3.515  0.9830  0.3233 -0.1346
  140OSM   C15F15284   4.627   2.618   3.631 -0.7395  1.1443 -0.5211
  140OSM   H15F15285   4.523   2.577   3.632  0.5280 -2.5124  2.3813
  140OSM   H15G15286   4.617   2.728   3.640  0.2690  1.1917  0.0885
  140OSM   C16F15287   4.683   2.567   3.767 -0.4397  0.6089  0.7986
  140OSM   H16F15288   4.776   2.626   3.784 -1.2953  1.6971  1.9105
  140OSM   H16G15289   4.707   2.459   3.753 -3.1140  0.0826 -0.4556
  140OSM   C17F15290   4.607   2.590   3.895  0.5872 -0.1181 -0.5200
  140OSM   H17F15291   4.503   2.554   3.874 -0.8114  2.9114  0.6085
  140OSM   H17G15292   4.594   2.700   3.904 -1.1515 -0.3559  0.3358
  140OSM   C18F15293   4.656   2.530   4.033  0.4795  0.4813  0.1177
  140OSM   H18F15294   4.594   2.561   4.120 -0.6492  2.3879 -1.2983
  140OSM   H18G15295   4.754   2.569   4.069  0.3789 -1.3333  2.6113
  140OSM   H18H15296   4.664   2.421   4.014  2.3464  0.5321  0.3528
  141OSM      N15297   5.090   5.339   1.576 -0.1253  0.1339  0.6507
  141OSM    C1515298   4.979   5.441   1.598 -0.3536 -0.2924  0.2413
  141OSM   H15A15299   5.010   5.514   1.671  0.3215 -1.3417  1.0330
  141OSM   H15B15300   4.887   5.401   1.637 -0.1898 -1.7273 -0.7366
  141OSM   H15C15301   4.953   5.495   1.508  1.1341 -0.1769 -0.1611
  141OSM    C1415302   5.029   5.223   1.499 -0.5177  0.0479  0.5702
  141OSM   H14A15303   4.991   5.257   1.403 -0.3051 -0.2238  0.3867
  141OSM   H14B15304   4.955   5.163   1.551 -1.8280  0.0125 -1.2302
  141OSM   H14C15305   5.107   5.153   1.473 -0.5629  0.4749 -0.7905
  141OSM    C1315306   5.204   5.389   1.490 -0.5024  0.6489  0.3056
  141OSM   H13A15307   5.258   5.302   1.453 -2.0145 -0.1445 -0.1335
  141OSM   H13B15308   5.272   5.448   1.549 -0.1332  1.0055 -0.4695
  141OSM   H13C15309   5.179   5.449   1.403  0.8966  0.7548 -0.0431
  141OSM    C1215310   5.139   5.304   1.710  0.5857  0.3425 -0.3186
  141OSM   H12A15311   5.194   5.211   1.714 -1.1508 -0.7123  0.1395
  141OSM   H12B15312   5.053   5.280   1.771 -0.1710  1.7129 -0.8066
  141OSM    C1115313   5.242   5.402   1.782 -0.2400 -0.1944 -0.4513
  141OSM   H11A15314   5.247   5.371   1.889  1.2502 -0.2917 -0.5246
  141OSM   H11B15315   5.201   5.504   1.796  1.4553  0.2473  1.9047
  141OSM      P15316   5.482   5.301   1.746  0.1657 -0.1427 -0.2110
  141OSM    O1315317   5.415   5.170   1.732 -0.4623  0.3143  0.4854
  141OSM    O1415318   5.603   5.333   1.668 -0.2738 -0.6999 -0.3623
  141OSM    O1115319   5.516   5.315   1.899 -0.1786 -0.0724 -0.0734
  141OSM    O1215320   5.376   5.410   1.730 -0.2516  0.3312  0.3667
  141OSM    C1S15321   5.565   5.433   1.960 -0.3280 -0.1931 -0.2743
  141OSM    H1S15322   5.501   5.523   1.946  1.7246  1.2195 -1.1054
  141OSM    H1T15323   5.666   5.456   1.921 -0.6068  0.5851 -0.5651
  141OSM     NF15324   5.586   5.517   2.190 -0.3886  0.4360  0.0392
  141OSM    HNF15325   5.676   5.558   2.208 -0.9312  1.3363  0.8325
  141OSM    C2S15326   5.574   5.400   2.111 -0.1694  0.2181  0.1981
  141OSM    H2S15327   5.483   5.344   2.139 -0.6198 -0.2940 -2.0697
  141OSM    C3S15328   5.672   5.291   2.143  0.1584  0.2071 -0.4719
  141OSM    H3S15329   5.776   5.319   2.113  0.0333  1.4157  0.1402
  141OSM     O315330   5.647   5.175   2.065 -0.0432  0.4716  0.1472
  141OSM    HO315331   5.582   5.204   2.000 -1.5542 -0.6215  1.0938
  141OSM    C4S15332   5.676   5.255   2.286 -0.3957  0.4599 -0.4150
  141OSM    H4S15333   5.580   5.238   2.337  0.2634 -0.9752  0.4301
  141OSM    C5S15334   5.789   5.258   2.366  0.2310  0.3415  0.1656
  141OSM    H5S15335   5.875   5.302   2.313 -0.7105 -0.2371 -1.9760
  141OSM    C6S15336   5.792   5.226   2.514  0.5628  0.7894 -0.2945
  141OSM    H6S15337   5.865   5.145   2.537  0.8990  2.0348  3.7155
  141OSM    H6T15338   5.691   5.190   2.544  0.4968  2.1703  1.2976
  141OSM    C7S15339   5.824   5.336   2.616  0.5905 -0.0693  0.2432
  141OSM    H7S15340   5.765   5.428   2.600 -0.6814 -0.9403 -0.2460
  141OSM    H7T15341   5.927   5.377   2.605  0.2923  1.5563  2.6743
  141OSM    C8S15342   5.798   5.294   2.764 -0.6830 -0.1005  0.4761
  141OSM    H8S15343   5.832   5.190   2.780  2.5053  1.0515  1.9327
  141OSM    H8T15344   5.693   5.299   2.801 -0.9111 -1.4622  0.0404
  141OSM    C9S15345   5.895   5.365   2.861 -0.4774  0.4354  0.5121
  141OSM    H9S15346   5.904   5.471   2.828  0.2078  2.0159  5.1328
  141OSM    H9T15347   5.991   5.311   2.848 -0.9350 -0.7163  1.6593
  141OSM   C10S15348   5.843   5.364   3.005 -0.5920 -0.0044 -0.4148
  141OSM   H10S15349   5.832   5.256   3.031 -1.3735  0.4644  1.4237
  141OSM   H10T15350   5.740   5.407   3.011 -1.1708 -0.9642 -2.5556
  141OSM   C11S15351   5.933   5.416   3.119  0.3266  0.3504 -0.3093
  141OSM   H11S15352   5.958   5.522   3.097  0.8291  0.9603  2.8145
  141OSM   H11T15353   6.035   5.374   3.104  1.0784  1.9815 -0.0010
  141OSM   C12S15354   5.880   5.400   3.267  0.0427  0.5559  0.5067
  141OSM   H12S15355   5.873   5.290   3.283  0.5633  0.4740  0.1962
  141OSM   H12T15356   5.775   5.435   3.274  0.9354  3.1846  2.1241
  141OSM   C13S15357   5.959   5.479   3.368  0.6456  0.9916  0.1047
  141OSM   H13S15358   5.941   5.587   3.351  2.6464  1.8900  3.0461
  141OSM   H13T15359   6.065   5.447   3.362  0.7504  1.1730  0.9659
  141OSM   C14S15360   5.913   5.443   3.508 -0.1982  0.3656 -1.0277
  141OSM   H14S15361   5.903   5.332   3.509  0.3910  0.0722 -5.5081
  141OSM   H14T15362   5.809   5.477   3.527 -0.2629 -0.5209  0.3545
  141OSM   C15S15363   6.009   5.501   3.618  0.1238 -0.6579 -0.1116
  141OSM   H15S15364   6.012   5.612   3.616 -0.1593 -0.6546 -0.5317
  141OSM   H15T15365   6.111   5.461   3.601  1.3107  1.7003  0.8921
  141OSM   C16S15366   5.986   5.450   3.762  0.3583 -0.4650 -0.2472
  141OSM   H16S15367   6.080   5.441   3.821 -0.0278 -0.8219  0.3279
  141OSM   H16T15368   5.946   5.346   3.762 -0.5921 -0.1222  0.6412
  141OSM   C17S15369   5.906   5.544   3.848  0.0625 -0.6678  0.1868
  141OSM   H17S15370   5.951   5.645   3.862  0.8165 -0.9527 -0.1209
  141OSM   H17T15371   5.924   5.502   3.949  2.3439  0.5693  0.3758
  141OSM   C18S15372   5.758   5.556   3.809  0.2435 -0.0392 -0.6914
  141OSM   H18S15373   5.747   5.634   3.730  2.3902  3.2850  1.9835
  141OSM   H18T15374   5.699   5.607   3.888  2.4583 -0.0194  1.0298
  141OSM   H18U15375   5.713   5.464   3.765 -0.6607  0.1764 -0.2452
  141OSM    C1F15376   5.488   5.600   2.235  0.0974 -0.3218  0.4503
  141OSM     OF15377   5.369   5.573   2.215 -0.3248 -0.3708  0.4334
  141OSM    C2F15378   5.529   5.727   2.301  0.5922  0.0187  0.4449
  141OSM    H2F15379   5.585   5.785   2.224  0.8417  0.6974  1.1281
  141OSM    H2G15380   5.601   5.697   2.380  0.4543  1.4457  1.1345
  141OSM    C3F15381   5.411   5.821   2.349  0.4327  0.1350 -0.3435
  141OSM    H3F15382   5.354   5.769   2.428  2.1195 -0.4719  0.5242
  141OSM    H3G15383   5.345   5.847   2.263  2.0097  0.0733 -1.6207
  141OSM    C4F15384   5.471   5.954   2.405 -0.6316  0.0368  0.0472
  141OSM    H4F15385   5.393   6.029   2.429 -0.4018 -0.4187  2.4424
  141OSM    H4G15386   5.536   6.009   2.334 -0.6716  2.8204  1.9916
  141OSM    C5F15387   5.536   5.931   2.544 -0.3712 -0.9984  0.1827
  141OSM    H5F15388   5.641   5.897   2.529 -0.0115  0.5717 -1.2427
  141OSM    H5G15389   5.486   5.844   2.591 -0.2989 -0.8217  0.5966
  141OSM    C6F15390   5.522   6.052   2.636 -0.1595 -0.1743  0.5273
  141OSM    H6F15391   5.419   6.066   2.674 -0.5051 -1.8068  0.2517
  141OSM    H6G15392   5.559   6.141   2.579  0.6752 -1.2753 -0.7224
  141OSM    C7F15393   5.604   6.030   2.771 -0.7759  0.1228  0.6159
  141OSM    H7F15394   5.690   5.971   2.732 -1.3783 -1.2025  1.2219
  141OSM    H7G15395   5.549   5.971   2.848  0.0925  0.3858  1.4593
  141OSM    C8F15396   5.658   6.152   2.835 -0.7924  0.3094 -0.5150
  141OSM    H8F15397   5.569   6.214   2.858 -0.0991  1.0571  0.2297
  141OSM    H8G15398   5.722   6.212   2.766  0.5357 -0.5091 -0.0421
  141OSM    C9F15399   5.736   6.131   2.960  0.5274 -0.1324 -0.0593
  141OSM    H9F15400   5.816   6.056   2.961  0.8558  0.2057 -0.3965
  141OSM   C10F15401   5.718   6.188   3.077 -0.3126 -0.8129 -0.1911
  141OSM   H10F15402   5.783   6.147   3.156 -0.2514 -1.6675 -0.6801
  141OSM   C11F15403   5.615   6.287   3.118 -0.0929 -0.1027 -0.2804
  141OSM   H11F15404   5.533   6.225   3.158  0.2250 -0.5267 -0.2817
  141OSM   H11G15405   5.582   6.356   3.037  2.9055 -2.6134 -4.0671
  141OSM   C12F15406   5.668   6.376   3.241 -0.1358  0.3207 -0.1503
  141OSM   H12F15407   5.584   6.434   3.286 -0.3687 -0.4386  0.4238
  141OSM   H12G15408   5.750   6.437   3.198  0.0743 -0.6066 -1.1091
  141OSM   C13F15409   5.735   6.289   3.354  0.0902  0.4179 -0.5397
  141OSM   H13F15410   5.841   6.261   3.335 -0.1221  1.1008 -3.0936
  141OSM   H13G15411   5.671   6.199   3.367 -1.1315  1.4153  0.8028
  141OSM   C14F15412   5.752   6.370   3.486  0.8950 -0.0490  0.1502
  141OSM   H14F15413   5.662   6.432   3.504  0.2739 -0.0658 -2.5137
  141OSM   H14G15414   5.837   6.441   3.472 -0.9938  1.9911 -1.8784
  141OSM   C15F15415   5.790   6.277   3.601  0.3296 -0.1157  0.9230
  141OSM   H15F15416   5.890   6.234   3.585  0.8668  1.5136 -0.4664
  141OSM   H15G15417   5.715   6.195   3.606 -0.6305  0.7455  1.1965
  141OSM   C16F15418   5.790   6.351   3.741  0.2229  0.3353 -0.4137
  141OSM   H16F15419   5.691   6.392   3.773 -0.3198 -1.5085  0.4210
  141OSM   H16G15420   5.855   6.440   3.733  0.5917 -0.0347 -1.7206
  141OSM   C17F15421   5.854   6.267   3.857 -0.0631  0.4411  0.6555
  141OSM   H17F15422   5.961   6.246   3.837 -0.6708 -2.1785 -0.2100
  141OSM   H17G15423   5.803   6.169   3.861  2.8955 -1.2153  0.2490
  141OSM   C18F15424   5.834   6.336   3.989 -0.6861 -0.3038 -0.5899
  141OSM   H18F15425   5.727   6.356   4.009 -0.4933  1.8175 -1.3805
  141OSM   H18G15426   5.898   6.427   3.988 -0.4570 -0.4166  1.0447
  141OSM   H18H15427   5.881   6.274   4.068  2.0259  0.1791 -1.6957
  142OSM      N15428   6.595   1.138   1.932  0.4606 -0.0958 -0.1102
  142OSM    C1515429   6.645   1.032   1.838  0.4076 -0.0099  0.5787
  142OSM   H15A15430   6.708   1.078   1.764  1.2397 -0.3765  1.0505
  142OSM   H15B15431   6.562   0.977   1.794 -0.3328  1.8709 -0.5138
  142OSM   H15C15432   6.705   0.963   1.894  0.2209  1.1204  2.2231
  142OSM    C1415433   6.690   1.250   1.951  0.0497 -0.2777  0.3210
  142OSM   H14A15434   6.727   1.276   1.853  0.8578 -1.1457  0.3783
  142OSM   H14B15435   6.782   1.228   2.003  1.5172  0.9410 -1.6079
  142OSM   H14C15436   6.652   1.333   2.009  2.1346 -0.0762  1.4791
  142OSM    C1315437   6.468   1.191   1.863  0.5584  0.0706 -0.9038
  142OSM   H13A15438   6.424   1.265   1.927 -1.8859 -0.4230 -1.9091
  142OSM   H13B15439   6.400   1.107   1.853  2.0076 -1.0258 -2.2412
  142OSM   H13C15440   6.495   1.224   1.764  1.3382 -1.4488 -1.2294
  142OSM    C1215441   6.555   1.070   2.066 -0.4773 -0.4896 -0.0932
  142OSM   H12A15442   6.493   0.984   2.046  1.2167 -1.7570 -0.1912
  142OSM   H12B15443   6.493   1.138   2.122  0.3846  0.2408  0.0009
  142OSM    C1115444   6.678   1.033   2.155 -0.1472  0.0807  0.5859
  142OSM   H11A15445   6.625   0.978   2.235 -0.9733 -1.0693 -0.7010
  142OSM   H11B15446   6.721   1.127   2.195  0.5966  0.4185 -0.9155
  142OSM      P15447   6.767   0.797   2.086  0.2356  0.0645  0.4868
  142OSM    O1315448   6.622   0.748   2.101  0.2588 -0.4011 -0.1444
  142OSM    O1415449   6.840   0.735   1.974 -0.1232 -0.0833  0.3634
  142OSM    O1115450   6.849   0.763   2.219  0.2417  0.3833 -0.6889
  142OSM    O1215451   6.777   0.959   2.080  0.0622  0.5796  0.3271
  142OSM    C1S15452   6.964   0.827   2.262 -0.9647 -0.3583 -0.1673
  142OSM    H1S15453   6.975   0.921   2.204 -0.9547 -0.7702 -0.8561
  142OSM    H1T15454   7.052   0.762   2.246 -0.0883  0.4497  1.2273
  142OSM     NF15455   7.079   0.936   2.444  0.3670  0.4751  0.2240
  142OSM    HNF15456   7.151   0.895   2.499  1.4481 -2.1753 -2.9148
  142OSM    C2S15457   6.956   0.860   2.410 -0.1116 -0.3502  0.1320
  142OSM    H2S15458   6.866   0.919   2.435  0.1286 -0.5094  1.5031
  142OSM    C3S15459   6.927   0.733   2.497 -0.0145  0.2962  0.2653
  142OSM    H3S15460   7.018   0.671   2.492 -0.4023 -0.5461  2.2796
  142OSM     O315461   6.825   0.639   2.445  0.4652 -0.6463 -0.7008
  142OSM    HO315462   6.801   0.674   2.359 -2.4492  2.0919  0.9921
  142OSM    C4S15463   6.898   0.766   2.642  0.4569 -0.1408  0.2502
  142OSM    H4S15464   6.822   0.845   2.649  1.7892  1.6028 -2.8855
  142OSM    C5S15465   6.953   0.697   2.747 -0.3384 -0.6875  0.0220
  142OSM    H5S15466   7.019   0.613   2.725 -2.6265 -2.6372  0.1470
  142OSM    C6S15467   6.934   0.737   2.891 -0.1552  0.8813  0.7323
  142OSM    H6S15468   7.033   0.729   2.941  0.0133  1.4365  0.4892
  142OSM    H6T15469   6.888   0.645   2.935  0.3074  0.1822 -0.1965
  142OSM    C7S15470   6.852   0.849   2.944  0.0289 -0.7097 -0.1585
  142OSM    H7S15471   6.755   0.860   2.891  1.6739  0.6922 -3.1639
  142OSM    H7T15472   6.910   0.939   2.913  0.6749 -1.2961 -0.7105
  142OSM    C8S15473   6.844   0.836   3.098 -0.6851 -1.0161 -0.2501
  142OSM    H8S15474   6.941   0.794   3.132 -1.2772 -1.0931  1.3954
  142OSM    H8T15475   6.767   0.761   3.126 -1.5869 -0.0740 -0.1484
  142OSM    C9S15476   6.802   0.971   3.170 -0.9392 -0.1420  0.4538
  142OSM    H9S15477   6.724   1.020   3.108  1.9892  3.5391 -0.6497
  142OSM    H9T15478   6.896   1.028   3.157  0.8658 -2.4635  2.3418
  142OSM   C10S15479   6.738   0.965   3.313  0.2636 -0.0067  0.5311
  142OSM   H10S15480   6.648   0.902   3.300  1.0756 -0.7288 -2.5321
  142OSM   H10T15481   6.702   1.067   3.337  0.3362  0.0636  0.3454
  142OSM   C11S15482   6.837   0.916   3.427 -0.1970 -0.1927  0.6065
  142OSM   H11S15483   6.935   0.967   3.431  0.7920 -2.0511  1.1018
  142OSM   H11T15484   6.854   0.807   3.411  0.2008 -0.0189 -0.2070
  142OSM   C12S15485   6.783   0.910   3.571 -0.1018 -0.3781 -0.9887
  142OSM   H12S15486   6.702   0.834   3.583 -0.2591 -0.1660 -0.7074
  142OSM   H12T15487   6.734   1.003   3.607 -2.1694 -1.1147 -1.7380
  142OSM   C13S15488   6.897   0.873   3.663  0.3398 -1.0010 -0.3819
  142OSM   H13S15489   6.980   0.947   3.658 -0.0844 -0.4465  0.5000
  142OSM   H13T15490   6.935   0.774   3.631  1.1290 -0.6539 -0.5280
  142OSM   C14S15491   6.829   0.855   3.804  0.2186 -0.1115 -0.2371
  142OSM   H14S15492   6.727   0.814   3.791 -0.6221  1.4984  1.0236
  142OSM   H14T15493   6.801   0.944   3.863 -1.4056 -0.9359  0.2736
  142OSM   C15S15494   6.888   0.745   3.900 -0.0772 -0.5628 -0.3715
  142OSM   H15S15495   6.908   0.660   3.832  0.2862  0.2928 -1.3675
  142OSM   H15T15496   6.818   0.721   3.983  0.8731  0.6533  0.8225
  142OSM   C16S15497   7.017   0.798   3.963  0.9185 -0.1847  0.6675
  142OSM   H16S15498   7.006   0.896   4.015  1.9566  0.9518 -1.1576
  142OSM   H16T15499   7.084   0.830   3.880 -0.5317 -2.4144 -1.5072
  142OSM   C17S15500   7.103   0.701   4.046  0.5088 -0.2678 -0.6396
  142OSM   H17S15501   7.123   0.601   4.000  1.0968 -0.6274  0.3507
  142OSM   H17T15502   7.028   0.679   4.125  0.3574  2.0012 -0.1039
  142OSM   C18S15503   7.232   0.761   4.107 -0.2006 -0.3354  0.6766
  142OSM   H18S15504   7.275   0.689   4.180 -1.6255 -0.0310  1.8654
  142OSM   H18T15505   7.198   0.849   4.166  0.1051  0.6165 -0.5289
  142OSM   H18U15506   7.310   0.800   4.038  0.3030 -0.5947  1.0889
  142OSM    C1F15507   7.103   1.066   2.394 -0.0126  0.3097 -0.2487
  142OSM     OF15508   7.021   1.135   2.332  0.5780  0.5844 -0.4536
  142OSM    C2F15509   7.242   1.122   2.426 -0.3200  0.5740  0.3864
  142OSM    H2F15510   7.284   1.166   2.333 -3.1806  0.4112 -1.0967
  142OSM    H2G15511   7.306   1.036   2.454  0.2532  0.9496  0.2617
  142OSM    C3F15512   7.233   1.242   2.527  0.3259 -0.5573 -0.1947
  142OSM    H3F15513   7.157   1.313   2.485 -1.3259 -2.1385  0.0053
  142OSM    H3G15514   7.331   1.293   2.519  0.9139 -1.9473 -3.4326
  142OSM    C4F15515   7.189   1.197   2.665  0.8166  0.3292  0.1760
  142OSM    H4F15516   7.094   1.138   2.672  1.3032 -0.3371  1.5487
  142OSM    H4G15517   7.177   1.284   2.733 -0.7937  0.3740 -0.1109
  142OSM    C5F15518   7.292   1.098   2.731  0.0372  0.3744  1.2525
  142OSM    H5F15519   7.382   1.159   2.751  0.9703 -0.4600 -0.2525
  142OSM    H5G15520   7.327   1.017   2.663 -2.8777  0.6834 -0.8226
  142OSM    C6F15521   7.252   1.014   2.856 -0.1740 -0.1641  0.5041
  142OSM    H6F15522   7.326   0.936   2.882  0.2583 -0.5957 -1.8318
  142OSM    H6G15523   7.169   0.946   2.828  1.1750 -0.8315 -2.1533
  142OSM    C7F15524   7.220   1.110   2.979 -0.1401  0.6092 -0.5917
  142OSM    H7F15525   7.132   1.174   2.956 -0.0559  0.2442 -2.0392
  142OSM    H7G15526   7.310   1.174   2.988 -0.1643  0.7270 -1.1591
  142OSM    C8F15527   7.196   1.039   3.112  0.6840  1.2244 -0.8400
  142OSM    H8F15528   7.117   0.961   3.106  0.9557  0.7615  0.8887
  142OSM    H8G15529   7.163   1.104   3.196 -1.0632  0.3892 -0.8289
  142OSM    C9F15530   7.314   0.956   3.157 -0.2102 -0.3264 -0.7104
  142OSM    H9F15531   7.346   0.873   3.091  2.9327  0.4741 -0.3886
  142OSM   C10F15532   7.403   1.005   3.251  0.8510  0.7141 -0.1360
  142OSM   H10F15533   7.490   0.941   3.265  0.3184 -1.2187 -4.1129
  142OSM   C11F15534   7.389   1.128   3.341  1.1759 -0.0615 -0.6462
  142OSM   H11F15535   7.341   1.206   3.279  1.4592  0.1775 -0.5661
  142OSM   H11G15536   7.494   1.155   3.366  1.3787 -2.4189  1.5444
  142OSM   C12F15537   7.309   1.106   3.470 -0.2041 -0.5427  0.4239
  142OSM   H12F15538   7.368   1.053   3.547 -0.9580 -1.1585  0.5986
  142OSM   H12G15539   7.231   1.030   3.445 -1.0962  0.2705  0.6561
  142OSM   C13F15540   7.252   1.232   3.541  1.0810 -0.3778  0.6836
  142OSM   H13F15541   7.187   1.284   3.467  0.7483 -1.5103  0.1469
  142OSM   H13G15542   7.336   1.301   3.562  1.5330  0.0360 -2.0480
  142OSM   C14F15543   7.167   1.210   3.668  0.4625  0.2754 -0.0028
  142OSM   H14F15544   7.091   1.134   3.640  1.8676 -1.5475  0.9194
  142OSM   H14G15545   7.120   1.306   3.695  0.5723  0.3791 -0.1793
  142OSM   C15F15546   7.246   1.164   3.789  0.2578 -0.9573 -0.1989
  142OSM   H15F15547   7.340   1.219   3.814  0.7494 -2.5311  1.6537
  142OSM   H15G15548   7.284   1.063   3.763  0.7811 -0.6769 -0.5536
  142OSM   C16F15549   7.161   1.156   3.917 -0.3247  0.3113 -0.0358
  142OSM   H16F15550   7.209   1.085   3.986 -2.6248 -1.0297  0.2983
  142OSM   H16G15551   7.055   1.124   3.902  0.5926 -1.4596 -3.6824
  142OSM   C17F15552   7.153   1.284   3.992  0.2561  1.0156 -0.2890
  142OSM   H17F15553   7.120   1.366   3.925  1.9113  0.5479 -1.7624
  142OSM   H17G15554   7.255   1.315   4.024  0.9300  0.3364 -1.6968
  142OSM   C18F15555   7.064   1.272   4.116  0.2453 -0.1199 -0.6649
  142OSM   H18F15556   7.090   1.186   4.181  0.8478  1.4039  1.2167
  142OSM   H18G15557   6.956   1.278   4.089 -0.9199 -1.4410  3.0410
  142OSM   H18H15558   7.079   1.366   4.173  0.0143  1.1737 -2.6388
  143OSM      N15559   6.100   0.466   2.072 -0.6214 -0.4008  0.3961
  143OSM    C1515560   6.173   0.375   2.172  0.1225 -0.3925  0.3316
  143OSM   H15A15561   6.122   0.282   2.191  4.0630 -2.5155  1.7301
  143OSM   H15B15562   6.175   0.433   2.263 -0.2488 -2.3635  1.6609
  143OSM   H15C15563   6.268   0.343   2.132 -0.6143 -0.7233 -1.2318
  143OSM    C1415564   6.169   0.599   2.055 -0.6984 -0.0196  0.2642
  143OSM   H14A15565   6.269   0.595   2.016 -1.6436  0.4101 -2.4288
  143OSM   H14B15566   6.175   0.653   2.148 -0.9105  0.5002 -0.0217
  143OSM   H14C15567   6.117   0.663   1.985 -0.4956  0.7133  0.7774
  143OSM    C1315568   6.111   0.404   1.938 -0.1603  0.2930  0.0186
  143OSM   H13A15569   6.048   0.450   1.864 -1.6612 -2.7238 -0.7303
  143OSM   H13B15570   6.083   0.300   1.925 -1.7230  0.8035 -0.8686
  143OSM   H13C15571   6.212   0.414   1.900 -0.2822 -0.9987 -0.6932
  143OSM    C1215572   5.951   0.489   2.105 -0.0974 -0.2742 -0.6794
  143OSM   H12A15573   5.907   0.556   2.032 -0.3616 -0.0659 -0.3302
  143OSM   H12B15574   5.947   0.538   2.201  0.1454  1.4949 -1.5262
  143OSM    C1115575   5.865   0.365   2.111  0.7018  0.7698 -0.8759
  143OSM   H11A15576   5.769   0.388   2.163  1.4662 -0.1368  1.0556
  143OSM   H11B15577   5.923   0.292   2.171 -2.7949 -1.9123 -0.4736
  143OSM      P15578   5.737   0.356   1.883 -0.2349  0.2465  0.4682
  143OSM    O1315579   5.789   0.479   1.819 -0.3662 -0.3425  0.1613
  143OSM    O1415580   5.710   0.245   1.783 -0.2112 -0.0523 -0.2270
  143OSM    O1115581   5.613   0.388   1.968 -0.5626  0.1514 -0.3006
  143OSM    O1215582   5.845   0.297   1.986  0.1422 -0.2220 -0.5201
  143OSM    C1S15583   5.528   0.301   2.038 -0.4896  0.3839  0.1393
  143OSM    H1S15584   5.586   0.217   2.084 -0.6795  0.5158  0.6224
  143OSM    H1T15585   5.459   0.256   1.963 -0.1882 -0.5559  0.4023
  143OSM     NF15586   5.376   0.299   2.235 -0.1256  0.3738  0.1125
  143OSM    HNF15587   5.278   0.316   2.245  0.1854  3.2040 -0.6196
  143OSM    C2S15588   5.455   0.387   2.146 -0.4781  0.3005  0.2320
  143OSM    H2S15589   5.532   0.436   2.210 -0.0768  0.7390 -0.5672
  143OSM    C3S15590   5.374   0.489   2.069  0.3031 -1.3175 -0.0903
  143OSM    H3S15591   5.316   0.436   1.991 -1.0188 -1.1016  0.7216
  143OSM     O315592   5.444   0.598   2.014  0.0718 -0.3130 -0.1602
  143OSM    HO315593   5.533   0.562   2.016 -0.7713 -2.4975  0.7819
  143OSM    C4S15594   5.280   0.551   2.169  0.1603  0.1143 -0.3553
  143OSM    H4S15595   5.333   0.607   2.248  0.5638  0.7490 -1.0576
  143OSM    C5S15596   5.146   0.556   2.150 -0.1804 -0.0771  0.3191
  143OSM    H5S15597   5.093   0.519   2.061  0.3032  1.3086 -0.5776
  143OSM    C6S15598   5.049   0.623   2.243  0.0999 -0.0322  0.1380
  143OSM    H6S15599   4.950   0.574   2.255  0.9727 -2.1063 -0.6789
  143OSM    H6T15600   5.025   0.717   2.187 -2.4733 -0.1223  0.9347
  143OSM    C7S15601   5.077   0.664   2.389 -0.5179  0.2726 -0.2845
  143OSM    H7S15602   4.993   0.726   2.426  0.0130 -0.1166  1.7418
  143OSM    H7T15603   5.166   0.731   2.388  0.5594 -1.0890 -2.5196
  143OSM    C8S15604   5.103   0.548   2.484 -0.0585  0.4007 -0.7348
  143OSM    H8S15605   5.167   0.470   2.438  0.8932 -0.2845  1.5857
  143OSM    H8T15606   5.011   0.490   2.510 -0.2963 -0.3651 -3.0945
  143OSM    C9S15607   5.180   0.594   2.613  0.8846  0.1290  0.4657
  143OSM    H9S15608   5.251   0.677   2.596  2.2158 -1.0598  0.0441
  143OSM    H9T15609   5.237   0.501   2.638  0.4024 -0.5070 -0.7065
  143OSM   C10S15610   5.080   0.644   2.722  0.0849  0.5970  0.5348
  143OSM   H10S15611   5.000   0.567   2.714 -0.7029  1.6058 -3.4090
  143OSM   H10T15612   5.040   0.738   2.680 -1.5687 -0.4643 -0.3898
  143OSM   C11S15613   5.136   0.659   2.860  0.3569  0.6318  0.3485
  143OSM   H11S15614   5.224   0.726   2.870 -0.7550  2.4208 -1.1454
  143OSM   H11T15615   5.160   0.561   2.908 -1.1037  0.5419  0.9363
  143OSM   C12S15616   5.028   0.701   2.965 -0.5029  0.3789 -0.1622
  143OSM   H12S15617   4.944   0.629   2.976  0.5233 -0.7086  0.7292
  143OSM   H12T15618   4.985   0.792   2.919  0.0700  0.9381  0.4081
  143OSM   C13S15619   5.094   0.738   3.097 -0.7506  0.2426 -0.1960
  143OSM   H13S15620   5.035   0.810   3.158 -0.8378 -1.1226  1.4275
  143OSM   H13T15621   5.189   0.794   3.083 -0.4491 -0.2232 -0.0456
  143OSM   C14S15622   5.104   0.612   3.180  0.5938  0.2820  0.1367
  143OSM   H14S15623   5.162   0.533   3.129 -2.1242 -1.6051 -0.2248
  143OSM   H14T15624   5.005   0.573   3.210 -0.9717  3.2498 -0.7390
  143OSM   C15S15625   5.181   0.651   3.307 -0.1468 -0.4166 -0.1853
  143OSM   H15S15626   5.270   0.713   3.280  0.5383 -0.3780  1.9939
  143OSM   H15T15627   5.218   0.556   3.351  2.1756  0.8449  0.8057
  143OSM   C16S15628   5.114   0.737   3.414 -0.7335 -0.3990  0.1439
  143OSM   H16S15629   5.023   0.685   3.452 -0.8159 -1.2606 -1.1413
  143OSM   H16T15630   5.088   0.834   3.367  3.0192  0.6657 -0.0810
  143OSM   C17S15631   5.215   0.764   3.529  0.3128 -0.3795 -0.1065
  143OSM   H17S15632   5.307   0.808   3.484  2.5393 -2.9414  1.5971
  143OSM   H17T15633   5.234   0.660   3.563  0.7896  0.2162  1.5974
  143OSM   C18S15634   5.168   0.844   3.650 -0.5838 -0.4635  0.0900
  143OSM   H18S15635   5.157   0.950   3.619  0.1076 -0.9708 -2.0557
  143OSM   H18T15636   5.249   0.848   3.726 -0.5035 -1.4630  0.0653
  143OSM   H18U15637   5.070   0.801   3.677 -1.3704 -1.2694 -3.4638
  143OSM    C1F15638   5.436   0.225   2.326  0.3308  0.0592 -0.2829
  143OSM     OF15639   5.555   0.222   2.335 -0.3179 -0.3455  0.0331
  143OSM    C2F15640   5.356   0.141   2.420 -0.2311 -0.2064 -0.2430
  143OSM    H2F15641   5.373   0.036   2.389 -0.8441  0.2659 -2.3842
  143OSM    H2G15642   5.253   0.175   2.393 -0.0416  1.4777  1.0359
  143OSM    C3F15643   5.382   0.189   2.568 -0.1657  0.2760  0.6097
  143OSM    H3F15644   5.388   0.300   2.562 -0.7665  0.3915  1.8107
  143OSM    H3G15645   5.474   0.140   2.605 -0.2288 -2.3107 -2.3036
  143OSM    C4F15646   5.259   0.157   2.652  0.6933 -0.7773  0.2340
  143OSM    H4F15647   5.240   0.048   2.644  0.9079 -0.8441  0.6095
  143OSM    H4G15648   5.174   0.205   2.599  0.8276 -0.6585  0.1247
  143OSM    C5F15649   5.269   0.201   2.800  0.5380  0.0712  0.7294
  143OSM    H5F15650   5.343   0.283   2.811  0.1982  1.0114 -2.7690
  143OSM    H5G15651   5.309   0.118   2.862  1.5413  0.4988  0.6604
  143OSM    C6F15652   5.134   0.252   2.859  0.0278 -0.0950  0.6905
  143OSM    H6F15653   5.062   0.177   2.821 -0.4155 -0.4493  2.1571
  143OSM    H6G15654   5.117   0.354   2.818 -0.0098 -0.4848 -0.3003
  143OSM    C7F15655   5.108   0.250   3.009  0.9054  0.1106 -0.1234
  143OSM    H7F15656   5.000   0.274   3.002  1.2634  1.3293 -3.3617
  143OSM    H7G15657   5.165   0.334   3.054  1.2906 -0.8499  1.2653
  143OSM    C8F15658   5.137   0.111   3.075 -0.2018 -0.6511  0.0999
  143OSM    H8F15659   5.246   0.098   3.096 -0.3557 -2.1922  0.0520
  143OSM    H8G15660   5.109   0.035   2.999  0.8848  0.0770 -1.0683
  143OSM    C9F15661   5.056   0.099   3.197  0.4838  0.1971  0.3023
  143OSM    H9F15662   4.959   0.047   3.190  1.0289 -0.7977 -0.1015
  143OSM   C10F15663   5.093   0.143   3.321  1.0453  0.7125 -0.3676
  143OSM   H10F15664   5.009   0.128   3.391  0.9892 -0.9867 -0.7713
  143OSM   C11F15665   5.218   0.216   3.368 -0.0316 -0.2091 -0.5258
  143OSM   H11F15666   5.256   0.274   3.282  2.0920 -2.5390 -1.2555
  143OSM   H11G15667   5.296   0.148   3.409  1.0825  0.9307 -0.7007
  143OSM   C12F15668   5.192   0.317   3.484  0.2350 -0.3541  0.4342
  143OSM   H12F15669   5.099   0.377   3.467  1.2205  0.5860 -2.1275
  143OSM   H12G15670   5.268   0.397   3.470 -0.8931  0.4705 -1.3296
  143OSM   C13F15671   5.196   0.268   3.626  0.2704  0.4437  0.1581
  143OSM   H13F15672   5.290   0.209   3.639  0.2603  0.3368 -0.2405
  143OSM   H13G15673   5.108   0.203   3.648  0.1577  0.0651 -1.3232
  143OSM   C14F15674   5.209   0.386   3.726 -0.0414  0.5322 -0.3437
  143OSM   H14F15675   5.273   0.467   3.685  2.3598 -0.5227  1.0900
  143OSM   H14G15676   5.253   0.344   3.819 -0.0565  1.4673  0.0963
  143OSM   C15F15677   5.071   0.432   3.770  0.3108 -0.7468 -0.4238
  143OSM   H15F15678   5.011   0.354   3.820 -0.2915  0.9731  1.7025
  143OSM   H15G15679   5.022   0.486   3.686  1.6119  1.5560  0.2192
  143OSM   C16F15680   5.079   0.548   3.876  0.4582 -0.9537 -0.6721
  143OSM   H16F15681   4.973   0.571   3.900  0.4190 -1.1483 -0.6604
  143OSM   H16G15682   5.120   0.639   3.827  1.9890 -1.1307  0.2275
  143OSM   C17F15683   5.159   0.515   4.003 -0.4398  0.4955  0.6767
  143OSM   H17F15684   5.262   0.489   3.971 -0.4776  0.3864  0.6423
  143OSM   H17G15685   5.126   0.419   4.049  0.2468  0.3501  0.8840
  143OSM   C18F15686   5.179   0.628   4.099  0.0497 -0.1224  0.5417
  143OSM   H18F15687   5.216   0.715   4.040 -2.8597  0.4406 -0.5871
  143OSM   H18G15688   5.251   0.599   4.179 -0.0795 -1.3298  0.2303
  143OSM   H18H15689   5.082   0.649   4.147 -0.1614 -0.3090  0.1980
  144OSM      N15690   5.506   2.340   2.139  0.7631  0.5343  0.6431
  144OSM    C1515691   5.436   2.357   2.013 -0.5664 -0.0822 -0.2453
  144OSM   H15A15692   5.487   2.295   1.940  0.9689 -0.3746  1.0141
  144OSM   H15B15693   5.453   2.461   1.989  1.4974 -0.3184 -0.0234
  144OSM   H15C15694   5.329   2.351   2.023 -0.4494 -1.5057  0.4815
  144OSM    C1415695   5.638   2.390   2.103  0.0332 -0.8071 -0.0948
  144OSM   H14A15696   5.630   2.498   2.093 -0.5429 -0.7525  0.8597
  144OSM   H14B15697   5.689   2.347   2.019 -0.1036  0.4504 -0.8578
  144OSM   H14C15698   5.708   2.375   2.183  0.3033  1.5497  0.1942
  144OSM    C1315699   5.446   2.428   2.248 -0.6416  0.3593  0.5296
  144OSM   H13A15700   5.523   2.439   2.322  0.8730 -2.3983 -0.4712
  144OSM   H13B15701   5.365   2.379   2.300  0.0756  1.6540  2.9947
  144OSM   H13C15702   5.420   2.526   2.211 -3.0663 -0.7236 -0.8573
  144OSM    C1215703   5.491   2.189   2.178 -0.3108 -0.3666 -0.2122
  144OSM   H12A15704   5.504   2.137   2.084 -0.5061 -0.0306 -0.4268
  144OSM   H12B15705   5.387   2.170   2.200 -0.7003  1.5752 -0.2186
  144OSM    C1115706   5.568   2.124   2.298 -1.2646 -0.1475  0.3592
  144OSM   H11A15707   5.565   2.014   2.319 -0.8013 -0.8720 -2.8898
  144OSM   H11B15708   5.513   2.174   2.381 -1.2426 -0.2707  0.4494
  144OSM      P15709   5.822   2.062   2.247  0.0474  0.0031 -0.2307
  144OSM    O1315710   5.802   2.017   2.110  0.3021  0.3035 -0.1217
  144OSM    O1415711   5.953   2.128   2.278  0.0292  0.2279  0.1459
  144OSM    O1115712   5.800   1.944   2.348 -0.9220 -0.0046 -0.2140
  144OSM    O1215713   5.708   2.163   2.293 -0.2631 -0.0719 -0.0834
  144OSM    C1S15714   5.859   1.930   2.476  0.0967  0.0662  0.2766
  144OSM    H1S15715   5.931   2.011   2.500 -1.4217  1.4358  0.4542
  144OSM    H1T15716   5.923   1.840   2.481 -0.5579 -0.5529 -1.6463
  144OSM     NF15717   5.790   1.921   2.710 -0.0555 -0.6467  0.4845
  144OSM    HNF15718   5.811   1.831   2.747  0.7522  0.1357  2.0736
  144OSM    C2S15719   5.739   1.906   2.578 -0.5870 -0.3222 -0.8933
  144OSM    H2S15720   5.675   1.994   2.555 -2.8312 -1.5522  0.3074
  144OSM    C3S15721   5.661   1.769   2.549  0.5987 -0.2394 -0.9415
  144OSM    H3S15722   5.725   1.699   2.608  1.1989 -0.9269 -2.3622
  144OSM     O315723   5.678   1.721   2.415  0.0653 -0.4137  0.1208
  144OSM    HO315724   5.725   1.797   2.380  0.1569  0.3474  1.7987
  144OSM    C4S15725   5.518   1.762   2.599 -0.4236  0.7591 -0.2906
  144OSM    H4S15726   5.447   1.840   2.568 -1.1658 -0.4086 -1.6092
  144OSM    C5S15727   5.469   1.658   2.677 -0.5379 -0.8151 -1.4598
  144OSM    H5S15728   5.524   1.565   2.699  0.9329  0.4632  0.5370
  144OSM    C6S15729   5.330   1.648   2.739 -0.0773  0.3217 -0.4608
  144OSM    H6S15730   5.263   1.588   2.675 -0.5113  0.7940 -0.4571
  144OSM    H6T15731   5.283   1.749   2.736 -1.0631 -0.0425  1.1141
  144OSM    C7S15732   5.331   1.613   2.882  0.3187  0.3443  0.6665
  144OSM    H7S15733   5.376   1.513   2.900  0.5793  0.4425  0.5628
  144OSM    H7T15734   5.229   1.602   2.925  0.7087 -0.6694  1.3817
  144OSM    C8S15735   5.407   1.713   2.975 -0.0129 -0.1648 -0.3492
  144OSM    H8S15736   5.369   1.817   2.963 -2.6308 -0.8796  0.8960
  144OSM    H8T15737   5.515   1.711   2.951  0.1805 -0.7722  0.5217
  144OSM    C9S15738   5.394   1.668   3.122 -0.7184  1.0126 -0.3068
  144OSM    H9S15739   5.418   1.560   3.136  0.1074  1.4643  2.1574
  144OSM    H9T15740   5.288   1.677   3.152 -0.1250  0.9537  1.9479
  144OSM   C10S15741   5.472   1.757   3.216  0.0491 -0.0185 -0.1042
  144OSM   H10S15742   5.441   1.863   3.207 -1.0450 -0.1981  1.1439
  144OSM   H10T15743   5.582   1.753   3.205  0.4145  2.8933  1.5423
  144OSM   C11S15744   5.450   1.709   3.364 -0.3970 -0.1355 -0.5420
  144OSM   H11S15745   5.503   1.612   3.373 -1.0831 -0.6225 -1.4476
  144OSM   H11T15746   5.342   1.687   3.381 -0.5552  1.6035  1.0261
  144OSM   C12S15747   5.500   1.816   3.462 -0.0004 -0.6237  0.1250
  144OSM   H12S15748   5.447   1.911   3.437 -0.6102 -1.0304 -0.1380
  144OSM   H12T15749   5.605   1.852   3.467 -0.5766  0.9943  1.5289
  144OSM   C13S15750   5.454   1.789   3.606 -0.3608 -0.0168  0.0232
  144OSM   H13S15751   5.481   1.684   3.629  1.0890  0.6492  1.5782
  144OSM   H13T15752   5.342   1.792   3.607 -0.4513 -0.7916 -2.2019
  144OSM   C14S15753   5.511   1.885   3.702 -0.2937 -0.2298 -0.6002
  144OSM   H14S15754   5.469   1.983   3.673 -0.2811 -0.0681 -0.0842
  144OSM   H14T15755   5.621   1.895   3.702 -0.1487 -1.0348  1.8236
  144OSM   C15S15756   5.460   1.852   3.839 -0.2420 -0.8702  0.1048
  144OSM   H15S15757   5.515   1.762   3.874 -1.3957 -1.3851  0.6420
  144OSM   H15T15758   5.350   1.837   3.843 -0.5025  1.0061  1.4246
  144OSM   C16S15759   5.487   1.974   3.930 -0.1503  0.0839  0.5961
  144OSM   H16S15760   5.416   2.059   3.921 -3.6315 -2.0265  4.5245
  144OSM   H16T15761   5.582   2.018   3.893 -0.3458 -0.1551 -0.2054
  144OSM   C17S15762   5.495   1.949   4.078  0.7778 -0.5785  0.4364
  144OSM   H17S15763   5.567   1.872   4.112 -0.7352 -2.0258  0.4915
  144OSM   H17T15764   5.392   1.918   4.107 -0.1688  0.2315 -1.8291
  144OSM   C18S15765   5.526   2.080   4.149  0.3478 -0.2570  0.3935
  144OSM   H18S15766   5.622   2.127   4.118 -0.2454  1.5273  1.1700
  144OSM   H18T15767   5.511   2.061   4.257 -0.7658 -2.5985 -0.0966
  144OSM   H18U15768   5.445   2.151   4.121  1.0076 -0.0603 -1.1281
  144OSM    C1F15769   5.848   2.035   2.758 -0.7193 -0.1227  0.3127
  144OSM     OF15770   5.835   2.140   2.704 -0.3284 -0.1577  0.1209
  144OSM    C2F15771   5.931   2.018   2.885 -0.4903  0.3437  0.7795
  144OSM    H2F15772   6.017   1.956   2.853 -0.5039  1.5428 -1.7835
  144OSM    H2G15773   5.873   1.969   2.967  1.7456 -0.6774  1.8656
  144OSM    C3F15774   6.001   2.147   2.920  0.7914  0.5797 -0.0450
  144OSM    H3F15775   5.925   2.227   2.909  1.1719  0.7681 -1.4119
  144OSM    H3G15776   6.078   2.174   2.845  1.4580  1.1967  0.8407
  144OSM    C4F15777   6.082   2.146   3.052  0.2961 -0.1760 -0.5793
  144OSM    H4F15778   6.143   2.238   3.038 -1.9336  1.6120  0.5680
  144OSM    H4G15779   6.150   2.058   3.052 -0.4541 -0.8045  1.1983
  144OSM    C5F15780   5.988   2.163   3.175  0.1070 -0.7330  0.1380
  144OSM    H5F15781   5.884   2.138   3.146  0.5635  0.5083 -2.8677
  144OSM    H5G15782   5.989   2.270   3.204  0.1640 -0.6066 -0.3323
  144OSM    C6F15783   6.040   2.073   3.291 -0.0487  0.0006  0.5705
  144OSM    H6F15784   6.137   2.106   3.335  0.2573  1.2085 -0.9430
  144OSM    H6G15785   6.054   1.974   3.242  1.1788  0.0934  0.7049
  144OSM    C7F15786   5.934   2.060   3.402  0.9853 -0.1365  0.4271
  144OSM    H7F15787   5.842   2.021   3.354  0.6748  0.3983  0.5813
  144OSM    H7G15788   5.910   2.159   3.447  3.6253  0.2689  1.1461
  144OSM    C8F15789   5.974   1.980   3.523 -0.1955 -0.2045 -0.3000
  144OSM    H8F15790   6.076   2.007   3.557 -1.5476  2.6139  1.9362
  144OSM    H8G15791   5.966   1.870   3.505  0.3241 -1.0373  3.6136
  144OSM    C9F15792   5.874   2.008   3.632  0.5238  0.1982 -0.4477
  144OSM    H9F15793   5.784   2.060   3.597 -0.1847  0.1019  1.1548
  144OSM   C10F15794   5.878   1.983   3.766  0.4641  0.4064  0.3874
  144OSM   H10F15795   5.789   1.998   3.829 -1.4254  0.6003 -2.1546
  144OSM   C11F15796   5.982   1.893   3.816  0.7866  0.6896 -0.0559
  144OSM   H11F15797   6.068   1.888   3.746  0.6063  2.5252 -0.4597
  144OSM   H11G15798   5.938   1.795   3.841  1.3736  0.6339  0.7806
  144OSM   C12F15799   6.036   1.937   3.951  0.1996 -0.5997  0.0801
  144OSM   H12F15800   6.063   2.044   3.935 -0.4446 -0.4729 -0.2080
  144OSM   H12G15801   6.132   1.884   3.966 -0.2034 -1.5775 -0.6593
  144OSM   C13F15802   5.954   1.912   4.076 -0.5877 -0.0547 -0.4132
  144OSM   H13F15803   5.951   1.803   4.095  0.5408  0.1255  0.9474
  144OSM   H13G15804   5.848   1.943   4.063 -0.2824  1.2756  0.1095
  144OSM   C14F15805   6.018   1.972   4.202  0.7004  0.6604  0.4206
  144OSM   H14F15806   5.996   2.080   4.213 -3.9668 -0.2282  2.4207
  144OSM   H14G15807   6.125   1.946   4.187  0.3225 -1.2199  0.6678
  144OSM   C15F15808   5.959   1.910   4.321  0.5197  0.9567 -0.3134
  144OSM   H15F15809   6.023   1.930   4.410 -0.9634 -3.0869  1.9381
  144OSM   H15G15810   5.968   1.799   4.319  1.5355  1.0439 -1.3974
  144OSM   C16F15811   5.815   1.947   4.345  0.6786  1.4952  0.1054
  144OSM   H16F15812   5.753   1.918   4.257 -0.2264  0.6999  0.9746
  144OSM   H16G15813   5.818   2.058   4.341 -0.7837  1.5522  0.1147
  144OSM   C17F15814   5.756   1.893   4.477 -0.1558 -0.6219 -0.4411
  144OSM   H17F15815   5.650   1.927   4.479 -0.2388 -0.8929 -0.0577
  144OSM   H17G15816   5.814   1.930   4.564 -0.3555 -3.4874  1.0298
  144OSM   C18F15817   5.755   1.741   4.513 -0.0098  0.1266  0.4681
  144OSM   H18F15818   5.860   1.703   4.519 -0.3346 -0.8435  0.2770
  144OSM   H18G15819   5.716   1.673   4.435  0.5768 -3.7100  3.1952
  144OSM   H18H15820   5.703   1.720   4.609  0.4837 -0.5470  0.5998
  145SAPE     N15821   2.657   1.888   6.668 -0.3757 -0.3956  0.1299
  145SAPE   HN115822   2.727   1.959   6.637 -1.0087  0.3438  0.3590
  145SAPE   HN215823   2.603   1.857   6.585  0.6101  1.4605 -1.2882
  145SAPE   HN315824   2.596   1.950   6.725 -1.1668  0.4775 -1.5780
  145SAPE   C1215825   2.716   1.765   6.740  0.7021 -0.4009  0.3785
  145SAPE  H12A15826   2.657   1.748   6.832  1.6343 -2.5518  0.6403
  145SAPE  H12B15827   2.815   1.797   6.779  0.5142  0.0688  0.4757
  145SAPE   C1115828   2.717   1.645   6.642  0.7166  0.1133  0.4722
  145SAPE  H11A15829   2.750   1.556   6.700 -2.4740 -2.0287 -0.6938
  145SAPE  H11B15830   2.795   1.662   6.566 -0.9815 -0.8891 -1.6035
  145SAPE     P15831   2.490   1.508   6.609  0.0475  0.2746  0.0176
  145SAPE   O1315832   2.491   1.469   6.753 -0.5846 -0.4706 -0.0828
  145SAPE   O1415833   2.365   1.544   6.539  0.9142 -0.5298 -0.0162
  145SAPE   O1215834   2.591   1.623   6.583 -0.4472  0.1652  0.2117
  145SAPE   O1115835   2.551   1.383   6.531  0.4759 -0.3883 -0.2339
  145SAPE    C115836   2.607   1.404   6.399 -0.4840 -0.0995 -0.1739
  145SAPE    HA15837   2.607   1.505   6.353  4.3024 -0.7815 -2.2724
  145SAPE    HB15838   2.717   1.389   6.389 -0.3396  0.4346  0.4839
  145SAPE    C215839   2.531   1.324   6.293  0.1389 -0.2434  0.6625
  145SAPE    HS15840   2.566   1.221   6.317 -0.2320 -0.5236  0.0216
  145SAPE   O2115841   2.550   1.365   6.150  0.3787  0.5466  0.0549
  145SAPE   C2115842   2.671   1.349   6.104 -0.2014 -0.3685  0.3260
  145SAPE   O2215843   2.764   1.304   6.167  0.6966 -0.8913 -0.1293
  145SAPE   C2215844   2.682   1.390   5.957  0.0720 -0.2100  0.0462
  145SAPE   H2R15845   2.655   1.497   5.962  1.6648  0.1822  0.7341
  145SAPE   H2S15846   2.791   1.381   5.934  0.3343 -0.9675  1.4685
  145SAPE    C315847   2.378   1.319   6.301 -0.7766 -0.1450  0.4054
  145SAPE    HX15848   2.335   1.417   6.273 -1.0798 -0.5685 -0.6533
  145SAPE    HY15849   2.337   1.312   6.404 -1.0273  0.9446  0.3923
  145SAPE   O3115850   2.318   1.214   6.218  0.6063 -0.1791 -0.0102
  145SAPE   C3115851   2.182   1.208   6.235  0.2940  0.3598  0.0762
  145SAPE   O3215852   2.115   1.275   6.311  0.7332  0.0642 -0.3966
  145SAPE   C3215853   2.130   1.083   6.156 -0.0474 -0.8071 -0.0088
  145SAPE   H2X15854   2.020   1.085   6.166  0.0447 -1.9223  1.5703
  145SAPE   H2Y15855   2.192   1.007   6.210  2.8279  2.9964  2.5548
  145SAPE   C2315856   2.607   1.302   5.860  0.3176  0.1126 -0.3845
  145SAPE   H3R15857   2.592   1.356   5.765 -2.1826 -1.9100 -1.2603
  145SAPE   H3S15858   2.501   1.291   5.890  0.2014 -1.8304 -1.3240
  145SAPE   C2415859   2.669   1.167   5.832 -0.0420  0.9491  0.0744
  145SAPE   H4R15860   2.671   1.111   5.928  1.0798  0.2665 -0.3254
  145SAPE   H4S15861   2.776   1.179   5.804 -0.0171  1.6823  0.4375
  145SAPE   C2515862   2.609   1.083   5.723 -1.1494  0.1581  0.1511
  145SAPE   H5R15863   2.522   1.024   5.753  0.6976 -2.1897  1.1948
  145SAPE   C2615864   2.627   1.083   5.584  0.3237 -0.2465 -1.2604
  145SAPE   H6R15865   2.565   1.012   5.526  2.6754 -2.4403 -1.2769
  145SAPE   C2715866   2.731   1.164   5.505  0.7180 -0.5003  0.2100
  145SAPE   H7R15867   2.812   1.211   5.564  0.0271 -1.8987  2.3973
  145SAPE   H7S15868   2.676   1.245   5.452 -0.0489  1.1994  3.3324
  145SAPE   C2815869   2.802   1.065   5.415 -0.2088  0.8965  0.2802
  145SAPE   H8R15870   2.892   1.021   5.462  0.7781  2.6806  0.1315
  145SAPE   C2915871   2.782   1.035   5.289 -0.2851 -0.1903 -0.3521
  145SAPE   H9R15872   2.839   0.952   5.244  0.7448  0.1409  0.3102
  145SAPE  C21015873   2.673   1.074   5.198 -0.0121  0.1687  0.3714
  145SAPE  H10R15874   2.718   1.112   5.104 -0.2418  0.3341  0.3300
  145SAPE  H10S15875   2.612   1.160   5.232 -1.7424 -1.2483  0.9831
  145SAPE  C21115876   2.579   0.960   5.169 -0.2904  0.1266 -0.7741
  145SAPE  H11R15877   2.558   0.897   5.257 -1.2195  3.1512  1.3058
  145SAPE  C21215878   2.532   0.910   5.057  0.5984  0.0022  0.6517
  145SAPE  H12R15879   2.469   0.820   5.066  1.4046 -1.0564 -2.6895
  145SAPE  C21315880   2.565   0.970   4.913  1.1577  0.3105  0.1137
  145SAPE  H13R15881   2.666   0.932   4.887  0.2367 -0.3557 -2.8896
  145SAPE  H13S15882   2.572   1.081   4.917 -1.0571  0.5476 -1.2551
  145SAPE  C21415883   2.467   0.921   4.808 -0.1327 -0.0107 -1.0011
  145SAPE  H14R15884   2.362   0.906   4.840  0.1441  0.3123  0.1068
  145SAPE  C21515885   2.502   0.881   4.686  0.0660 -0.9854  0.1163
  145SAPE  H15R15886   2.426   0.865   4.608  0.0670 -0.0007 -0.0951
  145SAPE  C21615887   2.639   0.895   4.627  0.2277 -0.3030 -0.3996
  145SAPE  H16R15888   2.683   0.805   4.578  2.3050 -0.0989  0.9971
  145SAPE  H16S15889   2.720   0.939   4.689  0.6479 -0.8746 -0.5301
  145SAPE  C21715890   2.630   1.002   4.515  0.1200 -0.5667  0.0907
  145SAPE  H17R15891   2.622   1.100   4.565  0.0681 -0.2002 -0.6210
  145SAPE  H17S15892   2.540   1.004   4.450  0.1271  2.4268  0.0221
  145SAPE  C21815893   2.750   0.994   4.432 -0.5278 -0.0759  0.3216
  145SAPE  H18R15894   2.765   0.892   4.390 -0.0560  0.1573 -0.0895
  145SAPE  H18S15895   2.834   1.015   4.501 -0.8412  0.8490  0.4306
  145SAPE  C21915896   2.766   1.094   4.314  0.2427  0.1198  0.0126
  145SAPE  H19R15897   2.761   1.197   4.355 -0.8180  0.2932 -0.5192
  145SAPE  H19S15898   2.665   1.084   4.269  0.2666  2.4647 -0.6637
  145SAPE  C22015899   2.870   1.058   4.211  0.3389  0.5707 -0.1267
  145SAPE  H20R15900   2.850   0.962   4.159 -2.1760  1.1300 -0.3381
  145SAPE  H20S15901   2.966   1.046   4.265 -1.1752 -0.3295  2.5693
  145SAPE  H20T15902   2.880   1.137   4.133  1.3482  0.1229 -0.4587
  145SAPE   C3315903   2.160   1.090   6.007  0.3803 -0.5883  0.0804
  145SAPE   H3X15904   2.160   0.989   5.961  1.7485 -1.3323  1.6331
  145SAPE   H3Y15905   2.260   1.133   5.982  1.0197  0.5976  3.9210
  145SAPE   C3415906   2.052   1.172   5.928 -0.1753  0.4002 -0.3156
  145SAPE   H4X15907   2.012   1.261   5.982 -0.8917  1.7836 -2.9435
  145SAPE   H4Y15908   1.959   1.116   5.907 -1.0025  0.7380  2.0711
  145SAPE   C3515909   2.109   1.223   5.802 -0.3025 -0.3791  0.3533
  145SAPE   H5X15910   2.195   1.291   5.816  0.0421 -0.5032 -0.9772
  145SAPE   H5Y15911   2.034   1.288   5.751  0.6641 -1.1372 -2.2170
  145SAPE   C3615912   2.142   1.113   5.695 -0.7870 -0.2001 -0.1884
  145SAPE   H6X15913   2.051   1.052   5.684 -0.0872 -1.0120 -1.8086
  145SAPE   H6Y15914   2.227   1.059   5.742  0.6118  1.4222 -0.7514
  145SAPE   C3715915   2.181   1.163   5.554  0.4486  0.4057  0.1193
  145SAPE   H7X15916   2.266   1.235   5.555  1.1028 -0.1759 -2.9236
  145SAPE   H7Y15917   2.097   1.207   5.497  0.2690 -1.8398 -1.5008
  145SAPE   C3815918   2.241   1.040   5.474  0.1795 -0.3393 -0.1132
  145SAPE   H8X15919   2.152   0.977   5.455  0.0505 -0.0457 -0.4889
  145SAPE   H8Y15920   2.315   0.997   5.545  0.9882  2.8431  1.1688
  145SAPE   C3915921   2.314   1.070   5.346 -0.1472 -0.1646 -0.2336
  145SAPE   H9X15922   2.320   0.973   5.293  2.3528 -1.6697  2.4481
  145SAPE   H9Y15923   2.418   1.103   5.371 -1.2132  1.5805  2.3156
  145SAPE  C31015924   2.241   1.165   5.251  0.5607 -0.0976 -0.2566
  145SAPE  H10X15925   2.224   1.262   5.303 -3.8152 -0.8466  0.0885
  145SAPE  H10Y15926   2.135   1.131   5.254 -0.2663  2.3220  2.4189
  145SAPE  C31115927   2.300   1.182   5.114 -0.5321 -0.0763  0.3814
  145SAPE  H11X15928   2.273   1.094   5.051  1.7504 -0.0316 -0.7626
  145SAPE  H11Y15929   2.410   1.200   5.116 -0.5731  0.3461 -0.5633
  145SAPE  C31215930   2.245   1.312   5.055  0.0906 -0.5548 -0.0999
  145SAPE  H12X15931   2.242   1.393   5.131 -1.7678 -0.5594 -0.1161
  145SAPE  H12Y15932   2.144   1.282   5.020 -0.8030  2.4686 -0.4669
  145SAPE  C31315933   2.329   1.350   4.931 -0.4731 -0.5846 -0.0450
  145SAPE  H13X15934   2.434   1.315   4.936 -0.2743  0.1125  0.6938
  145SAPE  H13Y15935   2.328   1.460   4.943  0.5026 -0.6226  0.4459
  145SAPE  C31415936   2.262   1.308   4.801  0.1383 -0.1055  0.4630
  145SAPE  H14X15937   2.157   1.344   4.794  0.0397 -0.5569 -0.5743
  145SAPE  H14Y15938   2.259   1.200   4.776  0.1924 -0.4434  1.8703
  145SAPE  C31515939   2.324   1.376   4.677 -0.1084  0.3827  0.3043
  145SAPE  H15X15940   2.433   1.352   4.677  0.5100  2.8739  0.8295
  145SAPE  H15Y15941   2.320   1.485   4.698 -1.4811 -0.0713  2.7499
  145SAPE  C31615942   2.260   1.329   4.544 -0.5831 -0.0940 -0.1617
  145SAPE  H16X15943   2.228   1.223   4.546  0.2114 -0.3315  0.4080
  145SAPE  H16Y15944   2.334   1.350   4.464  0.4926 -2.7715  0.0438
  145SAPE  C31715945   2.141   1.422   4.498 -0.1359 -0.7326 -0.5191
  145SAPE  H17X15946   2.074   1.440   4.585 -0.5496  2.1014 -1.3147
  145SAPE  H17Y15947   2.082   1.375   4.417 -1.3980 -2.1694  1.1622
  145SAPE  C31815948   2.182   1.564   4.451 -0.0722  0.0846 -0.3248
  145SAPE  H18X15949   2.230   1.564   4.351  0.0475  0.9191 -0.2712
  145SAPE  H18Y15950   2.236   1.616   4.533 -0.9210  3.2151 -1.6148
  145SAPE  H18Z15951   2.089   1.621   4.433 -0.0060 -0.5120 -3.0346
  146SAPE     N15952   4.344   1.070   6.189 -0.4427 -0.3791 -0.2524
  146SAPE   HN115953   4.334   1.143   6.262 -0.5592 -1.3490  0.7336
  146SAPE   HN215954   4.337   0.979   6.239  2.3372 -0.6910 -0.2536
  146SAPE   HN315955   4.443   1.070   6.155 -0.3349  0.4556  0.0367
  146SAPE   C1215956   4.268   1.098   6.065 -0.7157  0.8995  0.0357
  146SAPE  H12A15957   4.242   0.998   6.026 -0.5643  1.1404 -0.7031
  146SAPE  H12B15958   4.325   1.163   5.995 -1.2625  1.4344  0.0707
  146SAPE   C1115959   4.131   1.163   6.096  0.1838  0.0022 -0.5179
  146SAPE  H11A15960   4.083   1.183   5.998  0.5736  0.5069 -0.6130
  146SAPE  H11B15961   4.138   1.260   6.150 -0.6770  0.0249 -0.4436
  146SAPE     P15962   3.982   1.093   6.296  0.1618  0.0080 -0.1630
  146SAPE   O1315963   3.975   0.964   6.370 -0.1662  0.0694  0.1878
  146SAPE   O1415964   4.048   1.205   6.368  0.6011  0.3648  0.5346
  146SAPE   O1215965   4.060   1.061   6.164 -0.0256 -0.2008  0.0393
  146SAPE   O1115966   3.837   1.145   6.242 -0.1135  0.2129 -0.2350
  146SAPE    C115967   3.774   1.069   6.129 -1.1272 -0.2504 -1.0080
  146SAPE    HA15968   3.836   1.085   6.038  1.7564  0.7157  0.9742
  146SAPE    HB15969   3.768   0.960   6.147 -1.4820 -0.1372 -0.4161
  146SAPE    C215970   3.634   1.126   6.099  0.7615 -0.9135 -0.6621
  146SAPE    HS15971   3.583   1.098   6.194  1.7795 -0.4491  0.0364
  146SAPE   O2115972   3.574   1.072   5.986  0.0995 -0.3109 -0.0057
  146SAPE   C2115973   3.507   0.957   6.000 -1.2466 -0.2435 -0.1248
  146SAPE   O2215974   3.475   0.904   6.106 -0.3498  0.7112 -0.5068
  146SAPE   C2215975   3.459   0.908   5.870  0.0850 -0.2293 -0.0408
  146SAPE   H2R15976   3.389   0.983   5.828 -1.2674 -1.5343 -0.1827
  146SAPE   H2S15977   3.550   0.892   5.808  1.4661 -1.8319  2.2477
  146SAPE    C315978   3.639   1.278   6.096 -0.2142  0.2129  0.3690
  146SAPE    HX15979   3.739   1.306   6.057 -0.1440  0.6692  0.8552
  146SAPE    HY15980   3.636   1.310   6.203  1.3050  2.5336 -0.2136
  146SAPE   O3115981   3.543   1.335   5.996 -0.2099  0.0720  0.3942
  146SAPE   C3115982   3.417   1.311   6.029  0.3284 -0.0560  0.6651
  146SAPE   O3215983   3.379   1.276   6.140  0.0820  0.5856 -0.9330
  146SAPE   C3215984   3.321   1.342   5.906 -0.2906  0.3220  0.2448
  146SAPE   H2X15985   3.380   1.307   5.819 -0.4907  2.2636 -0.7374
  146SAPE   H2Y15986   3.304   1.452   5.901 -1.8301  0.0985  0.1520
  146SAPE   C2315987   3.406   0.761   5.894 -0.3466  0.2594 -0.6948
  146SAPE   H3R15988   3.363   0.743   5.793  3.1209 -2.1669 -1.9655
  146SAPE   H3S15989   3.333   0.757   5.977  0.4485  0.2891  0.0175
  146SAPE   C2415990   3.518   0.651   5.909  0.1950 -0.9880  0.7306
  146SAPE   H4R15991   3.563   0.651   6.010 -0.4431  2.2302  1.1218
  146SAPE   H4S15992   3.602   0.677   5.841 -1.3029  0.6724 -0.5793
  146SAPE   C2515993   3.468   0.513   5.891 -0.0808  0.2087 -0.3849
  146SAPE   H5R15994   3.393   0.482   5.965  0.6487  0.5241  0.4993
  146SAPE   C2615995   3.493   0.426   5.788  0.0542  0.0559 -0.4304
  146SAPE   H6R15996   3.452   0.326   5.810  4.1296 -1.2439  2.5633
  146SAPE   C2715997   3.561   0.456   5.660 -0.2056 -0.0123  0.7015
  146SAPE   H7R15998   3.548   0.367   5.594  0.9174  0.3452 -0.0278
  146SAPE   H7S15999   3.669   0.466   5.683 -0.1531  0.9648  0.0898
  146SAPE   C2816000   3.514   0.569   5.578  0.2217 -0.0270 -1.0622
  146SAPE   H8R16001   3.404   0.570   5.572  0.2412  0.1932 -1.4016
  146SAPE   C2916002   3.578   0.654   5.499  0.1175 -0.5581 -0.5859
  146SAPE   H9R16003   3.515   0.708   5.427 -0.4230 -3.2027 -2.2293
  146SAPE  C21016004   3.726   0.664   5.483  0.2420  0.0920 -0.1958
  146SAPE  H10R16005   3.774   0.621   5.573 -0.7204  1.0552  0.7982
  146SAPE  H10S16006   3.764   0.768   5.480  4.0936 -1.1388 -0.2224
  146SAPE  C21116007   3.795   0.585   5.374 -0.1054 -0.2855  0.3005
  146SAPE  H11R16008   3.886   0.533   5.408 -0.8951 -0.6714  1.9387
  146SAPE  C21216009   3.774   0.571   5.242 -0.1962  0.2089  0.7419
  146SAPE  H12R16010   3.849   0.514   5.185 -1.6159 -1.1958  0.2091
  146SAPE  C21316011   3.669   0.648   5.158  0.1889  0.7176  0.6830
  146SAPE  H13R16012   3.583   0.680   5.220 -0.9542  0.0779 -0.5203
  146SAPE  H13S16013   3.635   0.588   5.070  0.2478  1.3486  0.2240
  146SAPE  C21416014   3.730   0.777   5.098  0.0293 -0.1814  0.4898
  146SAPE  H14R16015   3.696   0.871   5.143 -2.4398 -0.4483 -0.6506
  146SAPE  C21516016   3.809   0.788   4.989  0.0117 -0.0046  0.6750
  146SAPE  H15R16017   3.825   0.891   4.956 -4.0550  0.6285  0.1369
  146SAPE  C21616018   3.859   0.670   4.903  0.3557 -0.4850  0.1418
  146SAPE  H16R16019   3.838   0.570   4.948 -1.0064 -0.3268 -0.1181
  146SAPE  H16S16020   3.970   0.679   4.897  0.6582 -3.1352  0.4087
  146SAPE  C21716021   3.804   0.669   4.759 -0.3996  0.1540  0.1502
  146SAPE  H17R16022   3.693   0.678   4.754 -0.4739 -0.9113 -0.3317
  146SAPE  H17S16023   3.835   0.571   4.717 -3.6583 -2.7488  3.7110
  146SAPE  C21816024   3.879   0.778   4.678  0.6094  0.0358 -0.7505
  146SAPE  H18R16025   3.976   0.732   4.651  0.3567 -0.7490 -0.3299
  146SAPE  H18S16026   3.894   0.878   4.726 -3.7468  0.4082  0.2723
  146SAPE  C21916027   3.812   0.815   4.545  0.1778  0.0713  0.1951
  146SAPE  H19R16028   3.714   0.864   4.562 -0.1041 -0.8066  1.1221
  146SAPE  H19S16029   3.799   0.722   4.486 -0.2499 -1.9043  3.1980
  146SAPE  C22016030   3.892   0.916   4.467  0.5228  0.0177  0.4805
  146SAPE  H20R16031   4.001   0.902   4.482  0.9211  1.4692 -0.7553
  146SAPE  H20S16032   3.883   1.024   4.489  0.6076 -0.2588  2.0290
  146SAPE  H20T16033   3.885   0.888   4.360  1.5238 -2.0627  0.8977
  146SAPE   C3316034   3.183   1.270   5.906 -0.2006  0.2491 -0.4596
  146SAPE   H3X16035   3.125   1.325   5.983 -2.0574  0.4292 -1.9122
  146SAPE   H3Y16036   3.209   1.163   5.922  1.8916  0.8020  0.2427
  146SAPE   C3416037   3.115   1.269   5.768  0.0779 -0.1525 -0.1215
  146SAPE   H4X16038   3.007   1.245   5.778 -0.7189  1.8474 -2.6601
  146SAPE   H4Y16039   3.156   1.189   5.703 -1.9642 -1.2053 -0.1982
  146SAPE   C3516040   3.117   1.411   5.704 -0.0875  0.0078 -0.0071
  146SAPE   H5X16041   3.221   1.443   5.684 -1.2301  2.7656 -2.2884
  146SAPE   H5Y16042   3.086   1.487   5.778  1.1507  0.0436  0.4985
  146SAPE   C3616043   3.019   1.420   5.580 -0.4681 -0.2544 -0.1996
  146SAPE   H6X16044   3.024   1.524   5.540 -1.1086 -0.5026 -0.9704
  146SAPE   H6Y16045   2.913   1.399   5.606  0.0879  0.4748  3.1275
  146SAPE   C3716046   3.064   1.319   5.478 -0.1007  0.1689  0.2147
  146SAPE   H7X16047   3.020   1.219   5.498 -2.4385  0.0765 -4.1506
  146SAPE   H7Y16048   3.174   1.311   5.469 -0.1550 -1.0929  0.5498
  146SAPE   C3816049   3.001   1.344   5.337  0.2172  0.3076 -0.3905
  146SAPE   H8X16050   2.896   1.368   5.364  0.6558 -1.1829  3.1800
  146SAPE   H8Y16051   3.016   1.246   5.288  0.4178  0.0578  0.1650
  146SAPE   C3916052   3.069   1.452   5.256  0.2940 -0.5279 -0.3465
  146SAPE   H9X16053   3.106   1.531   5.326  1.6082 -0.5148 -1.0266
  146SAPE   H9Y16054   3.000   1.507   5.189  0.7060  1.3859  0.6979
  146SAPE  C31016055   3.181   1.397   5.167 -0.1289 -0.1328 -0.5398
  146SAPE  H10X16056   3.169   1.290   5.139  1.2262 -0.0358 -1.6147
  146SAPE  H10Y16057   3.273   1.387   5.229  0.9570 -0.1055 -2.0890
  146SAPE  C31116058   3.220   1.487   5.048  0.1432  0.8404  0.3024
  146SAPE  H11X16059   3.316   1.444   5.013 -0.6277  0.1873 -1.1036
  146SAPE  H11Y16060   3.225   1.593   5.078 -2.7136  0.9616  0.6222
  146SAPE  C31216061   3.121   1.462   4.928 -0.7100  0.0995  0.3821
  146SAPE  H12X16062   3.028   1.516   4.954  0.2338  2.3883 -0.6208
  146SAPE  H12Y16063   3.090   1.358   4.907 -0.7367 -0.3058  2.2691
  146SAPE  C31316064   3.178   1.526   4.799 -0.0962 -1.1482  0.3516
  146SAPE  H13X16065   3.253   1.453   4.763 -1.2603 -2.9165  1.3409
  146SAPE  H13Y16066   3.213   1.631   4.804  1.7829 -1.6233 -1.5717
  146SAPE  C31416067   3.074   1.545   4.695 -0.0225  0.2950 -0.0115
  146SAPE  H14X16068   3.115   1.602   4.609 -1.8506  0.3414 -0.9121
  146SAPE  H14Y16069   2.990   1.599   4.742 -0.7212 -1.4785  0.8904
  146SAPE  C31516070   3.011   1.421   4.647  0.6199 -0.4613  0.6569
  146SAPE  H15X16071   2.948   1.379   4.729 -0.0359  1.1140  1.0223
  146SAPE  H15Y16072   3.083   1.345   4.612 -1.4521 -2.3346  0.2005
  146SAPE  C31616073   2.922   1.442   4.513  0.2749 -0.1343  0.1944
  146SAPE  H16X16074   2.928   1.347   4.456 -1.1250 -0.8506  1.1647
  146SAPE  H16Y16075   2.960   1.525   4.450  0.5634 -1.7197 -1.8066
  146SAPE  C31716076   2.781   1.461   4.554  0.4556  0.0139  0.2060
  146SAPE  H17X16077   2.770   1.547   4.623  1.2036  0.3718 -0.1122
  146SAPE  H17Y16078   2.748   1.371   4.610 -1.1709 -0.6629 -1.6984
  146SAPE  C31816079   2.673   1.483   4.443  0.0749  0.0642  0.0631
  146SAPE  H18X16080   2.566   1.479   4.474 -0.8190  2.7366 -2.2215
  146SAPE  H18Y16081   2.685   1.391   4.382 -1.0947  1.1750 -1.9710
  146SAPE  H18Z16082   2.689   1.575   4.383 -0.3608 -0.0488 -0.2334
  147SAPE     N16083   1.226   5.746   6.400  0.1659 -0.2841  0.2815
  147SAPE   HN116084   1.306   5.689   6.434  0.0287 -1.0025 -0.5675
  147SAPE   HN216085   1.183   5.793   6.482  0.2743  1.1190 -0.4512
  147SAPE   HN316086   1.153   5.687   6.357 -0.5481  0.6268  0.2222
  147SAPE   C1216087   1.282   5.842   6.304  0.2646  0.7068 -0.3648
  147SAPE  H12A16088   1.353   5.787   6.239  0.9410  1.9896 -0.7540
  147SAPE  H12B16089   1.344   5.910   6.367  1.1001 -0.0197 -0.3730
  147SAPE   C1116090   1.184   5.928   6.220  0.4286 -0.2353 -0.2304
  147SAPE  H11A16091   1.132   5.856   6.153  1.2033  0.9140 -2.1314
  147SAPE  H11B16092   1.234   6.000   6.152 -0.7158  1.5156  0.6901
  147SAPE     P16093   0.957   6.055   6.273 -0.0610  0.0037 -0.5484
  147SAPE   O1316094   0.859   5.941   6.284 -0.0915  0.0579  0.1702
  147SAPE   O1416095   0.932   6.176   6.356 -0.8994  0.0123  0.4363
  147SAPE   O1216096   1.101   6.002   6.313  0.6604 -0.0871 -0.6493
  147SAPE   O1116097   0.979   6.102   6.123 -0.6079 -0.3323 -0.0163
  147SAPE    C116098   1.065   6.215   6.091 -0.6268 -0.8234 -0.4971
  147SAPE    HA16099   1.023   6.316   6.110  1.1069 -0.2940  0.8790
  147SAPE    HB16100   1.169   6.217   6.131 -0.5165  1.2993 -0.7546
  147SAPE    C216101   1.078   6.211   5.935  0.1441  0.2746  0.4099
  147SAPE    HS16102   1.114   6.314   5.913 -1.0749  0.6958  0.3142
  147SAPE   O2116103   0.959   6.176   5.867 -0.1212 -0.4372 -0.1895
  147SAPE   C2116104   0.854   6.241   5.900 -0.0457 -0.6961  0.1671
  147SAPE   O2216105   0.851   6.351   5.962 -0.4027  0.1572 -0.1796
  147SAPE   C2216106   0.731   6.168   5.860  0.6065 -0.9136 -0.5042
  147SAPE   H2R16107   0.714   6.181   5.751  0.0138  3.7579 -0.0591
  147SAPE   H2S16108   0.742   6.058   5.871 -1.7345 -1.3923 -2.0831
  147SAPE    C316109   1.182   6.109   5.899  0.7486 -0.3138  0.0901
  147SAPE    HX16110   1.148   6.010   5.936  1.3652  0.0200  1.6262
  147SAPE    HY16111   1.272   6.143   5.956 -0.1124 -1.4400  2.2549
  147SAPE   O3116112   1.208   6.099   5.752  0.1334 -0.3315  0.0472
  147SAPE   C3116113   1.290   6.185   5.689 -0.1455 -0.2527  0.7932
  147SAPE   O3216114   1.324   6.293   5.731  0.2351 -0.0481 -0.4020
  147SAPE   C3216115   1.306   6.139   5.548 -0.8677  0.8774  0.0889
  147SAPE   H2X16116   1.348   6.036   5.550 -1.4349  0.6489  1.2869
  147SAPE   H2Y16117   1.378   6.203   5.495 -1.2477  0.2716 -1.1928
  147SAPE   C2316118   0.607   6.216   5.932 -0.2376 -0.1795  0.8886
  147SAPE   H3R16119   0.576   6.320   5.906  0.5954 -0.0297  0.4720
  147SAPE   H3S16120   0.628   6.213   6.041  0.8505 -2.4661  0.6754
  147SAPE   C2416121   0.488   6.125   5.896  0.1686  0.1924 -0.1987
  147SAPE   H4R16122   0.519   6.022   5.926  0.7864  0.8879  1.7103
  147SAPE   H4S16123   0.480   6.112   5.786  0.0868  1.8044 -0.4053
  147SAPE   C2516124   0.359   6.150   5.969 -0.2196  0.0520  0.2906
  147SAPE   H5R16125   0.346   6.116   6.073 -0.5205 -1.4514 -0.2090
  147SAPE   C2616126   0.249   6.192   5.900  0.5025  0.0924 -0.8593
  147SAPE   H6R16127   0.153   6.207   5.951 -0.2060 -0.7429 -1.9173
  147SAPE   C2716128   0.238   6.241   5.763 -0.2725 -0.0761  0.3210
  147SAPE   H7R16129   0.333   6.259   5.709  0.3084 -1.5135  0.7894
  147SAPE   H7S16130   0.166   6.324   5.749 -1.1285 -0.9417 -0.5734
  147SAPE   C2816131   0.191   6.121   5.682  0.3920 -0.2756 -0.6658
  147SAPE   H8R16132   0.207   6.027   5.738 -2.2993  0.1771  1.0745
  147SAPE   C2916133   0.128   6.118   5.560  0.4448  0.4127  0.5540
  147SAPE   H9R16134   0.099   6.022   5.514  1.0257  0.4815  0.0310
  147SAPE  C21016135   0.088   6.233   5.479 -0.5363  0.0614  0.5323
  147SAPE  H10R16136   0.099   6.327   5.538  1.9621 -0.3797  0.8638
  147SAPE  H10S16137  -0.017   6.217   5.447 -0.1095 -1.2980 -0.2612
  147SAPE  C21116138   0.164   6.233   5.355 -0.4612  0.1405 -0.4191
  147SAPE  H11R16139   0.268   6.268   5.368 -0.6224  0.9840 -1.3472
  147SAPE  C21216140   0.125   6.200   5.233  0.7843 -0.5774 -0.4061
  147SAPE  H12R16141   0.191   6.216   5.146 -0.9061 -0.4655 -1.7347
  147SAPE  C21316142  -0.009   6.144   5.189 -0.0964 -0.0273  0.1528
  147SAPE  H13R16143  -0.066   6.235   5.160  0.8460  0.3569 -0.5413
  147SAPE  H13S16144  -0.061   6.088   5.269 -0.2557 -1.2941 -0.8156
  147SAPE  C21416145   0.006   6.056   5.058 -0.0956  0.2371  0.1016
  147SAPE  H14R16146   0.072   5.968   5.062  0.2766  0.5399  0.7637
  147SAPE  C21516147  -0.071   6.054   4.945 -0.8572 -1.1037  0.2320
  147SAPE  H15R16148  -0.048   5.986   4.862  0.4643  1.0397 -1.2326
  147SAPE  C21616149  -0.176   6.161   4.916 -0.3815  0.1634 -0.1445
  147SAPE  H16R16150  -0.146   6.254   4.969  1.1259 -0.2839 -0.1606
  147SAPE  H16S16151  -0.280   6.131   4.941  0.1681 -1.1123  0.7176
  147SAPE  C21716152  -0.171   6.189   4.761 -0.3163 -0.7272  0.4766
  147SAPE  H17R16153  -0.065   6.206   4.732 -1.0384  3.0979 -0.4360
  147SAPE  H17S16154  -0.208   6.288   4.728  3.3400 -0.0034 -1.9743
  147SAPE  C21816155  -0.240   6.072   4.680 -0.0126 -0.7570 -0.0148
  147SAPE  H18R16156  -0.334   6.046   4.734 -0.1403 -0.9605 -0.3313
  147SAPE  H18S16157  -0.175   5.982   4.679  0.5741 -0.4053 -2.9258
  147SAPE  C21916158  -0.255   6.092   4.531 -0.6199 -0.4242  0.3453
  147SAPE  H19R16159  -0.154   6.094   4.485 -0.2574  0.2131  1.1407
  147SAPE  H19S16160  -0.307   6.187   4.507 -1.1901 -1.0048 -0.8282
  147SAPE  C22016161  -0.355   5.997   4.467 -0.1637 -0.2445  0.5929
  147SAPE  H20R16162  -0.373   6.011   4.359 -1.3219 -0.4111  0.7508
  147SAPE  H20S16163  -0.450   5.989   4.525  0.3131  0.9518  1.5955
  147SAPE  H20T16164  -0.322   5.891   4.458  0.8769  0.0220  1.0378
  147SAPE   C3316165   1.172   6.137   5.473  0.2920  0.7669  0.5421
  147SAPE   H3X16166   1.123   6.236   5.473  2.0334  1.6976 -0.7562
  147SAPE   H3Y16167   1.106   6.060   5.517 -0.4290 -0.6244 -2.6327
  147SAPE   C3416168   1.209   6.085   5.331  0.0580  0.5476  0.1113
  147SAPE   H4X16169   1.240   5.979   5.326  0.0333  0.5863 -1.4851
  147SAPE   H4Y16170   1.291   6.153   5.299 -0.6459  1.0435 -0.6941
  147SAPE   C3516171   1.095   6.100   5.232 -0.5493  0.0465 -0.0457
  147SAPE   H5X16172   1.083   6.209   5.214 -0.4930  0.6742  3.1349
  147SAPE   H5Y16173   1.001   6.080   5.288 -2.1322 -0.1295 -2.5617
  147SAPE   C3616174   1.123   6.030   5.094 -0.1214  0.3168 -1.2890
  147SAPE   H6X16175   1.126   5.924   5.126 -1.2543  1.1914  2.1674
  147SAPE   H6Y16176   1.217   6.061   5.044  1.0943 -3.7176 -1.8950
  147SAPE   C3716177   0.996   6.044   4.998 -0.4972 -0.3116 -0.8919
  147SAPE   H7X16178   0.970   6.150   4.979 -0.0366 -0.5602 -3.2397
  147SAPE   H7Y16179   0.905   6.012   5.052  0.8171  1.5715  2.7848
  147SAPE   C3816180   1.017   5.983   4.855 -0.2227 -0.1129 -0.6160
  147SAPE   H8X16181   1.060   5.881   4.862 -4.1788 -1.9263  0.1195
  147SAPE   H8Y16182   1.087   6.033   4.785 -0.7964  0.0550 -1.0756
  147SAPE   C3916183   0.872   5.953   4.807 -0.3069 -0.3171  0.6467
  147SAPE   H9X16184   0.812   6.044   4.787 -0.2454 -0.4279 -0.0646
  147SAPE   H9Y16185   0.828   5.890   4.887  2.1789  0.0135  2.4080
  147SAPE  C31016186   0.885   5.856   4.687 -0.0591 -0.8335 -0.0367
  147SAPE  H10X16187   0.805   5.779   4.689 -2.9017  1.9417  1.8804
  147SAPE  H10Y16188   0.983   5.804   4.698  1.7209  2.6384  2.1337
  147SAPE  C31116189   0.868   5.921   4.547 -0.2446 -0.7911  0.3431
  147SAPE  H11X16190   0.758   5.931   4.533  0.0268  1.7263 -0.4265
  147SAPE  H11Y16191   0.883   5.840   4.473  0.2088  0.5626 -1.1031
  147SAPE  C31216192   0.952   6.043   4.522 -0.4745 -0.3658 -0.4094
  147SAPE  H12X16193   0.944   6.115   4.606  1.8804  0.3454 -0.7155
  147SAPE  H12Y16194   0.932   6.106   4.433 -0.1395 -0.2848 -0.4308
  147SAPE  C31316195   1.103   6.008   4.516 -0.5144  0.2472  0.0702
  147SAPE  H13X16196   1.131   5.950   4.425  1.0203 -0.3612  0.9055
  147SAPE  H13Y16197   1.132   5.943   4.601 -1.7182  0.0724  0.3732
  147SAPE  C31416198   1.201   6.127   4.519 -0.7451 -0.2217 -0.0809
  147SAPE  H14X16199   1.204   6.175   4.619 -0.1340  0.6041 -0.4877
  147SAPE  H14Y16200   1.157   6.196   4.443 -1.0435 -1.0777 -0.7043
  147SAPE  C31516201   1.345   6.069   4.484  0.3043 -0.3919 -0.2610
  147SAPE  H15X16202   1.420   6.150   4.471 -0.3475  0.2302 -0.2737
  147SAPE  H15Y16203   1.335   6.015   4.388  0.9265 -0.5251 -0.2494
  147SAPE  C31616204   1.407   5.973   4.592  0.2707 -0.4633 -0.4569
  147SAPE  H16X16205   1.336   5.893   4.622  0.2208  0.2790  1.5784
  147SAPE  H16Y16206   1.439   6.028   4.684 -0.2384 -0.7570 -0.1005
  147SAPE  C31716207   1.525   5.902   4.522 -0.4529 -0.1810 -0.1516
  147SAPE  H17X16208   1.606   5.977   4.509 -1.0437  0.5923  0.5325
  147SAPE  H17Y16209   1.489   5.860   4.426  0.3527 -0.7672 -0.2104
  147SAPE  C31816210   1.588   5.800   4.612 -0.3388 -0.1646  0.0387
  147SAPE  H18X16211   1.585   5.834   4.718  1.7324  0.7999 -0.1662
  147SAPE  H18Y16212   1.694   5.777   4.586 -0.5432 -0.4640 -0.5371
  147SAPE  H18Z16213   1.530   5.705   4.613 -1.5208  0.5381  0.4026
  148SAPE     N16214   4.592   6.169   6.822  0.1548  0.5572 -0.0166
  148SAPE   HN116215   4.650   6.256   6.827  0.6285  0.3172 -0.9894
  148SAPE   HN216216   4.645   6.097   6.875  0.6379  1.1570  0.3279
  148SAPE   HN316217   4.581   6.136   6.724  0.3806 -2.5739  0.9161
  148SAPE   C1216218   4.456   6.179   6.892  0.1572  0.1444 -1.3036
  148SAPE  H12A16219   4.461   6.253   6.975 -1.8586 -2.1511  1.0734
  148SAPE  H12B16220   4.424   6.076   6.919 -1.3409  0.8329 -0.3009
  148SAPE   C1116221   4.348   6.231   6.792  0.0457 -0.3803 -0.1799
  148SAPE  H11A16222   4.250   6.212   6.841  1.4489 -0.9730  2.6493
  148SAPE  H11B16223   4.368   6.175   6.699 -1.2789  1.6655 -1.7601
  148SAPE     P16224   4.384   6.438   6.632 -0.2979  0.3543 -0.2335
  148SAPE   O1316225   4.334   6.580   6.630 -0.8338 -0.0658 -1.0980
  148SAPE   O1416226   4.532   6.435   6.589  0.5380 -0.0117  0.1079
  148SAPE   O1216227   4.359   6.373   6.773  0.0478  0.1467 -0.3682
  148SAPE   O1116228   4.301   6.344   6.532  0.1941 -0.4543  0.5240
  148SAPE    C116229   4.159   6.346   6.548 -0.6357 -0.0023  0.0514
  148SAPE    HA16230   4.137   6.255   6.609 -1.1850  2.1828  3.3641
  148SAPE    HB16231   4.110   6.430   6.602 -1.1649  0.3940 -1.0135
  148SAPE    C216232   4.090   6.333   6.416 -0.0235  0.1843  0.3851
  148SAPE    HS16233   4.135   6.244   6.367  0.3276 -0.5494  1.9434
  148SAPE   O2116234   4.089   6.466   6.346 -0.1166 -0.4611 -0.7260
  148SAPE   C2116235   4.194   6.497   6.273  0.4860 -0.1801 -0.6602
  148SAPE   O2216236   4.281   6.419   6.237 -0.3032  0.5441  0.6639
  148SAPE   C2216237   4.195   6.642   6.248  0.7455  0.5512 -0.3363
  148SAPE   H2R16238   4.103   6.692   6.286  0.8422  0.5989 -0.1632
  148SAPE   H2S16239   4.272   6.685   6.316 -0.7393  2.5640  0.1963
  148SAPE    C316240   3.931   6.295   6.433 -0.0502 -0.0417  0.1037
  148SAPE    HX16241   3.897   6.362   6.515  2.5500 -0.0939  1.3301
  148SAPE    HY16242   3.905   6.200   6.485  1.1567 -0.7335 -0.5107
  148SAPE   O3116243   3.857   6.318   6.309 -0.0964 -0.1978 -0.1742
  148SAPE   C3116244   3.875   6.219   6.220  0.5522 -0.1235  0.1183
  148SAPE   O3216245   3.959   6.132   6.214  0.8416  0.1123  0.5369
  148SAPE   C3216246   3.772   6.237   6.108 -0.2974 -0.1396 -0.3586
  148SAPE   H2X16247   3.676   6.284   6.139  0.0812  0.0620  0.5224
  148SAPE   H2Y16248   3.755   6.132   6.076 -3.4231 -0.6728  2.4705
  148SAPE   C2316249   4.230   6.684   6.107  0.1316  0.7685  0.2801
  148SAPE   H3R16250   4.331   6.644   6.080 -1.0909 -3.8807  1.6719
  148SAPE   H3S16251   4.232   6.795   6.106  1.6852  0.7710 -0.1676
  148SAPE   C2416252   4.131   6.634   5.990  0.4144 -0.4448  0.0499
  148SAPE   H4R16253   4.038   6.690   5.968  1.3217  0.0685 -2.9642
  148SAPE   H4S16254   4.103   6.532   6.023  3.0000 -1.2477  0.0229
  148SAPE   C2516255   4.195   6.639   5.855  0.3123  0.2840 -0.4045
  148SAPE   H5R16256   4.149   6.720   5.798 -1.5375 -0.4269  0.0180
  148SAPE   C2616257   4.296   6.567   5.801  0.0706 -1.3783  0.5504
  148SAPE   H6R16258   4.341   6.591   5.704 -0.8793 -0.9439  0.1987
  148SAPE   C2716259   4.366   6.450   5.869 -0.4659  0.0841 -0.8924
  148SAPE   H7R16260   4.313   6.354   5.857 -0.0826 -0.3160  0.4217
  148SAPE   H7S16261   4.344   6.446   5.978 -2.1715  0.4504 -1.1990
  148SAPE   C2816262   4.518   6.439   5.843 -0.2350 -0.0632 -0.3967
  148SAPE   H8R16263   4.570   6.512   5.907 -2.5632 -0.0742  1.6640
  148SAPE   C2916264   4.577   6.390   5.736  0.2128  0.4282  0.4914
  148SAPE   H9R16265   4.686   6.400   5.718 -0.0527  1.5682 -0.6298
  148SAPE  C21016266   4.507   6.313   5.636 -0.7074  0.5047  0.1738
  148SAPE  H10R16267   4.409   6.274   5.670 -0.8337  1.1814  0.5977
  148SAPE  H10S16268   4.564   6.220   5.615 -1.2602  0.1502  0.2241
  148SAPE  C21116269   4.497   6.397   5.511 -1.0955  0.0460  0.1712
  148SAPE  H11R16270   4.459   6.500   5.527 -0.3668  0.3863 -0.2504
  148SAPE  C21216271   4.522   6.360   5.383  0.4355  0.1702  0.0863
  148SAPE  H12R16272   4.505   6.433   5.302 -2.2516 -1.0923 -0.6134
  148SAPE  C21316273   4.559   6.218   5.329  0.3717 -0.4688  0.3578
  148SAPE  H13R16274   4.553   6.145   5.413 -0.1841  0.6150  1.2959
  148SAPE  H13S16275   4.665   6.223   5.297 -0.0155  1.9631 -0.7819
  148SAPE  C21416276   4.471   6.170   5.214 -0.0759 -0.1010 -0.0277
  148SAPE  H14R16277   4.383   6.112   5.245 -1.0660  2.0725  1.5008
  148SAPE  C21516278   4.512   6.185   5.087 -0.0424  0.1833 -0.2708
  148SAPE  H15R16279   4.446   6.141   5.011  0.8007  1.0798 -1.5816
  148SAPE  C21616280   4.636   6.260   5.041 -0.4309  0.0211  0.3439
  148SAPE  H16R16281   4.716   6.183   5.042  0.6226  0.8358 -3.5101
  148SAPE  H16S16282   4.673   6.345   5.102  0.3669  0.1158 -0.2522
  148SAPE  C21716283   4.617   6.306   4.891 -0.0717  1.0159 -0.3411
  148SAPE  H17R16284   4.575   6.226   4.826  1.9188 -0.9018  0.6302
  148SAPE  H17S16285   4.716   6.339   4.853 -1.2241  3.4947 -1.5289
  148SAPE  C21816286   4.522   6.418   4.890 -0.3732  0.3721  0.1406
  148SAPE  H18R16287   4.535   6.489   4.974  1.2111  0.7261 -0.3758
  148SAPE  H18S16288   4.417   6.387   4.909 -1.3706  2.8713 -0.9617
  148SAPE  C21916289   4.538   6.496   4.761 -0.4680  0.2825  0.1085
  148SAPE  H19R16290   4.639   6.528   4.729  0.2759 -3.0729 -1.3902
  148SAPE  H19S16291   4.480   6.590   4.771 -1.2901 -0.3324  1.3686
  148SAPE  C22016292   4.486   6.417   4.639  0.8054 -0.9442 -0.0785
  148SAPE  H20R16293   4.384   6.377   4.658  0.1454  0.5162 -0.3932
  148SAPE  H20S16294   4.552   6.329   4.621  1.6635 -1.1361  3.4211
  148SAPE  H20T16295   4.476   6.481   4.548 -1.3008 -0.0183  0.7370
  148SAPE   C3316296   3.826   6.320   5.990  0.3681  0.5416  0.4835
  148SAPE   H3X16297   3.854   6.425   6.014  1.8510  0.0038  1.2480
  148SAPE   H3Y16298   3.749   6.309   5.911 -0.0918  1.1039  0.8467
  148SAPE   C3416299   3.946   6.265   5.913 -0.4823  0.3755 -0.7180
  148SAPE   H4X16300   3.929   6.159   5.881 -0.2975 -0.0844  0.6354
  148SAPE   H4Y16301   4.031   6.274   5.983 -1.2078  2.0884 -0.0207
  148SAPE   C3516302   3.987   6.343   5.790  0.5619  0.3543 -0.4577
  148SAPE   H5X16303   4.066   6.275   5.752 -0.9254 -1.8641  0.2868
  148SAPE   H5Y16304   4.029   6.441   5.822 -0.6153  0.1422  1.9104
  148SAPE   C3616305   3.885   6.370   5.677 -0.4471  0.1419 -0.1885
  148SAPE   H6X16306   3.803   6.438   5.708 -2.1585 -1.4227 -1.0324
  148SAPE   H6Y16307   3.826   6.276   5.668 -0.5401  0.0767  1.0403
  148SAPE   C3716308   3.949   6.403   5.535  0.4181  0.0044 -0.2024
  148SAPE   H7X16309   3.874   6.388   5.455  0.5779 -1.8310 -0.0456
  148SAPE   H7Y16310   4.025   6.324   5.517 -0.3781 -0.3201 -2.3923
  148SAPE   C3816311   4.012   6.548   5.534 -0.0738 -0.0959 -0.4911
  148SAPE   H8X16312   3.998   6.584   5.638  1.7368 -0.8387  0.0482
  148SAPE   H8Y16313   3.941   6.609   5.473  1.8198  0.5112 -2.2360
  148SAPE   C3916314   4.152   6.557   5.483  0.1211 -0.1234 -0.2114
  148SAPE   H9X16315   4.212   6.492   5.550 -2.5132 -2.6352 -0.1165
  148SAPE   H9Y16316   4.176   6.665   5.495 -1.0034 -0.0038  1.2899
  148SAPE  C31016317   4.174   6.506   5.339 -0.1484  0.9319 -0.3178
  148SAPE  H10X16318   4.155   6.399   5.315 -0.4994  1.2594 -1.5618
  148SAPE  H10Y16319   4.281   6.523   5.314 -0.3180  4.3634  0.7464
  148SAPE  C31116320   4.099   6.583   5.227 -0.1468  0.4923  0.1797
  148SAPE  H11X16321   4.110   6.692   5.246  0.4491  0.3920  0.4438
  148SAPE  H11Y16322   3.992   6.559   5.244 -0.6679  0.5342 -2.5466
  148SAPE  C31216323   4.150   6.554   5.087  0.4213 -0.1990 -0.1476
  148SAPE  H12X16324   4.114   6.452   5.062 -1.6161  0.2204  0.8540
  148SAPE  H12Y16325   4.261   6.547   5.085  0.6113  1.6835  0.9207
  148SAPE  C31316326   4.101   6.657   4.983 -0.9490  0.2167  0.9103
  148SAPE  H13X16327   4.126   6.760   5.016  1.0816  0.7571 -1.9515
  148SAPE  H13Y16328   3.992   6.647   4.966 -1.2372  1.2374  2.0429
  148SAPE  C31416329   4.161   6.626   4.844 -0.2477 -0.1243 -0.1243
  148SAPE  H14X16330   4.139   6.522   4.812  0.0002  0.5617 -2.7669
  148SAPE  H14Y16331   4.271   6.627   4.863 -0.3219 -1.2068  0.4484
  148SAPE  C31516332   4.134   6.721   4.723 -0.8640  0.0486  0.0538
  148SAPE  H15X16333   4.170   6.824   4.741 -2.3132  0.4493  0.8278
  148SAPE  H15Y16334   4.024   6.731   4.714 -0.6255  2.3331 -0.8547
  148SAPE  C31616335   4.195   6.669   4.594 -0.5192  0.1765 -0.0742
  148SAPE  H16X16336   4.139   6.587   4.545 -0.8727  0.2808  0.1543
  148SAPE  H16Y16337   4.294   6.623   4.616 -1.5936 -2.9068 -1.1916
  148SAPE  C31716338   4.208   6.780   4.493 -0.2414  0.1558  1.0885
  148SAPE  H17X16339   4.279   6.855   4.534 -0.5921  0.7879  0.5682
  148SAPE  H17Y16340   4.106   6.819   4.477 -0.1926 -0.6963 -2.1692
  148SAPE  C31816341   4.264   6.739   4.358 -0.0792 -0.1472 -0.7429
  148SAPE  H18X16342   4.350   6.668   4.368 -0.4941 -0.4403  1.1560
  148SAPE  H18Y16343   4.312   6.826   4.309 -1.1420 -1.0185 -3.5001
  148SAPE  H18Z16344   4.195   6.696   4.282 -1.0117  1.1162 -0.6351
  149SAPE     N16345   1.543   2.569   6.374 -0.0663  0.8569 -0.1217
  149SAPE   HN116346   1.446   2.592   6.404 -1.5655 -2.7751 -1.5533
  149SAPE   HN216347   1.562   2.597   6.276  3.9113  0.3486  0.3338
  149SAPE   HN316348   1.565   2.467   6.383 -1.2766  0.5188 -0.7137
  149SAPE   C1216349   1.647   2.629   6.465 -0.3287  0.2837 -0.1494
  149SAPE  H12A16350   1.641   2.573   6.561 -0.8322  1.3146  0.4374
  149SAPE  H12B16351   1.616   2.735   6.476  1.5899  1.3377 -3.4902
  149SAPE   C1116352   1.795   2.625   6.409  0.1241 -0.4785 -0.7976
  149SAPE  H11A16353   1.824   2.523   6.375 -0.1979 -0.0387 -2.5014
  149SAPE  H11B16354   1.863   2.657   6.491  1.5097 -1.0856 -1.6636
  149SAPE     P16355   1.935   2.798   6.267  0.3419 -0.1803  0.1590
  149SAPE   O1316356   1.903   2.939   6.307 -0.0676 -0.1587 -0.3334
  149SAPE   O1416357   2.042   2.725   6.341  0.4413 -0.6666 -0.1468
  149SAPE   O1216358   1.800   2.717   6.297  0.1484  0.3130 -0.5291
  149SAPE   O1116359   1.968   2.776   6.115  1.0565 -0.0826 -0.7638
  149SAPE    C116360   1.940   2.656   6.051 -0.1954  0.3180  0.1928
  149SAPE    HA16361   1.846   2.609   6.087  1.4974 -0.7693  3.7318
  149SAPE    HB16362   1.932   2.678   5.942 -0.1263  1.2765  0.3723
  149SAPE    C216363   2.056   2.556   6.071  0.5220  0.3892 -0.2751
  149SAPE    HS16364   2.088   2.555   6.177 -1.4729 -0.5301  0.3663
  149SAPE   O2116365   2.169   2.593   5.995  0.3441 -0.2249  0.4355
  149SAPE   C2116366   2.285   2.549   6.024  0.6759  0.3340 -0.3847
  149SAPE   O2216367   2.317   2.459   6.101 -0.5517  0.1718  0.1735
  149SAPE   C2216368   2.397   2.621   5.945 -0.2480 -0.8230  0.0577
  149SAPE   H2R16369   2.457   2.672   6.022  1.1829 -1.4940 -0.5593
  149SAPE   H2S16370   2.462   2.551   5.888  0.6156  0.6652 -0.8380
  149SAPE    C316371   2.009   2.411   6.035  0.9566 -0.1526 -0.5112
  149SAPE    HX16372   1.922   2.377   6.094  1.2648 -1.9235 -1.0283
  149SAPE    HY16373   2.089   2.343   6.070  0.4644 -0.9354 -0.8833
  149SAPE   O3116374   1.971   2.416   5.901  0.9808  0.3875  0.6117
  149SAPE   C3116375   2.059   2.380   5.818 -0.0433 -0.3171  0.6448
  149SAPE   O3216376   2.153   2.307   5.835 -0.6846 -0.1334 -0.1903
  149SAPE   C3216377   2.021   2.446   5.685  0.3292 -0.2787  0.2429
  149SAPE   H2X16378   2.055   2.552   5.681 -0.1543 -0.0493  1.5692
  149SAPE   H2Y16379   1.910   2.452   5.683  0.2616  0.0512 -4.0710
  149SAPE   C2316380   2.347   2.731   5.840  0.2997 -0.5775  0.1060
  149SAPE   H3R16381   2.279   2.796   5.899  0.6484  1.0065 -1.1769
  149SAPE   H3S16382   2.286   2.695   5.754 -0.7934  2.5413 -0.5277
  149SAPE   C2416383   2.471   2.811   5.790 -0.0607 -0.3752 -0.3904
  149SAPE   H4R16384   2.508   2.868   5.878  1.7275  1.7763 -2.4104
  149SAPE   H4S16385   2.434   2.888   5.718 -0.4503  0.7956  1.0127
  149SAPE   C2516386   2.579   2.729   5.712 -0.2843 -1.1998  0.5383
  149SAPE   H5R16387   2.660   2.677   5.765  0.9166  0.9257  0.9173
  149SAPE   C2616388   2.578   2.719   5.577 -0.0243  0.3336  0.1323
  149SAPE   H6R16389   2.650   2.651   5.530 -0.1084  1.0162 -1.0037
  149SAPE   C2716390   2.486   2.788   5.474  0.0042  0.0630 -0.0995
  149SAPE   H7R16391   2.552   2.790   5.384 -0.5998 -2.8516 -0.7301
  149SAPE   H7S16392   2.490   2.893   5.508  1.4764 -0.6307  2.1460
  149SAPE   C2816393   2.344   2.729   5.458 -0.4175 -0.0509  0.0833
  149SAPE   H8R16394   2.272   2.742   5.540  1.0404 -0.4082  1.4764
  149SAPE   C2916395   2.313   2.644   5.362  0.2936  0.2976  0.1820
  149SAPE   H9R16396   2.215   2.596   5.375  0.4722 -0.0397  0.2818
  149SAPE  C21016397   2.405   2.598   5.255  0.7138  0.4686  0.3422
  149SAPE  H10R16398   2.458   2.505   5.284  0.7417  0.2010 -0.5298
  149SAPE  H10S16399   2.484   2.677   5.248  1.1646  0.0498  0.6035
  149SAPE  C21116400   2.335   2.587   5.116 -0.4149 -0.1322 -0.1548
  149SAPE  H11R16401   2.310   2.484   5.086  2.4992 -0.6343 -1.2740
  149SAPE  C21216402   2.328   2.681   5.020  0.2749 -0.0862 -0.7586
  149SAPE  H12R16403   2.284   2.660   4.922  0.4592  3.7354 -1.7857
  149SAPE  C21316404   2.378   2.824   5.050 -0.2288 -0.2422 -0.0410
  149SAPE  H13R16405   2.378   2.849   5.158 -1.5298 -0.3926  0.0142
  149SAPE  H13S16406   2.309   2.901   5.007  0.9999  0.8710 -0.0981
  149SAPE  C21416407   2.521   2.848   4.995  0.5785 -0.3901  0.1898
  149SAPE  H14R16408   2.597   2.865   5.073  0.9453  0.5587 -0.3581
  149SAPE  C21516409   2.552   2.851   4.865  0.4223 -0.2328 -0.0902
  149SAPE  H15R16410   2.660   2.863   4.844  0.4642  2.0138  1.2128
  149SAPE  C21616411   2.465   2.846   4.741  0.6459 -0.1428 -0.1667
  149SAPE  H16R16412   2.462   2.948   4.698  0.4696 -0.6923 -1.5152
  149SAPE  H16S16413   2.365   2.808   4.772  1.6100 -1.1792  1.9012
  149SAPE  C21716414   2.527   2.752   4.632 -0.0017  0.0249  0.3412
  149SAPE  H17R16415   2.630   2.783   4.608  0.7106 -2.4035 -0.0790
  149SAPE  H17S16416   2.470   2.769   4.538  0.2038  0.3974  0.2866
  149SAPE  C21816417   2.531   2.595   4.670 -0.3570 -0.1891  0.0651
  149SAPE  H18R16418   2.444   2.586   4.738  0.5815 -0.0046  1.3399
  149SAPE  H18S16419   2.620   2.579   4.735 -0.9622  1.3824  1.3626
  149SAPE  C21916420   2.534   2.510   4.552  0.3940 -1.1090  0.0130
  149SAPE  H19R16421   2.479   2.557   4.468  2.0981 -1.8087 -1.5763
  149SAPE  H19S16422   2.490   2.413   4.583 -0.7361 -0.4829  0.4297
  149SAPE  C22016423   2.675   2.497   4.499  0.2249  0.3303  0.4756
  149SAPE  H20R16424   2.690   2.586   4.435  0.2386 -2.1472 -3.3425
  149SAPE  H20S16425   2.672   2.403   4.438 -0.6065  0.9278 -0.4315
  149SAPE  H20T16426   2.750   2.485   4.580 -0.5329  2.0041  1.4643
  149SAPE   C3316427   2.074   2.363   5.558  0.0714 -0.6081  0.2864
  149SAPE   H3X16428   2.050   2.255   5.568 -0.6131 -0.6214 -1.2325
  149SAPE   H3Y16429   2.183   2.383   5.565  0.1246 -1.1199  1.0113
  149SAPE   C3416430   2.010   2.424   5.434  0.0400 -0.2752 -0.5612
  149SAPE   H4X16431   2.030   2.533   5.432  4.0924 -0.8423  1.0406
  149SAPE   H4Y16432   1.902   2.402   5.416  0.0501 -0.8341 -0.0069
  149SAPE   C3516433   2.097   2.358   5.322  0.2892  0.6513  0.0379
  149SAPE   H5X16434   2.094   2.248   5.339  0.8715  0.4611 -0.9900
  149SAPE   H5Y16435   2.203   2.386   5.336  0.0916  0.7120  1.5862
  149SAPE   C3616436   2.036   2.387   5.180  0.3215 -0.5562  0.1995
  149SAPE   H6X16437   2.065   2.491   5.156 -0.4699  0.2512  2.4598
  149SAPE   H6Y16438   1.926   2.379   5.186  0.2025  1.0590  0.6845
  149SAPE   C3716439   2.083   2.288   5.071 -0.0151 -0.7320 -0.2546
  149SAPE   H7X16440   2.009   2.206   5.090 -1.0705  0.1974 -0.2186
  149SAPE   H7Y16441   2.190   2.261   5.082  0.2024 -0.9580 -2.3696
  149SAPE   C3816442   2.064   2.338   4.926 -0.2691  0.1132 -0.1129
  149SAPE   H8X16443   2.131   2.426   4.917 -0.4587  0.2759  0.0605
  149SAPE   H8Y16444   1.957   2.364   4.911 -0.5244  0.6333  2.2385
  149SAPE   C3916445   2.122   2.242   4.828  0.1545  0.7164 -0.1191
  149SAPE   H9X16446   2.062   2.149   4.819  1.6182 -0.1609 -1.1601
  149SAPE   H9Y16447   2.226   2.225   4.860  0.5288  1.9314 -0.6125
  149SAPE  C31016448   2.126   2.300   4.684 -0.1852 -0.0413 -0.4077
  149SAPE  H10X16449   2.197   2.385   4.684  1.0572 -1.0082  1.3082
  149SAPE  H10Y16450   2.023   2.332   4.657 -1.4972 -4.2092 -1.1262
  149SAPE  C31116451   2.179   2.199   4.580  0.1100 -0.2930 -0.3927
  149SAPE  H11X16452   2.115   2.108   4.580  0.4729 -0.5508 -0.5162
  149SAPE  H11Y16453   2.281   2.161   4.603  0.1315 -0.1569 -0.2623
  149SAPE  C31216454   2.178   2.246   4.433  0.1377  0.3780 -0.1213
  149SAPE  H12X16455   2.221   2.348   4.439 -0.4077  0.5791  0.5875
  149SAPE  H12Y16456   2.072   2.255   4.400  0.1407 -1.4555 -0.7536
  149SAPE  C31316457   2.264   2.180   4.329 -0.8121  0.3013 -0.1992
  149SAPE  H13X16458   2.364   2.226   4.339 -0.3412 -0.2995 -1.9068
  149SAPE  H13Y16459   2.231   2.215   4.229 -1.0753 -0.7904 -0.5124
  149SAPE  C31416460   2.268   2.024   4.335 -0.7451  0.0872  0.5022
  149SAPE  H14X16461   2.166   1.981   4.321  0.5060 -2.1728 -3.0332
  149SAPE  H14Y16462   2.308   1.992   4.434  1.8981 -0.6653 -0.7271
  149SAPE  C31516463   2.376   1.965   4.238  0.1506 -0.4626 -0.0457
  149SAPE  H15X16464   2.468   2.017   4.272 -0.4654  1.2870 -0.9619
  149SAPE  H15Y16465   2.347   2.006   4.139 -0.1313  1.0195  0.6260
  149SAPE  C31616466   2.398   1.812   4.227 -0.0061 -0.1351  0.1255
  149SAPE  H16X16467   2.311   1.755   4.189  0.9855 -0.6577 -1.4699
  149SAPE  H16Y16468   2.414   1.768   4.327 -2.3757  1.4857  1.3138
  149SAPE  C31716469   2.497   1.790   4.117  0.1052  0.9108 -0.3264
  149SAPE  H17X16470   2.583   1.858   4.136 -0.2176  1.0713  0.6096
  149SAPE  H17Y16471   2.459   1.829   4.020 -2.1712  1.5437  0.7715
  149SAPE  C31816472   2.558   1.650   4.098  0.3131 -0.4773 -0.0093
  149SAPE  H18X16473   2.643   1.654   4.026  0.9907 -1.1656  0.7381
  149SAPE  H18Y16474   2.479   1.574   4.082 -1.4282  1.0790  0.8786
  149SAPE  H18Z16475   2.603   1.624   4.196 -0.0117 -0.3414  0.1765
  150SAPE     N16476   4.777   1.588   6.527 -0.9417  0.7441 -0.1919
  150SAPE   HN116477   4.695   1.579   6.590 -1.4907 -1.0787 -1.0949
  150SAPE   HN216478   4.758   1.521   6.450  3.0779  0.0243 -0.7685
  150SAPE   HN316479   4.869   1.559   6.568 -0.4055  0.4362 -1.5747
  150SAPE   C1216480   4.780   1.726   6.473  0.3919  0.2623 -0.1089
  150SAPE  H12A16481   4.866   1.738   6.402  0.2719  0.1373 -0.2777
  150SAPE  H12B16482   4.794   1.790   6.562 -0.9836 -1.1969  1.2213
  150SAPE   C1116483   4.647   1.767   6.401  0.1293 -0.4695 -0.5721
  150SAPE  H11A16484   4.635   1.704   6.311 -0.4795 -4.0034  1.7712
  150SAPE  H11B16485   4.650   1.877   6.384  1.4804 -0.1891  1.1825
  150SAPE     P16486   4.405   1.661   6.435 -0.0654 -0.0857 -0.1317
  150SAPE   O1316487   4.423   1.518   6.439  0.0358  0.3577 -0.1566
  150SAPE   O1416488   4.289   1.715   6.506  0.5846  0.3601  0.1422
  150SAPE   O1216489   4.539   1.730   6.483 -0.2981  0.2191  0.3126
  150SAPE   O1116490   4.387   1.705   6.289  0.4910  0.0489  0.3179
  150SAPE    C116491   4.367   1.838   6.250 -0.0773 -0.1632 -0.9995
  150SAPE    HA16492   4.399   1.908   6.330 -2.2167 -1.7284  1.3798
  150SAPE    HB16493   4.417   1.866   6.155 -0.2891  1.9836 -0.5287
  150SAPE    C216494   4.217   1.875   6.234 -0.0380 -0.6534  0.8722
  150SAPE    HS16495   4.165   1.859   6.331 -0.5368 -0.2336  0.6762
  150SAPE   O2116496   4.159   1.800   6.127  1.1658  0.0960 -0.2302
  150SAPE   C2116497   4.029   1.781   6.136  0.4245  0.2651 -0.6691
  150SAPE   O2216498   3.960   1.810   6.234  0.2123 -0.4728  0.1574
  150SAPE   C2216499   3.979   1.714   6.017 -0.9490 -0.1491 -0.2327
  150SAPE   H2R16500   4.003   1.773   5.926  0.1143 -0.5877 -0.2541
  150SAPE   H2S16501   4.045   1.625   6.009  1.7915  1.7485 -0.2755
  150SAPE    C316502   4.205   2.029   6.204 -0.5694  0.9273 -0.1195
  150SAPE    HX16503   4.245   2.084   6.292  0.0112 -2.4773  1.9545
  150SAPE    HY16504   4.098   2.056   6.195 -0.2055  2.1263 -1.0367
  150SAPE   O3116505   4.282   2.061   6.086 -0.3771  0.1767 -0.0449
  150SAPE   C3116506   4.219   2.059   5.969 -0.4895 -0.2003 -0.5223
  150SAPE   O3216507   4.096   2.056   5.951  0.5219  0.8198  0.2508
  150SAPE   C3216508   4.326   2.070   5.857 -0.3921 -0.1576 -0.4228
  150SAPE   H2X16509   4.385   1.976   5.859 -0.2889 -0.1505 -1.8654
  150SAPE   H2Y16510   4.386   2.158   5.889  1.0908 -1.7279  1.3073
  150SAPE   C2316511   3.837   1.658   6.015 -0.3236  0.2453 -0.5978
  150SAPE   H3R16512   3.767   1.744   6.006 -0.4731  0.5474  2.2864
  150SAPE   H3S16513   3.806   1.615   6.113  0.1154 -1.6085 -1.2449
  150SAPE   C2416514   3.815   1.554   5.897 -0.0488  0.5975 -0.2177
  150SAPE   H4R16515   3.709   1.524   5.883 -0.3608  0.3739  2.0871
  150SAPE   H4S16516   3.871   1.459   5.911 -3.5752 -1.7937 -1.0836
  150SAPE   C2516517   3.845   1.628   5.771 -0.5949  0.5232 -0.8331
  150SAPE   H5R16518   3.784   1.714   5.740  0.7885  0.9619 -2.5257
  150SAPE   C2616519   3.941   1.594   5.684 -0.0266 -0.3417 -0.4786
  150SAPE   H6R16520   3.952   1.650   5.590  1.5315  1.1340  0.5323
  150SAPE   C2716521   4.034   1.476   5.694  0.1557 -0.7404 -0.0555
  150SAPE   H7R16522   4.047   1.433   5.592 -1.5410  0.0730 -0.6457
  150SAPE   H7S16523   3.984   1.394   5.750  0.0558 -0.2399  0.6044
  150SAPE   C2816524   4.166   1.514   5.758 -0.7084 -0.0149 -0.4369
  150SAPE   H8R16525   4.159   1.597   5.830  1.0496 -0.3763  0.2139
  150SAPE   C2916526   4.295   1.469   5.736  0.7045 -0.2788 -0.3546
  150SAPE   H9R16527   4.368   1.504   5.810  0.2190  1.2936 -0.5784
  150SAPE  C21016528   4.348   1.375   5.629  0.4428  0.2311  0.8661
  150SAPE  H10R16529   4.448   1.408   5.593  0.2989 -0.5959 -0.3200
  150SAPE  H10S16530   4.279   1.373   5.542 -0.0883  0.3114  1.2775
  150SAPE  C21116531   4.371   1.229   5.667 -0.4065  0.2344 -0.3512
  150SAPE  H11R16532   4.455   1.220   5.738 -1.0398  1.3937  0.5778
  150SAPE  C21216533   4.323   1.118   5.606  0.4736  0.8964  0.2163
  150SAPE  H12R16534   4.347   1.016   5.640 -2.4221 -1.2396 -3.4377
  150SAPE  C21316535   4.213   1.114   5.497 -0.3418 -0.1820 -0.0715
  150SAPE  H13R16536   4.146   1.203   5.496 -0.3223 -0.1430  0.9380
  150SAPE  H13S16537   4.147   1.031   5.529 -0.9568  0.3877  0.1743
  150SAPE  C21416538   4.264   1.091   5.360  0.6052  0.1744  0.3303
  150SAPE  H14R16539   4.356   1.148   5.339  0.2064  1.6741  2.3339
  150SAPE  C21516540   4.209   1.021   5.254  0.2438  0.8400 -0.4937
  150SAPE  H15R16541   4.257   1.002   5.157  1.3561 -1.5295  0.4605
  150SAPE  C21616542   4.082   0.937   5.251  0.0778 -0.8503  0.2909
  150SAPE  H16R16543   4.001   0.990   5.195 -2.1301 -0.0801  3.8706
  150SAPE  H16S16544   4.040   0.907   5.349 -3.2759 -2.3952 -1.4439
  150SAPE  C21716545   4.106   0.811   5.173 -0.0637  0.6600 -0.6846
  150SAPE  H17R16546   4.138   0.813   5.067 -0.3280 -1.8004 -0.8538
  150SAPE  H17S16547   4.012   0.754   5.175 -0.4269  1.1990  1.8362
  150SAPE  C21816548   4.209   0.727   5.251  0.2373 -0.5002  0.7826
  150SAPE  H18R16549   4.228   0.759   5.356  3.2306  0.5053  0.0316
  150SAPE  H18S16550   4.305   0.731   5.195 -2.0167  0.1168 -3.3679
  150SAPE  C21916551   4.172   0.579   5.254 -0.5875  0.5096 -0.2433
  150SAPE  H19R16552   4.169   0.541   5.150  1.7210  0.2862 -0.2832
  150SAPE  H19S16553   4.081   0.557   5.314  1.6838 -1.5568  2.8004
  150SAPE  C22016554   4.283   0.493   5.326  1.0001  0.2603  0.1145
  150SAPE  H20R16555   4.243   0.391   5.338  0.8496  0.5183  2.0150
  150SAPE  H20S16556   4.306   0.544   5.422 -0.5223 -0.0610  0.6801
  150SAPE  H20T16557   4.371   0.491   5.258 -0.0080  0.1431 -1.2263
  150SAPE   C3316558   4.264   2.086   5.717  0.7150 -0.3906  0.0973
  150SAPE   H3X16559   4.192   2.169   5.732  1.4556  0.0458  1.4215
  150SAPE   H3Y16560   4.211   1.992   5.692 -0.4139 -0.3504  2.1317
  150SAPE   C3416561   4.360   2.130   5.608  0.2132 -0.3607  0.6622
  150SAPE   H4X16562   4.443   2.059   5.590  1.9440  1.9514 -1.1576
  150SAPE   H4Y16563   4.404   2.230   5.627  1.0483 -0.7772  0.9639
  150SAPE   C3516564   4.281   2.132   5.472 -0.6473  0.1136 -0.2503
  150SAPE   H5X16565   4.186   2.188   5.463 -1.9396 -1.9286  0.0947
  150SAPE   H5Y16566   4.262   2.023   5.463  0.8656 -0.2564  0.6365
  150SAPE   C3616567   4.371   2.179   5.364  0.3841  0.6518  0.1841
  150SAPE   H6X16568   4.458   2.109   5.361 -0.8874 -1.2349  2.8206
  150SAPE   H6Y16569   4.411   2.276   5.400 -0.5141  0.7792  0.8732
  150SAPE   C3716570   4.323   2.206   5.228  0.7291 -0.9118 -0.4213
  150SAPE   H7X16571   4.239   2.278   5.234 -0.2679 -2.0163 -0.6994
  150SAPE   H7Y16572   4.280   2.113   5.186  1.6412 -0.8651 -1.5253
  150SAPE   C3816573   4.430   2.251   5.123 -0.1258 -0.3078  0.1138
  150SAPE   H8X16574   4.515   2.179   5.122  0.2860  0.1818 -0.0583
  150SAPE   H8Y16575   4.471   2.351   5.147  0.7841 -0.8076  0.6744
  150SAPE   C3916576   4.354   2.258   4.986  0.3765  0.2590 -0.1816
  150SAPE   H9X16577   4.259   2.315   5.000 -1.0769 -2.4060  1.6430
  150SAPE   H9Y16578   4.325   2.153   4.969 -1.6897  0.8024 -0.2710
  150SAPE  C31016579   4.443   2.313   4.874  0.3364 -0.4597 -0.2230
  150SAPE  H10X16580   4.550   2.294   4.895  0.7700  1.4431 -0.5480
  150SAPE  H10Y16581   4.427   2.423   4.875  0.7929 -0.3920  1.3581
  150SAPE  C31116582   4.420   2.246   4.737  0.1585  0.1215  0.0698
  150SAPE  H11X16583   4.430   2.135   4.735 -1.7381 -0.0887 -1.3166
  150SAPE  H11Y16584   4.488   2.286   4.659 -2.5424  1.6985 -1.6519
  150SAPE  C31216585   4.292   2.289   4.657  0.5361 -0.2445 -0.2032
  150SAPE  H12X16586   4.282   2.399   4.648 -0.6298 -0.4215 -1.3852
  150SAPE  H12Y16587   4.213   2.243   4.719  2.2330 -1.5306  1.1190
  150SAPE  C31316588   4.300   2.220   4.520  0.4722  0.5682  0.3706
  150SAPE  H13X16589   4.326   2.112   4.522 -2.1370 -0.4387 -4.4734
  150SAPE  H13Y16590   4.375   2.269   4.455 -1.6171  2.1376 -0.9939
  150SAPE  C31416591   4.161   2.229   4.458 -0.0119 -0.4144  0.0897
  150SAPE  H14X16592   4.123   2.333   4.454  0.8136 -0.1101 -0.0755
  150SAPE  H14Y16593   4.096   2.165   4.521  1.0088 -1.6984 -0.1204
  150SAPE  C31516594   4.148   2.174   4.315 -0.6810 -0.6239 -0.7243
  150SAPE  H15X16595   4.217   2.087   4.321 -0.8816 -0.6837  1.6171
  150SAPE  H15Y16596   4.194   2.245   4.243 -0.3046  0.1783  0.2884
  150SAPE  C31616597   4.003   2.149   4.276 -0.5862  0.5404 -0.3650
  150SAPE  H16X16598   4.015   2.114   4.172 -0.1009  1.2285 -0.5508
  150SAPE  H16Y16599   3.938   2.239   4.278 -2.4780 -0.7632 -1.2774
  150SAPE  C31716600   3.926   2.041   4.356  0.1544  0.2048  0.4992
  150SAPE  H17X16601   3.819   2.046   4.326 -0.8663 -1.7398  3.3586
  150SAPE  H17Y16602   3.920   2.076   4.461 -0.6706  1.0129  0.1908
  150SAPE  C31816603   3.973   1.897   4.340  0.1440 -0.4251  0.1787
  150SAPE  H18X16604   3.943   1.850   4.244  1.6095 -1.1456  0.0461
  150SAPE  H18Y16605   3.913   1.828   4.403 -0.1024 -1.0251 -0.6937
  150SAPE  H18Z16606   4.080   1.877   4.361  0.3353 -0.7388 -1.0331
  151SAPE     N16607   4.715   0.588   6.185 -0.3775  0.1882 -0.3538
  151SAPE   HN116608   4.710   0.486   6.205 -1.9642 -0.2298 -2.4792
  151SAPE   HN216609   4.726   0.641   6.274  0.3543  1.2866 -1.0722
  151SAPE   HN316610   4.621   0.617   6.153 -0.1309  2.1739  0.5745
  151SAPE   C1216611   4.830   0.633   6.096  0.1665  0.1558  0.3549
  151SAPE  H12A16612   4.813   0.580   6.000  2.1164  1.0571 -0.5558
  151SAPE  H12B16613   4.928   0.596   6.134  1.3945  2.1416 -0.6844
  151SAPE   C1116614   4.815   0.784   6.085  0.0925 -0.1759 -0.6374
  151SAPE  H11A16615   4.731   0.816   6.021  0.0653  0.0289 -0.5001
  151SAPE  H11B16616   4.913   0.815   6.043  1.3569 -1.1641  1.4073
  151SAPE     P16617   4.747   0.996   6.228  0.2605 -0.0132 -0.1783
  151SAPE   O1316618   4.619   1.005   6.147 -0.7171 -0.3359 -0.1114
  151SAPE   O1416619   4.733   1.042   6.371 -0.7207 -0.0164  0.1185
  151SAPE   O1216620   4.797   0.847   6.216 -0.2435 -0.3192  0.3759
  151SAPE   O1116621   4.851   1.082   6.148  0.5776  0.4777 -0.1997
  151SAPE    C116622   4.969   1.131   6.209  0.1339 -0.0689 -0.0089
  151SAPE    HA16623   5.008   1.075   6.296  1.0324  3.1192  1.7809
  151SAPE    HB16624   5.050   1.125   6.134  1.3109 -1.2024  1.3043
  151SAPE    C216625   4.948   1.279   6.256  0.1390  0.0673 -0.0021
  151SAPE    HS16626   4.853   1.282   6.312 -1.3117  1.7299 -2.3240
  151SAPE   O2116627   4.942   1.367   6.144  0.0869 -0.1110  0.2554
  151SAPE   C2116628   4.883   1.484   6.169  0.4166  0.4682 -0.1097
  151SAPE   O2216629   4.815   1.501   6.271 -0.5133  0.2619 -0.4047
  151SAPE   C2216630   4.911   1.577   6.050 -0.0356 -0.5136 -0.1344
  151SAPE   H2R16631   5.013   1.620   6.060 -0.6980  1.1927 -0.2591
  151SAPE   H2S16632   4.912   1.519   5.955  2.3006  0.9214 -1.0719
  151SAPE    C316633   5.061   1.314   6.353  0.5440 -0.3924  0.9073
  151SAPE    HX16634   5.057   1.226   6.420 -0.8883 -0.1769  1.1427
  151SAPE    HY16635   5.041   1.405   6.413 -1.2265 -1.4569  2.0303
  151SAPE   O3116636   5.192   1.316   6.288 -0.4396  0.4214 -0.7735
  151SAPE   C3116637   5.230   1.427   6.238  0.2485 -0.0323 -0.3192
  151SAPE   O3216638   5.164   1.532   6.233  0.4299  0.5852  0.1180
  151SAPE   C3216639   5.373   1.409   6.187 -0.1143 -0.4753 -0.6317
  151SAPE   H2X16640   5.432   1.366   6.271 -1.3503 -2.0469 -0.5267
  151SAPE   H2Y16641   5.407   1.512   6.163  1.4249 -1.0101 -0.8359
  151SAPE   C2316642   4.815   1.696   6.032  0.9619 -0.4189  0.4942
  151SAPE   H3R16643   4.835   1.752   5.938 -0.9654 -0.5196 -0.0186
  151SAPE   H3S16644   4.830   1.767   6.116 -1.3183  1.8892 -0.8938
  151SAPE   C2416645   4.666   1.656   6.022 -0.2126  0.2454 -0.5696
  151SAPE   H4R16646   4.602   1.747   6.028  0.2067  0.4928  0.4630
  151SAPE   H4S16647   4.639   1.596   6.112 -1.3384 -1.2720 -1.8687
  151SAPE   C2516648   4.641   1.562   5.900 -0.0711  0.6561 -0.4027
  151SAPE   H5R16649   4.654   1.454   5.911  0.0375  0.8372  1.4737
  151SAPE   C2616650   4.631   1.597   5.772 -0.4858 -0.2267  0.2902
  151SAPE   H6R16651   4.625   1.521   5.693  2.5178  0.8485 -1.1616
  151SAPE   C2716652   4.645   1.740   5.718 -0.5049 -0.1030 -0.6002
  151SAPE   H7R16653   4.728   1.747   5.644 -0.4555  1.5210 -0.4353
  151SAPE   H7S16654   4.663   1.813   5.799  0.1095 -0.5311 -0.3479
  151SAPE   C2816655   4.511   1.765   5.652  0.7525  0.1209 -1.1619
  151SAPE   H8R16656   4.427   1.780   5.721  1.9359  0.1647  0.3171
  151SAPE   C2916657   4.491   1.791   5.518  0.4228 -0.0551 -0.4896
  151SAPE   H9R16658   4.395   1.833   5.484  1.9538  2.4655 -2.0154
  151SAPE  C21016659   4.594   1.781   5.402 -0.3877 -0.3023 -0.1704
  151SAPE  H10R16660   4.699   1.781   5.438 -0.2517 -1.3658 -0.5004
  151SAPE  H10S16661   4.587   1.880   5.353 -1.1474  0.3582  1.2296
  151SAPE  C21116662   4.582   1.668   5.304  0.0385 -0.1331  0.0502
  151SAPE  H11R16663   4.526   1.581   5.340 -3.1123  1.0577 -1.5530
  151SAPE  C21216664   4.593   1.673   5.172 -0.1116  0.2130  0.0046
  151SAPE  H12R16665   4.584   1.579   5.115 -0.9093  2.4099 -3.8034
  151SAPE  C21316666   4.639   1.795   5.106 -0.4381  0.0887 -0.2990
  151SAPE  H13R16667   4.714   1.763   5.030  1.2133 -0.0468  1.3130
  151SAPE  H13S16668   4.682   1.867   5.179 -3.2230  2.1344 -0.5188
  151SAPE  C21416669   4.525   1.865   5.041 -0.3394 -0.2354  0.2347
  151SAPE  H14R16670   4.430   1.867   5.097 -0.5600  1.9229 -0.1353
  151SAPE  C21516671   4.527   1.923   4.921 -0.2508 -0.8611 -0.2227
  151SAPE  H15R16672   4.441   1.977   4.879 -1.0171 -1.5017  0.5006
  151SAPE  C21616673   4.647   1.922   4.825  0.4075  0.0474  0.2784
  151SAPE  H16R16674   4.742   1.901   4.877  1.2391 -1.7843 -1.8468
  151SAPE  H16S16675   4.663   2.027   4.792  2.8768 -0.3819 -0.0834
  151SAPE  C21716676   4.641   1.839   4.699  0.3760  0.1802 -0.0804
  151SAPE  H17R16677   4.622   1.732   4.719  1.1286 -0.5289 -2.8129
  151SAPE  H17S16678   4.741   1.835   4.652  1.0145 -1.9265  1.2918
  151SAPE  C21816679   4.530   1.894   4.611 -0.4629  0.5549  0.6535
  151SAPE  H18R16680   4.559   2.000   4.596 -0.6839  0.3994 -1.0272
  151SAPE  H18S16681   4.430   1.907   4.657 -0.9025  1.7580 -0.5621
  151SAPE  C21916682   4.519   1.809   4.479 -0.2968 -0.0608 -0.2892
  151SAPE  H19R16683   4.482   1.706   4.500  0.9567 -0.9986 -2.3924
  151SAPE  H19S16684   4.626   1.791   4.455 -0.2125  0.8056 -0.5904
  151SAPE  C22016685   4.431   1.876   4.369  0.1509 -0.1392 -0.4791
  151SAPE  H20R16686   4.433   1.799   4.289  0.3632 -0.4593 -0.1676
  151SAPE  H20S16687   4.459   1.976   4.329  1.9251 -0.3968  0.0099
  151SAPE  H20T16688   4.327   1.895   4.402  0.6644 -0.6782  1.6222
  151SAPE   C3316689   5.392   1.323   6.061 -0.0259  0.5680  0.2408
  151SAPE   H3X16690   5.346   1.223   6.081 -1.3163  1.4239  1.7697
  151SAPE   H3Y16691   5.495   1.298   6.028 -0.0218 -0.3397  0.8975
  151SAPE   C3416692   5.309   1.384   5.937  0.2694  0.0118 -0.0500
  151SAPE   H4X16693   5.353   1.479   5.900 -0.7100  0.6577  0.4136
  151SAPE   H4Y16694   5.206   1.403   5.975 -0.4417 -1.5919 -1.0428
  151SAPE   C3516695   5.301   1.283   5.828  0.2433  0.1049  0.4744
  151SAPE   H5X16696   5.220   1.212   5.853  0.2362  0.0633  0.3366
  151SAPE   H5Y16697   5.402   1.237   5.830  0.8785  1.4693  2.5948
  151SAPE   C3616698   5.286   1.342   5.694 -0.0135 -0.3785  1.1347
  151SAPE   H6X16699   5.355   1.289   5.626 -0.8292 -0.8564  0.6712
  151SAPE   H6Y16700   5.326   1.446   5.693  0.6294 -0.6217  0.0758
  151SAPE   C3716701   5.139   1.352   5.644  0.1819  0.3584  0.5081
  151SAPE   H7X16702   5.063   1.399   5.709  0.2803  2.4468 -0.7737
  151SAPE   H7Y16703   5.111   1.246   5.623 -0.8224  0.4688  1.2711
  151SAPE   C3816704   5.124   1.435   5.517 -0.3423 -0.0043 -0.4028
  151SAPE   H8X16705   5.201   1.413   5.440 -0.9073  2.1695 -1.6630
  151SAPE   H8Y16706   5.133   1.540   5.550 -1.3357  0.0012 -0.0997
  151SAPE   C3916707   4.989   1.420   5.456  0.3468 -0.1350 -0.0233
  151SAPE   H9X16708   4.910   1.454   5.526  1.4992  0.2704  1.1233
  151SAPE   H9Y16709   4.973   1.312   5.435 -0.6620  0.1122 -0.6148
  151SAPE  C31016710   4.970   1.508   5.328 -0.1687 -0.1207  0.0160
  151SAPE  H10X16711   5.007   1.612   5.342  0.5580 -0.1873 -1.2778
  151SAPE  H10Y16712   4.865   1.524   5.294 -0.5928 -0.3164  1.1991
  151SAPE  C31116713   5.039   1.438   5.215 -0.7415  0.1773  0.3448
  151SAPE  H11X16714   5.027   1.328   5.215  1.3886 -0.1370 -1.3361
  151SAPE  H11Y16715   5.150   1.445   5.219 -0.6727  0.4036 -1.1709
  151SAPE  C31216716   5.012   1.491   5.069  0.2048  0.2717  0.4421
  151SAPE  H12X16717   4.915   1.446   5.038 -0.8060  2.4859  0.1335
  151SAPE  H12Y16718   5.095   1.466   5.001 -1.7589  0.6297 -2.2479
  151SAPE  C31316719   4.991   1.644   5.058  0.0327  0.1982  0.0526
  151SAPE  H13X16720   5.074   1.703   5.101  3.1401 -2.5493 -1.7221
  151SAPE  H13Y16721   4.902   1.674   5.118 -0.2067  2.8277 -1.4486
  151SAPE  C31416722   4.961   1.685   4.911  0.4760  0.3027 -0.7056
  151SAPE  H14X16723   4.938   1.793   4.914  1.8923  0.6030  1.0894
  151SAPE  H14Y16724   4.867   1.637   4.876 -0.6498  0.7717  1.4933
  151SAPE  C31516725   5.069   1.661   4.811 -0.6704  0.3678  0.0997
  151SAPE  H15X16726   5.031   1.681   4.709  1.7430 -2.2972 -1.4877
  151SAPE  H15Y16727   5.098   1.554   4.818 -3.7735 -0.7722 -2.1067
  151SAPE  C31616728   5.188   1.747   4.826 -0.9132  0.0117  0.4589
  151SAPE  H16X16729   5.223   1.734   4.931  1.4756 -0.6715 -0.3569
  151SAPE  H16Y16730   5.169   1.856   4.818  0.6933  0.2572 -0.4969
  151SAPE  C31716731   5.291   1.696   4.722 -0.3150  0.6647 -0.0476
  151SAPE  H17X16732   5.250   1.597   4.695  1.0461  0.4785 -1.5672
  151SAPE  H17Y16733   5.393   1.682   4.763  0.8567  1.3144 -2.5441
  151SAPE  C31816734   5.285   1.783   4.592 -1.1624  0.2744  0.0116
  151SAPE  H18X16735   5.310   1.891   4.608 -0.3625  0.2517 -0.9521
  151SAPE  H18Y16736   5.182   1.779   4.550 -0.7364  2.1047 -1.3810
  151SAPE  H18Z16737   5.358   1.751   4.514 -0.5044  1.1621  0.2378
  152SAPE     N16738   0.528   3.365   6.563 -0.5763 -0.2719 -0.2972
  152SAPE   HN116739   0.484   3.420   6.638  0.7517  0.2120  0.1610
  152SAPE   HN216740   0.458   3.299   6.525 -2.1501  0.4287  1.2753
  152SAPE   HN316741   0.617   3.324   6.598 -0.9113 -0.5591  0.2279
  152SAPE   C1216742   0.547   3.462   6.452 -0.2178 -0.6993  0.1765
  152SAPE  H12A16743   0.582   3.411   6.360 -0.8652  0.6818 -0.8774
  152SAPE  H12B16744   0.632   3.528   6.483  1.2120 -1.7104 -1.4318
  152SAPE   C1116745   0.416   3.548   6.434 -0.2912 -0.5406 -0.2347
  152SAPE  H11A16746   0.418   3.640   6.372  0.7485 -0.9644 -0.8592
  152SAPE  H11B16747   0.390   3.587   6.534  2.4517 -0.0163  0.3504
  152SAPE     P16748   0.305   3.426   6.232 -0.1544  0.2708  0.1591
  152SAPE   O1316749   0.432   3.360   6.199 -0.0851  0.1012 -0.2699
  152SAPE   O1416750   0.186   3.345   6.211 -0.1898 -0.1195  0.7666
  152SAPE   O1216751   0.309   3.470   6.383  0.5087 -0.4221  0.1701
  152SAPE   O1116752   0.309   3.568   6.157 -0.2998  0.1285  0.1625
  152SAPE    C116753   0.212   3.665   6.174 -0.1321  0.0932 -0.0330
  152SAPE    HA16754   0.170   3.675   6.277  0.9623 -0.7208  0.5060
  152SAPE    HB16755   0.267   3.761   6.161 -1.0333  0.4173 -1.7770
  152SAPE    C216756   0.092   3.640   6.081  0.1381 -0.2250 -0.5328
  152SAPE    HS16757   0.044   3.546   6.117 -0.8842  1.4916  3.0136
  152SAPE   O2116758   0.134   3.640   5.941  0.0486  0.3541 -0.5043
  152SAPE   C2116759   0.066   3.565   5.865  0.2813  0.1263 -1.3429
  152SAPE   O2216760  -0.044   3.511   5.895  0.0044 -0.4825 -0.2937
  152SAPE   C2216761   0.138   3.556   5.736 -0.1843 -0.3042  0.2794
  152SAPE   H2R16762   0.202   3.646   5.721 -1.5452  1.3475  3.3738
  152SAPE   H2S16763   0.217   3.480   5.750  1.2145  0.9376 -0.5479
  152SAPE    C316764  -0.033   3.734   6.096 -0.2156 -0.3995 -0.0471
  152SAPE    HX16765  -0.085   3.718   6.193  0.6972 -0.6507  0.4185
  152SAPE    HY16766  -0.114   3.719   6.021 -0.0870 -3.5629  0.3168
  152SAPE   O3116767   0.016   3.870   6.116  0.4007 -0.0430  0.5158
  152SAPE   C3116768   0.052   3.930   6.002  0.6100  0.0404  0.3316
  152SAPE   O3216769   0.012   3.905   5.888  0.0924  0.3071 -0.3269
  152SAPE   C3216770   0.163   4.042   6.033 -0.2393  0.1791 -0.4443
  152SAPE   H2X16771   0.225   3.996   6.113 -1.9660 -1.7672 -0.1394
  152SAPE   H2Y16772   0.107   4.132   6.065  1.8293  1.2444  0.3147
  152SAPE   C2316773   0.043   3.532   5.617 -0.1446  0.2839 -0.6201
  152SAPE   H3R16774  -0.057   3.577   5.635 -0.8476 -1.7304  0.8505
  152SAPE   H3S16775   0.027   3.423   5.605  1.5287 -0.0914  0.1732
  152SAPE   C2416776   0.086   3.593   5.485  0.3038 -0.8902 -0.3127
  152SAPE   H4R16777   0.096   3.702   5.499 -3.1229 -0.7765  2.6284
  152SAPE   H4S16778   0.001   3.569   5.418 -0.1751  0.3717 -0.1759
  152SAPE   C2516779   0.217   3.540   5.428  1.1054 -0.3963 -0.6641
  152SAPE   H5R16780   0.293   3.547   5.507  0.2743  2.4617  0.0025
  152SAPE   C2616781   0.250   3.514   5.302  0.4425  0.0482 -0.3125
  152SAPE   H6R16782   0.348   3.472   5.273  0.4112 -0.4114  0.2306
  152SAPE   C2716783   0.147   3.508   5.192 -0.3932  0.3541 -0.3375
  152SAPE   H7R16784   0.047   3.543   5.225 -0.5145 -2.0409  2.1557
  152SAPE   H7S16785   0.124   3.402   5.170  0.9829 -0.8071  3.0889
  152SAPE   C2816786   0.189   3.585   5.075 -0.3014 -0.4388 -0.1823
  152SAPE   H8R16787   0.231   3.686   5.089 -1.7623  0.0653  0.7607
  152SAPE   C2916788   0.183   3.557   4.945  0.1283  0.0368 -0.0631
  152SAPE   H9R16789   0.226   3.629   4.874 -0.2116 -0.9006 -1.2406
  152SAPE  C21016790   0.129   3.433   4.883  0.3815 -0.4556  0.0687
  152SAPE  H10R16791   0.051   3.476   4.817 -0.5100 -0.5137  1.0646
  152SAPE  H10S16792   0.068   3.369   4.950  1.0178 -0.6286  0.4942
  152SAPE  C21116793   0.229   3.340   4.819  0.4105 -0.2893  0.6629
  152SAPE  H11R16794   0.312   3.300   4.878 -0.9803 -2.5304  1.2285
  152SAPE  C21216795   0.212   3.295   4.693 -0.2748 -0.2427  0.1886
  152SAPE  H12R16796   0.288   3.229   4.649  0.9949  1.8033 -0.8790
  152SAPE  C21316797   0.105   3.350   4.598  0.4287 -0.2074  0.5325
  152SAPE  H13R16798   0.139   3.330   4.495 -3.1934  2.0512 -1.2870
  152SAPE  H13S16799   0.105   3.461   4.600 -0.0279 -0.1855 -0.2881
  152SAPE  C21416800  -0.035   3.299   4.616  0.0015 -0.4830  0.7894
  152SAPE  H14R16801  -0.066   3.262   4.715  0.5027  3.0697  2.4246
  152SAPE  C21516802  -0.130   3.306   4.519  0.1485 -0.0584 -1.0680
  152SAPE  H15R16803  -0.228   3.259   4.539  0.6061 -0.3888  0.4890
  152SAPE  C21616804  -0.125   3.362   4.380  0.8050  0.6814 -0.4715
  152SAPE  H16R16805  -0.131   3.278   4.307  1.9739  2.1902 -2.4075
  152SAPE  H16S16806  -0.033   3.424   4.378  0.8718  0.6145  0.1832
  152SAPE  C21716807  -0.243   3.466   4.357 -0.4532 -0.1173  0.1975
  152SAPE  H17R16808  -0.334   3.412   4.389 -0.4499 -0.1998  0.0673
  152SAPE  H17S16809  -0.240   3.476   4.246  2.9780 -4.2625 -0.3324
  152SAPE  C21816810  -0.240   3.598   4.438 -0.1376 -0.7307  0.7754
  152SAPE  H18R16811  -0.206   3.578   4.542 -0.8237  0.9854  1.3766
  152SAPE  H18S16812  -0.340   3.647   4.430  1.0220  1.4487 -2.0905
  152SAPE  C21916813  -0.141   3.699   4.382 -0.2981 -0.4571 -0.1210
  152SAPE  H19R16814  -0.154   3.727   4.275 -0.4099 -1.6009 -0.4264
  152SAPE  H19S16815  -0.042   3.649   4.389  0.1804  0.6111  1.0178
  152SAPE  C22016816  -0.150   3.823   4.470 -0.1267 -0.1578  0.7329
  152SAPE  H20R16817  -0.109   3.791   4.568  1.1531  0.0716  0.3036
  152SAPE  H20S16818  -0.256   3.853   4.479  0.5918  3.4390 -0.8827
  152SAPE  H20T16819  -0.091   3.910   4.435  2.5522 -1.6155  1.3132
  152SAPE   C3316820   0.247   4.091   5.905  0.1080  0.3569 -0.3557
  152SAPE   H3X16821   0.180   4.088   5.816 -2.6732  0.5411  1.6120
  152SAPE   H3Y16822   0.319   4.011   5.877 -0.4006  0.4476 -2.0509
  152SAPE   C3416823   0.313   4.231   5.917 -0.0755  0.3873  0.1464
  152SAPE   H4X16824   0.357   4.225   6.019 -2.4885 -1.0678  1.1850
  152SAPE   H4Y16825   0.227   4.302   5.920 -1.4963 -1.2416 -0.6761
  152SAPE   C3516826   0.421   4.271   5.816 -0.0892  0.0188 -0.2485
  152SAPE   H5X16827   0.514   4.219   5.847  0.6040  1.5813  0.3851
  152SAPE   H5Y16828   0.440   4.379   5.833 -1.0607  0.2702 -0.6771
  152SAPE   C3616829   0.385   4.258   5.663 -0.1206  0.1132 -1.0352
  152SAPE   H6X16830   0.305   4.332   5.642 -0.6302 -0.6325 -1.7632
  152SAPE   H6Y16831   0.338   4.159   5.646  3.0035 -1.7491  0.2751
  152SAPE   C3716832   0.503   4.291   5.565  0.1132  0.1122 -0.6938
  152SAPE   H7X16833   0.598   4.239   5.587  0.7266  0.9998 -1.1575
  152SAPE   H7Y16834   0.524   4.398   5.589  3.1582 -0.8671  1.5196
  152SAPE   C3816835   0.470   4.277   5.416 -1.2777 -0.4846 -0.2782
  152SAPE   H8X16836   0.392   4.349   5.381  0.6521  1.8305 -0.0832
  152SAPE   H8Y16837   0.438   4.171   5.406  0.8787 -1.0476 -2.0199
  152SAPE   C3916838   0.591   4.288   5.324  0.3913 -0.1639  0.2546
  152SAPE   H9X16839   0.659   4.201   5.329  0.8080 -0.0392 -2.1189
  152SAPE   H9Y16840   0.654   4.376   5.349  0.6865 -0.2783 -0.0858
  152SAPE  C31016841   0.543   4.312   5.181  0.3983  0.2841 -0.1429
  152SAPE  H10X16842   0.483   4.405   5.180  0.6007  0.4144 -0.8199
  152SAPE  H10Y16843   0.483   4.233   5.132  0.5272 -0.7645  1.3293
  152SAPE  C31116844   0.666   4.338   5.082 -0.2154 -0.3148  0.4492
  152SAPE  H11X16845   0.732   4.249   5.083  3.2942  1.9874 -1.8987
  152SAPE  H11Y16846   0.725   4.417   5.135  0.8092 -2.3355  2.4968
  152SAPE  C31216847   0.622   4.385   4.947  0.0414 -0.1645  0.3013
  152SAPE  H12X16848   0.556   4.473   4.959 -0.2540 -0.2317 -0.6883
  152SAPE  H12Y16849   0.555   4.309   4.901  0.6623 -1.1461  0.9768
  152SAPE  C31316850   0.742   4.414   4.859 -0.1818 -0.3671 -0.1822
  152SAPE  H13X16851   0.796   4.318   4.843  0.0507 -0.5290  1.4268
  152SAPE  H13Y16852   0.813   4.481   4.911 -1.6728  3.1502 -2.3659
  152SAPE  C31416853   0.692   4.482   4.729 -0.2324 -0.3624  0.2795
  152SAPE  H14X16854   0.617   4.562   4.746 -0.1026 -0.4308  1.2092
  152SAPE  H14Y16855   0.627   4.415   4.668 -0.0243  0.6336 -1.0956
  152SAPE  C31516856   0.807   4.530   4.641  0.5929 -0.4567  0.4904
  152SAPE  H15X16857   0.854   4.443   4.591 -1.2864  0.1891 -2.7158
  152SAPE  H15Y16858   0.872   4.588   4.710 -1.2833  3.0626 -0.4374
  152SAPE  C31616859   0.753   4.629   4.537  0.6813  0.7249 -0.3142
  152SAPE  H16X16860   0.837   4.651   4.469 -0.3600 -0.0887 -1.9370
  152SAPE  H16Y16861   0.731   4.724   4.590  4.1841  2.6299 -1.9816
  152SAPE  C31716862   0.640   4.581   4.433 -0.3348  0.3223  0.4500
  152SAPE  H17X16863   0.639   4.667   4.363 -0.4157 -0.8462 -1.0238
  152SAPE  H17Y16864   0.547   4.579   4.495 -1.0124  0.0557 -0.5533
  152SAPE  C31816865   0.669   4.442   4.387 -0.2395  0.0931 -0.4899
  152SAPE  H18X16866   0.773   4.435   4.350  0.3725  0.5699  1.0910
  152SAPE  H18Y16867   0.597   4.412   4.307 -0.9356  0.2093  0.0798
  152SAPE  H18Z16868   0.656   4.368   4.469  1.1253  0.3346 -0.0320
  153SAPE     N16869   6.514   2.371   6.507  0.1152  0.2152 -0.4476
  153SAPE   HN116870   6.473   2.462   6.477  1.1341  0.3174 -1.5729
  153SAPE   HN216871   6.540   2.393   6.605 -0.1225 -0.0358 -0.3270
  153SAPE   HN316872   6.601   2.344   6.457  0.5963 -0.7063  0.8316
  153SAPE   C1216873   6.419   2.253   6.515 -0.2835 -0.4052 -0.0111
  153SAPE  H12A16874   6.397   2.224   6.411 -2.7516  1.2607 -0.0438
  153SAPE  H12B16875   6.329   2.296   6.564 -0.8533 -0.5170 -0.9491
  153SAPE   C1116876   6.468   2.135   6.607  0.2109 -0.8942 -0.3136
  153SAPE  H11A16877   6.388   2.058   6.603 -0.1368 -0.7299  2.2134
  153SAPE  H11B16878   6.476   2.154   6.716  1.5857 -2.5761 -0.0677
  153SAPE     P16879   6.730   2.064   6.620 -0.2050  0.0325 -0.1543
  153SAPE   O1316880   6.750   2.147   6.742 -0.1571 -0.4048 -0.1628
  153SAPE   O1416881   6.743   1.922   6.656 -0.6440 -0.5008 -0.1238
  153SAPE   O1216882   6.592   2.092   6.545 -0.3189 -0.4125 -0.4412
  153SAPE   O1116883   6.827   2.103   6.502 -0.6147 -0.3434 -0.3278
  153SAPE    C116884   6.859   1.997   6.410  0.2771 -0.3756 -0.1336
  153SAPE    HA16885   6.957   2.019   6.361  0.6068  0.3500  0.8130
  153SAPE    HB16886   6.879   1.902   6.464 -1.2448 -0.6762 -0.0700
  153SAPE    C216887   6.756   1.988   6.286 -0.1093  0.0592 -0.2037
  153SAPE    HS16888   6.668   1.929   6.319 -0.6234  1.6522  1.3893
  153SAPE   O2116889   6.824   1.937   6.174 -0.4804 -0.0698  0.7399
  153SAPE   C2116890   6.841   1.805   6.166  0.4817  0.1037 -0.1549
  153SAPE   O2216891   6.806   1.729   6.255  0.9321  0.2425  0.3284
  153SAPE   C2216892   6.885   1.761   6.025 -0.0264 -0.1280 -0.7146
  153SAPE   H2R16893   6.796   1.729   5.967 -0.2900 -0.5715 -0.0720
  153SAPE   H2S16894   6.931   1.841   5.963 -0.5252  0.2031 -0.6619
  153SAPE    C316895   6.707   2.130   6.250 -0.6053 -0.2232  0.8351
  153SAPE    HX16896   6.792   2.201   6.243  0.7229 -1.8383 -0.2343
  153SAPE    HY16897   6.644   2.168   6.333 -2.0400  0.0415 -0.3088
  153SAPE   O3116898   6.620   2.130   6.132  0.0067  0.0966 -0.0741
  153SAPE   C3116899   6.685   2.153   6.020  0.4288  0.2802 -0.0500
  153SAPE   O3216900   6.795   2.200   6.005  0.7961 -0.6216 -0.7422
  153SAPE   C3216901   6.600   2.103   5.904  0.3403  0.4783 -0.8370
  153SAPE   H2X16902   6.549   2.193   5.866 -3.3022 -1.6404 -1.4230
  153SAPE   H2Y16903   6.518   2.033   5.932 -0.2375  1.6746  0.5835
  153SAPE   C2316904   6.996   1.648   6.034 -0.0707 -0.8258  0.5912
  153SAPE   H3R16905   6.950   1.569   6.096  0.3163 -1.4203  0.1361
  153SAPE   H3S16906   7.090   1.677   6.084  0.3467  2.3922 -1.6943
  153SAPE   C2416907   7.042   1.595   5.895  0.0350 -0.1628  0.5178
  153SAPE   H4R16908   6.951   1.564   5.840  0.3818 -2.2621  1.0308
  153SAPE   H4S16909   7.102   1.505   5.919  2.2111  0.5669 -1.7608
  153SAPE   C2516910   7.131   1.702   5.829 -0.0169  0.1564 -0.1991
  153SAPE   H5R16911   7.219   1.723   5.892 -0.2184 -0.7848  0.4151
  153SAPE   C2616912   7.122   1.773   5.706  0.4997  0.5417 -1.0583
  153SAPE   H6R16913   7.202   1.846   5.686 -0.1772  1.8564  0.7173
  153SAPE   C2716914   7.029   1.754   5.596  0.3303 -0.1926 -0.3355
  153SAPE   H7R16915   7.010   1.853   5.550  1.4792  0.3329  0.2937
  153SAPE   H7S16916   6.930   1.727   5.640 -0.9693  2.6966 -1.2619
  153SAPE   C2816917   7.081   1.651   5.494  0.0402 -0.4455 -0.4109
  153SAPE   H8R16918   7.125   1.566   5.549  1.3035  0.3246 -0.1967
  153SAPE   C2916919   7.090   1.656   5.362 -0.0242  0.1990 -0.2068
  153SAPE   H9R16920   7.110   1.565   5.305 -0.6539  0.4796 -0.8962
  153SAPE  C21016921   7.041   1.760   5.267  0.2107 -0.2847 -0.2964
  153SAPE  H10R16922   7.034   1.858   5.318 -0.5284 -0.8012  0.6096
  153SAPE  H10S16923   6.945   1.736   5.216  1.2815 -1.1005 -2.0504
  153SAPE  C21116924   7.150   1.787   5.164 -0.6374  0.6154 -0.4097
  153SAPE  H11R16925   7.240   1.833   5.208 -2.0768  1.6408  1.6152
  153SAPE  C21216926   7.135   1.779   5.035 -0.5524  0.0326  0.6839
  153SAPE  H12R16927   7.223   1.797   4.972  0.2023 -1.9601  1.0954
  153SAPE  C21316928   7.021   1.712   4.964 -0.3546  0.4834  1.2451
  153SAPE  H13R16929   6.948   1.657   5.028  0.1084  0.5286  1.8201
  153SAPE  H13S16930   7.051   1.637   4.887  1.6168  1.6672  0.7923
  153SAPE  C21416931   6.934   1.820   4.896  0.4414  0.1043 -0.3923
  153SAPE  H14R16932   6.915   1.907   4.962 -2.5313 -0.7447  0.0125
  153SAPE  C21516933   6.878   1.820   4.772  0.1937 -0.3175 -0.5005
  153SAPE  H15R16934   6.813   1.905   4.745 -1.8051 -0.9805  1.8147
  153SAPE  C21616935   6.879   1.704   4.671 -0.8553  0.1927 -0.6299
  153SAPE  H16R16936   6.796   1.721   4.601  0.4137  0.0239 -2.2290
  153SAPE  H16S16937   6.871   1.606   4.724 -0.0295  0.9119  0.9153
  153SAPE  C21716938   7.009   1.693   4.594  0.0536 -0.1211 -0.3460
  153SAPE  H17R16939   7.007   1.594   4.542 -0.0433  0.4747 -1.5010
  153SAPE  H17S16940   7.097   1.688   4.663 -0.7454  1.0947  0.7965
  153SAPE  C21816941   7.041   1.798   4.492 -0.3320 -0.0310  0.2356
  153SAPE  H18R16942   7.145   1.774   4.463 -0.3275 -1.5813  1.4278
  153SAPE  H18S16943   7.038   1.896   4.544 -1.1262  0.1777 -0.1795
  153SAPE  C21916944   6.947   1.800   4.371  0.2600  1.0699 -0.3565
  153SAPE  H19R16945   6.980   1.870   4.291 -0.0431  0.9914 -0.5531
  153SAPE  H19S16946   6.849   1.844   4.397  0.5314  2.5770 -1.6988
  153SAPE  C22016947   6.907   1.663   4.304  0.5769  0.8958 -0.1950
  153SAPE  H20R16948   7.003   1.616   4.276  0.4071  0.9443 -0.8624
  153SAPE  H20S16949   6.844   1.672   4.213 -0.0893 -1.3688 -0.0136
  153SAPE  H20T16950   6.845   1.603   4.375  0.4195 -1.4062 -2.1514
  153SAPE   C3316951   6.684   2.036   5.791 -0.5450 -0.1860  0.0441
  153SAPE   H3X16952   6.746   1.953   5.832 -1.3238  0.4769  2.7796
  153SAPE   H3Y16953   6.743   2.124   5.759  0.3926 -0.6201  0.5349
  153SAPE   C3416954   6.597   1.969   5.689 -0.2714 -0.1602 -0.1506
  153SAPE   H4X16955   6.522   2.047   5.663 -1.1827 -1.1132 -0.4634
  153SAPE   H4Y16956   6.546   1.876   5.721  2.2041 -1.8082 -0.6959
  153SAPE   C3516957   6.671   1.919   5.559 -0.1077  0.0425  0.2527
  153SAPE   H5X16958   6.740   1.833   5.574  2.6919  2.3122  1.2134
  153SAPE   H5Y16959   6.727   2.006   5.519  1.9580 -2.0055 -1.6269
  153SAPE   C3616960   6.570   1.872   5.452  0.5887  0.8415 -0.2269
  153SAPE   H6X16961   6.495   1.951   5.432  0.4505  0.5039 -1.1186
  153SAPE   H6Y16962   6.513   1.784   5.488 -0.4576  1.0033 -1.3995
  153SAPE   C3716963   6.638   1.830   5.320 -0.0413 -0.0884  0.0979
  153SAPE   H7X16964   6.740   1.787   5.337 -0.4149 -1.0778 -0.0669
  153SAPE   H7Y16965   6.656   1.920   5.259  0.2706 -0.8098 -0.8978
  153SAPE   C3816966   6.555   1.736   5.229  0.3401  1.0772 -0.3915
  153SAPE   H8X16967   6.448   1.761   5.244 -0.5531 -2.6082  0.3344
  153SAPE   H8Y16968   6.574   1.633   5.265  0.4188  2.1100  2.8795
  153SAPE   C3916969   6.597   1.735   5.085  0.2443  0.1807 -0.1239
  153SAPE   H9X16970   6.707   1.750   5.080  0.5623 -2.1683 -1.6207
  153SAPE   H9Y16971   6.555   1.823   5.032  0.2364  0.9602  1.1412
  153SAPE  C31016972   6.577   1.603   5.009  0.4724  0.2613  0.3064
  153SAPE  H10X16973   6.603   1.521   5.079 -2.9182  1.3724  3.2249
  153SAPE  H10Y16974   6.634   1.612   4.915 -0.1898  2.0126  0.0496
  153SAPE  C31116975   6.424   1.572   4.972 -0.7951 -0.6467 -0.1811
  153SAPE  H11X16976   6.364   1.584   5.065  1.5013 -1.4643  1.5371
  153SAPE  H11Y16977   6.432   1.463   4.953  1.0208 -0.6491  0.3701
  153SAPE  C31216978   6.373   1.632   4.845  1.1895  0.2696  0.5991
  153SAPE  H12X16979   6.427   1.593   4.757 -1.6520 -0.0455 -1.1376
  153SAPE  H12Y16980   6.410   1.737   4.836  1.7675 -0.0446 -0.9493
  153SAPE  C31316981   6.222   1.622   4.829  1.0482  0.4231 -0.1946
  153SAPE  H13X16982   6.161   1.693   4.889  0.5258  0.8009 -1.1418
  153SAPE  H13Y16983   6.201   1.517   4.858  1.8221  0.0412 -0.9795
  153SAPE  C31416984   6.174   1.643   4.681 -0.1033 -0.3305 -0.3958
  153SAPE  H14X16985   6.188   1.748   4.647 -0.5476 -0.0313  0.3148
  153SAPE  H14Y16986   6.066   1.623   4.693  0.0104 -0.3255  0.8321
  153SAPE  C31516987   6.236   1.543   4.582  0.1223 -0.2683 -0.2887
  153SAPE  H15X16988   6.246   1.443   4.629 -3.4654 -0.5208  0.2245
  153SAPE  H15Y16989   6.329   1.589   4.541 -0.5378  2.7915  1.3263
  153SAPE  C31616990   6.139   1.521   4.464  0.5644 -0.1738  0.5575
  153SAPE  H16X16991   6.139   1.612   4.401  2.5538 -1.7107 -1.8539
  153SAPE  H16Y16992   6.037   1.495   4.499  0.3477 -2.7196 -1.5913
  153SAPE  C31716993   6.180   1.400   4.378  0.5420  0.0438 -0.1821
  153SAPE  H17X16994   6.090   1.358   4.329 -0.3711 -1.2454  2.4399
  153SAPE  H17Y16995   6.194   1.322   4.455  2.0511 -0.9762 -1.4225
  153SAPE  C31816996   6.296   1.432   4.291  0.3567  0.2714 -0.2338
  153SAPE  H18X16997   6.314   1.346   4.224 -2.4297 -1.3172  0.9001
  153SAPE  H18Y16998   6.391   1.448   4.346  0.4675 -1.2807  0.0568
  153SAPE  H18Z16999   6.280   1.529   4.238  2.8950  0.9746  0.1323
  154SAPE     N17000   5.396   6.577   6.679 -0.2618 -0.3347 -0.4477
  154SAPE   HN117001   5.440   6.669   6.699 -2.1913  0.4794  0.3787
  154SAPE   HN217002   5.384   6.520   6.766  0.8153  0.3824  0.1960
  154SAPE   HN317003   5.444   6.532   6.599  2.8627 -0.7505  1.4714
  154SAPE   C1217004   5.252   6.625   6.650 -0.1231 -0.4262 -0.4588
  154SAPE  H12A17005   5.264   6.715   6.586  3.0880  0.2493  0.9141
  154SAPE  H12B17006   5.212   6.647   6.752 -0.8791 -1.0344 -0.6159
  154SAPE   C1117007   5.170   6.521   6.574 -0.1727  0.0096 -0.2593
  154SAPE  H11A17008   5.200   6.521   6.467 -1.2593 -0.3177 -0.5772
  154SAPE  H11B17009   5.061   6.544   6.578 -0.6842 -2.1823 -0.1972
  154SAPE     P17010   5.077   6.290   6.663 -0.5426  0.1284  0.2554
  154SAPE   O1317011   5.136   6.169   6.720 -0.1651  0.2504  0.3206
  154SAPE   O1417012   4.981   6.368   6.743  0.0294 -0.1284  0.3653
  154SAPE   O1217013   5.196   6.392   6.623  0.4875  0.0359 -0.1625
  154SAPE   O1117014   5.028   6.255   6.524  0.2475 -0.0020  0.0148
  154SAPE    C117015   5.130   6.227   6.425 -0.1218  0.0923  0.0425
  154SAPE    HA17016   5.234   6.245   6.460 -0.2939  2.5984 -0.5150
  154SAPE    HB17017   5.124   6.121   6.393 -1.2955 -0.1455  0.9762
  154SAPE    C217018   5.104   6.312   6.289  0.4259 -0.2700  0.0792
  154SAPE    HS17019   5.121   6.420   6.309  4.5335 -0.3675 -1.7481
  154SAPE   O2117020   4.970   6.281   6.243  0.2066  0.4978 -0.1727
  154SAPE   C2117021   4.911   6.382   6.191 -0.1300 -0.1115 -0.4776
  154SAPE   O2217022   4.948   6.499   6.185 -0.2225 -0.3652  0.3387
  154SAPE   C2217023   4.778   6.339   6.131 -0.9371  0.1236 -0.4939
  154SAPE   H2R17024   4.717   6.332   6.224 -1.1387 -1.3416 -0.7175
  154SAPE   H2S17025   4.728   6.424   6.079 -0.6543  1.0712  0.7380
  154SAPE    C317026   5.207   6.263   6.185 -0.3125 -0.0377  0.3119
  154SAPE    HX17027   5.200   6.152   6.177  0.4969 -0.0729 -0.1008
  154SAPE    HY17028   5.309   6.278   6.227  0.0680 -2.6282  0.5107
  154SAPE   O3117029   5.196   6.333   6.059  0.2351 -0.5591  0.1077
  154SAPE   C3117030   5.304   6.366   6.001 -0.2161  0.8446 -0.0844
  154SAPE   O3217031   5.416   6.328   6.021 -0.1753 -0.3668  0.4339
  154SAPE   C3217032   5.281   6.477   5.899 -0.0318 -0.2641 -0.3823
  154SAPE   H2X17033   5.328   6.567   5.944  0.4394 -0.2986 -0.7924
  154SAPE   H2Y17034   5.174   6.505   5.904 -0.0038 -0.2693  0.5746
  154SAPE   C2317035   4.770   6.209   6.043 -0.2397 -0.1204  0.6616
  154SAPE   H3R17036   4.669   6.196   5.999 -0.9737  1.1811  1.8802
  154SAPE   H3S17037   4.784   6.121   6.109 -3.4978 -1.5623 -0.3810
  154SAPE   C2417038   4.870   6.207   5.928  0.3597 -0.0336  0.6751
  154SAPE   H4R17039   4.969   6.226   5.973 -0.1910  1.6030  1.2401
  154SAPE   H4S17040   4.838   6.282   5.852 -1.3688  1.5795  2.8908
  154SAPE   C2517041   4.890   6.069   5.863  0.1458 -0.9813  0.4001
  154SAPE   H5R17042   4.924   5.997   5.939  1.7169  0.6176  1.2966
  154SAPE   C2617043   4.907   6.044   5.733  0.3222 -0.1574  0.2879
  154SAPE   H6R17044   4.944   5.946   5.701 -1.4595 -0.1423 -2.1401
  154SAPE   C2717045   4.870   6.134   5.618 -0.1776 -0.0103 -0.2593
  154SAPE   H7R17046   4.777   6.193   5.637 -1.5564 -0.9601 -3.4648
  154SAPE   H7S17047   4.825   6.073   5.537 -0.4706 -1.8852  1.2450
  154SAPE   C2817048   4.977   6.238   5.575 -1.1452  0.0846 -1.0410
  154SAPE   H8R17049   5.024   6.305   5.647 -0.5595  0.0825 -1.4152
  154SAPE   C2917050   5.029   6.246   5.452  0.3479  0.2052 -0.0746
  154SAPE   H9R17051   5.097   6.328   5.426  2.3809 -0.5937  2.3628
  154SAPE  C21017052   4.989   6.157   5.336  0.0592 -0.0760  0.0119
  154SAPE  H10R17053   4.914   6.212   5.276 -0.9965 -0.5585  0.8460
  154SAPE  H10S17054   4.934   6.064   5.362 -0.3610  0.3880  0.8270
  154SAPE  C21117055   5.109   6.111   5.258  0.3537  0.5464 -0.0604
  154SAPE  H11R17056   5.172   6.029   5.294 -1.2672 -1.2821 -1.2033
  154SAPE  C21217057   5.143   6.173   5.145 -0.0100 -0.0094  0.6528
  154SAPE  H12R17058   5.227   6.127   5.092  0.9661  0.3916  1.8086
  154SAPE  C21317059   5.070   6.293   5.075  0.0493  0.5263 -0.2044
  154SAPE  H13R17060   5.030   6.361   5.153  0.2417 -0.4006  0.7302
  154SAPE  H13S17061   4.975   6.260   5.029  0.1650  0.1567 -0.1856
  154SAPE  C21417062   5.161   6.352   4.971 -0.3777 -0.1145  0.0718
  154SAPE  H14R17063   5.256   6.377   5.020 -0.1733 -1.6586  0.5137
  154SAPE  C21517064   5.136   6.380   4.840  0.4448  0.0724 -0.0194
  154SAPE  H15R17065   5.213   6.416   4.770 -0.1736  0.5490 -0.4624
  154SAPE  C21617066   5.006   6.357   4.763 -0.3768 -0.2812 -0.1519
  154SAPE  H16R17067   4.942   6.447   4.752  1.2546  0.8296 -1.0220
  154SAPE  H16S17068   4.941   6.276   4.801 -2.4486  0.8730 -1.0570
  154SAPE  C21717069   5.036   6.310   4.621 -0.3958 -0.4897 -0.4481
  154SAPE  H17R17070   5.072   6.401   4.568 -0.1830  0.2887  0.9760
  154SAPE  H17S17071   4.937   6.307   4.571 -0.9003 -0.3603  0.5208
  154SAPE  C21817072   5.124   6.184   4.606 -0.3163 -0.4867 -0.4275
  154SAPE  H18R17073   5.083   6.130   4.695 -2.7697  2.3047  0.3051
  154SAPE  H18S17074   5.232   6.196   4.628  0.0362 -0.2278 -2.1564
  154SAPE  C21917075   5.092   6.120   4.477 -0.3366 -0.2837 -0.0108
  154SAPE  H19R17076   5.132   6.176   4.390 -0.9281 -1.3416 -0.9940
  154SAPE  H19S17077   4.982   6.111   4.477 -0.4018 -0.1706 -2.2799
  154SAPE  C22017078   5.141   5.977   4.454  0.4441  0.0424 -0.4151
  154SAPE  H20R17079   5.248   5.988   4.427  0.6042 -0.1671  0.1338
  154SAPE  H20S17080   5.096   5.935   4.362 -1.5665  3.6109 -1.2364
  154SAPE  H20T17081   5.125   5.917   4.546  0.2980  2.9212  1.5757
  154SAPE   C3317082   5.325   6.442   5.756 -0.2825  0.3890  0.2953
  154SAPE   H3X17083   5.271   6.349   5.727 -1.6020  0.3971  2.4952
  154SAPE   H3Y17084   5.435   6.443   5.747 -0.3208 -0.7607 -0.5623
  154SAPE   C3417085   5.267   6.546   5.664 -0.6081  0.2137 -0.1520
  154SAPE   H4X17086   5.287   6.642   5.717  1.3488 -0.3016  0.1161
  154SAPE   H4Y17087   5.161   6.518   5.644 -0.1268 -1.4546 -0.5052
  154SAPE   C3517088   5.332   6.531   5.530  0.2636 -0.6630  0.1839
  154SAPE   H5X17089   5.340   6.422   5.512  1.0774 -0.7774  1.1395
  154SAPE   H5Y17090   5.440   6.550   5.546  0.2997  0.0342 -0.7944
  154SAPE   C3617091   5.278   6.604   5.407  0.4532  0.1411  0.1824
  154SAPE   H6X17092   5.287   6.712   5.430  1.9137  0.4743 -1.7109
  154SAPE   H6Y17093   5.168   6.589   5.407  0.6646 -1.7096  0.8764
  154SAPE   C3717094   5.343   6.562   5.271 -0.2276  0.0069 -0.1220
  154SAPE   H7X17095   5.297   6.469   5.232 -4.6846  1.5012  0.9656
  154SAPE   H7Y17096   5.450   6.547   5.296 -0.9792  0.7383  4.4860
  154SAPE   C3817097   5.322   6.671   5.161 -0.6717 -0.4724 -0.8274
  154SAPE   H8X17098   5.352   6.771   5.197 -2.4999  0.4056 -1.5796
  154SAPE   H8Y17099   5.213   6.677   5.140 -0.5541 -2.2854 -2.2277
  154SAPE   C3917100   5.398   6.642   5.032 -0.9415  0.3874 -0.1570
  154SAPE   H9X17101   5.399   6.532   5.020 -1.4522  0.3375  0.2425
  154SAPE   H9Y17102   5.506   6.667   5.044 -0.6212 -0.7765 -0.4271
  154SAPE  C31017103   5.345   6.706   4.903  0.2467  0.3931  0.7829
  154SAPE  H10X17104   5.353   6.817   4.909  0.0138  0.5536 -1.1033
  154SAPE  H10Y17105   5.241   6.670   4.884  1.4186 -1.7848 -2.2650
  154SAPE  C31117106   5.409   6.660   4.774 -0.1475  0.0743 -0.2190
  154SAPE  H11X17107   5.409   6.549   4.776  0.3031  0.0177 -1.8131
  154SAPE  H11Y17108   5.516   6.689   4.771 -0.3921  1.0947  0.4126
  154SAPE  C31217109   5.335   6.684   4.646 -0.3197  0.7799 -0.7763
  154SAPE  H12X17110   5.373   6.782   4.609  2.6065 -0.6383 -1.8477
  154SAPE  H12Y17111   5.229   6.706   4.667 -0.8371 -0.9729 -1.3514
  154SAPE  C31317112   5.359   6.572   4.536  0.4810  0.7840 -0.4691
  154SAPE  H13X17113   5.317   6.479   4.580  1.2866  1.1202  1.0675
  154SAPE  H13Y17114   5.468   6.555   4.540  0.6242  0.9210  5.6575
  154SAPE  C31417115   5.291   6.606   4.409  0.9780  0.6689  0.2744
  154SAPE  H14X17116   5.298   6.713   4.380  2.6311  0.9910  1.6800
  154SAPE  H14Y17117   5.181   6.605   4.424  1.0008 -0.0319  0.4208
  154SAPE  C31517118   5.348   6.523   4.287 -0.0874  0.2130 -0.0240
  154SAPE  H15X17119   5.458   6.532   4.300  0.0918 -1.2988 -0.2589
  154SAPE  H15Y17120   5.318   6.571   4.191  0.5100  1.9036  0.6058
  154SAPE  C31617121   5.314   6.371   4.287 -0.5790 -0.4287  0.2285
  154SAPE  H16X17122   5.203   6.367   4.285 -0.6281  0.3832 -2.4387
  154SAPE  H16Y17123   5.349   6.315   4.377 -1.9902 -1.3370  0.2512
  154SAPE  C31717124   5.354   6.300   4.164 -0.3006  0.4444  1.2760
  154SAPE  H17X17125   5.304   6.352   4.079 -0.0044 -1.6133 -0.2566
  154SAPE  H17Y17126   5.326   6.193   4.160 -1.6710  0.8134  0.0343
  154SAPE  C31817127   5.501   6.313   4.132 -0.0979  0.3783  0.2290
  154SAPE  H18X17128   5.546   6.415   4.131  1.3450 -0.2410 -0.1977
  154SAPE  H18Y17129   5.523   6.274   4.031  1.7176  0.2561  0.6423
  154SAPE  H18Z17130   5.565   6.259   4.206 -0.7150  0.5130  0.8747
  155SAPE     N17131   4.411   0.401   6.601 -0.2768  0.5263 -0.0023
  155SAPE   HN117132   4.465   0.431   6.685  1.8329 -0.9016 -0.7698
  155SAPE   HN217133   4.346   0.324   6.625 -1.6184  1.5519 -0.2108
  155SAPE   HN317134   4.486   0.368   6.537 -1.0526 -0.7043 -0.3056
  155SAPE   C1217135   4.335   0.522   6.572 -0.1937 -0.5929  0.9475
  155SAPE  H12A17136   4.280   0.555   6.663  0.7310  0.7738  1.0376
  155SAPE  H12B17137   4.278   0.498   6.480  0.1183  0.8798  0.3508
  155SAPE   C1117138   4.427   0.642   6.529 -0.0878 -0.6906  0.0981
  155SAPE  H11A17139   4.520   0.645   6.589  1.7242 -1.8076 -2.4941
  155SAPE  H11B17140   4.367   0.731   6.559 -0.9897 -1.9313  2.1898
  155SAPE     P17141   4.394   0.697   6.276  0.1562 -0.2933  0.0578
  155SAPE   O1317142   4.348   0.830   6.320  0.1386  0.4892 -0.3889
  155SAPE   O1417143   4.470   0.685   6.148  0.4338  0.2575  0.4723
  155SAPE   O1217144   4.476   0.634   6.391  0.0259  0.6708  0.6401
  155SAPE   O1117145   4.272   0.601   6.273  0.7209 -0.6051  0.6039
  155SAPE    C117146   4.279   0.470   6.225  0.1650 -0.0345  0.4145
  155SAPE    HA17147   4.368   0.423   6.273  0.7996  0.5000 -0.2334
  155SAPE    HB17148   4.186   0.412   6.246  0.0857  0.0397  0.2622
  155SAPE    C217149   4.292   0.453   6.071  0.1872 -0.3634  0.5436
  155SAPE    HS17150   4.395   0.484   6.041 -0.0416 -0.8580 -0.8145
  155SAPE   O2117151   4.186   0.523   5.998 -0.1545 -0.3404  0.2100
  155SAPE   C2117152   4.232   0.601   5.894  0.3190  0.7920 -0.0760
  155SAPE   O2217153   4.341   0.599   5.839  0.4474  0.0426  0.3493
  155SAPE   C2217154   4.104   0.677   5.850  0.2721 -0.7044  0.0510
  155SAPE   H2R17155   4.025   0.603   5.826 -0.4551  0.0619  0.0380
  155SAPE   H2S17156   4.080   0.740   5.939 -0.2336 -1.4481  0.4542
  155SAPE    C317157   4.290   0.305   6.034  0.0566 -0.1384  0.0336
  155SAPE    HX17158   4.195   0.267   6.076  1.1107 -0.6486  2.0934
  155SAPE    HY17159   4.376   0.262   6.090  0.5888 -0.9036 -1.3226
  155SAPE   O3117160   4.303   0.276   5.892  0.0594  0.1990 -0.0321
  155SAPE   C3117161   4.389   0.181   5.857 -0.5097  0.0554 -0.3449
  155SAPE   O3217162   4.449   0.111   5.937  0.0941 -0.0600  0.1483
  155SAPE   C3217163   4.384   0.171   5.702  0.3410 -0.1084 -0.2983
  155SAPE   H2X17164   4.400   0.276   5.668  2.0366  0.2960  1.5330
  155SAPE   H2Y17165   4.285   0.134   5.669 -0.0842  1.2776 -0.6694
  155SAPE   C2317166   4.123   0.768   5.727  0.5041  0.2322 -0.0552
  155SAPE   H3R17167   4.155   0.701   5.644 -0.9374 -2.4125  1.3964
  155SAPE   H3S17168   4.200   0.845   5.749  0.9348  0.1453 -1.2047
  155SAPE   C2417169   3.992   0.835   5.689  0.5353  0.2449 -0.1682
  155SAPE   H4R17170   3.906   0.768   5.712 -0.5841  1.1431 -1.5935
  155SAPE   H4S17171   3.984   0.854   5.580 -1.8242 -1.1952 -0.3231
  155SAPE   C2517172   3.964   0.963   5.773 -0.6981  0.7635 -0.5816
  155SAPE   H5R17173   4.019   0.958   5.868 -1.8745  1.3885  0.1570
  155SAPE   C2617174   3.900   1.076   5.747 -0.2683 -0.3619 -0.0766
  155SAPE   H6R17175   3.900   1.147   5.831 -2.5855  0.1410 -0.4385
  155SAPE   C2717176   3.824   1.107   5.622  0.1797 -0.0409 -0.4348
  155SAPE   H7R17177   3.782   1.018   5.569 -0.2765  0.2907 -0.6333
  155SAPE   H7S17178   3.898   1.140   5.547  0.1853  0.1605 -0.3388
  155SAPE   C2817179   3.722   1.211   5.624  0.1185 -0.2973  0.2471
  155SAPE   H8R17180   3.763   1.299   5.676  4.3389 -0.8909 -1.6483
  155SAPE   C2917181   3.598   1.207   5.574  0.7100 -0.0163  0.6427
  155SAPE   H9R17182   3.538   1.299   5.581  1.4112  0.3675  1.9117
  155SAPE  C21017183   3.535   1.083   5.511 -0.1700 -0.8617  0.1393
  155SAPE  H10R17184   3.510   1.012   5.593  1.1279  0.6469  1.9167
  155SAPE  H10S17185   3.616   1.033   5.453 -0.1024 -0.0940 -0.4432
  155SAPE  C21117186   3.419   1.105   5.420  0.2999  0.7212 -0.7330
  155SAPE  H11R17187   3.315   1.093   5.454  0.6761 -0.3652  0.1056
  155SAPE  C21217188   3.424   1.128   5.292 -0.5174 -0.1519  0.6493
  155SAPE  H12R17189   3.334   1.166   5.241 -0.0581  0.6853  0.4386
  155SAPE  C21317190   3.543   1.134   5.201 -0.2111 -0.5688  0.0077
  155SAPE  H13R17191   3.502   1.114   5.100 -0.2634 -1.0566  0.1232
  155SAPE  H13S17192   3.614   1.050   5.220  2.1226  0.9635 -1.4267
  155SAPE  C21417193   3.633   1.258   5.199 -0.1558 -0.1340 -0.1016
  155SAPE  H14R17194   3.621   1.327   5.284  2.0589  1.0013 -0.6497
  155SAPE  C21517195   3.713   1.303   5.098  0.1045  0.3159 -0.3333
  155SAPE  H15R17196   3.758   1.403   5.110 -1.2110  0.9440 -0.5394
  155SAPE  C21617197   3.740   1.228   4.967  0.3148  0.6244  0.2816
  155SAPE  H16R17198   3.672   1.141   4.954 -0.4960  1.5544 -2.4255
  155SAPE  H16S17199   3.842   1.185   4.957 -0.4250 -0.8010 -2.0726
  155SAPE  C21717200   3.712   1.305   4.842  0.2205 -0.4013  0.6246
  155SAPE  H17R17201   3.759   1.405   4.846  1.7318 -1.1082  1.2152
  155SAPE  H17S17202   3.601   1.318   4.841  0.3395  0.6992  0.5174
  155SAPE  C21817203   3.739   1.227   4.712  0.2676  0.1980  0.1556
  155SAPE  H18R17204   3.662   1.147   4.701 -0.1851  0.7098 -0.4296
  155SAPE  H18S17205   3.843   1.190   4.700  0.6469  1.6472 -1.4031
  155SAPE  C21917206   3.712   1.315   4.588 -0.1077 -0.8791 -0.4883
  155SAPE  H19R17207   3.750   1.415   4.617  2.5074 -1.5824 -1.2070
  155SAPE  H19S17208   3.602   1.321   4.572 -0.4544 -2.6202  0.9713
  155SAPE  C22017209   3.781   1.271   4.462 -0.9414  0.6248  0.1573
  155SAPE  H20R17210   3.887   1.257   4.491 -1.3755 -3.1979  0.3820
  155SAPE  H20S17211   3.777   1.345   4.379  1.3493 -1.4037 -1.9283
  155SAPE  H20T17212   3.738   1.176   4.425 -0.3843  0.1451  0.7158
  155SAPE   C3317213   4.490   0.070   5.648 -0.2153  0.5963 -0.1505
  155SAPE   H3X17214   4.491  -0.013   5.721  2.1193 -0.0427 -0.8376
  155SAPE   H3Y17215   4.594   0.110   5.651 -0.1348  0.4676 -0.8890
  155SAPE   C3417216   4.471   0.003   5.508  0.5141 -0.2597  0.2766
  155SAPE   H4X17217   4.390  -0.073   5.512  1.6215 -1.4648  0.4270
  155SAPE   H4Y17218   4.567  -0.045   5.478  0.4655 -0.7020  0.8045
  155SAPE   C3517219   4.446   0.099   5.387 -0.0749 -0.2017  0.7240
  155SAPE   H5X17220   4.533   0.168   5.399 -1.0746  0.9655  1.4841
  155SAPE   H5Y17221   4.364   0.173   5.397 -2.0532 -2.1437 -0.4386
  155SAPE   C3617222   4.430   0.036   5.250  0.0045 -0.1448 -0.0418
  155SAPE   H6X17223   4.350  -0.042   5.256 -0.5243  0.3340 -0.7146
  155SAPE   H6Y17224   4.528  -0.012   5.228 -0.8429 -0.9781 -2.3601
  155SAPE   C3717225   4.411   0.144   5.141 -0.0006  0.6639 -0.5173
  155SAPE   H7X17226   4.490   0.219   5.160 -0.3500  0.2858  3.2468
  155SAPE   H7Y17227   4.317   0.202   5.158  1.2198  2.0926  1.8604
  155SAPE   C3817228   4.419   0.089   5.000  0.0120  1.0819  0.3521
  155SAPE   H8X17229   4.349   0.003   5.002  2.2414 -0.9878 -2.0263
  155SAPE   H8Y17230   4.521   0.050   4.980 -0.0595 -0.0006  2.0074
  155SAPE   C3917231   4.377   0.183   4.888  0.8436  0.0586  0.6801
  155SAPE   H9X17232   4.391   0.128   4.792  3.0983  1.2937  0.2457
  155SAPE   H9Y17233   4.452   0.264   4.875  1.0556 -0.5923 -3.3588
  155SAPE  C31017234   4.235   0.245   4.898  0.3203  0.6811 -0.3713
  155SAPE  H10X17235   4.230   0.325   4.975 -0.9521  2.3832 -2.0984
  155SAPE  H10Y17236   4.155   0.173   4.923 -0.9223  1.3527 -2.1288
  155SAPE  C31117237   4.198   0.318   4.768 -0.5061  0.2070 -0.0931
  155SAPE  H11X17238   4.093   0.354   4.765  0.1104  2.3620  1.4084
  155SAPE  H11Y17239   4.209   0.255   4.677  1.2391 -0.9746  0.8615
  155SAPE  C31217240   4.280   0.447   4.750 -0.3657 -0.3814  0.6654
  155SAPE  H12X17241   4.383   0.413   4.726 -1.3884 -2.6464 -0.7841
  155SAPE  H12Y17242   4.295   0.499   4.848  0.0436 -0.2953  0.5589
  155SAPE  C31317243   4.222   0.544   4.650  0.3399  0.3247 -0.4290
  155SAPE  H13X17244   4.253   0.649   4.669 -0.5413  0.4972  0.1210
  155SAPE  H13Y17245   4.111   0.538   4.655 -0.0372  4.0283 -1.0474
  155SAPE  C31417246   4.272   0.524   4.502  0.7427  0.0521 -0.1239
  155SAPE  H14X17247   4.251   0.421   4.466 -0.8940  0.0496  0.7012
  155SAPE  H14Y17248   4.381   0.545   4.503  0.3915  2.0462  0.1450
  155SAPE  C31517249   4.191   0.615   4.398  0.5037  0.3960 -0.2683
  155SAPE  H15X17250   4.231   0.716   4.422  1.8526  0.4612 -2.5786
  155SAPE  H15Y17251   4.080   0.609   4.410  0.4745  0.5586 -0.4464
  155SAPE  C31617252   4.242   0.589   4.259 -0.6991  0.1324 -0.0747
  155SAPE  H16X17253   4.213   0.483   4.238  0.6818 -0.4166  0.6451
  155SAPE  H16Y17254   4.352   0.606   4.260 -0.9108  1.5509  1.0599
  155SAPE  C31717255   4.179   0.677   4.155 -0.0387 -0.2085  0.5662
  155SAPE  H17X17256   4.210   0.780   4.180  2.6797 -0.1277 -2.4567
  155SAPE  H17Y17257   4.069   0.664   4.164 -0.1650 -0.9785 -1.5389
  155SAPE  C31817258   4.205   0.646   4.002 -0.1864  0.8786  0.1761
  155SAPE  H18X17259   4.163   0.546   3.977  0.3819  1.1115 -1.9469
  155SAPE  H18Y17260   4.312   0.642   3.973 -0.0820 -0.3103  0.6905
  155SAPE  H18Z17261   4.152   0.714   3.932  0.0814  0.7662 -0.1395
  156SAPE     N17262   1.632   1.119   6.484  0.3349  0.0323 -0.0990
  156SAPE   HN117263   1.555   1.063   6.441  0.1924  1.2857 -1.5565
  156SAPE   HN217264   1.595   1.213   6.460  2.5474  0.2818 -3.0675
  156SAPE   HN317265   1.715   1.110   6.423 -2.3592  2.3752 -4.6435
  156SAPE   C1217266   1.635   1.105   6.630  0.8468  0.4912  0.5236
  156SAPE  H12A17267   1.533   1.138   6.662  1.0337  0.6306  0.9822
  156SAPE  H12B17268   1.705   1.172   6.683 -0.7334 -0.2622  3.7919
  156SAPE   C1117269   1.652   0.958   6.667  0.2953 -0.4707  0.6727
  156SAPE  H11A17270   1.757   0.940   6.633  0.3639  1.2334 -0.1247
  156SAPE  H11B17271   1.581   0.892   6.613  0.3887 -1.0131  1.1993
  156SAPE     P17272   1.547   0.848   6.885 -0.3802  0.3352 -0.0397
  156SAPE   O1317273   1.616   0.788   6.998  0.3481 -0.0859  0.5800
  156SAPE   O1417274   1.427   0.934   6.907  0.0097 -0.5360  0.1523
  156SAPE   O1217275   1.649   0.939   6.806  0.1385  0.3795 -0.7472
  156SAPE   O1117276   1.503   0.735   6.785  0.8351 -0.7743 -0.3896
  156SAPE    C117277   1.561   0.606   6.778  0.4644  0.1138 -0.4162
  156SAPE    HA17278   1.635   0.591   6.860  0.3918  0.1449 -0.3456
  156SAPE    HB17279   1.485   0.530   6.806  1.7403 -0.7918  0.7393
  156SAPE    C217280   1.617   0.574   6.635 -0.4505 -0.5346  0.4550
  156SAPE    HS17281   1.684   0.659   6.611  1.1190 -2.1831 -1.4579
  156SAPE   O2117282   1.506   0.559   6.549  0.8461 -0.6877 -0.0541
  156SAPE   C2117283   1.518   0.585   6.423 -0.1755 -0.4064  0.0211
  156SAPE   O2217284   1.618   0.636   6.371  0.2582  0.0187  0.1433
  156SAPE   C2217285   1.388   0.547   6.360  0.4343 -0.0319 -0.1802
  156SAPE   H2R17286   1.331   0.497   6.441  0.3604  2.4070  1.3935
  156SAPE   H2S17287   1.340   0.640   6.323 -1.2475 -0.9633 -0.3868
  156SAPE    C317288   1.706   0.447   6.631 -0.2077  0.1798 -0.7193
  156SAPE    HX17289   1.644   0.357   6.648 -0.4746  0.4441 -0.2986
  156SAPE    HY17290   1.779   0.458   6.714 -0.4782 -1.1180 -0.2924
  156SAPE   O3117291   1.773   0.437   6.502 -0.1401 -0.3846 -0.5628
  156SAPE   C3117292   1.881   0.511   6.480 -0.4741 -0.2725  0.2874
  156SAPE   O3217293   1.928   0.601   6.552 -0.6043 -0.5738 -0.1237
  156SAPE   C3217294   1.940   0.461   6.350 -0.5516  0.4301  0.7259
  156SAPE   H2X17295   1.872   0.465   6.262  2.6092 -1.1401 -2.0044
  156SAPE   H2Y17296   1.954   0.351   6.361  0.6371  0.3906 -0.9123
  156SAPE   C2317297   1.418   0.450   6.242  0.0001 -0.3899 -0.3913
  156SAPE   H3R17298   1.476   0.366   6.286  1.7227  0.9396  0.0099
  156SAPE   H3S17299   1.478   0.497   6.162 -0.8710 -0.9575 -1.3951
  156SAPE   C2417300   1.281   0.397   6.183  0.1407 -0.3353 -0.4380
  156SAPE   H4R17301   1.221   0.479   6.137  2.2371  0.2590 -2.2638
  156SAPE   H4S17302   1.232   0.366   6.278  1.1993 -1.3524 -0.2067
  156SAPE   C2517303   1.280   0.284   6.093 -0.7960 -0.0314 -0.1293
  156SAPE   H5R17304   1.288   0.188   6.147  2.4027 -1.1085 -2.1879
  156SAPE   C2617305   1.285   0.287   5.957  0.2604  0.1942 -0.6129
  156SAPE   H6R17306   1.266   0.198   5.896  0.7049 -0.7772  0.6439
  156SAPE   C2717307   1.301   0.416   5.894  0.8426 -0.1385 -0.4575
  156SAPE   H7R17308   1.353   0.500   5.944  0.7250 -0.6164  0.4994
  156SAPE   H7S17309   1.194   0.445   5.887  1.0516  0.9771  0.7109
  156SAPE   C2817310   1.362   0.400   5.760  0.4038  0.5078  0.0975
  156SAPE   H8R17311   1.467   0.366   5.757 -0.5272 -2.6413 -0.2391
  156SAPE   C2917312   1.291   0.414   5.643  0.3515  0.6376  0.3756
  156SAPE   H9R17313   1.344   0.392   5.549 -2.6958 -0.5927 -1.1932
  156SAPE  C21017314   1.143   0.444   5.619 -0.8463 -0.0627  0.4675
  156SAPE  H10R17315   1.088   0.468   5.713 -1.1680 -0.2197  0.3189
  156SAPE  H10S17316   1.094   0.356   5.573 -0.2943  0.2295 -0.7187
  156SAPE  C21117317   1.119   0.565   5.530  0.6840  0.0591  0.3253
  156SAPE  H11R17318   1.084   0.660   5.573 -0.1015  0.3380 -0.8614
  156SAPE  C21217319   1.117   0.564   5.393  0.2179  0.0107 -0.1545
  156SAPE  H12R17320   1.088   0.653   5.335 -2.0234 -0.8848 -0.5181
  156SAPE  C21317321   1.140   0.437   5.314 -0.2182  0.6020 -0.4958
  156SAPE  H13R17322   1.050   0.372   5.310 -0.0422  0.2615  0.6993
  156SAPE  H13S17323   1.211   0.367   5.362 -0.8333  0.7863  0.7471
  156SAPE  C21417324   1.182   0.454   5.173 -0.7103 -0.9048  0.8188
  156SAPE  H14R17325   1.290   0.474   5.159 -0.8745 -0.2996  0.3716
  156SAPE  C21517326   1.102   0.479   5.063 -0.0857 -0.5333 -0.1293
  156SAPE  H15R17327   1.144   0.459   4.963 -0.7949 -1.6013 -0.2352
  156SAPE  C21617328   0.956   0.467   5.068 -0.0565 -0.2426 -0.4316
  156SAPE  H16R17329   0.908   0.565   5.046 -0.2484  0.2876  2.0423
  156SAPE  H16S17330   0.916   0.446   5.170 -1.3220  0.1917 -0.8143
  156SAPE  C21717331   0.901   0.368   4.969  0.1227  0.1618  0.5441
  156SAPE  H17R17332   0.790   0.369   4.977  0.0789 -0.1763 -0.0186
  156SAPE  H17S17333   0.920   0.262   4.994  0.6617  0.3431  0.9366
  156SAPE  C21817334   0.930   0.410   4.815 -0.5587  0.1519 -0.0349
  156SAPE  H18R17335   1.037   0.408   4.787 -0.2770 -2.1461  0.9977
  156SAPE  H18S17336   0.880   0.508   4.800 -1.5031 -0.2394  0.4031
  156SAPE  C21917337   0.845   0.322   4.718 -0.7453 -0.5417 -0.4631
  156SAPE  H19R17338   0.752   0.294   4.772  0.0235 -1.2712  0.5496
  156SAPE  H19S17339   0.900   0.226   4.710  0.6728  0.2458 -0.6523
  156SAPE  C22017340   0.816   0.377   4.580 -1.0746 -0.3111  0.4935
  156SAPE  H20R17341   0.741   0.458   4.593 -1.1434  0.1397 -2.2022
  156SAPE  H20S17342   0.771   0.312   4.502 -2.4515  0.5909  0.4863
  156SAPE  H20T17343   0.904   0.435   4.546 -0.2955 -0.8160  1.5794
  156SAPE   C3317344   2.085   0.516   6.337  0.0458 -0.1257 -0.6032
  156SAPE   H3X17345   2.137   0.475   6.427 -1.0045 -0.7839 -0.2784
  156SAPE   H3Y17346   2.082   0.626   6.328 -1.3296 -0.1213 -0.2655
  156SAPE   C3417347   2.154   0.452   6.214  0.4198  0.2652  0.1984
  156SAPE   H4X17348   2.154   0.342   6.227 -0.5846  0.2514  0.1433
  156SAPE   H4Y17349   2.259   0.488   6.217  0.4153  0.4166 -0.9557
  156SAPE   C3517350   2.100   0.496   6.080  0.1051 -0.7238  0.5451
  156SAPE   H5X17351   2.084   0.605   6.074 -0.1302 -0.7498  0.6940
  156SAPE   H5Y17352   2.007   0.435   6.076 -0.8174  0.6897 -2.4285
  156SAPE   C3617353   2.189   0.451   5.966  0.8860 -0.1607  0.7137
  156SAPE   H6X17354   2.169   0.342   5.957 -0.4532  0.1041  0.3674
  156SAPE   H6Y17355   2.298   0.462   5.985  1.0432 -1.7873  0.8903
  156SAPE   C3717356   2.157   0.536   5.841 -0.4625 -0.0826 -0.3204
  156SAPE   H7X17357   2.200   0.638   5.856  1.1546 -0.5173 -1.7756
  156SAPE   H7Y17358   2.048   0.531   5.818 -0.8371  0.4534  1.1666
  156SAPE   C3817359   2.235   0.473   5.720 -0.4813  0.3477  0.4078
  156SAPE   H8X17360   2.205   0.366   5.729 -1.3574  0.5944  0.4693
  156SAPE   H8Y17361   2.346   0.478   5.731 -0.4870  0.0765  0.6062
  156SAPE   C3917362   2.206   0.547   5.593 -0.5461 -0.2790  0.0656
  156SAPE   H9X17363   2.262   0.643   5.597 -0.3094 -0.4331  0.6326
  156SAPE   H9Y17364   2.100   0.578   5.594 -0.7941 -1.0956 -0.1020
  156SAPE  C31017365   2.251   0.474   5.468 -0.2194 -0.1537  0.3662
  156SAPE  H10X17366   2.193   0.380   5.471 -0.5468  0.0632  1.1873
  156SAPE  H10Y17367   2.358   0.448   5.477 -0.1563 -0.3096 -0.7714
  156SAPE  C31117368   2.226   0.551   5.341 -0.2893  0.6845  1.1129
  156SAPE  H11X17369   2.288   0.641   5.326 -0.9263  0.6541 -2.5858
  156SAPE  H11Y17370   2.122   0.588   5.353 -1.2871 -0.0638 -3.4493
  156SAPE  C31217371   2.241   0.473   5.203 -0.1156  0.6447 -0.0174
  156SAPE  H12X17372   2.154   0.405   5.195 -1.6417  2.0561  2.8785
  156SAPE  H12Y17373   2.333   0.412   5.216 -0.4207 -0.4878 -2.6107
  156SAPE  C31317374   2.257   0.573   5.085  0.5298  1.0512 -0.1417
  156SAPE  H13X17375   2.331   0.650   5.115  1.0813  0.4639  0.0306
  156SAPE  H13Y17376   2.157   0.616   5.061 -0.3000 -0.3987  0.5846
  156SAPE  C31417377   2.306   0.496   4.962  0.0019  0.0941 -0.0194
  156SAPE  H14X17378   2.225   0.424   4.938 -2.9690  3.3786 -0.5791
  156SAPE  H14Y17379   2.403   0.451   4.994  0.1362  0.5830  0.2716
  156SAPE  C31517380   2.350   0.590   4.849  0.1444 -0.2937  0.2050
  156SAPE  H15X17381   2.394   0.680   4.898 -1.2260 -0.4351  1.7844
  156SAPE  H15Y17382   2.259   0.620   4.792  0.4053 -2.3890 -1.4588
  156SAPE  C31617383   2.466   0.535   4.761 -0.0049  0.2578 -0.1863
  156SAPE  H16X17384   2.552   0.517   4.829 -1.4673  0.9491  1.9940
  156SAPE  H16Y17385   2.498   0.620   4.697  2.2726 -0.1332  0.3647
  156SAPE  C31717386   2.434   0.410   4.678  0.6200 -0.4368 -0.4002
  156SAPE  H17X17387   2.334   0.429   4.633  0.0225 -1.3361  0.4978
  156SAPE  H17Y17388   2.415   0.324   4.747 -2.0749  0.3858  0.0313
  156SAPE  C31817389   2.545   0.382   4.587  0.0376 -0.2542 -0.4365
  156SAPE  H18X17390   2.580   0.470   4.528  3.4221 -1.8578 -1.0854
  156SAPE  H18Y17391   2.525   0.292   4.526 -1.5517  0.7990 -1.5407
  156SAPE  H18Z17392   2.640   0.363   4.642 -1.1401  0.3943  1.9586
  157SAPE     N17393   2.442   4.894   6.572 -0.1148 -0.4531  0.0890
  157SAPE   HN117394   2.544   4.891   6.594  0.4208  0.4440 -1.9451
  157SAPE   HN217395   2.409   4.969   6.635 -0.6652 -1.9475  1.6634
  157SAPE   HN317396   2.403   4.798   6.581  3.3108 -2.0778 -0.5594
  157SAPE   C1217397   2.439   4.925   6.421 -0.4098 -0.5308 -0.7178
  157SAPE  H12A17398   2.332   4.925   6.392 -0.8130 -0.8301  0.6911
  157SAPE  H12B17399   2.495   4.842   6.371  3.2919  1.9878 -1.1436
  157SAPE   C1117400   2.497   5.063   6.401 -0.1995 -0.2187 -0.1011
  157SAPE  H11A17401   2.493   5.094   6.294  0.5169 -1.3033 -0.4575
  157SAPE  H11B17402   2.607   5.047   6.409 -0.4474 -1.3275  1.4471
  157SAPE     P17403   2.304   5.215   6.500  0.6686  0.3876  0.1482
  157SAPE   O1317404   2.196   5.114   6.511  0.1967  0.1477  0.6161
  157SAPE   O1417405   2.293   5.314   6.609  0.1070  0.0710  0.5929
  157SAPE   O1217406   2.454   5.159   6.497  0.4613  0.1199 -0.8127
  157SAPE   O1117407   2.280   5.279   6.356 -0.5731 -0.5167 -0.1939
  157SAPE    C117408   2.382   5.372   6.300 -0.2432  0.8259  0.1672
  157SAPE    HA17409   2.348   5.470   6.338 -1.1727  0.4273  0.3925
  157SAPE    HB17410   2.488   5.355   6.330 -0.3965 -0.4851  0.0439
  157SAPE    C217411   2.373   5.356   6.143 -0.3605  0.5920  0.4953
  157SAPE    HS17412   2.466   5.301   6.118  1.0438  2.5711  1.0762
  157SAPE   O2117413   2.360   5.489   6.069 -0.2946  0.5710 -0.5143
  157SAPE   C2117414   2.458   5.571   6.097  0.4666 -0.5278  0.1433
  157SAPE   O2217415   2.568   5.544   6.142 -0.1972  0.4160  0.0895
  157SAPE   C2217416   2.400   5.718   6.078 -0.2990 -0.3160  0.1714
  157SAPE   H2R17417   2.345   5.723   5.982  0.8494  1.3368 -0.4341
  157SAPE   H2S17418   2.322   5.728   6.156 -1.5810  1.5586 -1.2491
  157SAPE    C317419   2.269   5.246   6.094  0.4577 -0.2198  0.2415
  157SAPE    HX17420   2.166   5.285   6.112  0.7482  1.6352 -1.7147
  157SAPE    HY17421   2.289   5.164   6.165  0.9947 -1.5717 -1.4212
  157SAPE   O3117422   2.285   5.217   5.956  0.3774  0.4461  0.0659
  157SAPE   C3117423   2.218   5.300   5.869  0.6431 -0.3163 -0.4247
  157SAPE   O3217424   2.139   5.387   5.897  0.1949  0.2786  0.4198
  157SAPE   C3217425   2.255   5.258   5.727  0.0345 -0.3953  0.2418
  157SAPE   H2X17426   2.244   5.149   5.710  1.7208 -0.3245 -1.6171
  157SAPE   H2Y17427   2.365   5.271   5.727 -0.0019 -0.0450  1.6293
  157SAPE   C2317428   2.513   5.829   6.079  0.2325 -0.0216 -0.1153
  157SAPE   H3R17429   2.580   5.807   6.164 -1.4674  4.4403  2.8047
  157SAPE   H3S17430   2.468   5.928   6.103 -3.2110 -0.9301 -1.9927
  157SAPE   C2417431   2.598   5.840   5.953 -0.8747  0.4718 -0.7365
  157SAPE   H4R17432   2.657   5.934   5.950 -1.7107  1.0255 -4.2944
  157SAPE   H4S17433   2.541   5.842   5.858  1.2758  3.5624 -2.1641
  157SAPE   C2517434   2.697   5.726   5.947 -0.9822 -0.0426 -0.9069
  157SAPE   H5R17435   2.781   5.721   6.018 -1.2965  1.0850 -0.4329
  157SAPE   C2617436   2.699   5.633   5.844  1.3637 -0.1351 -0.3619
  157SAPE   H6R17437   2.776   5.555   5.846  1.1437 -0.3553 -0.4900
  157SAPE   C2717438   2.600   5.615   5.729 -0.2465 -0.1969  0.9725
  157SAPE   H7R17439   2.615   5.690   5.649 -0.3126 -0.5745  0.5991
  157SAPE   H7S17440   2.502   5.623   5.781 -0.7389  2.0278 -0.1753
  157SAPE   C2817441   2.603   5.478   5.667  0.2213 -0.4830 -0.0713
  157SAPE   H8R17442   2.592   5.393   5.736 -1.5707  0.0893  0.3969
  157SAPE   C2917443   2.635   5.455   5.538  0.3260  0.2508 -0.6710
  157SAPE   H9R17444   2.646   5.348   5.512 -0.0458 -0.1745  0.8204
  157SAPE  C21017445   2.674   5.547   5.424 -0.5553  0.8197 -0.1018
  157SAPE  H10R17446   2.782   5.559   5.400 -1.2555  2.8085 -2.7308
  157SAPE  H10S17447   2.645   5.649   5.458 -1.5014  0.7282 -0.6113
  157SAPE  C21117448   2.594   5.504   5.300  0.4793  0.2985 -0.1207
  157SAPE  H11R17449   2.487   5.486   5.318  0.4787  0.8817  0.5560
  157SAPE  C21217450   2.648   5.481   5.179 -0.3694  0.0778 -0.0010
  157SAPE  H12R17451   2.570   5.450   5.108 -0.8930  0.5209  0.3711
  157SAPE  C21317452   2.787   5.500   5.130  0.3358  0.0578 -0.0752
  157SAPE  H13R17453   2.846   5.406   5.136  1.6276  0.7742 -0.8858
  157SAPE  H13S17454   2.847   5.562   5.200  0.6508 -0.7878  0.4070
  157SAPE  C21417455   2.800   5.568   4.995  0.1277  0.1591 -0.0680
  157SAPE  H14R17456   2.782   5.676   5.008 -2.7231 -0.4392  1.8152
  157SAPE  C21517457   2.805   5.511   4.875  0.0365  0.0768 -0.0445
  157SAPE  H15R17458   2.811   5.570   4.783 -1.0073 -1.3420 -1.0786
  157SAPE  C21617459   2.808   5.365   4.848  0.0155  0.3687 -0.3645
  157SAPE  H16R17460   2.756   5.310   4.929 -0.5632  0.5293 -0.6276
  157SAPE  H16S17461   2.913   5.330   4.858 -0.2085 -0.2188 -0.0598
  157SAPE  C21717462   2.757   5.314   4.714 -0.1809 -0.7139  0.0368
  157SAPE  H17R17463   2.653   5.346   4.692 -0.4988 -2.1781 -0.6823
  157SAPE  H17S17464   2.737   5.205   4.720 -1.2452 -0.5057  0.4289
  157SAPE  C21817465   2.843   5.342   4.584 -0.0328 -0.6434 -0.4647
  157SAPE  H18R17466   2.941   5.292   4.597 -0.1999 -0.6997  0.7600
  157SAPE  H18S17467   2.856   5.452   4.578  1.7795 -0.8533 -0.8075
  157SAPE  C21917468   2.776   5.293   4.454 -0.0754 -0.6570  0.3309
  157SAPE  H19R17469   2.772   5.183   4.442  1.5302 -0.7892  0.7760
  157SAPE  H19S17470   2.851   5.324   4.378 -0.4508 -1.6251 -0.4449
  157SAPE  C22017471   2.641   5.365   4.424  0.3640  0.9025  0.1276
  157SAPE  H20R17472   2.570   5.354   4.509  1.3421  1.6025  1.0664
  157SAPE  H20S17473   2.596   5.323   4.332  1.3351 -1.5837  0.6880
  157SAPE  H20T17474   2.647   5.475   4.409 -1.3411  1.5211  3.2208
  157SAPE   C3317475   2.176   5.332   5.618  0.0388 -0.3160  0.1164
  157SAPE   H3X17476   2.163   5.439   5.644 -0.0495  0.6321 -3.3727
  157SAPE   H3Y17477   2.072   5.294   5.611 -0.3802  1.0307 -1.6028
  157SAPE   C3417478   2.240   5.329   5.472  0.2320 -0.2397 -0.0600
  157SAPE   H4X17479   2.234   5.222   5.440 -0.8447  0.2161 -1.5265
  157SAPE   H4Y17480   2.347   5.358   5.471 -0.3596  2.1927 -1.2429
  157SAPE   C3517481   2.162   5.407   5.364  0.3789  0.2439 -0.0909
  157SAPE   H5X17482   2.196   5.512   5.357  0.2308  0.1829 -2.2649
  157SAPE   H5Y17483   2.063   5.407   5.413  0.8330 -2.4910  1.0171
  157SAPE   C3617484   2.166   5.357   5.223 -0.6510 -0.3689  0.4084
  157SAPE   H6X17485   2.125   5.442   5.164  0.8561 -1.5687 -2.5463
  157SAPE   H6Y17486   2.098   5.270   5.211  0.9683 -1.4597 -1.5478
  157SAPE   C3717487   2.301   5.313   5.158  0.2857  0.3921 -1.1397
  157SAPE   H7X17488   2.317   5.212   5.201 -1.6657 -0.4405 -2.2448
  157SAPE   H7Y17489   2.376   5.395   5.167  0.7521 -0.0237 -1.2290
  157SAPE   C3817490   2.297   5.285   5.004 -0.0081  0.0462  0.2930
  157SAPE   H8X17491   2.218   5.211   4.978 -0.2219  0.6252 -0.7567
  157SAPE   H8Y17492   2.386   5.228   4.971  0.7639  0.5012  1.5285
  157SAPE   C3917493   2.277   5.403   4.908  0.1223 -1.2199  0.7224
  157SAPE   H9X17494   2.182   5.460   4.919  0.5577 -0.1831 -0.7091
  157SAPE   H9Y17495   2.272   5.375   4.801  1.8523  0.0313  0.2871
  157SAPE  C31017496   2.391   5.502   4.916  0.0078  0.1352 -0.1424
  157SAPE  H10X17497   2.488   5.458   4.885 -0.5650 -0.4235 -1.1997
  157SAPE  H10Y17498   2.406   5.545   5.018  1.0852 -1.1574  0.2755
  157SAPE  C31117499   2.367   5.614   4.812 -0.6619  0.5920  0.1490
  157SAPE  H11X17500   2.264   5.650   4.834 -1.3310 -0.7977 -0.5695
  157SAPE  H11Y17501   2.377   5.565   4.713  1.4671 -0.5512  0.8860
  157SAPE  C31217502   2.474   5.729   4.809  0.4865  0.8252 -0.2458
  157SAPE  H12X17503   2.575   5.686   4.825 -1.0425 -2.4130  1.9461
  157SAPE  H12Y17504   2.463   5.779   4.907 -1.1241 -0.8135  0.4950
  157SAPE  C31317505   2.461   5.823   4.685  0.6286 -0.4840 -1.0560
  157SAPE  H13X17506   2.473   5.930   4.713  1.2220 -0.8197  0.0444
  157SAPE  H13Y17507   2.355   5.807   4.653 -0.6317 -0.2190  2.5129
  157SAPE  C31417508   2.554   5.774   4.577  0.7182 -0.0825  0.2014
  157SAPE  H14X17509   2.568   5.666   4.598 -0.0157  0.2882  2.9640
  157SAPE  H14Y17510   2.643   5.838   4.594 -1.2831  2.5627  1.5926
  157SAPE  C31517511   2.507   5.805   4.432 -0.4021  0.2611 -0.8644
  157SAPE  H15X17512   2.495   5.915   4.420 -0.1618  0.3052 -0.7032
  157SAPE  H15Y17513   2.409   5.759   4.409 -0.7455 -1.0323  2.7031
  157SAPE  C31617514   2.604   5.752   4.323 -0.5946  0.0795  1.4742
  157SAPE  H16X17515   2.608   5.641   4.314  1.7637  0.1911  0.1077
  157SAPE  H16Y17516   2.710   5.782   4.339  0.1258 -0.6887 -1.2474
  157SAPE  C31717517   2.566   5.796   4.180  0.4726 -0.1389  0.2880
  157SAPE  H17X17518   2.458   5.773   4.163  0.4355 -1.0350  1.5828
  157SAPE  H17Y17519   2.622   5.742   4.101 -1.8303  0.6282 -2.0229
  157SAPE  C31817520   2.580   5.944   4.157 -0.3419  0.2248 -0.7404
  157SAPE  H18X17521   2.541   5.964   4.055 -2.1971 -0.8501 -0.2856
  157SAPE  H18Y17522   2.688   5.971   4.160 -0.6041  1.2460  1.5443
  157SAPE  H18Z17523   2.533   6.013   4.231 -1.0722 -0.0498 -0.9415
  158SAPE     N17524   5.256   4.033   6.288 -0.4398  0.0184 -0.0392
  158SAPE   HN117525   5.358   4.053   6.276 -0.5874  1.2454  0.5389
  158SAPE   HN217526   5.203   4.047   6.199 -1.8834  1.3349  0.9790
  158SAPE   HN317527   5.220   4.107   6.352 -0.5672  1.9707 -2.2098
  158SAPE   C1217528   5.223   3.898   6.349  0.1446 -0.3539  0.0727
  158SAPE  H12A17529   5.306   3.863   6.414  2.4864  0.2041 -2.4353
  158SAPE  H12B17530   5.213   3.820   6.270 -1.0421  0.2889 -0.4404
  158SAPE   C1117531   5.088   3.924   6.423  0.1374 -0.1386 -0.1655
  158SAPE  H11A17532   5.069   3.831   6.481 -1.1340  0.8523  1.0897
  158SAPE  H11B17533   5.006   3.943   6.350  0.0146 -0.1504 -0.0317
  158SAPE     P17534   4.966   4.075   6.592  0.0053 -0.1094  0.2805
  158SAPE   O1317535   4.902   3.957   6.651  0.3820  0.1181  0.2043
  158SAPE   O1417536   4.988   4.186   6.684  0.1390 -0.3516 -0.0581
  158SAPE   O1217537   5.103   4.028   6.523 -0.1305 -0.4190  0.0631
  158SAPE   O1117538   4.877   4.126   6.471 -0.0385 -0.0248 -0.0356
  158SAPE    C117539   4.889   4.246   6.397  0.4946 -0.7978 -0.5417
  158SAPE    HA17540   4.863   4.320   6.476  1.0270 -4.0051  2.8660
  158SAPE    HB17541   4.991   4.258   6.356  1.6764  0.3281  2.4633
  158SAPE    C217542   4.773   4.249   6.295 -0.0180 -0.1285 -0.0434
  158SAPE    HS17543   4.784   4.162   6.227 -1.3529  0.2342 -0.7723
  158SAPE   O2117544   4.781   4.365   6.212 -0.3252 -0.7268  0.1011
  158SAPE   C2117545   4.877   4.359   6.119 -0.3653  0.0169  0.3803
  158SAPE   O2217546   4.944   4.265   6.085 -0.4864  0.3383  0.4414
  158SAPE   C2217547   4.888   4.495   6.045  0.7189  0.5029  0.0584
  158SAPE   H2R17548   4.791   4.499   5.989  0.2688 -0.0866  0.7767
  158SAPE   H2S17549   4.898   4.565   6.130 -1.1397  0.7191  0.1515
  158SAPE    C317550   4.640   4.249   6.368  0.9295 -0.1557 -0.1109
  158SAPE    HX17551   4.639   4.334   6.439  1.3222 -0.9000  0.8050
  158SAPE    HY17552   4.636   4.152   6.421 -0.0680 -1.0233 -1.6809
  158SAPE   O3117553   4.521   4.260   6.284 -0.1342 -0.3104 -0.3830
  158SAPE   C3117554   4.495   4.153   6.213  0.3593 -0.3166  0.4995
  158SAPE   O3217555   4.564   4.050   6.206  0.3880 -0.0098 -0.1941
  158SAPE   C3217556   4.359   4.169   6.146 -0.0225 -0.2929 -0.4199
  158SAPE   H2X17557   4.366   4.268   6.098  1.4199 -0.0960  0.1367
  158SAPE   H2Y17558   4.275   4.163   6.218  0.5003  0.6812  0.2997
  158SAPE   C2317559   5.014   4.498   5.958  0.2325  0.2458 -0.3626
  158SAPE   H3R17560   5.016   4.401   5.905  1.1203 -0.2891  0.6012
  158SAPE   H3S17561   5.096   4.496   6.033  0.1070 -1.9639 -0.2164
  158SAPE   C2417562   5.023   4.625   5.870  0.4535 -0.3359  0.1780
  158SAPE   H4R17563   5.050   4.717   5.926 -0.5950 -0.5339  1.0500
  158SAPE   H4S17564   4.923   4.651   5.832  0.6025  2.0211  1.2145
  158SAPE   C2517565   5.116   4.599   5.754 -0.3057 -0.2866 -1.0098
  158SAPE   H5R17566   5.219   4.632   5.774 -0.2492  0.0625 -1.8554
  158SAPE   C2617567   5.088   4.563   5.629  0.1160 -0.0636  0.4282
  158SAPE   H6R17568   5.173   4.559   5.561  1.5945  2.1580  1.9994
  158SAPE   C2717569   4.950   4.527   5.571 -0.2102  0.0376  0.4590
  158SAPE   H7R17570   4.944   4.589   5.479  0.1583  0.4796  0.7284
  158SAPE   H7S17571   4.870   4.558   5.641  0.6554  1.3509  0.9068
  158SAPE   C2817572   4.936   4.383   5.542 -0.0561 -0.3623 -0.3037
  158SAPE   H8R17573   4.943   4.326   5.636  0.0044  0.0379 -0.0644
  158SAPE   C2917574   4.897   4.331   5.421  0.3038 -0.2465 -0.7461
  158SAPE   H9R17575   4.906   4.222   5.413  3.1231 -0.4069  2.5830
  158SAPE  C21017576   4.895   4.413   5.293 -0.8666  0.1927  0.6442
  158SAPE  H10R17577   4.828   4.499   5.316  0.2601  0.7304  2.0429
  158SAPE  H10S17578   4.836   4.356   5.217 -0.2560  0.5618 -0.1213
  158SAPE  C21117579   5.033   4.451   5.246  0.7482 -0.4850 -0.0590
  158SAPE  H11R17580   5.097   4.509   5.314  2.2372 -1.8259 -0.2729
  158SAPE  C21217581   5.081   4.425   5.123 -0.0573 -0.1793 -0.0237
  158SAPE  H12R17582   5.178   4.469   5.095 -0.7644  0.5131 -1.4462
  158SAPE  C21317583   5.014   4.352   5.009 -0.2270 -0.3259 -0.2150
  158SAPE  H13R17584   4.966   4.266   5.061  0.3024  1.1468  2.9026
  158SAPE  H13S17585   5.087   4.302   4.942 -0.3168 -0.1845 -0.4176
  158SAPE  C21417586   4.924   4.444   4.927 -0.6619  0.5363 -0.4847
  158SAPE  H14R17587   4.821   4.437   4.964 -0.3967  0.8016  0.3090
  158SAPE  C21517588   4.951   4.523   4.817 -0.4881 -0.4924  0.1932
  158SAPE  H15R17589   4.871   4.587   4.778  1.0630 -0.3561 -3.1362
  158SAPE  C21617590   5.088   4.528   4.747 -0.5779  0.6692  0.0898
  158SAPE  H16R17591   5.171   4.507   4.818  1.4329 -2.1158 -2.8052
  158SAPE  H16S17592   5.130   4.628   4.723  1.5684 -0.1789  0.1132
  158SAPE  C21717593   5.104   4.428   4.632  0.2387 -0.3926  0.2228
  158SAPE  H17R17594   5.064   4.330   4.664  1.9662 -1.1360  0.2343
  158SAPE  H17S17595   5.213   4.413   4.614 -0.2177 -1.0474 -2.4539
  158SAPE  C21817596   5.031   4.451   4.498 -0.0404  1.1212  0.4959
  158SAPE  H18R17597   4.925   4.451   4.530  0.3256 -0.4588  1.8322
  158SAPE  H18S17598   5.054   4.364   4.433  1.3958  2.8289 -1.4386
  158SAPE  C21917599   5.070   4.582   4.421  0.3350 -0.8466 -0.2629
  158SAPE  H19R17600   5.179   4.572   4.403  1.0672  1.3814  2.1272
  158SAPE  H19S17601   5.076   4.665   4.495  1.6701  0.1050 -1.3808
  158SAPE  C22017602   4.987   4.613   4.297  0.0627  0.6831  0.3937
  158SAPE  H20R17603   5.010   4.548   4.210  1.2412  2.1686 -0.4790
  158SAPE  H20S17604   5.020   4.712   4.258 -1.7622  0.9280 -0.6313
  158SAPE  H20T17605   4.877   4.606   4.308 -0.0180 -0.1600 -0.7809
  158SAPE   C3317606   4.327   4.063   6.035  0.2049  0.7634 -1.0227
  158SAPE   H3X17607   4.222   4.092   6.014  0.9486  3.5473 -1.3746
  158SAPE   H3Y17608   4.313   3.960   6.072 -0.5085  1.4009  0.6030
  158SAPE   C3417609   4.427   4.071   5.918 -0.3575 -0.5624 -0.8865
  158SAPE   H4X17610   4.396   4.007   5.833 -0.7145  0.6520 -1.7082
  158SAPE   H4Y17611   4.523   4.032   5.958 -1.1839 -0.1892  1.6314
  158SAPE   C3517612   4.467   4.210   5.856 -0.5127 -0.2189  0.2428
  158SAPE   H5X17613   4.509   4.272   5.939  1.2550 -0.2127 -0.6212
  158SAPE   H5Y17614   4.390   4.274   5.807 -0.0565 -0.0880 -0.3141
  158SAPE   C3617615   4.568   4.200   5.741  0.4385  0.4134 -0.2424
  158SAPE   H6X17616   4.641   4.120   5.765  0.2480  0.9285  2.2662
  158SAPE   H6Y17617   4.624   4.296   5.729  1.7696 -0.2530  0.4089
  158SAPE   C3717618   4.494   4.163   5.606 -0.2706  0.4291 -0.9929
  158SAPE   H7X17619   4.407   4.230   5.587 -1.2008 -0.4592 -0.0215
  158SAPE   H7Y17620   4.464   4.060   5.634  2.1074  0.3141  1.6817
  158SAPE   C3817621   4.594   4.176   5.493  0.2349  0.6484 -0.0303
  158SAPE   H8X17622   4.699   4.147   5.513  0.8501  2.0459 -1.0284
  158SAPE   H8Y17623   4.593   4.287   5.481 -0.1437  0.7716  1.0404
  158SAPE   C3917624   4.550   4.106   5.359 -0.8781 -0.8096 -0.2908
  158SAPE   H9X17625   4.450   4.147   5.334 -0.8461 -0.5193  0.0498
  158SAPE   H9Y17626   4.553   3.997   5.380  0.8580 -0.5531  0.9774
  158SAPE  C31017627   4.637   4.151   5.237 -0.2408  0.5953 -0.5818
  158SAPE  H10X17628   4.740   4.115   5.252 -0.5768 -0.2542 -0.2365
  158SAPE  H10Y17629   4.649   4.261   5.237  2.1878  0.3754 -0.3138
  158SAPE  C31117630   4.587   4.093   5.106 -0.4316  0.2549  0.4493
  158SAPE  H11X17631   4.492   4.140   5.073  0.3739  1.3641 -0.3852
  158SAPE  H11Y17632   4.564   3.986   5.122 -2.5333  0.7896  1.2503
  158SAPE  C31217633   4.686   4.118   4.990  0.2774 -0.0589 -0.3264
  158SAPE  H12X17634   4.786   4.080   5.020  0.4891  0.9815  0.3496
  158SAPE  H12Y17635   4.704   4.224   4.962  2.9787  0.2586  2.1215
  158SAPE  C31317636   4.652   4.052   4.854 -0.7959 -0.0521  0.1872
  158SAPE  H13X17637   4.590   3.961   4.874 -2.6570  1.1169 -0.0136
  158SAPE  H13Y17638   4.753   4.015   4.828  0.0467  1.2671  1.4646
  158SAPE  C31417639   4.579   4.140   4.759 -0.5509 -1.1196  0.3139
  158SAPE  H14X17640   4.627   4.235   4.727 -0.7920 -1.4974 -1.2544
  158SAPE  H14Y17641   4.483   4.155   4.813  0.7782  0.4713  2.3859
  158SAPE  C31517642   4.527   4.070   4.625 -0.0806  0.0133 -0.1018
  158SAPE  H15X17643   4.440   4.007   4.654  0.5645 -1.7275 -1.7215
  158SAPE  H15Y17644   4.604   3.996   4.592 -0.7150 -0.4603 -0.5498
  158SAPE  C31617645   4.480   4.158   4.518  0.4748 -0.6456 -0.7416
  158SAPE  H16X17646   4.568   4.224   4.502  0.2531 -0.5250 -1.5004
  158SAPE  H16Y17647   4.398   4.226   4.551  1.2298 -0.6841  1.3385
  158SAPE  C31717648   4.440   4.081   4.398  0.4187 -0.3083  0.0091
  158SAPE  H17X17649   4.371   4.002   4.434 -0.6178  1.0247  1.0767
  158SAPE  H17Y17650   4.529   4.034   4.350 -0.0956  0.1281 -1.4003
  158SAPE  C31817651   4.346   4.158   4.300  0.4060 -0.0524  0.1423
  158SAPE  H18X17652   4.297   4.084   4.233 -2.1918  0.7287  1.0379
  158SAPE  H18Y17653   4.392   4.235   4.234 -0.7720  1.7431  1.3081
  158SAPE  H18Z17654   4.270   4.214   4.358 -1.3985 -1.7159 -0.5109
  159SAPE     N17655   5.161   2.975   2.000  0.1355  0.6608  0.5293
  159SAPE   HN117656   5.203   2.992   1.907 -0.3151  1.7016  0.4984
  159SAPE   HN217657   5.125   2.878   2.006 -0.7586  0.9906  0.7667
  159SAPE   HN317658   5.071   3.028   2.003  0.0902  0.6522 -0.5351
  159SAPE   C1217659   5.241   3.027   2.119  0.1070  0.5050  0.2316
  159SAPE  H12A17660   5.228   3.138   2.124 -3.2909  0.2802 -1.1748
  159SAPE  H12B17661   5.348   3.004   2.099  0.1111 -0.9846  1.7784
  159SAPE   C1117662   5.213   2.958   2.257  0.9408  0.1048 -0.4177
  159SAPE  H11A17663   5.240   2.850   2.265  0.1876  0.0221  1.7923
  159SAPE  H11B17664   5.104   2.953   2.281  0.4853 -2.2458 -2.5497
  159SAPE     P17665   5.426   3.002   2.395  0.2989  0.0776  0.5300
  159SAPE   O1317666   5.489   2.915   2.294 -0.3135  0.3277 -0.2748
  159SAPE   O1417667   5.491   3.132   2.425 -0.2445 -0.3904  0.9156
  159SAPE   O1217668   5.275   3.035   2.356  0.1220 -0.3492 -0.5110
  159SAPE   O1117669   5.417   2.920   2.525  0.0482  0.2051  0.4857
  159SAPE    C117670   5.290   2.912   2.594 -0.3078 -0.0247 -0.2622
  159SAPE    HA17671   5.211   2.889   2.519 -0.0931  0.7152 -0.7299
  159SAPE    HB17672   5.289   2.825   2.663  0.7565 -0.4470 -0.7421
  159SAPE    C217673   5.249   3.035   2.686 -0.0494  0.4850  0.6566
  159SAPE    HS17674   5.248   3.130   2.629 -2.4491  0.3175  0.3154
  159SAPE   O2117675   5.324   3.031   2.808  0.1042 -0.7215 -0.4226
  159SAPE   C2117676   5.442   3.097   2.797  0.1285  0.5922 -0.0005
  159SAPE   O2217677   5.463   3.185   2.719 -0.6963 -0.4641  0.4682
  159SAPE   C2217678   5.524   3.054   2.916 -0.0157  0.4534 -0.4221
  159SAPE   H2R17679   5.459   3.020   3.000  0.8440  0.9271  0.4600
  159SAPE   H2S17680   5.566   2.956   2.886 -1.1029 -0.3280  0.5140
  159SAPE    C317681   5.093   3.009   2.717 -0.6052  0.5129  0.4763
  159SAPE    HX17682   5.099   2.911   2.768  1.9104  0.2391 -0.2104
  159SAPE    HY17683   5.035   3.006   2.622  0.2237 -0.0009 -0.0247
  159SAPE   O3117684   5.039   3.091   2.821  0.3361 -0.5412  0.2187
  159SAPE   C3117685   5.016   3.220   2.775  0.0499  0.3481  0.0859
  159SAPE   O3217686   5.024   3.252   2.658  0.5029  0.7324 -0.1238
  159SAPE   C3217687   4.983   3.305   2.896  0.3531 -0.4541  0.3688
  159SAPE   H2X17688   5.044   3.272   2.983  0.9651 -1.7840 -0.5223
  159SAPE   H2Y17689   4.879   3.284   2.930 -0.5292  0.8946 -1.3253
  159SAPE   C2317690   5.632   3.151   2.956  0.4215 -0.2978 -0.1243
  159SAPE   H3R17691   5.694   3.187   2.871 -1.0694 -0.4623 -1.3149
  159SAPE   H3S17692   5.697   3.097   3.028 -0.0981  2.2867  2.5099
  159SAPE   C2417693   5.581   3.267   3.045  0.2002  0.7815  0.2544
  159SAPE   H4R17694   5.519   3.237   3.132 -1.6418  2.8460 -0.2470
  159SAPE   H4S17695   5.516   3.327   2.979 -0.7050 -1.3677 -0.9033
  159SAPE   C2517696   5.704   3.344   3.086  0.3908  0.3449 -0.3349
  159SAPE   H5R17697   5.745   3.405   3.004 -0.4710 -0.1157 -1.1227
  159SAPE   C2617698   5.764   3.340   3.206  0.2153  0.3537  0.7798
  159SAPE   H6R17699   5.858   3.397   3.215  0.0324  0.6504  0.8257
  159SAPE   C2717700   5.717   3.264   3.323 -0.5071  0.0361 -0.0466
  159SAPE   H7R17701   5.798   3.205   3.369  1.0406  0.7622 -1.7139
  159SAPE   H7S17702   5.649   3.180   3.296  0.2602 -0.6416  0.1027
  159SAPE   C2817703   5.657   3.356   3.430 -0.4827  0.2895 -0.1511
  159SAPE   H8R17704   5.568   3.412   3.400 -0.2524  1.0309  0.5268
  159SAPE   C2917705   5.702   3.385   3.553 -0.2065 -1.1905 -0.1600
  159SAPE   H9R17706   5.641   3.456   3.611  3.1574  3.0089 -1.2397
  159SAPE  C21017707   5.819   3.315   3.620  0.3603 -0.2227  0.3484
  159SAPE  H10R17708   5.823   3.213   3.576 -2.5494 -0.3835  0.2115
  159SAPE  H10S17709   5.798   3.290   3.726  1.5366 -2.2171  0.1631
  159SAPE  C21117710   5.948   3.396   3.614  0.6367  0.0950  0.3315
  159SAPE  H11R17711   5.934   3.475   3.690 -1.6682  1.0284 -0.9779
  159SAPE  C21217712   6.058   3.376   3.537  0.0936 -0.5205  0.1627
  159SAPE  H12R17713   6.135   3.453   3.554 -0.2610 -0.2158  0.3945
  159SAPE  C21317714   6.090   3.271   3.432  1.0055  0.2724  0.5072
  159SAPE  H13R17715   6.080   3.325   3.335 -2.3601 -0.4234  0.3665
  159SAPE  H13S17716   6.013   3.191   3.427  1.9846 -0.8654  2.3778
  159SAPE  C21417717   6.228   3.216   3.452 -0.8271 -0.3959 -1.1073
  159SAPE  H14R17718   6.234   3.119   3.504 -1.5918 -0.1457 -0.5331
  159SAPE  C21517719   6.334   3.286   3.409 -0.0776  0.3349  0.7860
  159SAPE  H15R17720   6.429   3.245   3.448 -0.5695  1.1195  2.9664
  159SAPE  C21617721   6.346   3.404   3.318  0.2354 -0.3086 -0.5215
  159SAPE  H16R17722   6.453   3.433   3.317  0.3116 -0.5186  0.5041
  159SAPE  H16S17723   6.287   3.492   3.353  2.4038  0.2068  2.1164
  159SAPE  C21717724   6.314   3.363   3.175 -0.1401 -0.0297  0.6241
  159SAPE  H17R17725   6.217   3.308   3.178 -1.5126  2.2276  0.5140
  159SAPE  H17S17726   6.401   3.305   3.139  1.1930  2.7114 -0.8432
  159SAPE  C21817727   6.282   3.482   3.073  0.1175 -0.0350 -0.2853
  159SAPE  H18R17728   6.179   3.514   3.096  0.2767 -0.5211  1.2324
  159SAPE  H18S17729   6.288   3.432   2.974  1.7407  0.8159 -0.6655
  159SAPE  C21917730   6.382   3.598   3.080  0.5335 -0.1539 -0.4317
  159SAPE  H19R17731   6.487   3.561   3.067 -0.0511 -1.8817 -0.5697
  159SAPE  H19S17732   6.377   3.653   3.176 -1.7622 -0.2569 -0.4309
  159SAPE  C22017733   6.361   3.702   2.978  0.3221  0.1504 -0.0760
  159SAPE  H20R17734   6.353   3.650   2.880  0.0540 -0.2852  0.1725
  159SAPE  H20S17735   6.437   3.782   2.970 -1.3088  1.6431 -1.2722
  159SAPE  H20T17736   6.271   3.767   2.980 -0.1570 -0.5151  1.1899
  159SAPE   C3317737   5.005   3.451   2.874  0.3680 -0.1453  0.0534
  159SAPE   H3X17738   4.966   3.472   2.772  0.1506  0.1525  0.1948
  159SAPE   H3Y17739   5.113   3.481   2.874  0.1245  0.7898 -0.3580
  159SAPE   C3417740   4.931   3.540   2.979 -0.6501  0.0697 -0.0926
  159SAPE   H4X17741   4.825   3.508   2.977 -0.6125 -0.0514 -0.3471
  159SAPE   H4Y17742   4.945   3.648   2.957 -0.4756 -0.0595 -0.6573
  159SAPE   C3517743   4.988   3.523   3.121  0.3081  0.4464 -0.0318
  159SAPE   H5X17744   5.097   3.542   3.116  0.3152  0.8397  1.2524
  159SAPE   H5Y17745   4.953   3.420   3.144  0.2057 -0.0448 -2.1437
  159SAPE   C3617746   4.923   3.628   3.212 -0.9499  0.0745  0.0797
  159SAPE   H6X17747   4.813   3.617   3.210 -0.8866 -0.6473  0.3466
  159SAPE   H6Y17748   4.955   3.728   3.177  0.8014 -0.1707  0.8741
  159SAPE   C3717749   4.969   3.612   3.355 -0.4717 -0.3661 -0.0117
  159SAPE   H7X17750   5.079   3.596   3.354 -0.3224  0.6052  0.4044
  159SAPE   H7Y17751   4.925   3.519   3.399  0.1691 -1.2648 -1.1999
  159SAPE   C3817752   4.939   3.722   3.450 -0.0686 -0.0208  0.5867
  159SAPE   H8X17753   4.990   3.807   3.400  0.7537 -2.3384 -2.7814
  159SAPE   H8Y17754   4.990   3.699   3.546 -1.8247  1.1706  1.8846
  159SAPE   C3917755   4.789   3.745   3.462  0.5240 -0.6963 -0.5143
  159SAPE   H9X17756   4.744   3.652   3.503  0.9330 -0.0659  1.4434
  159SAPE   H9Y17757   4.749   3.769   3.361  0.3901 -0.3800 -0.3884
  159SAPE  C31017758   4.765   3.862   3.561  0.2073  0.0675  0.7749
  159SAPE  H10X17759   4.655   3.878   3.559 -0.2799 -2.7013 -0.1597
  159SAPE  H10Y17760   4.805   3.960   3.530 -0.2910  0.1458  0.3529
  159SAPE  C31117761   4.811   3.830   3.706 -0.3284 -0.8578 -0.7751
  159SAPE  H11X17762   4.921   3.815   3.701 -0.4260 -1.8040 -0.1601
  159SAPE  H11Y17763   4.764   3.733   3.731  1.4847 -1.5112  0.2360
  159SAPE  C31217764   4.779   3.942   3.804  0.2453  0.1328 -0.0954
  159SAPE  H12X17765   4.669   3.959   3.799 -0.3139 -0.0812  5.4439
  159SAPE  H12Y17766   4.831   4.033   3.768  4.8726 -2.4063 -0.5603
  159SAPE  C31317767   4.815   3.922   3.951 -0.6696  0.1288 -0.2012
  159SAPE  H13X17768   4.926   3.919   3.957 -0.5184  1.2976 -1.8101
  159SAPE  H13Y17769   4.765   3.832   3.994 -1.3839  0.9476  0.7087
  159SAPE  C31417770   4.752   4.038   4.036 -0.1455  0.4746 -0.5767
  159SAPE  H14X17771   4.642   4.028   4.019 -0.2049  0.7318 -0.3484
  159SAPE  H14Y17772   4.793   4.138   4.012  0.0484  0.7337  0.7929
  159SAPE  C31517773   4.774   4.029   4.187  0.3872 -0.3939 -0.8139
  159SAPE  H15X17774   4.728   3.940   4.234  0.0083  1.0628  1.7521
  159SAPE  H15Y17775   4.731   4.117   4.240  3.8516  0.3932  0.9771
  159SAPE  C31617776   4.917   4.020   4.226 -0.3161 -1.1730  0.5103
  159SAPE  H16X17777   4.975   4.077   4.150 -2.8364  0.9160  0.0204
  159SAPE  H16Y17778   4.966   3.920   4.235  2.4824 -0.1931 -2.1022
  159SAPE  C31717779   4.923   4.087   4.368 -0.1492 -0.5350  0.2095
  159SAPE  H17X17780   4.838   4.050   4.429  0.7873 -1.0610  1.2479
  159SAPE  H17Y17781   4.921   4.197   4.358  0.4351 -0.2009  2.9234
  159SAPE  C31817782   5.043   4.047   4.448 -0.2052  0.0362 -0.7883
  159SAPE  H18X17783   5.130   4.075   4.385  0.2610  2.1634  0.7042
  159SAPE  H18Y17784   5.043   3.936   4.457  0.0961  0.1943  2.6372
  159SAPE  H18Z17785   5.047   4.106   4.542 -1.3633 -0.7918 -0.1909
  160SAPE     N17786   3.273   3.631   2.308  0.1703 -0.6826  0.0763
  160SAPE   HN117787   3.318   3.545   2.272  1.1221 -0.0517 -0.2777
  160SAPE   HN217788   3.192   3.609   2.370 -0.5161  0.0209 -0.5415
  160SAPE   HN317789   3.234   3.689   2.231  2.3090  1.7605  0.6778
  160SAPE   C1217790   3.376   3.712   2.378  0.0305  0.1487 -0.6704
  160SAPE  H12A17791   3.425   3.644   2.450  0.7615 -0.4351 -1.6947
  160SAPE  H12B17792   3.329   3.805   2.415 -0.8613 -0.1647 -0.9750
  160SAPE   C1117793   3.491   3.752   2.275 -0.2449 -0.8605  0.3137
  160SAPE  H11A17794   3.574   3.805   2.327 -0.0853 -1.4087  0.6291
  160SAPE  H11B17795   3.464   3.830   2.200  4.0830  0.7856  0.1426
  160SAPE     P17796   3.669   3.561   2.230  0.0265 -0.0821  0.2099
  160SAPE   O1317797   3.678   3.449   2.135  0.0954  0.8843 -0.8298
  160SAPE   O1417798   3.787   3.653   2.244 -0.3612  0.7635  0.4707
  160SAPE   O1217799   3.537   3.637   2.199  0.1264  0.3821 -0.3774
  160SAPE   O1117800   3.648   3.508   2.378  0.9605  0.0697 -0.1263
  160SAPE    C117801   3.558   3.398   2.405  0.1693 -0.5896 -0.1396
  160SAPE    HA17802   3.470   3.431   2.465  0.6245 -0.7567  0.6392
  160SAPE    HB17803   3.523   3.336   2.320  0.5569  2.0445 -2.3679
  160SAPE    C217804   3.619   3.284   2.497 -0.0777  0.3916 -0.0071
  160SAPE    HS17805   3.668   3.210   2.430 -0.6886 -1.4025  1.4406
  160SAPE   O2117806   3.511   3.219   2.575 -0.3756 -0.0739 -0.0716
  160SAPE   C2117807   3.534   3.084   2.584  0.6427  0.3205  0.6530
  160SAPE   O2217808   3.630   3.026   2.535 -0.4602 -0.5253 -0.2137
  160SAPE   C2217809   3.438   3.005   2.672  0.4510  0.1439  0.1038
  160SAPE   H2R17810   3.358   2.973   2.603  0.9641  2.8213 -1.8721
  160SAPE   H2S17811   3.488   2.913   2.710 -0.0860 -1.1578 -2.1712
  160SAPE    C317812   3.721   3.332   2.610 -1.1777 -0.4000 -0.4016
  160SAPE    HX17813   3.669   3.378   2.697  3.3442  0.6068  2.1200
  160SAPE    HY17814   3.769   3.424   2.569 -1.2539 -0.1770 -0.0049
  160SAPE   O3117815   3.796   3.225   2.675 -0.3745  0.5179 -0.7529
  160SAPE   C3117816   3.901   3.182   2.613 -0.6251 -0.4457 -0.4090
  160SAPE   O3217817   3.947   3.226   2.509 -0.0237 -0.6015  0.2691
  160SAPE   C3217818   3.976   3.096   2.708 -0.5824  0.3090 -0.3936
  160SAPE   H2X17819   4.074   3.065   2.666  0.6373  2.1869  0.8894
  160SAPE   H2Y17820   3.921   3.003   2.734  0.7210 -0.8163 -1.5500
  160SAPE   C2317821   3.379   3.088   2.789 -0.5121  1.0751 -0.8030
  160SAPE   H3R17822   3.285   3.036   2.820  0.6753  0.2185  1.6062
  160SAPE   H3S17823   3.339   3.191   2.773 -0.4297  1.0479 -1.1956
  160SAPE   C2417824   3.460   3.075   2.925 -0.0916 -0.0137  0.1744
  160SAPE   H4R17825   3.481   2.967   2.944 -0.6059  0.1755  1.9970
  160SAPE   H4S17826   3.398   3.123   3.003 -2.2942 -0.4030 -1.2506
  160SAPE   C2517827   3.587   3.160   2.918  0.5925 -0.1058  0.5005
  160SAPE   H5R17828   3.648   3.135   2.830 -0.1999  0.7268 -0.3101
  160SAPE   C2617829   3.626   3.256   3.006  0.1492 -0.3160 -0.0152
  160SAPE   H6R17830   3.713   3.310   2.965  0.9845 -1.2829  0.4312
  160SAPE   C2717831   3.557   3.296   3.133  0.3232 -0.2072 -0.5414
  160SAPE   H7R17832   3.600   3.227   3.209 -1.0008 -0.1904  0.2644
  160SAPE   H7S17833   3.448   3.281   3.120  0.5022 -1.0557 -1.0875
  160SAPE   C2817834   3.580   3.442   3.164 -0.3693  0.2452 -0.6796
  160SAPE   H8R17835   3.578   3.515   3.082 -0.2716 -0.5147 -1.3740
  160SAPE   C2917836   3.599   3.495   3.289  0.2861  0.6748 -0.8854
  160SAPE   H9R17837   3.616   3.602   3.304  0.0054  0.3001  3.3172
  160SAPE  C21017838   3.606   3.413   3.420  0.7706 -0.6257 -0.2321
  160SAPE  H10R17839   3.668   3.457   3.502 -1.5502 -1.2228  1.9878
  160SAPE  H10S17840   3.653   3.317   3.391 -0.3428 -0.4747 -2.7112
  160SAPE  C21117841   3.468   3.378   3.483 -0.1707  0.0262  0.1360
  160SAPE  H11R17842   3.397   3.319   3.424  0.7812 -0.4529 -0.5552
  160SAPE  C21217843   3.422   3.394   3.609 -0.1545 -0.4922  0.0010
  160SAPE  H12R17844   3.315   3.380   3.628 -0.0172 -3.4507 -0.9058
  160SAPE  C21317845   3.491   3.463   3.721 -0.0954 -0.2290 -0.5027
  160SAPE  H13R17846   3.448   3.562   3.748  1.5585  0.5468 -0.5658
  160SAPE  H13S17847   3.598   3.485   3.699 -0.2591  0.5794 -0.5393
  160SAPE  C21417848   3.486   3.365   3.836  0.6828  0.0643  0.6987
  160SAPE  H14R17849   3.533   3.268   3.814 -0.2464 -0.0644 -0.8641
  160SAPE  C21517850   3.426   3.400   3.951 -0.4863 -0.5717  0.3823
  160SAPE  H15R17851   3.442   3.331   4.036  0.3743  0.0782  0.7689
  160SAPE  C21617852   3.342   3.522   3.987  1.0602 -0.3616 -0.2348
  160SAPE  H16R17853   3.268   3.495   4.065  2.8140 -0.3800  1.4989
  160SAPE  H16S17854   3.285   3.556   3.898  0.8708 -0.6889 -0.2382
  160SAPE  C21717855   3.425   3.634   4.043  0.1681  0.2806 -0.2389
  160SAPE  H17R17856   3.510   3.661   3.977  0.4776 -0.7381 -0.2674
  160SAPE  H17S17857   3.473   3.600   4.137 -1.7076 -0.2359  0.5916
  160SAPE  C21817858   3.347   3.772   4.076 -0.1872  0.1816  0.2936
  160SAPE  H18R17859   3.266   3.748   4.148 -1.4212 -0.2168 -1.1667
  160SAPE  H18S17860   3.302   3.810   3.981  0.4016  0.1553  0.0010
  160SAPE  C21917861   3.441   3.874   4.131 -1.0018  0.4545 -0.3887
  160SAPE  H19R17862   3.485   3.830   4.223  0.0505 -3.5922 -2.6072
  160SAPE  H19S17863   3.384   3.960   4.173 -0.3152  0.1244  1.3059
  160SAPE  C22017864   3.561   3.914   4.040  0.2852 -0.0106 -0.1929
  160SAPE  H20R17865   3.610   3.998   4.093 -1.7779 -0.0044  1.8450
  160SAPE  H20S17866   3.529   3.938   3.936  0.8224 -0.4238 -0.4593
  160SAPE  H20T17867   3.635   3.832   4.032 -1.2448 -1.3294 -1.4842
  160SAPE   C3317868   4.008   3.169   2.842 -0.2136  0.4859 -0.9046
  160SAPE   H3X17869   3.912   3.157   2.896 -0.6898  0.1240 -1.8068
  160SAPE   H3Y17870   4.040   3.275   2.830  0.9453  0.3356  0.6615
  160SAPE   C3417871   4.112   3.095   2.924 -0.0400  0.5809  0.1174
  160SAPE   H4X17872   4.213   3.106   2.879  1.3204 -0.9703  2.5617
  160SAPE   H4Y17873   4.091   2.986   2.916  2.8940 -0.0316 -0.6702
  160SAPE   C3517874   4.124   3.137   3.070 -0.4222  0.2213  0.9231
  160SAPE   H5X17875   4.031   3.116   3.126 -0.4379 -1.6278  0.2853
  160SAPE   H5Y17876   4.139   3.247   3.073 -2.4859  0.6847 -1.8655
  160SAPE   C3617877   4.242   3.070   3.146 -0.7065 -0.1918 -0.6022
  160SAPE   H6X17878   4.336   3.116   3.108 -0.9299 -1.0285 -2.2587
  160SAPE   H6Y17879   4.250   2.962   3.126 -0.2341  0.1685 -2.4850
  160SAPE   C3717880   4.226   3.076   3.300  0.1009  0.2378 -0.2844
  160SAPE   H7X17881   4.129   3.034   3.333  1.1514 -1.6371  0.6067
  160SAPE   H7Y17882   4.222   3.184   3.326 -0.3264  0.3339 -0.7398
  160SAPE   C3817883   4.346   3.011   3.377 -0.4537 -0.1021 -0.1982
  160SAPE   H8X17884   4.437   3.034   3.318 -0.3046 -3.4397 -1.5088
  160SAPE   H8Y17885   4.341   2.900   3.380  2.3573 -0.2920  2.1524
  160SAPE   C3917886   4.344   3.055   3.527  0.4272  0.7553  0.8069
  160SAPE   H9X17887   4.244   3.032   3.570  0.0025  1.0269 -0.0270
  160SAPE   H9Y17888   4.376   3.161   3.530  0.1479  1.0674 -2.8218
  160SAPE  C31017889   4.446   2.961   3.599  0.3098  0.1051 -0.1379
  160SAPE  H10X17890   4.540   2.949   3.541 -0.2723  0.1466 -1.1035
  160SAPE  H10Y17891   4.403   2.859   3.597  1.1092 -0.2311 -0.2617
  160SAPE  C31117892   4.476   3.020   3.743 -0.5284 -0.5386  0.5069
  160SAPE  H11X17893   4.494   3.130   3.738  0.8025 -0.4703  3.9759
  160SAPE  H11Y17894   4.575   2.980   3.774 -0.6571 -0.6872  0.7264
  160SAPE  C31217895   4.372   2.987   3.846  0.2622 -0.2024 -0.5211
  160SAPE  H12X17896   4.301   2.905   3.823 -0.7649  0.6752 -0.5629
  160SAPE  H12Y17897   4.299   3.072   3.845 -1.5956 -1.6884 -2.8265
  160SAPE  C31317898   4.427   2.968   3.991  0.2222 -0.3440  0.0643
  160SAPE  H13X17899   4.478   2.870   3.998 -1.2472 -1.1829 -0.6239
  160SAPE  H13Y17900   4.341   2.953   4.060  0.8573 -2.8823  0.3994
  160SAPE  C31417901   4.514   3.086   4.049 -0.3040  0.3391  0.6541
  160SAPE  H14X17902   4.437   3.164   4.064 -0.2427  1.0048 -1.9637
  160SAPE  H14Y17903   4.585   3.130   3.975  1.1953 -0.3799  1.6159
  160SAPE  C31517904   4.574   3.048   4.189 -0.2601 -0.3447  0.3488
  160SAPE  H15X17905   4.657   2.975   4.179  1.8163  1.9030  0.4028
  160SAPE  H15Y17906   4.506   2.999   4.261  0.8054 -1.5398  0.5816
  160SAPE  C31617907   4.624   3.173   4.256 -0.3664  0.0832  0.2088
  160SAPE  H16X17908   4.542   3.243   4.281  0.2150  0.2631  1.7226
  160SAPE  H16Y17909   4.691   3.221   4.182 -1.4151 -0.3402 -1.0421
  160SAPE  C31717910   4.701   3.134   4.383 -0.6464 -0.6810  0.0486
  160SAPE  H17X17911   4.786   3.067   4.357 -0.4781 -0.4247 -0.0565
  160SAPE  H17Y17912   4.639   3.076   4.455  2.6365 -0.2163  3.5989
  160SAPE  C31817913   4.757   3.256   4.456  0.4144 -0.1171  0.2359
  160SAPE  H18X17914   4.797   3.244   4.559  1.5494  0.1831 -0.1609
  160SAPE  H18Y17915   4.677   3.333   4.461 -0.9952 -1.2183 -2.5512
  160SAPE  H18Z17916   4.838   3.298   4.393  0.5858  0.1851  0.6541
  161SAPE     N17917   1.073   6.139   2.209  0.1290 -0.1622  0.4764
  161SAPE   HN117918   1.088   6.234   2.170 -0.0355 -0.2036  0.3082
  161SAPE   HN217919   0.984   6.104   2.167  0.0220 -2.9355  2.6742
  161SAPE   HN317920   1.047   6.142   2.310  0.8194 -0.8538  0.6835
  161SAPE   C1217921   1.180   6.032   2.181 -0.3712 -0.6089 -0.0215
  161SAPE  H12A17922   1.162   6.009   2.074 -0.0072 -0.0244 -0.2174
  161SAPE  H12B17923   1.141   5.941   2.231 -1.6864 -0.0886 -0.0619
  161SAPE   C1117924   1.320   6.079   2.223  0.2518  0.4750 -0.3449
  161SAPE  H11A17925   1.388   5.993   2.208  0.3423  0.0816  1.8572
  161SAPE  H11B17926   1.313   6.089   2.334  0.6886 -2.7361  0.0468
  161SAPE     P17927   1.506   6.226   2.104 -0.3213  0.4133  0.0354
  161SAPE   O1317928   1.578   6.096   2.100 -0.4509  0.3891  0.2994
  161SAPE   O1417929   1.483   6.287   1.972  0.1190  0.3897 -0.1692
  161SAPE   O1217930   1.365   6.206   2.176 -0.7887  0.1776  0.2260
  161SAPE   O1117931   1.592   6.326   2.193  0.1909  0.4797  0.1630
  161SAPE    C117932   1.529   6.418   2.281 -0.4212 -0.3119  0.9719
  161SAPE    HA17933   1.559   6.524   2.270 -0.2446 -0.2725  1.7932
  161SAPE    HB17934   1.421   6.425   2.255 -0.1634 -0.3987 -0.1988
  161SAPE    C217935   1.536   6.394   2.437 -0.1123  0.3391  0.6037
  161SAPE    HS17936   1.646   6.397   2.455  0.0542 -0.9089 -0.0978
  161SAPE   O2117937   1.480   6.264   2.452 -0.2095  0.4042 -0.8951
  161SAPE   C2117938   1.534   6.193   2.544  0.7943  0.4496 -0.7750
  161SAPE   O2217939   1.623   6.223   2.619 -0.2078 -0.0112 -0.1901
  161SAPE   C2217940   1.476   6.056   2.541  0.5302  0.3142  0.0771
  161SAPE   H2R17941   1.475   6.017   2.645  1.4263 -0.9775 -0.3638
  161SAPE   H2S17942   1.368   6.059   2.515  0.0124  0.5362  2.0666
  161SAPE    C317943   1.462   6.506   2.514 -0.1780  1.2213 -0.7654
  161SAPE    HX17944   1.358   6.520   2.475 -0.7518 -0.3556  0.1041
  161SAPE    HY17945   1.512   6.602   2.488  1.4844  0.5628 -0.0907
  161SAPE   O3117946   1.457   6.476   2.660 -0.1628 -0.3526 -0.3028
  161SAPE   C3117947   1.562   6.520   2.727 -0.0722  0.1674 -0.3792
  161SAPE   O3217948   1.661   6.567   2.678 -0.5583 -0.2365  0.4830
  161SAPE   C3217949   1.530   6.504   2.879 -0.5185 -0.2189  0.0848
  161SAPE   H2X17950   1.629   6.506   2.930  0.1194  1.3733 -1.1292
  161SAPE   H2Y17951   1.484   6.403   2.890 -0.7202 -0.1181  0.1630
  161SAPE   C2317952   1.553   5.949   2.454 -0.2157  0.0231 -0.6425
  161SAPE   H3R17953   1.548   5.977   2.346  0.3600  0.4342 -0.5675
  161SAPE   H3S17954   1.496   5.855   2.469 -1.4505  0.5525 -1.8192
  161SAPE   C2417955   1.693   5.930   2.499 -0.1648  0.2608  0.5601
  161SAPE   H4R17956   1.683   5.916   2.609  2.3235  0.8597  0.9266
  161SAPE   H4S17957   1.762   6.017   2.496 -1.4338  1.3038 -2.9355
  161SAPE   C2517958   1.761   5.812   2.435 -0.3445  0.2178 -0.3605
  161SAPE   H5R17959   1.756   5.795   2.326  0.2129 -0.2493 -0.3163
  161SAPE   C2617960   1.838   5.715   2.494 -0.4207 -0.5805  0.5979
  161SAPE   H6R17961   1.881   5.632   2.435 -0.7795  0.5809 -1.3589
  161SAPE   C2717962   1.875   5.707   2.643 -0.6401  0.5781  1.0887
  161SAPE   H7R17963   1.806   5.635   2.692  0.4861  0.5986  2.7674
  161SAPE   H7S17964   1.863   5.807   2.690  4.3791  2.2997 -0.7133
  161SAPE   C2817965   2.017   5.661   2.658 -0.9216 -0.6685  0.7442
  161SAPE   H8R17966   2.054   5.612   2.566 -1.5605 -1.6364  0.9883
  161SAPE   C2917967   2.078   5.633   2.775 -0.4458 -0.1282  0.3693
  161SAPE   H9R17968   2.181   5.594   2.767 -0.8265 -0.8658 -1.5440
  161SAPE  C21017969   2.024   5.651   2.913 -0.1450 -0.0157  0.4998
  161SAPE  H10R17970   1.974   5.750   2.924  1.1631  0.6784  0.4429
  161SAPE  H10S17971   2.102   5.651   2.993 -0.6578  0.0919  1.0094
  161SAPE  C21117972   1.930   5.539   2.951 -0.0038 -0.4832 -0.6395
  161SAPE  H11R17973   1.834   5.535   2.897 -0.3304  1.0149 -0.2132
  161SAPE  C21217974   1.946   5.457   3.062 -0.2409 -0.4528  0.3487
  161SAPE  H12R17975   1.866   5.382   3.073 -1.1033  0.3899  0.0071
  161SAPE  C21317976   2.072   5.444   3.148  0.1801  0.1086 -0.6070
  161SAPE  H13R17977   2.168   5.439   3.093 -0.3242 -0.8585 -1.4396
  161SAPE  H13S17978   2.066   5.345   3.199 -2.7618 -0.0023 -0.9532
  161SAPE  C21417979   2.073   5.550   3.263  0.1096 -0.5284  0.3504
  161SAPE  H14R17980   1.986   5.617   3.273 -0.5689 -1.3472 -0.0300
  161SAPE  C21517981   2.171   5.556   3.357 -0.8342 -0.3348  0.6995
  161SAPE  H15R17982   2.173   5.641   3.426  2.2559  2.4785 -2.4387
  161SAPE  C21617983   2.298   5.470   3.365 -0.2068  0.0712 -0.5532
  161SAPE  H16R17984   2.324   5.440   3.262 -1.4853  0.1034 -0.8990
  161SAPE  H16S17985   2.281   5.380   3.428  0.8838  0.5019  0.4104
  161SAPE  C21717986   2.426   5.553   3.420  0.5217  0.2111 -0.3333
  161SAPE  H17R17987   2.418   5.569   3.530  1.0748  1.0479 -0.3986
  161SAPE  H17S17988   2.429   5.656   3.378 -0.6870  1.2339  1.9105
  161SAPE  C21817989   2.565   5.488   3.397 -0.3380  0.4151  0.0546
  161SAPE  H18R17990   2.583   5.490   3.287 -0.7522  1.8903 -0.0103
  161SAPE  H18S17991   2.561   5.385   3.438 -0.3856  0.9123  1.3487
  161SAPE  C21917992   2.686   5.552   3.463 -0.7494  0.2509 -0.1776
  161SAPE  H19R17993   2.703   5.660   3.441  4.0267  0.4013  2.7396
  161SAPE  H19S17994   2.770   5.486   3.430 -1.2780 -0.7747  0.4684
  161SAPE  C22017995   2.693   5.539   3.621 -0.4565  0.2509  0.2848
  161SAPE  H20R17996   2.669   5.439   3.662  0.2837  0.2493  0.7292
  161SAPE  H20S17997   2.625   5.617   3.661 -2.3806 -1.2200  0.0254
  161SAPE  H20T17998   2.797   5.539   3.661  0.9085  0.9033 -2.9250
  161SAPE   C3317999   1.431   6.611   2.930  0.1812 -0.4718 -0.5459
  161SAPE   H3X18000   1.342   6.613   2.864 -0.4778 -0.3329  0.3286
  161SAPE   H3Y18001   1.486   6.708   2.933  0.9038 -0.8846 -0.0369
  161SAPE   C3418002   1.379   6.583   3.078  0.5504  0.0254  1.4650
  161SAPE   H4X18003   1.298   6.508   3.083  0.2311  0.3084  0.5877
  161SAPE   H4Y18004   1.322   6.673   3.109 -0.9444 -0.7265  1.0151
  161SAPE   C3518005   1.480   6.532   3.170 -0.1948 -0.3028 -0.2432
  161SAPE   H5X18006   1.575   6.588   3.156  0.1268 -1.1714 -1.7889
  161SAPE   H5Y18007   1.503   6.426   3.148 -3.1031 -0.8919 -0.8449
  161SAPE   C3618008   1.435   6.542   3.324  0.5042  0.1026  0.2046
  161SAPE   H6X18009   1.334   6.499   3.343  0.1577  0.9731  0.4068
  161SAPE   H6Y18010   1.424   6.646   3.362 -1.5693 -0.5798  1.6596
  161SAPE   C3718011   1.531   6.466   3.421  0.2139  0.1438 -0.0126
  161SAPE   H7X18012   1.628   6.520   3.425  0.5837 -0.4333  4.8759
  161SAPE   H7Y18013   1.541   6.359   3.392 -0.4210 -0.0387  0.3962
  161SAPE   C3818014   1.470   6.465   3.564 -0.0683 -0.7183 -0.3065
  161SAPE   H8X18015   1.388   6.393   3.583  1.0001 -1.4996  1.6383
  161SAPE   H8Y18016   1.439   6.566   3.599 -2.5165 -1.5948  0.3190
  161SAPE   C3918017   1.584   6.411   3.650  0.0206  0.4054  0.1666
  161SAPE   H9X18018   1.687   6.450   3.632  0.4155 -0.2937  0.8184
  161SAPE   H9Y18019   1.594   6.301   3.640 -0.5171  0.4150 -0.5622
  161SAPE  C31018020   1.564   6.437   3.798  0.5556 -0.2355  0.4528
  161SAPE  H10X18021   1.470   6.396   3.839  0.4839  1.3293  1.9740
  161SAPE  H10Y18022   1.553   6.543   3.829 -1.0934  0.4532 -2.1707
  161SAPE  C31118023   1.675   6.369   3.880 -0.5033 -0.1545  0.1091
  161SAPE  H11X18024   1.771   6.425   3.879 -0.9066  0.7562  3.0802
  161SAPE  H11Y18025   1.690   6.262   3.853 -0.1379 -0.5158  1.6503
  161SAPE  C31218026   1.633   6.345   4.028 -0.1152 -0.0648 -0.1116
  161SAPE  H12X18027   1.551   6.269   4.026  1.3135 -1.7406  1.6977
  161SAPE  H12Y18028   1.579   6.438   4.053  1.1978  0.7429 -0.2160
  161SAPE  C31318029   1.747   6.305   4.119 -0.1227  0.2110  0.5469
  161SAPE  H13X18030   1.802   6.235   4.053 -2.7204 -0.8259 -0.6733
  161SAPE  H13Y18031   1.701   6.251   4.204  0.2990 -2.6034 -0.9074
  161SAPE  C31418032   1.851   6.412   4.157  0.4839  0.2394 -0.2267
  161SAPE  H14X18033   1.810   6.448   4.254 -2.2630 -0.7870 -0.9078
  161SAPE  H14Y18034   1.851   6.495   4.084 -1.0301  0.8689  0.4275
  161SAPE  C31518035   1.995   6.358   4.155 -0.3515  0.1150  0.0532
  161SAPE  H15X18036   2.017   6.318   4.054  0.6300  1.1102 -0.1413
  161SAPE  H15Y18037   2.021   6.292   4.241  3.4120 -0.5432 -1.3990
  161SAPE  C31618038   2.111   6.459   4.166 -0.1709 -0.4593  0.2182
  161SAPE  H16X18039   2.093   6.535   4.087 -2.7205 -0.3411  0.8220
  161SAPE  H16Y18040   2.207   6.408   4.143 -0.1769  0.0433 -1.0328
  161SAPE  C31718041   2.115   6.526   4.299 -0.8494  0.5074  0.5229
  161SAPE  H17X18042   2.025   6.584   4.329 -1.0462  1.3155 -1.5290
  161SAPE  H17Y18043   2.196   6.601   4.299 -0.4923  0.1565 -1.1434
  161SAPE  C31818044   2.179   6.434   4.407 -0.4277 -0.2066 -0.3599
  161SAPE  H18X18045   2.117   6.345   4.432  2.9945 -2.1944  1.7741
  161SAPE  H18Y18046   2.189   6.492   4.502  1.0371  1.5266 -1.5120
  161SAPE  H18Z18047   2.278   6.407   4.366 -1.4355 -4.2827 -0.5583
  162SAPE     N18048   0.115   0.397   2.154 -0.1835  0.1425  0.1575
  162SAPE   HN118049   0.016   0.428   2.152 -0.1868  0.3964  2.0783
  162SAPE   HN218050   0.165   0.437   2.073 -0.5890 -3.1110 -1.8629
  162SAPE   HN318051   0.123   0.293   2.149 -1.3903  0.0370  0.1193
  162SAPE   C1218052   0.189   0.447   2.268  0.1925  0.0340  0.1224
  162SAPE  H12A18053   0.123   0.434   2.357 -1.3040  1.9749 -0.6378
  162SAPE  H12B18054   0.202   0.557   2.256 -3.0935  0.3214 -2.0829
  162SAPE   C1118055   0.325   0.391   2.295 -0.4857  1.1098  0.0383
  162SAPE  H11A18056   0.303   0.288   2.330 -0.1354 -0.2611 -3.3335
  162SAPE  H11B18057   0.371   0.447   2.379  2.2524 -0.0651 -0.5656
  162SAPE     P18058   0.491   0.518   2.134  0.0847  0.2031 -0.1274
  162SAPE   O1318059   0.639   0.485   2.137  0.5034 -0.6755 -0.3316
  162SAPE   O1418060   0.428   0.553   2.004  0.0267 -0.7139 -0.0607
  162SAPE   O1218061   0.408   0.389   2.181 -0.0214  0.9987  0.2579
  162SAPE   O1118062   0.452   0.625   2.235 -0.5659 -0.8480  0.0163
  162SAPE    C118063   0.551   0.721   2.275 -0.4939 -0.3757 -0.1201
  162SAPE    HA18064   0.607   0.752   2.183  2.4579 -3.7328  0.3254
  162SAPE    HB18065   0.489   0.805   2.313 -1.7744 -1.7096  0.8254
  162SAPE    C218066   0.648   0.673   2.385 -0.4196  0.4437  0.6622
  162SAPE    HS18067   0.717   0.599   2.339 -0.7554 -0.7408  1.9791
  162SAPE   O2118068   0.574   0.603   2.486  0.3032  0.2566 -0.1046
  162SAPE   C2118069   0.509   0.677   2.574 -0.2416  0.5775  0.1867
  162SAPE   O2218070   0.492   0.798   2.569 -0.2353 -0.0400  0.3107
  162SAPE   C2218071   0.485   0.589   2.695 -0.4752 -0.0437 -0.4261
  162SAPE   H2R18072   0.420   0.651   2.762 -0.3935  0.1808 -0.5527
  162SAPE   H2S18073   0.423   0.502   2.664 -0.4614  0.1349 -0.9710
  162SAPE    C318074   0.754   0.784   2.427  0.2882 -0.4728  0.1850
  162SAPE    HX18075   0.710   0.883   2.452 -0.2339 -0.6579  0.0183
  162SAPE    HY18076   0.825   0.803   2.343  0.0413  0.0135  0.0825
  162SAPE   O3118077   0.819   0.754   2.542  0.0751  0.1239 -0.6218
  162SAPE   C3118078   0.927   0.669   2.535  0.3556  0.1544 -0.7059
  162SAPE   O3218079   0.953   0.603   2.436  0.1899 -0.3217  0.0581
  162SAPE   C3218080   1.000   0.650   2.668 -0.0706 -0.3874 -0.6172
  162SAPE   H2X18081   0.943   0.578   2.732 -1.0742  0.9373  0.0221
  162SAPE   H2Y18082   0.994   0.748   2.720 -1.2319 -0.9300  0.3286
  162SAPE   C2318083   0.613   0.534   2.772  0.4062 -0.1222  0.5834
  162SAPE   H3R18084   0.692   0.528   2.695 -1.6244  2.6282 -1.9725
  162SAPE   H3S18085   0.590   0.433   2.813 -0.2812  0.0230  0.5689
  162SAPE   C2418086   0.650   0.633   2.894  0.2605  0.1813  0.7866
  162SAPE   H4R18087   0.568   0.633   2.969 -1.0568 -0.4299 -0.6048
  162SAPE   H4S18088   0.641   0.740   2.864 -1.2861 -0.3442 -0.7177
  162SAPE   C2518089   0.779   0.620   2.963 -0.1551 -0.2206 -0.8828
  162SAPE   H5R18090   0.866   0.672   2.921  0.5494  0.7566  1.6031
  162SAPE   C2618091   0.797   0.531   3.063 -0.2865 -0.3366 -0.4112
  162SAPE   H6R18092   0.896   0.521   3.111  0.6881  1.2451 -1.9632
  162SAPE   C2718093   0.692   0.440   3.128  0.0407 -0.5815  0.2616
  162SAPE   H7R18094   0.594   0.492   3.134 -0.0267 -0.8536  2.3826
  162SAPE   H7S18095   0.727   0.423   3.232 -1.1438  0.4973  0.8656
  162SAPE   C2818096   0.685   0.305   3.067  0.3633  0.6587 -0.1872
  162SAPE   H8R18097   0.728   0.289   2.967  2.2606 -1.1972  0.8565
  162SAPE   C2918098   0.610   0.202   3.117  0.1160 -0.8156  0.0418
  162SAPE   H9R18099   0.616   0.102   3.072  0.0768 -1.0812  0.6107
  162SAPE  C21018100   0.554   0.203   3.260 -0.0625  0.1259  0.6305
  162SAPE  H10R18101   0.453   0.158   3.254  0.4713 -1.1449  0.8236
  162SAPE  H10S18102   0.547   0.300   3.314 -1.1117  0.2964  0.2209
  162SAPE  C21118103   0.650   0.127   3.353  0.5444  0.4617  0.0770
  162SAPE  H11R18104   0.755   0.161   3.351  0.3282  1.2006  0.5084
  162SAPE  C21218105   0.595   0.033   3.439  0.1745  0.3092 -0.0650
  162SAPE  H12R18106   0.660  -0.028   3.504  0.7649  0.6245 -0.3524
  162SAPE  C21318107   0.452  -0.007   3.441 -0.6310 -0.6641 -0.8927
  162SAPE  H13R18108   0.431  -0.077   3.356  2.6066 -2.4097 -0.4014
  162SAPE  H13S18109   0.383   0.078   3.425  0.0528  1.0347  3.8354
  162SAPE  C21418110   0.417  -0.072   3.575  1.0546  0.0151  0.3651
  162SAPE  H14R18111   0.400   0.003   3.654 -2.4785  0.6109 -0.8042
  162SAPE  C21518112   0.414  -0.207   3.598  0.2040 -0.3978 -0.7288
  162SAPE  H15R18113   0.386  -0.239   3.699 -1.6331  1.4888 -0.5729
  162SAPE  C21618114   0.455  -0.312   3.505 -0.0826  0.5130  0.7048
  162SAPE  H16R18115   0.509  -0.386   3.567 -3.4096 -0.3740  2.8392
  162SAPE  H16S18116   0.519  -0.270   3.425 -1.1713  1.4839  0.3101
  162SAPE  C21718117   0.343  -0.370   3.427  0.7290 -0.4842  0.5979
  162SAPE  H17R18118   0.277  -0.294   3.380 -0.1941 -0.5895  1.6869
  162SAPE  H17S18119   0.267  -0.409   3.498 -1.3010  1.1654 -0.5603
  162SAPE  C21818120   0.386  -0.484   3.335 -0.2351 -0.4821 -0.2266
  162SAPE  H18R18121   0.468  -0.540   3.385  1.8168  1.0961 -1.6600
  162SAPE  H18S18122   0.445  -0.450   3.247 -0.1218  1.1940  0.4542
  162SAPE  C21918123   0.281  -0.587   3.291  0.4306 -0.0663 -0.6797
  162SAPE  H19R18124   0.217  -0.554   3.206  0.5612 -0.6281 -1.0040
  162SAPE  H19S18125   0.209  -0.606   3.373 -1.6086  1.5404 -1.9905
  162SAPE  C22018126   0.339  -0.725   3.249  0.0693  0.5983 -0.0700
  162SAPE  H20R18127   0.257  -0.798   3.269  1.4928 -0.8226  0.7578
  162SAPE  H20S18128   0.427  -0.747   3.313 -0.6089  0.2602  0.7725
  162SAPE  H20T18129   0.384  -0.727   3.148 -2.3097  0.2118 -1.1869
  162SAPE   C3318130   1.149   0.591   2.651 -0.2185 -0.2765 -0.0810
  162SAPE   H3X18131   1.204   0.672   2.598  1.3052 -0.3375  1.3249
  162SAPE   H3Y18132   1.143   0.500   2.587  0.0795  0.3667 -1.0458
  162SAPE   C3418133   1.211   0.556   2.787  0.1761 -0.3487  0.7028
  162SAPE   H4X18134   1.304   0.506   2.755 -0.9097 -1.6737 -0.4909
  162SAPE   H4Y18135   1.149   0.476   2.832  1.7327 -1.1272  1.5273
  162SAPE   C3518136   1.224   0.671   2.887 -0.1816 -0.6191 -0.5516
  162SAPE   H5X18137   1.121   0.707   2.910  0.1521  1.2255 -1.7106
  162SAPE   H5Y18138   1.269   0.752   2.825 -2.7328  1.2236 -0.1585
  162SAPE   C3618139   1.311   0.639   3.016  0.4707 -0.6699 -0.1758
  162SAPE   H6X18140   1.337   0.734   3.068 -0.3735  0.7184 -2.1294
  162SAPE   H6Y18141   1.406   0.596   2.981  0.2714  0.8248 -2.7904
  162SAPE   C3718142   1.240   0.559   3.129  0.3398  0.6216  0.9263
  162SAPE   H7X18143   1.204   0.459   3.097 -2.6101  1.1260  2.3556
  162SAPE   H7Y18144   1.154   0.629   3.136  1.5059  2.6176 -2.2771
  162SAPE   C3818145   1.320   0.546   3.256  0.1218  0.5977 -0.2193
  162SAPE   H8X18146   1.425   0.515   3.237 -0.6326 -3.3069  1.1671
  162SAPE   H8Y18147   1.273   0.459   3.306 -1.8981  1.6412 -0.2032
  162SAPE   C3918148   1.308   0.654   3.365  0.3550 -0.0333  0.4014
  162SAPE   H9X18149   1.201   0.672   3.390  0.5585 -1.5007  2.6169
  162SAPE   H9Y18150   1.350   0.750   3.328 -1.9916  0.3844 -1.4740
  162SAPE  C31018151   1.377   0.613   3.496  0.5364  0.4707  0.3800
  162SAPE  H10X18152   1.486   0.597   3.489  0.3728 -0.3184 -0.5662
  162SAPE  H10Y18153   1.344   0.513   3.533  1.9837 -0.4897 -0.8066
  162SAPE  C31118154   1.342   0.705   3.613  0.4135 -0.7178  0.3982
  162SAPE  H11X18155   1.234   0.729   3.616  0.7613  0.9001  1.4955
  162SAPE  H11Y18156   1.395   0.800   3.588 -1.5835 -0.2151 -2.4432
  162SAPE  C31218157   1.379   0.662   3.755 -0.5837  0.0064  0.1749
  162SAPE  H12X18158   1.484   0.625   3.763 -0.7747 -0.2051  2.1017
  162SAPE  H12Y18159   1.321   0.574   3.788 -0.3347 -0.2601 -0.0902
  162SAPE  C31318160   1.343   0.765   3.862 -0.0463  0.0744  0.3382
  162SAPE  H13X18161   1.254   0.815   3.819  0.1322  0.8240  0.8293
  162SAPE  H13Y18162   1.426   0.838   3.874 -1.4244  1.3945  2.5311
  162SAPE  C31418163   1.321   0.700   4.005 -0.9624  0.3331 -0.9252
  162SAPE  H14X18164   1.359   0.772   4.081  0.0689  0.4051 -1.4940
  162SAPE  H14Y18165   1.374   0.603   4.007 -0.7329  0.4687 -0.0971
  162SAPE  C31518166   1.172   0.680   4.026 -0.7525 -0.2085 -0.1009
  162SAPE  H15X18167   1.128   0.615   3.947 -0.0363 -0.3710 -0.3840
  162SAPE  H15Y18168   1.118   0.777   4.030  0.7010  0.5983  1.1841
  162SAPE  C31618169   1.148   0.627   4.171  0.7952 -0.1831  0.2226
  162SAPE  H16X18170   1.186   0.694   4.251 -1.5055  2.7494 -0.9532
  162SAPE  H16Y18171   1.209   0.536   4.184  0.2525 -0.7138 -0.8105
  162SAPE  C31718172   1.002   0.616   4.205  0.0257 -0.1031 -0.5470
  162SAPE  H17X18173   0.961   0.526   4.154  1.8407 -0.7470 -0.9282
  162SAPE  H17Y18174   0.941   0.704   4.175  1.0373  0.6258 -0.5228
  162SAPE  C31818175   0.971   0.590   4.357 -0.7043 -0.0375  0.4475
  162SAPE  H18X18176   1.012   0.670   4.423 -1.1151 -0.4274  1.1827
  162SAPE  H18Y18177   1.027   0.497   4.383  1.6592  1.5112  1.2147
  162SAPE  H18Z18178   0.861   0.583   4.359 -0.7383  0.3219  0.0731
  163SAPE     N18179   6.768   5.424   2.100  0.8223 -0.5067 -0.0986
  163SAPE   HN118180   6.764   5.346   2.031  0.0201 -0.5047 -0.0633
  163SAPE   HN218181   6.725   5.509   2.059  0.3953 -0.6074  0.1363
  163SAPE   HN318182   6.865   5.460   2.111  0.1796  1.5729 -0.7216
  163SAPE   C1218183   6.707   5.402   2.234 -0.0758  0.2591 -0.2027
  163SAPE  H12A18184   6.771   5.336   2.297 -0.9623 -1.5989 -1.1807
  163SAPE  H12B18185   6.610   5.348   2.223 -0.4307  0.4129  1.6852
  163SAPE   C1118186   6.687   5.540   2.303  0.0685  0.3182 -0.0137
  163SAPE  H11A18187   6.792   5.577   2.307  0.6239 -0.6173 -3.1364
  163SAPE  H11B18188   6.645   5.524   2.405 -2.9959  1.5320 -0.9975
  163SAPE     P18189   6.552   5.764   2.275  0.0317 -0.1328 -0.2507
  163SAPE   O1318190   6.566   5.855   2.164  0.8215 -0.1325 -0.4090
  163SAPE   O1418191   6.418   5.744   2.334  0.7317 -0.3874 -0.3303
  163SAPE   O1218192   6.601   5.625   2.228  0.1769  0.1497  0.4901
  163SAPE   O1118193   6.650   5.801   2.390 -0.2195 -0.6775 -0.4390
  163SAPE    C118194   6.633   5.761   2.527 -0.7018 -0.3708  0.3588
  163SAPE    HA18195   6.560   5.678   2.539 -0.6425 -0.9212 -2.4683
  163SAPE    HB18196   6.732   5.733   2.568 -0.1950 -1.5264 -1.5411
  163SAPE    C218197   6.575   5.877   2.611 -0.1674 -0.0396 -0.1195
  163SAPE    HS18198   6.471   5.881   2.573 -0.4364  0.3883  0.6340
  163SAPE   O2118199   6.650   5.996   2.598 -0.0064 -0.2663 -0.3401
  163SAPE   C2118200   6.596   6.102   2.537  0.0687 -1.0105 -0.5461
  163SAPE   O2218201   6.485   6.111   2.491  0.1645 -0.6423  0.2068
  163SAPE   C2218202   6.695   6.219   2.549  0.8666  0.0303  0.1150
  163SAPE   H2R18203   6.772   6.204   2.471 -0.9593 -0.5430 -1.6947
  163SAPE   H2S18204   6.636   6.310   2.522 -0.8367 -0.8789  0.5943
  163SAPE    C318205   6.560   5.844   2.762  0.7517 -0.6784  0.3960
  163SAPE    HX18206   6.468   5.782   2.763 -0.0055  0.3325 -1.6332
  163SAPE    HY18207   6.543   5.935   2.824  2.8785 -0.1895  0.3412
  163SAPE   O3118208   6.667   5.768   2.823 -0.4863  0.2988  0.2075
  163SAPE   C3118209   6.744   5.834   2.902  0.3903  0.5013 -0.0432
  163SAPE   O3218210   6.755   5.955   2.901 -0.1336 -0.2196 -0.6471
  163SAPE   C3218211   6.828   5.738   2.984 -0.1980  0.0879 -1.0729
  163SAPE   H2X18212   6.922   5.715   2.931  0.3981  1.6276 -0.7260
  163SAPE   H2Y18213   6.773   5.641   2.987  0.7933 -0.5214 -2.0434
  163SAPE   C2318214   6.759   6.231   2.686 -0.7194  0.0557 -0.1210
  163SAPE   H3R18215   6.869   6.243   2.681 -0.7379 -0.0709 -1.1149
  163SAPE   H3S18216   6.736   6.144   2.752  2.7652 -0.7166  0.2622
  163SAPE   C2418217   6.713   6.354   2.767  0.8125 -0.0287  0.1685
  163SAPE   H4R18218   6.745   6.449   2.718  0.9243  0.3702  0.9875
  163SAPE   H4S18219   6.790   6.349   2.847  2.4134  2.1247 -1.1158
  163SAPE   C2518220   6.566   6.363   2.799  0.4348  0.6315  0.1424
  163SAPE   H5R18221   6.503   6.437   2.747 -0.3950  2.2055  3.1637
  163SAPE   C2618222   6.521   6.311   2.918 -0.7661 -0.0207  0.1593
  163SAPE   H6R18223   6.414   6.327   2.936 -1.4098 -0.7914 -2.5202
  163SAPE   C2718224   6.599   6.236   3.024  0.0818  0.1357 -0.5850
  163SAPE   H7R18225   6.656   6.154   2.974 -1.1838  0.5105 -2.8131
  163SAPE   H7S18226   6.529   6.178   3.088  0.7814 -0.2539 -0.1688
  163SAPE   C2818227   6.687   6.328   3.113  0.3002  0.6117 -0.5130
  163SAPE   H8R18228   6.737   6.409   3.058 -0.6262  0.1354 -2.1484
  163SAPE   C2918229   6.696   6.325   3.249  0.5491 -0.2845 -0.1014
  163SAPE   H9R18230   6.754   6.405   3.297  0.0185 -0.5238  0.9694
  163SAPE  C21018231   6.636   6.231   3.356  0.2481 -0.2339 -0.8581
  163SAPE  H10R18232   6.715   6.179   3.415 -0.8834  0.4235  1.3501
  163SAPE  H10S18233   6.578   6.149   3.309 -2.3050  0.2820  1.1603
  163SAPE  C21118234   6.548   6.313   3.438  0.0418 -0.3593 -0.3775
  163SAPE  H11R18235   6.477   6.368   3.375  0.5704  0.1292 -0.5648
  163SAPE  C21218236   6.545   6.333   3.571  0.7572  0.3270  0.4448
  163SAPE  H12R18237   6.470   6.399   3.617  1.3852  0.4617  1.3039
  163SAPE  C21318238   6.647   6.280   3.674 -0.2713 -0.2715 -0.9533
  163SAPE  H13R18239   6.657   6.364   3.747 -1.5496 -0.2220 -0.8059
  163SAPE  H13S18240   6.748   6.280   3.629 -0.2522  0.4684 -0.9250
  163SAPE  C21418241   6.608   6.143   3.722 -0.2065  0.1182 -0.4833
  163SAPE  H14R18242   6.569   6.074   3.647 -1.6019 -1.4790  1.5929
  163SAPE  C21518243   6.590   6.112   3.852  0.2755  0.3681 -0.4743
  163SAPE  H15R18244   6.555   6.017   3.893 -0.2218  0.5755 -0.4172
  163SAPE  C21618245   6.628   6.193   3.975 -0.2706 -0.0686  0.8496
  163SAPE  H16R18246   6.551   6.270   3.997 -1.7109 -1.4577  0.7691
  163SAPE  H16S18247   6.723   6.248   3.956  1.2033 -2.5546  0.6312
  163SAPE  C21718248   6.654   6.104   4.098  0.3617 -0.3018 -0.1140
  163SAPE  H17R18249   6.569   6.033   4.107 -1.9041  2.4152  2.2173
  163SAPE  H17S18250   6.668   6.166   4.189  1.6968  0.2307 -0.6536
  163SAPE  C21818251   6.775   6.019   4.079  1.0698 -0.0493  0.0232
  163SAPE  H18R18252   6.861   6.084   4.055  1.5138  0.4322  2.5987
  163SAPE  H18S18253   6.764   5.947   3.995  1.7050  0.0912 -0.1833
  163SAPE  C21918254   6.807   5.928   4.207 -0.6496 -0.6190  0.3526
  163SAPE  H19R18255   6.887   5.859   4.171 -0.4240  0.4987 -1.4321
  163SAPE  H19S18256   6.719   5.867   4.235 -0.4785 -1.3932 -0.7167
  163SAPE  C22018257   6.866   6.004   4.326 -0.1292  0.3829  0.1983
  163SAPE  H20R18258   6.814   6.099   4.346  0.3078  1.3454 -2.7405
  163SAPE  H20S18259   6.972   6.036   4.313 -0.6992  2.5176  0.5827
  163SAPE  H20T18260   6.856   5.945   4.419  0.1943 -2.4670 -1.4434
  163SAPE   C3318261   6.854   5.797   3.122  0.6855  0.5770  0.9550
  163SAPE   H3X18262   6.896   5.900   3.119  0.5676  0.6132 -2.0027
  163SAPE   H3Y18263   6.932   5.738   3.174 -0.5937 -1.7978  0.3267
  163SAPE   C3418264   6.728   5.789   3.208  0.2047 -0.4990 -0.6347
  163SAPE   H4X18265   6.686   5.687   3.222  0.2435 -0.3705  0.5087
  163SAPE   H4Y18266   6.644   5.856   3.178  0.7131  0.5974  0.2846
  163SAPE   C3518267   6.749   5.834   3.355 -0.6082 -0.8818 -0.7112
  163SAPE   H5X18268   6.649   5.823   3.402 -1.0506  3.5679 -0.1441
  163SAPE   H5Y18269   6.772   5.941   3.372 -1.5924 -1.0491  2.1099
  163SAPE   C3618270   6.857   5.757   3.444  0.0488 -0.1486  2.1244
  163SAPE   H6X18271   6.961   5.792   3.427  0.6678 -1.3084  3.3146
  163SAPE   H6Y18272   6.845   5.652   3.409 -0.1280  0.7453 -0.7465
  163SAPE   C3718273   6.828   5.768   3.598 -0.6582  0.0585  1.3464
  163SAPE   H7X18274   6.900   5.698   3.645  1.7256  0.1470 -1.8433
  163SAPE   H7Y18275   6.728   5.722   3.615  0.0642 -1.4530  1.6669
  163SAPE   C3818276   6.835   5.908   3.667 -0.0130  0.4292  0.3938
  163SAPE   H8X18277   6.781   5.897   3.763  0.7708  1.3998  0.9683
  163SAPE   H8Y18278   6.784   5.986   3.606  2.1394 -0.4033 -2.7337
  163SAPE   C3918279   6.980   5.953   3.688  0.0228 -0.3401  0.7309
  163SAPE   H9X18280   7.019   5.956   3.584  0.5766  1.4419  0.9490
  163SAPE   H9Y18281   7.039   5.875   3.742  0.7132 -1.1010 -1.0464
  163SAPE  C31018282   6.995   6.084   3.760 -0.4842 -0.2434  1.1665
  163SAPE  H10X18283   6.969   6.078   3.868 -0.9713 -1.6189  0.9858
  163SAPE  H10Y18284   6.914   6.146   3.717 -2.9278 -4.2345 -0.5081
  163SAPE  C31118285   7.132   6.152   3.733 -0.0561 -0.0162 -0.1883
  163SAPE  H11X18286   7.127   6.246   3.791 -0.0535 -0.6356  0.8359
  163SAPE  H11Y18287   7.150   6.188   3.630 -1.8229 -1.0243 -0.9028
  163SAPE  C31218288   7.247   6.067   3.788 -0.1952 -0.0721 -0.6168
  163SAPE  H12X18289   7.239   5.960   3.756 -0.6781 -0.5133  0.8972
  163SAPE  H12Y18290   7.225   6.071   3.897 -2.4744  1.4464 -1.0770
  163SAPE  C31318291   7.387   6.124   3.751 -0.5615  0.1745  0.4690
  163SAPE  H13X18292   7.401   6.133   3.641 -0.4494  2.9203  0.6214
  163SAPE  H13Y18293   7.462   6.052   3.788  0.3314  1.0165  0.3506
  163SAPE  C31418294   7.403   6.254   3.830  0.1938  0.2989  0.5059
  163SAPE  H14X18295   7.311   6.316   3.825  0.8385  1.3342  1.0834
  163SAPE  H14Y18296   7.485   6.313   3.783  1.5030 -1.2707  0.7572
  163SAPE  C31518297   7.429   6.230   3.981  0.3322  0.5313 -0.3534
  163SAPE  H15X18298   7.538   6.210   3.993  0.4081  1.4247  0.6196
  163SAPE  H15Y18299   7.371   6.142   4.016 -0.7533  0.5885 -1.9524
  163SAPE  C31618300   7.403   6.353   4.063  0.4331  0.4125 -0.2485
  163SAPE  H16X18301   7.444   6.442   4.009  1.9069  0.3306  0.6807
  163SAPE  H16Y18302   7.464   6.350   4.156  1.8933  3.2173 -1.0000
  163SAPE  C31718303   7.254   6.381   4.103 -0.3282  1.1497 -0.1220
  163SAPE  H17X18304   7.215   6.306   4.175  3.2692  0.8136  1.6521
  163SAPE  H17Y18305   7.198   6.378   4.007 -1.0692  0.7918  0.3168
  163SAPE  C31818306   7.234   6.517   4.169 -0.0052 -0.2040 -0.1434
  163SAPE  H18X18307   7.125   6.520   4.188 -0.0474 -1.0350 -0.1998
  163SAPE  H18Y18308   7.264   6.586   4.087 -1.8964  0.1672 -0.5677
  163SAPE  H18Z18309   7.300   6.524   4.258 -0.2090  1.8372 -0.1194
  164SAPE     N18310   2.706   6.459   2.455 -0.1457  0.3082  0.6060
  164SAPE   HN118311   2.805   6.429   2.461  0.3109  0.8588 -2.6929
  164SAPE   HN218312   2.699   6.561   2.474 -0.3752  0.1603  1.3458
  164SAPE   HN318313   2.658   6.404   2.530  0.0397 -1.2311 -0.3644
  164SAPE   C1218314   2.671   6.412   2.315  0.2157  0.4285  0.1905
  164SAPE  H12A18315   2.691   6.303   2.312  1.2439  0.6193 -2.2723
  164SAPE  H12B18316   2.742   6.464   2.247  1.8654  0.4199  1.8360
  164SAPE   C1118317   2.524   6.440   2.280 -0.0379  0.4564 -0.3086
  164SAPE  H11A18318   2.505   6.449   2.171 -0.6515  1.1925 -0.1501
  164SAPE  H11B18319   2.502   6.530   2.341  3.5509  0.1180  1.7113
  164SAPE     P18320   2.358   6.245   2.241 -0.0526 -0.1964 -0.0417
  164SAPE   O1318321   2.251   6.337   2.187  0.0166 -0.3198 -0.0042
  164SAPE   O1418322   2.448   6.179   2.147  0.3039 -0.0225  0.3830
  164SAPE   O1218323   2.443   6.332   2.335 -0.0255  0.2438 -0.0052
  164SAPE   O1118324   2.285   6.147   2.341 -0.1242 -0.2911 -0.5462
  164SAPE    C118325   2.248   6.176   2.473  0.5547  0.2435  0.0404
  164SAPE    HA18326   2.229   6.285   2.475  1.9774  0.5345 -1.1239
  164SAPE    HB18327   2.157   6.116   2.496  2.1186 -2.4441 -0.3339
  164SAPE    C218328   2.354   6.119   2.572 -0.2567 -0.7254  0.0528
  164SAPE    HS18329   2.453   6.142   2.526 -1.6575  1.9796 -1.8816
  164SAPE   O2118330   2.337   5.974   2.587 -0.6157  0.3273 -0.8354
  164SAPE   C2118331   2.453   5.917   2.613 -0.4508  0.3592 -0.1075
  164SAPE   O2218332   2.558   5.975   2.635  0.1427  0.5858 -0.2861
  164SAPE   C2218333   2.429   5.767   2.603  0.1423 -0.4920  0.1491
  164SAPE   H2R18334   2.377   5.735   2.695  1.2078 -2.9795 -0.0400
  164SAPE   H2S18335   2.362   5.740   2.519  2.2856 -0.9930 -1.4998
  164SAPE    C318336   2.346   6.196   2.712 -0.1762 -0.5490 -0.0612
  164SAPE    HX18337   2.254   6.166   2.767 -1.5692 -0.1237 -2.0543
  164SAPE    HY18338   2.335   6.302   2.682 -1.5857 -1.0482 -1.4334
  164SAPE   O3118339   2.461   6.186   2.795  0.2822 -0.3465 -0.7086
  164SAPE   C3118340   2.567   6.264   2.769  0.1448 -0.0066  0.4539
  164SAPE   O3218341   2.585   6.327   2.668  0.1250 -0.8572 -0.2623
  164SAPE   C3218342   2.658   6.264   2.890 -0.1144 -0.3194 -0.4799
  164SAPE   H2X18343   2.710   6.166   2.902 -0.5841 -0.3200  2.1446
  164SAPE   H2Y18344   2.587   6.283   2.974  1.0743 -0.5508  0.6151
  164SAPE   C2318345   2.551   5.677   2.593  0.3835 -0.2755 -0.1838
  164SAPE   H3R18346   2.630   5.733   2.537 -0.0605  0.6532  0.0936
  164SAPE   H3S18347   2.514   5.591   2.532 -1.4037 -0.0816  0.5564
  164SAPE   C2418348   2.598   5.625   2.724  0.3594 -0.0413  0.0289
  164SAPE   H4R18349   2.613   5.709   2.795 -0.7252  0.8263 -0.7323
  164SAPE   H4S18350   2.700   5.591   2.694 -0.7380 -1.9344 -1.8258
  164SAPE   C2518351   2.512   5.512   2.769 -0.6170  0.3893 -0.3740
  164SAPE   H5R18352   2.499   5.438   2.689  4.5723 -1.4868  0.1684
  164SAPE   C2618353   2.458   5.504   2.895 -0.3321  0.2214 -0.5070
  164SAPE   H6R18354   2.395   5.415   2.911  0.1704 -0.0344  0.1104
  164SAPE   C2718355   2.467   5.590   3.016 -0.3520 -0.2053 -0.6317
  164SAPE   H7R18356   2.575   5.581   3.041 -0.8948 -0.2410  1.9529
  164SAPE   H7S18357   2.414   5.536   3.098 -0.0305  1.2604  0.5754
  164SAPE   C2818358   2.409   5.730   3.012  0.4016 -0.0280  0.0883
  164SAPE   H8R18359   2.308   5.731   2.969  1.1343  1.6087 -1.7767
  164SAPE   C2918360   2.466   5.841   3.063  0.4345  0.1431  0.6349
  164SAPE   H9R18361   2.405   5.933   3.066 -0.5396 -0.4934  0.7973
  164SAPE  C21018362   2.595   5.845   3.139 -0.0902  0.0613 -0.5008
  164SAPE  H10R18363   2.648   5.748   3.145 -1.3199 -0.5267  2.8159
  164SAPE  H10S18364   2.578   5.875   3.244 -1.6203  0.6734 -0.8888
  164SAPE  C21118365   2.693   5.935   3.079 -0.4315  0.0966  0.8345
  164SAPE  H11R18366   2.693   5.941   2.970 -1.3586 -1.3361  0.7258
  164SAPE  C21218367   2.783   6.014   3.140 -0.3670 -0.0929  0.3317
  164SAPE  H12R18368   2.847   6.078   3.077  0.4252 -0.8314  0.3679
  164SAPE  C21318369   2.800   6.035   3.287 -0.5484  0.2143  0.5814
  164SAPE  H13R18370   2.699   6.072   3.314 -2.2835 -1.6960 -2.6208
  164SAPE  H13S18371   2.874   6.115   3.310  0.3044 -0.8219  1.5999
  164SAPE  C21418372   2.864   5.920   3.355  0.3816 -0.1314  0.0802
  164SAPE  H14R18373   2.917   5.845   3.293  0.3469 -0.3029  0.2559
  164SAPE  C21518374   2.862   5.899   3.492  0.2844  0.2451 -0.3409
  164SAPE  H15R18375   2.908   5.807   3.531  0.4762  0.2371 -0.5866
  164SAPE  C21618376   2.810   5.990   3.600  0.0903  0.0519 -0.3544
  164SAPE  H16R18377   2.703   5.962   3.610 -0.1193  0.3048 -1.6519
  164SAPE  H16S18378   2.819   6.095   3.564  0.3364  0.4582  0.8618
  164SAPE  C21718379   2.882   6.003   3.733 -0.2775 -0.5133 -0.5266
  164SAPE  H17R18380   2.830   6.073   3.802 -0.5746 -1.2546  0.0160
  164SAPE  H17S18381   2.987   6.029   3.708 -1.2314  1.3774 -2.9305
  164SAPE  C21818382   2.901   5.866   3.805 -0.0481 -0.1105  0.3499
  164SAPE  H18R18383   2.966   5.800   3.744 -0.6358  1.0208 -1.5928
  164SAPE  H18S18384   2.800   5.818   3.799  0.4313 -1.1613  0.4467
  164SAPE  C21918385   2.964   5.863   3.945 -0.0568  0.5010 -0.2513
  164SAPE  H19R18386   2.917   5.935   4.015  2.1207  0.3137  1.4814
  164SAPE  H19S18387   3.066   5.906   3.947 -0.1696  0.7704  1.8424
  164SAPE  C22018388   2.956   5.727   3.997 -0.1437  1.2082 -0.3812
  164SAPE  H20R18389   3.021   5.663   3.934 -1.0911  0.0448 -0.2057
  164SAPE  H20S18390   2.851   5.692   3.990 -0.2086  1.4189 -0.4531
  164SAPE  H20T18391   3.001   5.726   4.099  1.6071 -0.3880 -1.1005
  164SAPE   C3318392   2.756   6.383   2.892  0.5306 -0.1798  0.4037
  164SAPE   H3X18393   2.698   6.476   2.912  0.9796  0.2443 -0.2203
  164SAPE   H3Y18394   2.801   6.388   2.791 -0.0386  0.2527  0.1658
  164SAPE   C3418395   2.873   6.383   2.998  0.4611  0.5312  1.1143
  164SAPE   H4X18396   2.942   6.468   2.977 -0.9411  1.9479  2.0357
  164SAPE   H4Y18397   2.923   6.287   2.970  0.2952  0.4531  1.0873
  164SAPE   C3518398   2.821   6.386   3.150  0.2632 -0.1386 -0.1124
  164SAPE   H5X18399   2.749   6.303   3.166 -0.9168  0.9786  0.5259
  164SAPE   H5Y18400   2.765   6.481   3.164 -0.3936 -0.7398  1.4137
  164SAPE   C3618401   2.929   6.379   3.254  0.1448  0.2384  0.1345
  164SAPE   H6X18402   3.006   6.458   3.245 -0.3335  0.5526 -1.4228
  164SAPE   H6Y18403   2.970   6.276   3.256 -3.1031 -1.2289  3.5550
  164SAPE   C3718404   2.877   6.393   3.397  0.7175 -0.8627  0.7346
  164SAPE   H7X18405   2.798   6.317   3.411 -1.5431  0.9442 -1.2238
  164SAPE   H7Y18406   2.841   6.496   3.416  1.0272 -0.1855 -1.8682
  164SAPE   C3818407   2.996   6.368   3.491  0.2421 -0.1932  0.1748
  164SAPE   H8X18408   3.074   6.444   3.470 -0.4241  0.6014  0.4962
  164SAPE   H8Y18409   3.032   6.266   3.469  0.2680 -0.9344  3.1784
  164SAPE   C3918410   2.967   6.370   3.639  0.7273 -0.0241 -0.1445
  164SAPE   H9X18411   2.884   6.300   3.661 -1.3539  1.8443 -1.6313
  164SAPE   H9Y18412   2.917   6.468   3.657 -2.0228 -1.0215 -1.8059
  164SAPE  C31018413   3.086   6.349   3.731  0.1582 -0.1775  0.2314
  164SAPE  H10X18414   3.163   6.426   3.709  2.6827 -2.8709 -1.0133
  164SAPE  H10Y18415   3.130   6.252   3.699  0.2115  0.2236 -0.9781
  164SAPE  C31118416   3.057   6.350   3.881 -0.3671  0.5318  0.2644
  164SAPE  H11X18417   3.151   6.310   3.925  0.0757 -0.6248 -1.6229
  164SAPE  H11Y18418   2.968   6.289   3.904  0.0943 -0.3382 -0.2110
  164SAPE  C31218419   3.025   6.490   3.939  0.5743  0.3973 -0.4235
  164SAPE  H12X18420   2.927   6.522   3.898 -0.5563 -0.1256  1.7042
  164SAPE  H12Y18421   3.094   6.566   3.898  1.3772 -0.4912 -0.7590
  164SAPE  C31318422   3.034   6.502   4.101  0.7463  0.1455  0.2492
  164SAPE  H13X18423   2.948   6.444   4.142  1.1631 -0.3980  0.3664
  164SAPE  H13Y18424   3.009   6.605   4.133 -0.6339  0.2857 -1.1271
  164SAPE  C31418425   3.168   6.461   4.170 -0.0299 -0.4580  0.0554
  164SAPE  H14X18426   3.249   6.499   4.104  1.5637 -2.3106  0.8564
  164SAPE  H14Y18427   3.167   6.350   4.170  0.8218 -0.4844  1.3801
  164SAPE  C31518428   3.183   6.504   4.311 -0.2386  0.3979  0.1388
  164SAPE  H15X18429   3.123   6.439   4.379 -1.6643  1.9666  0.4544
  164SAPE  H15Y18430   3.145   6.608   4.324 -2.2671 -0.1892 -0.7941
  164SAPE  C31618431   3.336   6.502   4.359  0.1554 -0.2071  0.2006
  164SAPE  H16X18432   3.401   6.530   4.273 -0.8504  1.6884 -0.0180
  164SAPE  H16Y18433   3.349   6.394   4.379  1.1399  0.2128  2.0945
  164SAPE  C31718434   3.375   6.585   4.482  0.0750  0.1555 -0.1849
  164SAPE  H17X18435   3.306   6.557   4.565 -1.1984  2.3328 -0.4325
  164SAPE  H17Y18436   3.351   6.693   4.468 -3.5116 -0.4367  0.5615
  164SAPE  C31818437   3.523   6.563   4.519  0.3245  0.0043  0.4411
  164SAPE  H18X18438   3.564   6.644   4.583  0.7599  0.6836 -0.6706
  164SAPE  H18Y18439   3.581   6.553   4.425 -2.3460  1.0486 -1.4595
  164SAPE  H18Z18440   3.532   6.462   4.563  1.0568  0.4692  1.3977
  165SAPE     N18441   3.204   0.452   2.385  0.6029 -0.4734 -0.0743
  165SAPE   HN118442   3.155   0.360   2.389  0.6925 -0.5336 -0.3598
  165SAPE   HN218443   3.278   0.452   2.458 -0.0030  1.1785  0.5879
  165SAPE   HN318444   3.144   0.529   2.421  1.7153  0.1538  0.5158
  165SAPE   C1218445   3.244   0.498   2.244  1.2034 -0.2837 -0.6151
  165SAPE  H12A18446   3.344   0.456   2.221  2.4918  1.5980  1.1969
  165SAPE  H12B18447   3.263   0.607   2.260 -1.2709 -0.1379  2.3653
  165SAPE   C1118448   3.134   0.476   2.139 -0.2360  0.2452  0.0809
  165SAPE  H11A18449   3.140   0.369   2.111  3.8647  0.3599 -0.0716
  165SAPE  H11B18450   3.156   0.530   2.044 -3.7181  0.0561 -0.9958
  165SAPE     P18451   2.966   0.656   2.243 -0.2168 -0.0988 -0.2232
  165SAPE   O1318452   3.029   0.760   2.160  0.0679  0.6078  0.8140
  165SAPE   O1418453   2.818   0.667   2.256 -0.0113  0.4290 -0.3964
  165SAPE   O1218454   3.002   0.517   2.178  0.2138  0.2572 -0.2314
  165SAPE   O1118455   3.039   0.659   2.380  0.2277 -0.4904  0.3252
  165SAPE    C118456   3.091   0.782   2.436  0.7768  0.0319  0.1714
  165SAPE    HA18457   3.186   0.813   2.387  0.4689 -1.5171 -1.5004
  165SAPE    HB18458   3.019   0.865   2.421  2.2944  1.4796  0.5697
  165SAPE    C218459   3.128   0.769   2.586  0.3284 -0.1338  0.6150
  165SAPE    HS18460   3.198   0.685   2.605 -1.4917 -2.0671 -0.7394
  165SAPE   O2118461   3.015   0.765   2.668  0.1542 -0.6214 -0.9761
  165SAPE   C2118462   2.965   0.650   2.694 -0.2761  0.6219 -0.2487
  165SAPE   O2218463   3.000   0.536   2.668 -0.3915 -0.6397  0.5328
  165SAPE   C2218464   2.852   0.668   2.793  0.5699  0.1355  0.4000
  165SAPE   H2R18465   2.890   0.720   2.883  2.3020 -0.7073  0.1981
  165SAPE   H2S18466   2.775   0.731   2.744  0.3885  0.2368  0.8100
  165SAPE    C318467   3.213   0.896   2.626  0.3373  0.2636  0.7271
  165SAPE    HX18468   3.166   0.989   2.588 -0.0886 -0.1520  0.2268
  165SAPE    HY18469   3.308   0.897   2.567  0.4509  0.0923  0.9054
  165SAPE   O3118470   3.241   0.910   2.763  0.3860  0.0587 -0.0996
  165SAPE   C3118471   3.152   0.974   2.840 -0.2514 -0.5176 -0.9651
  165SAPE   O3218472   3.048   1.027   2.804 -0.2408 -0.0892 -0.2929
  165SAPE   C3218473   3.216   0.983   2.977  0.5711  0.2799 -0.1092
  165SAPE   H2X18474   3.327   0.988   2.970  0.5355  1.3214 -0.0263
  165SAPE   H2Y18475   3.195   0.890   3.035  2.7919  0.3636  0.9505
  165SAPE   C2318476   2.792   0.533   2.838  0.4747  0.0151  0.0451
  165SAPE   H3R18477   2.857   0.481   2.912  1.9609  0.8893 -0.6095
  165SAPE   H3S18478   2.772   0.461   2.755  0.3488  0.1570 -0.0477
  165SAPE   C2418479   2.655   0.556   2.910 -0.6093  0.6404 -0.1580
  165SAPE   H4R18480   2.680   0.613   3.002  1.6176 -1.0236  0.3604
  165SAPE   H4S18481   2.632   0.450   2.935  1.8082 -0.3769 -1.7852
  165SAPE   C2518482   2.548   0.621   2.825  0.5810  0.0146  0.1368
  165SAPE   H5R18483   2.497   0.550   2.758 -0.2002 -0.0613  0.7926
  165SAPE   C2618484   2.506   0.748   2.828  0.1667  0.4640 -0.5947
  165SAPE   H6R18485   2.433   0.779   2.752  0.5514 -0.7623 -1.5000
  165SAPE   C2718486   2.561   0.857   2.910  0.6098 -0.4411 -0.1904
  165SAPE   H7R18487   2.648   0.827   2.973  0.2337 -0.2880  0.4069
  165SAPE   H7S18488   2.485   0.874   2.989 -1.6303 -1.6136 -1.9615
  165SAPE   C2818489   2.589   0.982   2.829  0.9970  0.9745 -0.4158
  165SAPE   H8R18490   2.597   0.969   2.720  0.7327  0.4258 -0.3741
  165SAPE   C2918491   2.617   1.099   2.880 -0.3742  0.1294  0.1584
  165SAPE   H9R18492   2.630   1.174   2.801 -1.6607  1.7611  1.4353
  165SAPE  C21018493   2.638   1.141   3.029 -0.5795 -0.1903 -0.3485
  165SAPE  H10R18494   2.669   1.247   3.028 -2.5628  0.4252  0.0096
  165SAPE  H10S18495   2.733   1.088   3.050 -0.0384  0.6960 -0.5384
  165SAPE  C21118496   2.523   1.128   3.125 -0.8340  0.1124  0.5620
  165SAPE  H11R18497   2.428   1.113   3.072 -1.1701 -0.7839  1.3975
  165SAPE  C21218498   2.536   1.164   3.257 -0.2570 -0.2621  0.5393
  165SAPE  H12R18499   2.449   1.134   3.316 -2.0656 -1.0279 -2.3320
  165SAPE  C21318500   2.665   1.216   3.329  0.4291 -0.2842  0.0852
  165SAPE  H13R18501   2.664   1.327   3.337  3.6754 -0.2334  1.4580
  165SAPE  H13S18502   2.752   1.193   3.263  1.5403  2.3236  0.5080
  165SAPE  C21418503   2.682   1.146   3.465 -0.4076 -0.9389 -0.6874
  165SAPE  H14R18504   2.706   1.039   3.458 -0.6789 -0.9340 -1.9712
  165SAPE  C21518505   2.667   1.203   3.588  0.4645 -0.1034 -0.3014
  165SAPE  H15R18506   2.686   1.140   3.676 -0.3802 -2.6361 -1.8238
  165SAPE  C21618507   2.645   1.348   3.621  0.2153  0.1625 -0.1701
  165SAPE  H16R18508   2.535   1.361   3.621  0.1730 -0.0753  0.7559
  165SAPE  H16S18509   2.678   1.422   3.545 -2.9552  1.5253 -0.3639
  165SAPE  C21718510   2.720   1.388   3.753  0.3693  0.4269  0.1279
  165SAPE  H17R18511   2.670   1.328   3.833 -0.0693 -2.5012 -2.1834
  165SAPE  H17S18512   2.693   1.488   3.793  0.2231  0.3597  0.2011
  165SAPE  C21818513   2.872   1.370   3.757 -0.4591 -0.2512 -0.1293
  165SAPE  H18R18514   2.921   1.458   3.710 -1.2575  0.8551  1.0370
  165SAPE  H18S18515   2.913   1.281   3.705 -1.5602 -1.8508  1.6378
  165SAPE  C21918516   2.910   1.360   3.908  0.0227 -0.4729 -0.2675
  165SAPE  H19R18517   3.015   1.323   3.906  0.1673 -0.0148 -1.3765
  165SAPE  H19S18518   2.848   1.292   3.970 -0.3305  0.1628  0.0819
  165SAPE  C22018519   2.917   1.506   3.969  0.1517 -0.2611 -0.4321
  165SAPE  H20R18520   2.943   1.576   3.887  0.0364 -0.3244 -0.5227
  165SAPE  H20S18521   2.998   1.529   4.041  0.2067  0.7155 -0.7896
  165SAPE  H20T18522   2.818   1.523   4.017  0.2110 -2.2202  0.4735
  165SAPE   C3318523   3.179   1.116   3.062 -0.2013 -0.1871 -0.3463
  165SAPE   H3X18524   3.072   1.100   3.089 -0.5090  0.3454 -1.1942
  165SAPE   H3Y18525   3.187   1.198   2.988 -0.2571 -0.2897 -0.4668
  165SAPE   C3418526   3.261   1.154   3.187 -0.0502 -0.1943 -0.8655
  165SAPE   H4X18527   3.224   1.254   3.219  0.9974 -0.3816  1.0022
  165SAPE   H4Y18528   3.365   1.173   3.155 -0.1577 -3.0753 -3.3872
  165SAPE   C3518529   3.258   1.058   3.313  0.0883 -0.0008  0.0879
  165SAPE   H5X18530   3.344   1.097   3.373 -1.6466  1.5604  1.6842
  165SAPE   H5Y18531   3.276   0.957   3.271 -0.4902  1.8423 -5.3854
  165SAPE   C3618532   3.135   1.083   3.401  0.3443  0.2951  0.2860
  165SAPE   H6X18533   3.043   1.060   3.344  0.9159  0.1733 -0.6050
  165SAPE   H6Y18534   3.137   1.190   3.431  0.1397 -0.4441  3.2614
  165SAPE   C3718535   3.141   0.976   3.515  0.5083  0.1082 -0.5668
  165SAPE   H7X18536   3.229   0.983   3.583 -0.3872  0.3331  0.6022
  165SAPE   H7Y18537   3.136   0.875   3.470 -1.5950 -0.8289  1.5316
  165SAPE   C3818538   3.010   0.982   3.607 -0.1777  0.0199 -0.2044
  165SAPE   H8X18539   2.929   0.980   3.530  0.0130  0.3376 -0.4151
  165SAPE   H8Y18540   3.010   1.080   3.659  0.7458  0.4635 -1.0010
  165SAPE   C3918541   2.999   0.880   3.719 -0.4067 -0.0160 -0.3010
  165SAPE   H9X18542   3.090   0.907   3.777 -0.4346 -0.2268 -0.1589
  165SAPE   H9Y18543   3.005   0.777   3.678  1.2906  0.3022 -0.9641
  165SAPE  C31018544   2.871   0.887   3.795  0.3426  0.3021  0.5117
  165SAPE  H10X18545   2.788   0.855   3.729  0.2157 -0.8212  1.1816
  165SAPE  H10Y18546   2.854   0.989   3.834 -2.1716 -0.0930  0.6260
  165SAPE  C31118547   2.864   0.796   3.916 -0.4364 -0.0984 -0.6633
  165SAPE  H11X18548   2.925   0.849   3.992 -0.6965 -0.1099 -0.4459
  165SAPE  H11Y18549   2.923   0.702   3.903  1.6430  0.6418  2.3537
  165SAPE  C31218550   2.727   0.762   3.965 -0.0835 -0.3721 -0.5727
  165SAPE  H12X18551   2.676   0.699   3.888 -0.4627  0.4720 -1.0252
  165SAPE  H12Y18552   2.690   0.861   3.999  1.8331 -0.5223  2.2846
  165SAPE  C31318553   2.723   0.685   4.102  0.4518 -0.1059  0.4731
  165SAPE  H13X18554   2.795   0.731   4.173  0.6397  0.9993 -0.3890
  165SAPE  H13Y18555   2.773   0.587   4.085  2.7333 -0.0761  5.2978
  165SAPE  C31418556   2.582   0.662   4.164 -0.1029 -0.2605 -0.0554
  165SAPE  H14X18557   2.582   0.598   4.255 -0.4219 -0.3417 -0.1117
  165SAPE  H14Y18558   2.525   0.607   4.086  1.0614 -0.4590 -0.7900
  165SAPE  C31518559   2.506   0.794   4.205  0.1157 -0.2636  0.1839
  165SAPE  H15X18560   2.528   0.866   4.123  2.5587 -0.9014  0.1926
  165SAPE  H15Y18561   2.552   0.835   4.297  0.5215 -0.6240  0.1467
  165SAPE  C31618562   2.353   0.770   4.225 -0.1341 -0.0911 -0.0274
  165SAPE  H16X18563   2.308   0.731   4.131  0.8843 -1.2601 -0.0625
  165SAPE  H16Y18564   2.307   0.868   4.250 -0.9215 -0.8073  1.5063
  165SAPE  C31718565   2.325   0.654   4.323 -0.5222  0.2348  0.2524
  165SAPE  H17X18566   2.395   0.676   4.406  0.9004 -2.0698 -0.2531
  165SAPE  H17Y18567   2.366   0.565   4.270  0.5210 -0.1641  1.6719
  165SAPE  C31818568   2.186   0.657   4.381 -0.2496 -0.7870 -0.3766
  165SAPE  H18X18569   2.111   0.641   4.301 -2.6332 -1.8661  1.9488
  165SAPE  H18Y18570   2.172   0.761   4.418  0.0802 -0.4329 -1.2109
  165SAPE  H18Z18571   2.156   0.594   4.467 -0.4802  2.6814  2.2787
  166SAPE     N18572   2.636   0.490   2.306 -0.0391 -0.0469 -0.4101
  166SAPE   HN118573   2.721   0.547   2.286  0.5465 -0.8467 -0.2304
  166SAPE   HN218574   2.637   0.399   2.258  1.3371 -0.4443  0.3177
  166SAPE   HN318575   2.553   0.548   2.284  0.3610  1.4461  1.6363
  166SAPE   C1218576   2.630   0.459   2.454  0.3408 -0.0185  0.3999
  166SAPE  H12A18577   2.526   0.443   2.488  0.4147  2.6127  2.1577
  166SAPE  H12B18578   2.674   0.547   2.506 -1.3380 -0.1008  2.0493
  166SAPE   C1118579   2.695   0.326   2.465 -0.0540  0.0700  0.9089
  166SAPE  H11A18580   2.620   0.259   2.417  0.0177  1.1540 -0.8048
  166SAPE  H11B18581   2.709   0.305   2.573  2.7739 -1.0856  0.4215
  166SAPE     P18582   2.917   0.191   2.403  0.2744 -0.1229  0.0407
  166SAPE   O1318583   2.886   0.123   2.275 -0.2431 -0.2003  0.1112
  166SAPE   O1418584   3.056   0.242   2.423 -0.5281  0.3582 -0.1946
  166SAPE   O1218585   2.827   0.326   2.403  0.1515 -0.2349 -0.9018
  166SAPE   O1118586   2.869   0.105   2.529 -0.7998  0.5297  0.3995
  166SAPE    C118587   2.929   0.138   2.658 -0.8756 -0.5141 -0.0913
  166SAPE    HA18588   3.037   0.116   2.663 -0.3665  1.8506  0.2880
  166SAPE    HB18589   2.926   0.246   2.681 -0.2801 -0.8745  1.8090
  166SAPE    C218590   2.865   0.068   2.775  0.1201  0.6524 -0.6097
  166SAPE    HS18591   2.758   0.077   2.749  0.3988 -1.2172 -2.6272
  166SAPE   O2118592   2.897   0.144   2.895  0.4726 -0.4690  0.7221
  166SAPE   C2118593   2.852   0.099   3.003 -0.5455  0.2495 -0.4444
  166SAPE   O2218594   2.758   0.024   3.015 -0.1065  0.1552  0.9366
  166SAPE   C2218595   2.940   0.142   3.120 -0.2124 -0.2064 -0.6002
  166SAPE   H2R18596   3.042   0.126   3.078  0.7475  1.2384  1.0559
  166SAPE   H2S18597   2.930   0.250   3.141 -0.0509 -0.7827  3.0231
  166SAPE    C318598   2.907  -0.082   2.787 -0.0822  0.3679 -0.2550
  166SAPE    HX18599   2.887  -0.138   2.693 -0.2128 -1.7161  0.9510
  166SAPE    HY18600   2.834  -0.123   2.859 -0.2062 -0.4501 -0.8217
  166SAPE   O3118601   3.046  -0.095   2.832  0.0976 -0.1795  0.4609
  166SAPE   C3118602   3.144  -0.130   2.738 -0.0601  0.1703 -0.0013
  166SAPE   O3218603   3.126  -0.123   2.618  0.4144 -0.3562 -0.2042
  166SAPE   C3218604   3.262  -0.184   2.805 -0.3955  0.0187 -0.1936
  166SAPE   H2X18605   3.351  -0.118   2.793 -0.9573  1.1170  1.3059
  166SAPE   H2Y18606   3.270  -0.282   2.754 -1.0884  0.3460 -0.9383
  166SAPE   C2318607   2.931   0.043   3.242 -0.2769 -0.8911 -0.4491
  166SAPE   H3R18608   3.001   0.088   3.316 -1.4187  0.3133 -0.0741
  166SAPE   H3S18609   2.960  -0.062   3.220  0.4060 -0.9355  0.5972
  166SAPE   C2418610   2.791   0.035   3.301  0.6531  0.1082  0.0591
  166SAPE   H4R18611   2.720  -0.021   3.238  0.4668 -1.4999  1.6109
  166SAPE   H4S18612   2.743   0.134   3.315 -1.5375 -0.7587 -0.9131
  166SAPE   C2518613   2.804  -0.016   3.442 -0.7434 -0.4023 -0.1556
  166SAPE   H5R18614   2.857  -0.111   3.454  2.8836  1.4963  0.0588
  166SAPE   C2618615   2.777   0.051   3.552 -0.4897 -0.7155 -0.1335
  166SAPE   H6R18616   2.794   0.002   3.649  0.4648 -0.1109  0.0135
  166SAPE   C2718617   2.693   0.183   3.567  0.2022  0.8176  0.2671
  166SAPE   H7R18618   2.629   0.174   3.658  1.8921 -3.7787  1.2332
  166SAPE   H7S18619   2.614   0.179   3.489 -0.6762 -0.9485  1.1791
  166SAPE   C2818620   2.773   0.304   3.550 -0.6763 -0.2754 -0.9626
  166SAPE   H8R18621   2.802   0.332   3.448  0.9229 -0.3343 -0.5614
  166SAPE   C2918622   2.829   0.376   3.652  0.1175  0.1086  0.6682
  166SAPE   H9R18623   2.882   0.470   3.629 -1.4574  1.0130  0.5970
  166SAPE  C21018624   2.824   0.346   3.792  1.0972 -0.5652 -0.2034
  166SAPE  H10R18625   2.870   0.436   3.837 -3.4122  0.8455  2.1286
  166SAPE  H10S18626   2.892   0.262   3.819  2.0654  0.7924  1.7669
  166SAPE  C21118627   2.679   0.334   3.841 -0.6021  0.1672  0.1114
  166SAPE  H11R18628   2.604   0.390   3.784  0.2719  0.6160 -0.6187
  166SAPE  C21218629   2.632   0.266   3.948 -0.1599 -0.3928 -0.1729
  166SAPE  H12R18630   2.527   0.264   3.980  0.3855 -0.4344  1.7657
  166SAPE  C21318631   2.730   0.192   4.037 -0.1719  0.2333  0.3581
  166SAPE  H13R18632   2.834   0.230   4.022 -0.6545  0.8769 -1.5826
  166SAPE  H13S18633   2.722   0.085   4.010 -1.8533  0.4090  0.0821
  166SAPE  C21418634   2.689   0.193   4.180  0.2962 -0.6318  0.0536
  166SAPE  H14R18635   2.586   0.225   4.201  1.0709  0.6235  2.2143
  166SAPE  C21518636   2.768   0.145   4.274 -0.0103  0.2804 -0.0030
  166SAPE  H15R18637   2.730   0.144   4.377  2.2275  0.4885  0.8818
  166SAPE  C21618638   2.912   0.094   4.266  0.2890 -0.3708  0.5070
  166SAPE  H16R18639   2.986   0.177   4.257 -0.6539  0.4368  0.0853
  166SAPE  H16S18640   2.926   0.024   4.180 -1.7724 -1.0572  0.6773
  166SAPE  C21718641   2.961   0.024   4.396  0.2645 -0.0067  0.2084
  166SAPE  H17R18642   3.065  -0.016   4.390  0.6150  0.5956  1.7113
  166SAPE  H17S18643   2.896  -0.062   4.423  1.5974 -0.4552  2.3101
  166SAPE  C21818644   2.960   0.124   4.517  0.0958 -0.5249 -1.0421
  166SAPE  H18R18645   2.860   0.171   4.531 -0.1474 -0.1400 -3.5118
  166SAPE  H18S18646   3.032   0.208   4.506 -1.6785  1.1495 -0.4247
  166SAPE  C21918647   3.008   0.043   4.644 -0.3418  0.5634 -0.0112
  166SAPE  H19R18648   3.116   0.017   4.636  0.3817  2.9805  0.7435
  166SAPE  H19S18649   2.944  -0.046   4.659  1.4555 -0.7050  0.4675
  166SAPE  C22018650   2.998   0.124   4.770  0.1666  0.8237 -0.4895
  166SAPE  H20R18651   2.896   0.168   4.766  0.0021  0.6435  1.1365
  166SAPE  H20S18652   3.071   0.208   4.768  0.9835  0.1398 -0.1188
  166SAPE  H20T18653   3.009   0.060   4.859 -0.3457  2.8986  1.1487
  166SAPE   C3318654   3.245  -0.221   2.957  0.1591  0.1959 -0.4100
  166SAPE   H3X18655   3.147  -0.268   2.984  0.9003 -1.2588 -0.1201
  166SAPE   H3Y18656   3.247  -0.125   3.012  1.2096  0.8220 -1.5123
  166SAPE   C3418657   3.353  -0.326   3.004  0.4439 -0.1351 -0.3251
  166SAPE   H4X18658   3.448  -0.269   2.996 -1.3568  3.8429  3.2306
  166SAPE   H4Y18659   3.353  -0.416   2.939  0.2444 -0.4909  0.1605
  166SAPE   C3518660   3.325  -0.382   3.146 -0.5906 -0.3301 -0.4091
  166SAPE   H5X18661   3.375  -0.481   3.159  2.1466  0.8049 -1.4361
  166SAPE   H5Y18662   3.217  -0.405   3.145 -0.2908 -1.8634 -1.5659
  166SAPE   C3618663   3.367  -0.285   3.261  0.5033  0.2422  0.0631
  166SAPE   H6X18664   3.299  -0.198   3.269 -1.2810 -1.1777  0.9065
  166SAPE   H6Y18665   3.472  -0.254   3.238  0.7378 -0.0947  0.6633
  166SAPE   C3718666   3.354  -0.363   3.392  0.0717  0.2074 -0.3316
  166SAPE   H7X18667   3.414  -0.456   3.381 -0.7658 -0.1529 -2.1458
  166SAPE   H7Y18668   3.256  -0.414   3.396  1.2122 -2.0804  0.2319
  166SAPE   C3818669   3.377  -0.294   3.521 -0.4009 -0.5398 -1.3559
  166SAPE   H8X18670   3.279  -0.261   3.562 -0.7231 -1.1358 -1.6369
  166SAPE   H8Y18671   3.430  -0.196   3.514 -1.7836  0.1377 -3.3831
  166SAPE   C3918672   3.445  -0.383   3.625  0.2910 -0.5926 -0.4416
  166SAPE   H9X18673   3.548  -0.391   3.585  0.3770  1.5506 -0.8018
  166SAPE   H9Y18674   3.405  -0.486   3.628  3.0839 -1.8897 -2.9901
  166SAPE  C31018675   3.452  -0.318   3.762 -0.1706 -0.2838 -0.5536
  166SAPE  H10X18676   3.352  -0.311   3.809  1.0097  1.9615  1.8780
  166SAPE  H10Y18677   3.485  -0.212   3.760  0.6981 -0.4774  1.3503
  166SAPE  C31118678   3.540  -0.399   3.862 -0.2624  0.4539  0.5040
  166SAPE  H11X18679   3.557  -0.335   3.951 -2.5253 -0.0889  1.3849
  166SAPE  H11Y18680   3.638  -0.428   3.817 -1.1179 -0.0067 -1.1472
  166SAPE  C31218681   3.471  -0.521   3.922  0.4828  0.4271  0.4650
  166SAPE  H12X18682   3.427  -0.594   3.851 -0.7814  0.1699  1.4862
  166SAPE  H12Y18683   3.384  -0.495   3.987 -0.2523  1.1977 -0.7768
  166SAPE  C31318684   3.573  -0.601   4.014  1.0184  0.1661  0.3650
  166SAPE  H13X18685   3.663  -0.641   3.962 -0.2427  0.9190 -2.6531
  166SAPE  H13Y18686   3.514  -0.688   4.050 -0.5803  0.4298 -1.4581
  166SAPE  C31418687   3.623  -0.526   4.133 -0.2061 -0.5273 -1.2417
  166SAPE  H14X18688   3.535  -0.478   4.181 -0.5612 -1.0289 -1.3744
  166SAPE  H14Y18689   3.685  -0.441   4.098 -0.9661 -0.4775 -2.5069
  166SAPE  C31518690   3.697  -0.614   4.231  0.5581 -0.5315 -0.9965
  166SAPE  H15X18691   3.790  -0.655   4.186  1.3502 -1.4562  1.3369
  166SAPE  H15Y18692   3.635  -0.702   4.259  1.3407 -0.3183  1.6498
  166SAPE  C31618693   3.744  -0.550   4.367  0.4107  0.8037 -0.3519
  166SAPE  H16X18694   3.780  -0.631   4.434 -3.3033  0.6811  1.7286
  166SAPE  H16Y18695   3.648  -0.517   4.413 -0.1221 -0.6960 -0.3451
  166SAPE  C31718696   3.843  -0.432   4.364 -0.0046 -0.1647 -0.1327
  166SAPE  H17X18697   3.785  -0.342   4.335  0.2751 -0.1500 -0.6735
  166SAPE  H17Y18698   3.918  -0.445   4.283  0.6808  0.1133  0.4462
  166SAPE  C31818699   3.913  -0.397   4.494  0.3481 -0.4746  0.3173
  166SAPE  H18X18700   3.838  -0.360   4.568  0.0647  0.0685 -0.2349
  166SAPE  H18Y18701   3.985  -0.317   4.467  1.3344 -1.7107 -0.8881
  166SAPE  H18Z18702   3.968  -0.484   4.535  3.1080  0.4993 -1.1137
  167SAPE     N18703   3.576   4.573   1.758  0.2033  0.2549 -0.1427
  167SAPE   HN118704   3.621   4.563   1.664  0.5678  2.8817 -0.3311
  167SAPE   HN218705   3.521   4.489   1.781  0.9634  0.0287  0.9125
  167SAPE   HN318706   3.507   4.651   1.761 -0.5983 -0.4731  1.4215
  167SAPE   C1218707   3.676   4.587   1.868  0.2034 -0.1667  0.3210
  167SAPE  H12A18708   3.734   4.493   1.883  1.4185  0.4924 -0.0319
  167SAPE  H12B18709   3.622   4.611   1.961  1.7509  2.7894  0.5459
  167SAPE   C1118710   3.775   4.701   1.831 -0.3293  0.1375  0.2431
  167SAPE  H11A18711   3.821   4.719   1.931  1.1436 -1.0509 -0.1871
  167SAPE  H11B18712   3.729   4.793   1.789  2.7838  2.0817  0.7382
  167SAPE     P18713   4.026   4.668   1.757 -0.2552  0.3819 -0.3407
  167SAPE   O1318714   4.094   4.567   1.675 -0.3587 -0.4350  0.1679
  167SAPE   O1418715   4.072   4.803   1.724 -0.0266  0.3963  0.1734
  167SAPE   O1218716   3.873   4.653   1.735  1.0888 -0.3154  0.0964
  167SAPE   O1118717   4.057   4.638   1.907  0.7934  0.6975 -0.3742
  167SAPE    C118718   4.043   4.505   1.957 -0.0643 -0.8133 -0.3865
  167SAPE    HA18719   3.938   4.470   1.942  0.4541 -2.0859 -1.2068
  167SAPE    HB18720   4.114   4.431   1.915  0.0762 -0.9126  0.0128
  167SAPE    C218721   4.085   4.520   2.109  0.1159 -0.2935 -0.4320
  167SAPE    HS18722   4.068   4.423   2.159  0.9540 -0.3698 -0.2853
  167SAPE   O2118723   4.008   4.620   2.179  0.1113  0.0175 -0.4138
  167SAPE   C2118724   3.885   4.590   2.200  0.5583 -0.1539  0.6515
  167SAPE   O2218725   3.829   4.484   2.168 -0.1362  0.3054 -0.1314
  167SAPE   C2218726   3.817   4.706   2.262 -0.3302 -0.3806 -0.1181
  167SAPE   H2R18727   3.888   4.786   2.291 -1.2078  0.4034 -0.0958
  167SAPE   H2S18728   3.748   4.760   2.195  0.6544 -0.6418 -1.3705
  167SAPE    C318729   4.227   4.560   2.110 -1.3019 -0.2685 -0.1885
  167SAPE    HX18730   4.237   4.665   2.073  0.1543  1.0332  3.4323
  167SAPE    HY18731   4.289   4.493   2.047 -0.5671 -0.2242  0.4722
  167SAPE   O3118732   4.284   4.562   2.238  0.6195 -0.0535 -0.4611
  167SAPE   C3118733   4.280   4.675   2.319 -0.3834  0.3051 -0.9241
  167SAPE   O3218734   4.228   4.781   2.294  0.0342  0.5374  0.3633
  167SAPE   C3218735   4.353   4.640   2.448 -0.0095 -0.2678 -0.3555
  167SAPE   H2X18736   4.396   4.538   2.435 -0.3118 -0.4354 -0.0661
  167SAPE   H2Y18737   4.278   4.638   2.530  0.0294  1.6948 -0.2417
  167SAPE   C2318738   3.742   4.653   2.384 -0.0493 -0.0609 -0.4432
  167SAPE   H3R18739   3.678   4.566   2.359 -3.3298  2.2225 -0.6656
  167SAPE   H3S18740   3.672   4.735   2.414  0.4087  0.5603 -1.0295
  167SAPE   C2418741   3.825   4.640   2.508 -0.1306  0.1953 -0.2275
  167SAPE   H4R18742   3.907   4.569   2.483  0.5909  0.9719 -0.1096
  167SAPE   H4S18743   3.763   4.604   2.592 -0.8417  0.9528 -0.4154
  167SAPE   C2518744   3.901   4.767   2.553  0.2259  0.0474  0.2233
  167SAPE   H5R18745   3.970   4.813   2.481 -0.5014  3.1925  1.3602
  167SAPE   C2618746   3.924   4.803   2.676  0.2795 -0.6382 -0.0068
  167SAPE   H6R18747   3.982   4.895   2.692 -1.1862  0.1961  0.7555
  167SAPE   C2718748   3.850   4.752   2.798  0.4632 -0.3647  0.2076
  167SAPE   H7R18749   3.921   4.743   2.884  0.7554 -1.3923 -0.1191
  167SAPE   H7S18750   3.827   4.645   2.780  0.9543 -0.3009 -0.8493
  167SAPE   C2818751   3.723   4.826   2.841 -0.4221  0.1269 -0.0243
  167SAPE   H8R18752   3.684   4.899   2.769 -1.2858 -0.8206 -0.5376
  167SAPE   C2918753   3.650   4.798   2.952 -0.4039  0.1809  0.1682
  167SAPE   H9R18754   3.580   4.878   2.981 -0.8217 -0.6778  1.6513
  167SAPE  C21018755   3.677   4.703   3.065  0.1252  0.6035  0.0047
  167SAPE  H10R18756   3.765   4.733   3.127 -0.0700 -0.0163  0.5947
  167SAPE  H10S18757   3.719   4.608   3.025  1.0070  0.0618  2.0690
  167SAPE  C21118758   3.576   4.658   3.165  0.5701  0.0371 -0.7559
  167SAPE  H11R18759   3.477   4.647   3.119  0.3310 -0.5239 -0.1078
  167SAPE  C21218760   3.592   4.632   3.300  0.3598  0.5118  0.0679
  167SAPE  H12R18761   3.503   4.604   3.359  0.9285 -0.1592  0.6231
  167SAPE  C21318762   3.713   4.625   3.393 -0.1934  0.4858 -0.2625
  167SAPE  H13R18763   3.803   4.676   3.352  0.6598  0.1867  1.1670
  167SAPE  H13S18764   3.746   4.519   3.402 -2.2311 -0.2712 -1.0230
  167SAPE  C21418765   3.689   4.679   3.538 -0.3427 -0.6867  0.8145
  167SAPE  H14R18766   3.591   4.727   3.544 -0.0058  0.3761 -1.2659
  167SAPE  C21518767   3.770   4.638   3.643  0.4370 -0.0013 -0.1388
  167SAPE  H15R18768   3.745   4.675   3.744 -0.7376 -0.2396 -0.3216
  167SAPE  C21618769   3.897   4.561   3.629 -0.2786  0.2181  0.3052
  167SAPE  H16R18770   3.943   4.588   3.532 -0.2677  3.9998  1.1761
  167SAPE  H16S18771   3.896   4.451   3.637  1.7174  0.0615 -0.9583
  167SAPE  C21718772   3.987   4.610   3.742 -0.2326 -0.2197 -0.3923
  167SAPE  H17R18773   3.944   4.598   3.844  2.6813  2.7238  1.4280
  167SAPE  H17S18774   3.998   4.719   3.724  0.4011 -0.4293 -1.3068
  167SAPE  C21818775   4.128   4.543   3.731 -0.7521 -0.4555 -0.3871
  167SAPE  H18R18776   4.146   4.548   3.621 -1.0764  4.2510 -0.4120
  167SAPE  H18S18777   4.134   4.436   3.759  1.0897 -0.3737 -0.3651
  167SAPE  C21918778   4.234   4.627   3.799 -0.3427 -0.4406  0.6685
  167SAPE  H19R18779   4.259   4.715   3.735 -2.1977 -1.0590 -1.0022
  167SAPE  H19S18780   4.323   4.561   3.793 -1.1002 -1.3733 -1.4217
  167SAPE  C22018781   4.202   4.673   3.936 -0.0191  0.5557 -0.3849
  167SAPE  H20R18782   4.299   4.712   3.975  0.9310 -1.3430 -0.6983
  167SAPE  H20S18783   4.164   4.592   4.002  1.1486 -0.2345 -0.6278
  167SAPE  H20T18784   4.126   4.753   3.932  0.2292  0.7508 -2.0164
  167SAPE   C3318785   4.468   4.744   2.470  0.8533 -0.1311 -0.0398
  167SAPE   H3X18786   4.441   4.850   2.451 -0.8570 -0.6718 -0.8150
  167SAPE   H3Y18787   4.552   4.721   2.401  0.7641 -1.8071  0.3659
  167SAPE   C3418788   4.507   4.732   2.611  0.4038 -0.4356 -0.2893
  167SAPE   H4X18789   4.557   4.636   2.637 -0.1657 -0.3103  1.3988
  167SAPE   H4Y18790   4.415   4.747   2.672 -0.2878 -0.6553 -1.2479
  167SAPE   C3518791   4.592   4.841   2.666 -0.2919  0.2658 -0.4583
  167SAPE   H5X18792   4.532   4.935   2.673  1.4595  1.2782  4.0316
  167SAPE   H5Y18793   4.677   4.860   2.597  0.3249  3.1301  0.9671
  167SAPE   C3618794   4.659   4.806   2.799 -0.4075  0.1335 -0.0191
  167SAPE   H6X18795   4.716   4.712   2.784  0.1053  0.2915  0.9245
  167SAPE   H6Y18796   4.582   4.778   2.874  0.2351 -2.4826 -0.2405
  167SAPE   C3718797   4.740   4.914   2.857  0.1346  0.6901 -0.0533
  167SAPE   H7X18798   4.673   5.001   2.875 -1.3750 -0.6129  0.8874
  167SAPE   H7Y18799   4.825   4.954   2.798  0.6999  0.5589  0.6602
  167SAPE   C3818800   4.801   4.873   2.996  0.5228  0.7052 -0.1425
  167SAPE   H8X18801   4.882   4.798   2.986  0.7121  0.9635 -0.6019
  167SAPE   H8Y18802   4.725   4.823   3.059 -0.6429  1.5741 -0.7965
  167SAPE   C3918803   4.874   4.985   3.078  0.1083  0.6372  0.1076
  167SAPE   H9X18804   4.807   5.073   3.088 -2.9849 -1.2622 -1.9451
  167SAPE   H9Y18805   4.962   5.014   3.017  1.6116  1.1380  2.4282
  167SAPE  C31018806   4.911   4.930   3.218  0.4096  0.1875  0.0641
  167SAPE  H10X18807   4.979   4.843   3.224  2.7103  1.9659  0.9411
  167SAPE  H10Y18808   4.813   4.911   3.268 -0.1973 -0.7958 -1.4277
  167SAPE  C31118809   4.989   5.043   3.295  0.8116  0.5937 -0.2321
  167SAPE  H11X18810   4.945   5.138   3.258  0.9871  0.9558  0.4721
  167SAPE  H11Y18811   5.095   5.046   3.263  0.8430  1.4976 -0.0636
  167SAPE  C31218812   4.972   5.029   3.447 -0.1149  0.4045 -0.2195
  167SAPE  H12X18813   5.021   4.934   3.476 -2.1088 -0.5390  0.2089
  167SAPE  H12Y18814   4.867   5.009   3.475 -0.5069 -4.1678 -3.6990
  167SAPE  C31318815   5.034   5.147   3.527 -0.2791  0.2475  0.3751
  167SAPE  H13X18816   4.981   5.244   3.515 -1.8554 -0.7624 -1.3258
  167SAPE  H13Y18817   5.140   5.163   3.498 -0.8985  1.4803 -1.3968
  167SAPE  C31418818   5.043   5.109   3.677  0.6495 -0.2927 -0.4809
  167SAPE  H14X18819   5.094   5.011   3.686  0.7873 -0.0158  3.1969
  167SAPE  H14Y18820   4.946   5.089   3.728  1.2233 -2.8415 -0.2610
  167SAPE  C31518821   5.119   5.209   3.757 -0.2987 -0.3172  0.3388
  167SAPE  H15X18822   5.048   5.295   3.754 -0.0241 -0.0893  0.2982
  167SAPE  H15Y18823   5.207   5.239   3.697 -1.0956 -0.7920 -1.1224
  167SAPE  C31618824   5.147   5.179   3.901 -0.1783 -0.2372 -0.4308
  167SAPE  H16X18825   5.221   5.096   3.912  1.9372  1.5616 -0.4880
  167SAPE  H16Y18826   5.048   5.158   3.946  0.7047 -1.0536  1.2064
  167SAPE  C31718827   5.225   5.302   3.948  0.1248 -0.5729  0.0179
  167SAPE  H17X18828   5.167   5.394   3.928 -1.8497 -1.9534 -0.9656
  167SAPE  H17Y18829   5.312   5.329   3.885 -0.9724  2.8650 -0.2100
  167SAPE  C31818830   5.271   5.303   4.088 -0.5087  0.4004  0.6053
  167SAPE  H18X18831   5.340   5.387   4.110  1.0217 -0.2494 -1.3764
  167SAPE  H18Y18832   5.313   5.202   4.105  1.1708  1.4585  3.3991
  167SAPE  H18Z18833   5.195   5.343   4.159  0.1270  1.0535  0.9380
  168SAPE     N18834   0.762   0.003   2.183 -0.0522  0.2477 -0.2163
  168SAPE   HN118835   0.697   0.076   2.219 -2.3896 -2.2775  1.0174
  168SAPE   HN218836   0.735  -0.016   2.084  2.1533 -2.5532 -0.3967
  168SAPE   HN318837   0.743  -0.089   2.228  0.7426 -0.7209 -1.7591
  168SAPE   C1218838   0.903   0.046   2.170  0.5180 -0.5303  0.4650
  168SAPE  H12A18839   0.920   0.114   2.256  1.2135  1.8600 -1.4489
  168SAPE  H12B18840   0.907   0.106   2.076 -2.1711  0.1249  0.6893
  168SAPE   C1118841   1.004  -0.071   2.180 -0.3237  0.1959  0.2682
  168SAPE  H11A18842   0.988  -0.124   2.276 -2.5891 -0.3999 -0.3619
  168SAPE  H11B18843   1.105  -0.026   2.171 -1.5096  2.8303 -0.8914
  168SAPE     P18844   0.927  -0.309   2.082  0.1554 -0.0007 -0.4108
  168SAPE   O1318845   0.851  -0.345   1.960  0.2607 -0.4009 -0.5369
  168SAPE   O1418846   1.031  -0.401   2.131  0.2608  0.1886  0.6482
  168SAPE   O1218847   0.981  -0.159   2.068 -0.3425  0.3366  0.5449
  168SAPE   O1118848   0.821  -0.290   2.199 -0.2295 -0.6270  0.6350
  168SAPE    C118849   0.832  -0.367   2.316 -0.5129  0.3226 -0.0746
  168SAPE    HA18850   0.817  -0.474   2.288 -0.3032  0.0568  0.7915
  168SAPE    HB18851   0.923  -0.354   2.377 -1.8390 -0.5500  2.2250
  168SAPE    C218852   0.724  -0.327   2.415  0.2647 -0.2106 -0.3953
  168SAPE    HS18853   0.628  -0.326   2.360 -2.2321  1.1789  3.5628
  168SAPE   O2118854   0.744  -0.188   2.461 -0.4486  0.7182 -0.2307
  168SAPE   C2118855   0.637  -0.129   2.515  0.6988 -0.2946 -0.0536
  168SAPE   O2218856   0.522  -0.175   2.524 -0.0085  0.1765 -0.1198
  168SAPE   C2218857   0.676   0.016   2.540 -0.1487  0.0696 -0.9434
  168SAPE   H2R18858   0.778  -0.002   2.579  1.3826  1.1960 -4.1085
  168SAPE   H2S18859   0.678   0.066   2.441 -0.3720 -0.6900 -1.3415
  168SAPE    C318860   0.724  -0.423   2.534  0.6749  0.2484 -0.1169
  168SAPE    HX18861   0.696  -0.524   2.496  0.1235 -0.3713  1.8403
  168SAPE    HY18862   0.639  -0.398   2.601 -2.3189 -0.5559 -3.3327
  168SAPE   O3118863   0.848  -0.428   2.601 -1.1102 -0.4290 -0.1402
  168SAPE   C3118864   0.886  -0.336   2.697  1.0069  0.8425  0.4751
  168SAPE   O3218865   0.815  -0.242   2.724  0.3042  0.1645 -0.1792
  168SAPE   C3218866   1.026  -0.369   2.749  0.2424 -0.9241 -0.5497
  168SAPE   H2X18867   1.063  -0.274   2.794  0.0215 -1.5573  1.0646
  168SAPE   H2Y18868   1.094  -0.398   2.666  0.8073  1.3208 -0.9245
  168SAPE   C2318869   0.610   0.104   2.653  0.4166  0.9105 -0.0316
  168SAPE   H3R18870   0.684   0.181   2.681 -0.0712  2.3304 -2.3665
  168SAPE   H3S18871   0.574   0.030   2.728 -0.1942 -1.7884 -2.7689
  168SAPE   C2418872   0.500   0.195   2.580  0.1215 -0.3507 -0.7201
  168SAPE   H4R18873   0.544   0.247   2.492  1.5603  0.4662  0.4403
  168SAPE   H4S18874   0.462   0.270   2.652  0.8319  0.2838 -0.9934
  168SAPE   C2518875   0.385   0.122   2.521 -0.3317  0.1714 -0.7278
  168SAPE   H5R18876   0.393   0.095   2.415  0.0811 -1.1072 -0.3958
  168SAPE   C2618877   0.279   0.088   2.594  0.3752 -0.2408  0.0388
  168SAPE   H6R18878   0.198   0.038   2.539  0.9033  1.3901 -2.4128
  168SAPE   C2718879   0.256   0.109   2.744 -0.0717 -0.3596  0.5372
  168SAPE   H7R18880   0.349   0.133   2.800  0.3537 -1.6110  0.3845
  168SAPE   H7S18881   0.209   0.020   2.790  0.9678 -1.3645 -0.2984
  168SAPE   C2818882   0.151   0.214   2.778  0.3819  0.5689 -0.3824
  168SAPE   H8R18883   0.087   0.253   2.697 -3.8668 -1.2689  1.7638
  168SAPE   C2918884   0.134   0.284   2.893 -0.4760 -0.0051 -0.2847
  168SAPE   H9R18885   0.053   0.358   2.890 -1.0836 -0.5447  1.6978
  168SAPE  C21018886   0.201   0.273   3.020  0.1190 -0.3758 -0.5520
  168SAPE  H10R18887   0.249   0.173   3.032 -0.6117 -0.5384  1.4533
  168SAPE  H10S18888   0.115   0.276   3.091  1.0303 -1.1834  0.6302
  168SAPE  C21118889   0.295   0.379   3.070 -0.2748  0.8824 -0.2462
  168SAPE  H11R18890   0.389   0.379   3.012  1.2648 -0.3861  2.1280
  168SAPE  C21218891   0.272   0.477   3.156  0.3773 -0.2850 -0.2361
  168SAPE  H12R18892   0.358   0.530   3.197  0.7106 -0.8773 -0.1549
  168SAPE  C21318893   0.142   0.496   3.237  0.4052  0.0614 -0.5529
  168SAPE  H13R18894   0.084   0.401   3.246  0.2236  0.2241  0.0305
  168SAPE  H13S18895   0.078   0.561   3.173  1.3672 -0.5450 -2.1794
  168SAPE  C21418896   0.156   0.558   3.374 -0.3024 -0.3891  0.2736
  168SAPE  H14R18897   0.210   0.654   3.375  0.5053 -0.8253  1.5408
  168SAPE  C21518898   0.115   0.518   3.498  0.5528  0.6833 -1.2602
  168SAPE  H15R18899   0.136   0.582   3.584  1.5277 -2.0299  0.6354
  168SAPE  C21618900   0.040   0.386   3.520 -0.4287  0.0863  0.3970
  168SAPE  H16R18901   0.110   0.301   3.505  0.0301  0.7466 -1.5298
  168SAPE  H16S18902  -0.037   0.371   3.440 -1.8808  1.3236  1.4965
  168SAPE  C21718903  -0.018   0.365   3.661 -0.7066 -0.0462 -0.2259
  168SAPE  H17R18904  -0.074   0.269   3.662 -0.5119 -0.1613 -0.2175
  168SAPE  H17S18905  -0.085   0.449   3.687 -1.0971 -0.4151 -0.0219
  168SAPE  C21818906   0.094   0.358   3.772  0.1454 -0.5046  0.5420
  168SAPE  H18R18907   0.157   0.448   3.785  0.2862 -0.7672  1.8775
  168SAPE  H18S18908   0.164   0.277   3.740  0.2884  0.9574 -3.3686
  168SAPE  C21918909   0.024   0.330   3.907  0.5728 -0.1558 -0.3726
  168SAPE  H19R18910  -0.041   0.242   3.887 -0.5599  1.1640 -2.9966
  168SAPE  H19S18911  -0.046   0.415   3.924 -1.7237 -1.8276 -0.8643
  168SAPE  C22018912   0.113   0.307   4.021 -0.7260 -0.7687 -0.7878
  168SAPE  H20R18913   0.155   0.408   4.037 -5.4623  1.0325  2.3926
  168SAPE  H20S18914   0.194   0.231   4.010 -0.8670 -1.0975  0.2830
  168SAPE  H20T18915   0.064   0.299   4.120 -0.5505  1.2743 -0.4954
  168SAPE   C3318916   1.026  -0.480   2.857  0.1254 -0.0466 -0.1589
  168SAPE   H3X18917   1.000  -0.580   2.815 -1.8900  0.0573  0.7329
  168SAPE   H3Y18918   0.956  -0.463   2.941  1.4649 -1.7808  1.3775
  168SAPE   C3418919   1.163  -0.512   2.913  0.1385  0.0877  0.1874
  168SAPE   H4X18920   1.196  -0.419   2.964 -0.3699  0.2860  0.1658
  168SAPE   H4Y18921   1.223  -0.527   2.820 -1.6231 -2.2732 -0.6446
  168SAPE   C3518922   1.158  -0.629   3.012 -1.0913  0.2231 -0.9872
  168SAPE   H5X18923   1.146  -0.722   2.953  1.6375  0.3813 -1.9031
  168SAPE   H5Y18924   1.077  -0.626   3.088 -1.8757  1.0266 -1.8204
  168SAPE   C3618925   1.295  -0.634   3.083 -0.1354  0.4472  0.2567
  168SAPE   H6X18926   1.314  -0.535   3.132  0.2444  1.5562 -1.9901
  168SAPE   H6Y18927   1.377  -0.644   3.008 -1.9719 -3.0265 -1.5076
  168SAPE   C3718928   1.304  -0.732   3.195  0.0936 -0.1595  0.4801
  168SAPE   H7X18929   1.367  -0.820   3.171  1.8933  1.9816 -3.7570
  168SAPE   H7Y18930   1.200  -0.761   3.219 -0.0248  0.2264  0.4490
  168SAPE   C3818931   1.372  -0.679   3.319  0.7985  1.4630 -0.9564
  168SAPE   H8X18932   1.294  -0.619   3.371  0.2074  0.1331 -0.2490
  168SAPE   H8Y18933   1.470  -0.632   3.294  1.9845  0.3042  1.2140
  168SAPE   C3918934   1.403  -0.793   3.424  0.5650  0.5213  0.4581
  168SAPE   H9X18935   1.462  -0.875   3.378  0.8294  0.2542  1.2426
  168SAPE   H9Y18936   1.303  -0.833   3.453  0.0774  0.5350 -1.1425
  168SAPE  C31018937   1.462  -0.731   3.545 -0.4350 -0.0709 -0.5242
  168SAPE  H10X18938   1.410  -0.638   3.577 -0.0396  1.1981 -3.2952
  168SAPE  H10Y18939   1.566  -0.696   3.526 -0.0724  1.7649  3.7333
  168SAPE  C31118940   1.487  -0.834   3.661  0.7671 -0.2798 -0.1395
  168SAPE  H11X18941   1.596  -0.838   3.681  0.7352  1.6158  0.6651
  168SAPE  H11Y18942   1.448  -0.926   3.614 -2.8759  0.2927  1.4012
  168SAPE  C31218943   1.426  -0.790   3.794  0.1244 -0.9540  0.1293
  168SAPE  H12X18944   1.339  -0.722   3.782  1.0552  0.6826  1.9878
  168SAPE  H12Y18945   1.499  -0.730   3.854 -0.3989  1.1246 -1.2032
  168SAPE  C31318946   1.376  -0.905   3.884  0.9554 -0.2147 -0.1380
  168SAPE  H13X18947   1.456  -0.942   3.951  0.4898  0.9230  1.0936
  168SAPE  H13Y18948   1.331  -0.988   3.825  1.6643  0.3800 -1.5698
  168SAPE  C31418949   1.280  -0.848   3.989  0.1132  0.0404 -0.6197
  168SAPE  H14X18950   1.182  -0.851   3.938  1.0359  0.6740 -2.5052
  168SAPE  H14Y18951   1.317  -0.745   4.006  1.2220 -0.3266 -0.7330
  168SAPE  C31518952   1.280  -0.941   4.119 -0.4271 -0.8676  0.4030
  168SAPE  H15X18953   1.201  -0.909   4.190 -0.6745 -0.1892 -0.1565
  168SAPE  H15Y18954   1.371  -0.919   4.178  0.5553 -3.0424 -0.2426
  168SAPE  C31618955   1.286  -1.089   4.099  0.7133 -0.1890 -0.2101
  168SAPE  H16X18956   1.394  -1.116   4.091  0.6247 -1.1873  1.4721
  168SAPE  H16Y18957   1.249  -1.113   3.997 -0.6819 -0.0940  0.2593
  168SAPE  C31718958   1.217  -1.176   4.208  0.2875  0.9209  0.1772
  168SAPE  H17X18959   1.111  -1.148   4.196  0.5862  1.2747 -2.0438
  168SAPE  H17Y18960   1.238  -1.154   4.315 -0.5094 -0.9694  0.7607
  168SAPE  C31818961   1.241  -1.327   4.196  0.1732 -0.1727 -0.3987
  168SAPE  H18X18962   1.187  -1.383   4.276  0.8942  0.8509  0.8643
  168SAPE  H18Y18963   1.345  -1.355   4.224 -0.5844 -0.6403  2.3193
  168SAPE  H18Z18964   1.211  -1.361   4.095 -0.4087 -2.0755  0.3756
  169SAPE     N18965   4.034   3.737   2.246  0.2892  0.0942  0.0505
  169SAPE   HN118966   4.086   3.679   2.315  0.7047  1.9229  1.3434
  169SAPE   HN218967   4.059   3.835   2.268 -0.4073 -0.0141  1.5075
  169SAPE   HN318968   3.932   3.724   2.267  0.7076 -0.4738  1.9524
  169SAPE   C1218969   4.061   3.696   2.104 -0.4393  0.2762  0.0242
  169SAPE  H12A18970   4.023   3.780   2.042  0.6044  0.3400 -0.5465
  169SAPE  H12B18971   4.004   3.604   2.080  3.4036 -2.1316 -0.7323
  169SAPE   C1118972   4.209   3.683   2.083 -0.9823 -0.7689 -0.2205
  169SAPE  H11A18973   4.223   3.630   1.986  1.9854  1.0793 -0.9437
  169SAPE  H11B18974   4.248   3.619   2.165 -0.0994  0.9809  0.7696
  169SAPE     P18975   4.317   3.874   1.947  0.2090 -0.2637  0.4016
  169SAPE   O1318976   4.448   3.815   1.900  0.3203  0.1515 -0.2418
  169SAPE   O1418977   4.202   3.873   1.854 -0.1219 -0.2379  0.6701
  169SAPE   O1218978   4.276   3.811   2.079 -0.0680 -0.0969  0.3169
  169SAPE   O1118979   4.339   4.021   1.993 -0.8996 -0.0522 -0.4925
  169SAPE    C118980   4.254   4.094   2.082  0.0404  0.0393  0.0090
  169SAPE    HA18981   4.253   4.201   2.050 -0.0631  0.5617  1.6576
  169SAPE    HB18982   4.149   4.057   2.076 -0.0983  0.6183 -2.2474
  169SAPE    C218983   4.304   4.083   2.229 -0.5941  0.0802 -0.1134
  169SAPE    HS18984   4.304   3.976   2.261  1.2885 -0.1581 -0.7828
  169SAPE   O2118985   4.218   4.163   2.318 -0.6056 -0.5437 -0.0411
  169SAPE   C2118986   4.123   4.098   2.382 -0.2160 -0.3205  0.1780
  169SAPE   O2218987   4.089   3.983   2.362 -0.3983 -0.2741  1.0399
  169SAPE   C2218988   4.040   4.200   2.464  0.0224 -0.2323 -0.0690
  169SAPE   H2R18989   3.992   4.266   2.389  1.5496  0.2508 -0.6513
  169SAPE   H2S18990   3.957   4.149   2.518 -0.0251  0.5314  0.5948
  169SAPE    C318991   4.458   4.128   2.242  0.7419  0.0012 -0.2920
  169SAPE    HX18992   4.480   4.235   2.221  0.3952  0.1969  0.3462
  169SAPE    HY18993   4.513   4.079   2.159  0.7339  0.0105 -0.3029
  169SAPE   O3118994   4.500   4.072   2.367 -0.5345  0.1523 -0.3725
  169SAPE   C3118995   4.509   4.158   2.466  0.3064 -0.2524  0.1592
  169SAPE   O3218996   4.473   4.273   2.460  0.2204 -0.1229  0.2341
  169SAPE   C3218997   4.575   4.090   2.586 -0.4689  0.3238  0.0181
  169SAPE   H2X18998   4.648   4.020   2.539 -1.0014  0.6842 -1.4276
  169SAPE   H2Y18999   4.497   4.036   2.643 -1.5375  2.5672  0.7952
  169SAPE   C2319000   4.111   4.295   2.565  0.2355 -0.0848 -0.4396
  169SAPE   H3R19001   4.155   4.378   2.506  0.6916 -0.2384 -0.3218
  169SAPE   H3S19002   4.198   4.242   2.609 -1.4508 -2.1704  0.5444
  169SAPE   C2419003   4.018   4.344   2.682 -0.1721 -0.2448  0.4066
  169SAPE   H4R19004   3.998   4.265   2.757  2.1113 -0.3421  0.9791
  169SAPE   H4S19005   3.917   4.379   2.652 -0.6152 -0.3704  1.7049
  169SAPE   C2519006   4.096   4.456   2.740 -0.4480  0.3916 -0.3788
  169SAPE   H5R19007   4.127   4.525   2.661  1.1343  1.1018  0.7921
  169SAPE   C2619008   4.154   4.459   2.865 -0.1864 -0.3667  0.1258
  169SAPE   H6R19009   4.217   4.547   2.888 -1.9312  0.9909 -0.0624
  169SAPE   C2719010   4.132   4.357   2.979 -0.0050  0.1829  0.4540
  169SAPE   H7R19011   4.225   4.323   3.029  0.0050 -1.0641 -0.3863
  169SAPE   H7S19012   4.092   4.263   2.936  1.1891 -0.1010 -0.0484
  169SAPE   C2819013   4.033   4.426   3.075  0.3043  0.5376 -0.3703
  169SAPE   H8R19014   3.955   4.488   3.027  0.8025  2.6807  1.4092
  169SAPE   C2919015   4.017   4.391   3.207  0.1865 -0.9490  0.4050
  169SAPE   H9R19016   3.939   4.451   3.257 -1.3523 -0.4157 -2.4478
  169SAPE  C21019017   4.102   4.310   3.299  0.0415  0.1394  0.3772
  169SAPE  H10R19018   4.134   4.383   3.376 -1.5825  2.0258 -0.6390
  169SAPE  H10S19019   4.189   4.267   3.246 -0.2411  0.0829 -0.0458
  169SAPE  C21119020   4.031   4.195   3.358 -0.3721  0.2253  0.9782
  169SAPE  H11R19021   3.945   4.147   3.309  0.1519  1.0452 -0.8295
  169SAPE  C21219022   4.057   4.144   3.477 -0.4144  0.8188 -0.3501
  169SAPE  H12R19023   4.013   4.047   3.506  0.9444  0.0719 -0.6753
  169SAPE  C21319024   4.160   4.176   3.580  0.2418  0.3875 -0.2499
  169SAPE  H13R19025   4.113   4.207   3.676 -0.2508 -2.4476  0.5086
  169SAPE  H13S19026   4.207   4.272   3.548 -0.7699  0.3790 -1.8871
  169SAPE  C21419027   4.267   4.070   3.606 -0.6607 -0.0991  0.2624
  169SAPE  H14R19028   4.297   3.993   3.534  0.4184 -1.2154  1.8167
  169SAPE  C21519029   4.346   4.063   3.720  0.6581  0.1114  0.3190
  169SAPE  H15R19030   4.423   3.985   3.715  1.8191  1.2921 -0.9266
  169SAPE  C21619031   4.340   4.152   3.846 -0.2161  0.2206  0.5104
  169SAPE  H16R19032   4.320   4.259   3.827 -0.0584  0.8277  3.2314
  169SAPE  H16S19033   4.443   4.159   3.889 -0.7259 -1.0728  2.0789
  169SAPE  C21719034   4.233   4.102   3.948 -0.7664 -0.3047 -0.8296
  169SAPE  H17R19035   4.136   4.109   3.894 -0.7173  1.0298 -0.7751
  169SAPE  H17S19036   4.229   4.167   4.038  2.8312 -0.1758 -0.6117
  169SAPE  C21819037   4.253   3.956   3.996 -0.1258  0.5756  0.5514
  169SAPE  H18R19038   4.332   3.950   4.073 -0.3016  0.1796  0.6986
  169SAPE  H18S19039   4.278   3.898   3.904  0.3918  4.0818 -1.7390
  169SAPE  C21919040   4.117   3.899   4.056  0.2208  0.0162 -0.5222
  169SAPE  H19R19041   4.047   3.880   3.973 -0.1407  0.1563 -0.2520
  169SAPE  H19S19042   4.073   3.973   4.126  1.1667 -0.2969  0.4295
  169SAPE  C22019043   4.143   3.759   4.123 -0.1164 -0.3643 -0.4368
  169SAPE  H20R19044   4.043   3.717   4.144  0.2204 -0.5842  0.7695
  169SAPE  H20S19045   4.180   3.785   4.224  0.2120  1.2135 -0.9209
  169SAPE  H20T19046   4.208   3.687   4.068  1.1463  0.6236 -0.2929
  169SAPE   C3319047   4.652   4.172   2.691  0.0935  0.4904 -0.5027
  169SAPE   H3X19048   4.733   4.231   2.644  1.5657 -0.5709  0.6233
  169SAPE   H3Y19049   4.700   4.107   2.767 -1.0002 -0.4201 -0.5479
  169SAPE   C3419050   4.550   4.262   2.771 -0.1989  0.1698 -0.9922
  169SAPE   H4X19051   4.468   4.196   2.807  1.3703 -1.1038  0.3955
  169SAPE   H4Y19052   4.507   4.334   2.697  1.7708  0.2937 -2.0832
  169SAPE   C3519053   4.623   4.323   2.891  0.0127 -0.4978  0.3849
  169SAPE   H5X19054   4.651   4.251   2.971  0.7795 -2.8395 -1.8289
  169SAPE   H5Y19055   4.552   4.396   2.934  0.8618  1.0650 -0.7417
  169SAPE   C3619056   4.744   4.403   2.856  0.0048  0.1115  0.2095
  169SAPE   H6X19057   4.715   4.465   2.768 -0.4828  2.2264  1.7627
  169SAPE   H6Y19058   4.825   4.332   2.832  0.9155  1.4713 -0.9359
  169SAPE   C3719059   4.784   4.505   2.962  0.1684 -0.2292 -0.2812
  169SAPE   H7X19060   4.700   4.578   2.964  0.7966  0.5280 -0.6482
  169SAPE   H7Y19061   4.879   4.554   2.930  0.8010 -0.1240  1.5936
  169SAPE   C3819062   4.786   4.455   3.102  0.2279  0.1448  0.3264
  169SAPE   H8X19063   4.843   4.360   3.100 -0.1198 -0.0671 -1.7712
  169SAPE   H8Y19064   4.679   4.440   3.129  0.7621 -1.4412  1.7270
  169SAPE   C3919065   4.863   4.552   3.204 -0.1936 -1.1199  0.4905
  169SAPE   H9X19066   4.813   4.651   3.195 -1.5380 -1.8334 -0.3220
  169SAPE   H9Y19067   4.968   4.560   3.168 -0.5167 -0.2702 -0.3139
  169SAPE  C31019068   4.851   4.505   3.353  0.1534 -0.1565 -0.3969
  169SAPE  H10X19069   4.873   4.398   3.372  2.1550 -0.1356 -2.1933
  169SAPE  H10Y19070   4.743   4.511   3.377  0.2570  1.6130 -0.2450
  169SAPE  C31119071   4.945   4.582   3.441  0.2181 -0.0135 -0.2942
  169SAPE  H11X19072   4.946   4.690   3.413  1.6793 -0.1013 -0.6262
  169SAPE  H11Y19073   5.049   4.548   3.424  0.5807  0.7719  0.2403
  169SAPE  C31219074   4.908   4.573   3.590  0.0011 -0.1147 -0.4012
  169SAPE  H12X19075   4.814   4.630   3.599 -0.0063 -0.4487  3.0718
  169SAPE  H12Y19076   4.979   4.627   3.658 -1.2350 -0.3535  1.1295
  169SAPE  C31319077   4.864   4.430   3.634  0.4729  0.2204  0.3462
  169SAPE  H13X19078   4.957   4.379   3.600 -0.4997  0.3461 -2.7941
  169SAPE  H13Y19079   4.778   4.389   3.578  1.0727  0.9460 -1.1539
  169SAPE  C31419080   4.850   4.417   3.792  0.4470  0.1199 -0.0063
  169SAPE  H14X19081   4.945   4.450   3.840  2.3695 -0.8448 -2.9038
  169SAPE  H14Y19082   4.826   4.310   3.807  0.2654  0.0564 -0.7383
  169SAPE  C31519083   4.733   4.498   3.841  0.6625 -0.2970 -0.2089
  169SAPE  H15X19084   4.659   4.493   3.758  1.2240  0.4839 -0.7777
  169SAPE  H15Y19085   4.758   4.605   3.860 -1.9900 -0.0890  2.8286
  169SAPE  C31619086   4.681   4.459   3.978 -0.0505 -0.5003 -0.2126
  169SAPE  H16X19087   4.764   4.493   4.044 -1.2844  3.7969 -0.5414
  169SAPE  H16Y19088   4.672   4.349   3.990 -0.0866 -0.5037 -0.2728
  169SAPE  C31719089   4.551   4.524   4.034  0.1645  0.2183  0.2597
  169SAPE  H17X19090   4.469   4.496   3.964  0.3306 -0.0552  0.1744
  169SAPE  H17Y19091   4.553   4.635   4.035 -0.5805  0.2425  0.0622
  169SAPE  C31819092   4.505   4.487   4.181  0.0467 -0.2845  0.4882
  169SAPE  H18X19093   4.538   4.385   4.210 -0.6669 -0.0233  2.3655
  169SAPE  H18Y19094   4.396   4.509   4.187 -0.1471 -1.2090  0.4441
  169SAPE  H18Z19095   4.541   4.564   4.253 -3.0885 -1.3770  3.4824
  170SAPE     N19096   4.891   0.376   1.625 -0.1016 -0.0731  0.6505
  170SAPE   HN119097   4.849   0.432   1.702  1.2092  0.8975  0.6859
  170SAPE   HN219098   4.850   0.421   1.540 -1.4117  1.7138  2.1646
  170SAPE   HN319099   4.849   0.282   1.640 -0.6741  0.2627  1.2056
  170SAPE   C1219100   5.038   0.386   1.631  0.6081  0.5433 -0.4767
  170SAPE  H12A19101   5.059   0.491   1.602 -0.6688  0.8823 -0.2616
  170SAPE  H12B19102   5.078   0.320   1.552 -0.2361 -1.4128  0.6571
  170SAPE   C1119103   5.092   0.349   1.771 -0.5483  0.3141 -1.2246
  170SAPE  H11A19104   5.052   0.412   1.854  2.1209  1.1605 -0.4382
  170SAPE  H11B19105   5.201   0.371   1.770 -0.7149  1.2433 -0.5324
  170SAPE     P19106   5.154   0.093   1.775  0.1816  0.4202  0.3628
  170SAPE   O1319107   5.087   0.012   1.677  0.1792 -0.3655  0.3841
  170SAPE   O1419108   5.289   0.143   1.737  0.6290  0.0615  0.0798
  170SAPE   O1219109   5.057   0.217   1.804  0.8567 -0.4825 -0.0160
  170SAPE   O1119110   5.182   0.005   1.899 -0.3088  0.0943  0.0556
  170SAPE    C119111   5.222   0.063   2.019 -1.1137  0.3001 -0.0650
  170SAPE    HA19112   5.331   0.047   2.029 -1.5321 -2.4285  1.0162
  170SAPE    HB19113   5.198   0.171   2.023 -0.1169  0.5494 -0.5345
  170SAPE    C219114   5.153  -0.002   2.141 -0.2744 -0.8403 -0.4889
  170SAPE    HS19115   5.197   0.041   2.233 -1.7976  0.2150 -0.1947
  170SAPE   O2119116   5.161  -0.146   2.146  0.1777  0.0344 -0.7042
  170SAPE   C2119117   5.287  -0.192   2.157  0.1013  0.0181 -0.4901
  170SAPE   O2219118   5.382  -0.127   2.205 -0.2910 -1.0366  0.6641
  170SAPE   C2219119   5.301  -0.326   2.086  1.0195 -0.3464 -0.8485
  170SAPE   H2R19120   5.205  -0.381   2.072 -0.5110  2.0804 -0.4252
  170SAPE   H2S19121   5.349  -0.310   1.987  1.7533  1.8505 -0.1962
  170SAPE    C319122   4.994   0.038   2.136 -0.2671  0.2274  0.2120
  170SAPE    HX19123   4.944   0.036   2.037  0.1058 -1.6192  0.0172
  170SAPE    HY19124   4.988   0.145   2.167 -2.5023  0.0531  0.5795
  170SAPE   O3119125   4.923  -0.040   2.229 -0.1946  0.3019  0.0501
  170SAPE   C3119126   4.944  -0.012   2.354  0.1702 -0.2920 -0.3415
  170SAPE   O3219127   5.008   0.084   2.401  0.4517 -0.2122  0.1122
  170SAPE   C3219128   4.873  -0.113   2.442 -0.2690  0.8224 -0.7235
  170SAPE   H2X19129   4.913  -0.216   2.430 -1.1948 -0.0124  2.4659
  170SAPE   H2Y19130   4.765  -0.124   2.415 -0.1875  0.6556 -0.9874
  170SAPE   C2319131   5.401  -0.414   2.159 -0.1900 -0.8727  0.5159
  170SAPE   H3R19132   5.500  -0.363   2.164 -0.7416  0.5837 -1.9997
  170SAPE   H3S19133   5.422  -0.511   2.110 -0.0962  0.1784 -1.6458
  170SAPE   C2419134   5.363  -0.442   2.311 -0.4564 -0.2386  1.0613
  170SAPE   H4R19135   5.362  -0.356   2.382  0.4736 -0.6872  1.6478
  170SAPE   H4S19136   5.453  -0.504   2.332 -0.1497  0.2807  1.3002
  170SAPE   C2519137   5.240  -0.530   2.324  0.1902  0.0058  0.3697
  170SAPE   H5R19138   5.241  -0.619   2.259  1.3539 -0.3992  0.9284
  170SAPE   C2619139   5.150  -0.521   2.428 -0.7917  0.4276 -0.7732
  170SAPE   H6R19140   5.061  -0.585   2.442 -1.0622  0.8559 -0.5242
  170SAPE   C2719141   5.157  -0.436   2.554 -0.0457 -0.6272  0.6211
  170SAPE   H7R19142   5.064  -0.443   2.615 -2.9422  3.9989 -2.5818
  170SAPE   H7S19143   5.163  -0.330   2.520  1.6346 -1.5108 -2.1693
  170SAPE   C2819144   5.274  -0.470   2.644 -0.7298  0.3605  0.3845
  170SAPE   H8R19145   5.325  -0.563   2.615  2.6917  1.3540  2.6600
  170SAPE   C2919146   5.310  -0.415   2.761 -0.2779 -0.8019  0.3972
  170SAPE   H9R19147   5.404  -0.455   2.802  0.4002 -1.5457 -1.7572
  170SAPE  C21019148   5.245  -0.299   2.829 -0.0199 -0.4009 -0.2314
  170SAPE  H10R19149   5.189  -0.230   2.762 -1.2970 -0.2482  0.9459
  170SAPE  H10S19150   5.332  -0.238   2.861 -0.6096  0.2487  0.1610
  170SAPE  C21119151   5.163  -0.336   2.953  0.3763 -0.3824  0.4717
  170SAPE  H11R19152   5.079  -0.405   2.936  0.8913 -0.6997 -0.8797
  170SAPE  C21219153   5.190  -0.319   3.083  0.4621 -0.0644  0.0343
  170SAPE  H12R19154   5.116  -0.368   3.149  0.5726 -0.3466 -0.0514
  170SAPE  C21319155   5.314  -0.264   3.154  0.0781 -0.0737 -0.3050
  170SAPE  H13R19156   5.393  -0.208   3.098  0.0370 -0.7444 -1.0497
  170SAPE  H13S19157   5.375  -0.348   3.193  1.5432  0.0224 -2.2265
  170SAPE  C21419158   5.276  -0.176   3.277  0.1412  0.6579  0.7431
  170SAPE  H14R19159   5.258  -0.072   3.247  0.6471  0.5210 -0.0736
  170SAPE  C21519160   5.291  -0.197   3.409  0.8416  0.4208  0.5297
  170SAPE  H15R19161   5.265  -0.118   3.481  0.4934 -1.3727  2.4601
  170SAPE  C21619162   5.318  -0.338   3.458 -0.0115 -0.0634 -1.2004
  170SAPE  H16R19163   5.413  -0.388   3.427 -1.0197 -2.0804 -1.1945
  170SAPE  H16S19164   5.242  -0.399   3.406 -0.3312  0.1193 -0.9495
  170SAPE  C21719165   5.302  -0.348   3.614  0.9140  0.0903  0.2907
  170SAPE  H17R19166   5.310  -0.458   3.630  0.9608  0.0777  0.1863
  170SAPE  H17S19167   5.199  -0.319   3.642  1.1987  0.1972  1.2629
  170SAPE  C21819168   5.402  -0.266   3.688  0.2844 -0.3873 -0.6615
  170SAPE  H18R19169   5.378  -0.161   3.662  1.8136 -0.4887 -2.7232
  170SAPE  H18S19170   5.510  -0.288   3.671  0.6878  1.1723 -0.3841
  170SAPE  C21919171   5.385  -0.271   3.846  0.1604  0.1211  0.0165
  170SAPE  H19R19172   5.409  -0.374   3.880  1.3882 -0.0042 -1.1551
  170SAPE  H19S19173   5.281  -0.243   3.873  0.9997  0.9637  2.6704
  170SAPE  C22019174   5.475  -0.176   3.924  0.7022 -0.6861 -0.2099
  170SAPE  H20R19175   5.569  -0.234   3.931  1.0921  0.0693  1.2176
  170SAPE  H20S19176   5.444  -0.165   4.030 -1.4240  0.4315 -0.8834
  170SAPE  H20T19177   5.496  -0.074   3.886  2.1068 -0.4391  1.1506
  170SAPE   C3319178   4.883  -0.062   2.588  0.3674  0.3434  0.0316
  170SAPE   H3X19179   4.829   0.032   2.613 -1.3576 -0.2503 -1.2614
  170SAPE   H3Y19180   4.989  -0.059   2.621  0.0714 -0.0848  1.0506
  170SAPE   C3419181   4.826  -0.182   2.670 -0.9556  0.0465 -0.0346
  170SAPE   H4X19182   4.872  -0.279   2.642 -0.2437  1.1165 -3.0411
  170SAPE   H4Y19183   4.717  -0.186   2.647 -0.8097 -0.8311 -0.6305
  170SAPE   C3519184   4.843  -0.153   2.824  0.2966 -0.4036  0.3482
  170SAPE   H5X19185   4.791  -0.063   2.863  1.2627 -0.1962  1.1971
  170SAPE   H5Y19186   4.951  -0.135   2.839  0.8885 -2.7880 -0.6544
  170SAPE   C3619187   4.802  -0.266   2.922  0.4625 -0.0338  0.2297
  170SAPE   H6X19188   4.870  -0.352   2.902  0.2007 -0.4515  1.0869
  170SAPE   H6Y19189   4.693  -0.286   2.921  0.3295  0.6373  0.7413
  170SAPE   C3719190   4.836  -0.227   3.069 -0.3344  0.2912  0.2041
  170SAPE   H7X19191   4.917  -0.152   3.068 -0.3821  0.3364 -0.6437
  170SAPE   H7Y19192   4.867  -0.317   3.127  0.1608  0.4957  0.2608
  170SAPE   C3819193   4.725  -0.168   3.152  0.0645 -0.2586  0.5382
  170SAPE   H8X19194   4.630  -0.220   3.125  0.5219 -1.2962  0.8732
  170SAPE   H8Y19195   4.715  -0.061   3.127  2.0172 -0.5251 -1.7793
  170SAPE   C3919196   4.768  -0.179   3.298 -0.1230 -0.8552 -1.0192
  170SAPE   H9X19197   4.858  -0.118   3.318 -1.5638  0.5720  1.5698
  170SAPE   H9Y19198   4.782  -0.287   3.322  0.5165 -0.0291  3.0855
  170SAPE  C31019199   4.661  -0.133   3.403  0.0659 -0.5740 -0.3064
  170SAPE  H10X19200   4.569  -0.190   3.381 -0.3948  0.4536 -1.1506
  170SAPE  H10Y19201   4.641  -0.024   3.397  1.3821 -0.3565 -1.2308
  170SAPE  C31119202   4.713  -0.165   3.544 -1.2872  0.5989  0.1237
  170SAPE  H11X19203   4.726  -0.273   3.566 -0.4132  1.1960  2.9436
  170SAPE  H11Y19204   4.646  -0.126   3.624 -0.4176  2.4908 -0.0128
  170SAPE  C31219205   4.849  -0.106   3.577 -0.9406 -0.1123  0.3755
  170SAPE  H12X19206   4.861   0.001   3.550  1.2014 -0.2289  0.6766
  170SAPE  H12Y19207   4.921  -0.163   3.514 -0.8093 -0.0551  0.4734
  170SAPE  C31319208   4.879  -0.131   3.728  0.4932  0.1396  0.1880
  170SAPE  H13X19209   4.859  -0.239   3.748  0.5815 -0.4674 -2.5873
  170SAPE  H13Y19210   4.795  -0.078   3.778 -2.4528 -2.8333 -1.2193
  170SAPE  C31419211   5.025  -0.105   3.773 -0.6787  1.2521 -0.6088
  170SAPE  H14X19212   5.055  -0.011   3.720  1.1322  0.9736 -0.1476
  170SAPE  H14Y19213   5.092  -0.189   3.747 -0.6157  1.2620 -0.4754
  170SAPE  C31519214   5.037  -0.060   3.924 -0.9617  0.3029 -0.2144
  170SAPE  H15X19215   5.072  -0.154   3.971 -2.8488 -0.2097  0.2670
  170SAPE  H15Y19216   4.940  -0.023   3.965 -0.1396  1.7678  0.4861
  170SAPE  C31619217   5.139   0.049   3.958  0.1043 -0.5668  0.5667
  170SAPE  H16X19218   5.101   0.145   3.916  2.9658  0.7693  0.7537
  170SAPE  H16Y19219   5.239   0.035   3.911  0.6160 -1.7319  1.9497
  170SAPE  C31719220   5.169   0.072   4.107  0.1385  0.1270  0.5678
  170SAPE  H17X19221   5.227   0.165   4.121 -0.9710  0.9153  0.0611
  170SAPE  H17Y19222   5.226  -0.017   4.143 -1.3561 -1.8326 -1.5839
  170SAPE  C31819223   5.039   0.070   4.195  0.7032  0.4979  0.3150
  170SAPE  H18X19224   4.997  -0.031   4.177  0.2721  0.6353  0.5384
  170SAPE  H18Y19225   4.962   0.139   4.154 -1.8955 -2.2845  0.1805
  170SAPE  H18Z19226   5.076   0.076   4.300  2.1396 -2.1591  0.0610
  171SAPE     N19227   4.235   5.217   1.788 -0.2839 -0.7997  1.0063
  171SAPE   HN119228   4.145   5.257   1.755  1.6540  2.0985 -1.2893
  171SAPE   HN219229   4.222   5.119   1.821  0.8708 -2.0541 -1.9299
  171SAPE   HN319230   4.254   5.276   1.872 -3.0761  0.5302  0.8064
  171SAPE   C1219231   4.337   5.217   1.676 -0.3866 -0.5454 -0.1175
  171SAPE  H12A19232   4.337   5.322   1.638 -1.3345 -0.3800  0.3035
  171SAPE  H12B19233   4.295   5.150   1.598  1.4782  0.0542 -1.7319
  171SAPE   C1119234   4.474   5.166   1.719  0.0331  0.1301 -0.5143
  171SAPE  H11A19235   4.537   5.154   1.629 -0.4456 -1.0822 -0.7027
  171SAPE  H11B19236   4.454   5.067   1.767  0.7502  0.0647 -0.3375
  171SAPE     P19237   4.665   5.333   1.795 -0.5075 -0.4784 -0.0663
  171SAPE   O1319238   4.774   5.226   1.784 -0.0380 -0.0870 -0.3888
  171SAPE   O1419239   4.660   5.427   1.683 -0.0844  0.1757 -0.2356
  171SAPE   O1219240   4.523   5.261   1.814  0.2332 -0.0807  0.3847
  171SAPE   O1119241   4.694   5.405   1.930  0.1531 -0.7697  0.6227
  171SAPE    C119242   4.590   5.448   2.011  0.6830 -0.1591  0.1141
  171SAPE    HA19243   4.499   5.385   2.002  2.2108 -2.3889 -0.6358
  171SAPE    HB19244   4.614   5.425   2.118  0.9075  1.0392  0.3314
  171SAPE    C219245   4.569   5.607   2.024  0.6401  0.3885  0.0067
  171SAPE    HS19246   4.561   5.648   1.922 -0.2566 -0.6112 -0.3499
  171SAPE   O2119247   4.684   5.670   2.088  0.4096 -0.4442 -0.3812
  171SAPE   C2119248   4.709   5.801   2.067 -0.7902 -0.5193  0.5635
  171SAPE   O2219249   4.650   5.870   1.985 -0.1495 -0.0607 -0.3446
  171SAPE   C2219250   4.834   5.828   2.151 -0.2023  1.2459 -0.1538
  171SAPE   H2R19251   4.877   5.730   2.183 -0.2325  1.3553  0.2282
  171SAPE   H2S19252   4.907   5.876   2.083 -0.3946  2.0054  0.1725
  171SAPE    C319253   4.431   5.647   2.087  0.3836  0.3335 -0.3440
  171SAPE    HX19254   4.357   5.604   2.017  0.8317  1.8837 -1.8313
  171SAPE    HY19255   4.419   5.756   2.075  2.4023  0.6829  0.4134
  171SAPE   O3119256   4.425   5.602   2.230 -0.2259  0.1909  0.1325
  171SAPE   C3119257   4.475   5.682   2.321  0.6156 -0.6223 -0.1836
  171SAPE   O3219258   4.506   5.800   2.299 -0.8468  0.2504 -0.5832
  171SAPE   C3219259   4.501   5.625   2.456 -0.0723 -0.1628  0.2323
  171SAPE   H2X19260   4.561   5.532   2.451 -0.7861 -0.5839 -1.0991
  171SAPE   H2Y19261   4.403   5.601   2.503 -0.0131 -0.2273  0.3226
  171SAPE   C2319262   4.815   5.926   2.272 -0.0593 -0.1984  0.0153
  171SAPE   H3R19263   4.746   5.888   2.350 -1.6770  1.7503 -0.3658
  171SAPE   H3S19264   4.779   6.025   2.237  1.6302  1.1966  2.0234
  171SAPE   C2419265   4.952   5.941   2.346  1.0496 -0.1342 -0.8812
  171SAPE   H4R19266   4.943   6.012   2.431  2.0158 -0.2594 -0.6629
  171SAPE   H4S19267   5.029   5.990   2.283  1.7731 -1.0482 -0.7354
  171SAPE   C2519268   5.015   5.814   2.402  0.3177  0.6015  0.4987
  171SAPE   H5R19269   4.998   5.722   2.344  0.5949  1.1822 -0.5328
  171SAPE   C2619270   5.090   5.802   2.519  0.7252  0.0857  0.9600
  171SAPE   H6R19271   5.141   5.707   2.544  0.6749 -0.7496 -1.7881
  171SAPE   C2719272   5.127   5.914   2.613  0.3459 -0.0627 -0.0293
  171SAPE   H7R19273   5.171   6.001   2.558  0.0951  0.5496  0.7175
  171SAPE   H7S19274   5.201   5.871   2.683  2.4155  0.9074 -1.4962
  171SAPE   C2819275   5.012   5.962   2.690  0.5144  0.0958 -0.4295
  171SAPE   H8R19276   4.914   5.971   2.640 -0.8308 -1.5590  1.7362
  171SAPE   C2919277   5.014   5.993   2.822 -0.6548  0.2658  0.6572
  171SAPE   H9R19278   4.916   6.030   2.859 -0.6617  0.0519  0.8564
  171SAPE  C21019279   5.138   6.006   2.912  0.4965  0.6170  0.5114
  171SAPE  H10R19280   5.141   6.112   2.943  1.6230  1.4518 -2.1549
  171SAPE  H10S19281   5.235   6.002   2.858 -0.7454  1.6048 -2.0093
  171SAPE  C21119282   5.133   5.904   3.023  0.4853 -0.8064  0.3384
  171SAPE  H11R19283   5.066   5.819   3.002  0.6090 -0.6461 -0.7913
  171SAPE  C21219284   5.209   5.906   3.131  0.0980 -0.7550  0.1020
  171SAPE  H12R19285   5.183   5.836   3.212  2.6138  0.3047  1.9696
  171SAPE  C21319286   5.319   6.007   3.172  0.1377 -0.3156  0.0779
  171SAPE  H13R19287   5.352   6.066   3.084 -0.9864  0.1516 -0.0563
  171SAPE  H13S19288   5.415   5.961   3.205  0.2553  0.5882  1.0854
  171SAPE  C21419289   5.253   6.097   3.280 -0.4826 -0.3490 -0.8256
  171SAPE  H14R19290   5.188   6.180   3.247  1.9062  2.2214  0.4348
  171SAPE  C21519291   5.266   6.077   3.417 -0.7861 -0.1587  0.1131
  171SAPE  H15R19292   5.222   6.154   3.482 -0.0477  0.6985 -0.3743
  171SAPE  C21619293   5.354   5.984   3.502 -0.0963 -0.2139  0.6081
  171SAPE  H16R19294   5.450   5.959   3.452 -1.0151 -1.5382 -0.5615
  171SAPE  H16S19295   5.307   5.887   3.529  2.5533 -1.0290  2.6623
  171SAPE  C21719296   5.391   6.053   3.637 -0.7674 -0.0556 -0.1718
  171SAPE  H17R19297   5.290   6.060   3.683 -1.0849  2.0409 -1.0519
  171SAPE  H17S19298   5.435   6.155   3.639  1.5308 -1.0011  1.5525
  171SAPE  C21819299   5.487   5.977   3.721 -0.2925  0.3533  0.0274
  171SAPE  H18R19300   5.580   5.953   3.664 -0.3947 -0.4113  0.1616
  171SAPE  H18S19301   5.430   5.882   3.738 -1.3418  0.9565 -0.0543
  171SAPE  C21919302   5.516   6.047   3.855  0.8302 -0.4254 -0.2861
  171SAPE  H19R19303   5.419   6.054   3.910  0.9327  1.8326 -0.2985
  171SAPE  H19S19304   5.554   6.152   3.849  1.6761 -0.7503 -0.7508
  171SAPE  C22019305   5.623   5.972   3.943  0.3087 -0.1235 -0.3201
  171SAPE  H20R19306   5.589   5.868   3.958 -2.0424  0.5760 -0.4187
  171SAPE  H20S19307   5.627   6.026   4.040 -1.8780 -1.2566  0.4694
  171SAPE  H20T19308   5.718   5.973   3.885  1.4861 -0.6666  1.5124
  171SAPE   C3319309   4.571   5.721   2.556  0.0264 -0.7318 -0.0117
  171SAPE   H3X19310   4.516   5.816   2.574  0.5412 -0.5440  0.6069
  171SAPE   H3Y19311   4.667   5.755   2.511  0.2920 -1.0165  0.3397
  171SAPE   C3419312   4.593   5.660   2.697  0.3619 -0.0335  0.3890
  171SAPE   H4X19313   4.647   5.566   2.675 -0.8773 -0.7298  0.2113
  171SAPE   H4Y19314   4.494   5.627   2.736  1.6357 -1.8838  2.2203
  171SAPE   C3519315   4.668   5.742   2.803  0.2169  0.1633  0.7098
  171SAPE   H5X19316   4.618   5.838   2.826  0.3861 -0.1924  2.7344
  171SAPE   H5Y19317   4.766   5.774   2.762 -0.1452  1.5334  0.8731
  171SAPE   C3619318   4.684   5.673   2.934 -0.0268  0.3362  0.2486
  171SAPE   H6X19319   4.717   5.567   2.928 -0.4744  0.1661  0.6320
  171SAPE   H6Y19320   4.587   5.663   2.988  0.9333 -1.3090  1.8043
  171SAPE   C3719321   4.760   5.752   3.040 -0.4739 -0.0316  0.1152
  171SAPE   H7X19322   4.686   5.834   3.052  0.2458  0.8131 -1.0452
  171SAPE   H7Y19323   4.855   5.793   2.999 -1.1783  0.3492 -1.1949
  171SAPE   C3819324   4.766   5.667   3.168 -0.4928  0.4741 -1.1560
  171SAPE   H8X19325   4.821   5.573   3.146  1.9360  1.0142  1.9009
  171SAPE   H8Y19326   4.667   5.630   3.202 -0.2067 -0.3749 -1.2212
  171SAPE   C3919327   4.856   5.746   3.273  0.0665  0.8367  0.6240
  171SAPE   H9X19328   4.801   5.843   3.266 -1.2208  0.3078  2.4986
  171SAPE   H9Y19329   4.959   5.773   3.242 -0.3044  2.0037  0.3396
  171SAPE  C31019330   4.876   5.693   3.414  0.3420 -0.3507 -0.4765
  171SAPE  H10X19331   4.924   5.594   3.398  1.6205  0.3852 -1.3540
  171SAPE  H10Y19332   4.778   5.690   3.467  1.1873  0.3479  1.2124
  171SAPE  C31119333   4.968   5.779   3.512  0.4391  0.1468  0.7577
  171SAPE  H11X19334   4.897   5.861   3.538 -2.2665 -1.3940 -1.2773
  171SAPE  H11Y19335   5.065   5.806   3.466 -0.0277 -0.1086 -0.3940
  171SAPE  C31219336   5.010   5.711   3.648 -0.4260  0.3980  0.0316
  171SAPE  H12X19337   5.080   5.630   3.618 -0.8650  0.4071 -1.0538
  171SAPE  H12Y19338   4.926   5.665   3.703  0.0343  0.4692  0.8091
  171SAPE  C31319339   5.070   5.815   3.749  0.2507 -0.4905 -0.1811
  171SAPE  H13X19340   5.002   5.895   3.785  1.7854 -0.2032  2.3291
  171SAPE  H13Y19341   5.162   5.862   3.706 -0.7586  0.3609 -1.4880
  171SAPE  C31419342   5.108   5.745   3.875 -0.7193  0.2008  0.0627
  171SAPE  H14X19343   5.184   5.671   3.842 -1.2120 -1.1976  1.8538
  171SAPE  H14Y19344   5.025   5.686   3.921 -0.7662  0.3677  0.1914
  171SAPE  C31519345   5.148   5.837   3.990 -0.6228  0.1077 -0.4772
  171SAPE  H15X19346   5.074   5.918   4.010  0.4044  0.9689 -0.0782
  171SAPE  H15Y19347   5.239   5.889   3.953  1.3474 -2.8201 -0.1122
  171SAPE  C31619348   5.189   5.780   4.133 -0.4685 -0.6263  0.5986
  171SAPE  H16X19349   5.096   5.733   4.171 -0.0510 -2.0698 -0.0982
  171SAPE  H16Y19350   5.214   5.857   4.209 -3.2128  1.5039 -0.4700
  171SAPE  C31719351   5.291   5.675   4.128  0.3317 -0.2902 -0.3131
  171SAPE  H17X19352   5.259   5.587   4.069  1.6638 -1.1100  0.1538
  171SAPE  H17Y19353   5.297   5.629   4.229 -0.1347 -2.1990 -1.1120
  171SAPE  C31819354   5.432   5.714   4.090 -0.2688 -0.6486  0.0795
  171SAPE  H18X19355   5.496   5.630   4.124 -1.0016 -1.2523  0.0108
  171SAPE  H18Y19356   5.471   5.811   4.129  2.0822 -0.7921 -1.7020
  171SAPE  H18Z19357   5.428   5.714   3.979 -2.6670  1.5377  0.0649
  172SAPE     N19358   5.492   0.884   1.882 -0.7629 -0.5220 -0.0497
  172SAPE   HN119359   5.514   0.784   1.866  0.2791 -0.3658  0.3271
  172SAPE   HN219360   5.457   0.925   1.793  0.5881  1.1666  0.1526
  172SAPE   HN319361   5.572   0.936   1.924 -1.6196 -0.6587  1.8383
  172SAPE   C1219362   5.381   0.898   1.987  0.6394  0.0835  0.4892
  172SAPE  H12A19363   5.423   0.854   2.080  2.1263 -0.4097 -0.3716
  172SAPE  H12B19364   5.292   0.840   1.954 -0.5614  1.5157  1.1400
  172SAPE   C1119365   5.336   1.031   2.013  0.1703 -0.1747  0.1038
  172SAPE  H11A19366   5.415   1.090   2.062  1.6203  0.3995 -2.6968
  172SAPE  H11B19367   5.242   1.023   2.071 -0.9938  0.7154 -1.5655
  172SAPE     P19368   5.178   1.195   1.881 -0.1702  0.4780  0.0434
  172SAPE   O1319369   5.215   1.307   1.792 -0.4645 -0.4326 -0.0749
  172SAPE   O1419370   5.062   1.110   1.843 -0.3050  0.3293 -0.6013
  172SAPE   O1219371   5.301   1.096   1.890  0.0527  0.5055 -0.2589
  172SAPE   O1119372   5.167   1.247   2.026  0.5880  0.2897 -1.2784
  172SAPE    C119373   5.073   1.337   2.079  0.0866  0.5416  0.2484
  172SAPE    HA19374   5.121   1.437   2.067  0.8571  0.2533  0.8105
  172SAPE    HB19375   4.979   1.339   2.020 -0.8754 -0.2613  1.6881
  172SAPE    C219376   5.033   1.314   2.236  0.1648 -0.2769  0.2129
  172SAPE    HS19377   5.127   1.305   2.293 -0.5885 -3.6826  1.1478
  172SAPE   O2119378   4.947   1.197   2.248 -0.3473 -0.3738  0.9559
  172SAPE   C2119379   4.993   1.088   2.297  0.1869  0.5068  0.5577
  172SAPE   O2219380   5.104   1.076   2.352  0.4626  0.4678  0.0855
  172SAPE   C2219381   4.871   0.992   2.308 -0.2465  0.2063  0.1666
  172SAPE   H2R19382   4.825   0.982   2.207 -0.8958  1.1868  0.3515
  172SAPE   H2S19383   4.914   0.897   2.347  1.3193  0.4660 -0.8481
  172SAPE    C319384   4.957   1.435   2.290  0.4521  0.2067  0.0365
  172SAPE    HX19385   4.870   1.460   2.225 -0.9184 -0.2327  1.6356
  172SAPE    HY19386   5.006   1.534   2.277  0.3088  0.1742 -0.8249
  172SAPE   O3119387   4.904   1.408   2.422  0.2560 -0.4058 -0.0408
  172SAPE   C3119388   4.969   1.476   2.521 -0.5595  0.1705  0.2361
  172SAPE   O3219389   5.071   1.541   2.508 -0.2087  0.1504 -0.2281
  172SAPE   C3219390   4.895   1.440   2.647  0.5730  0.2593  0.1289
  172SAPE   H2X19391   4.880   1.330   2.660 -1.7436  0.4183 -0.7941
  172SAPE   H2Y19392   4.792   1.477   2.629  0.1638 -0.7976  0.1720
  172SAPE   C2319393   4.764   1.052   2.400  0.1665  0.2223  0.8575
  172SAPE   H3R19394   4.674   0.988   2.388  0.2608  0.4195 -1.3934
  172SAPE   H3S19395   4.742   1.151   2.354  1.2682  0.3360  0.5324
  172SAPE   C2419396   4.809   1.057   2.541 -0.2058  0.2637  0.6743
  172SAPE   H4R19397   4.717   1.097   2.590 -0.8532  0.3834 -0.6076
  172SAPE   H4S19398   4.902   1.115   2.558  1.3805 -2.1904  0.8259
  172SAPE   C2519399   4.830   0.931   2.609  0.2368 -0.3761  0.1090
  172SAPE   H5R19400   4.845   0.848   2.539  0.6227 -0.1966 -0.0229
  172SAPE   C2619401   4.822   0.910   2.738  0.5234  0.8194  0.2823
  172SAPE   H6R19402   4.847   0.809   2.776  0.5737  1.3293  1.6664
  172SAPE   C2719403   4.801   1.009   2.849  0.4058 -0.6431 -0.8359
  172SAPE   H7R19404   4.823   1.112   2.813 -0.3350  0.1480  0.8855
  172SAPE   H7S19405   4.877   0.994   2.928 -1.3006  0.2681  1.0575
  172SAPE   C2819406   4.668   0.990   2.921  0.7815 -0.5222  0.0563
  172SAPE   H8R19407   4.590   0.938   2.864  0.0411 -0.5232  1.0552
  172SAPE   C2919408   4.637   1.049   3.039  0.4461  0.3779 -0.2230
  172SAPE   H9R19409   4.534   1.028   3.073  0.4682 -1.6666 -1.2502
  172SAPE  C21019410   4.735   1.131   3.118 -1.1600  0.1273 -0.2379
  172SAPE  H10R19411   4.693   1.228   3.154 -0.7342  0.4126 -0.5037
  172SAPE  H10S19412   4.813   1.174   3.052  0.1338 -0.1582  1.0721
  172SAPE  C21119413   4.804   1.051   3.226 -0.5213 -0.7669  0.0252
  172SAPE  H11R19414   4.878   0.982   3.183 -0.3337 -1.6119  1.6387
  172SAPE  C21219415   4.817   1.081   3.358  0.1445 -0.1127  0.1204
  172SAPE  H12R19416   4.881   1.017   3.421 -1.3016 -1.5472  0.1698
  172SAPE  C21319417   4.740   1.184   3.433  0.9089  0.6052 -0.6926
  172SAPE  H13R19418   4.724   1.266   3.360 -2.1168  0.8825  0.1418
  172SAPE  H13S19419   4.789   1.220   3.526  0.0088 -1.3935  0.6274
  172SAPE  C21419420   4.601   1.130   3.474  1.0840 -0.1936  0.6250
  172SAPE  H14R19421   4.570   1.027   3.450  0.1683  0.2436 -0.1350
  172SAPE  C21519422   4.527   1.197   3.568  0.2592  0.1754  0.8173
  172SAPE  H15R19423   4.427   1.166   3.601  0.0226 -1.2736 -1.0769
  172SAPE  C21619424   4.564   1.330   3.618  0.0732  0.2356 -0.9672
  172SAPE  H16R19425   4.540   1.417   3.553 -0.5623 -0.4536 -1.6893
  172SAPE  H16S19426   4.674   1.332   3.627  0.0515 -0.1702 -0.6089
  172SAPE  C21719427   4.511   1.359   3.754  0.1571 -0.4593 -0.8843
  172SAPE  H17R19428   4.526   1.273   3.822  0.3392  0.3718  0.1534
  172SAPE  H17S19429   4.405   1.390   3.743  0.7138  2.3192  0.5344
  172SAPE  C21819430   4.596   1.480   3.805 -0.1450  0.3578  0.0440
  172SAPE  H18R19431   4.593   1.561   3.729 -2.2302  2.1821  1.9127
  172SAPE  H18S19432   4.703   1.450   3.799 -0.2342  0.2773 -1.3984
  172SAPE  C21919433   4.546   1.535   3.935  0.2828 -0.5160 -0.9247
  172SAPE  H19R19434   4.549   1.458   4.015 -2.0824  2.7542  2.6839
  172SAPE  H19S19435   4.437   1.542   3.918  0.2730  0.0327 -0.6905
  172SAPE  C22019436   4.615   1.663   3.983  0.1386 -0.0244 -0.2274
  172SAPE  H20R19437   4.574   1.756   3.940  1.2491  0.7901  0.4153
  172SAPE  H20S19438   4.725   1.653   3.969  0.0795 -1.8797  0.3968
  172SAPE  H20T19439   4.617   1.680   4.093  0.4239  1.1040 -0.3943
  172SAPE   C3319440   4.949   1.501   2.776 -0.4832 -0.2952 -0.0171
  172SAPE   H3X19441   4.913   1.606   2.766  1.1607  0.2404 -0.6168
  172SAPE   H3Y19442   5.059   1.497   2.788 -0.6425  0.7372  2.5687
  172SAPE   C3419443   4.882   1.456   2.906  0.1579  0.1224  0.9272
  172SAPE   H4X19444   4.919   1.354   2.927 -1.5190 -0.9023 -0.7541
  172SAPE   H4Y19445   4.771   1.459   2.895  0.3189 -0.9390 -1.5302
  172SAPE   C3519446   4.913   1.540   3.026 -0.0843 -0.1799  0.4084
  172SAPE   H5X19447   4.857   1.636   3.020  0.8875  0.3807 -0.0463
  172SAPE   H5Y19448   5.024   1.553   3.027  0.2636 -2.2974  3.8376
  172SAPE   C3619449   4.883   1.470   3.162 -0.1788  0.6691  0.5281
  172SAPE   H6X19450   4.944   1.377   3.163  3.2776  2.6680 -1.5117
  172SAPE   H6Y19451   4.773   1.456   3.152 -0.2428  2.2453 -1.6557
  172SAPE   C3719452   4.913   1.579   3.272 -0.2164  0.3749  0.9927
  172SAPE   H7X19453   4.864   1.675   3.244  0.3165 -0.6510 -4.5153
  172SAPE   H7Y19454   5.023   1.597   3.271  0.0306 -0.7746  2.9636
  172SAPE   C3819455   4.872   1.536   3.412 -0.0013  0.2975  0.4700
  172SAPE   H8X19456   4.840   1.430   3.403  0.0411  0.2946  0.3494
  172SAPE   H8Y19457   4.779   1.589   3.439  1.0317  1.7942  1.2363
  172SAPE   C3919458   4.984   1.543   3.516  0.3190  0.1292  0.4699
  172SAPE   H9X19459   5.056   1.621   3.484  0.1927  0.1998  0.3564
  172SAPE   H9Y19460   5.042   1.448   3.516 -1.9415 -1.3648  2.3899
  172SAPE  C31019461   4.943   1.576   3.657 -0.0988 -0.9391 -0.4430
  172SAPE  H10X19462   4.895   1.494   3.715 -1.1411  0.2152  0.3945
  172SAPE  H10Y19463   4.871   1.660   3.651 -0.3319 -1.2248 -1.8275
  172SAPE  C31119464   5.063   1.630   3.746 -0.1968 -0.0488 -0.3367
  172SAPE  H11X19465   5.103   1.718   3.691 -1.5621 -0.8360 -2.7745
  172SAPE  H11Y19466   5.136   1.547   3.748 -0.9155 -0.6881  0.8117
  172SAPE  C31219467   5.033   1.666   3.891 -0.1465  0.4805  0.4221
  172SAPE  H12X19468   4.954   1.743   3.903 -2.6824 -2.0734  1.1970
  172SAPE  H12Y19469   5.130   1.706   3.927 -0.2401  1.4774 -0.3805
  172SAPE  C31319470   4.996   1.546   3.980 -0.3708 -0.1339 -0.6260
  172SAPE  H13X19471   5.083   1.478   3.969  0.6021  1.1166 -0.8851
  172SAPE  H13Y19472   4.902   1.494   3.950 -1.7680 -0.4427  3.6222
  172SAPE  C31419473   4.980   1.590   4.126  0.4883 -0.1754 -0.6192
  172SAPE  H14X19474   4.890   1.650   4.150  0.7492 -0.6088  1.7038
  172SAPE  H14Y19475   5.070   1.639   4.169  0.2555  0.4958 -0.8810
  172SAPE  C31519476   4.941   1.462   4.209  0.2889 -0.2142 -0.6728
  172SAPE  H15X19477   5.013   1.378   4.214  1.4742  0.8051  0.2055
  172SAPE  H15Y19478   4.845   1.423   4.170 -0.2251 -0.1290  0.4665
  172SAPE  C31619479   4.922   1.487   4.358  0.0925 -0.2930 -0.6062
  172SAPE  H16X19480   4.829   1.544   4.377  0.1107 -0.1620 -0.8996
  172SAPE  H16Y19481   4.990   1.565   4.400  0.5910 -0.3889 -1.2132
  172SAPE  C31719482   4.938   1.363   4.445  0.1229 -0.8016  0.3029
  172SAPE  H17X19483   5.043   1.329   4.435 -0.7482 -2.9306 -3.4440
  172SAPE  H17Y19484   4.870   1.281   4.414 -0.1473 -1.2745  2.0303
  172SAPE  C31819485   4.905   1.405   4.593  0.8278 -0.0425 -0.1811
  172SAPE  H18X19486   4.828   1.485   4.590  0.8735  0.0647  0.9493
  172SAPE  H18Y19487   4.994   1.454   4.637  2.0251 -0.2708 -2.2234
  172SAPE  H18Z19488   4.870   1.322   4.658  3.1069 -2.0432 -1.3448
  173SLPC     N19489   5.366   0.914   6.567 -0.3956  1.0019 -0.5101
  173SLPC   C1319490   5.407   1.015   6.463  0.6361  0.1081 -0.0218
  173SLPC  H13A19491   5.506   1.054   6.487  1.0184 -1.2944  0.8206
  173SLPC  H13B19492   5.415   0.967   6.367 -0.0831 -2.2834  1.0576
  173SLPC  H13C19493   5.335   1.095   6.450  0.4008 -0.3531 -1.8127
  173SLPC   C1419494   5.308   0.989   6.691 -0.1787 -0.6884 -0.5312
  173SLPC  H14A19495   5.380   1.062   6.725 -1.0898 -0.6090  1.3543
  173SLPC  H14B19496   5.222   1.039   6.649  1.2756  0.8526 -1.7799
  173SLPC  H14C19497   5.296   0.917   6.770 -0.3261 -1.3692 -1.1550
  173SLPC   C1519498   5.480   0.847   6.626 -0.3226  0.7245 -0.5421
  173SLPC  H15A19499   5.537   0.915   6.689 -1.6674 -0.8335  2.5969
  173SLPC  H15B19500   5.448   0.769   6.693 -0.6820  0.5670 -0.8986
  173SLPC  H15C19501   5.551   0.802   6.558 -1.8611 -0.8937 -1.1241
  173SLPC   C1219502   5.265   0.811   6.507  0.4164  0.0426 -0.8841
  173SLPC  H12A19503   5.315   0.747   6.436 -1.9516 -1.9728 -0.8574
  173SLPC  H12B19504   5.176   0.855   6.466 -0.2632 -0.3520  0.1296
  173SLPC   C1119505   5.219   0.707   6.619 -0.1938  0.0108  0.1146
  173SLPC  H11A19506   5.133   0.654   6.572  0.9258 -1.6862 -0.1091
  173SLPC  H11B19507   5.182   0.744   6.717 -0.4247 -0.5532  0.2446
  173SLPC     P19508   5.361   0.503   6.550  0.0749 -0.3879 -0.3356
  173SLPC   O1319509   5.465   0.415   6.607  0.0332 -0.7021  0.3491
  173SLPC   O1419510   5.246   0.437   6.494  0.5463 -0.5746  0.1728
  173SLPC   O1219511   5.309   0.605   6.650  0.2124 -0.3191  0.2368
  173SLPC   O1119512   5.433   0.579   6.435 -0.3954 -0.1191  0.1086
  173SLPC    C119513   5.495   0.521   6.323 -0.2695 -0.5024  0.4651
  173SLPC    HA19514   5.598   0.489   6.351  0.7334  0.8633 -1.4207
  173SLPC    HB19515   5.445   0.433   6.278  0.2219 -0.5943  0.0809
  173SLPC    C219516   5.531   0.625   6.210  0.9582  0.1096 -0.4299
  173SLPC    HS19517   5.431   0.672   6.203  1.0217  0.1873 -0.8354
  173SLPC   O2119518   5.558   0.551   6.090  0.1574 -0.0289  0.2563
  173SLPC   C2119519   5.516   0.612   5.985  0.1925 -0.2002  0.4384
  173SLPC   O2219520   5.440   0.710   5.978 -0.3579 -0.2898  0.0647
  173SLPC   C2219521   5.571   0.534   5.867  0.5640  0.2707 -0.1607
  173SLPC   H2R19522   5.678   0.515   5.890  1.0120  1.9861 -0.6573
  173SLPC   H2S19523   5.511   0.441   5.855  1.7064 -0.3988 -0.8058
  173SLPC    C319524   5.638   0.722   6.253 -0.8387 -1.0079 -0.3086
  173SLPC    HX19525   5.722   0.667   6.300  1.5718 -0.6097 -3.7143
  173SLPC    HY19526   5.602   0.786   6.336 -0.6872 -1.9116  0.4713
  173SLPC   O3119527   5.685   0.789   6.139  0.7965 -0.4749  0.2900
  173SLPC   C3119528   5.629   0.909   6.120  0.3687 -0.2376 -0.1801
  173SLPC   O3219529   5.550   0.969   6.190 -0.3452 -0.3653 -0.0889
  173SLPC   C3219530   5.671   0.954   5.979 -0.0897  0.2855  0.9176
  173SLPC   H2X19531   5.614   0.888   5.911 -0.9308  1.9605 -0.0720
  173SLPC   H2Y19532   5.780   0.933   5.968 -0.2842  0.2679 -1.3845
  173SLPC   C2319533   5.550   0.608   5.734  0.1652  0.7691  0.1277
  173SLPC   H3R19534   5.623   0.689   5.713  0.4131  0.5881  0.2892
  173SLPC   H3S19535   5.453   0.662   5.731  0.3643  1.0730 -1.5295
  173SLPC   C2419536   5.560   0.504   5.615 -0.7001  0.0650 -0.4081
  173SLPC   H4R19537   5.467   0.444   5.607  0.1974 -1.2886 -1.0490
  173SLPC   H4S19538   5.645   0.434   5.631 -3.4300 -3.4191  0.1529
  173SLPC   C2519539   5.586   0.567   5.485 -0.2696 -0.7248 -0.1324
  173SLPC   H5R19540   5.602   0.488   5.408  0.4912 -2.3519  1.6114
  173SLPC   H5S19541   5.686   0.614   5.496  0.3027 -1.5977 -1.2697
  173SLPC   C2619542   5.487   0.675   5.436  0.3481  0.3493 -0.3948
  173SLPC   H6R19543   5.523   0.717   5.340 -1.1607 -0.7284 -1.4642
  173SLPC   H6S19544   5.476   0.753   5.515 -1.2802 -1.1824  0.9752
  173SLPC   C2719545   5.344   0.605   5.418 -0.4700  0.3553  0.3422
  173SLPC   H7R19546   5.302   0.581   5.518 -1.0537 -4.4731 -0.8399
  173SLPC   H7S19547   5.348   0.519   5.348  2.0576  1.1042 -0.5365
  173SLPC   C2819548   5.247   0.703   5.349 -0.2392 -0.7348 -0.0902
  173SLPC   H8R19549   5.241   0.794   5.413 -0.8238 -0.8635  0.0377
  173SLPC   H8S19550   5.145   0.661   5.343 -1.6423  2.3099  0.5658
  173SLPC   C2919551   5.286   0.737   5.208  0.1682  0.1430 -0.0988
  173SLPC   H9R19552   5.377   0.693   5.164  0.7471  2.3782 -1.2872
  173SLPC  C21019553   5.233   0.834   5.129 -0.6345  0.7522  0.1835
  173SLPC  H10R19554   5.274   0.844   5.027 -1.5498 -0.4882 -0.3283
  173SLPC  C21119555   5.115   0.916   5.178 -0.0461 -0.6194  0.1658
  173SLPC  H11R19556   5.101   0.902   5.287 -1.4388 -1.0933 -0.0583
  173SLPC  H11S19557   5.027   0.871   5.126 -2.2673  3.0825  0.4151
  173SLPC  C21219558   5.116   1.065   5.145 -1.3552 -0.2992 -0.4146
  173SLPC  H12R19559   5.098   1.133   5.230  0.2939 -0.0998 -0.1951
  173SLPC  C21319560   5.117   1.123   5.021 -0.3228 -0.4483 -0.4346
  173SLPC  H13R19561   5.130   1.232   5.015 -0.2616 -0.4429 -0.2201
  173SLPC  C21419562   5.126   1.062   4.883  0.4431 -0.4974 -0.5143
  173SLPC  H14R19563   5.143   0.952   4.886  1.8500 -0.3016 -0.1521
  173SLPC  H14S19564   5.211   1.105   4.825 -0.9195 -0.3784 -2.4979
  173SLPC  C21519565   4.999   1.088   4.799  0.5987 -0.0933 -0.7699
  173SLPC  H15R19566   4.988   1.198   4.810  1.9987 -0.0254  0.1622
  173SLPC  H15S19567   4.922   1.027   4.851  3.0611 -1.6615  1.3369
  173SLPC  C21619568   5.008   1.046   4.654 -0.0295  0.1653  0.1051
  173SLPC  H16R19569   5.048   0.943   4.662 -1.3980 -0.2678  2.1243
  173SLPC  H16S19570   5.064   1.110   4.582  0.5823 -2.4869 -1.9577
  173SLPC  C21719571   4.871   1.028   4.581  0.4920 -0.4996 -0.5219
  173SLPC  H17R19572   4.812   1.122   4.588 -0.1457 -0.9941  1.0030
  173SLPC  H17S19573   4.814   0.951   4.636  0.5574 -0.6616 -0.6792
  173SLPC  C21819574   4.893   1.002   4.437  0.0396 -0.2908 -0.1866
  173SLPC  H18R19575   4.966   1.057   4.374  0.5111  0.7673  1.2448
  173SLPC  H18S19576   4.800   1.015   4.377  0.4909 -1.5575 -1.1997
  173SLPC  H18T19577   4.919   0.894   4.425  2.9528  0.1461  1.3186
  173SLPC   C3319578   5.635   1.100   5.948 -0.1613  0.3116  0.1598
  173SLPC   H3X19579   5.682   1.164   6.026  0.9542 -1.4362  0.9762
  173SLPC   H3Y19580   5.526   1.121   5.955 -0.5338 -1.0975 -0.8599
  173SLPC   C3419581   5.679   1.145   5.805 -0.1658  0.3441 -0.8183
  173SLPC   H4X19582   5.789   1.129   5.804 -0.1802  0.2412 -0.7065
  173SLPC   H4Y19583   5.652   1.253   5.800  0.3623  0.7742  2.8230
  173SLPC   C3519584   5.612   1.064   5.693  0.2439 -0.5963 -0.1386
  173SLPC   H5X19585   5.502   1.063   5.704  0.2179 -0.2934 -0.3575
  173SLPC   H5Y19586   5.651   0.962   5.712  0.3770 -0.5200  0.0116
  173SLPC   C3619587   5.659   1.116   5.555  0.0220  0.0726 -0.0822
  173SLPC   H6X19588   5.770   1.114   5.560  0.0111  1.3872  1.4343
  173SLPC   H6Y19589   5.626   1.222   5.551  2.6656  1.0197  0.5024
  173SLPC   C3719590   5.612   1.027   5.438 -0.1435 -0.7660 -0.0124
  173SLPC   H7X19591   5.503   1.010   5.450 -0.2231  0.8932  2.2069
  173SLPC   H7Y19592   5.658   0.926   5.444  1.0586 -0.1518  2.0583
  173SLPC   C3819593   5.632   1.100   5.305  0.1389 -0.1648  0.0376
  173SLPC   H8X19594   5.738   1.110   5.274  1.2349 -2.1024  2.7645
  173SLPC   H8Y19595   5.590   1.202   5.311 -1.6208 -0.8519 -0.0853
  173SLPC   C3919596   5.570   1.006   5.205 -0.3978  0.0248  1.3357
  173SLPC   H9X19597   5.461   1.017   5.185 -0.0450 -0.3052 -1.0831
  173SLPC   H9Y19598   5.593   0.903   5.238 -2.4972 -1.3144 -1.0407
  173SLPC  C31019599   5.631   1.012   5.062 -0.3428  0.3890 -0.0950
  173SLPC  H10X19600   5.742   1.002   5.069 -0.0459  1.1447 -2.6478
  173SLPC  H10Y19601   5.633   1.112   5.014 -0.5343 -0.4227 -1.8833
  173SLPC  C31119602   5.576   0.906   4.962  0.2027  0.3417 -0.1412
  173SLPC  H11X19603   5.465   0.902   4.974  0.1448 -0.1152 -0.7698
  173SLPC  H11Y19604   5.611   0.803   4.986 -1.5938 -0.0239  1.1314
  173SLPC  C31219605   5.590   0.944   4.811  0.5476 -0.1585 -0.5191
  173SLPC  H12X19606   5.697   0.930   4.785  0.2791 -0.6334 -1.4550
  173SLPC  H12Y19607   5.565   1.051   4.795  0.9307  0.1432  0.7634
  173SLPC  C31319608   5.503   0.870   4.711  0.2465  0.5261 -0.2141
  173SLPC  H13X19609   5.401   0.911   4.697  0.4470  0.5292 -1.8907
  173SLPC  H13Y19610   5.495   0.765   4.746 -2.0229  0.7816  0.1508
  173SLPC  C31419611   5.562   0.875   4.564 -0.2764 -0.2841 -0.2414
  173SLPC  H14X19612   5.664   0.830   4.569 -1.2821 -2.6854 -0.2299
  173SLPC  H14Y19613   5.580   0.982   4.539  3.3292  0.2111  3.2703
  173SLPC  C31519614   5.460   0.824   4.471 -0.1212  0.3012  0.1073
  173SLPC  H15X19615   5.365   0.876   4.494 -0.5001 -0.4721  0.3561
  173SLPC  H15Y19616   5.450   0.714   4.488  1.2487  0.2793  0.9078
  173SLPC  C31619617   5.513   0.844   4.322  0.5482  0.3787  0.9109
  173SLPC  H16X19618   5.529   0.952   4.299  0.4546  0.2964  0.4334
  173SLPC  H16Y19619   5.437   0.800   4.254  2.2466 -0.5202 -0.5232
  173SLPC  C31719620   5.642   0.780   4.302 -0.1865  0.0704  0.1576
  173SLPC  H17X19621   5.624   0.677   4.340 -0.7466  0.6433  1.5040
  173SLPC  H17Y19622   5.732   0.816   4.356 -0.1344  0.1922 -0.0088
  173SLPC  C31819623   5.695   0.765   4.158  0.6164 -0.3726  0.1745
  173SLPC  H18X19624   5.623   0.699   4.105  1.5725 -2.3184  1.2009
  173SLPC  H18Y19625   5.795   0.717   4.147  0.4148 -0.5729 -0.9807
  173SLPC  H18Z19626   5.694   0.865   4.110  2.0180 -0.0087  0.8563
  174SLPC     N19627   1.681   1.957   6.491  0.1298  0.3090  0.3643
  174SLPC   C1319628   1.665   1.906   6.350 -0.0548 -0.1347 -0.2992
  174SLPC  H13A19629   1.650   1.987   6.280 -0.1259 -0.0067 -0.1357
  174SLPC  H13B19630   1.751   1.846   6.322 -0.7051 -1.4766  0.5067
  174SLPC  H13C19631   1.592   1.827   6.338  0.8450 -0.8351 -1.4267
  174SLPC   C1419632   1.673   1.840   6.580  0.0636  0.6480 -0.5184
  174SLPC  H14A19633   1.698   1.883   6.676 -3.5554  1.3185  0.2540
  174SLPC  H14B19634   1.573   1.800   6.585  0.3858 -0.0763  0.5334
  174SLPC  H14C19635   1.741   1.758   6.558 -1.0138  0.1775 -2.2429
  174SLPC   C1519636   1.563   2.049   6.515 -0.4166  0.7318 -0.3200
  174SLPC  H15A19637   1.475   2.016   6.463 -0.2271 -1.2073  0.5181
  174SLPC  H15B19638   1.538   2.062   6.620 -0.7384 -0.0606 -0.2928
  174SLPC  H15C19639   1.582   2.148   6.475 -1.4088  1.4192  0.7962
  174SLPC   C1219640   1.814   2.042   6.503 -0.7465  0.2329 -0.2929
  174SLPC  H12A19641   1.819   2.079   6.604  2.8180 -0.2733 -0.1395
  174SLPC  H12B19642   1.809   2.129   6.439  1.7672  1.4514  1.0321
  174SLPC   C1119643   1.947   1.977   6.468  1.1275 -0.6325  0.0393
  174SLPC  H11A19644   1.948   1.873   6.508  0.2063 -1.2078 -1.3399
  174SLPC  H11B19645   2.029   2.033   6.518  0.8574 -0.0793 -0.1351
  174SLPC     P19646   2.013   2.087   6.246  0.1773  0.0713  0.3462
  174SLPC   O1319647   2.004   2.040   6.101  0.3818 -0.4428 -1.1018
  174SLPC   O1419648   1.952   2.216   6.290 -0.1475  0.7557 -0.3597
  174SLPC   O1219649   1.959   1.963   6.330 -0.1982  0.2952 -0.1894
  174SLPC   O1119650   2.167   2.096   6.287  0.4367 -0.4152 -0.3242
  174SLPC    C119651   2.253   1.985   6.315  0.0678  0.2380  0.3272
  174SLPC    HA19652   2.264   1.966   6.424  1.4638 -0.1412  0.1319
  174SLPC    HB19653   2.225   1.896   6.256  3.1933 -0.2900 -0.5389
  174SLPC    C219654   2.396   2.016   6.264 -0.0432 -0.4937 -0.2937
  174SLPC    HS19655   2.435   2.085   6.341 -1.6449 -0.7485  0.7921
  174SLPC   O2119656   2.391   2.079   6.134 -0.8609  0.1732 -0.8672
  174SLPC   C2119657   2.511   2.133   6.101  0.3573  0.4833  0.6679
  174SLPC   O2219658   2.617   2.108   6.162  0.1100  0.0458 -0.0819
  174SLPC   C2219659   2.489   2.202   5.970  0.4669 -0.6151  0.2168
  174SLPC   H2R19660   2.450   2.132   5.892  1.2684 -0.2126 -0.5650
  174SLPC   H2S19661   2.415   2.285   5.978  2.7091  1.2810  3.8075
  174SLPC    C319662   2.481   1.888   6.267  0.1031  0.1575  0.2277
  174SLPC    HX19663   2.488   1.844   6.369  0.7898  1.5405  0.8038
  174SLPC    HY19664   2.589   1.905   6.244  0.1100 -0.8182 -0.5493
  174SLPC   O3119665   2.412   1.782   6.193 -0.2210 -0.1674 -0.3014
  174SLPC   C3119666   2.459   1.783   6.070  0.0352  0.8157  0.0353
  174SLPC   O3219667   2.566   1.829   6.029 -0.3656 -0.9207  0.2098
  174SLPC   C3219668   2.366   1.690   5.999 -0.1533  0.2207  0.1258
  174SLPC   H2X19669   2.263   1.693   6.039 -0.8483 -0.6230 -1.5248
  174SLPC   H2Y19670   2.417   1.592   5.987  0.2228  0.1623  1.8835
  174SLPC   C2319671   2.620   2.273   5.923  0.4517 -0.2499 -0.0356
  174SLPC   H3R19672   2.701   2.198   5.910  0.8025 -0.6947  3.5586
  174SLPC   H3S19673   2.661   2.344   5.998 -1.2200  0.8871 -0.1602
  174SLPC   C2419674   2.607   2.341   5.785 -1.1529  0.3079  0.9158
  174SLPC   H4R19675   2.702   2.395   5.768 -1.3607 -0.0857 -2.1604
  174SLPC   H4S19676   2.516   2.403   5.768 -1.4344 -1.0100 -3.5645
  174SLPC   C2519677   2.590   2.236   5.670 -0.2316 -0.1015 -0.4999
  174SLPC   H5R19678   2.555   2.137   5.705 -1.0027  0.1224 -0.6084
  174SLPC   H5S19679   2.693   2.216   5.633  0.1044 -2.0572  1.3271
  174SLPC   C2619680   2.513   2.288   5.543 -0.7554 -0.8748 -1.3554
  174SLPC   H6R19681   2.552   2.390   5.521 -0.1086 -0.6964  0.4477
  174SLPC   H6S19682   2.405   2.287   5.571 -0.3329  0.7684  0.5713
  174SLPC   C2719683   2.555   2.205   5.421  0.5079  0.0567  0.3025
  174SLPC   H7R19684   2.665   2.189   5.417  1.0985  3.5010 -0.4717
  174SLPC   H7S19685   2.532   2.262   5.329 -0.0958  0.3172  0.6133
  174SLPC   C2819686   2.506   2.054   5.416  0.4861 -1.0523 -0.0825
  174SLPC   H8R19687   2.545   1.999   5.504  1.0882  2.8641  2.3553
  174SLPC   H8S19688   2.551   2.004   5.327  0.5737  0.1607 -0.7557
  174SLPC   C2919689   2.355   2.055   5.403 -0.5630  0.5175 -0.2121
  174SLPC   H9R19690   2.298   2.073   5.496 -0.5693  0.1739 -0.1474
  174SLPC  C21019691   2.278   2.010   5.299  0.3565 -0.4407 -1.0649
  174SLPC  H10R19692   2.169   2.019   5.308  0.3908 -1.3615  0.8480
  174SLPC  C21119693   2.323   1.945   5.167 -0.7082  0.4834  0.5545
  174SLPC  H11R19694   2.426   1.970   5.132 -0.5876 -2.2724 -1.3408
  174SLPC  H11S19695   2.265   1.980   5.079 -1.4797 -2.4454 -0.2026
  174SLPC  C21219696   2.302   1.796   5.163 -0.7071  0.1162  0.2298
  174SLPC  H12R19697   2.309   1.741   5.258 -0.2636 -1.3484 -0.6157
  174SLPC  C21319698   2.269   1.719   5.059  0.4590 -0.0571  0.0356
  174SLPC  H13R19699   2.242   1.613   5.075 -0.2250  0.3507  1.7476
  174SLPC  C21419700   2.258   1.766   4.918  0.0714 -0.1364 -0.1154
  174SLPC  H14R19701   2.298   1.687   4.850  0.8319  0.9364 -0.9360
  174SLPC  H14S19702   2.322   1.856   4.907  1.5463 -0.7477  2.7220
  174SLPC  C21519703   2.119   1.827   4.877 -0.4370  0.4397 -0.2191
  174SLPC  H15R19704   2.118   1.935   4.902  1.3165  0.5673 -0.5946
  174SLPC  H15S19705   2.035   1.776   4.928  0.1286 -0.6360 -0.3478
  174SLPC  C21619706   2.097   1.813   4.720 -0.3871 -0.1921  0.2405
  174SLPC  H16R19707   2.086   1.709   4.681 -0.7064  0.4634 -1.4994
  174SLPC  H16S19708   2.182   1.865   4.670 -0.9970  1.6783  1.0834
  174SLPC  C21719709   1.964   1.877   4.690 -0.3600  0.4237 -0.3322
  174SLPC  H17R19710   1.952   1.977   4.735  0.9983  1.2431 -1.7069
  174SLPC  H17S19711   1.885   1.807   4.727 -2.3775  1.7348 -1.8906
  174SLPC  C21819712   1.928   1.889   4.539  0.1579 -0.1639  0.1595
  174SLPC  H18R19713   1.984   1.971   4.490  0.4606 -1.7835 -2.3373
  174SLPC  H18S19714   1.817   1.895   4.532 -0.0005 -2.6701 -0.3719
  174SLPC  H18T19715   1.961   1.794   4.492 -0.3493  0.0360 -0.6174
  174SLPC   C3319716   2.364   1.739   5.857  0.2984 -0.4911 -0.3872
  174SLPC   H3X19717   2.468   1.760   5.823 -0.0483  0.3235 -0.9883
  174SLPC   H3Y19718   2.307   1.833   5.841 -2.8856 -2.2224 -0.1676
  174SLPC   C3419719   2.299   1.641   5.757 -0.5028 -0.5812 -0.0280
  174SLPC   H4X19720   2.252   1.698   5.673  0.6136 -0.5507 -0.6451
  174SLPC   H4Y19721   2.220   1.588   5.815  1.3646 -1.3251  1.9592
  174SLPC   C3519722   2.388   1.534   5.696  0.0890 -0.5620  0.7300
  174SLPC   H5X19723   2.335   1.437   5.692 -0.4205 -0.3044  1.1735
  174SLPC   H5Y19724   2.487   1.534   5.746  0.8839  0.3861 -0.7543
  174SLPC   C3619725   2.422   1.562   5.549  0.4133 -0.1021  0.4192
  174SLPC   H6X19726   2.459   1.666   5.534 -2.1225  0.7686 -0.3090
  174SLPC   H6Y19727   2.326   1.555   5.495 -0.5587  2.5362  1.6274
  174SLPC   C3719728   2.526   1.467   5.487 -0.0168  0.2825 -0.7514
  174SLPC   H7X19729   2.485   1.366   5.509 -3.2508  1.3140 -1.4614
  174SLPC   H7Y19730   2.626   1.490   5.530  0.1674 -0.0044 -1.0235
  174SLPC   C3819731   2.535   1.469   5.334 -0.5867  0.0304 -0.2432
  174SLPC   H8X19732   2.431   1.466   5.296 -0.7622  0.7637  0.1458
  174SLPC   H8Y19733   2.583   1.370   5.321  2.7208  1.2164  1.5924
  174SLPC   C3919734   2.628   1.569   5.270  0.6137 -0.0175  0.2265
  174SLPC   H9X19735   2.727   1.574   5.320  1.0512 -0.9525 -0.5233
  174SLPC   H9Y19736   2.578   1.668   5.283 -1.2505 -0.5257 -2.3858
  174SLPC  C31019737   2.641   1.545   5.112  0.3432 -0.2192  0.4625
  174SLPC  H10X19738   2.535   1.541   5.079  0.2274 -2.3684  0.9268
  174SLPC  H10Y19739   2.697   1.457   5.076  1.9307  1.5211 -1.5532
  174SLPC  C31119740   2.711   1.662   5.045 -0.2020  0.8814 -0.5644
  174SLPC  H11X19741   2.815   1.665   5.083 -0.6294 -1.2745  0.9987
  174SLPC  H11Y19742   2.671   1.757   5.088  0.3621  0.6030  0.6102
  174SLPC  C31219743   2.712   1.671   4.888  0.3676  0.4378  0.2274
  174SLPC  H12X19744   2.607   1.685   4.856 -0.5927  0.9614  3.2838
  174SLPC  H12Y19745   2.744   1.575   4.843 -0.5638  1.0722 -1.9019
  174SLPC  C31319746   2.798   1.787   4.844 -0.0399 -0.3654  0.2684
  174SLPC  H13X19747   2.907   1.770   4.861 -0.2746 -0.3217  1.9458
  174SLPC  H13Y19748   2.771   1.860   4.923  0.0777 -0.0891  0.0581
  174SLPC  C31419749   2.776   1.830   4.694  0.1299 -0.2537 -0.5796
  174SLPC  H14X19750   2.821   1.747   4.637  1.1455 -2.4395  3.0864
  174SLPC  H14Y19751   2.831   1.922   4.665 -0.1078 -0.1786 -0.7995
  174SLPC  C31519752   2.630   1.848   4.653 -0.5232 -0.1399  0.9248
  174SLPC  H15X19753   2.566   1.774   4.704  1.9958 -1.8293  1.8139
  174SLPC  H15Y19754   2.620   1.830   4.543  2.0943  0.9082  0.4441
  174SLPC  C31619755   2.575   1.987   4.663 -0.0841  0.1559 -0.4158
  174SLPC  H16X19756   2.466   1.982   4.639 -0.4163  1.4146  0.6433
  174SLPC  H16Y19757   2.622   2.064   4.598  0.0090  0.4488 -0.0110
  174SLPC  C31719758   2.572   2.042   4.805 -0.1883 -0.8680 -0.1201
  174SLPC  H17X19759   2.666   2.039   4.863  0.0404 -0.2819 -0.4471
  174SLPC  H17Y19760   2.516   1.975   4.874  0.0546  0.1381  1.0824
  174SLPC  C31819761   2.522   2.185   4.816 -0.3841  0.0046 -0.0617
  174SLPC  H18X19762   2.586   2.256   4.759  0.8740  1.0454  2.4484
  174SLPC  H18Y19763   2.538   2.237   4.913 -0.9974  1.9883 -0.9682
  174SLPC  H18Z19764   2.414   2.188   4.793 -0.2660 -1.5085 -0.9237
  175SLPC     N19765   6.301   1.205   7.476 -0.3225 -0.1737 -0.3423
  175SLPC   C1319766   6.453   1.224   7.490 -0.1975 -0.1694  0.5692
  175SLPC  H13A19767   6.481   1.295   7.567 -2.6510  1.6219 -0.0575
  175SLPC  H13B19768   6.504   1.131   7.508 -0.8076 -0.2728  1.9322
  175SLPC  H13C19769   6.494   1.268   7.400  0.1767 -0.2756  0.6851
  175SLPC   C1419770   6.225   1.328   7.467 -0.1847 -0.8739 -0.2245
  175SLPC  H14A19771   6.236   1.386   7.377  2.9682  0.0894  0.6576
  175SLPC  H14B19772   6.118   1.310   7.462 -0.9879  3.1592 -1.6287
  175SLPC  H14C19773   6.250   1.398   7.546 -1.8063  1.6000 -1.7537
  175SLPC   C1519774   6.265   1.133   7.604 -0.5398  0.4999  0.8373
  175SLPC  H15A19775   6.328   1.047   7.617 -1.2237 -0.1119  0.2319
  175SLPC  H15B19776   6.269   1.197   7.691 -0.5892  0.4442  0.8816
  175SLPC  H15C19777   6.171   1.078   7.603  0.7981 -1.9252  1.1291
  175SLPC   C1219778   6.285   1.121   7.346  0.7254  0.3762 -0.1510
  175SLPC  H12A19779   6.178   1.108   7.345  0.3156  2.2191  3.6545
  175SLPC  H12B19780   6.330   1.023   7.352 -1.3964 -0.7305 -1.1476
  175SLPC   C1119781   6.343   1.180   7.223 -0.4181  0.2362  0.0393
  175SLPC  H11A19782   6.316   1.287   7.213  0.5039  0.4127 -0.6112
  175SLPC  H11B19783   6.289   1.142   7.133 -0.6530  1.8361 -0.5367
  175SLPC     P19784   6.563   1.035   7.154  0.1694  0.2617  0.7508
  175SLPC   O1319785   6.706   1.069   7.118 -0.2819  0.0613 -0.7425
  175SLPC   O1419786   6.538   0.925   7.241 -0.1840  0.3786  0.4436
  175SLPC   O1219787   6.484   1.164   7.205  0.4873  0.1560  0.1394
  175SLPC   O1119788   6.488   1.007   7.012  0.9085 -0.8062 -0.0831
  175SLPC    C119789   6.463   1.119   6.920  0.1386 -0.1636  0.1492
  175SLPC    HA19790   6.355   1.136   6.901 -0.1194 -1.0737  0.7247
  175SLPC    HB19791   6.503   1.215   6.958  3.3531 -1.3543  0.0556
  175SLPC    C219792   6.541   1.093   6.791 -0.3572  0.0285 -0.8248
  175SLPC    HS19793   6.643   1.071   6.828 -1.7105 -1.6634  2.2600
  175SLPC   O2119794   6.533   1.212   6.708 -0.0723 -0.4179  0.2525
  175SLPC   C2119795   6.631   1.294   6.698 -0.8739  0.4472 -0.8899
  175SLPC   O2219796   6.738   1.276   6.758 -0.4058  0.1043  0.1110
  175SLPC   C2219797   6.606   1.386   6.581  0.2582  0.1992 -0.0352
  175SLPC   H2R19798   6.664   1.474   6.615  0.7911  0.2133 -0.9263
  175SLPC   H2S19799   6.650   1.345   6.487 -1.3757 -1.7576 -0.0267
  175SLPC    C319800   6.491   0.966   6.715  0.2973  0.1688 -0.0747
  175SLPC    HX19801   6.380   0.976   6.709  0.5015  2.2615 -2.5231
  175SLPC    HY19802   6.506   0.873   6.774 -2.4461  1.4114  2.8593
  175SLPC   O3119803   6.551   0.953   6.587  0.4642  0.0145  0.2988
  175SLPC   C3119804   6.484   0.992   6.487  0.2554  0.3212  0.6305
  175SLPC   O3219805   6.370   1.036   6.483  0.4384  0.2602 -0.4488
  175SLPC   C3219806   6.570   0.964   6.361  0.2866 -0.2908 -0.6302
  175SLPC   H2X19807   6.485   0.947   6.292 -0.6336 -0.2315  0.4664
  175SLPC   H2Y19808   6.642   0.880   6.373 -0.3346 -0.7860 -0.3243
  175SLPC   C2319809   6.456   1.420   6.564 -0.2858  0.1571 -0.1447
  175SLPC   H3R19810   6.419   1.476   6.652 -0.4342  2.5317 -1.6198
  175SLPC   H3S19811   6.392   1.331   6.548  1.6288 -1.1627 -0.8079
  175SLPC   C2419812   6.448   1.516   6.446  0.9244  0.2219  0.1433
  175SLPC   H4R19813   6.337   1.526   6.446  0.9491  0.7447  1.5493
  175SLPC   H4S19814   6.483   1.459   6.357 -0.2045 -1.2153  0.5865
  175SLPC   C2519815   6.521   1.644   6.463 -0.2375  0.4834  0.0341
  175SLPC   H5R19816   6.627   1.632   6.432  0.3674 -2.9125  2.7220
  175SLPC   H5S19817   6.508   1.671   6.570 -2.0908 -1.6144  0.4280
  175SLPC   C2619818   6.450   1.762   6.390  0.4529 -0.0067 -0.7708
  175SLPC   H6R19819   6.502   1.856   6.419  0.8837  0.1143 -1.8964
  175SLPC   H6S19820   6.352   1.779   6.441  1.7348  1.1568  1.4530
  175SLPC   C2719821   6.436   1.738   6.244 -0.4300  0.1289 -0.4552
  175SLPC   H7R19822   6.393   1.637   6.225 -0.4453 -0.0354  0.4060
  175SLPC   H7S19823   6.534   1.741   6.193  0.0158  0.0152  0.3843
  175SLPC   C2819824   6.346   1.841   6.175 -0.5216 -0.7519  0.3862
  175SLPC   H8R19825   6.321   1.793   6.078  0.9385  0.5207 -0.6659
  175SLPC   H8S19826   6.398   1.935   6.147 -0.9863 -0.6050  0.0111
  175SLPC   C2919827   6.222   1.887   6.247  0.2522 -0.2721 -0.1741
  175SLPC   H9R19828   6.238   1.939   6.343 -0.8041  0.5631 -0.4295
  175SLPC  C21019829   6.097   1.863   6.197  0.6697  0.8816  0.3386
  175SLPC  H10R19830   6.013   1.903   6.256  1.6143  0.4757  2.0022
  175SLPC  C21119831   6.046   1.807   6.058 -0.0532 -1.0615  0.4809
  175SLPC  H11R19832   6.069   1.876   5.974 -1.4550 -0.2285  0.7545
  175SLPC  H11S19833   5.936   1.793   6.059 -0.3857  0.8616 -1.5846
  175SLPC  C21219834   6.106   1.669   6.024 -0.2780 -0.1808  0.2103
  175SLPC  H12R19835   6.097   1.594   6.104  2.5485  0.4271  1.2182
  175SLPC  C21319836   6.183   1.632   5.916  0.1051 -0.1220  0.2091
  175SLPC  H13R19837   6.216   1.528   5.907  0.7154  0.1477 -0.8500
  175SLPC  C21419838   6.227   1.730   5.816  0.4476  0.2580 -0.2261
  175SLPC  H14R19839   6.328   1.714   5.772  0.3256  1.0707 -0.8309
  175SLPC  H14S19840   6.247   1.824   5.872  2.4102 -0.4575  0.3596
  175SLPC  C21519841   6.140   1.769   5.699  0.1598  0.1592 -0.2321
  175SLPC  H15R19842   6.054   1.820   5.747  0.9675  2.4856 -1.1274
  175SLPC  H15S19843   6.113   1.676   5.644  1.2473  0.3126 -1.0599
  175SLPC  C21619844   6.209   1.866   5.599 -0.4430  0.2568  0.6384
  175SLPC  H16R19845   6.309   1.830   5.568 -1.1754 -1.2855 -0.0774
  175SLPC  H16S19846   6.219   1.971   5.633 -1.4094  1.3102 -2.0696
  175SLPC  C21719847   6.124   1.890   5.467  0.1815 -0.0343 -0.5310
  175SLPC  H17R19848   6.018   1.889   5.499  1.0033  0.1650  2.5294
  175SLPC  H17S19849   6.142   1.795   5.413  0.3083  0.0358 -0.6132
  175SLPC  C21819850   6.164   2.009   5.380 -0.2060  0.3878 -0.2127
  175SLPC  H18R19851   6.149   2.105   5.433 -0.1745  0.4637 -0.3397
  175SLPC  H18S19852   6.098   2.012   5.290 -0.9238  0.9095  0.3212
  175SLPC  H18T19853   6.269   2.002   5.344 -0.3349  0.8606 -0.7015
  175SLPC   C3319854   6.644   1.091   6.313 -1.1051 -0.4022 -0.2144
  175SLPC   H3X19855   6.745   1.056   6.282 -1.1527 -0.5745 -0.1779
  175SLPC   H3Y19856   6.668   1.158   6.399  0.0243 -1.4687  0.3432
  175SLPC   C3419857   6.583   1.166   6.198  0.9192 -0.4238 -0.2496
  175SLPC   H4X19858   6.480   1.187   6.235  1.2761 -1.7260  1.6500
  175SLPC   H4Y19859   6.571   1.105   6.106  0.5353  0.7218 -0.9754
  175SLPC   C3519860   6.656   1.293   6.152 -0.3876 -0.4143 -0.3691
  175SLPC   H5X19861   6.760   1.297   6.114 -0.2701  1.8688  0.0023
  175SLPC   H5Y19862   6.664   1.348   6.248  0.4667 -3.3874  1.3656
  175SLPC   C3619863   6.568   1.384   6.062  0.2874 -0.5326  0.5223
  175SLPC   H6X19864   6.559   1.486   6.103 -2.8468  0.2976 -1.8688
  175SLPC   H6Y19865   6.463   1.347   6.067 -0.3132  1.1979  1.6263
  175SLPC   C3719866   6.624   1.396   5.914  0.7448  0.2674  0.1392
  175SLPC   H7X19867   6.621   1.298   5.860  0.3775  0.3447  0.0150
  175SLPC   H7Y19868   6.731   1.425   5.919  0.8521 -0.0760 -0.1047
  175SLPC   C3819869   6.543   1.506   5.839 -0.0822  0.4654 -0.4229
  175SLPC   H8X19870   6.553   1.601   5.895  0.1446 -0.0846  0.4867
  175SLPC   H8Y19871   6.439   1.470   5.824  0.8108 -1.3214 -3.1850
  175SLPC   C3919872   6.605   1.519   5.699  0.6226  0.2383  0.4362
  175SLPC   H9X19873   6.714   1.535   5.716  0.4828  1.0964  0.5731
  175SLPC   H9Y19874   6.558   1.601   5.641  0.5990 -0.2065 -0.1859
  175SLPC  C31019875   6.568   1.393   5.612  0.4344  1.2241 -1.2644
  175SLPC  H10X19876   6.461   1.379   5.639  0.8778  3.7499  2.6695
  175SLPC  H10Y19877   6.610   1.301   5.658 -1.8620  1.0371  0.6824
  175SLPC  C31119878   6.578   1.410   5.461 -0.6109  0.1757  0.2307
  175SLPC  H11X19879   6.665   1.469   5.425 -0.1122 -0.0042  1.1113
  175SLPC  H11Y19880   6.487   1.471   5.440 -1.1809 -1.4901 -2.7776
  175SLPC  C31219881   6.558   1.281   5.386 -0.1287  0.0776  0.0939
  175SLPC  H12X19882   6.480   1.224   5.441 -0.1569  0.4955  0.4929
  175SLPC  H12Y19883   6.654   1.226   5.381  0.2109  0.3598  2.5420
  175SLPC  C31319884   6.495   1.297   5.247 -0.2790 -0.1023 -0.6097
  175SLPC  H13X19885   6.569   1.359   5.192 -1.0646  2.4147  1.0452
  175SLPC  H13Y19886   6.404   1.360   5.255 -0.1284 -0.1026  2.0161
  175SLPC  C31419887   6.476   1.156   5.192 -0.2509 -0.6549  0.5775
  175SLPC  H14X19888   6.398   1.107   5.254  0.8189 -0.3397  2.2058
  175SLPC  H14Y19889   6.559   1.091   5.226 -0.8843 -2.1885 -0.6638
  175SLPC  C31519890   6.430   1.145   5.048 -0.5550 -0.1513  0.6801
  175SLPC  H15X19891   6.336   1.201   5.029  0.6411  1.6589 -0.2876
  175SLPC  H15Y19892   6.421   1.037   5.025  0.4338 -0.4124  1.4569
  175SLPC  C31619893   6.529   1.195   4.943  0.1705  0.2216  0.0820
  175SLPC  H16X19894   6.621   1.137   4.965 -0.1737 -0.5876 -0.5651
  175SLPC  H16Y19895   6.546   1.303   4.964 -0.4344  0.0752  1.4638
  175SLPC  C31719896   6.494   1.182   4.798  0.3288  0.4087  0.3315
  175SLPC  H17X19897   6.390   1.212   4.776 -0.1818 -1.4613  0.0000
  175SLPC  H17Y19898   6.492   1.074   4.771  2.3840  0.5101 -0.3902
  175SLPC  C31819899   6.593   1.256   4.710 -0.0566  0.2473  0.2294
  175SLPC  H18X19900   6.595   1.234   4.602  0.5933  1.4259 -0.0120
  175SLPC  H18Y19901   6.697   1.226   4.733  1.2778  1.8924 -3.0401
  175SLPC  H18Z19902   6.596   1.365   4.734 -2.8379  0.6426 -0.8347
  176SLPC     N19903   5.376   1.094   7.334  0.1192 -0.0791  0.1419
  176SLPC   C1319904   5.311   0.963   7.310  0.4277 -0.0265  0.5153
  176SLPC  H13A19905   5.345   0.883   7.373  1.5133 -0.4726 -0.5917
  176SLPC  H13B19906   5.203   0.964   7.305  0.4628  0.1562 -2.4670
  176SLPC  H13C19907   5.338   0.930   7.211 -1.3291  0.2242 -0.0793
  176SLPC   C1419908   5.337   1.145   7.470 -0.2224 -0.6027  1.1382
  176SLPC  H14A19909   5.353   1.251   7.469 -2.2962 -0.1986 -2.0436
  176SLPC  H14B19910   5.237   1.111   7.494 -0.3453 -0.5308  0.7259
  176SLPC  H14C19911   5.405   1.110   7.547  1.2925 -0.6849 -0.1721
  176SLPC   C1519912   5.317   1.195   7.240 -0.2821  0.6647  0.9575
  176SLPC  H15A19913   5.210   1.189   7.254 -0.5034  0.1913 -0.6604
  176SLPC  H15B19914   5.363   1.292   7.254  0.9907 -0.0217  1.6415
  176SLPC  H15C19915   5.339   1.181   7.135  0.9895 -0.2187  1.3243
  176SLPC   C1219916   5.534   1.085   7.319  0.9696 -0.1026 -0.2647
  176SLPC  H12A19917   5.572   1.026   7.401 -1.7588  0.1449  1.2868
  176SLPC  H12B19918   5.562   1.189   7.326  0.9218 -0.0568 -0.7048
  176SLPC   C1119919   5.585   1.026   7.186  0.8943  0.2500 -0.6489
  176SLPC  H11A19920   5.549   0.921   7.189 -0.6708  0.7583 -0.8697
  176SLPC  H11B19921   5.695   1.020   7.200  0.7809 -2.0931 -0.3544
  176SLPC     P19922   5.629   1.227   7.025 -0.1623 -0.4729  0.0804
  176SLPC   O1319923   5.565   1.297   6.910  0.0742 -0.5028 -0.2984
  176SLPC   O1419924   5.643   1.314   7.143  0.7262  0.3449  0.5937
  176SLPC   O1219925   5.544   1.096   7.064 -0.1224  0.2033  0.2909
  176SLPC   O1119926   5.765   1.166   6.969  0.4508  0.3232 -0.0059
  176SLPC    C119927   5.776   1.048   6.890  0.7172 -0.2661  1.0486
  176SLPC    HA19928   5.862   0.988   6.927  1.2257 -1.5832 -1.9701
  176SLPC    HB19929   5.688   0.985   6.915 -0.2345  1.1351  1.3028
  176SLPC    C219930   5.787   1.080   6.739  0.5690 -0.0199 -0.0029
  176SLPC    HS19931   5.694   1.108   6.686  1.7736  0.0782 -2.2097
  176SLPC   O2119932   5.861   0.973   6.673  0.1392  0.5940  0.0692
  176SLPC   C2119933   5.820   0.931   6.555 -0.1593  0.1962  0.3394
  176SLPC   O2219934   5.715   0.954   6.497 -0.2515  0.0547 -0.6997
  176SLPC   C2219935   5.920   0.822   6.511 -0.2592  0.5432 -0.2077
  176SLPC   H2R19936   6.008   0.805   6.577  0.5781 -1.8645 -1.8174
  176SLPC   H2S19937   5.856   0.731   6.512 -0.9105  0.9587 -1.6608
  176SLPC    C319938   5.865   1.211   6.714  0.6388 -0.1397 -0.0972
  176SLPC    HX19939   5.954   1.209   6.781 -0.2399 -3.4381  1.1754
  176SLPC    HY19940   5.809   1.300   6.750  2.5377  1.1954 -0.2788
  176SLPC   O3119941   5.914   1.218   6.579 -0.2633 -0.0699  0.3079
  176SLPC   C3119942   5.847   1.312   6.505 -0.1190 -0.5825 -0.0852
  176SLPC   O3219943   5.746   1.370   6.544  0.0932  0.5510  0.8840
  176SLPC   C3219944   5.901   1.321   6.366  0.5893 -1.3550  0.7743
  176SLPC   H2X19945   5.910   1.222   6.316 -0.8565 -1.7171  1.1978
  176SLPC   H2Y19946   5.999   1.374   6.360  0.2442 -0.8725 -3.1755
  176SLPC   C2319947   5.967   0.842   6.362 -0.1417 -0.6718 -0.6341
  176SLPC   H3R19948   5.879   0.856   6.295 -0.5673  0.8848  0.2009
  176SLPC   H3S19949   6.021   0.751   6.327  3.2131  0.1416  1.8931
  176SLPC   C2419950   6.066   0.958   6.351  0.6530 -0.4251 -0.2188
  176SLPC   H4R19951   6.163   0.931   6.397  1.6240  1.6588 -0.9307
  176SLPC   H4S19952   6.023   1.047   6.401 -1.3817  0.2640 -2.9364
  176SLPC   C2519953   6.093   1.003   6.207 -0.1188 -0.3246  0.1076
  176SLPC   H5R19954   6.001   1.023   6.149  0.2893 -1.3423 -0.9255
  176SLPC   H5S19955   6.148   0.927   6.148 -0.9563  0.6834 -2.0752
  176SLPC   C2619956   6.177   1.131   6.202 -0.1706 -0.1574 -0.4726
  176SLPC   H6R19957   6.270   1.100   6.255 -0.0893 -1.2875 -1.2448
  176SLPC   H6S19958   6.132   1.209   6.268  0.1593  0.0078 -0.4404
  176SLPC   C2719959   6.204   1.195   6.070 -0.7679  0.0087  0.5227
  176SLPC   H7R19960   6.253   1.295   6.072 -0.2815 -0.1340 -1.4408
  176SLPC   H7S19961   6.109   1.229   6.023  1.7933  2.3362 -3.5713
  176SLPC   C2819962   6.285   1.104   5.976  0.0316 -0.0868 -0.1465
  176SLPC   H8R19963   6.213   1.022   5.954 -0.3816  0.4993 -1.0187
  176SLPC   H8S19964   6.371   1.060   6.032 -0.3908  0.1492  0.7125
  176SLPC   C2919965   6.330   1.167   5.850 -0.0540 -0.0335 -0.1977
  176SLPC   H9R19966   6.439   1.181   5.853 -0.0050 -0.5776  1.5085
  176SLPC  C21019967   6.255   1.203   5.747  0.5703 -0.5290 -0.0486
  176SLPC  H10R19968   6.298   1.245   5.655 -2.3984  0.8769 -0.9394
  176SLPC  C21119969   6.105   1.174   5.737 -0.0651 -0.2531 -0.0399
  176SLPC  H11R19970   6.059   1.127   5.826 -2.4411  1.6996 -0.1544
  176SLPC  H11S19971   6.094   1.117   5.642  1.0022  1.1927 -1.0761
  176SLPC  C21219972   6.044   1.308   5.702 -0.1514  0.1972  0.0694
  176SLPC  H12R19973   6.002   1.358   5.791  0.3601 -1.1961  1.1274
  176SLPC  C21319974   6.008   1.370   5.584 -0.5315  0.6622 -0.1072
  176SLPC  H13R19975   5.974   1.474   5.593  0.8294  0.9697  2.8562
  176SLPC  C21419976   6.015   1.316   5.444 -0.2864  0.2477 -0.1314
  176SLPC  H14R19977   5.929   1.358   5.387 -0.9609  0.5185  1.0645
  176SLPC  H14S19978   6.012   1.205   5.446 -1.1810  0.2739  0.3449
  176SLPC  C21519979   6.150   1.362   5.369  0.2823 -0.2786  0.5721
  176SLPC  H15R19980   6.166   1.287   5.288  1.4060  0.3530  0.1812
  176SLPC  H15S19981   6.235   1.340   5.437 -0.4288  1.3718  2.0630
  176SLPC  C21619982   6.165   1.515   5.326  0.2706  0.0811  0.8961
  176SLPC  H16R19983   6.265   1.559   5.309  0.2448  0.3304  1.3707
  176SLPC  H16S19984   6.101   1.566   5.402  0.6085  0.0060  1.2318
  176SLPC  C21719985   6.096   1.526   5.186 -0.3132 -0.8560 -0.7219
  176SLPC  H17R19986   6.025   1.440   5.182 -0.7035 -0.5654 -0.1485
  176SLPC  H17S19987   6.165   1.525   5.099 -0.8542 -2.9564 -1.1881
  176SLPC  C21819988   6.009   1.650   5.178 -0.8745 -0.0022 -0.0538
  176SLPC  H18R19989   5.995   1.671   5.070  2.2939  1.5955 -0.2723
  176SLPC  H18S19990   6.064   1.738   5.217 -1.0306  0.2262 -0.3387
  176SLPC  H18T19991   5.911   1.638   5.228 -1.3048 -1.9884 -1.2699
  176SLPC   C3319992   5.806   1.397   6.268 -0.1461  0.3652 -0.3760
  176SLPC   H3X19993   5.802   1.499   6.312  1.4250  1.0262 -1.6589
  176SLPC   H3Y19994   5.707   1.349   6.281 -0.8280  2.2670  2.5069
  176SLPC   C3419995   5.851   1.400   6.121  0.4488 -0.6563 -0.2815
  176SLPC   H4X19996   5.845   1.295   6.084 -1.2965 -0.9213  0.6074
  176SLPC   H4Y19997   5.950   1.449   6.112  0.7895 -1.7202 -3.6669
  176SLPC   C3519998   5.745   1.480   6.043 -0.3816 -0.4646  0.2136
  176SLPC   H5X19999   5.760   1.586   6.075  1.4868 -0.4546 -0.5888
  176SLPC   H5Y20000   5.638   1.450   6.055 -0.5843  0.2998  0.4180
  176SLPC   C3620001   5.784   1.494   5.894  0.2210  0.0317 -0.0397
  176SLPC   H6X20002   5.819   1.400   5.846  1.5347  0.2302  0.4917
  176SLPC   H6Y20003   5.878   1.552   5.888  0.0580  0.2228 -0.8450
  176SLPC   C3720004   5.679   1.560   5.811  0.2763 -0.1885 -0.0301
  176SLPC   H7X20005   5.667   1.668   5.834 -3.9957  0.2071 -2.9227
  176SLPC   H7Y20006   5.583   1.507   5.829  0.2163 -0.6683 -1.5902
  176SLPC   C3820007   5.717   1.538   5.660  0.1266  0.2713  0.1766
  176SLPC   H8X20008   5.769   1.441   5.655 -1.1492 -0.7053  3.3431
  176SLPC   H8Y20009   5.778   1.628   5.636 -2.2240  1.8956 -0.1332
  176SLPC   C3920010   5.599   1.540   5.565  0.2705 -0.5117 -0.0285
  176SLPC   H9X20011   5.537   1.632   5.572  0.8309 -0.2056  1.2070
  176SLPC   H9Y20012   5.525   1.459   5.580  0.0208  0.0770  2.2556
  176SLPC  C31020013   5.648   1.525   5.421 -0.4460  0.2278  0.0362
  176SLPC  H10X20014   5.728   1.448   5.417 -0.7218 -0.2057  2.0231
  176SLPC  H10Y20015   5.698   1.616   5.383 -0.5070 -0.1187 -0.9037
  176SLPC  C31120016   5.532   1.498   5.331  0.0106 -0.6427  0.5508
  176SLPC  H11X20017   5.458   1.581   5.334 -2.0283 -2.3854  1.9935
  176SLPC  H11Y20018   5.484   1.403   5.365 -0.9771  0.5614  2.7592
  176SLPC  C31220019   5.577   1.495   5.185  0.1462  0.2239 -0.5330
  176SLPC  H12X20020   5.678   1.448   5.176  0.4439  0.3859  1.5746
  176SLPC  H12Y20021   5.604   1.600   5.162  1.6985 -0.3509 -1.5016
  176SLPC  C31320022   5.476   1.434   5.092  0.0594  0.1648  0.2270
  176SLPC  H13X20023   5.386   1.500   5.094  0.0275  0.1670 -0.7889
  176SLPC  H13Y20024   5.442   1.330   5.107 -0.9507  0.7518  2.5101
  176SLPC  C31420025   5.533   1.427   4.950  0.3017  0.0727  0.1446
  176SLPC  H14X20026   5.621   1.360   4.946  0.8171  0.7766 -1.4520
  176SLPC  H14Y20027   5.578   1.522   4.913 -0.5968  0.0503 -1.0846
  176SLPC  C31520028   5.422   1.374   4.854  0.1517  0.0599 -0.1786
  176SLPC  H15X20029   5.338   1.448   4.853  2.7355  3.2157 -0.1665
  176SLPC  H15Y20030   5.393   1.272   4.887  0.3102  0.5732  1.6464
  176SLPC  C31620031   5.456   1.371   4.704 -0.4669  0.5777  0.2613
  176SLPC  H16X20032   5.542   1.302   4.691 -1.5290 -1.3547  2.7063
  176SLPC  H16Y20033   5.496   1.472   4.679  2.3060 -0.5205 -0.1360
  176SLPC  C31720034   5.351   1.327   4.602  0.0586  0.3693 -0.1402
  176SLPC  H17X20035   5.248   1.352   4.635 -0.4265 -0.3960 -1.0298
  176SLPC  H17Y20036   5.359   1.217   4.588 -1.4286  0.4592 -2.2499
  176SLPC  C31820037   5.371   1.392   4.457 -0.3085 -0.0216 -0.3791
  176SLPC  H18X20038   5.333   1.496   4.465  0.0503  0.1394 -0.7578
  176SLPC  H18Y20039   5.301   1.340   4.387 -0.7487  0.3080 -0.1939
  176SLPC  H18Z20040   5.470   1.380   4.410 -0.6528 -2.9125 -0.5735
  177SLPC     N20041   5.140   2.677   6.683 -0.7945  0.2697  0.1872
  177SLPC   C1320042   5.018   2.752   6.731 -0.0310 -0.4201  0.3307
  177SLPC  H13A20043   5.000   2.826   6.654  2.6919 -1.4084 -1.3969
  177SLPC  H13B20044   4.939   2.680   6.737  1.2553 -1.7881  1.4648
  177SLPC  H13C20045   5.028   2.796   6.829  1.6381 -2.1438  1.0058
  177SLPC   C1420046   5.255   2.779   6.655  0.5554 -0.2406 -0.3280
  177SLPC  H14A20047   5.343   2.736   6.610  1.1676  1.7115 -1.0998
  177SLPC  H14B20048   5.216   2.855   6.590  0.8117  0.6954  0.5823
  177SLPC  H14C20049   5.288   2.825   6.747 -0.7629  0.0318  0.0292
  177SLPC   C1520050   5.111   2.610   6.548 -0.5701  0.1584 -0.4770
  177SLPC  H15A20051   5.034   2.534   6.553 -1.5426  1.1733  0.3410
  177SLPC  H15B20052   5.094   2.680   6.467  2.2181  1.1698 -0.2747
  177SLPC  H15C20053   5.202   2.561   6.516  0.1793 -0.0512  1.8219
  177SLPC   C1220054   5.178   2.567   6.783  0.1896 -0.1035  0.0445
  177SLPC  H12A20055   5.092   2.503   6.793  1.7050 -2.3389 -0.6281
  177SLPC  H12B20056   5.192   2.620   6.876 -0.7842  0.4117 -0.0889
  177SLPC   C1120057   5.306   2.492   6.747 -0.3813  1.0250  0.1608
  177SLPC  H11A20058   5.340   2.441   6.839  0.4035 -1.7913 -1.5669
  177SLPC  H11B20059   5.391   2.560   6.725  0.7106 -0.1937  0.4843
  177SLPC     P20060   5.374   2.287   6.593  0.0707  0.0483 -0.2763
  177SLPC   O1320061   5.414   2.211   6.709  0.7368  0.1328  0.7893
  177SLPC   O1420062   5.321   2.210   6.482 -0.0843 -0.3442  0.0591
  177SLPC   O1220063   5.284   2.405   6.637 -0.2572  0.5127  0.0823
  177SLPC   O1120064   5.494   2.360   6.532 -0.2335 -0.2355  0.0649
  177SLPC    C120065   5.481   2.471   6.435  0.0122  0.0041 -0.1333
  177SLPC    HA20066   5.381   2.518   6.439  0.1212  0.2946 -0.7728
  177SLPC    HB20067   5.558   2.546   6.464 -1.9401  1.4273  1.6546
  177SLPC    C220068   5.517   2.431   6.294  0.0454  0.4337 -0.2673
  177SLPC    HS20069   5.508   2.524   6.234  1.6455  0.4397 -0.5231
  177SLPC   O2120070   5.425   2.331   6.245 -0.1923 -0.2750 -0.5108
  177SLPC   C2120071   5.294   2.360   6.220 -0.3474  0.7761  0.0930
  177SLPC   O2220072   5.242   2.468   6.248 -0.0800 -0.0961 -0.3524
  177SLPC   C2220073   5.225   2.245   6.154  0.6278  0.2971  0.2998
  177SLPC   H2R20074   5.227   2.161   6.227 -3.1651  0.5512  0.8894
  177SLPC   H2S20075   5.120   2.275   6.133 -0.6494 -3.2245  0.9872
  177SLPC    C320076   5.667   2.392   6.281 -0.1631 -0.1790  0.1712
  177SLPC    HX20077   5.698   2.309   6.348  1.3650  0.5729  0.4552
  177SLPC    HY20078   5.730   2.477   6.316 -0.4240  0.0752  0.0253
  177SLPC   O3120079   5.705   2.371   6.142 -0.7285  0.1478 -0.4330
  177SLPC   C3120080   5.696   2.241   6.112  0.0515  0.0527 -0.4031
  177SLPC   O3220081   5.661   2.150   6.190  0.3973  0.3134 -0.0102
  177SLPC   C3220082   5.718   2.235   5.962  0.0521  0.1915  0.3105
  177SLPC   H2X20083   5.799   2.309   5.944 -0.7482  1.7678  2.6794
  177SLPC   H2Y20084   5.631   2.277   5.908  0.3118  2.0719  1.2715
  177SLPC   C2320085   5.293   2.182   6.026  0.1932 -0.3981  0.3582
  177SLPC   H3R20086   5.223   2.104   5.987  2.0610 -1.7135 -0.5543
  177SLPC   H3S20087   5.384   2.126   6.057  1.8503  1.3544 -1.1140
  177SLPC   C2420088   5.333   2.270   5.908 -0.2660  0.2304  0.1635
  177SLPC   H4R20089   5.433   2.318   5.924  1.5900 -3.2527 -0.0162
  177SLPC   H4S20090   5.252   2.342   5.887 -0.9152 -0.4930  0.1487
  177SLPC   C2520091   5.346   2.192   5.777 -0.1992 -0.0709 -0.2491
  177SLPC   H5R20092   5.246   2.146   5.760 -0.1111  0.2644 -1.7639
  177SLPC   H5S20093   5.423   2.112   5.783 -0.4833 -0.3373 -0.1654
  177SLPC   C2620094   5.363   2.280   5.655 -0.3349  0.1150  0.2564
  177SLPC   H6R20095   5.469   2.311   5.638  0.0277 -0.3139  1.5941
  177SLPC   H6S20096   5.306   2.375   5.663 -0.7848  0.1287 -2.3222
  177SLPC   C2720097   5.318   2.214   5.522 -0.7768  0.7443 -0.0199
  177SLPC   H7R20098   5.328   2.282   5.434  0.3515  0.3117 -0.2402
  177SLPC   H7S20099   5.208   2.198   5.534 -0.5885  0.7633  2.0643
  177SLPC   C2820100   5.386   2.071   5.505  0.1876 -0.2316 -0.3952
  177SLPC   H8R20101   5.365   2.013   5.598 -2.6161  2.4823  0.8688
  177SLPC   H8S20102   5.493   2.097   5.490  0.9821 -3.4121 -0.8743
  177SLPC   C2920103   5.353   1.998   5.382  0.2820 -0.0632 -1.2455
  177SLPC   H9R20104   5.371   2.060   5.294  2.1137  1.3130  0.0330
  177SLPC  C21020105   5.305   1.873   5.372  0.5653 -0.1947 -0.0356
  177SLPC  H10R20106   5.295   1.829   5.272 -1.7909 -2.5261  1.0996
  177SLPC  C21120107   5.258   1.779   5.479 -0.2619  0.4101  0.4186
  177SLPC  H11R20108   5.332   1.778   5.561 -1.0816 -1.2882  1.1924
  177SLPC  H11S20109   5.281   1.680   5.434  0.2955  0.5162  0.4692
  177SLPC  C21220110   5.115   1.787   5.518  0.1653  0.6535 -0.0952
  177SLPC  H12R20111   5.041   1.811   5.440 -0.5158 -1.8157 -0.2700
  177SLPC  C21320112   5.069   1.776   5.643  0.1600  0.1153  0.4695
  177SLPC  H13R20113   4.961   1.786   5.663  0.2351  1.2286  0.4073
  177SLPC  C21420114   5.146   1.734   5.761 -0.7696  0.6418 -0.6261
  177SLPC  H14R20115   5.254   1.714   5.742 -1.2298 -1.7923 -1.0072
  177SLPC  H14S20116   5.102   1.638   5.797 -1.0671  0.3558 -1.7331
  177SLPC  C21520117   5.151   1.846   5.867 -0.0795  0.4656 -0.4498
  177SLPC  H15R20118   5.051   1.853   5.915  0.5836 -0.5429  1.1766
  177SLPC  H15S20119   5.180   1.945   5.824 -1.1787  0.4574 -1.2453
  177SLPC  C21620120   5.248   1.804   5.980 -0.0163  0.7606  0.1212
  177SLPC  H16R20121   5.239   1.695   6.000  3.6548  0.4753  0.9023
  177SLPC  H16S20122   5.219   1.863   6.069 -1.0184 -1.2614  1.2166
  177SLPC  C21720123   5.399   1.832   5.951 -0.1329 -0.5323  0.5298
  177SLPC  H17R20124   5.401   1.942   5.931 -1.1511 -0.5601  0.2061
  177SLPC  H17S20125   5.430   1.787   5.854 -2.4287  1.9347 -1.5064
  177SLPC  C21820126   5.480   1.788   6.077 -0.0467 -0.2288  0.4941
  177SLPC  H18R20127   5.578   1.837   6.094  0.1041 -0.8088  1.3269
  177SLPC  H18S20128   5.504   1.680   6.077  1.5135  0.0404  2.5583
  177SLPC  H18T20129   5.406   1.812   6.157  0.0963  3.6706 -0.3381
  177SLPC   C3320130   5.754   2.104   5.903  0.8467  0.0092  0.3313
  177SLPC   H3X20131   5.691   2.018   5.935 -0.7645  0.9791 -0.1207
  177SLPC   H3Y20132   5.856   2.072   5.934  1.1238  0.4608 -0.1025
  177SLPC   C3420133   5.759   2.121   5.748  0.2837 -0.6991 -0.0415
  177SLPC   H4X20134   5.848   2.186   5.734  0.6825 -1.6066 -2.2660
  177SLPC   H4Y20135   5.668   2.177   5.719 -0.7210 -0.9223  2.4589
  177SLPC   C3520136   5.774   1.998   5.669  0.7670  0.4200  0.2056
  177SLPC   H5X20137   5.687   1.931   5.686  0.3208  0.9799  0.1633
  177SLPC   H5Y20138   5.866   1.942   5.693  0.9837 -0.4842 -2.4188
  177SLPC   C3620139   5.770   2.037   5.521  0.2529  0.3717  0.3530
  177SLPC   H6X20140   5.866   2.083   5.488  1.4979 -1.6531  0.9874
  177SLPC   H6Y20141   5.695   2.115   5.497 -2.2037 -1.9188  0.0815
  177SLPC   C3720142   5.721   1.919   5.427 -0.8900  0.0735 -0.0678
  177SLPC   H7X20143   5.613   1.918   5.454 -0.6129  5.0626  2.4056
  177SLPC   H7Y20144   5.768   1.823   5.455  0.2516 -0.5637 -3.7318
  177SLPC   C3820145   5.747   1.947   5.279 -0.1813  0.3429  0.2906
  177SLPC   H8X20146   5.856   1.949   5.256 -0.1256 -1.4866  0.2402
  177SLPC   H8Y20147   5.710   2.051   5.266 -0.7752  0.2554  1.1590
  177SLPC   C3920148   5.675   1.841   5.201 -0.3112 -0.4485 -0.3039
  177SLPC   H9X20149   5.574   1.829   5.246 -0.8001 -3.1002 -1.8807
  177SLPC   H9Y20150   5.729   1.745   5.214  0.6080  0.0057 -0.6105
  177SLPC  C31020151   5.672   1.847   5.046  0.2203  0.3901  0.4410
  177SLPC  H10X20152   5.655   1.751   4.994  2.3719  1.5793 -2.8023
  177SLPC  H10Y20153   5.773   1.880   5.012  0.6161 -0.4325  0.8062
  177SLPC  C31120154   5.576   1.952   4.989  0.4559 -0.3731 -0.8042
  177SLPC  H11X20155   5.556   2.028   5.067 -0.4114 -0.4057 -0.9826
  177SLPC  H11Y20156   5.485   1.889   4.985 -0.3882  0.5237  2.0378
  177SLPC  C31220157   5.610   2.015   4.856  0.1754  0.1460  0.2480
  177SLPC  H12X20158   5.602   1.935   4.780 -1.5083  0.2312  0.3165
  177SLPC  H12Y20159   5.713   2.057   4.866  0.7555 -0.8370 -1.2436
  177SLPC  C31320160   5.508   2.119   4.805 -0.1829 -0.4417  0.3444
  177SLPC  H13X20161   5.505   2.205   4.876  0.3845  1.4624 -1.8022
  177SLPC  H13Y20162   5.413   2.062   4.808  0.1014 -0.9062  2.9058
  177SLPC  C31420163   5.521   2.180   4.662 -0.5435  0.0507  0.0708
  177SLPC  H14X20164   5.443   2.256   4.643 -1.1843 -1.2244 -2.8618
  177SLPC  H14Y20165   5.503   2.100   4.587  1.0510  0.0716 -0.3577
  177SLPC  C31520166   5.665   2.239   4.643  0.1555 -0.1185  0.6512
  177SLPC  H15X20167   5.677   2.268   4.537  0.0022 -0.6247  0.4886
  177SLPC  H15Y20168   5.735   2.155   4.662  0.7803  0.4144  0.7295
  177SLPC  C31620169   5.713   2.354   4.731 -0.4011 -0.4342  0.3041
  177SLPC  H16X20170   5.684   2.318   4.832 -1.6982 -0.0667  0.0835
  177SLPC  H16Y20171   5.655   2.445   4.703  2.0251  1.8786  2.2836
  177SLPC  C31720172   5.860   2.386   4.736 -0.3649  0.0177 -0.0156
  177SLPC  H17X20173   5.893   2.423   4.637 -2.1524  1.1737 -0.2162
  177SLPC  H17Y20174   5.911   2.293   4.767 -2.0470 -1.4732 -1.5235
  177SLPC  C31820175   5.882   2.509   4.832 -0.2426  0.3060  0.2347
  177SLPC  H18X20176   5.986   2.546   4.834  0.1492 -0.7862  1.7897
  177SLPC  H18Y20177   5.853   2.470   4.932 -1.3620  1.5860  0.4429
  177SLPC  H18Z20178   5.820   2.592   4.791 -1.0366 -0.4698 -0.1686
  178SLPC     N20179   4.187   5.117   6.813  0.6536 -0.2059 -0.2721
  178SLPC   C1320180   4.215   4.982   6.858 -0.0083 -0.1860 -0.0336
  178SLPC  H13A20181   4.125   4.928   6.833  0.7241 -1.2977 -0.3332
  178SLPC  H13B20182   4.301   4.944   6.805 -0.4680  0.1528 -1.0394
  178SLPC  H13C20183   4.227   4.975   6.966  2.6072 -0.4590 -0.2589
  178SLPC   C1420184   4.315   5.194   6.827  0.2919  1.0384  0.5144
  178SLPC  H14A20185   4.349   5.189   6.930  1.6032  0.1352  0.0627
  178SLPC  H14B20186   4.389   5.137   6.773 -0.3602  0.2592  0.4289
  178SLPC  H14C20187   4.307   5.294   6.788  0.4827  1.3958  1.3752
  178SLPC   C1520188   4.089   5.184   6.904 -0.6331 -0.0774  0.5883
  178SLPC  H15A20189   3.993   5.139   6.885  0.6819 -2.5590 -0.6451
  178SLPC  H15B20190   4.123   5.181   7.007 -0.4059  0.4145  0.5316
  178SLPC  H15C20191   4.086   5.289   6.879 -0.4036 -0.3018 -0.4482
  178SLPC   C1220192   4.142   5.119   6.664 -0.5052 -0.5194 -0.8264
  178SLPC  H12A20193   4.220   5.078   6.603  0.6716  0.0618  0.2408
  178SLPC  H12B20194   4.122   5.223   6.642 -0.7929  0.0689  1.8730
  178SLPC   C1120195   4.018   5.043   6.624 -0.0585 -0.7803  0.6114
  178SLPC  H11A20196   3.997   5.051   6.515 -0.9343 -4.2583  0.4211
  178SLPC  H11B20197   3.934   5.091   6.678  0.9942  0.9705  0.7978
  178SLPC     P20198   3.912   4.806   6.668  0.0287 -0.3285  0.1139
  178SLPC   O1320199   3.953   4.667   6.656  0.4029  0.9676  0.0303
  178SLPC   O1420200   3.832   4.835   6.790  0.1793  0.6507  0.2989
  178SLPC   O1220201   4.035   4.904   6.653  0.6707  0.4632 -0.0277
  178SLPC   O1120202   3.810   4.845   6.552 -0.1406 -0.1475  0.2063
  178SLPC    C120203   3.781   4.760   6.443  0.1004 -0.1354 -0.0835
  178SLPC    HA20204   3.758   4.655   6.473 -3.5087  0.2285 -1.2050
  178SLPC    HB20205   3.692   4.804   6.393 -0.6697 -0.0711  1.3104
  178SLPC    C220206   3.902   4.742   6.345  0.2820  0.0906  0.3865
  178SLPC    HS20207   3.964   4.666   6.399  0.3127  0.3103  0.6618
  178SLPC   O2120208   3.977   4.864   6.332  0.4818  0.4480 -0.1425
  178SLPC   C2120209   4.094   4.839   6.283  0.1174 -1.3923  0.2246
  178SLPC   O2220210   4.144   4.727   6.275  0.1808  0.1611  0.2295
  178SLPC   C2220211   4.152   4.966   6.236 -0.3806 -0.5043 -0.3243
  178SLPC   H2R20212   4.076   5.031   6.187  0.0477 -1.3443 -2.2026
  178SLPC   H2S20213   4.175   5.025   6.327 -2.6659  2.9762 -1.7874
  178SLPC    C320214   3.859   4.673   6.207 -0.0714 -0.1537 -0.3524
  178SLPC    HX20215   3.818   4.573   6.228  1.6993 -0.9377 -0.4185
  178SLPC    HY20216   3.958   4.654   6.159  0.4100  0.5324  0.3466
  178SLPC   O3120217   3.785   4.756   6.115  0.1548 -0.0431 -0.4691
  178SLPC   C3120218   3.649   4.734   6.116  0.1533 -0.1876 -0.0122
  178SLPC   O3220219   3.593   4.653   6.181 -0.0284 -0.1888 -0.5311
  178SLPC   C3220220   3.586   4.841   6.021 -0.5850 -0.5436 -0.1921
  178SLPC   H2X20221   3.648   4.855   5.930 -0.3661  3.0332  0.3903
  178SLPC   H2Y20222   3.588   4.929   6.089 -1.2543  0.5114 -1.5019
  178SLPC   C2320223   4.268   4.947   6.145 -0.0547 -0.5278  0.2610
  178SLPC   H3R20224   4.352   4.894   6.196  2.1746 -0.2719 -2.8270
  178SLPC   H3S20225   4.321   5.042   6.123  0.0617 -0.3928  1.1067
  178SLPC   C2420226   4.243   4.881   6.016 -0.5264 -0.0471 -0.1344
  178SLPC   H4R20227   4.211   4.775   6.029  2.2269 -1.4244 -3.0025
  178SLPC   H4S20228   4.343   4.861   5.972  0.1521 -0.5371  1.5547
  178SLPC   C2520229   4.140   4.941   5.918 -0.2179  0.7166 -0.2408
  178SLPC   H5R20230   4.187   5.036   5.886 -1.8359  1.3064 -0.9523
  178SLPC   H5S20231   4.039   4.965   5.957 -0.4001  2.5513 -1.6810
  178SLPC   C2620232   4.133   4.854   5.789 -0.0305  0.1022 -0.4038
  178SLPC   H6R20233   4.064   4.767   5.800 -1.0392  1.0751  1.5904
  178SLPC   H6S20234   4.241   4.829   5.781  0.4698  1.4058  1.4908
  178SLPC   C2720235   4.088   4.934   5.666 -0.3810 -0.3302 -0.3785
  178SLPC   H7R20236   4.123   5.039   5.675  0.2055 -0.6353  1.2039
  178SLPC   H7S20237   3.977   4.941   5.673 -0.3346 -0.9141  1.4548
  178SLPC   C2820238   4.130   4.883   5.526  0.1363  0.1106  0.0951
  178SLPC   H8R20239   4.093   4.964   5.459 -0.7853  0.4206  0.9551
  178SLPC   H8S20240   4.083   4.783   5.516  1.1603 -0.4425  0.7411
  178SLPC   C2920241   4.281   4.871   5.501 -0.8194  0.1128  1.1323
  178SLPC   H9R20242   4.344   4.819   5.574  1.8520 -0.2258 -1.2174
  178SLPC  C21020243   4.329   4.880   5.372 -0.0852 -0.5178 -0.6483
  178SLPC  H10R20244   4.436   4.862   5.352 -0.1696 -2.4082  0.3722
  178SLPC  C21120245   4.261   4.916   5.243 -0.2569 -0.2205 -0.8759
  178SLPC  H11R20246   4.273   5.024   5.221  0.8768  0.3177  2.0321
  178SLPC  H11S20247   4.152   4.896   5.252 -0.0009 -0.7370  2.5278
  178SLPC  C21220248   4.328   4.842   5.130 -0.1067 -0.3466 -0.5793
  178SLPC  H12R20249   4.388   4.751   5.146 -1.6750 -1.5331 -1.1823
  178SLPC  C21320250   4.348   4.897   5.009  1.0046  0.8109  0.5497
  178SLPC  H13R20251   4.405   4.845   4.931  3.3285  1.9670  1.3961
  178SLPC  C21420252   4.269   5.009   4.966 -0.6956 -0.8382 -0.8426
  178SLPC  H14R20253   4.334   5.098   4.950 -1.9119  0.0806 -0.8645
  178SLPC  H14S20254   4.180   5.019   5.033 -0.5057 -2.8803 -0.2105
  178SLPC  C21520255   4.218   4.984   4.828 -0.3924 -0.6487  0.4881
  178SLPC  H15R20256   4.153   4.893   4.820  1.1979 -1.8753  0.9998
  178SLPC  H15S20257   4.301   4.970   4.756 -0.4667  0.2797  0.2095
  178SLPC  C21620258   4.145   5.105   4.764  0.5435 -0.5439  0.0536
  178SLPC  H16R20259   4.212   5.193   4.756 -0.0980 -0.0692 -0.2477
  178SLPC  H16S20260   4.061   5.141   4.827 -2.0472  1.5023 -4.1082
  178SLPC  C21720261   4.099   5.071   4.618 -0.7528  0.6197  0.2507
  178SLPC  H17R20262   4.036   4.979   4.624  0.6964 -0.3862  0.8573
  178SLPC  H17S20263   4.194   5.047   4.566 -1.4058 -1.6317 -0.0059
  178SLPC  C21820264   4.016   5.181   4.552  0.0372 -0.4300 -0.1844
  178SLPC  H18R20265   3.979   5.149   4.452 -1.8550 -1.0225  0.6619
  178SLPC  H18S20266   4.076   5.275   4.555  0.9416 -0.9746 -0.8252
  178SLPC  H18T20267   3.933   5.210   4.621  2.4665  1.8790  2.0168
  178SLPC   C3320268   3.442   4.796   5.980 -0.1450  0.0199  0.4380
  178SLPC   H3X20269   3.387   4.733   6.054 -3.1290 -0.5442 -2.0553
  178SLPC   H3Y20270   3.438   4.735   5.887 -0.2929 -0.0695  0.5022
  178SLPC   C3420271   3.351   4.917   5.956 -0.2608 -0.6054  0.0145
  178SLPC   H4X20272   3.385   4.994   6.028 -0.3540  0.2836 -0.8688
  178SLPC   H4Y20273   3.246   4.888   5.978 -0.8875 -1.8123 -3.7368
  178SLPC   C3520274   3.351   4.965   5.809 -0.0293 -0.1527 -0.3216
  178SLPC   H5X20275   3.251   5.013   5.799 -1.0604 -2.4864 -2.4316
  178SLPC   H5Y20276   3.337   4.882   5.736  0.1795 -1.8825  1.5455
  178SLPC   C3620277   3.465   5.061   5.783  0.2972 -0.3350  0.1394
  178SLPC   H6X20278   3.568   5.021   5.776  0.2417 -0.5495  0.5257
  178SLPC   H6Y20279   3.466   5.137   5.865  1.4244  0.3617 -0.4899
  178SLPC   C3720280   3.435   5.134   5.650 -0.0700 -0.8447 -0.3116
  178SLPC   H7X20281   3.336   5.182   5.661 -0.9099 -2.7838  1.4061
  178SLPC   H7Y20282   3.427   5.056   5.571 -0.9004 -0.2757 -0.7893
  178SLPC   C3820283   3.554   5.225   5.607  0.2296  0.0352 -0.6357
  178SLPC   H8X20284   3.641   5.161   5.584  2.4053  1.3905  2.9195
  178SLPC   H8Y20285   3.579   5.297   5.688  0.5149  0.4579 -1.1000
  178SLPC   C3920286   3.513   5.303   5.485  0.6783  0.6829 -0.0330
  178SLPC   H9X20287   3.423   5.365   5.502  1.3571  1.9779 -0.9617
  178SLPC   H9Y20288   3.474   5.228   5.413 -1.1997  0.5982  1.0263
  178SLPC  C31020289   3.625   5.383   5.422  0.0216  0.4545 -0.3468
  178SLPC  H10X20290   3.713   5.317   5.435 -0.8677 -0.5061  1.0439
  178SLPC  H10Y20291   3.639   5.474   5.484 -2.2199  0.6029  0.0135
  178SLPC  C31120292   3.585   5.418   5.276 -0.5720 -0.3704  0.8268
  178SLPC  H11X20293   3.479   5.451   5.271  0.0292  1.5554 -0.1283
  178SLPC  H11Y20294   3.600   5.325   5.217 -0.6825  0.0402  0.1402
  178SLPC  C31220295   3.664   5.542   5.213  0.2160 -0.1179 -0.2736
  178SLPC  H12X20296   3.764   5.505   5.181  0.4532 -1.6019  1.9908
  178SLPC  H12Y20297   3.667   5.630   5.281 -0.8766  0.1969 -0.6211
  178SLPC  C31320298   3.592   5.581   5.077  0.0169  0.1188 -0.3831
  178SLPC  H13X20299   3.481   5.581   5.084  0.0022 -2.3790  0.6389
  178SLPC  H13Y20300   3.601   5.498   5.003 -0.9675 -1.3513  1.0647
  178SLPC  C31420301   3.646   5.716   5.035 -0.4866  0.4374  0.1389
  178SLPC  H14X20302   3.757   5.714   5.023 -0.6094  1.5247 -1.6156
  178SLPC  H14Y20303   3.630   5.790   5.116  2.1863  1.4293 -0.1208
  178SLPC  C31520304   3.575   5.776   4.909 -0.5517 -0.4906  0.1300
  178SLPC  H15X20305   3.475   5.814   4.941  0.1212  2.3361 -0.7843
  178SLPC  H15Y20306   3.562   5.695   4.835 -0.6613 -0.9035  0.5971
  178SLPC  C31620307   3.654   5.893   4.846 -0.8356  0.3582 -0.0685
  178SLPC  H16X20308   3.761   5.868   4.836 -0.4467  1.1539  1.7980
  178SLPC  H16Y20309   3.640   5.983   4.910  0.7488  0.8564 -0.3814
  178SLPC  C31720310   3.598   5.921   4.704 -0.2911 -0.3598 -0.4241
  178SLPC  H17X20311   3.489   5.897   4.709 -0.2800 -0.1247  1.2152
  178SLPC  H17Y20312   3.645   5.857   4.626  2.3519 -0.0330  0.8089
  178SLPC  C31820313   3.624   6.064   4.683 -0.4726 -0.7237  0.6173
  178SLPC  H18X20314   3.588   6.126   4.769 -0.5124 -0.2073  0.2342
  178SLPC  H18Y20315   3.578   6.110   4.593 -1.3435  2.2395  2.3998
  178SLPC  H18Z20316   3.733   6.084   4.677 -0.9429  2.0667 -0.6028
  179SLPC     N20317   3.186   2.399   2.001 -0.9387  0.1676 -0.3045
  179SLPC   C1320318   3.128   2.303   2.091 -0.1608  0.8248 -0.0527
  179SLPC  H13A20319   3.190   2.216   2.109 -0.8941 -0.3653 -2.6473
  179SLPC  H13B20320   3.116   2.359   2.182  2.9538  0.1705  0.8635
  179SLPC  H13C20321   3.030   2.277   2.052  0.4889 -0.4284 -0.9140
  179SLPC   C1420322   3.201   2.347   1.864 -0.7400  0.4041  0.2025
  179SLPC  H14A20323   3.109   2.326   1.812 -1.3048  0.2955  1.2202
  179SLPC  H14B20324   3.253   2.426   1.812 -2.2932  1.7754  0.6907
  179SLPC  H14C20325   3.258   2.255   1.867 -3.2431 -1.2421  0.3061
  179SLPC   C1520326   3.320   2.428   2.064 -0.4402  0.4469  0.5891
  179SLPC  H15A20327   3.387   2.344   2.053 -0.6575  0.5328 -1.9179
  179SLPC  H15B20328   3.352   2.519   2.015 -1.9631  1.3353  1.1658
  179SLPC  H15C20329   3.314   2.454   2.169  0.2591  1.3812  0.4094
  179SLPC   C1220330   3.103   2.528   2.001  0.3204  0.1589 -0.0259
  179SLPC  H12A20331   3.077   2.548   2.103  3.0493 -0.1872  0.8402
  179SLPC  H12B20332   3.014   2.502   1.946  1.1311 -1.2365 -0.7542
  179SLPC   C1120333   3.161   2.658   1.940 -0.7824  0.8997  0.4999
  179SLPC  H11A20334   3.079   2.733   1.939 -3.2867 -1.6426  2.3914
  179SLPC  H11B20335   3.198   2.637   1.837 -0.0294 -1.4799  1.2031
  179SLPC     P20336   3.346   2.837   1.994  0.0343 -0.0433 -0.1407
  179SLPC   O1320337   3.483   2.816   1.943  0.1969 -0.3022 -0.3830
  179SLPC   O1420338   3.264   2.927   1.915  0.2392 -0.5619  0.3573
  179SLPC   O1220339   3.277   2.695   2.014 -0.0464 -0.2906  0.0870
  179SLPC   O1120340   3.368   2.885   2.144  0.5083 -0.3293  0.3235
  179SLPC    C120341   3.373   2.806   2.262 -0.3745  0.6755  0.3359
  179SLPC    HA20342   3.431   2.713   2.241 -0.9783  0.7289 -1.7518
  179SLPC    HB20343   3.419   2.853   2.352 -0.3564  2.1114 -0.4072
  179SLPC    C220344   3.233   2.768   2.316  0.3090 -0.2946 -0.6850
  179SLPC    HS20345   3.186   2.710   2.233 -0.2544 -1.8493  0.6624
  179SLPC   O2120346   3.162   2.893   2.353  0.3937 -0.4230 -0.6132
  179SLPC   C2120347   3.066   2.928   2.272 -0.1194  0.1616 -0.2019
  179SLPC   O2220348   3.057   2.878   2.162 -0.4383 -0.2648 -0.3689
  179SLPC   C2220349   2.987   3.051   2.320 -0.7781  0.1188  0.7750
  179SLPC   H2R20350   3.060   3.129   2.352  1.1319 -1.4618  0.5257
  179SLPC   H2S20351   2.926   3.091   2.237 -1.3018 -2.9931 -0.4678
  179SLPC    C320352   3.248   2.676   2.441  0.5438 -0.3141  0.0004
  179SLPC    HX20353   3.304   2.728   2.521 -2.2661  2.6290  0.2758
  179SLPC    HY20354   3.303   2.585   2.408 -0.8220 -0.9850 -0.4915
  179SLPC   O3120355   3.119   2.646   2.504  0.3792 -0.1387  0.3910
  179SLPC   C3120356   3.045   2.568   2.417  0.2736  0.2193  0.4392
  179SLPC   O3220357   3.087   2.516   2.314  0.2435  0.8303 -0.2835
  179SLPC   C3220358   2.899   2.560   2.462  0.0901  0.1380 -0.4896
  179SLPC   H2X20359   2.831   2.571   2.374  0.4137 -0.2722 -0.7928
  179SLPC   H2Y20360   2.888   2.648   2.528  0.6973 -1.0422  1.2482
  179SLPC   C2320361   2.889   3.024   2.435 -0.4344 -0.0640  1.0102
  179SLPC   H3R20362   2.816   2.947   2.401  2.0612 -2.9473  1.7405
  179SLPC   H3S20363   2.846   3.124   2.455 -0.9953  0.0284 -0.5373
  179SLPC   C2420364   2.971   2.973   2.551  0.2429  0.2095  0.1106
  179SLPC   H4R20365   3.072   3.019   2.557 -0.1321  1.2167 -0.9870
  179SLPC   H4S20366   2.988   2.864   2.539 -1.1270  0.0407 -0.3883
  179SLPC   C2520367   2.894   2.995   2.678 -0.2912 -0.2399  0.3342
  179SLPC   H5R20368   2.784   3.005   2.666 -0.1162  0.0471 -1.3430
  179SLPC   H5S20369   2.914   3.096   2.719 -2.5715  0.4866 -0.1764
  179SLPC   C2620370   2.936   2.888   2.778 -0.7125 -0.1697  0.2793
  179SLPC   H6R20371   3.047   2.886   2.785 -0.3867  1.3626 -2.6795
  179SLPC   H6S20372   2.891   2.789   2.754 -1.4213  0.4768 -1.1945
  179SLPC   C2720373   2.871   2.904   2.919  0.0432 -0.0225 -0.0922
  179SLPC   H7R20374   2.899   2.817   2.982  0.6098 -0.3136 -0.7280
  179SLPC   H7S20375   2.762   2.899   2.900 -0.0067  0.7804 -0.0552
  179SLPC   C2820376   2.895   3.040   2.994 -0.0589 -0.1016 -0.2674
  179SLPC   H8R20377   2.824   3.043   3.079 -0.1545  3.8759 -0.3407
  179SLPC   H8S20378   2.876   3.126   2.926 -0.2240 -1.6675 -2.3246
  179SLPC   C2920379   3.042   3.047   3.034 -0.4653 -0.3425 -0.5678
  179SLPC   H9R20380   3.115   3.012   2.960  0.0723  1.1966 -0.8083
  179SLPC  C21020381   3.090   3.082   3.155  0.3090  0.8789 -0.3912
  179SLPC  H10R20382   3.198   3.074   3.172  0.2426  0.4820 -0.1192
  179SLPC  C21120383   2.995   3.135   3.263 -0.5130 -1.0439  0.5226
  179SLPC  H11R20384   2.938   3.045   3.294  0.1667 -2.0377 -0.9762
  179SLPC  H11S20385   2.921   3.206   3.220  1.1986  0.6088  0.1706
  179SLPC  C21220386   3.067   3.199   3.383 -0.3745 -0.3023  0.1062
  179SLPC  H12R20387   3.170   3.238   3.378 -0.4197  0.0045  1.3003
  179SLPC  C21320388   3.006   3.225   3.497  0.4933  0.3148 -0.0509
  179SLPC  H13R20389   3.070   3.257   3.580  3.6289 -0.7394 -1.9182
  179SLPC  C21420390   2.861   3.187   3.534  0.1307 -0.2554  0.1904
  179SLPC  H14R20391   2.829   3.098   3.476  0.8485 -1.8404  2.1271
  179SLPC  H14S20392   2.802   3.278   3.511  0.4108  0.8239  3.2808
  179SLPC  C21520393   2.846   3.167   3.689 -0.6666  0.3941 -0.3034
  179SLPC  H15R20394   2.739   3.140   3.705 -0.2510 -1.5528 -0.5555
  179SLPC  H15S20395   2.856   3.268   3.734 -0.9182 -0.2023  1.1301
  179SLPC  C21620396   2.936   3.054   3.742  0.5056 -0.0293 -0.3545
  179SLPC  H16R20397   3.041   3.089   3.747  0.6525 -0.6113  1.5267
  179SLPC  H16S20398   2.931   2.965   3.677  0.5384  0.3725 -0.9178
  179SLPC  C21720399   2.898   3.009   3.877  0.0744 -0.6042 -0.3516
  179SLPC  H17R20400   2.969   2.930   3.910  0.6642 -0.0237 -0.2234
  179SLPC  H17S20401   2.796   2.967   3.887  0.8258 -2.0556  2.4750
  179SLPC  C21820402   2.908   3.125   3.980 -0.2836 -0.1966 -0.5691
  179SLPC  H18R20403   2.865   3.218   3.937  0.0404  0.1873 -0.0660
  179SLPC  H18S20404   3.017   3.134   4.001 -0.1749 -3.0393  0.5668
  179SLPC  H18T20405   2.860   3.095   4.075 -0.1959 -0.6636 -0.6655
  179SLPC   C3320406   2.864   2.436   2.553  0.4364  0.0707 -0.0448
  179SLPC   H3X20407   2.903   2.467   2.653  0.1554  0.4853 -0.0607
  179SLPC   H3Y20408   2.908   2.343   2.511 -0.0995 -0.9017  1.4464
  179SLPC   C3420409   2.712   2.409   2.554  0.0278 -0.7280  0.0137
  179SLPC   H4X20410   2.681   2.312   2.598 -4.2364 -1.1457 -3.3093
  179SLPC   H4Y20411   2.679   2.420   2.449  0.8024  1.9177 -0.0338
  179SLPC   C3520412   2.639   2.512   2.644  0.8369 -0.1434  0.2991
  179SLPC   H5X20413   2.655   2.616   2.607 -2.0621  0.2386 -0.1650
  179SLPC   H5Y20414   2.530   2.499   2.628  1.0022 -0.6283 -0.4681
  179SLPC   C3620415   2.657   2.508   2.799  0.1691 -0.1917 -0.1854
  179SLPC   H6X20416   2.763   2.531   2.825  0.2184 -1.3360  0.7531
  179SLPC   H6Y20417   2.617   2.413   2.841  0.4817 -0.6161 -0.8256
  179SLPC   C3720418   2.578   2.615   2.869  0.0490 -0.4390 -0.2106
  179SLPC   H7X20419   2.474   2.620   2.829 -1.1069 -0.1061  2.5793
  179SLPC   H7Y20420   2.617   2.717   2.854 -1.6660  0.2318 -0.3715
  179SLPC   C3820421   2.565   2.591   3.027  0.5270  0.9421  0.4377
  179SLPC   H8X20422   2.581   2.482   3.041  0.9102  0.5656 -2.2955
  179SLPC   H8Y20423   2.459   2.619   3.048 -0.3782 -2.4171  0.8842
  179SLPC   C3920424   2.666   2.679   3.093  1.0388 -0.0121  0.1855
  179SLPC   H9X20425   2.647   2.786   3.071 -0.8730 -0.4223 -0.3522
  179SLPC   H9Y20426   2.766   2.640   3.063  0.1698 -2.1235 -0.1529
  179SLPC  C31020427   2.656   2.669   3.250  0.0181 -0.6991 -0.0653
  179SLPC  H10X20428   2.738   2.719   3.304 -1.9535  2.7010  0.0728
  179SLPC  H10Y20429   2.657   2.564   3.288  0.0659 -0.8416 -0.4540
  179SLPC  C31120430   2.519   2.722   3.300  0.1455 -0.1136 -0.1729
  179SLPC  H11X20431   2.439   2.669   3.245 -0.7937 -0.2072  1.2409
  179SLPC  H11Y20432   2.509   2.832   3.290 -0.4632 -0.2971 -1.8651
  179SLPC  C31220433   2.502   2.698   3.450  0.2076  0.1893  0.7778
  179SLPC  H12X20434   2.476   2.591   3.464 -0.5331  0.6263  3.2869
  179SLPC  H12Y20435   2.412   2.756   3.480 -0.4072 -1.1333  1.5952
  179SLPC  C31320436   2.612   2.761   3.541  0.0443  0.5545  0.5063
  179SLPC  H13X20437   2.624   2.866   3.508  0.1314  0.4198  0.1030
  179SLPC  H13Y20438   2.700   2.698   3.516 -0.0469 -0.0217  1.5623
  179SLPC  C31420439   2.571   2.736   3.686 -0.1625 -0.5658 -0.5356
  179SLPC  H14X20440   2.646   2.781   3.755 -1.4341  0.1107  0.4563
  179SLPC  H14Y20441   2.561   2.631   3.719 -0.6765  0.0911  1.5166
  179SLPC  C31520442   2.447   2.823   3.729 -0.5336  0.3194 -0.1033
  179SLPC  H15X20443   2.357   2.805   3.666  1.0474 -2.5189 -1.7130
  179SLPC  H15Y20444   2.481   2.929   3.721  2.3692 -0.4290  1.2708
  179SLPC  C31620445   2.396   2.807   3.877 -0.3831  0.3679  0.5028
  179SLPC  H16X20446   2.394   2.696   3.888  1.0034  0.2355 -0.2220
  179SLPC  H16Y20447   2.293   2.848   3.878 -0.0517  1.2948 -0.8583
  179SLPC  C31720448   2.481   2.877   3.984  0.1004  0.1205  0.3286
  179SLPC  H17X20449   2.497   2.985   3.962  1.4710  0.1338  1.3215
  179SLPC  H17Y20450   2.581   2.832   3.972  0.1102 -0.0082  0.9057
  179SLPC  C31820451   2.437   2.853   4.127 -0.4417  0.5499 -0.5182
  179SLPC  H18X20452   2.418   2.745   4.149 -2.8104  1.4294  2.5982
  179SLPC  H18Y20453   2.336   2.893   4.151 -0.5034  0.9241 -1.3716
  179SLPC  H18Z20454   2.512   2.894   4.198 -1.9652  0.0564  1.4645
  180SLPC     N20455   5.510   1.436   2.237  0.2623 -0.6538  1.1636
  180SLPC   C1320456   5.600   1.546   2.185 -0.7092  1.0165 -0.5710
  180SLPC  H13A20457   5.543   1.623   2.135 -1.0336  2.1852  1.4565
  180SLPC  H13B20458   5.655   1.595   2.265 -1.0179 -0.8062  0.8209
  180SLPC  H13C20459   5.678   1.511   2.120  0.5127 -0.0651  1.3876
  180SLPC   C1420460   5.451   1.367   2.114  0.5028 -0.6799  0.5100
  180SLPC  H14A20461   5.375   1.296   2.141  0.6556 -0.3628  1.8626
  180SLPC  H14B20462   5.403   1.436   2.046 -0.9621  0.6810  2.7712
  180SLPC  H14C20463   5.520   1.305   2.058 -0.6681  0.0114 -1.8323
  180SLPC   C1520464   5.405   1.521   2.308  0.0519 -0.3669 -0.8030
  180SLPC  H15A20465   5.329   1.464   2.360 -0.4211 -0.0232 -1.1137
  180SLPC  H15B20466   5.451   1.568   2.394 -1.5470  1.5424 -0.9268
  180SLPC  H15C20467   5.368   1.594   2.238  0.9658 -0.5851 -1.5406
  180SLPC   C1220468   5.578   1.351   2.327 -0.2621  0.1858 -0.1884
  180SLPC  H12A20469   5.506   1.281   2.366 -0.5577  0.3678 -0.3985
  180SLPC  H12B20470   5.624   1.408   2.406 -0.4362 -1.0645  0.8477
  180SLPC   C1120471   5.694   1.261   2.267  0.2491 -0.1115 -0.7010
  180SLPC  H11A20472   5.735   1.204   2.353  1.3222 -1.0234 -1.7737
  180SLPC  H11B20473   5.777   1.324   2.227  1.1401 -0.7357  0.1232
  180SLPC     P20474   5.738   1.105   2.061 -0.0099  0.0867 -0.1242
  180SLPC   O1320475   5.690   0.963   2.046  0.4940 -1.2587 -0.0920
  180SLPC   O1420476   5.742   1.189   1.937 -0.3144 -0.1070 -0.9205
  180SLPC   O1220477   5.643   1.167   2.174 -0.1397  0.4475  0.8899
  180SLPC   O1120478   5.885   1.105   2.127  0.0497 -0.2402  0.5873
  180SLPC    C120479   5.955   0.992   2.190  0.0516 -1.1118  0.6654
  180SLPC    HA20480   5.882   0.915   2.226 -0.7443  0.1708  1.9157
  180SLPC    HB20481   6.034   0.958   2.121 -0.5836  2.0082 -1.8230
  180SLPC    C220482   6.031   1.044   2.313  0.6180 -0.2077 -0.3692
  180SLPC    HS20483   6.110   0.969   2.335 -0.3907 -1.0434  0.5164
  180SLPC   O2120484   5.944   1.059   2.429  0.3921 -0.5476 -0.2334
  180SLPC   C2120485   5.910   0.950   2.490  0.1159  0.4041 -0.1567
  180SLPC   O2220486   5.945   0.835   2.458  0.5951 -0.4283  0.4411
  180SLPC   C2220487   5.833   0.992   2.613 -0.7743 -0.0289  0.2695
  180SLPC   H2R20488   5.872   1.093   2.636  0.0085  0.0893 -1.4489
  180SLPC   H2S20489   5.724   0.997   2.591 -0.6486 -1.2651 -0.7429
  180SLPC    C320490   6.087   1.187   2.287  0.2511 -0.3232 -0.0236
  180SLPC    HX20491   5.996   1.252   2.293 -0.3612 -1.0044 -1.4183
  180SLPC    HY20492   6.125   1.189   2.183 -0.5097  0.1197 -0.3050
  180SLPC   O3120493   6.185   1.233   2.382 -0.2386  0.4221 -0.0543
  180SLPC   C3120494   6.315   1.199   2.350 -0.5652 -0.4963 -0.9429
  180SLPC   O3220495   6.351   1.166   2.243 -0.2277  0.9068 -0.1631
  180SLPC   C3220496   6.411   1.211   2.461  0.2478 -0.3156  0.0904
  180SLPC   H2X20497   6.488   1.287   2.437  1.3451 -0.9853  1.3231
  180SLPC   H2Y20498   6.469   1.116   2.470 -1.3929 -1.2459  1.6728
  180SLPC   C2320499   5.866   0.891   2.732  1.1062  0.1341  0.3430
  180SLPC   H3R20500   5.870   0.792   2.682  1.8571  0.3420 -0.0193
  180SLPC   H3S20501   5.777   0.892   2.798  0.2053 -3.9295 -0.5165
  180SLPC   C2420502   5.993   0.919   2.810 -1.1485  0.2525 -0.3898
  180SLPC   H4R20503   6.078   0.938   2.740  0.3093 -0.1011  1.2007
  180SLPC   H4S20504   6.022   0.824   2.861 -0.4369  0.7268  0.1121
  180SLPC   C2520505   5.973   1.033   2.915 -0.2179  0.2862 -0.2044
  180SLPC   H5R20506   5.869   1.047   2.951 -0.1730  0.3938 -0.1144
  180SLPC   H5S20507   5.990   1.132   2.867  0.1685  0.1224 -0.4147
  180SLPC   C2620508   6.058   1.020   3.041  0.1313  0.4618 -0.4876
  180SLPC   H6R20509   6.163   1.050   3.018  0.8482 -0.2669  1.5527
  180SLPC   H6S20510   6.059   0.915   3.080 -0.0038  0.2831 -0.9561
  180SLPC   C2720511   6.024   1.113   3.163  0.0825  0.4733 -0.0242
  180SLPC   H7R20512   5.918   1.094   3.190  0.7804 -1.2871  1.6864
  180SLPC   H7S20513   6.026   1.215   3.118 -1.5461  0.5434  0.0222
  180SLPC   C2820514   6.114   1.086   3.283  0.8481  0.1731 -0.3129
  180SLPC   H8R20515   6.220   1.066   3.255  0.6015 -0.3531 -0.9075
  180SLPC   H8S20516   6.071   0.993   3.324 -0.5732  1.2713  0.7466
  180SLPC   C2920517   6.097   1.208   3.374  0.1608  0.0447  0.7912
  180SLPC   H9R20518   6.118   1.307   3.332 -0.7534 -0.3845 -0.7659
  180SLPC  C21020519   6.060   1.200   3.500  0.7928  0.2730 -0.2222
  180SLPC  H10R20520   6.047   1.291   3.561 -1.6981  0.7496 -1.3368
  180SLPC  C21120521   6.051   1.063   3.580  0.3977  0.0124 -0.7788
  180SLPC  H11R20522   6.090   1.077   3.683  0.7061  1.8859 -1.1029
  180SLPC  H11S20523   6.118   0.991   3.528  0.3626  0.4282 -1.4054
  180SLPC  C21220524   5.905   1.030   3.582  0.0623  0.4991  0.8194
  180SLPC  H12R20525   5.865   1.034   3.479  2.0196 -0.4155 -0.0468
  180SLPC  C21320526   5.831   0.978   3.683 -0.0587 -0.0517  0.2573
  180SLPC  H13R20527   5.723   0.956   3.681 -0.3743  1.3871 -2.2745
  180SLPC  C21420528   5.905   0.937   3.806  0.3376 -0.1453  0.1945
  180SLPC  H14R20529   6.015   0.927   3.794  0.4108 -1.3669  1.6194
  180SLPC  H14S20530   5.872   0.833   3.828  2.8401 -0.7545  1.4519
  180SLPC  C21520531   5.856   1.022   3.923  0.3112 -0.9177 -0.0750
  180SLPC  H15R20532   5.757   0.983   3.956  0.5249  0.4138  2.4316
  180SLPC  H15S20533   5.845   1.126   3.885  0.2884 -1.0491 -0.4286
  180SLPC  C21620534   5.944   1.007   4.052  0.3097  0.3277  0.1561
  180SLPC  H16R20535   5.972   0.899   4.048  0.8454  0.5061 -1.8256
  180SLPC  H16S20536   5.878   1.019   4.141 -0.3728 -0.5859 -0.2073
  180SLPC  C21720537   6.078   1.089   4.059  0.2578 -0.3004 -0.4729
  180SLPC  H17R20538   6.038   1.188   4.030 -0.8614 -0.9375 -1.1564
  180SLPC  H17S20539   6.147   1.042   3.987  0.7991 -1.6894  0.8882
  180SLPC  C21820540   6.136   1.097   4.200  0.3850  0.5786  0.4172
  180SLPC  H18R20541   6.166   0.996   4.232  1.0349  0.9012  0.8494
  180SLPC  H18S20542   6.069   1.139   4.278 -0.0996  0.7029 -0.0563
  180SLPC  H18T20543   6.219   1.170   4.190 -0.5881  1.6403 -0.1415
  180SLPC   C3320544   6.347   1.236   2.606 -0.1032  0.2262  0.3152
  180SLPC   H3X20545   6.258   1.171   2.617 -0.2079 -0.0770 -1.8825
  180SLPC   H3Y20546   6.312   1.341   2.600  0.1747  0.2934 -0.1356
  180SLPC   C3420547   6.429   1.212   2.730  0.5720 -0.1990 -0.6322
  180SLPC   H4X20548   6.527   1.262   2.733 -1.5734  4.4401  1.2422
  180SLPC   H4Y20549   6.437   1.101   2.743  0.1039 -0.2580 -0.8221
  180SLPC   C3520550   6.370   1.275   2.864 -0.1578  0.1631  0.0331
  180SLPC   H5X20551   6.268   1.236   2.884  0.3188 -0.4008  1.4540
  180SLPC   H5Y20552   6.370   1.386   2.860  0.2631  0.2703  2.0076
  180SLPC   C3620553   6.452   1.227   2.985  0.1022 -0.1164  0.3036
  180SLPC   H6X20554   6.556   1.258   2.963  0.8408  0.2032  3.6158
  180SLPC   H6Y20555   6.459   1.117   3.001 -0.5082 -0.0163  1.3358
  180SLPC   C3720556   6.400   1.281   3.127  0.1837  0.4084 -0.2112
  180SLPC   H7X20557   6.293   1.251   3.128  0.2434  0.1848 -0.5408
  180SLPC   H7Y20558   6.397   1.392   3.137 -1.4686  0.3787 -0.1748
  180SLPC   C3820559   6.485   1.218   3.238 -0.0243 -0.0517 -0.0655
  180SLPC   H8X20560   6.590   1.246   3.216 -0.1029  1.6434  1.5052
  180SLPC   H8Y20561   6.487   1.107   3.235  1.6150 -0.0452 -3.4850
  180SLPC   C3920562   6.456   1.274   3.373  0.3188  0.7156  0.0012
  180SLPC   H9X20563   6.346   1.289   3.378  0.2249  0.5213 -1.2275
  180SLPC   H9Y20564   6.515   1.364   3.398  1.4562 -0.0219  0.0610
  180SLPC  C31020565   6.493   1.178   3.490  0.0183  0.0794 -0.1809
  180SLPC  H10X20566   6.602   1.173   3.515 -0.1200  1.2155  0.7404
  180SLPC  H10Y20567   6.457   1.078   3.457 -0.5737 -0.0637  0.8755
  180SLPC  C31120568   6.429   1.230   3.617  0.1355 -0.4389 -0.0895
  180SLPC  H11X20569   6.326   1.262   3.591  0.6635  0.6531 -0.9516
  180SLPC  H11Y20570   6.489   1.319   3.644  0.6284 -1.2375  1.5428
  180SLPC  C31220571   6.420   1.127   3.731  0.4567  0.6708 -0.0077
  180SLPC  H12X20572   6.420   1.027   3.684  0.6502  2.1955 -3.5930
  180SLPC  H12Y20573   6.330   1.155   3.789  0.9574  0.9901  0.6327
  180SLPC  C31320574   6.538   1.142   3.825  0.1165  0.1476  0.6967
  180SLPC  H13X20575   6.541   1.250   3.854 -1.1004  0.7057 -1.0719
  180SLPC  H13Y20576   6.641   1.127   3.784  0.3158  0.7809  0.9498
  180SLPC  C31420577   6.527   1.044   3.943 -0.7881  0.0408 -0.3154
  180SLPC  H14X20578   6.578   0.954   3.901 -2.0123 -0.9354  0.2167
  180SLPC  H14Y20579   6.421   1.021   3.965 -0.3219  0.7335  3.3099
  180SLPC  C31520580   6.603   1.087   4.069  0.0723  0.5296  0.6462
  180SLPC  H15X20581   6.602   1.198   4.073 -1.4987  0.5914 -0.6863
  180SLPC  H15Y20582   6.707   1.048   4.068 -0.4892 -1.0514 -1.2440
  180SLPC  C31620583   6.534   1.018   4.192  0.2399 -0.7683  0.0048
  180SLPC  H16X20584   6.431   1.059   4.196  0.5385 -0.0592  0.6150
  180SLPC  H16Y20585   6.582   1.042   4.288  0.0646 -0.3980 -0.0007
  180SLPC  C31720586   6.526   0.865   4.195 -0.1846 -0.1352  0.4958
  180SLPC  H17X20587   6.626   0.830   4.161  0.4695  1.0272  1.1687
  180SLPC  H17Y20588   6.454   0.834   4.116  2.0901  0.4563 -1.9350
  180SLPC  C31820589   6.477   0.794   4.320  0.4409  0.0523 -0.2656
  180SLPC  H18X20590   6.368   0.816   4.316  0.6910  1.3835  0.1282
  180SLPC  H18Y20591   6.521   0.834   4.414  1.3865 -1.7867  0.1233
  180SLPC  H18Z20592   6.495   0.684   4.320  2.3154  0.3236  0.3255
  181SLPC     N20593   6.022   1.761   1.898 -0.6107 -0.0278  0.6517
  181SLPC   C1320594   6.012   1.893   1.826 -0.7417 -0.3546  0.1096
  181SLPC  H13A20595   6.054   1.871   1.730 -1.0650  0.0759 -0.1320
  181SLPC  H13B20596   5.907   1.919   1.817 -0.3096  0.6749 -3.5890
  181SLPC  H13C20597   6.068   1.969   1.879 -0.9318  1.0639 -1.6303
  181SLPC   C1420598   6.166   1.724   1.909 -0.7555  0.4017  0.3704
  181SLPC  H14A20599   6.225   1.739   1.819  0.2559  0.5333  1.0376
  181SLPC  H14B20600   6.206   1.780   1.992 -0.6955 -0.8368  1.2008
  181SLPC  H14C20601   6.177   1.622   1.941  2.2548  0.7580  0.7093
  181SLPC   C1520602   5.962   1.667   1.805 -0.2103  0.6106  0.1678
  181SLPC  H15A20603   5.866   1.702   1.769  0.2721  1.4961 -0.3094
  181SLPC  H15B20604   6.026   1.654   1.719 -0.5874  0.4345 -0.0886
  181SLPC  H15C20605   5.949   1.567   1.844 -3.8781  0.2402 -1.5689
  181SLPC   C1220606   5.951   1.767   2.039  0.5050  0.2963 -0.0807
  181SLPC  H12A20607   5.847   1.782   2.014  0.3496 -1.7546 -0.8558
  181SLPC  H12B20608   5.987   1.857   2.086 -0.6675  0.3836  0.6791
  181SLPC   C1120609   5.966   1.638   2.130  0.7265 -0.1870  0.1894
  181SLPC  H11A20610   5.926   1.547   2.081 -2.3619  0.9027  0.4226
  181SLPC  H11B20611   5.901   1.654   2.219 -1.7934  0.2643 -1.6321
  181SLPC     P20612   6.170   1.726   2.264 -0.4024  0.5436  0.5431
  181SLPC   O1320613   6.316   1.698   2.275 -0.1668  0.0318 -0.1653
  181SLPC   O1420614   6.140   1.862   2.219  0.5461  0.3015 -0.0335
  181SLPC   O1220615   6.099   1.621   2.177 -0.2035  0.1936 -0.3412
  181SLPC   O1120616   6.104   1.706   2.412 -0.3545  0.0428  0.6791
  181SLPC    C120617   6.096   1.561   2.442 -0.0445  0.1113  0.3887
  181SLPC    HA20618   6.035   1.509   2.366  1.2656 -1.0991  0.1224
  181SLPC    HB20619   6.195   1.511   2.431 -0.2154  0.4226 -3.8766
  181SLPC    C220620   6.024   1.533   2.580 -0.6662  1.0746  0.5192
  181SLPC    HS20621   5.921   1.575   2.577 -1.2907 -0.4682 -0.4985
  181SLPC   O2120622   6.109   1.583   2.687  0.1209 -0.2202 -0.0627
  181SLPC   C2120623   6.050   1.635   2.788  0.0923  0.3239  0.2719
  181SLPC   O2220624   5.937   1.679   2.800  0.3441  0.1511  0.2450
  181SLPC   C2220625   6.146   1.630   2.903  0.6256  0.8958 -0.3851
  181SLPC   H2R20626   6.181   1.525   2.913 -1.4526 -0.2918 -3.8230
  181SLPC   H2S20627   6.233   1.689   2.866  1.0422 -0.0219 -0.9178
  181SLPC    C320628   6.000   1.379   2.612  0.3746 -0.5831 -0.1394
  181SLPC    HX20629   6.101   1.335   2.628  0.5380 -0.7186 -1.4016
  181SLPC    HY20630   5.962   1.319   2.527 -0.3063  0.1145 -0.3426
  181SLPC   O3120631   5.923   1.353   2.729  0.3551  0.0335 -0.0006
  181SLPC   C3120632   5.793   1.368   2.714  0.4331 -0.0077  0.0894
  181SLPC   O3220633   5.728   1.389   2.615 -0.2389  0.5468 -0.1106
  181SLPC   C3220634   5.719   1.348   2.843  0.3558 -1.0724  0.0102
  181SLPC   H2X20635   5.732   1.239   2.862  2.2057 -0.9275 -0.2397
  181SLPC   H2Y20636   5.614   1.372   2.817  1.0405 -0.1301 -2.1720
  181SLPC   C2320637   6.086   1.678   3.034  0.4943  0.4329 -0.1980
  181SLPC   H3R20638   6.014   1.602   3.070  2.0553 -0.3639  1.4305
  181SLPC   H3S20639   6.040   1.780   3.032  1.1179  0.7220 -0.2049
  181SLPC   C2420640   6.193   1.671   3.142  0.4105  0.1678  0.3638
  181SLPC   H4R20641   6.265   1.752   3.123 -0.9022  1.3513  0.2635
  181SLPC   H4S20642   6.254   1.580   3.125  0.0418  0.0952 -0.6566
  181SLPC   C2520643   6.135   1.681   3.288  0.2705  0.2397 -0.8443
  181SLPC   H5R20644   6.055   1.605   3.297 -0.1965  1.0119  2.6949
  181SLPC   H5S20645   6.073   1.770   3.311 -0.2139 -0.6754  1.6980
  181SLPC   C2620646   6.247   1.672   3.385 -0.1257 -0.0843 -0.3923
  181SLPC   H6R20647   6.308   1.765   3.387  0.2966 -0.3275 -1.5288
  181SLPC   H6S20648   6.314   1.587   3.361  2.1288  1.3378  0.5198
  181SLPC   C2720649   6.189   1.665   3.530  0.7692  0.2264 -0.3839
  181SLPC   H7R20650   6.115   1.582   3.528  1.5388 -0.4538 -1.3003
  181SLPC   H7S20651   6.134   1.760   3.551  0.5636  0.0666 -0.1940
  181SLPC   C2820652   6.293   1.637   3.637 -0.8139  0.0744 -0.2725
  181SLPC   H8R20653   6.352   1.729   3.654 -0.0945 -0.5474  0.6797
  181SLPC   H8S20654   6.360   1.553   3.608 -0.8965 -0.6624  1.5388
  181SLPC   C2920655   6.231   1.600   3.767  0.7072  0.1713 -0.5016
  181SLPC   H9R20656   6.121   1.599   3.767  0.7002 -0.2944 -1.3975
  181SLPC  C21020657   6.300   1.551   3.875  0.9256  0.2334 -0.7716
  181SLPC  H10R20658   6.239   1.531   3.964  0.7522  1.7084 -0.5424
  181SLPC  C21120659   6.450   1.545   3.886 -0.2365 -0.4398  0.5066
  181SLPC  H11R20660   6.493   1.631   3.830 -3.5317  1.8182  1.1899
  181SLPC  H11S20661   6.470   1.448   3.835  0.7923  0.3182 -0.5815
  181SLPC  C21220662   6.500   1.539   4.030 -0.2071  0.5148 -0.4669
  181SLPC  H12R20663   6.529   1.441   4.072  1.2362  0.2553 -1.9671
  181SLPC  C21320664   6.526   1.642   4.111  0.3413 -1.1182 -0.5429
  181SLPC  H13R20665   6.561   1.621   4.213 -1.4784  0.1599  0.4200
  181SLPC  C21420666   6.506   1.789   4.083  0.3999 -0.5392  0.7144
  181SLPC  H14R20667   6.484   1.812   3.977  1.3033 -0.6134  0.5031
  181SLPC  H14S20668   6.599   1.844   4.110  0.3504 -0.8346  1.5037
  181SLPC  C21520669   6.396   1.850   4.166  0.1870  0.3248 -0.7173
  181SLPC  H15R20670   6.297   1.802   4.155  0.1486  0.1380  0.3334
  181SLPC  H15S20671   6.385   1.959   4.153 -0.6152  0.2974 -0.3034
  181SLPC  C21620672   6.435   1.835   4.318  0.3745  0.4238  0.4919
  181SLPC  H16R20673   6.541   1.866   4.329 -0.3279  3.1954  0.1355
  181SLPC  H16S20674   6.426   1.726   4.338  1.6448  0.8908  4.3260
  181SLPC  C21720675   6.354   1.913   4.421  0.1272  0.3545  0.1943
  181SLPC  H17R20676   6.251   1.872   4.432  0.6801 -0.4045  3.4315
  181SLPC  H17S20677   6.353   2.020   4.394 -0.3851  0.2453 -0.2402
  181SLPC  C21820678   6.421   1.898   4.557  0.0389  0.3831  0.1902
  181SLPC  H18R20679   6.371   1.963   4.632 -2.3064 -2.4860  1.3328
  181SLPC  H18S20680   6.527   1.930   4.557  0.4078 -0.7575  1.4310
  181SLPC  H18T20681   6.415   1.798   4.606 -0.8666  0.7837  0.9486
  181SLPC   C3320682   5.776   1.422   2.965 -0.3092  0.4712  0.2129
  181SLPC   H3X20683   5.766   1.532   2.953 -0.8708  0.4933  0.8478
  181SLPC   H3Y20684   5.884   1.400   2.981 -0.5974  0.0239  1.7538
  181SLPC   C3420685   5.708   1.376   3.103  0.2830 -0.6881  0.5008
  181SLPC   H4X20686   5.709   1.265   3.110 -0.8629 -0.6452  1.7658
  181SLPC   H4Y20687   5.604   1.414   3.107  1.5244  3.3392 -1.1178
  181SLPC   C3520688   5.790   1.424   3.219 -0.3014  0.6502 -0.2724
  181SLPC   H5X20689   5.797   1.535   3.214  1.1294  0.5638 -0.6962
  181SLPC   H5Y20690   5.898   1.399   3.212 -0.3375  0.2473  0.4457
  181SLPC   C3620691   5.730   1.387   3.360 -0.0795  0.5775 -0.0931
  181SLPC   H6X20692   5.733   1.278   3.380 -0.4881  0.4858 -0.5077
  181SLPC   H6Y20693   5.621   1.409   3.352  0.3378  3.4673  1.2063
  181SLPC   C3720694   5.791   1.476   3.472 -0.4353  0.1744  0.0766
  181SLPC   H7X20695   5.802   1.583   3.444 -1.3042  0.8039  1.9904
  181SLPC   H7Y20696   5.892   1.430   3.471 -0.0692  0.9671 -1.2204
  181SLPC   C3820697   5.706   1.472   3.598 -0.2150  0.4536 -0.9471
  181SLPC   H8X20698   5.702   1.368   3.639 -1.0898  0.4774 -0.9662
  181SLPC   H8Y20699   5.603   1.503   3.573 -1.2733 -0.5525  1.7507
  181SLPC   C3920700   5.771   1.558   3.719 -0.3834 -0.0306  0.4968
  181SLPC   H9X20701   5.746   1.666   3.705  1.8277  0.6185  1.1280
  181SLPC   H9Y20702   5.880   1.537   3.714 -0.3619  0.3176 -1.7717
  181SLPC  C31020703   5.724   1.508   3.857 -0.2759  0.4437  0.1986
  181SLPC  H10X20704   5.732   1.400   3.882  1.5624  0.7014  0.8271
  181SLPC  H10Y20705   5.614   1.528   3.852  0.0877  3.3426  1.6530
  181SLPC  C31120706   5.779   1.586   3.973 -1.2302 -0.2108 -0.2203
  181SLPC  H11X20707   5.766   1.694   3.950  2.2959  0.4533  0.2511
  181SLPC  H11Y20708   5.890   1.575   3.976 -1.0712  0.9705 -1.0431
  181SLPC  C31220709   5.737   1.548   4.122  0.5428  0.3578 -0.3459
  181SLPC  H12X20710   5.627   1.559   4.130  0.6192  0.8627  0.0594
  181SLPC  H12Y20711   5.780   1.623   4.192  1.0149  0.0861 -0.3383
  181SLPC  C31320712   5.777   1.412   4.175 -0.1670  0.0449 -0.5853
  181SLPC  H13X20713   5.881   1.396   4.140 -0.3730  0.8105 -1.6031
  181SLPC  H13Y20714   5.741   1.337   4.102  2.6617 -0.3110 -1.7482
  181SLPC  C31420715   5.759   1.385   4.325 -0.0091 -0.0495 -0.7118
  181SLPC  H14X20716   5.657   1.412   4.361  0.5453  0.3220  0.6522
  181SLPC  H14Y20717   5.824   1.452   4.387  0.1050 -0.7404 -0.0688
  181SLPC  C31520718   5.782   1.237   4.355  0.1062  0.6729 -0.5546
  181SLPC  H15X20719   5.879   1.208   4.310 -0.7451  0.6352 -2.4734
  181SLPC  H15Y20720   5.707   1.187   4.289  0.6933 -1.0835  0.0419
  181SLPC  C31620721   5.759   1.214   4.499 -0.7475 -0.2066 -0.0211
  181SLPC  H16X20722   5.739   1.106   4.519  4.7084 -1.6458 -0.7554
  181SLPC  H16Y20723   5.676   1.281   4.529  1.0744  2.1632 -0.0074
  181SLPC  C31720724   5.885   1.252   4.587 -0.1189  0.0962  0.3143
  181SLPC  H17X20725   5.907   1.360   4.578  0.4934  0.0031  0.6044
  181SLPC  H17Y20726   5.977   1.196   4.559 -1.2756 -0.5194 -2.6112
  181SLPC  C31820727   5.855   1.235   4.739 -0.2950  0.5028  0.1508
  181SLPC  H18X20728   5.860   1.124   4.754  0.0064 -0.1970 -4.0606
  181SLPC  H18Y20729   5.758   1.281   4.769 -0.0627 -0.1723  2.1545
  181SLPC  H18Z20730   5.935   1.280   4.801  0.3832  3.2562 -2.5156
  182SLPC     N20731   2.752   0.858   1.867 -0.6331 -0.0696 -0.0816
  182SLPC   C1320732   2.779   0.733   1.794 -0.4216  0.3231 -0.2584
  182SLPC  H13A20733   2.837   0.660   1.849 -0.4672  0.2972 -0.2445
  182SLPC  H13B20734   2.680   0.691   1.780  0.2582 -0.6483 -2.6409
  182SLPC  H13C20735   2.822   0.759   1.698  0.4174  2.9242  0.7321
  182SLPC   C1420736   2.622   0.909   1.814 -1.1244 -0.0590 -0.7115
  182SLPC  H14A20737   2.595   1.000   1.866  0.5994 -0.7993  1.6338
  182SLPC  H14B20738   2.644   0.936   1.711  1.1734  0.3459 -0.1788
  182SLPC  H14C20739   2.547   0.833   1.824  0.9833 -2.1256  0.1868
  182SLPC   C1520740   2.859   0.960   1.846  0.9466  0.2924 -0.2146
  182SLPC  H15A20741   2.828   1.046   1.904  1.5956  0.1048  0.4312
  182SLPC  H15B20742   2.951   0.916   1.884  1.3364 -0.2713 -1.7345
  182SLPC  H15C20743   2.856   0.983   1.741 -0.0641  1.7701  0.0989
  182SLPC   C1220744   2.756   0.816   2.009  0.1266 -0.0841 -0.2067
  182SLPC  H12A20745   2.856   0.810   2.049  0.0072 -2.1024 -0.1215
  182SLPC  H12B20746   2.720   0.715   2.021 -1.2294  0.6692  3.1914
  182SLPC   C1120747   2.665   0.902   2.102 -0.2138 -0.0584 -0.1880
  182SLPC  H11A20748   2.663   0.847   2.199 -1.4322 -3.2020 -1.8467
  182SLPC  H11B20749   2.561   0.894   2.065 -1.2979 -0.4287  2.6700
  182SLPC     P20750   2.617   1.160   2.084  0.1873  0.5329  0.5914
  182SLPC   O1320751   2.698   1.283   2.083 -0.2917 -0.2843 -0.4959
  182SLPC   O1420752   2.520   1.144   1.971 -0.3013  0.1533 -0.3716
  182SLPC   O1220753   2.714   1.037   2.102  0.2995 -0.1104  0.5488
  182SLPC   O1120754   2.529   1.156   2.214  0.2911  0.5399  0.2512
  182SLPC    C120755   2.583   1.091   2.336  0.5134 -0.8319 -0.0835
  182SLPC    HA20756   2.548   0.988   2.356 -0.1997 -0.9862 -1.9818
  182SLPC    HB20757   2.690   1.064   2.326  0.6294  0.0822 -1.5920
  182SLPC    C220758   2.553   1.178   2.462  0.3417 -0.1233 -0.2543
  182SLPC    HS20759   2.582   1.125   2.556  0.5017  0.0359 -0.2126
  182SLPC   O2120760   2.411   1.211   2.476  0.2439  0.4003  0.5404
  182SLPC   C2120761   2.332   1.117   2.514  0.1885  0.5715 -0.2443
  182SLPC   O2220762   2.370   1.000   2.544 -0.3168 -0.3835 -0.0381
  182SLPC   C2220763   2.185   1.154   2.524 -0.8586 -0.0403 -0.7029
  182SLPC   H2R20764   2.171   1.263   2.543  0.6705  0.1076 -0.2845
  182SLPC   H2S20765   2.132   1.108   2.439  1.0673  0.2551 -2.1412
  182SLPC    C320766   2.630   1.313   2.445 -0.1912 -0.1872 -0.0015
  182SLPC    HX20767   2.596   1.356   2.348 -0.4900  0.6548  0.4611
  182SLPC    HY20768   2.737   1.288   2.429 -0.3940  0.3063 -2.6324
  182SLPC   O3120769   2.614   1.402   2.560 -0.5941  0.3799  0.0311
  182SLPC   C3120770   2.509   1.489   2.546  0.3450 -0.1638  0.3291
  182SLPC   O3220771   2.441   1.511   2.453  0.4373 -0.2965  0.2633
  182SLPC   C3220772   2.483   1.553   2.675  0.2644  0.3666 -0.1883
  182SLPC   H2X20773   2.398   1.624   2.662  0.2349  0.1302 -1.4064
  182SLPC   H2Y20774   2.576   1.602   2.709  1.7369 -2.1731 -0.3414
  182SLPC   C2320775   2.126   1.095   2.658  0.6123  0.4913 -0.0160
  182SLPC   H3R20776   2.144   0.985   2.658 -0.5331  0.2813  1.1811
  182SLPC   H3S20777   2.019   1.110   2.684  0.7401  0.1377  0.7304
  182SLPC   C2420778   2.190   1.166   2.781  0.5128  0.4595  0.2750
  182SLPC   H4R20779   2.205   1.275   2.764  1.4319  0.4786  1.0676
  182SLPC   H4S20780   2.296   1.133   2.791 -0.0036 -1.6532 -0.6934
  182SLPC   C2520781   2.125   1.140   2.918  0.5353  0.3184 -0.5232
  182SLPC   H5R20782   2.026   1.189   2.918  0.4880  0.2253 -0.5876
  182SLPC   H5S20783   2.184   1.179   3.003 -1.3616 -1.1552  1.5593
  182SLPC   C2620784   2.114   0.986   2.945  1.0728 -0.5100 -0.5162
  182SLPC   H6R20785   2.208   0.934   2.917  1.8952  0.2201  0.7806
  182SLPC   H6S20786   2.029   0.957   2.880  0.3395  0.7182 -0.1329
  182SLPC   C2720787   2.069   0.966   3.092 -0.0127 -0.2547 -0.3909
  182SLPC   H7R20788   2.000   0.880   3.102  0.1492 -0.3106  0.2368
  182SLPC   H7S20789   2.004   1.051   3.122  0.9974 -0.1566  1.6417
  182SLPC   C2820790   2.191   0.947   3.189  0.1336 -0.0909 -0.7693
  182SLPC   H8R20791   2.140   0.954   3.288 -2.3795  0.5373 -2.0252
  182SLPC   H8S20792   2.258   1.032   3.169  0.1439  0.4765  1.3879
  182SLPC   C2920793   2.262   0.815   3.182  0.4399 -0.5195 -0.1255
  182SLPC   H9R20794   2.303   0.793   3.082 -1.3300 -0.6244 -0.8577
  182SLPC  C21020795   2.303   0.736   3.281 -0.5230 -0.7393 -0.2220
  182SLPC  H10R20796   2.346   0.636   3.263  0.6457 -0.8028  2.3969
  182SLPC  C21120797   2.280   0.768   3.431  0.6095 -0.3656 -0.1531
  182SLPC  H11R20798   2.175   0.793   3.457  0.3612 -1.1927 -0.3308
  182SLPC  H11S20799   2.323   0.868   3.453 -0.1296 -0.2686  0.9639
  182SLPC  C21220800   2.324   0.662   3.529  0.1603 -0.1305 -0.4884
  182SLPC  H12R20801   2.244   0.594   3.561  0.2903 -0.6265 -1.2043
  182SLPC  C21320802   2.456   0.642   3.568  0.1865 -0.0320  0.4274
  182SLPC  H13R20803   2.478   0.570   3.648 -1.3464 -0.4921  0.4506
  182SLPC  C21420804   2.566   0.728   3.510 -0.0825 -0.0610 -0.1896
  182SLPC  H14R20805   2.623   0.772   3.595 -1.5321  1.4430  0.0535
  182SLPC  H14S20806   2.531   0.821   3.460 -1.4218  0.9306  2.4137
  182SLPC  C21520807   2.653   0.656   3.412  0.3144 -0.3523  0.2485
  182SLPC  H15R20808   2.599   0.615   3.324 -1.8663  0.4430  1.1284
  182SLPC  H15S20809   2.695   0.567   3.463 -1.6427 -0.3016  2.0807
  182SLPC  C21620810   2.754   0.748   3.341 -1.3641  0.0200  0.0354
  182SLPC  H16R20811   2.813   0.793   3.424  1.6611 -1.7478 -1.0271
  182SLPC  H16S20812   2.708   0.836   3.292  0.7426  0.5357 -1.1389
  182SLPC  C21720813   2.851   0.672   3.254  0.2829 -0.2910  0.0240
  182SLPC  H17R20814   2.789   0.610   3.186 -0.4058  0.6974 -0.2584
  182SLPC  H17S20815   2.917   0.607   3.316  0.5184 -2.2254 -2.0775
  182SLPC  C21820816   2.920   0.773   3.164 -0.0590  0.7176 -0.2530
  182SLPC  H18R20817   2.980   0.717   3.089 -0.4431 -0.9816  0.6578
  182SLPC  H18S20818   2.985   0.834   3.230  1.0687  0.1143 -0.7721
  182SLPC  H18T20819   2.840   0.835   3.117 -1.5632  1.1503  2.6354
  182SLPC   C3320820   2.450   1.455   2.789  0.0855  0.6835  1.0485
  182SLPC   H3X20821   2.549   1.411   2.812  0.2545  0.3898 -0.1551
  182SLPC   H3Y20822   2.384   1.373   2.754  1.3253  0.6727 -1.4535
  182SLPC   C3420823   2.388   1.527   2.906  0.1343  0.4065  0.0250
  182SLPC   H4X20824   2.362   1.457   2.988  0.2311  0.8003  0.3949
  182SLPC   H4Y20825   2.304   1.585   2.862 -1.2313 -0.6043  1.1912
  182SLPC   C3520826   2.493   1.618   2.970 -0.1956 -0.1490  0.1902
  182SLPC   H5X20827   2.507   1.707   2.905 -2.3706  0.0836 -0.0457
  182SLPC   H5Y20828   2.589   1.565   2.984 -0.3983 -0.4002  0.6532
  182SLPC   C3620829   2.441   1.675   3.103  0.0452 -0.2364 -1.3173
  182SLPC   H6X20830   2.331   1.680   3.097  0.1316  0.5823 -2.4455
  182SLPC   H6Y20831   2.471   1.782   3.101 -0.5256 -0.0573 -0.5789
  182SLPC   C3720832   2.504   1.597   3.215 -0.1206 -0.1224 -0.9285
  182SLPC   H7X20833   2.614   1.588   3.200  0.3076  0.9611  1.2122
  182SLPC   H7Y20834   2.453   1.498   3.214  1.2204 -0.8337 -0.8859
  182SLPC   C3820835   2.491   1.659   3.353  0.4817  0.5522 -0.0250
  182SLPC   H8X20836   2.536   1.584   3.421 -0.2692 -0.0846 -0.2098
  182SLPC   H8Y20837   2.385   1.660   3.388  0.4050 -1.6768 -0.0739
  182SLPC   C3920838   2.554   1.799   3.368 -0.0864  0.2113 -0.1949
  182SLPC   H9X20839   2.486   1.865   3.312 -1.3792 -0.0825  0.9592
  182SLPC   H9Y20840   2.654   1.804   3.320  0.1684 -1.0965  0.1425
  182SLPC  C31020841   2.549   1.860   3.507 -0.3589 -0.4917  0.4433
  182SLPC  H10X20842   2.442   1.871   3.535  0.1096  4.8303  1.2291
  182SLPC  H10Y20843   2.597   1.959   3.488 -0.3506 -0.3382  1.2369
  182SLPC  C31120844   2.616   1.789   3.624  0.6063  0.0972 -0.3944
  182SLPC  H11X20845   2.703   1.732   3.584 -0.5890 -2.3730  0.3861
  182SLPC  H11Y20846   2.544   1.716   3.665 -0.6634  0.5370 -1.7635
  182SLPC  C31220847   2.666   1.891   3.729 -0.3068  0.6491 -0.2105
  182SLPC  H12X20848   2.583   1.917   3.797  1.3673 -0.4372  2.4216
  182SLPC  H12Y20849   2.706   1.975   3.667 -0.4482 -1.9822 -4.1927
  182SLPC  C31320850   2.787   1.842   3.815 -0.6238  0.1937 -0.0168
  182SLPC  H13X20851   2.884   1.845   3.762 -1.1573  1.6712 -0.9750
  182SLPC  H13Y20852   2.777   1.739   3.855 -1.9850 -0.2089 -1.3227
  182SLPC  C31420853   2.809   1.924   3.942  0.5034 -1.0124 -0.3017
  182SLPC  H14X20854   2.713   1.919   3.998  1.1223 -0.5781  0.8465
  182SLPC  H14Y20855   2.824   2.031   3.920 -2.4524  0.2400  2.9126
  182SLPC  C31520856   2.913   1.871   4.036 -0.7911  0.2578  0.6257
  182SLPC  H15X20857   3.014   1.900   4.000 -1.9882 -0.7659 -4.2727
  182SLPC  H15Y20858   2.917   1.760   4.030  0.6667  0.3126  0.2894
  182SLPC  C31620859   2.886   1.912   4.179  0.5957 -0.2730 -0.3363
  182SLPC  H16X20860   2.961   1.850   4.232  0.5315 -2.1015 -2.2472
  182SLPC  H16Y20861   2.790   1.873   4.218  2.0867 -2.5848  1.2298
  182SLPC  C31720862   2.907   2.058   4.207 -0.2644  0.2320  0.1170
  182SLPC  H17X20863   2.838   2.111   4.138 -0.7641  0.5392  0.8362
  182SLPC  H17Y20864   3.005   2.087   4.163 -0.3592 -1.2810 -1.1678
  182SLPC  C31820865   2.893   2.099   4.355 -0.4557 -0.3313 -0.1944
  182SLPC  H18X20866   2.833   2.029   4.417 -0.3131 -0.2230  0.0671
  182SLPC  H18Y20867   2.865   2.206   4.369  1.7699  0.3120 -0.2037
  182SLPC  H18Z20868   2.994   2.094   4.400 -1.1791 -1.1794  1.4078
  183SLPC     N20869   3.395   1.657   2.316 -0.0420  0.5581 -0.1857
  183SLPC   C1320870   3.328   1.745   2.406  0.5642  0.5020 -1.0059
  183SLPC  H13A20871   3.261   1.683   2.463 -0.1646 -0.0787 -2.4346
  183SLPC  H13B20872   3.394   1.798   2.473 -0.9926  2.2610 -0.7782
  183SLPC  H13C20873   3.271   1.820   2.352 -0.6516 -1.6351 -2.8502
  183SLPC   C1420874   3.300   1.547   2.265  0.2613 -0.1807 -0.2359
  183SLPC  H14A20875   3.355   1.490   2.191  0.8605 -2.3409  1.7748
  183SLPC  H14B20876   3.264   1.482   2.344  1.5695 -0.4401  0.1650
  183SLPC  H14C20877   3.215   1.597   2.220  0.6797 -1.2014 -2.2937
  183SLPC   C1520878   3.504   1.588   2.393 -0.1751  0.1840 -0.2400
  183SLPC  H15A20879   3.559   1.515   2.335 -1.3758 -0.4760 -0.5708
  183SLPC  H15B20880   3.588   1.647   2.427  1.1673 -2.7797  2.1690
  183SLPC  H15C20881   3.474   1.540   2.486 -1.4285  1.1745 -0.1126
  183SLPC   C1220882   3.449   1.738   2.201 -0.3935  0.2521  0.8476
  183SLPC  H12A20883   3.378   1.808   2.160 -0.2792 -0.1972 -0.1360
  183SLPC  H12B20884   3.488   1.673   2.124 -2.4824 -2.2996  1.7941
  183SLPC   C1120885   3.576   1.837   2.221  0.1028 -0.8598 -0.2674
  183SLPC  H11A20886   3.550   1.930   2.275 -0.9362  0.6948 -3.2096
  183SLPC  H11B20887   3.596   1.868   2.116  0.5152 -1.3323 -0.3275
  183SLPC     P20888   3.832   1.837   2.268 -0.0080 -0.2820 -0.2203
  183SLPC   O1320889   3.894   1.809   2.399  0.3930 -0.5217  0.5855
  183SLPC   O1420890   3.901   1.790   2.149 -0.1008  0.3538  0.6407
  183SLPC   O1220891   3.690   1.765   2.271  0.3667 -0.1361  0.1596
  183SLPC   O1120892   3.792   1.989   2.247 -0.2159  0.2364 -0.3902
  183SLPC    C120893   3.812   2.086   2.343  0.0383 -0.1939 -0.3661
  183SLPC    HA20894   3.912   2.070   2.390 -0.3755 -3.1897 -0.3280
  183SLPC    HB20895   3.810   2.181   2.286 -0.2281  0.5225  0.7939
  183SLPC    C220896   3.710   2.088   2.466 -0.4353 -0.3028 -0.1955
  183SLPC    HS20897   3.700   1.981   2.494 -1.2602 -0.0471  0.5509
  183SLPC   O2120898   3.585   2.138   2.431  0.8370 -0.2203 -0.6156
  183SLPC   C2120899   3.486   2.071   2.478 -0.7597  0.1149 -0.1603
  183SLPC   O2220900   3.491   1.974   2.548  0.3089  0.4599  0.1536
  183SLPC   C2220901   3.355   2.143   2.442 -0.1998 -0.2115 -0.2009
  183SLPC   H2R20902   3.374   2.217   2.361  0.0326  0.8987  0.8505
  183SLPC   H2S20903   3.283   2.071   2.398 -1.0716  0.9451 -0.7382
  183SLPC    C320904   3.769   2.168   2.589  0.6354  0.1230 -0.3385
  183SLPC    HX20905   3.789   2.274   2.565 -0.8735  0.4593 -0.1948
  183SLPC    HY20906   3.867   2.116   2.604 -0.6774 -1.9056  1.8711
  183SLPC   O3120907   3.690   2.146   2.711 -0.0837 -0.2816  0.3248
  183SLPC   C3120908   3.751   2.193   2.812  0.8854  0.2204 -0.4649
  183SLPC   O3220909   3.868   2.225   2.822 -0.1907  0.7065  0.5535
  183SLPC   C3220910   3.648   2.195   2.926  0.2020 -0.5371  0.2274
  183SLPC   H2X20911   3.663   2.110   2.996  1.1564  0.0122  0.7211
  183SLPC   H2Y20912   3.545   2.185   2.887 -0.5887 -4.4297  2.7037
  183SLPC   C2320913   3.272   2.211   2.553 -0.1992 -0.0246 -0.0899
  183SLPC   H3R20914   3.251   2.133   2.629 -2.3386  1.5429  1.0272
  183SLPC   H3S20915   3.170   2.248   2.530 -0.1563  0.0101 -0.2251
  183SLPC   C2420916   3.357   2.320   2.630 -0.5714  0.6663 -0.0604
  183SLPC   H4R20917   3.390   2.408   2.572  0.5216  1.2126  1.3489
  183SLPC   H4S20918   3.449   2.274   2.672 -0.5081  0.7151 -0.1447
  183SLPC   C2520919   3.278   2.376   2.752  0.3059  0.2491 -0.0887
  183SLPC   H5R20920   3.288   2.299   2.831  0.7478 -0.3480 -0.7206
  183SLPC   H5S20921   3.172   2.388   2.720  0.8950  0.0262 -2.3053
  183SLPC   C2620922   3.325   2.506   2.817  0.5183 -0.1626  0.6255
  183SLPC   H6R20923   3.306   2.592   2.750  2.8051  0.3871  0.5808
  183SLPC   H6S20924   3.434   2.504   2.838  0.5181  0.3092  0.6675
  183SLPC   C2720925   3.256   2.536   2.950  0.8062 -0.4029 -0.5477
  183SLPC   H7R20926   3.274   2.467   3.035 -0.1530  1.3054  1.0993
  183SLPC   H7S20927   3.146   2.546   2.937  0.5649 -0.9341  0.9470
  183SLPC   C2820928   3.310   2.680   2.992  0.3125 -0.2990 -0.1173
  183SLPC   H8R20929   3.295   2.745   2.904 -0.7124 -0.3478  0.0134
  183SLPC   H8S20930   3.418   2.666   3.015  0.6188  2.8268  0.8699
  183SLPC   C2920931   3.214   2.722   3.108 -0.3254  0.3130 -0.1143
  183SLPC   H9R20932   3.110   2.717   3.072 -0.6287  2.4334  0.3210
  183SLPC  C21020933   3.243   2.761   3.230 -0.6476 -0.5298 -0.5543
  183SLPC  H10R20934   3.165   2.785   3.303  0.0170 -1.5790  0.5368
  183SLPC  C21120935   3.378   2.784   3.294 -0.3908 -0.0011 -0.6286
  183SLPC  H11R20936   3.464   2.726   3.252  0.1158 -1.3090  1.9930
  183SLPC  H11S20937   3.371   2.749   3.399 -2.5862 -0.8928 -1.0138
  183SLPC  C21220938   3.391   2.935   3.282  0.0371  0.3128 -0.5170
  183SLPC  H12R20939   3.383   2.973   3.179  0.8608  0.3667 -0.5628
  183SLPC  C21320940   3.420   3.017   3.386  0.0510 -0.6571 -0.6910
  183SLPC  H13R20941   3.442   3.119   3.353 -0.7304 -0.0592  0.5769
  183SLPC  C21420942   3.424   2.990   3.536 -0.3228  0.8533  0.1487
  183SLPC  H14R20943   3.476   3.079   3.575 -0.3073  1.0047 -0.2127
  183SLPC  H14S20944   3.496   2.909   3.559 -0.2623  0.9639  0.3453
  183SLPC  C21520945   3.294   2.940   3.612 -0.3283 -0.1823  0.1847
  183SLPC  H15R20946   3.255   2.855   3.552 -1.0621  1.0760 -1.1762
  183SLPC  H15S20947   3.224   3.026   3.604 -0.6833 -0.4066  0.7934
  183SLPC  C21620948   3.297   2.902   3.757 -0.1837  0.0222 -0.5489
  183SLPC  H16R20949   3.371   2.820   3.771 -0.1373  0.3064  1.1240
  183SLPC  H16S20950   3.198   2.860   3.784  0.6019 -0.1895  2.4232
  183SLPC  C21720951   3.337   3.021   3.855  0.2915 -0.3589  0.2291
  183SLPC  H17R20952   3.269   3.108   3.854 -0.0769 -0.5919  2.2484
  183SLPC  H17S20953   3.439   3.063   3.840  0.6377 -0.3593  2.3150
  183SLPC  C21820954   3.310   2.981   3.995  0.1734 -0.1476  0.2610
  183SLPC  H18R20955   3.346   3.061   4.062 -1.2042  0.2644  0.5455
  183SLPC  H18S20956   3.361   2.885   4.017  2.4987  1.0611  0.4296
  183SLPC  H18T20957   3.200   2.976   4.010  0.2930  0.2882  1.3433
  183SLPC   C3320958   3.650   2.339   2.996  0.5031  0.3890 -0.7034
  183SLPC   H3X20959   3.620   2.423   2.929 -2.4917  1.7629  2.0927
  183SLPC   H3Y20960   3.751   2.356   3.039 -0.2530  2.5682  0.4038
  183SLPC   C3420961   3.545   2.341   3.113  0.1297  0.1007  0.6791
  183SLPC   H4X20962   3.562   2.258   3.184 -1.6472  0.1079  1.1678
  183SLPC   H4Y20963   3.447   2.314   3.066  0.8211 -0.9140 -0.2246
  183SLPC   C3520964   3.540   2.466   3.199  0.0097 -0.8595 -0.0576
  183SLPC   H5X20965   3.431   2.469   3.216 -0.1422  0.8405 -1.0713
  183SLPC   H5Y20966   3.574   2.556   3.143  0.5420  0.1683  1.8337
  183SLPC   C3620967   3.614   2.452   3.324  0.1749 -0.3533  0.4630
  183SLPC   H6X20968   3.723   2.452   3.303 -0.2338  0.9457 -1.9963
  183SLPC   H6Y20969   3.590   2.362   3.386 -1.7879  2.3263  3.9577
  183SLPC   C3720970   3.593   2.564   3.433  0.3126  0.2200  0.7359
  183SLPC   H7X20971   3.483   2.574   3.440  0.0203 -0.9672 -1.3019
  183SLPC   H7Y20972   3.633   2.661   3.395 -0.8849  0.0219 -1.1676
  183SLPC   C3820973   3.660   2.536   3.570 -0.0775  0.5124 -0.4443
  183SLPC   H8X20974   3.768   2.556   3.552 -0.4398  1.9772 -1.0766
  183SLPC   H8Y20975   3.648   2.429   3.598  0.8166  0.5104 -0.0496
  183SLPC   C3920976   3.614   2.636   3.675  0.3175  0.3194  0.0093
  183SLPC   H9X20977   3.504   2.629   3.694  0.1599 -0.3722 -1.0869
  183SLPC   H9Y20978   3.632   2.741   3.643  0.4772  0.1669 -0.3947
  183SLPC  C31020979   3.683   2.616   3.813  0.3758 -0.1643  0.7965
  183SLPC  H10X20980   3.790   2.641   3.800  0.0844  0.1219 -1.3783
  183SLPC  H10Y20981   3.678   2.513   3.856 -2.4425 -0.3955  0.1725
  183SLPC  C31120982   3.626   2.711   3.920  1.2327  0.1695  0.1744
  183SLPC  H11X20983   3.516   2.701   3.919  1.1609  0.6932  1.5444
  183SLPC  H11Y20984   3.660   2.815   3.898 -0.5819  0.3623 -2.0449
  183SLPC  C31220985   3.668   2.671   4.059 -0.7472 -0.1848 -0.8258
  183SLPC  H12X20986   3.778   2.666   4.052 -0.7182  1.5516 -2.7207
  183SLPC  H12Y20987   3.621   2.573   4.081 -0.1015 -0.8425 -2.2015
  183SLPC  C31320988   3.625   2.774   4.162  0.1120 -0.5188  0.2958
  183SLPC  H13X20989   3.516   2.790   4.153 -0.2096 -2.5953 -0.0074
  183SLPC  H13Y20990   3.681   2.869   4.148  3.0833 -2.0946  0.6069
  183SLPC  C31420991   3.654   2.730   4.313  0.2682  0.7155 -0.4389
  183SLPC  H14X20992   3.637   2.621   4.329 -2.1797  1.2927  1.6352
  183SLPC  H14Y20993   3.596   2.789   4.387 -3.9869 -3.5293  0.0972
  183SLPC  C31520994   3.801   2.756   4.338  0.1732 -0.8672  0.1460
  183SLPC  H15X20995   3.811   2.864   4.317  1.0098 -1.0481 -0.4086
  183SLPC  H15Y20996   3.855   2.707   4.255 -0.5192  1.0010 -1.4760
  183SLPC  C31620997   3.853   2.727   4.479 -0.6423 -0.2817 -0.2166
  183SLPC  H16X20998   3.828   2.817   4.539 -0.1557 -0.4609  0.2674
  183SLPC  H16Y20999   3.964   2.725   4.470 -0.7764 -1.7312 -2.0008
  183SLPC  C31721000   3.811   2.602   4.551  0.5266  0.4849 -0.0805
  183SLPC  H17X21001   3.832   2.520   4.479 -1.2840  0.8467 -1.0663
  183SLPC  H17Y21002   3.701   2.609   4.561  0.6553  0.7418  1.4725
  183SLPC  C31821003   3.883   2.582   4.678 -0.4909 -0.7053  0.5245
  183SLPC  H18X21004   3.858   2.662   4.752  2.5178 -0.5310  1.4633
  183SLPC  H18Y21005   3.992   2.564   4.667 -0.6566 -1.2098 -0.3470
  183SLPC  H18Z21006   3.837   2.490   4.722 -3.7551  0.3830 -0.3046
  184SLPC     N21007   3.680   6.300   2.228 -0.3806 -0.3413  0.6198
  184SLPC   C1321008   3.685   6.337   2.082 -0.2404 -0.2153  0.0193
  184SLPC  H13A21009   3.747   6.426   2.077  1.0273 -0.9352  1.8362
  184SLPC  H13B21010   3.728   6.255   2.026  0.9234 -0.5885  1.4026
  184SLPC  H13C21011   3.590   6.364   2.039 -0.2137  0.1260  0.1707
  184SLPC   C1421012   3.637   6.412   2.307  0.3020 -0.4400 -0.4141
  184SLPC  H14A21013   3.654   6.396   2.412 -1.3257 -0.3565 -0.1157
  184SLPC  H14B21014   3.694   6.503   2.293  1.5945 -1.2190 -0.4408
  184SLPC  H14C21015   3.533   6.434   2.292  0.2828  0.2097  0.5837
  184SLPC   C1521016   3.818   6.272   2.272 -0.3612  0.2698 -0.0111
  184SLPC  H15A21017   3.886   6.355   2.262  0.1721  0.5130  3.9971
  184SLPC  H15B21018   3.823   6.259   2.379 -0.0145 -0.0592 -0.0656
  184SLPC  H15C21019   3.867   6.185   2.231  1.0403 -0.0292  2.1451
  184SLPC   C1221020   3.580   6.187   2.250 -0.0917  0.9433 -0.3367
  184SLPC  H12A21021   3.570   6.157   2.353 -1.3208  0.6309 -0.5365
  184SLPC  H12B21022   3.623   6.100   2.203 -1.0277  0.5902 -0.5411
  184SLPC   C1121023   3.440   6.203   2.198  0.0123  1.4731 -0.2114
  184SLPC  H11A21024   3.386   6.107   2.204  1.1463  0.8573  0.5565
  184SLPC  H11B21025   3.452   6.229   2.091  1.0398  0.4693 -0.3556
  184SLPC     P21026   3.293   6.287   2.410 -0.0812 -0.1118 -0.0063
  184SLPC   O1321027   3.230   6.417   2.454 -0.3960 -0.2913 -0.2718
  184SLPC   O1421028   3.200   6.174   2.405  0.6036 -0.3978  0.3820
  184SLPC   O1221029   3.365   6.303   2.266  0.2736  0.0455  0.0542
  184SLPC   O1121030   3.413   6.249   2.497 -0.3815  0.2092 -0.2277
  184SLPC    C121031   3.382   6.194   2.626  0.8627 -0.8302 -0.3672
  184SLPC    HA21032   3.321   6.264   2.688  1.1429 -1.1350  0.2610
  184SLPC    HB21033   3.329   6.097   2.621  1.4342 -1.1252 -0.6765
  184SLPC    C221034   3.503   6.162   2.705 -0.8387 -0.5213  0.2775
  184SLPC    HS21035   3.571   6.096   2.647  0.1859 -1.2312  2.1945
  184SLPC   O2121036   3.474   6.107   2.833  0.4322 -0.1380 -0.4599
  184SLPC   C2121037   3.575   6.037   2.891  0.3927  0.7329  0.6266
  184SLPC   O2221038   3.651   5.960   2.834 -0.3158 -0.0448  0.5280
  184SLPC   C2221039   3.579   6.079   3.038  0.4927 -0.2497  0.3781
  184SLPC   H2R21040   3.578   6.190   3.040 -0.4368 -0.2562  1.4879
  184SLPC   H2S21041   3.486   6.040   3.086  0.5580 -0.8656  0.0229
  184SLPC    C321042   3.585   6.297   2.738  0.5044  0.4349  0.0541
  184SLPC    HX21043   3.527   6.365   2.805 -1.2418 -1.9863  1.1694
  184SLPC    HY21044   3.603   6.350   2.643  0.8391  3.2086  1.5540
  184SLPC   O3121045   3.709   6.267   2.794 -0.5792 -0.7282  0.1438
  184SLPC   C3121046   3.813   6.238   2.713  0.4636 -0.9971  0.4400
  184SLPC   O3221047   3.801   6.218   2.592  0.2487  0.1287  0.1664
  184SLPC   C3221048   3.939   6.220   2.794  0.1938 -0.1457  0.0390
  184SLPC   H2X21049   4.033   6.236   2.738  1.7012  3.2684  3.0706
  184SLPC   H2Y21050   3.945   6.113   2.823 -0.5925 -0.4501 -0.8746
  184SLPC   C2321051   3.713   6.036   3.104 -0.3908  0.3009 -0.1011
  184SLPC   H3R21052   3.791   6.078   3.038  0.4271 -1.0562 -0.0247
  184SLPC   H3S21053   3.733   5.927   3.102  1.3993  0.6108 -2.4367
  184SLPC   C2421054   3.728   6.072   3.254  0.5250  0.1369  0.6636
  184SLPC   H4R21055   3.638   6.030   3.304  0.1066  1.5206  1.1109
  184SLPC   H4S21056   3.712   6.181   3.269 -1.1192  0.1726 -1.0820
  184SLPC   C2521057   3.863   6.024   3.316  0.1909  0.6427  0.6932
  184SLPC   H5R21058   3.938   6.093   3.271  2.7917 -1.8588  0.8528
  184SLPC   H5S21059   3.877   5.918   3.288 -1.0179  0.8284 -0.7095
  184SLPC   C2621060   3.870   6.042   3.472 -0.3592  0.3402 -0.0538
  184SLPC   H6R21061   3.960   6.008   3.526 -1.6799 -1.0229  1.3896
  184SLPC   H6S21062   3.788   5.979   3.512  0.7829  0.1733  2.1193
  184SLPC   C2721063   3.856   6.183   3.526  0.2157 -0.2299  0.2492
  184SLPC   H7R21064   3.778   6.229   3.461 -2.4111 -1.6681  2.1784
  184SLPC   H7S21065   3.956   6.230   3.538 -0.0499  0.1749  0.9610
  184SLPC   C2821066   3.800   6.174   3.673 -0.0262  0.4135  0.6101
  184SLPC   H8R21067   3.698   6.132   3.682  0.1026  0.5459  4.6547
  184SLPC   H8S21068   3.795   6.280   3.705  2.6427  0.8252 -0.0959
  184SLPC   C2921069   3.899   6.100   3.763 -0.0261  0.9221  0.0002
  184SLPC   H9R21070   3.989   6.159   3.784 -0.4812  1.5168  0.3089
  184SLPC  C21021071   3.885   5.980   3.826 -0.1694  0.4823  0.0299
  184SLPC  H10R21072   3.971   5.952   3.889 -1.0540 -1.9225  0.2503
  184SLPC  C21121073   3.769   5.884   3.826  0.2711  0.3481  0.0122
  184SLPC  H11R21074   3.734   5.878   3.720  0.6733  0.6059 -0.1350
  184SLPC  H11S21075   3.676   5.929   3.868  0.9469  0.3740  1.5133
  184SLPC  C21221076   3.798   5.750   3.884 -0.4569  0.0449 -0.7947
  184SLPC  H12R21077   3.784   5.668   3.812  0.3290  0.2727 -1.2174
  184SLPC  C21321078   3.846   5.719   4.009 -0.2996  0.9768  0.6776
  184SLPC  H13R21079   3.860   5.610   4.021 -1.0872  0.7059 -0.7543
  184SLPC  C21421080   3.870   5.817   4.120 -0.3647 -0.1286  0.0632
  184SLPC  H14R21081   3.796   5.795   4.200  0.5102  1.1546  1.2743
  184SLPC  H14S21082   3.849   5.924   4.095  0.3217  0.2379  0.9960
  184SLPC  C21521083   4.007   5.789   4.186  0.0242 -0.0707  0.1289
  184SLPC  H15R21084   4.096   5.809   4.123  1.4472 -1.4289  1.6009
  184SLPC  H15S21085   3.995   5.684   4.222 -0.6803  0.3428  1.1534
  184SLPC  C21621086   4.021   5.876   4.308 -0.5024 -0.3119  0.1315
  184SLPC  H16R21087   4.016   5.985   4.287 -0.0092  0.1521  2.2024
  184SLPC  H16S21088   4.124   5.849   4.340  0.3128 -0.2922 -2.2614
  184SLPC  C21721089   3.928   5.853   4.427 -0.2077 -0.1823  0.3425
  184SLPC  H17R21090   3.915   5.745   4.446 -2.5672  0.1428  1.0067
  184SLPC  H17S21091   3.832   5.896   4.389  0.1930  1.6281  1.2767
  184SLPC  C21821092   3.965   5.931   4.554 -0.7756  0.7527  0.7741
  184SLPC  H18R21093   4.049   5.877   4.603 -0.7343  0.6846  0.6289
  184SLPC  H18S21094   3.878   5.941   4.622 -0.0253  0.4275  1.8027
  184SLPC  H18T21095   4.009   6.032   4.542 -0.4841  0.4806 -0.6063
  184SLPC   C3321096   3.964   6.327   2.912 -1.1890  0.2692  0.2572
  184SLPC   H3X21097   3.876   6.335   2.979 -0.9977  0.1740  0.5212
  184SLPC   H3Y21098   3.974   6.428   2.867  1.0799 -0.0201  0.0028
  184SLPC   C3421099   4.088   6.290   2.989 -0.6865 -0.3274 -0.0402
  184SLPC   H4X21100   4.180   6.304   2.927 -0.9891 -0.4015 -0.5131
  184SLPC   H4Y21101   4.086   6.185   3.025 -0.9308 -0.3051  0.0147
  184SLPC   C3521102   4.114   6.381   3.110  0.1282 -0.1711  0.1647
  184SLPC   H5X21103   4.035   6.378   3.188 -0.3346  0.5734 -0.2627
  184SLPC   H5Y21104   4.113   6.487   3.077  0.6647  0.1025  1.0083
  184SLPC   C3621105   4.254   6.366   3.170  0.4202  0.3165  0.4853
  184SLPC   H6X21106   4.326   6.423   3.107  2.9795 -2.3232  0.7940
  184SLPC   H6Y21107   4.285   6.259   3.169  3.2388  1.0637 -0.5520
  184SLPC   C3721108   4.282   6.411   3.308 -0.3425 -0.3531 -0.1588
  184SLPC   H7X21109   4.243   6.513   3.331 -0.1566 -0.5803  1.2120
  184SLPC   H7Y21110   4.392   6.427   3.317 -0.4374  0.4963 -0.3311
  184SLPC   C3821111   4.223   6.315   3.402  0.1866 -0.2244 -0.0857
  184SLPC   H8X21112   4.266   6.217   3.373  1.5773 -0.5440  2.6572
  184SLPC   H8Y21113   4.112   6.309   3.401  0.2400 -1.7387  0.5575
  184SLPC   C3921114   4.258   6.333   3.550  0.2497  0.3921 -0.3739
  184SLPC   H9X21115   4.202   6.256   3.606 -1.1950  0.5174 -1.5883
  184SLPC   H9Y21116   4.216   6.431   3.582  1.1247  0.2838  1.2077
  184SLPC  C31021117   4.416   6.332   3.574  1.1314 -0.1681  0.6952
  184SLPC  H10X21118   4.466   6.421   3.531  0.5772  2.6300  5.2140
  184SLPC  H10Y21119   4.457   6.235   3.537 -1.2653 -1.1211  0.2945
  184SLPC  C31121120   4.442   6.334   3.722  0.9079  0.8569  0.2702
  184SLPC  H11X21121   4.545   6.296   3.742 -0.1404 -1.4733  1.6214
  184SLPC  H11Y21122   4.381   6.255   3.769  1.9725 -0.2122 -0.0868
  184SLPC  C31221123   4.439   6.475   3.775  0.2078  0.4902 -0.2023
  184SLPC  H12X21124   4.338   6.513   3.801  0.4671  1.8229 -1.0440
  184SLPC  H12Y21125   4.483   6.557   3.714 -1.0912  2.5145  1.4498
  184SLPC  C31321126   4.514   6.462   3.915 -0.0230  0.1487 -0.6803
  184SLPC  H13X21127   4.616   6.422   3.898 -0.0970  0.6582 -2.4779
  184SLPC  H13Y21128   4.467   6.390   3.985  0.1344 -0.5871 -1.3314
  184SLPC  C31421129   4.531   6.593   3.998 -0.3025 -0.4603 -0.0088
  184SLPC  H14X21130   4.434   6.646   4.013  0.7502  1.6871 -0.4465
  184SLPC  H14Y21131   4.601   6.664   3.950  0.1050  0.4230  1.8213
  184SLPC  C31521132   4.595   6.563   4.138 -0.4667  0.0837  0.3488
  184SLPC  H15X21133   4.527   6.505   4.204 -1.1208  0.5087  0.0511
  184SLPC  H15Y21134   4.602   6.667   4.177 -0.0005  0.6962 -1.2864
  184SLPC  C31621135   4.732   6.498   4.119 -0.1963  0.4867 -0.3463
  184SLPC  H16X21136   4.801   6.556   4.055 -1.9218  3.2530  0.1366
  184SLPC  H16Y21137   4.719   6.396   4.077 -0.2707  0.0422  0.7188
  184SLPC  C31721138   4.797   6.472   4.259 -0.4204  0.5753  0.0492
  184SLPC  H17X21139   4.719   6.432   4.328  1.5887  0.2041  2.2687
  184SLPC  H17Y21140   4.839   6.565   4.304 -1.7146  0.9010  0.6294
  184SLPC  C31821141   4.903   6.362   4.260  0.3720  0.4609  0.0530
  184SLPC  H18X21142   4.988   6.393   4.196  2.0462 -1.1775  1.3789
  184SLPC  H18Y21143   4.860   6.263   4.233 -2.4367  1.6826 -0.3182
  184SLPC  H18Z21144   4.943   6.354   4.364  0.2113  0.8462  0.1475
  185POPC     N21145   3.151   6.096   6.864 -0.0266  0.1405  0.6356
  185POPC   C1221146   3.096   6.219   6.791 -1.2731 -0.4026 -0.3651
  185POPC  H12A21147   3.031   6.270   6.862  0.4581  1.4092 -0.0003
  185POPC  H12B21148   3.031   6.187   6.711 -0.4493  2.8334 -2.5550
  185POPC   C1321149   3.259   6.132   6.963 -0.2775  0.6257  0.5185
  185POPC  H13A21150   3.230   6.220   7.020 -2.4403 -0.9659  2.0624
  185POPC  H13B21151   3.279   6.051   7.031 -0.2684 -1.4504 -1.8464
  185POPC  H13C21152   3.355   6.153   6.919  1.5117 -0.7916  3.4905
  185POPC   C1421153   3.038   6.026   6.937 -0.2933 -0.3307  0.2138
  185POPC  H14A21154   3.077   5.936   6.984  1.6194  0.5357  0.3955
  185POPC  H14B21155   2.980   6.093   6.999  0.7418 -0.3673  1.2603
  185POPC  H14C21156   2.973   5.984   6.862  1.8660  1.4729 -2.8893
  185POPC   C1521157   3.201   5.999   6.758 -0.2391  0.0785 -0.1845
  185POPC  H15A21158   3.119   5.977   6.690  0.6220  2.4762 -2.1862
  185POPC  H15B21159   3.242   5.914   6.809  0.1904  1.2877  1.5932
  185POPC  H15C21160   3.281   6.048   6.704  1.9906 -0.7034  2.2154
  185POPC   C1121161   3.207   6.312   6.735 -0.4139  0.1948  0.4012
  185POPC  H11A21162   3.173   6.354   6.638 -0.3485 -0.4430  0.1030
  185POPC  H11B21163   3.290   6.245   6.704 -0.7130 -0.5919  1.2604
  185POPC     P21164   3.168   6.518   6.896  0.0740 -0.0778  0.1330
  185POPC   O1321165   3.260   6.630   6.925 -0.8383 -0.0765 -0.2466
  185POPC   O1421166   3.085   6.456   7.005 -0.6805 -0.3624 -0.6570
  185POPC   O1221167   3.244   6.410   6.828 -0.5292 -0.0808 -0.1331
  185POPC   O1121168   3.065   6.576   6.782 -0.4018  0.6946  0.0261
  185POPC    C121169   2.922   6.572   6.800  0.0384  0.3160  0.5371
  185POPC    HA21170   2.900   6.673   6.841  0.6340  2.1113 -3.1336
  185POPC    HB21171   2.885   6.494   6.869 -0.2274 -0.1750 -0.1584
  185POPC    C221172   2.841   6.562   6.668 -0.2817 -0.0071 -0.0789
  185POPC    HS21173   2.870   6.475   6.606 -0.3690  0.8904 -1.4418
  185POPC   O2121174   2.855   6.682   6.594 -0.5697 -0.3457  0.3674
  185POPC   C2121175   2.897   6.668   6.468 -0.4001 -0.1324 -0.1826
  185POPC   O2221176   2.913   6.567   6.400 -0.6204 -0.1303  0.5797
  185POPC   C2221177   2.893   6.809   6.406 -0.0686  0.2042 -0.4078
  185POPC   H2R21178   2.972   6.867   6.457  1.7600 -4.2300  2.3620
  185POPC   H2S21179   2.793   6.855   6.424 -1.5228 -2.7764 -0.2370
  185POPC    C321180   2.691   6.548   6.710  0.8205  0.3235  0.6305
  185POPC    HX21181   2.664   6.626   6.784  0.5684  1.2781 -0.4376
  185POPC    HY21182   2.673   6.450   6.759 -0.7066 -0.2020 -0.9163
  185POPC   O3121183   2.598   6.564   6.602  0.3364 -0.0905  0.1004
  185POPC   C3121184   2.570   6.446   6.538 -0.4541 -0.3026 -0.7681
  185POPC   O3221185   2.614   6.339   6.570  0.1161 -0.0161 -0.4313
  185POPC   C3221186   2.465   6.478   6.430 -0.1728 -0.0164  0.0576
  185POPC   H2X21187   2.390   6.549   6.472 -0.6781 -0.9533  0.7888
  185POPC   H2Y21188   2.419   6.381   6.400 -0.0114 -0.4711  1.1840
  185POPC   C2321189   2.935   6.803   6.262 -0.3824 -1.0148  0.9257
  185POPC   H3R21190   2.911   6.899   6.212  2.2642 -0.6281  0.1946
  185POPC   H3S21191   2.891   6.718   6.205  0.4265 -1.5213  1.0354
  185POPC   C2421192   3.089   6.797   6.254 -0.0125 -0.2766  0.0370
  185POPC   H4R21193   3.137   6.709   6.303 -1.9619 -0.2346  2.1825
  185POPC   H4S21194   3.138   6.889   6.294 -0.3538 -0.2270  0.3489
  185POPC   C2521195   3.127   6.791   6.103 -0.7240  0.0715  0.2346
  185POPC   H5R21196   3.068   6.872   6.055  0.8820  1.3751  0.3541
  185POPC   H5S21197   3.082   6.695   6.070  3.1291 -1.6948 -0.4135
  185POPC   C2621198   3.277   6.788   6.081 -0.3440  0.1623  0.5389
  185POPC   H6R21199   3.316   6.695   6.126 -0.1119 -1.8200 -3.3354
  185POPC   H6S21200   3.317   6.880   6.128  0.9409  0.6825 -1.4585
  185POPC   C2721201   3.305   6.791   5.935 -0.8111 -0.0199  1.3065
  185POPC   H7R21202   3.412   6.821   5.927 -0.1523 -2.4440  0.2138
  185POPC   H7S21203   3.241   6.872   5.895  0.0660  1.1335  2.1475
  185POPC   C2821204   3.301   6.642   5.871 -0.2986  0.0743  0.5388
  185POPC   H8R21205   3.302   6.656   5.761 -1.5074 -1.3259  0.3097
  185POPC   H8S21206   3.201   6.597   5.891 -1.2741  2.2883  0.9162
  185POPC   C2921207   3.414   6.545   5.909 -0.3380 -0.9290 -0.3625
  185POPC   H9121208   3.400   6.482   5.998 -4.1958 -0.5836 -0.5790
  185POPC  C21021209   3.527   6.527   5.834  0.5032 -0.3452  0.0337
  185POPC  H10121210   3.603   6.454   5.867  1.5257  0.3041 -0.8231
  185POPC  C21121211   3.563   6.608   5.708 -0.0515  0.1116  1.0243
  185POPC  H11R21212   3.672   6.628   5.702 -0.0781  0.2158  0.8924
  185POPC  H11S21213   3.511   6.705   5.724 -1.0558 -0.2149 -0.0736
  185POPC  C21221214   3.513   6.561   5.571 -1.2409  0.1734 -0.4991
  185POPC  H12R21215   3.404   6.540   5.577 -0.6937 -3.1911 -0.0963
  185POPC  H12S21216   3.569   6.467   5.550 -0.5838  0.6038 -0.7119
  185POPC  C21321217   3.537   6.674   5.474 -0.1518  0.5293  0.1493
  185POPC  H13R21218   3.646   6.694   5.466 -0.1138 -0.2535 -1.8045
  185POPC  H13S21219   3.500   6.771   5.512  0.8866  1.5925 -1.4742
  185POPC  C21421220   3.468   6.649   5.339 -1.1134  0.0342  0.2137
  185POPC  H14R21221   3.358   6.655   5.346 -0.9933  1.1927  1.3126
  185POPC  H14S21222   3.485   6.547   5.296 -0.6764  0.1294  0.1544
  185POPC  C21521223   3.499   6.764   5.235 -0.0580  0.1956  0.1173
  185POPC  H15R21224   3.606   6.766   5.204 -0.4767  1.5066 -1.3397
  185POPC  H15S21225   3.478   6.861   5.284  0.8496  0.1396  0.6525
  185POPC  C21621226   3.412   6.740   5.110 -0.1457  0.5052 -0.1912
  185POPC  H16R21227   3.307   6.743   5.148  0.0053  0.5651  0.2320
  185POPC  H16S21228   3.420   6.638   5.068 -2.6364 -0.1559  0.7427
  185POPC  C21721229   3.448   6.845   5.004 -0.5390 -0.0634  0.4850
  185POPC  H17R21230   3.552   6.836   4.968 -0.7965 -1.0408 -0.0587
  185POPC  H17S21231   3.428   6.947   5.044  0.1923  0.8479 -1.3829
  185POPC  C21821232   3.353   6.831   4.879  0.2991 -0.1798 -0.3781
  185POPC  H18R21233   3.397   6.899   4.803  4.7329 -3.0701 -0.7417
  185POPC  H18S21234   3.254   6.868   4.912  0.6421  1.4680 -1.0903
  185POPC  H18T21235   3.339   6.727   4.844 -1.0626 -0.9719  2.2698
  185POPC   C3321236   2.522   6.537   6.299 -0.3892 -0.0157  0.3582
  185POPC   H3X21237   2.461   6.507   6.211  0.2669 -0.8022  0.1622
  185POPC   H3Y21238   2.622   6.496   6.272 -0.6404 -0.0382 -0.5730
  185POPC   C3421239   2.526   6.692   6.302 -0.5862 -0.0641  0.0579
  185POPC   H4X21240   2.599   6.724   6.380 -1.6163 -0.8812  1.4107
  185POPC   H4Y21241   2.435   6.745   6.338  0.0995  1.6351 -0.6253
  185POPC   C3521242   2.563   6.756   6.166  0.2449  0.1350 -0.4017
  185POPC   H5X21243   2.488   6.731   6.088  1.5219 -0.7034 -1.4152
  185POPC   H5Y21244   2.665   6.731   6.129  0.4877 -1.5570  1.2427
  185POPC   C3621245   2.561   6.915   6.178  0.5730  0.4350  0.5422
  185POPC   H6X21246   2.634   6.933   6.260  1.8297 -1.2452 -0.1559
  185POPC   H6Y21247   2.453   6.939   6.188  0.2568 -0.8443  0.3281
  185POPC   C3721248   2.607   6.993   6.058 -0.1551  0.2425  0.0209
  185POPC   H7X21249   2.717   6.979   6.048 -0.2056  0.0714 -0.3404
  185POPC   H7Y21250   2.595   7.103   6.073  0.3439 -0.0103  2.7411
  185POPC   C3821251   2.537   6.958   5.921 -0.0675  0.2423 -0.1784
  185POPC   H8X21252   2.433   6.940   5.956  0.5265 -1.5730  0.8160
  185POPC   H8Y21253   2.574   6.861   5.881 -0.8391 -0.3910  0.5821
  185POPC   C3921254   2.555   7.055   5.811  0.4640  0.2578  0.4689
  185POPC   H9X21255   2.662   7.083   5.803  0.2179  1.2534  0.4996
  185POPC   H9Y21256   2.496   7.144   5.843 -1.5048 -1.4205  1.8657
  185POPC  C31021257   2.511   7.020   5.669 -0.2869  0.0269  0.1068
  185POPC  H10X21258   2.533   7.105   5.602 -1.0114 -1.0271 -1.5283
  185POPC  H10Y21259   2.402   7.016   5.649 -0.1478 -1.1189 -0.4878
  185POPC  C31121260   2.574   6.895   5.613 -0.0836  0.0196 -0.3176
  185POPC  H11X21261   2.544   6.802   5.667  1.3864  0.1790  0.8588
  185POPC  H11Y21262   2.685   6.896   5.623 -0.1403 -1.6160  0.9748
  185POPC  C31221263   2.537   6.865   5.462 -0.0569  0.2243  0.2661
  185POPC  H12X21264   2.432   6.833   5.446 -0.7973  0.6954  3.4884
  185POPC  H12Y21265   2.604   6.780   5.441  1.6390  0.8867  2.5735
  185POPC  C31321266   2.571   6.977   5.368  0.0746 -0.0400 -0.3279
  185POPC  H13X21267   2.675   7.013   5.384  1.0744 -1.5961 -2.7377
  185POPC  H13Y21268   2.507   7.062   5.400  0.4443  0.2495 -0.3420
  185POPC  C31421269   2.562   6.932   5.224 -0.0955  0.8078  0.6288
  185POPC  H14X21270   2.463   6.930   5.174  0.5592 -1.4478 -0.6918
  185POPC  H14Y21271   2.605   6.831   5.208 -0.8952  0.7208 -1.1876
  185POPC  C31521272   2.635   7.026   5.124 -0.3928  0.6740  0.3974
  185POPC  H15X21273   2.739   7.028   5.162 -0.1711  3.5637 -0.1341
  185POPC  H15Y21274   2.598   7.130   5.128  2.1935  1.8319 -2.2204
  185POPC  C31621275   2.629   6.975   4.978 -0.3585 -0.2228  0.0495
  185POPC  H16X21276   2.526   6.934   4.971  0.3184 -2.4540  1.8872
  185POPC  H16Y21277   2.696   6.889   4.960 -0.5525 -0.9842  2.5140
  185POPC  H16Z21278   2.648   7.058   4.906  1.5468 -2.0974 -1.7346
  186POPC     N21279   4.215   4.434   6.870  0.2461  0.1453 -0.5880
  186POPC   C1221280   4.317   4.538   6.832  0.2444  0.2008  0.9001
  186POPC  H12A21281   4.416   4.504   6.860 -0.9170 -1.5525  3.2819
  186POPC  H12B21282   4.302   4.628   6.890  1.1244  1.9338 -1.4387
  186POPC   C1321283   4.207   4.312   6.784  0.9176  0.4953 -0.4210
  186POPC  H13A21284   4.140   4.231   6.808  0.6822 -0.4330 -3.6934
  186POPC  H13B21285   4.175   4.342   6.685 -0.0198  1.6475  0.2146
  186POPC  H13C21286   4.306   4.269   6.770  2.0182  2.0306  1.9678
  186POPC   C1421287   4.253   4.395   7.008 -0.0824  0.1572  0.3712
  186POPC  H14A21288   4.239   4.484   7.067 -0.4473  1.1279 -1.1362
  186POPC  H14B21289   4.193   4.313   7.046  1.2309 -0.5775  0.9492
  186POPC  H14C21290   4.358   4.376   7.023 -0.3010 -0.5218  1.1374
  186POPC   C1521291   4.079   4.492   6.869  0.5276  0.1570 -0.1306
  186POPC  H15A21292   4.033   4.525   6.776 -0.1099  3.2658  1.1541
  186POPC  H15B21293   4.072   4.581   6.929 -3.5008  0.2782 -0.4950
  186POPC  H15C21294   4.010   4.416   6.902 -1.8797  2.0504 -0.4567
  186POPC   C1121295   4.322   4.585   6.689  0.7426 -0.3233  0.3282
  186POPC  H11A21296   4.232   4.635   6.648 -0.5159 -0.9661  2.1760
  186POPC  H11B21297   4.337   4.488   6.637 -2.9074 -1.0561  0.3695
  186POPC     P21298   4.582   4.639   6.660 -0.4639 -0.1793  0.1272
  186POPC   O1321299   4.595   4.505   6.713  0.5966  0.7871  0.1047
  186POPC   O1421300   4.663   4.747   6.721 -0.0080 -0.1775  0.2044
  186POPC   O1221301   4.429   4.679   6.675  0.0697 -0.4910  0.1182
  186POPC   O1121302   4.603   4.634   6.501  0.3216 -0.0015  0.5939
  186POPC    C121303   4.502   4.606   6.408  0.4664 -0.3042 -0.1367
  186POPC    HA21304   4.412   4.669   6.424 -0.2172 -1.2909  0.0283
  186POPC    HB21305   4.466   4.501   6.415 -2.1264  0.5911  1.4358
  186POPC    C221306   4.548   4.632   6.266  0.3911 -0.1375 -0.1102
  186POPC    HS21307   4.643   4.578   6.246  0.0938 -0.6595 -0.1398
  186POPC   O2121308   4.554   4.779   6.250 -0.1597  0.1821  0.6015
  186POPC   C2121309   4.667   4.816   6.203  0.3576 -0.0854  0.0963
  186POPC   O2221310   4.770   4.757   6.202  0.4372 -0.5448  0.1980
  186POPC   C2221311   4.655   4.962   6.148 -0.4219  0.0173 -0.0852
  186POPC   H2R21312   4.678   5.025   6.237 -1.6853 -0.2722  0.4690
  186POPC   H2S21313   4.549   4.971   6.116 -0.3029 -3.7765 -2.0513
  186POPC    C321314   4.445   4.584   6.158  0.1139 -0.2876  0.1722
  186POPC    HX21315   4.362   4.657   6.164  1.4672  1.2167  1.2154
  186POPC    HY21316   4.416   4.481   6.189 -1.3715  0.0723  0.0233
  186POPC   O3121317   4.509   4.595   6.033  0.6953 -0.3569 -0.6765
  186POPC   C3121318   4.435   4.546   5.931 -0.5312  0.0775 -0.3729
  186POPC   O3221319   4.327   4.493   5.946  0.1399 -0.2858  0.1337
  186POPC   C3221320   4.508   4.591   5.800  0.0722 -0.1706  0.2331
  186POPC   H2X21321   4.612   4.552   5.804  0.4560  0.6431 -1.1255
  186POPC   H2Y21322   4.510   4.702   5.805 -2.2902 -0.1255  1.6492
  186POPC   C2321323   4.753   4.995   6.025  0.5595  0.1460 -1.0935
  186POPC   H3R21324   4.857   4.976   6.060 -0.1476 -1.0142  0.4987
  186POPC   H3S21325   4.742   5.104   6.005 -2.3789 -0.0259 -0.8385
  186POPC   C2421326   4.707   4.910   5.904 -0.4047 -0.0468 -1.1916
  186POPC   H4R21327   4.597   4.922   5.895 -0.6592  0.5062  1.6118
  186POPC   H4S21328   4.730   4.802   5.917  1.3281  0.3892 -0.2147
  186POPC   C2521329   4.772   4.952   5.774  0.2835 -0.2535  0.0353
  186POPC   H5R21330   4.879   4.923   5.784  0.1657 -0.5764  0.3672
  186POPC   H5S21331   4.769   5.063   5.768 -1.3085 -0.2804 -5.5346
  186POPC   C2621332   4.721   4.879   5.652 -0.2402  0.0502 -0.4002
  186POPC   H6R21333   4.615   4.905   5.636  0.1839  0.9969 -1.8116
  186POPC   H6S21334   4.721   4.771   5.677 -0.4125  0.2025  0.2853
  186POPC   C2721335   4.794   4.918   5.528  0.1771  0.1690  0.3792
  186POPC   H7R21336   4.899   4.916   5.565 -0.3821  1.3313  2.0968
  186POPC   H7S21337   4.776   5.021   5.492  2.0841  1.0379  1.7702
  186POPC   C2821338   4.766   4.820   5.417  0.2741  0.2889 -0.6283
  186POPC   H8R21339   4.672   4.842   5.363  0.5562 -1.0055 -1.7143
  186POPC   H8S21340   4.742   4.728   5.475 -0.9394  1.9886  1.7249
  186POPC   C2921341   4.868   4.793   5.309  1.2726 -0.8668  0.9427
  186POPC   H9121342   4.967   4.762   5.347  1.6879 -0.0560  0.5589
  186POPC  C21021343   4.855   4.806   5.174  0.2864 -1.4881  0.8464
  186POPC  H10121344   4.944   4.788   5.112 -1.8909 -2.0638 -2.3659
  186POPC  C21121345   4.726   4.851   5.105  0.1395 -0.7274 -0.0095
  186POPC  H11R21346   4.707   4.960   5.099 -1.4687 -1.0274 -1.0495
  186POPC  H11S21347   4.639   4.804   5.155  1.1923  0.4388  3.1591
  186POPC  C21221348   4.734   4.803   4.962 -0.2988 -0.1507 -0.4302
  186POPC  H12R21349   4.633   4.819   4.919 -1.5793 -2.3024  1.5034
  186POPC  H12S21350   4.758   4.694   4.958  0.1767 -0.0204 -1.3828
  186POPC  C21321351   4.833   4.873   4.873 -0.6148  0.0261 -0.3447
  186POPC  H13R21352   4.931   4.820   4.874 -0.3863  0.3702 -1.9385
  186POPC  H13S21353   4.847   4.973   4.919 -1.2592  0.1640 -0.4436
  186POPC  C21421354   4.782   4.897   4.730  0.7900  0.5459 -0.2577
  186POPC  H14R21355   4.685   4.952   4.729  0.3731 -0.1816 -0.8933
  186POPC  H14S21356   4.749   4.798   4.692  1.5767 -0.9656  2.6710
  186POPC  C21521357   4.881   4.945   4.628  0.0300 -0.6097  0.1097
  186POPC  H15R21358   4.964   4.871   4.621  1.3578  0.7338  0.9679
  186POPC  H15S21359   4.931   5.037   4.665 -0.0709 -1.9520  3.9659
  186POPC  C21621360   4.833   4.968   4.480 -0.1402 -0.2086 -0.6765
  186POPC  H16R21361   4.750   5.042   4.481  0.5742  0.6498  1.2579
  186POPC  H16S21362   4.800   4.869   4.442 -1.7771 -0.0323  0.1779
  186POPC  C21721363   4.944   5.036   4.395 -0.1899 -0.0527  0.6973
  186POPC  H17R21364   5.041   4.984   4.408 -0.2702  0.3072  3.3922
  186POPC  H17S21365   4.956   5.138   4.438  0.9043 -0.1438  0.6199
  186POPC  C21821366   4.904   5.035   4.245 -0.6149 -0.3881 -0.3782
  186POPC  H18R21367   4.828   5.108   4.212  0.9848  0.5817 -2.1000
  186POPC  H18S21368   4.858   4.936   4.225 -0.6894 -0.0281 -2.1419
  186POPC  H18T21369   5.000   5.043   4.190 -0.5636 -2.0898 -0.5906
  186POPC   C3321370   4.435   4.532   5.671 -0.0525 -0.4256  0.5005
  186POPC   H3X21371   4.338   4.586   5.667  1.2402  2.0112 -0.3078
  186POPC   H3Y21372   4.409   4.425   5.683 -2.5440 -0.0133 -0.5331
  186POPC   C3421373   4.507   4.552   5.542 -0.2581  0.3699  1.1845
  186POPC   H4X21374   4.608   4.506   5.544  0.0424  1.0313  1.8096
  186POPC   H4Y21375   4.526   4.657   5.513 -1.7616 -0.3636 -3.1384
  186POPC   C3521376   4.432   4.516   5.416  0.1865 -0.0148 -0.7261
  186POPC   H5X21377   4.349   4.589   5.423  1.0326  0.9176 -0.0752
  186POPC   H5Y21378   4.405   4.408   5.414  0.8287 -0.1897 -0.1359
  186POPC   C3621379   4.526   4.533   5.304 -0.1169  0.1658  0.8375
  186POPC   H6X21380   4.624   4.482   5.317  1.0412  2.4261  1.7088
  186POPC   H6Y21381   4.553   4.640   5.291  0.5678 -0.0582  0.3408
  186POPC   C3721382   4.458   4.478   5.172 -0.5395 -0.1440 -0.4224
  186POPC   H7X21383   4.356   4.521   5.173  0.0143  1.3019 -1.8144
  186POPC   H7Y21384   4.443   4.368   5.174  0.1203 -0.2266  1.3797
  186POPC   C3821385   4.533   4.516   5.040 -0.1527 -0.3549 -0.2419
  186POPC   H8X21386   4.638   4.482   5.049  0.1229  0.3235 -0.7222
  186POPC   H8Y21387   4.532   4.625   5.016  0.9946 -1.1134 -4.4066
  186POPC   C3921388   4.458   4.446   4.918  0.0972 -0.2894 -0.3282
  186POPC   H9X21389   4.347   4.449   4.922  0.1426  1.5038  1.7986
  186POPC   H9Y21390   4.482   4.338   4.922 -3.0129 -1.0496  0.2688
  186POPC  C31021391   4.500   4.493   4.776  0.5885 -0.1840 -1.3039
  186POPC  H10X21392   4.463   4.418   4.702 -0.0216 -0.9542 -0.2504
  186POPC  H10Y21393   4.609   4.478   4.765  0.3393 -3.5159 -0.4044
  186POPC  C31121394   4.445   4.632   4.737 -0.2454 -0.8442  0.1751
  186POPC  H11X21395   4.487   4.719   4.793  0.1466 -0.2337 -1.0479
  186POPC  H11Y21396   4.335   4.622   4.744 -0.4696  1.9857  2.1003
  186POPC  C31221397   4.478   4.658   4.591 -0.2266 -0.6873  0.5039
  186POPC  H12X21398   4.444   4.583   4.517 -0.4955  0.4902 -0.6132
  186POPC  H12Y21399   4.589   4.664   4.581 -0.2859  0.0471  0.1713
  186POPC  C31321400   4.413   4.793   4.544  0.4723 -0.7797  0.2393
  186POPC  H13X21401   4.436   4.864   4.626  0.6387  0.3721 -0.7864
  186POPC  H13Y21402   4.305   4.786   4.523  0.4804 -3.2374  0.6452
  186POPC  C31421403   4.478   4.848   4.417  0.2385  0.2726 -0.0240
  186POPC  H14X21404   4.462   4.783   4.328  0.4640  0.5593 -0.2748
  186POPC  H14Y21405   4.588   4.846   4.436  0.0861 -0.2633  0.9124
  186POPC  C31521406   4.440   4.987   4.376  0.3263  0.0131 -0.8069
  186POPC  H15X21407   4.442   5.056   4.462 -2.1705 -0.7762 -0.0224
  186POPC  H15Y21408   4.331   4.985   4.354 -0.7407  1.9518  3.3420
  186POPC  C31621409   4.521   5.059   4.274 -0.5183 -0.1444  0.5216
  186POPC  H16X21410   4.545   4.987   4.194 -0.6063 -1.5123  1.6803
  186POPC  H16Y21411   4.619   5.095   4.313  0.8652 -1.4697 -1.5168
  186POPC  H16Z21412   4.473   5.146   4.225  1.7884 -0.9994 -3.7235
  187POPC     N21413   4.277   6.400   1.930  0.3427  0.0859  0.5860
  187POPC   C1221414   4.249   6.399   2.069 -1.0950  0.4294  0.3247
  187POPC  H12A21415   4.257   6.504   2.094 -1.2037  1.5339 -3.5362
  187POPC  H12B21416   4.322   6.345   2.127  0.0967  0.0448 -1.4429
  187POPC   C1321417   4.282   6.254   1.885  0.4761  0.5270  0.4869
  187POPC  H13A21418   4.188   6.208   1.909  0.0526  1.1601  0.0945
  187POPC  H13B21419   4.302   6.246   1.779  0.6844 -3.0721  0.6927
  187POPC  H13C21420   4.359   6.197   1.934  1.0748 -0.0372 -1.0402
  187POPC   C1421421   4.173   6.475   1.850  0.7756  0.7751 -0.1172
  187POPC  H14A21422   4.085   6.414   1.839  1.0561  0.3948 -0.2628
  187POPC  H14B21423   4.140   6.566   1.898  1.4971 -0.8834  3.9130
  187POPC  H14C21424   4.205   6.491   1.748  1.2814  0.5081 -0.0031
  187POPC   C1521425   4.399   6.473   1.911  0.1169  1.2039 -0.1139
  187POPC  H15A21426   4.423   6.491   1.807  0.2284  1.0288 -0.1193
  187POPC  H15B21427   4.481   6.424   1.963 -0.9255 -0.4341  0.0560
  187POPC  H15C21428   4.394   6.575   1.947  0.1968  1.2239 -0.1574
  187POPC   C1121429   4.118   6.347   2.126 -0.3466 -0.1038  0.4058
  187POPC  H11A21430   4.121   6.341   2.237  0.6438 -1.4198  0.3213
  187POPC  H11B21431   4.109   6.244   2.087  1.4590  0.5407 -1.9747
  187POPC     P21432   3.988   6.579   2.132 -0.0146  0.0350 -0.1760
  187POPC   O1321433   3.840   6.600   2.156 -0.4944 -0.3891  0.2906
  187POPC   O1421434   4.060   6.673   2.039  0.1959 -0.8261 -0.3269
  187POPC   O1221435   4.006   6.433   2.083  0.0743 -0.1667 -0.5239
  187POPC   O1121436   4.058   6.585   2.268  0.0001  0.5963 -0.3712
  187POPC    C121437   4.030   6.680   2.370  0.4685  0.2461  0.2776
  187POPC    HA21438   3.998   6.777   2.327  0.8391  1.4400  2.5456
  187POPC    HB21439   4.124   6.712   2.421 -0.8319  2.5059  1.4035
  187POPC    C221440   3.937   6.618   2.476  0.0740  1.0800  0.0635
  187POPC    HS21441   3.841   6.577   2.439  0.3076  1.9765 -1.6010
  187POPC   O2121442   3.912   6.713   2.578 -0.0072 -0.2814 -0.3487
  187POPC   C2121443   3.828   6.675   2.675  0.5023 -0.3219 -0.0167
  187POPC   O2221444   3.743   6.586   2.661  0.3576 -0.0183  0.2549
  187POPC   C2221445   3.860   6.744   2.802  0.0489  0.1113  0.2076
  187POPC   H2R21446   3.870   6.854   2.783  0.5076 -0.2181 -1.6650
  187POPC   H2S21447   3.966   6.720   2.825  0.2141 -0.2374 -0.8640
  187POPC    C321448   4.015   6.491   2.529 -0.5730 -0.3394  0.5281
  187POPC    HX21449   4.049   6.415   2.455  0.0241 -0.3013  0.7563
  187POPC    HY21450   3.941   6.430   2.585 -0.8850 -0.0759  0.4015
  187POPC   O3121451   4.126   6.538   2.614  0.1960 -0.4586 -0.3706
  187POPC   C3121452   4.215   6.451   2.647 -0.4352  0.5085  0.8250
  187POPC   O3221453   4.208   6.332   2.625  0.2179  0.0689  0.2902
  187POPC   C3221454   4.326   6.517   2.730  0.5560  0.7428  0.5097
  187POPC   H2X21455   4.424   6.474   2.701  0.8240  0.0091  2.3550
  187POPC   H2Y21456   4.326   6.495   2.839 -0.4921 -1.9800  0.0541
  187POPC   C2321457   3.788   6.686   2.921 -0.0227  0.9180  0.8494
  187POPC   H3R21458   3.786   6.575   2.920 -0.4520  0.9217  0.9387
  187POPC   H3S21459   3.683   6.724   2.921  0.6140  3.2670 -3.0798
  187POPC   C2421460   3.859   6.713   3.054  0.9888 -0.1208  0.3687
  187POPC   H4R21461   3.854   6.824   3.064  1.7684 -0.1345  0.9641
  187POPC   H4S21462   3.967   6.689   3.042  1.2873  1.6043 -0.7837
  187POPC   C2521463   3.790   6.630   3.161  0.1169 -0.0024 -0.0138
  187POPC   H5R21464   3.792   6.522   3.132  0.2331  0.1003 -0.3918
  187POPC   H5S21465   3.682   6.654   3.165 -0.7109 -3.0939 -0.5149
  187POPC   C2621466   3.843   6.661   3.299  0.2656  0.0398  0.0257
  187POPC   H6R21467   3.859   6.771   3.300 -2.9232  0.6074 -1.5935
  187POPC   H6S21468   3.941   6.609   3.313  0.8229  0.9618 -0.4107
  187POPC   C2721469   3.740   6.630   3.418 -0.4213 -0.1866  0.5461
  187POPC   H7R21470   3.680   6.548   3.373  1.7237 -0.8190 -1.3878
  187POPC   H7S21471   3.668   6.712   3.437 -1.4917 -0.8291 -0.6064
  187POPC   C2821472   3.799   6.584   3.550 -0.4856  0.6894 -0.4426
  187POPC   H8R21473   3.871   6.500   3.549 -0.8723  0.2386  2.1406
  187POPC   H8S21474   3.716   6.542   3.610  0.5928 -1.8790 -0.6402
  187POPC   C2921475   3.865   6.709   3.604 -0.3988 -0.3428 -0.1863
  187POPC   H9121476   3.921   6.775   3.537  0.5913 -1.0942 -0.1237
  187POPC  C21021477   3.845   6.766   3.728  0.8104  1.0346  0.2401
  187POPC  H10121478   3.904   6.855   3.753  3.1563  0.0480 -1.4280
  187POPC  C21121479   3.770   6.711   3.846  0.1610 -0.4529  0.0797
  187POPC  H11R21480   3.706   6.623   3.823 -0.4760  0.2287 -0.8202
  187POPC  H11S21481   3.701   6.793   3.876  2.9684  2.3038 -0.4450
  187POPC  C21221482   3.861   6.664   3.966 -0.2760  0.3884  0.1519
  187POPC  H12R21483   3.807   6.632   4.059  0.3441  1.0233  0.7394
  187POPC  H12S21484   3.929   6.746   3.999 -2.2529  2.3061 -0.2735
  187POPC  C21321485   3.955   6.541   3.941  0.2431  0.1568  0.1715
  187POPC  H13R21486   4.008   6.534   3.844  2.1139 -2.3495  1.2470
  187POPC  H13S21487   3.893   6.449   3.942  0.9626 -0.4388 -2.0809
  187POPC  C21421488   4.065   6.533   4.053 -0.2492  0.2983  0.3908
  187POPC  H14R21489   4.012   6.546   4.150 -1.1036 -1.2832  0.1646
  187POPC  H14S21490   4.144   6.610   4.042 -0.8740  1.0581  1.0589
  187POPC  C21521491   4.132   6.391   4.054  0.2728 -0.6969 -0.0515
  187POPC  H15R21492   4.175   6.372   3.954 -1.6212 -1.3528 -0.7755
  187POPC  H15S21493   4.057   6.313   4.078 -1.2762  0.8318  0.2620
  187POPC  C21621494   4.238   6.369   4.169  0.0845  0.0439  0.3654
  187POPC  H16R21495   4.192   6.378   4.269 -0.9012 -0.3493 -0.0357
  187POPC  H16S21496   4.322   6.442   4.159  1.5295 -1.8119 -3.0409
  187POPC  C21721497   4.303   6.229   4.154 -0.3307  0.0278  0.9270
  187POPC  H17R21498   4.356   6.208   4.059 -1.4657  1.6633 -0.1180
  187POPC  H17S21499   4.224   6.151   4.148  0.5582 -0.7438 -1.9133
  187POPC  C21821500   4.395   6.193   4.279 -0.6841 -0.2874 -0.7389
  187POPC  H18R21501   4.475   6.270   4.287  0.1172 -1.1315 -0.4987
  187POPC  H18S21502   4.438   6.092   4.266 -0.7078 -0.3371 -0.4293
  187POPC  H18T21503   4.340   6.204   4.375  0.2741 -1.9991  0.0475
  187POPC   C3321504   4.333   6.664   2.689 -0.0540 -0.0302  0.0333
  187POPC   H3X21505   4.236   6.719   2.698 -0.1372  0.0320 -1.0488
  187POPC   H3Y21506   4.368   6.675   2.584 -0.1942 -0.2270 -0.0348
  187POPC   C3421507   4.436   6.741   2.768  0.1602  0.3401 -0.3319
  187POPC   H4X21508   4.437   6.845   2.730 -0.1954  0.4555 -0.0215
  187POPC   H4Y21509   4.534   6.699   2.735  0.4908  0.2805  0.7108
  187POPC   C3521510   4.425   6.746   2.921  0.3481  0.7068 -0.3564
  187POPC   H5X21511   4.514   6.793   2.970 -0.4180  0.8404  0.9527
  187POPC   H5Y21512   4.424   6.641   2.958 -1.6343  1.2171  1.1895
  187POPC   C3621513   4.296   6.798   2.972 -0.2911 -0.8587  0.5096
  187POPC   H6X21514   4.206   6.763   2.917 -0.1854  0.2521 -0.4373
  187POPC   H6Y21515   4.307   6.907   2.951  0.6587 -0.8723  0.8585
  187POPC   C3721516   4.302   6.779   3.127 -0.4750 -0.4308 -0.1639
  187POPC   H7X21517   4.403   6.804   3.165  0.0305 -2.8600  0.2531
  187POPC   H7Y21518   4.288   6.671   3.145  2.0511 -1.1166 -1.7692
  187POPC   C3821519   4.204   6.874   3.201  0.0121  0.8537 -0.2513
  187POPC   H8X21520   4.101   6.862   3.160  0.5200 -0.0048 -1.3684
  187POPC   H8Y21521   4.233   6.978   3.175  0.5757  0.7621 -0.0163
  187POPC   C3921522   4.206   6.846   3.356  0.1847 -0.1293  0.4476
  187POPC   H9X21523   4.162   6.746   3.377  0.2178 -0.4128 -0.7660
  187POPC   H9Y21524   4.146   6.929   3.398  2.0435 -0.5581  4.4446
  187POPC  C31021525   4.344   6.856   3.417 -0.6214  0.4416 -0.5497
  187POPC  H10X21526   4.388   6.958   3.409  1.5661 -0.4327 -0.3848
  187POPC  H10Y21527   4.408   6.775   3.374 -1.5482 -0.8810  0.4785
  187POPC  C31121528   4.332   6.828   3.569 -0.6709  0.4508  0.0962
  187POPC  H11X21529   4.426   6.792   3.614 -0.4255  0.3382 -0.4917
  187POPC  H11Y21530   4.256   6.748   3.582 -2.1182  1.5528 -1.2517
  187POPC  C31221531   4.320   6.958   3.645 -0.7702 -0.0273  0.2306
  187POPC  H12X21532   4.238   7.021   3.605 -0.0131 -0.2785 -1.8445
  187POPC  H12Y21533   4.415   7.014   3.636 -1.6723  1.4631 -0.5319
  187POPC  C31321534   4.277   6.934   3.788 -0.5936  0.5253  0.1863
  187POPC  H13X21535   4.371   6.912   3.842 -1.7729 -2.1291  1.3416
  187POPC  H13Y21536   4.214   6.843   3.797 -2.2562  1.4665 -1.1982
  187POPC  C31421537   4.201   7.051   3.849  0.4427  1.0789 -0.6448
  187POPC  H14X21538   4.121   7.091   3.783  1.2920  0.0228 -2.3957
  187POPC  H14Y21539   4.264   7.142   3.856  2.7279 -0.5882  2.4012
  187POPC  C31521540   4.128   7.017   3.983 -0.6643 -0.4181  0.4119
  187POPC  H15X21541   4.063   6.938   3.940  1.4404 -1.2214 -1.5216
  187POPC  H15Y21542   4.066   7.097   4.028 -0.7274 -0.0006 -0.4075
  187POPC  C31621543   4.228   6.959   4.089 -0.3118 -0.0852 -0.3225
  187POPC  H16X21544   4.299   7.042   4.111 -0.9630  0.7013 -1.0987
  187POPC  H16Y21545   4.280   6.874   4.039 -1.5311 -0.3075 -1.2723
  187POPC  H16Z21546   4.175   6.933   4.183 -2.9762 -1.4331 -2.0821
  188POPC     N21547   2.092   4.433   1.810  0.0745  0.1828 -0.6453
  188POPC   C1221548   2.231   4.394   1.751 -0.4043 -0.5211  0.3409
  188POPC  H12A21549   2.265   4.481   1.697 -2.0265  0.5585  0.9962
  188POPC  H12B21550   2.224   4.315   1.678  1.1007 -1.9528  1.6583
  188POPC   C1321551   2.011   4.473   1.689  0.4471  0.5449 -0.0295
  188POPC  H13A21552   1.915   4.513   1.716  0.2026  0.3313 -0.5725
  188POPC  H13B21553   2.058   4.548   1.627  0.0225  1.9891  1.3426
  188POPC  H13C21554   1.984   4.384   1.633 -0.3177  1.0163 -0.4151
  188POPC   C1421555   2.035   4.310   1.876 -0.4458  0.3915  0.0172
  188POPC  H14A21556   2.018   4.229   1.806  0.7225 -1.0034  1.2986
  188POPC  H14B21557   2.087   4.282   1.966  1.5516  2.0575 -0.5456
  188POPC  H14C21558   1.938   4.343   1.909  0.3885  1.4883  1.4978
  188POPC   C1521559   2.091   4.544   1.913 -0.5613  0.5741  0.2662
  188POPC  H15A21560   2.175   4.537   1.980 -1.4940  0.3434  1.4487
  188POPC  H15B21561   2.000   4.535   1.971 -1.5046 -1.9535 -1.4598
  188POPC  H15C21562   2.097   4.642   1.867 -0.0227  1.2834  1.7400
  188POPC   C1121563   2.342   4.352   1.849  0.2942  0.2990  0.1680
  188POPC  H11A21564   2.430   4.313   1.794  0.2333  0.1892  0.1469
  188POPC  H11B21565   2.306   4.254   1.888  1.1418 -0.1240 -0.1061
  188POPC     P21566   2.497   4.547   1.930 -0.0696 -0.2835  0.3126
  188POPC   O1321567   2.444   4.681   1.963  0.5037 -0.0671 -0.1318
  188POPC   O1421568   2.567   4.540   1.798 -1.1004 -0.0147  0.2563
  188POPC   O1221569   2.372   4.449   1.947  0.0440 -0.2622 -0.2868
  188POPC   O1121570   2.593   4.498   2.047  0.6845 -0.1790 -0.1187
  188POPC    C121571   2.640   4.367   2.056  0.0216  0.1436 -0.0264
  188POPC    HA21572   2.716   4.343   1.978  0.0269  0.7005 -0.1984
  188POPC    HB21573   2.571   4.282   2.038 -1.1476  0.8669  0.8930
  188POPC    C221574   2.708   4.336   2.199 -0.0614 -0.2756  0.1274
  188POPC    HS21575   2.753   4.235   2.189  0.5230  0.0070 -0.0953
  188POPC   O2121576   2.613   4.360   2.304 -0.2797  0.3085 -0.5719
  188POPC   C2121577   2.551   4.247   2.341  0.2751 -0.6368  0.1981
  188POPC   O2221578   2.563   4.140   2.292 -0.0538  0.6083 -0.3042
  188POPC   C2221579   2.467   4.280   2.462 -0.1995  0.7480 -0.4513
  188POPC   H2R21580   2.437   4.181   2.501  0.6208 -0.2198 -2.1620
  188POPC   H2S21581   2.367   4.320   2.434 -2.0466 -2.8910  0.4202
  188POPC    C321582   2.826   4.428   2.224  0.1840  0.4914 -0.3492
  188POPC    HX21583   2.801   4.530   2.188 -0.8873  0.8880  1.3847
  188POPC    HY21584   2.911   4.392   2.162 -0.5921 -2.0024 -0.0878
  188POPC   O3121585   2.865   4.414   2.365 -0.1401 -0.3007  0.9094
  188POPC   C3121586   2.838   4.522   2.440 -0.5644  0.5035 -0.2062
  188POPC   O3221587   2.781   4.621   2.402  0.2747  0.2362 -0.4253
  188POPC   C3221588   2.895   4.482   2.577  0.8362  0.1333  0.2120
  188POPC   H2X21589   3.003   4.457   2.569  0.6644 -0.1781 -1.4353
  188POPC   H2Y21590   2.848   4.385   2.604  3.5346 -1.9557 -1.9517
  188POPC   C2321591   2.550   4.350   2.574  0.0818 -0.2800  0.3921
  188POPC   H3R21592   2.596   4.444   2.537 -0.2492  0.5270  1.9402
  188POPC   H3S21593   2.629   4.278   2.603 -1.1602 -1.3394  1.2686
  188POPC   C2421594   2.459   4.386   2.693 -0.0207  0.4356  0.1671
  188POPC   H4R21595   2.387   4.303   2.705  2.0828 -1.6225 -0.6154
  188POPC   H4S21596   2.404   4.479   2.665  1.8182  1.4275 -0.3918
  188POPC   C2521597   2.530   4.412   2.825 -0.9200  0.3069 -0.1355
  188POPC   H5R21598   2.595   4.499   2.801 -1.9612  0.5924 -2.1743
  188POPC   H5S21599   2.594   4.324   2.848  0.6447  1.3650 -0.2365
  188POPC   C2621600   2.427   4.456   2.939  0.4122  0.1772  0.2548
  188POPC   H6R21601   2.351   4.377   2.955  0.0173  0.5332  0.1385
  188POPC   H6S21602   2.376   4.550   2.908  1.4166  0.5773 -0.2453
  188POPC   C2721603   2.492   4.485   3.077 -0.3729 -0.2162 -0.0038
  188POPC   H7R21604   2.574   4.559   3.064 -0.0433 -0.4820  0.5175
  188POPC   H7S21605   2.542   4.395   3.119  1.0169  1.3364  1.8868
  188POPC   C2821606   2.385   4.546   3.174  0.5055  0.5707  0.6594
  188POPC   H8R21607   2.309   4.605   3.118  1.6634  0.4420 -1.1488
  188POPC   H8S21608   2.440   4.617   3.239  1.7516  1.8089 -1.6005
  188POPC   C2921609   2.323   4.436   3.255 -0.0672 -0.8015 -0.0645
  188POPC   H9121610   2.326   4.333   3.215  3.3121 -0.6982 -0.3389
  188POPC  C21021611   2.256   4.451   3.369 -0.3283  0.2372 -0.1689
  188POPC  H10121612   2.199   4.368   3.412  0.7617 -0.2912  0.2710
  188POPC  C21121613   2.241   4.584   3.440 -0.4321  0.4615 -0.0931
  188POPC  H11R21614   2.133   4.608   3.430 -0.2020  0.8553 -1.9292
  188POPC  H11S21615   2.303   4.664   3.394  3.4158 -1.8338  0.6724
  188POPC  C21221616   2.272   4.563   3.589 -0.8978 -0.5210 -0.2203
  188POPC  H12R21617   2.375   4.529   3.612 -1.4542 -0.1458  3.3526
  188POPC  H12S21618   2.191   4.502   3.634 -2.2281  0.9910 -0.4772
  188POPC  C21321619   2.273   4.696   3.669  0.4786 -0.1468 -0.0108
  188POPC  H13R21620   2.174   4.746   3.665  1.4820  2.0451  0.7462
  188POPC  H13S21621   2.352   4.764   3.632  1.1851 -1.0966 -0.2994
  188POPC  C21421622   2.310   4.675   3.821  0.9279 -0.0622  0.6675
  188POPC  H14R21623   2.403   4.614   3.824  0.0037 -1.4861  1.7594
  188POPC  H14S21624   2.234   4.611   3.870  1.0421 -0.0909  0.8090
  188POPC  C21521625   2.314   4.818   3.887  0.4400  0.3736 -0.3822
  188POPC  H15R21626   2.217   4.872   3.887  1.1295  1.7827 -3.2237
  188POPC  H15S21627   2.380   4.891   3.836 -0.8365  0.8466 -1.4138
  188POPC  C21621628   2.358   4.786   4.028 -0.0858  0.2643 -0.2318
  188POPC  H16R21629   2.454   4.730   4.029 -1.2724 -1.9665 -1.6676
  188POPC  H16S21630   2.281   4.721   4.077  0.6807 -0.1360  0.4652
  188POPC  C21721631   2.370   4.917   4.110  0.1625  0.3900  0.3382
  188POPC  H17R21632   2.269   4.930   4.155  0.1297  0.2110  0.3146
  188POPC  H17S21633   2.396   5.007   4.051 -2.2440  1.7088  1.1713
  188POPC  C21821634   2.480   4.908   4.218 -0.1311 -0.0299 -0.2999
  188POPC  H18R21635   2.454   4.829   4.291 -0.7135  1.5901  1.3078
  188POPC  H18S21636   2.481   5.004   4.273 -1.6966 -1.5437  2.6330
  188POPC  H18T21637   2.580   4.890   4.174 -0.6697 -0.5893 -1.3396
  188POPC   C3321638   2.879   4.585   2.693  0.2255  0.1148  0.4962
  188POPC   H3X21639   2.771   4.610   2.701  0.2791  0.7247 -0.5207
  188POPC   H3Y21640   2.940   4.677   2.681 -0.2549  0.1941 -1.8132
  188POPC   C3421641   2.917   4.528   2.832  0.6249 -0.3059 -0.9642
  188POPC   H4X21642   3.022   4.494   2.832  0.6405 -0.2818 -1.7059
  188POPC   H4Y21643   2.844   4.445   2.846  0.7613 -0.0046  2.0452
  188POPC   C3521644   2.891   4.630   2.948  0.4579 -0.1636 -0.5469
  188POPC   H5X21645   2.784   4.659   2.934 -0.0278 -2.5898 -2.7854
  188POPC   H5Y21646   2.960   4.716   2.938  1.4493 -0.8575  0.1004
  188POPC   C3621647   2.900   4.567   3.090  0.1817 -0.0712  0.1456
  188POPC   H6X21648   3.007   4.539   3.102  1.3096  2.1428 -3.3345
  188POPC   H6Y21649   2.834   4.477   3.089 -1.7806  1.3153 -0.3320
  188POPC   C3721650   2.844   4.666   3.199 -0.4582 -0.1223 -0.4171
  188POPC   H7X21651   2.737   4.673   3.173 -0.4453  0.2375 -0.3870
  188POPC   H7Y21652   2.882   4.771   3.203 -1.1478  0.1023  1.5721
  188POPC   C3821653   2.838   4.596   3.339  0.1727 -0.2120  0.4871
  188POPC   H8X21654   2.938   4.629   3.376  1.0486 -0.6654 -1.3624
  188POPC   H8Y21655   2.844   4.485   3.327  1.0232 -0.1809  0.5540
  188POPC   C3921656   2.704   4.632   3.405 -0.2397 -0.0298  0.3049
  188POPC   H9X21657   2.627   4.589   3.336 -0.7537  0.8153  0.3305
  188POPC   H9Y21658   2.688   4.742   3.412 -1.6833 -0.2110  0.1644
  188POPC  C31021659   2.692   4.584   3.547 -0.8383  0.0342 -0.1942
  188POPC  H10X21660   2.730   4.480   3.558 -3.3784 -0.9648 -0.0922
  188POPC  H10Y21661   2.591   4.594   3.592 -1.5287 -1.8777 -1.1978
  188POPC  C31121662   2.777   4.674   3.635  0.2681  0.0220 -0.5123
  188POPC  H11X21663   2.766   4.782   3.613 -2.8557 -0.2898 -0.9389
  188POPC  H11Y21664   2.884   4.658   3.610 -0.0242 -2.0684 -0.6622
  188POPC  C31221665   2.753   4.643   3.779  0.4615  0.4818  0.7828
  188POPC  H12X21666   2.772   4.536   3.805  0.6397  1.1282  3.6840
  188POPC  H12Y21667   2.645   4.656   3.801  0.0367  0.7780 -1.3156
  188POPC  C31321668   2.849   4.719   3.867  0.1317 -0.1519 -0.3526
  188POPC  H13X21669   2.848   4.824   3.832  1.6984 -0.0848 -0.2470
  188POPC  H13Y21670   2.952   4.678   3.870  0.4025  0.5285  1.6103
  188POPC  C31421671   2.809   4.721   4.014 -0.0303  0.2848  0.3286
  188POPC  H14X21672   2.813   4.617   4.050 -0.0411 -0.2915 -1.2554
  188POPC  H14Y21673   2.711   4.772   4.017  0.4913  1.2947  1.0658
  188POPC  C31521674   2.915   4.806   4.089 -0.2408 -0.0894  0.0673
  188POPC  H15X21675   2.913   4.907   4.041 -0.4324  0.9319  2.1314
  188POPC  H15Y21676   3.015   4.765   4.064 -1.1081 -1.8303 -0.6708
  188POPC  C31621677   2.901   4.818   4.239  0.2980  0.3075 -0.4901
  188POPC  H16X21678   2.915   4.725   4.299 -0.6640  1.6966  2.0318
  188POPC  H16Y21679   2.797   4.849   4.263 -0.1650 -0.6058 -1.2604
  188POPC  H16Z21680   2.976   4.893   4.274 -0.0613  1.1668 -1.4922
  189SAPI   C1221681   2.700   4.082   6.644  0.7937 -0.5003  0.3533
  189SAPI    H221682   2.602   4.031   6.632  0.7421 -0.1642 -0.7547
  189SAPI    O221683   2.675   4.200   6.719  0.0298 -0.0321  0.2191
  189SAPI   HO221684   2.581   4.196   6.738 -0.5580  2.4255 -1.6265
  189SAPI   C1321685   2.794   3.998   6.721  0.5254  0.0680  0.8174
  189SAPI    H321686   2.822   3.908   6.663 -0.8370  1.0873 -1.5373
  189SAPI    O321687   2.738   3.951   6.843  0.3285 -0.2568  0.4935
  189SAPI   HO321688   2.712   4.027   6.896 -0.2548  0.7172 -1.1059
  189SAPI   C1421689   2.928   4.063   6.747  0.0650 -0.2157  0.1798
  189SAPI    H421690   2.910   4.161   6.795  2.4775  0.0127  0.7012
  189SAPI    O421691   3.016   3.992   6.837  0.3185  0.2792  0.6410
  189SAPI   HO421692   2.967   3.999   6.919 -0.9605  1.6300 -0.2022
  189SAPI   C1521693   2.992   4.099   6.620  0.0068 -0.4473  0.8749
  189SAPI    H521694   3.014   4.000   6.577 -1.3096 -0.5460  0.3954
  189SAPI    O521695   3.111   4.174   6.644 -0.0733  0.3286  0.4257
  189SAPI   HO521696   3.131   4.230   6.568  0.5966 -2.7474 -1.8360
  189SAPI   C1621697   2.908   4.161   6.505  0.6459 -0.2839  0.4374
  189SAPI    H621698   2.906   4.269   6.532 -0.0676 -0.1788 -0.0303
  189SAPI    O621699   2.962   4.145   6.372 -0.5178  0.7998 -0.1788
  189SAPI   HO621700   2.930   4.058   6.345  0.9244 -0.0841  0.8290
  189SAPI   C1121701   2.762   4.120   6.503  1.0093 -0.2360 -0.0520
  189SAPI    H121702   2.749   4.027   6.444 -1.3308 -0.4193  0.6398
  189SAPI     P21703   2.548   4.189   6.343 -0.0314 -0.2132  0.1998
  189SAPI   O1321704   2.433   4.274   6.386 -0.3390 -0.0166  0.1804
  189SAPI   O1421705   2.519   4.041   6.327 -0.7070 -0.2775  0.1803
  189SAPI   O1221706   2.671   4.215   6.443  0.1731  0.3464 -0.0058
  189SAPI   O1121707   2.606   4.245   6.206  0.0152  0.0579  0.4142
  189SAPI    C121708   2.734   4.187   6.163 -0.3248  0.0059  0.2491
  189SAPI    HA21709   2.819   4.243   6.209 -1.2267  2.4427 -0.9300
  189SAPI    HB21710   2.744   4.077   6.177 -1.1215 -0.0568  0.3510
  189SAPI    C221711   2.740   4.209   6.000 -0.0344  0.1262  0.7928
  189SAPI    HS21712   2.846   4.189   5.972 -0.2113 -0.5597  0.5694
  189SAPI   O2121713   2.718   4.344   5.949 -0.2472  0.0637  0.4115
  189SAPI   C2121714   2.781   4.449   5.995  0.5538  0.4787  0.1494
  189SAPI   O2221715   2.867   4.448   6.081  0.0438  0.4495 -0.1349
  189SAPI   C2221716   2.722   4.577   5.923 -0.2363 -0.3617  0.3579
  189SAPI   H2R21717   2.671   4.530   5.836 -1.5582 -1.1999  1.5530
  189SAPI   H2S21718   2.644   4.625   5.985 -1.0614  1.3467 -1.8681
  189SAPI    C321719   2.646   4.118   5.920  0.3918  0.2807  0.1445
  189SAPI    HX21720   2.541   4.142   5.949  0.4585  1.1535 -0.3123
  189SAPI    HY21721   2.671   4.011   5.936 -1.3948 -0.5519 -2.1239
  189SAPI   O3121722   2.653   4.149   5.778 -0.1583 -0.2382 -0.1845
  189SAPI   C3121723   2.765   4.109   5.720 -0.0261 -0.9324 -0.2294
  189SAPI   O3221724   2.857   4.058   5.784  0.6809  0.2214  0.1675
  189SAPI   C3221725   2.766   4.157   5.575  0.6933  0.7015  0.2734
  189SAPI   H2X21726   2.785   4.266   5.588  0.3346  1.2576 -2.9507
  189SAPI   H2Y21727   2.662   4.147   5.536  0.6939 -0.1901  0.4898
  189SAPI   C2321728   2.835   4.680   5.884 -1.0011  0.3112 -0.2794
  189SAPI   H3R21729   2.861   4.730   5.979 -0.1812 -1.8276  0.6923
  189SAPI   H3S21730   2.805   4.767   5.821  1.1575  0.9942 -0.4207
  189SAPI   C2421731   2.956   4.619   5.815  0.5669 -0.0403  0.4031
  189SAPI   H4R21732   2.922   4.551   5.734 -0.2489  0.9251 -0.0838
  189SAPI   H4S21733   3.016   4.557   5.885  1.7555  2.0944  1.3621
  189SAPI   C2521734   3.038   4.727   5.752  0.5001 -0.0178 -0.3684
  189SAPI   H5R21735   3.129   4.749   5.809 -0.5064  0.7846  0.9833
  189SAPI   C2621736   3.027   4.781   5.628  0.3886  0.0398  0.8507
  189SAPI   H6R21737   3.097   4.861   5.599  0.9165 -0.4259  0.8269
  189SAPI   C2721738   2.914   4.764   5.530 -0.2922  0.3738 -0.0296
  189SAPI   H7R21739   2.852   4.855   5.521 -2.4297 -0.9772  0.4582
  189SAPI   H7S21740   2.842   4.693   5.576  0.2314 -0.0907  0.0914
  189SAPI   C2821741   2.963   4.710   5.396 -0.0045 -0.1099  0.1357
  189SAPI   H8R21742   3.055   4.750   5.350  0.3394 -2.5442 -1.4701
  189SAPI   C2921743   2.892   4.630   5.311 -1.0537  0.2808 -0.2732
  189SAPI   H9R21744   2.945   4.606   5.218 -1.6373  0.3362 -0.6220
  189SAPI  C21021745   2.763   4.553   5.333  0.2657 -0.3836  0.1945
  189SAPI  H10R21746   2.751   4.526   5.440  1.9831  0.7285  0.7223
  189SAPI  H10S21747   2.769   4.452   5.287 -0.3283  0.9611 -3.1722
  189SAPI  C21121748   2.642   4.635   5.291 -0.2785  0.6707  0.5869
  189SAPI  H11R21749   2.588   4.689   5.370 -0.8141  1.8298 -0.5473
  189SAPI  C21221750   2.573   4.616   5.177  0.3469 -0.6956 -0.0901
  189SAPI  H12R21751   2.489   4.686   5.166  2.6345  2.2288 -0.2509
  189SAPI  C21321752   2.617   4.533   5.061 -0.5869 -0.6308  0.3444
  189SAPI  H13R21753   2.715   4.486   5.083 -0.3101 -0.3464 -0.2623
  189SAPI  H13S21754   2.651   4.598   4.978  1.1806 -0.5023  1.1259
  189SAPI  C21421755   2.518   4.430   5.007 -1.0378 -0.0819  0.8508
  189SAPI  H14R21756   2.419   4.474   4.988  0.5494  3.4906 -0.1431
  189SAPI  C21521757   2.552   4.304   4.973  0.9732 -0.0445  0.0191
  189SAPI  H15R21758   2.476   4.241   4.924  0.4789  1.2288 -0.8962
  189SAPI  C21621759   2.679   4.220   4.988  0.6403 -0.2143 -0.1923
  189SAPI  H16R21760   2.665   4.118   5.028  2.4339  0.2108  1.6811
  189SAPI  H16S21761   2.748   4.277   5.054  0.1524  1.5186 -1.1185
  189SAPI  C21721762   2.743   4.202   4.855 -0.0561  0.0233  0.3468
  189SAPI  H17R21763   2.729   4.292   4.792 -4.0365  0.8466  2.1430
  189SAPI  H17S21764   2.695   4.117   4.801  1.8174 -1.0046  0.1833
  189SAPI  C21821765   2.890   4.160   4.859  0.2032 -0.3420  0.4250
  189SAPI  H18R21766   2.908   4.060   4.903  0.6378 -0.7638 -0.6573
  189SAPI  H18S21767   2.931   4.246   4.916 -1.7215  1.0533 -0.1967
  189SAPI  C21921768   2.952   4.141   4.712 -0.5573  0.0003 -0.0395
  189SAPI  H19R21769   2.916   4.222   4.645 -0.0417  0.5143  0.3004
  189SAPI  H19S21770   2.937   4.036   4.679  1.7045 -0.0178 -1.2082
  189SAPI  C22021771   3.104   4.142   4.724 -0.0258  0.3045 -0.2156
  189SAPI  H20R21772   3.151   4.138   4.624  0.1543  1.2188 -0.1740
  189SAPI  H20S21773   3.141   4.055   4.783  0.4113 -0.6014 -1.7793
  189SAPI  H20T21774   3.140   4.230   4.782 -4.1097  1.8896  0.2950
  189SAPI   C3321775   2.874   4.102   5.480 -0.4810  0.3728 -0.3260
  189SAPI   H3X21776   2.843   4.003   5.441  1.4164  0.2619 -1.7040
  189SAPI   H3Y21777   2.964   4.090   5.544 -0.4490 -0.2251 -0.4805
  189SAPI   C3421778   2.908   4.206   5.372  0.1078  0.2049  0.2271
  189SAPI   H4X21779   2.936   4.306   5.410  0.5570  0.2665 -0.2546
  189SAPI   H4Y21780   2.816   4.216   5.310  0.4097 -0.1375 -0.2777
  189SAPI   C3521781   3.022   4.159   5.276  0.3051 -0.0303  0.5557
  189SAPI   H5X21782   2.974   4.083   5.211  0.1773  0.3757  0.1681
  189SAPI   H5Y21783   3.101   4.110   5.337  0.8146  1.1890  0.8957
  189SAPI   C3621784   3.082   4.270   5.203 -0.4714 -0.4515  0.3548
  189SAPI   H6X21785   3.123   4.340   5.279 -0.2126  0.3499 -0.5187
  189SAPI   H6Y21786   3.007   4.335   5.155  1.1260 -0.9831 -3.1366
  189SAPI   C3721787   3.181   4.227   5.092 -0.9104 -0.6951 -1.0343
  189SAPI   H7X21788   3.139   4.161   5.013  1.6060 -0.6744 -2.5164
  189SAPI   H7Y21789   3.258   4.164   5.142 -1.2547 -1.7421 -1.7945
  189SAPI   C3821790   3.243   4.354   5.029  0.2667  0.0552 -0.0993
  189SAPI   H8X21791   3.283   4.432   5.098  0.9362 -0.6770  0.3553
  189SAPI   H8Y21792   3.159   4.405   4.977 -0.5622  0.2363  1.3522
  189SAPI   C3921793   3.367   4.319   4.946  0.4803  0.7257 -0.2360
  189SAPI   H9X21794   3.335   4.248   4.866  1.5102 -1.8964  1.5562
  189SAPI   H9Y21795   3.441   4.264   5.007 -1.8414 -0.7439  1.3928
  189SAPI  C31021796   3.440   4.436   4.878 -0.2062 -0.3400 -0.3685
  189SAPI  H10X21797   3.484   4.484   4.968  0.6196 -2.2179  0.2891
  189SAPI  H10Y21798   3.374   4.513   4.833  3.2173  3.3031  0.3043
  189SAPI  C31121799   3.560   4.406   4.780 -0.8170 -0.3596  0.5878
  189SAPI  H11X21800   3.634   4.348   4.839 -1.6992  0.3720  2.5062
  189SAPI  H11Y21801   3.588   4.504   4.737 -1.1040 -2.5024 -5.3283
  189SAPI  C31221802   3.521   4.317   4.650 -0.6222  0.5848 -0.4593
  189SAPI  H12X21803   3.460   4.385   4.585 -0.9501 -0.7595 -1.6099
  189SAPI  H12Y21804   3.462   4.229   4.684  0.9152  0.7125  2.9260
  189SAPI  C31321805   3.643   4.289   4.562 -0.0683 -0.0310  0.2430
  189SAPI  H13X21806   3.700   4.220   4.628  0.0114 -0.8824 -0.7031
  189SAPI  H13Y21807   3.706   4.381   4.560  1.5689 -1.1325 -0.2921
  189SAPI  C31421808   3.612   4.236   4.422  1.0775 -0.4523  0.2088
  189SAPI  H14X21809   3.541   4.307   4.375  1.4998 -1.1875 -1.6278
  189SAPI  H14Y21810   3.555   4.140   4.426 -1.8131  1.1384 -0.4449
  189SAPI  C31521811   3.728   4.232   4.321  0.2250 -0.0129  0.2366
  189SAPI  H15X21812   3.746   4.337   4.290 -1.7304  0.4793  0.6409
  189SAPI  H15Y21813   3.692   4.182   4.229  0.9100  0.2642 -0.1927
  189SAPI  C31621814   3.860   4.171   4.365 -0.2463  0.2190  0.0693
  189SAPI  H16X21815   3.850   4.084   4.432  1.5326  0.7727  1.1193
  189SAPI  H16Y21816   3.919   4.248   4.420 -3.9047  1.9303  2.0356
  189SAPI  C31721817   3.953   4.147   4.240 -0.6565 -0.7810  0.1783
  189SAPI  H17X21818   3.901   4.055   4.205 -1.6402  0.5863 -2.2265
  189SAPI  H17Y21819   4.058   4.136   4.273 -0.9320 -0.6078  1.1479
  189SAPI  C31821820   3.941   4.244   4.128 -0.4230  0.1935 -0.5842
  189SAPI  H18X21821   3.997   4.337   4.153  0.7876 -0.4567 -0.7973
  189SAPI  H18Y21822   3.838   4.270   4.094  0.2090  4.2288  0.0345
  189SAPI  H18Z21823   4.006   4.210   4.045 -0.1584 -2.1257  0.5053
  190SAPI   C1221824   0.679   2.712   6.564 -0.8343  0.1086 -0.1750
  190SAPI    H221825   0.611   2.649   6.503 -1.7663  2.3503 -1.5832
  190SAPI    O221826   0.795   2.725   6.478  0.5922 -1.3218 -0.6586
  190SAPI   HO221827   0.756   2.722   6.391 -2.4375 -1.2689  0.5855
  190SAPI   C1321828   0.618   2.848   6.590  0.0616  0.5753  0.5638
  190SAPI    H321829   0.535   2.817   6.656 -1.1642 -0.4853 -1.3732
  190SAPI    O321830   0.554   2.904   6.478  0.1485 -0.0869 -0.2038
  190SAPI   HO321831   0.614   2.943   6.414  0.4522 -0.1247  0.0525
  190SAPI   C1421832   0.714   2.948   6.656  0.4276  0.1217  0.3855
  190SAPI    H421833   0.783   2.976   6.573 -2.2431  0.2340 -1.9529
  190SAPI    O421834   0.643   3.064   6.697 -0.2132 -0.4085 -1.0845
  190SAPI   HO421835   0.694   3.142   6.674 -2.7388  1.4790 -0.7396
  190SAPI   C1521836   0.797   2.882   6.764 -0.0120 -0.3461  0.5098
  190SAPI    H521837   0.731   2.891   6.853 -2.0535 -2.7051 -0.6476
  190SAPI    O521838   0.919   2.950   6.795  0.2649 -0.0954  0.4998
  190SAPI   HO521839   0.900   3.023   6.855  1.8286 -0.7241  1.8223
  190SAPI   C1621840   0.819   2.727   6.762  0.5480  0.0403 -0.1908
  190SAPI    H621841   0.907   2.712   6.696  1.4925  1.6844  0.6438
  190SAPI    O621842   0.844   2.680   6.897 -0.4267  0.0919 -0.0228
  190SAPI   HO621843   0.852   2.585   6.893 -0.7689  0.0931 -1.1705
  190SAPI   C1121844   0.707   2.648   6.700 -0.5157  0.2044  0.1849
  190SAPI    H121845   0.622   2.658   6.771 -1.1034  1.3559 -0.6500
  190SAPI     P21846   0.657   2.387   6.699  0.3846  0.0139 -0.2777
  190SAPI   O1321847   0.544   2.416   6.787 -0.0418 -0.1651 -0.6369
  190SAPI   O1421848   0.732   2.261   6.734 -0.9750  0.2582 -0.1201
  190SAPI   O1221849   0.759   2.519   6.689  0.1180  0.1568  0.8170
  190SAPI   O1121850   0.591   2.368   6.558  0.3586  0.4487 -0.3959
  190SAPI    C121851   0.644   2.288   6.455  0.3288 -0.2854  0.0379
  190SAPI    HA21852   0.707   2.210   6.505  1.5411  0.5627 -0.1260
  190SAPI    HB21853   0.558   2.225   6.422  0.9093 -2.1867  1.9101
  190SAPI    C221854   0.708   2.366   6.329 -0.4640 -0.2602 -0.3979
  190SAPI    HS21855   0.773   2.447   6.369 -0.1198 -0.5886 -0.2835
  190SAPI   O2121856   0.600   2.419   6.251 -0.5522  0.0801  0.2453
  190SAPI   C2121857   0.614   2.547   6.223 -0.1862  0.8622 -0.6139
  190SAPI   O2221858   0.703   2.621   6.257  0.3562  0.8180  0.7480
  190SAPI   C2221859   0.490   2.580   6.148 -0.0908  0.4051 -0.1100
  190SAPI   H2R21860   0.431   2.486   6.140  2.2621 -1.1504 -0.2419
  190SAPI   H2S21861   0.438   2.657   6.209  0.3391 -0.5198  1.4890
  190SAPI    C321862   0.808   2.274   6.253  0.1448 -0.8491 -0.0674
  190SAPI    HX21863   0.745   2.189   6.219  0.5202 -0.3766 -2.0277
  190SAPI    HY21864   0.877   2.218   6.320 -0.3159 -1.0403  0.2620
  190SAPI   O3121865   0.875   2.352   6.155  0.1771  0.1690  0.2694
  190SAPI   C3121866   0.841   2.324   6.031 -0.3517 -0.4303  0.5491
  190SAPI   O3221867   0.786   2.223   5.990 -0.5941 -0.4643 -0.1247
  190SAPI   C3221868   0.885   2.429   5.933 -0.4289 -0.0011 -0.2161
  190SAPI   H2X21869   0.989   2.460   5.956 -0.5750 -0.1440  0.6657
  190SAPI   H2Y21870   0.820   2.517   5.952 -1.5680 -0.4176 -1.9205
  190SAPI   C2321871   0.546   2.644   6.021 -0.0833  0.1981  0.1170
  190SAPI   H3R21872   0.612   2.565   5.979  1.1086 -0.0880  2.3822
  190SAPI   H3S21873   0.600   2.739   6.042 -0.0468  0.2500 -0.2011
  190SAPI   C2421874   0.441   2.679   5.904  0.1529  0.5320  0.1410
  190SAPI   H4R21875   0.496   2.757   5.847  0.0967  0.8080  0.4540
  190SAPI   H4S21876   0.362   2.739   5.955 -1.5307 -2.3544  1.1182
  190SAPI   C2521877   0.375   2.563   5.835 -0.1006 -0.6243 -0.2101
  190SAPI   H5R21878   0.318   2.504   5.908 -3.0964  1.2100 -0.8885
  190SAPI   C2621879   0.354   2.544   5.699 -0.4645  0.1052  0.3628
  190SAPI   H6R21880   0.296   2.457   5.665 -0.5146 -0.0719  0.8937
  190SAPI   C2721881   0.408   2.612   5.577  0.2983 -0.5514 -0.2053
  190SAPI   H7R21882   0.483   2.546   5.530 -0.9695 -1.7185 -0.6657
  190SAPI   H7S21883   0.465   2.698   5.618 -1.4498  0.2383  0.6988
  190SAPI   C2821884   0.298   2.650   5.470 -0.4265 -0.2422  0.0215
  190SAPI   H8R21885   0.222   2.723   5.500  0.4521  0.5723  0.3078
  190SAPI   C2921886   0.276   2.598   5.346  0.0600  0.0793 -1.0829
  190SAPI   H9R21887   0.203   2.645   5.278 -0.0991 -0.7345 -1.4967
  190SAPI  C21021888   0.367   2.498   5.274  0.1117 -0.0796  0.3130
  190SAPI  H10R21889   0.450   2.465   5.340  1.1673 -1.6198 -1.6919
  190SAPI  H10S21890   0.412   2.538   5.181 -1.3852  0.5169 -0.1852
  190SAPI  C21121891   0.298   2.365   5.246  0.4486  0.5734  0.4827
  190SAPI  H11R21892   0.209   2.348   5.308 -1.8226  0.3154 -2.6010
  190SAPI  C21221893   0.319   2.266   5.156  0.2074 -0.3296 -0.0423
  190SAPI  H12R21894   0.248   2.182   5.144 -1.0171  0.6004  0.4158
  190SAPI  C21321895   0.419   2.271   5.051  0.2651  0.7374  0.1427
  190SAPI  H13R21896   0.468   2.371   5.058 -0.5814  1.2124 -0.4279
  190SAPI  H13S21897   0.367   2.272   4.953 -0.4555 -0.4211  0.4952
  190SAPI  C21421898   0.512   2.152   5.060 -0.5120  0.6220  0.2239
  190SAPI  H14R21899   0.570   2.152   5.153 -2.1408  0.7186  1.2817
  190SAPI  C21521900   0.546   2.057   4.970 -0.0972  0.2585  0.3112
  190SAPI  H15R21901   0.614   1.973   4.991 -1.7164 -1.5734 -1.4015
  190SAPI  C21621902   0.494   2.063   4.829 -0.4930  0.1126 -0.2550
  190SAPI  H16R21903   0.498   2.169   4.795 -0.0627 -0.0261 -0.6390
  190SAPI  H16S21904   0.387   2.034   4.828 -0.4818 -0.8824  4.3634
  190SAPI  C21721905   0.567   1.971   4.726 -0.2249 -0.3822  0.9239
  190SAPI  H17R21906   0.541   1.864   4.738 -1.6310 -0.0664  0.8245
  190SAPI  H17S21907   0.676   1.991   4.738 -0.3164  0.0354  1.0890
  190SAPI  C21821908   0.533   2.007   4.581  0.2499 -0.5581  0.0966
  190SAPI  H18R21909   0.521   2.117   4.569  1.9848 -0.3084  0.3642
  190SAPI  H18S21910   0.432   1.963   4.569  0.1125 -0.2787  0.2165
  190SAPI  C21921911   0.625   1.954   4.475 -0.5965 -0.7014  0.0603
  190SAPI  H19R21912   0.567   1.950   4.380 -0.7102  0.5368  0.0603
  190SAPI  H19S21913   0.649   1.849   4.503 -2.4438 -0.7507  1.6462
  190SAPI  C22021914   0.751   2.044   4.467  0.7435  0.1943 -0.1136
  190SAPI  H20R21915   0.807   2.031   4.562  3.7333  0.2660 -1.7509
  190SAPI  H20S21916   0.722   2.150   4.454  2.0565  0.5113 -0.5788
  190SAPI  H20T21917   0.818   2.018   4.382 -0.8553 -1.0549 -1.0601
  190SAPI   C3321918   0.866   2.394   5.778  0.2729 -0.1442 -0.1755
  190SAPI   H3X21919   0.759   2.377   5.755  0.3606 -2.4926  0.9336
  190SAPI   H3Y21920   0.922   2.300   5.762 -0.9619 -1.5149  2.9530
  190SAPI   C3421921   0.918   2.507   5.678 -0.1414  0.4245  0.2456
  190SAPI   H4X21922   1.021   2.539   5.706  0.1713 -2.2231  2.6152
  190SAPI   H4Y21923   0.857   2.599   5.687 -1.8474 -0.7078  0.6011
  190SAPI   C3521924   0.914   2.458   5.535 -0.0437  0.4223 -0.5573
  190SAPI   H5X21925   0.910   2.347   5.532  0.9607  0.3459  0.3576
  190SAPI   H5Y21926   1.007   2.480   5.479  0.6373 -0.1953  0.2945
  190SAPI   C3621927   0.805   2.513   5.446 -0.0322  0.0432  0.2594
  190SAPI   H6X21928   0.828   2.618   5.418  0.9232 -0.4433 -0.8356
  190SAPI   H6Y21929   0.711   2.514   5.505 -0.3746 -3.1900 -0.0392
  190SAPI   C3721930   0.791   2.434   5.319  0.2278 -0.7728  0.4299
  190SAPI   H7X21931   0.722   2.347   5.326 -0.7188 -0.1636 -0.8397
  190SAPI   H7Y21932   0.898   2.416   5.298 -0.2895 -1.3048 -2.0905
  190SAPI   C3821933   0.744   2.518   5.200  0.2089 -0.5419  0.7678
  190SAPI   H8X21934   0.784   2.621   5.214  1.5367 -1.0672  1.0042
  190SAPI   H8Y21935   0.633   2.519   5.207  0.2777 -1.3576  2.1785
  190SAPI   C3921936   0.784   2.464   5.060 -0.0122 -0.1724 -1.0299
  190SAPI   H9X21937   0.745   2.362   5.041  0.0836 -0.4181  0.0525
  190SAPI   H9Y21938   0.895   2.465   5.051  0.0652  1.2968 -0.1109
  190SAPI  C31021939   0.750   2.570   4.952  0.3544 -0.4045 -0.3861
  190SAPI  H10X21940   0.775   2.670   4.993  0.5994 -0.2879 -0.8195
  190SAPI  H10Y21941   0.640   2.560   4.938  0.4061 -1.2155 -0.2632
  190SAPI  C31121942   0.819   2.540   4.822  0.3711 -0.3070 -0.2161
  190SAPI  H11X21943   0.923   2.579   4.829  0.7117 -0.8654 -1.7492
  190SAPI  H11Y21944   0.770   2.604   4.746  0.7151  1.3984  0.9446
  190SAPI  C31221945   0.806   2.395   4.768 -0.0168 -1.0345  0.4364
  190SAPI  H12X21946   0.702   2.359   4.752 -0.2119  0.2342 -1.5096
  190SAPI  H12Y21947   0.864   2.327   4.834  0.6154 -1.6696 -0.7516
  190SAPI  C31321948   0.880   2.375   4.638  1.0062  0.0880 -0.2498
  190SAPI  H13X21949   0.848   2.444   4.558  0.3214 -2.1947 -2.0247
  190SAPI  H13Y21950   0.861   2.273   4.600  1.2470  0.1099 -0.4293
  190SAPI  C31421951   1.037   2.386   4.644 -0.0327 -0.4132 -0.1674
  190SAPI  H14X21952   1.059   2.343   4.744  2.3187  1.1349  0.0500
  190SAPI  H14Y21953   1.067   2.492   4.647  1.5294 -0.8344 -0.1296
  190SAPI  C31521954   1.116   2.306   4.533 -0.9327  0.1855 -0.8318
  190SAPI  H15X21955   1.096   2.198   4.547 -2.5952  0.5483 -0.0884
  190SAPI  H15Y21956   1.225   2.327   4.536 -1.3927  2.9254  0.1708
  190SAPI  C31621957   1.067   2.341   4.388 -0.0737 -0.3451  0.2204
  190SAPI  H16X21958   0.959   2.316   4.380 -0.3232  0.2432  1.4850
  190SAPI  H16Y21959   1.116   2.266   4.322 -0.2571 -0.2161 -0.0644
  190SAPI  C31721960   1.094   2.487   4.338 -0.3438 -0.3466 -0.2743
  190SAPI  H17X21961   1.024   2.551   4.396 -0.4257  0.1160 -0.8866
  190SAPI  H17Y21962   1.069   2.494   4.230  1.3301  1.0202 -0.6101
  190SAPI  C31821963   1.238   2.540   4.346 -0.0233  0.5514  0.6832
  190SAPI  H18X21964   1.314   2.474   4.299 -0.3010  0.2249  0.6918
  190SAPI  H18Y21965   1.272   2.554   4.451  0.5603  1.2635  0.4086
  190SAPI  H18Z21966   1.240   2.643   4.304 -0.6258  1.0726  1.9018
  191SAPI   C1221967   1.528   5.101   1.697 -0.6320 -0.6690 -0.5253
  191SAPI    H221968   1.422   5.131   1.711  0.2032  2.7527 -0.6989
  191SAPI    O221969   1.541   4.964   1.727 -0.0027 -0.0290 -0.0823
  191SAPI   HO221970   1.464   4.943   1.780  0.1259  1.4595  0.7573
  191SAPI   C1321971   1.553   5.124   1.555  0.4329  0.0656  0.4351
  191SAPI    H321972   1.545   5.233   1.534 -0.2916 -0.5177 -2.8423
  191SAPI    O321973   1.457   5.061   1.474  0.0606  0.6038 -0.1525
  191SAPI   HO321974   1.466   4.968   1.496  1.1607  0.9408  0.9521
  191SAPI   C1421975   1.696   5.085   1.519  0.2061  0.3967 -0.5187
  191SAPI    H421976   1.702   4.974   1.523 -1.2405  0.3257  1.4218
  191SAPI    O421977   1.730   5.124   1.382 -0.1130 -0.2239  0.2748
  191SAPI   HO421978   1.755   5.037   1.349 -3.0398 -1.8209  1.8921
  191SAPI   C1521979   1.802   5.134   1.619 -0.0016 -0.2240 -0.3359
  191SAPI    H521980   1.819   5.242   1.601 -0.1034  0.1872  1.8549
  191SAPI    O521981   1.929   5.075   1.603 -0.7518  0.0354  0.5315
  191SAPI   HO521982   1.992   5.145   1.624  0.2058 -0.5043 -0.4132
  191SAPI   C1621983   1.761   5.134   1.768 -0.1602 -0.0121 -0.7396
  191SAPI    H621984   1.762   5.026   1.796 -1.1239  0.2499  0.4016
  191SAPI    O621985   1.855   5.207   1.846 -0.6971 -0.2003  0.6659
  191SAPI   HO621986   1.908   5.137   1.887  2.0562  0.1771 -1.8977
  191SAPI   C1121987   1.619   5.179   1.792  0.1728 -0.3745 -0.2028
  191SAPI    H121988   1.608   5.287   1.766 -0.5605  0.0708  1.8241
  191SAPI     P21989   1.468   5.270   1.991  0.1722 -0.1359  0.0451
  191SAPI   O1321990   1.422   5.211   2.120  0.5748 -0.1586  0.2632
  191SAPI   O1421991   1.362   5.314   1.892 -0.0418 -0.3485 -0.0240
  191SAPI   O1221992   1.573   5.153   1.927 -0.3386  0.0206  0.1584
  191SAPI   O1121993   1.560   5.405   2.014 -0.1240 -0.3135 -0.3742
  191SAPI    C121994   1.690   5.391   2.074  1.1719 -0.3297  0.4892
  191SAPI    HA21995   1.753   5.310   2.032  1.1460 -1.0260  1.7512
  191SAPI    HB21996   1.746   5.485   2.054  1.7009 -1.1792 -2.5400
  191SAPI    C221997   1.685   5.357   2.223 -0.1219 -0.3964 -0.6325
  191SAPI    HS21998   1.670   5.248   2.237  1.6635 -0.4382  1.5960
  191SAPI   O2121999   1.579   5.422   2.290  0.9578 -0.2261  0.3625
  191SAPI   C2122000   1.510   5.351   2.384  0.4517 -0.0302 -0.3809
  191SAPI   O2222001   1.530   5.233   2.413  0.4269 -0.4373  0.2205
  191SAPI   C2222002   1.393   5.437   2.433 -0.1456 -0.1542 -0.0793
  191SAPI   H2R22003   1.392   5.539   2.389 -0.4804  0.4143  1.2036
  191SAPI   H2S22004   1.303   5.383   2.398 -0.0420 -0.5116  0.2012
  191SAPI    C322005   1.817   5.409   2.285  0.1797  0.9577  0.1736
  191SAPI    HX22006   1.823   5.519   2.272  1.3127  1.0164  1.0779
  191SAPI    HY22007   1.894   5.370   2.215  2.0448  0.9603  2.1422
  191SAPI   O3122008   1.825   5.378   2.423 -1.0175 -0.5854  0.4339
  191SAPI   C3122009   1.884   5.261   2.461 -0.4925 -0.0978  0.7495
  191SAPI   O3222010   1.937   5.181   2.384 -0.3476  0.1050  0.1547
  191SAPI   C3222011   1.889   5.255   2.619 -0.2151  0.3215  0.8453
  191SAPI   H2X22012   1.891   5.362   2.650  0.1975  1.7123 -3.3445
  191SAPI   H2Y22013   1.988   5.220   2.655  0.3441  2.6175  1.7443
  191SAPI   C2322014   1.387   5.446   2.591 -0.0521 -0.2039 -0.2389
  191SAPI   H3R22015   1.382   5.343   2.633 -1.0633  0.2379  0.7866
  191SAPI   H3S22016   1.294   5.500   2.619  2.6974  3.9279  1.9272
  191SAPI   C2422017   1.518   5.506   2.653  0.1283 -0.3209  0.3560
  191SAPI   H4R22018   1.515   5.611   2.617  0.1856  0.2129  1.8523
  191SAPI   H4S22019   1.614   5.460   2.620  0.3611  1.5939 -1.9191
  191SAPI   C2522020   1.510   5.502   2.808  0.2165 -0.0949 -0.1172
  191SAPI   H5R22021   1.485   5.400   2.841  2.1599 -0.2975  0.8620
  191SAPI   C2622022   1.543   5.599   2.900 -0.8222  0.0906  0.7096
  191SAPI   H6R22023   1.542   5.571   3.006 -0.0704  0.5653  0.8516
  191SAPI   C2722024   1.600   5.726   2.871  0.8161 -0.9107  0.0023
  191SAPI   H7R22025   1.540   5.773   2.790 -2.0473 -1.0989  1.8530
  191SAPI   H7S22026   1.706   5.712   2.841  0.7322  0.6277 -1.1237
  191SAPI   C2822027   1.585   5.820   2.992  0.7906  0.6086 -0.4468
  191SAPI   H8R22028   1.532   5.909   2.953 -1.4499 -1.0210 -1.3356
  191SAPI   C2922029   1.605   5.805   3.122 -1.0010 -0.8639  0.7445
  191SAPI   H9R22030   1.594   5.895   3.184  0.7736 -1.4961  2.0302
  191SAPI  C21022031   1.659   5.689   3.196  0.4178  0.1097  0.4080
  191SAPI  H10R22032   1.745   5.719   3.260  1.2692 -1.0033 -0.1841
  191SAPI  H10S22033   1.700   5.610   3.130 -2.2784 -1.1375  0.1299
  191SAPI  C21122034   1.547   5.620   3.283 -1.2517 -0.0554  0.1052
  191SAPI  H11R22035   1.455   5.584   3.235 -0.4461 -2.2319  0.0562
  191SAPI  C21222036   1.551   5.631   3.417 -0.0235  0.2877  0.0138
  191SAPI  H12R22037   1.475   5.589   3.485  0.3705 -2.0051 -0.9016
  191SAPI  C21322038   1.664   5.690   3.496 -0.5695  0.3990 -0.7768
  191SAPI  H13R22039   1.631   5.720   3.598  1.4665  0.4692 -0.0738
  191SAPI  H13S22040   1.700   5.786   3.453 -1.0249  0.4769 -0.9885
  191SAPI  C21422041   1.779   5.592   3.517  0.2489  0.3506 -0.0145
  191SAPI  H14R22042   1.790   5.514   3.440  4.0484  0.2572  0.4311
  191SAPI  C21522043   1.870   5.594   3.615  0.3621 -0.8473  0.3424
  191SAPI  H15R22044   1.940   5.509   3.618 -1.0866 -2.1137  0.1240
  191SAPI  C21622045   1.869   5.703   3.719 -0.4139  0.0328 -0.1937
  191SAPI  H16R22046   1.808   5.791   3.686  2.6415  1.6497 -2.0634
  191SAPI  H16S22047   1.968   5.753   3.731 -0.9861  1.0490  0.4168
  191SAPI  C21722048   1.801   5.654   3.850 -0.9852 -0.9068 -0.2004
  191SAPI  H17R22049   1.861   5.581   3.908 -2.2030 -1.3914  0.4905
  191SAPI  H17S22050   1.709   5.595   3.829 -1.0067 -0.3203 -1.9483
  191SAPI  C21822051   1.762   5.778   3.930  1.1076 -0.7893 -0.0785
  191SAPI  H18R22052   1.698   5.851   3.877 -1.2146 -2.0235  0.8998
  191SAPI  H18S22053   1.861   5.827   3.946  0.7132 -0.2171  0.7100
  191SAPI  C21922054   1.714   5.752   4.076  0.9406 -0.3893  0.6308
  191SAPI  H19R22055   1.796   5.694   4.122  1.3616 -0.4503 -0.1728
  191SAPI  H19S22056   1.627   5.684   4.078  0.3963  0.2245 -0.7704
  191SAPI  C22022057   1.687   5.880   4.163 -1.5542 -0.1769  0.3014
  191SAPI  H20R22058   1.590   5.925   4.134 -0.6511  1.1308 -0.7579
  191SAPI  H20S22059   1.764   5.959   4.149 -1.8743  0.1667  0.4737
  191SAPI  H20T22060   1.676   5.852   4.270 -2.2935  5.1229  1.8682
  191SAPI   C3322061   1.778   5.171   2.673 -0.4769 -0.5860  0.4150
  191SAPI   H3X22062   1.781   5.064   2.644  2.6404 -0.7393  0.9695
  191SAPI   H3Y22063   1.681   5.218   2.649  0.2329  2.3396  2.6670
  191SAPI   C3422064   1.786   5.158   2.823 -0.9944 -0.0965  0.4579
  191SAPI   H4X22065   1.803   5.262   2.857  1.2427 -0.2560 -0.0099
  191SAPI   H4Y22066   1.873   5.091   2.843  0.0836  1.1074 -0.0670
  191SAPI   C3522067   1.657   5.106   2.890 -0.4523 -0.0706 -0.0611
  191SAPI   H5X22068   1.636   4.999   2.868 -2.5747 -0.2212  2.2958
  191SAPI   H5Y22069   1.566   5.156   2.852  0.0889  0.7410 -0.3202
  191SAPI   C3622070   1.654   5.129   3.043  0.3300 -0.3945  0.0564
  191SAPI   H6X22071   1.555   5.097   3.081 -0.8700  1.2571 -1.5098
  191SAPI   H6Y22072   1.670   5.238   3.058  0.6643 -0.0870 -2.1333
  191SAPI   C3722073   1.768   5.049   3.108  0.1108  0.3940 -1.7301
  191SAPI   H7X22074   1.866   5.081   3.066 -0.0080  0.7750 -1.7228
  191SAPI   H7Y22075   1.748   4.941   3.093  0.7351  0.0119  0.0027
  191SAPI   C3822076   1.770   5.077   3.263 -0.6585 -0.0126 -0.7362
  191SAPI   H8X22077   1.692   5.018   3.315  0.9442 -0.8011  0.9026
  191SAPI   H8Y22078   1.762   5.186   3.283 -2.8324 -0.3777  0.7253
  191SAPI   C3922079   1.894   5.018   3.331  0.2766  0.5954  0.4359
  191SAPI   H9X22080   1.989   5.046   3.279 -0.1036  1.5225  0.2210
  191SAPI   H9Y22081   1.895   4.908   3.317  2.4964  0.5222  0.7794
  191SAPI  C31022082   1.902   5.048   3.482 -0.4209 -0.2296 -0.2749
  191SAPI  H10X22083   1.818   5.010   3.544  1.0286  1.2519  2.8152
  191SAPI  H10Y22084   1.880   5.157   3.484 -0.9598 -0.2887 -1.6265
  191SAPI  C31122085   2.027   5.031   3.555 -0.0817 -0.1845  1.0176
  191SAPI  H11X22086   2.113   5.068   3.494 -0.1037 -0.4444  0.8280
  191SAPI  H11Y22087   2.047   4.922   3.552 -1.1398 -0.3878 -1.5962
  191SAPI  C31222088   2.040   5.086   3.695  0.3683  0.6887  0.1886
  191SAPI  H12X22089   2.118   5.022   3.743 -2.0225 -0.5247  2.7384
  191SAPI  H12Y22090   1.950   5.070   3.757 -0.0187  1.5633 -0.1421
  191SAPI  C31322091   2.093   5.229   3.695  0.2169 -0.0510 -0.1947
  191SAPI  H13X22092   2.019   5.293   3.643  1.1663  0.1123 -1.3880
  191SAPI  H13Y22093   2.190   5.242   3.642  1.1404  3.5613  1.9896
  191SAPI  C31422094   2.098   5.274   3.846 -0.5666  0.1450  0.3401
  191SAPI  H14X22095   2.162   5.208   3.909  0.9796  0.8503 -0.4458
  191SAPI  H14Y22096   1.992   5.267   3.881 -1.0829  1.8846 -0.7394
  191SAPI  C31522097   2.138   5.414   3.867  0.7996  0.2560  0.4769
  191SAPI  H15X22098   2.131   5.443   3.974  0.5342 -1.9665  1.1179
  191SAPI  H15Y22099   2.078   5.492   3.815  1.0854  0.6436  0.7168
  191SAPI  C31622100   2.289   5.431   3.827  0.6465  0.1235 -0.5942
  191SAPI  H16X22101   2.299   5.418   3.717 -0.3859  0.2044 -0.7090
  191SAPI  H16Y22102   2.354   5.359   3.880 -0.5380 -0.0515  0.7001
  191SAPI  C31722103   2.330   5.568   3.873 -0.3178 -0.1506  0.3477
  191SAPI  H17X22104   2.437   5.595   3.878 -0.9100  2.3254  1.4798
  191SAPI  H17Y22105   2.310   5.579   3.982  0.7940  1.0252  0.4590
  191SAPI  C31822106   2.255   5.686   3.812 -0.3104  0.7035 -0.4365
  191SAPI  H18X22107   2.150   5.681   3.848  0.1551 -1.2312  0.7795
  191SAPI  H18Y22108   2.256   5.680   3.701 -1.5847 -0.5079 -0.4167
  191SAPI  H18Z22109   2.298   5.781   3.849 -1.9134  1.2989  0.0151
  192SAPI   C1222110   6.342   3.124   2.456 -0.6534 -0.7445  0.8294
  192SAPI    H222111   6.373   3.080   2.553  2.5627 -1.2028 -0.2900
  192SAPI    O222112   6.218   3.190   2.473 -0.0693 -0.1094 -0.1446
  192SAPI   HO222113   6.162   3.164   2.399  0.4276  1.9330 -1.3288
  192SAPI   C1322114   6.448   3.205   2.398 -0.4743 -0.6258  0.1120
  192SAPI    H322115   6.534   3.135   2.388 -2.0065 -2.2679 -3.4139
  192SAPI    O322116   6.481   3.312   2.479 -0.0366 -0.4785  0.0004
  192SAPI   HO322117   6.401   3.366   2.483  1.8738  2.7908 -1.5393
  192SAPI   C1422118   6.426   3.252   2.251 -0.9911 -0.1814 -0.6071
  192SAPI    H422119   6.363   3.342   2.268  1.7754  1.8571 -0.4636
  192SAPI    O422120   6.544   3.314   2.199  0.3381 -0.0958  0.0400
  192SAPI   HO422121   6.623   3.261   2.212 -0.1118 -0.9730 -0.7539
  192SAPI   C1522122   6.340   3.163   2.159  0.3104 -0.1515  0.7219
  192SAPI    H522123   6.418   3.125   2.090 -0.6519  0.7823 -0.9423
  192SAPI    O522124   6.249   3.235   2.072  0.3925 -0.5664 -0.0741
  192SAPI   HO522125   6.174   3.280   2.111  0.2563  0.3839 -1.3611
  192SAPI   C1622126   6.275   3.040   2.228 -0.0793 -0.2797  0.3619
  192SAPI    H622127   6.170   3.070   2.250  1.0055  2.6182  2.0162
  192SAPI    O622128   6.273   2.925   2.141  0.4589 -0.6910  0.1041
  192SAPI   HO622129   6.318   2.858   2.192 -1.3736 -0.8708  1.6139
  192SAPI   C1122130   6.337   3.003   2.361  0.2175 -0.3076  0.1723
  192SAPI    H122131   6.438   2.966   2.336  0.6722  0.6145  0.6059
  192SAPI     P22132   6.327   2.740   2.425  0.3213 -0.2491  0.2773
  192SAPI   O1322133   6.349   2.705   2.285 -0.2443  0.2420 -0.2033
  192SAPI   O1422134   6.226   2.666   2.505 -0.6065  0.2894  0.2628
  192SAPI   O1222135   6.268   2.894   2.426 -0.6319  0.2948 -0.0102
  192SAPI   O1122136   6.464   2.758   2.509  0.2015 -0.0170 -1.0232
  192SAPI    C122137   6.510   2.650   2.591 -0.6494 -0.5277 -0.4302
  192SAPI    HA22138   6.474   2.549   2.564 -0.4004 -0.2482 -1.9467
  192SAPI    HB22139   6.619   2.640   2.574 -0.5924 -0.1543 -0.2921
  192SAPI    C222140   6.489   2.680   2.741 -0.6432  0.2561 -0.3091
  192SAPI    HS22141   6.523   2.590   2.796  1.0766  1.4536  0.6939
  192SAPI   O2122142   6.357   2.724   2.772 -0.4116  0.4401  0.4804
  192SAPI   C2122143   6.276   2.618   2.794 -0.9000 -0.3976 -0.2132
  192SAPI   O2222144   6.311   2.502   2.796  0.5839 -0.1959  0.5350
  192SAPI   C2222145   6.136   2.662   2.813  0.0266  0.8688  0.8357
  192SAPI   H2R22146   6.139   2.708   2.914  2.0700 -0.2788  1.3526
  192SAPI   H2S22147   6.119   2.730   2.727  1.1307  1.3868  1.0121
  192SAPI    C322148   6.597   2.786   2.787 -0.5118  0.5564  0.0162
  192SAPI    HX22149   6.586   2.878   2.727  0.7968 -0.5116 -1.9656
  192SAPI    HY22150   6.693   2.737   2.762 -1.1193 -0.1626 -0.9827
  192SAPI   O3122151   6.579   2.813   2.920 -0.4475 -0.4186 -0.4069
  192SAPI   C3122152   6.691   2.844   2.991 -0.2116 -0.2153 -0.4355
  192SAPI   O3222153   6.800   2.858   2.944  0.0580  0.0117  0.6087
  192SAPI   C3222154   6.661   2.847   3.136 -0.3130 -0.4132  0.6648
  192SAPI   H2X22155   6.732   2.779   3.188 -0.1552 -0.9109 -0.1892
  192SAPI   H2Y22156   6.560   2.805   3.154 -1.1114  1.8052  1.6093
  192SAPI   C2322157   6.034   2.550   2.811  1.0276 -0.4532  1.1124
  192SAPI   H3R22158   6.061   2.481   2.894  0.8850 -0.5026  1.1170
  192SAPI   H3S22159   6.036   2.487   2.719 -0.9426 -1.3328  1.6375
  192SAPI   C2422160   5.882   2.585   2.832  0.7961  0.9492  0.2996
  192SAPI   H4R22161   5.844   2.615   2.732 -0.8176 -0.3248  0.4785
  192SAPI   H4S22162   5.873   2.679   2.892  1.0892  1.5137 -0.5309
  192SAPI   C2522163   5.795   2.474   2.882  1.1923  0.4576 -0.5169
  192SAPI   H5R22164   5.767   2.391   2.815 -3.6356  1.0997  0.3741
  192SAPI   C2622165   5.734   2.475   3.002  0.3025  0.2634  0.7429
  192SAPI   H6R22166   5.664   2.394   3.027 -0.2968  0.7664  0.7273
  192SAPI   C2722167   5.755   2.569   3.113 -0.2273  0.1597 -0.3062
  192SAPI   H7R22168   5.859   2.606   3.122  0.1917 -0.8034 -1.0718
  192SAPI   H7S22169   5.748   2.509   3.206  1.0199  0.1126 -0.2274
  192SAPI   C2822170   5.669   2.687   3.112  0.2475 -0.4792 -0.2486
  192SAPI   H8R22171   5.667   2.737   3.014  1.5310 -0.6730 -0.3885
  192SAPI   C2922172   5.627   2.745   3.230  0.8581 -0.4439 -0.2129
  192SAPI   H9R22173   5.563   2.834   3.218  1.5086  0.0331 -0.1950
  192SAPI  C21022174   5.633   2.696   3.374  0.1126  0.3052  0.0233
  192SAPI  H10R22175   5.625   2.585   3.384 -1.3558  0.3989  0.1075
  192SAPI  H10S22176   5.538   2.724   3.423 -0.2549 -2.9709  1.5117
  192SAPI  C21122177   5.753   2.755   3.437  0.5167 -0.0834  0.3874
  192SAPI  H11R22178   5.842   2.713   3.388  0.7419  1.6521 -0.7665
  192SAPI  C21222179   5.752   2.842   3.540  0.2811  0.1588  0.2219
  192SAPI  H12R22180   5.840   2.902   3.565 -0.6049  0.8884  1.7156
  192SAPI  C21322181   5.633   2.894   3.612  0.4624  0.1687  0.0905
  192SAPI  H13R22182   5.536   2.875   3.562  0.6316 -0.2627 -0.0823
  192SAPI  H13S22183   5.641   3.005   3.611 -0.4773  0.2887  1.8673
  192SAPI  C21422184   5.640   2.832   3.748  0.1717  0.5956  0.1673
  192SAPI  H14R22185   5.633   2.722   3.754  5.1251  0.0592  0.3752
  192SAPI  C21522186   5.653   2.894   3.865 -0.4815  0.4942 -0.3207
  192SAPI  H15R22187   5.651   2.832   3.956  1.4635 -0.5080 -0.9019
  192SAPI  C21622188   5.669   3.042   3.893  0.1231  0.2365  0.1334
  192SAPI  H16R22189   5.582   3.107   3.875  0.4611  0.6193 -0.1270
  192SAPI  H16S22190   5.750   3.087   3.832 -1.4238  1.9296 -0.7501
  192SAPI  C21722191   5.700   3.062   4.045  0.1597 -0.2619  0.9460
  192SAPI  H17R22192   5.750   3.160   4.056 -0.0901 -0.0372  0.1553
  192SAPI  H17S22193   5.776   2.988   4.079 -1.5078 -1.9464  1.1753
  192SAPI  C21822194   5.578   3.067   4.133 -0.0207 -0.1015  0.8551
  192SAPI  H18R22195   5.530   2.967   4.133 -1.5979  0.5931  2.9230
  192SAPI  H18S22196   5.502   3.143   4.105 -1.3285 -0.7367  2.5171
  192SAPI  C21922197   5.623   3.110   4.275 -0.0458  0.0848  0.5925
  192SAPI  H19R22198   5.535   3.091   4.339  0.7713  1.1151  2.0834
  192SAPI  H19S22199   5.643   3.220   4.279 -1.2042  0.3561 -0.4524
  192SAPI  C22022200   5.739   3.030   4.340 -0.6484  0.0428  0.3877
  192SAPI  H20R22201   5.838   3.070   4.309 -0.4477 -0.1727  0.7416
  192SAPI  H20S22202   5.722   2.923   4.315  0.3560  0.5508 -3.1990
  192SAPI  H20T22203   5.738   3.043   4.450  0.3275  0.9580  0.3070
  192SAPI   C3322204   6.658   2.990   3.191 -0.0584 -0.3649  0.1251
  192SAPI   H3X22205   6.614   3.063   3.120  0.8445 -1.5367 -1.7080
  192SAPI   H3Y22206   6.761   3.022   3.220 -0.6576  0.3401  1.6124
  192SAPI   C3422207   6.574   2.993   3.319  0.4479 -0.1449 -0.3912
  192SAPI   H4X22208   6.472   2.962   3.290 -0.0417  0.4830  0.6059
  192SAPI   H4Y22209   6.559   3.093   3.363  1.6444 -1.2248  2.7297
  192SAPI   C3522210   6.601   2.900   3.440  0.2135 -0.5456 -0.1598
  192SAPI   H5X22211   6.708   2.899   3.470  0.6096  0.8895 -1.3766
  192SAPI   H5Y22212   6.579   2.793   3.423 -0.5798 -0.6188  1.1096
  192SAPI   C3622213   6.519   2.949   3.571 -0.3665 -0.7089  0.4610
  192SAPI   H6X22214   6.411   2.928   3.556 -1.0836  1.9991  1.2136
  192SAPI   H6Y22215   6.527   3.059   3.583  2.5385 -0.4909 -2.3668
  192SAPI   C3722216   6.580   2.899   3.700 -0.6545  0.0862  0.6051
  192SAPI   H7X22217   6.676   2.955   3.702 -1.0346  0.8254 -0.5712
  192SAPI   H7Y22218   6.599   2.791   3.685  0.3732  0.2532  0.6189
  192SAPI   C3822219   6.495   2.916   3.819  0.4989 -0.1499 -0.8397
  192SAPI   H8X22220   6.417   2.837   3.814  0.8158 -0.5703  0.4156
  192SAPI   H8Y22221   6.438   3.011   3.815  0.2369 -0.3147 -0.9633
  192SAPI   C3922222   6.564   2.910   3.961  0.0483  0.6325 -0.8711
  192SAPI   H9X22223   6.486   2.934   4.036  0.4620 -0.5163 -0.0421
  192SAPI   H9Y22224   6.645   2.986   3.968 -1.2878  2.2607 -2.1146
  192SAPI  C31022225   6.626   2.772   4.002  0.2710  0.1369  0.3486
  192SAPI  H10X22226   6.655   2.726   3.905 -2.1630 -0.1929 -0.2822
  192SAPI  H10Y22227   6.558   2.695   4.044  1.9474 -0.1145  2.7925
  192SAPI  C31122228   6.747   2.789   4.098 -0.2629  0.9022 -0.3701
  192SAPI  H11X22229   6.717   2.840   4.192 -0.0349  1.3043 -0.5128
  192SAPI  H11Y22230   6.819   2.853   4.043 -0.1890 -0.4954 -1.9981
  192SAPI  C31222231   6.818   2.655   4.133  0.2280 -0.0914  0.4991
  192SAPI  H12X22232   6.918   2.674   4.178  1.9601  0.1239 -3.0929
  192SAPI  H12Y22233   6.841   2.596   4.042  1.5196  0.8674  0.1803
  192SAPI  C31322234   6.720   2.568   4.214 -0.3286  0.3182  0.0116
  192SAPI  H13X22235   6.756   2.464   4.229 -1.1298  0.0244 -0.0586
  192SAPI  H13Y22236   6.628   2.552   4.154 -0.2335 -2.0014  0.4009
  192SAPI  C31422237   6.681   2.615   4.354  0.3472  0.1321  0.1135
  192SAPI  H14X22238   6.576   2.581   4.361  0.1831  0.2052 -1.5204
  192SAPI  H14Y22239   6.669   2.726   4.359  2.0586  0.3215  0.6837
  192SAPI  C31522240   6.765   2.561   4.461 -0.0012  0.4338 -0.1850
  192SAPI  H15X22241   6.870   2.580   4.429  0.2193  0.8767  0.7809
  192SAPI  H15Y22242   6.741   2.454   4.478 -3.4016  1.2727  1.1892
  192SAPI  C31622243   6.727   2.634   4.598  0.5850 -0.3563  0.6419
  192SAPI  H16X22244   6.638   2.592   4.649 -0.4003 -3.0507 -2.8915
  192SAPI  H16Y22245   6.708   2.742   4.575  1.2483 -0.3602  0.0278
  192SAPI  C31722246   6.847   2.620   4.689 -0.3224  0.4083  0.1625
  192SAPI  H17X22247   6.948   2.631   4.643  0.7346 -4.0929  0.9826
  192SAPI  H17Y22248   6.842   2.516   4.725  0.0084 -0.0861 -1.1565
  192SAPI  C31822249   6.845   2.716   4.805 -0.4054  0.0798 -0.3987
  192SAPI  H18X22250   6.746   2.701   4.854 -0.2361 -2.4295 -0.6953
  192SAPI  H18Y22251   6.854   2.823   4.778 -0.4221  1.2383  3.5424
  192SAPI  H18Z22252   6.921   2.699   4.884 -1.1789 -0.7376  0.1880
  193SOD    SOD22253   4.880   6.213   1.620  0.1160  0.8464 -0.1483
  194SOD    SOD22254   1.829   2.105   7.057  0.1718 -0.4283 -0.4932
  195SOD    SOD22255   1.597   6.533   6.931  0.1549 -0.1962  0.2592
  196SOD    SOD22256   2.307   1.129   1.941  0.0566  0.4791 -0.1159
  197SOD    SOD22257   6.547   3.489   7.651 -0.0574 -0.2098  0.0925
  198SOD    SOD22258   3.956   2.355   6.879  0.2124 -0.0722  0.8040
  199SOD    SOD22259   6.388   5.107   7.433  0.5960 -0.6400 -0.2242
  200SOD    SOD22260   1.361   6.499   7.916 -0.2287  0.3778  0.5779
  201SOD    SOD22261   5.959   6.002   7.406  0.1714 -0.1804 -0.4292
  202SOD    SOD22262   4.362   4.297   7.550 -0.1382 -0.1180 -0.5020
  203SOD    SOD22263   2.151   1.213   6.694  0.6827 -0.0909 -0.0953
  204SOD    SOD22264   2.258   6.099   7.403  0.2357  0.2617  0.4624
  205SOD    SOD22265   4.651   1.899   7.911 -0.2371 -0.4837  0.0549
  206SOD    SOD22266   4.072   6.065   7.285  0.2819  0.1193 -0.7562
  207SOD    SOD22267   3.373   0.266   0.953 -0.5857 -0.4317 -0.1571
  208SOD    SOD22268   1.588   6.448   0.343  0.5017 -0.1753  0.0335
  209SOD    SOD22269   6.405   0.491   7.611  0.3537  0.2070 -0.1258
  210SOD    SOD22270   2.593   1.453   7.324  0.0578  0.2101 -0.3419
  211SOD    SOD22271   3.540   0.075   7.140  0.0588  0.2650 -0.0467
  212SOD    SOD22272   5.013   3.395   2.468  0.2155 -0.3202  0.2298
  213SOD    SOD22273   2.362   2.866   8.583 -0.0743 -0.1647 -0.6336
  214SOD    SOD22274   0.912   2.843   1.200  0.0343 -0.3457  0.3551
  215SOD    SOD22275   2.420   4.817   2.157 -0.3075 -0.4438  0.1622
  216SOD    SOD22276   3.598   4.030   6.680 -0.2142  0.5589  0.1537
  217SOD    SOD22277   4.092   5.201   8.474 -0.2035 -0.0766 -0.7042
  218SOD    SOD22278   3.427   0.635   6.959  0.1810  0.1737  0.1282
  219SOD    SOD22279   0.569   5.072   8.029 -0.0671 -0.2027 -0.3686
  220SOD    SOD22280   3.253   6.650   2.400 -0.2285  0.4179  0.0029
  221SOD    SOD22281   0.343   4.625   1.534  0.5311 -0.1961  0.1574
  222SOD    SOD22282   5.955   2.329   1.773  0.2295  0.0539 -0.0833
  223SOD    SOD22283   5.468   3.329   2.534 -0.0586 -0.1980 -0.5051
  224SOD    SOD22284   2.403   3.032   1.003 -0.0172  0.0662 -0.4616
  225SOD    SOD22285   5.466   5.032   6.745 -0.3221 -0.4128 -0.2536
  226SOD    SOD22286   0.420   0.340   1.260  0.1589  0.0600 -0.0136
  227SOD    SOD22287   3.677   0.499   8.856 -0.5121  0.0092 -0.2810
  228SOD    SOD22288   2.733   0.491   7.067  0.1520 -0.3300 -0.0604
  229SOD    SOD22289   3.134   2.774   0.827  0.2444 -0.3767  0.1181
  230SOD    SOD22290   4.938   0.093   8.565 -0.0919 -0.0016 -0.0496
  231SOD    SOD22291   6.480   6.061   2.077 -0.1029 -0.0305 -0.1240
  232SOD    SOD22292   0.093   4.125   7.392  0.1278 -0.3549  0.3808
  233SOD    SOD22293   1.457   2.174   8.010 -0.2009  0.2270 -0.0809
  234CLA    CLA22294   3.900   0.953   8.712  0.2421  0.2303  0.2231
  235CLA    CLA22295   3.040   0.220   1.611 -0.3806  0.5693 -0.0473
  236CLA    CLA22296   0.957   5.033   0.247 -0.5186  0.3567 -0.2354
  237CLA    CLA22297   5.969   0.681   7.877 -0.0863 -0.1749 -0.4392
  238CLA    CLA22298   5.422   6.449   0.248 -0.5002 -0.3720 -0.1081
  239CLA    CLA22299   0.173   1.562   0.707  0.0371  0.1063  0.0980
  240CLA    CLA22300   2.953   1.127   8.737 -0.1898 -0.3612 -0.2927
  241CLA    CLA22301   3.735   1.785   7.812 -0.2683 -0.0798  0.0683
  242CLA    CLA22302   2.382   2.758   8.849  0.2151  0.4134  0.1681
  243CLA    CLA22303   1.821   1.720   8.020  0.1359  0.1332  0.0535
  244CLA    CLA22304   3.457   1.219   7.457 -0.0230 -0.2017 -0.4860
  245CLA    CLA22305   2.167   0.532   7.287 -0.5905  0.1156  0.2650
  246CLA    CLA22306   0.687   3.312   0.820 -0.2608 -0.1544 -0.0890
  247CLA    CLA22307   0.752   0.355   7.604 -0.2296  0.0340 -0.1939
  248CLA    CLA22308   1.688   5.754   7.928  0.3098  0.0961 -0.3594
  249CLA    CLA22309   4.819   6.670   8.478  0.0099 -0.3472 -0.1888
  250CLA    CLA22310   6.169   0.073   7.749  0.0395  0.2167 -0.1103
  251TIP3   OH222311   6.176   1.129   1.117  0.0329  0.2303  0.1317
  251TIP3    H122312   6.174   1.160   1.026  1.8026  0.2750  0.0832
  251TIP3    H222313   6.211   1.203   1.167  0.2523 -0.2287  0.6635
  252TIP3   OH222314   6.277   3.552   7.162 -0.0713  0.4993 -0.9099
  252TIP3    H122315   6.313   3.488   7.101  0.0602  1.1184 -1.4902
  252TIP3    H222316   6.352   3.606   7.187  0.2822 -0.8732  1.2609
  253TIP3   OH222317   5.016   5.638   8.637  0.5868  0.0339 -0.3601
  253TIP3    H122318   5.070   5.575   8.684  1.1696  1.3599  0.8353
  253TIP3    H222319   4.932   5.637   8.683  0.8572  0.6647  0.1764
  254TIP3   OH222320   3.632   0.916   6.844 -0.3177  0.2002  0.4659
  254TIP3    H122321   3.679   0.998   6.828  0.4195 -0.4802 -1.0016
  254TIP3    H222322   3.660   0.858   6.773 -0.2299 -1.5850  1.8875
  255TIP3   OH222323   4.247   3.724   7.324 -0.2053 -0.0611 -0.3752
  255TIP3    H122324   4.240   3.719   7.229 -1.0996  1.6840 -0.4416
  255TIP3    H222325   4.333   3.763   7.340 -0.9388  1.7436 -0.5993
  256TIP3   OH222326   1.726   2.130   7.283 -0.7551  0.1181  0.2010
  256TIP3    H122327   1.745   2.143   7.376 -0.6414  1.0459  0.0658
  256TIP3    H222328   1.650   2.071   7.281  2.0565 -3.8728  0.7421
  257TIP3   OH222329   0.861   4.212   6.509  0.5587  0.0995  0.0164
  257TIP3    H122330   0.924   4.200   6.580  1.4153  0.2763 -0.6990
  257TIP3    H222331   0.854   4.307   6.500 -1.7083  0.2011  1.7128
  258TIP3   OH222332   4.927   2.121   8.688 -0.0438 -0.8191 -0.0931
  258TIP3    H122333   4.841   2.156   8.713 -0.1337 -0.7263 -0.5308
  258TIP3    H222334   4.968   2.098   8.771 -0.8362 -1.6777  0.0777
  259TIP3   OH222335   6.098   2.484   8.818 -0.5180 -0.2640  0.1682
  259TIP3    H122336   6.041   2.412   8.844 -1.2403  0.0997 -0.3894
  259TIP3    H222337   6.064   2.513   8.734  0.3097  0.1576 -0.0365
  260TIP3   OH222338   2.420   2.365   2.340  0.2996  0.5453 -0.2390
  260TIP3    H122339   2.425   2.270   2.356  1.3635  0.7013  0.5193
  260TIP3    H222340   2.330   2.388   2.362 -0.4186 -0.5221 -1.9002
  261TIP3   OH222341   0.019   3.060   0.490 -0.1635 -0.0688  0.6338
  261TIP3    H122342   0.060   3.121   0.428 -0.3493 -0.6013 -0.0185
  261TIP3    H222343  -0.050   3.111   0.532  1.0637  0.8242  1.6790
  262TIP3   OH222344   0.413   2.515   0.465  0.2120  0.1939  0.0270
  262TIP3    H122345   0.459   2.448   0.414  1.7212  1.2675 -0.0908
  262TIP3    H222346   0.444   2.502   0.555 -0.2133  0.1441  0.1676
  263TIP3   OH222347   5.209   1.958   6.642  0.4498 -0.2234 -0.0003
  263TIP3    H122348   5.121   1.967   6.680  0.8926  1.5909  0.6952
  263TIP3    H222349   5.255   2.037   6.670  2.3644 -1.2087 -0.2309
  264TIP3   OH222350   0.483   3.327   1.652  0.3331 -0.2924  0.3382
  264TIP3    H122351   0.486   3.241   1.692  1.5203 -0.0497  0.8011
  264TIP3    H222352   0.566   3.369   1.677  0.0147  0.7796 -0.3174
  265TIP3   OH222353   6.782   0.712   6.898  0.0003 -0.1068 -0.2889
  265TIP3    H122354   6.694   0.681   6.878  0.7777 -1.5965 -1.6236
  265TIP3    H222355   6.822   0.729   6.813  2.0996 -2.7153  0.0487
  266TIP3   OH222356   3.670   6.755   1.031  0.0031 -0.0498 -0.5146
  266TIP3    H122357   3.727   6.832   1.025  0.7294 -0.6174 -1.0475
  266TIP3    H222358   3.629   6.763   1.117  1.2681  0.1312  0.0998
  267TIP3   OH222359   0.970   6.529   7.703  0.3665 -0.7056 -0.9905
  267TIP3    H122360   0.937   6.480   7.628  0.8004 -2.3187 -0.1615
  267TIP3    H222361   0.987   6.617   7.668  0.5588 -1.4058 -2.7856
  268TIP3   OH222362   6.619   2.188   1.920 -0.0819 -0.1755 -0.5313
  268TIP3    H122363   6.603   2.127   1.992  0.1569  0.5975  0.1884
  268TIP3    H222364   6.537   2.235   1.909 -0.0276 -0.0858 -0.5590
  269TIP3   OH222365   3.741   3.226   6.937  0.9582  0.4096 -0.2215
  269TIP3    H122366   3.780   3.297   6.988 -0.1063  1.3514 -0.6834
  269TIP3    H222367   3.771   3.243   6.847  3.9726 -2.0122  0.1711
  270TIP3   OH222368   2.530   0.549   0.709 -1.0087  0.0045 -0.3846
  270TIP3    H122369   2.612   0.505   0.731 -2.4122 -2.2017  0.8886
  270TIP3    H222370   2.478   0.481   0.666 -1.7539  1.7020 -2.3189
  271TIP3   OH222371   4.404   4.927   7.374  0.6199  0.4679  0.0233
  271TIP3    H122372   4.371   4.846   7.413  0.9931  0.1669 -0.2800
  271TIP3    H222373   4.406   4.990   7.447 -2.3346  1.0626 -0.2639
  272TIP3   OH222374   5.161   0.786   7.944  0.2346  0.4057  0.4401
  272TIP3    H122375   5.125   0.738   8.018 -3.1869 -1.7136 -2.3449
  272TIP3    H222376   5.119   0.872   7.949 -0.1437  0.2033  0.8208
  273TIP3   OH222377   4.915   4.458   0.235  0.1564  1.2904 -0.1022
  273TIP3    H122378   4.858   4.454   0.158  0.7055  0.8353 -0.4944
  273TIP3    H222379   4.916   4.369   0.268 -0.4073  1.5698  0.6854
  274TIP3   OH222380   2.711   1.586   0.951  0.3209  0.2392  0.1834
  274TIP3    H122381   2.660   1.506   0.942  0.9757 -0.1508 -0.0928
  274TIP3    H222382   2.658   1.642   1.009 -0.7513  0.1171 -0.6371
  275TIP3   OH222383   4.265   1.316   8.520  0.4204 -0.4440  0.0246
  275TIP3    H122384   4.282   1.230   8.559 -0.5558 -1.1550 -1.0614
  275TIP3    H222385   4.268   1.302   8.426 -1.2168  0.3828 -0.1870
  276TIP3   OH222386   3.848   5.308   0.345 -0.6952  0.4744 -0.3612
  276TIP3    H122387   3.841   5.393   0.303 -0.5826  0.7754  0.2235
  276TIP3    H222388   3.780   5.309   0.413 -2.3144 -0.8020 -1.8662
  277TIP3   OH222389   5.945   3.266   7.975  0.4414  0.3896  0.5567
  277TIP3    H122390   5.868   3.210   7.964 -0.4126  1.5710  0.3216
  277TIP3    H222391   6.013   3.207   8.009 -0.4656 -0.7394  0.4767
  278TIP3   OH222392   1.212   2.210   8.065  0.0271 -0.1706  0.2369
  278TIP3    H122393   1.221   2.206   8.161  0.2704  0.4886  0.2504
  278TIP3    H222394   1.133   2.262   8.051  0.0839 -0.1255  0.0798
  279TIP3   OH222395   3.932   2.483   0.282  0.0828  0.1591 -0.6257
  279TIP3    H122396   3.863   2.525   0.231 -0.2560 -0.7107 -0.9172
  279TIP3    H222397   3.922   2.518   0.370 -1.2097 -0.4756 -0.4981
  280TIP3   OH222398   0.417   1.346   7.998 -0.5496  0.1315  0.1811
  280TIP3    H122399   0.503   1.349   7.955 -0.1733 -0.5173  0.8519
  280TIP3    H222400   0.436   1.359   8.091 -1.3506  1.5003  0.1799
  281TIP3   OH222401   6.561   1.656   1.157 -0.2241 -0.0250 -0.2140
  281TIP3    H122402   6.517   1.628   1.077 -0.3307 -0.4387 -0.0137
  281TIP3    H222403   6.654   1.662   1.133 -0.2805  0.0355 -0.4169
  282TIP3   OH222404   4.671   6.379   8.775  0.5411  0.2401 -0.0037
  282TIP3    H122405   4.684   6.360   8.682 -1.9222 -0.3157 -0.3096
  282TIP3    H222406   4.691   6.296   8.819  2.8000  0.8106  0.1303
  283TIP3   OH222407   0.166   2.424   8.692  0.6326  0.3754 -0.4000
  283TIP3    H122408   0.231   2.440   8.623 -0.4561 -0.1570 -1.5973
  283TIP3    H222409   0.201   2.348   8.739 -0.0032 -1.1792 -2.2692
  284TIP3   OH222410   2.652   4.163   7.045 -0.2197  0.3590  0.3557
  284TIP3    H122411   2.587   4.208   7.100 -0.6789  0.1450 -0.0114
  284TIP3    H222412   2.686   4.232   6.989 -0.1266  0.4742  0.5521
  285TIP3   OH222413   0.988   3.946   7.767  0.0331 -0.5693  0.1416
  285TIP3    H122414   0.965   3.930   7.675  1.2777 -0.1040 -0.2692
  285TIP3    H222415   1.038   3.869   7.793 -2.2320 -1.8070  1.1805
  286TIP3   OH222416   0.082   4.389   8.090  0.4584  0.2258 -0.6454
  286TIP3    H122417   0.166   4.346   8.106  0.8910  1.4562  0.6142
  286TIP3    H222418   0.091   4.428   8.003  1.3546  0.6751 -0.3606
  287TIP3   OH222419   2.412   4.944   0.790 -0.0872 -0.0235  0.4160
  287TIP3    H122420   2.419   4.874   0.725  0.0314 -0.0838  0.4934
  287TIP3    H222421   2.336   4.919   0.843 -1.3378  0.9678 -0.8298
  288TIP3   OH222422   4.895   0.622   7.286  0.1882 -0.4787 -0.3873
  288TIP3    H122423   4.967   0.598   7.344  0.4549 -0.0805 -0.5514
  288TIP3    H222424   4.937   0.653   7.207 -0.1653 -0.1866 -0.4612
  289TIP3   OH222425   2.266   4.046   1.220 -0.2835  0.1594  0.0054
  289TIP3    H122426   2.262   3.996   1.302  1.0289  0.5284  0.3214
  289TIP3    H222427   2.336   4.110   1.234 -0.2452  0.4353 -1.2969
  290TIP3   OH222428   3.672   4.285   0.408  0.0750 -0.1876 -0.9707
  290TIP3    H122429   3.744   4.268   0.468 -1.4921  0.1613  1.1412
  290TIP3    H222430   3.612   4.341   0.458 -2.6477 -2.1313 -1.8130
  291TIP3   OH222431   1.306   2.766   0.856 -0.1142  0.3176 -0.2242
  291TIP3    H122432   1.239   2.699   0.871 -0.5666  0.8743  0.3378
  291TIP3    H222433   1.336   2.790   0.943 -0.1917  1.0653 -0.3910
  292TIP3   OH222434   6.725   3.249   8.691 -0.5218 -0.7442  0.3400
  292TIP3    H122435   6.740   3.155   8.695 -1.7841 -0.9411  1.3918
  292TIP3    H222436   6.697   3.272   8.780 -0.6878  0.5355 -0.0257
  293TIP3   OH222437   3.126   5.395   2.024 -0.4181 -0.4063  0.1130
  293TIP3    H122438   3.060   5.342   2.069  0.7030 -1.6236  0.3835
  293TIP3    H222439   3.210   5.355   2.048  0.5943  2.1427  1.2176
  294TIP3   OH222440   0.426   4.781   6.351 -0.0299  0.2471  0.2603
  294TIP3    H122441   0.354   4.813   6.406  0.2065  0.4008  0.4817
  294TIP3    H222442   0.454   4.700   6.393  1.2047  1.1742  1.2914
  295TIP3   OH222443   4.470   2.857   8.248 -0.1785 -0.1330  0.2059
  295TIP3    H122444   4.530   2.857   8.173 -0.7080 -0.7920 -0.2286
  295TIP3    H222445   4.522   2.821   8.320  0.0559 -0.3701 -0.0791
  296TIP3   OH222446   3.636   3.896   0.517 -0.3664 -0.1350  0.4138
  296TIP3    H122447   3.637   3.906   0.421  0.2705 -2.6803  0.0821
  296TIP3    H222448   3.546   3.869   0.537  0.2555 -2.7539  0.0470
  297TIP3   OH222449   6.368   2.772   8.218  0.0256  0.4904 -0.4679
  297TIP3    H122450   6.413   2.702   8.264 -0.6766  0.2102 -0.1934
  297TIP3    H222451   6.296   2.729   8.172  0.0195  0.9310 -0.8843
  298TIP3   OH222452   1.826   5.312   7.468 -0.3584  0.5260 -0.0852
  298TIP3    H122453   1.914   5.348   7.483  0.1925 -0.9841  0.4571
  298TIP3    H222454   1.798   5.352   7.386  1.2419  0.3162 -0.7765
  299TIP3   OH222455   6.365   0.555   0.351 -0.0090 -0.6513  0.0287
  299TIP3    H122456   6.368   0.620   0.281 -0.1003 -0.7194 -0.0384
  299TIP3    H222457   6.387   0.472   0.308  0.5863 -0.5913  0.2040
  300TIP3   OH222458   4.603   5.123   0.016  0.3278  0.7770 -0.3728
  300TIP3    H122459   4.603   5.031  -0.010  0.2940 -0.0712  2.3235
  300TIP3    H222460   4.522   5.159  -0.020 -0.0124 -0.4287 -0.8420
  301TIP3   OH222461   5.995   2.216   6.381  0.5489  0.0517 -1.0156
  301TIP3    H122462   6.033   2.169   6.455  1.3946 -2.5232 -2.9306
  301TIP3    H222463   6.060   2.283   6.359  0.6658  0.3015  0.0186
  302TIP3   OH222464   0.465   5.643   8.474  0.0052 -0.5616 -0.3356
  302TIP3    H122465   0.490   5.568   8.528 -1.6013  0.2791  1.6684
  302TIP3    H222466   0.538   5.704   8.484  0.1318 -0.7815  0.1452
  303TIP3   OH222467   0.300   2.877   1.111  0.2835  0.0692 -0.0329
  303TIP3    H122468   0.215   2.866   1.153  0.1322 -1.0501 -0.5854
  303TIP3    H222469   0.337   2.955   1.151 -0.0898 -0.6241  1.7731
  304TIP3   OH222470   6.763   3.574   0.573  0.2905 -0.2711  0.1099
  304TIP3    H122471   6.829   3.611   0.514  1.3740  0.0410  1.4918
  304TIP3    H222472   6.723   3.650   0.615  0.2836 -0.5429  0.5932
  305TIP3   OH222473   0.512   5.058   0.035  0.0895 -0.3231 -0.1238
  305TIP3    H122474   0.447   5.127   0.028  1.7779  1.1940 -2.8547
  305TIP3    H222475   0.569   5.071  -0.041  3.0371 -2.0991  1.5818
  306TIP3   OH222476   2.931   4.745   0.023  0.3215 -0.8202  0.3042
  306TIP3    H122477   2.920   4.770  -0.069 -1.1998 -0.4477  0.5618
  306TIP3    H222478   2.967   4.656   0.019  0.2153 -0.8332 -0.6523
  307TIP3   OH222479   4.680   2.768   8.108 -0.4647  0.1802  0.7774
  307TIP3    H122480   4.707   2.815   8.029 -1.7148 -0.4736 -0.0831
  307TIP3    H222481   4.754   2.711   8.128  0.2969  1.1134  0.7245
  308TIP3   OH222482   1.846   3.285   2.228  0.1912 -0.3184 -0.3210
  308TIP3    H122483   1.803   3.365   2.257 -0.7381 -0.5496 -1.0276
  308TIP3    H222484   1.909   3.266   2.297 -0.6967  0.1386  0.6442
  309TIP3   OH222485   3.136   0.142   8.734  0.3323 -0.3384  0.6164
  309TIP3    H122486   3.158   0.235   8.732 -0.8207 -0.0585  0.3573
  309TIP3    H222487   3.205   0.100   8.683 -0.2337  0.6304 -1.0114
  310TIP3   OH222488   3.647   5.855   1.355  0.6000 -0.0552 -0.9186
  310TIP3    H122489   3.636   5.788   1.287 -2.5075 -0.0128 -0.5866
  310TIP3    H222490   3.657   5.806   1.436  1.3902 -0.0879 -1.0255
  311TIP3   OH222491   1.968   3.560   6.775 -0.0514 -0.1950 -0.1387
  311TIP3    H122492   2.055   3.597   6.787 -0.4726  0.9361 -0.4559
  311TIP3    H222493   1.978   3.468   6.798  1.3216 -0.1812 -0.6096
  312TIP3   OH222494   1.479   2.338   7.530  0.6597  0.2267  0.0995
  312TIP3    H122495   1.543   2.408   7.545 -1.0339  2.1119 -0.9878
  312TIP3    H222496   1.483   2.321   7.436 -0.7077  0.6620 -0.0486
  313TIP3   OH222497   1.019   4.307   6.908  0.5192 -0.4379 -0.4588
  313TIP3    H122498   0.986   4.394   6.882  0.0840 -0.2110  0.7731
  313TIP3    H222499   1.022   4.258   6.826 -1.1289  0.1340 -0.9101
  314TIP3   OH222500   1.120   2.049   6.937 -0.1431  0.4125  0.5327
  314TIP3    H122501   1.062   2.009   7.001 -0.3324  0.1908  0.2170
  314TIP3    H222502   1.068   2.058   6.858  0.1625  0.4802  0.3360
  315TIP3   OH222503   4.395   1.182   0.538  0.1779  0.4136  0.0080
  315TIP3    H122504   4.332   1.111   0.544 -0.7134  0.8450 -2.6994
  315TIP3    H222505   4.464   1.147   0.481 -0.6293  1.8511 -1.9685
  316TIP3   OH222506   0.179   3.976   8.591 -0.3552 -0.3776  0.1679
  316TIP3    H122507   0.108   4.021   8.635  1.1072  0.4488  1.7899
  316TIP3    H222508   0.159   3.986   8.497 -2.4387 -0.3638  0.5616
  317TIP3   OH222509   4.887   0.466   8.601  0.4539  0.1455 -0.0630
  317TIP3    H122510   4.971   0.510   8.586 -0.4065  1.8979  0.0221
  317TIP3    H222511   4.870   0.479   8.694  0.4835 -0.9696  0.1083
  318TIP3   OH222512   6.680   4.190   0.106 -0.1396 -0.6979 -0.1100
  318TIP3    H122513   6.767   4.176   0.145  0.3208  2.5586  0.3282
  318TIP3    H222514   6.621   4.139   0.161  1.3044 -1.7346  0.5504
  319TIP3   OH222515   5.696   1.558   6.850 -0.9915  0.1815 -0.2422
  319TIP3    H122516   5.654   1.573   6.766 -1.5529  3.1239  0.4636
  319TIP3    H222517   5.626   1.526   6.907 -1.3173  1.0238 -0.1576
  320TIP3   OH222518   1.947   6.030   0.293 -0.3803  0.2395 -0.9058
  320TIP3    H122519   1.926   5.937   0.297 -1.9732  0.6089  1.3155
  320TIP3    H222520   1.928   6.063   0.381  0.9339  2.5219 -1.3852
  321TIP3   OH222521   6.335   1.615   1.347  0.4428 -0.2352  0.0262
  321TIP3    H122522   6.396   1.674   1.304 -0.3698  0.6227  0.0164
  321TIP3    H222523   6.294   1.668   1.416  1.8240 -1.6029  2.0189
  322TIP3   OH222524   6.439   1.508   7.267 -0.2679  0.1649 -0.1315
  322TIP3    H122525   6.501   1.465   7.209 -0.4604 -0.5602  0.1818
  322TIP3    H222526   6.360   1.519   7.214 -0.2569  0.0225 -0.1776
  323TIP3   OH222527   3.568   5.383   7.453  0.3931  0.1751 -0.2900
  323TIP3    H122528   3.553   5.448   7.385 -0.9084  0.4975  0.2735
  323TIP3    H222529   3.612   5.311   7.409  1.9604  1.4540 -0.9062
  324TIP3   OH222530   1.628   0.015   0.334 -0.1763 -0.4182  0.4167
  324TIP3    H122531   1.614   0.075   0.261  1.7225 -0.5844 -0.1498
  324TIP3    H222532   1.652  -0.068   0.292 -1.1324 -1.1172  1.2159
  325TIP3   OH222533   5.508   0.299   1.312  0.1951  0.8598 -0.4379
  325TIP3    H122534   5.582   0.322   1.255 -0.1298 -0.7622 -1.5877
  325TIP3    H222535   5.524   0.347   1.393  2.8466  0.1082 -0.4245
  326TIP3   OH222536   4.918   0.564   1.389  0.0878  0.1961  0.1866
  326TIP3    H122537   4.926   0.644   1.441 -2.1003 -0.2374  1.3269
  326TIP3    H222538   4.825   0.561   1.363  0.5022 -1.0897 -1.3285
  327TIP3   OH222539   4.298   6.348   0.010 -0.0926 -0.6172 -0.0712
  327TIP3    H122540   4.226   6.326  -0.048 -0.9892  0.2510  0.6803
  327TIP3    H222541   4.336   6.264   0.034 -0.1332 -1.0220 -1.3516
  328TIP3   OH222542   2.415   0.332   0.972 -0.2781  0.2293 -0.6881
  328TIP3    H122543   2.329   0.348   0.932 -0.9513  0.5767  0.8295
  328TIP3    H222544   2.443   0.418   1.003  0.9204  0.2276 -1.6856
  329TIP3   OH222545   0.797   2.995   8.613 -0.2224  0.7505  0.4474
  329TIP3    H122546   0.837   2.980   8.699 -0.1439  0.5176  0.3691
  329TIP3    H222547   0.729   3.060   8.630 -1.9991 -1.2028  1.2024
  330TIP3   OH222548   2.780   2.601   6.769 -0.1554 -0.1178 -0.1571
  330TIP3    H122549   2.779   2.520   6.820  1.6305  1.3231  2.3617
  330TIP3    H222550   2.730   2.579   6.689 -1.5546 -3.0293  1.3407
  331TIP3   OH222551   0.395   5.747   7.814 -0.1232 -0.0319 -0.8476
  331TIP3    H122552   0.402   5.806   7.738 -1.4862 -0.7758 -1.5966
  331TIP3    H222553   0.303   5.721   7.814 -0.0124 -0.4812  0.7577
  332TIP3   OH222554   3.594   6.100   6.854  0.4569 -0.8364  0.3161
  332TIP3    H122555   3.578   6.043   6.778 -1.8757 -0.9385  0.8073
  332TIP3    H222556   3.635   6.178   6.817 -1.2986 -0.5645 -1.2177
  333TIP3   OH222557   3.642   0.619   1.106 -0.3170  0.4102  0.2341
  333TIP3    H122558   3.593   0.625   1.024 -0.8022  1.8465  0.6014
  333TIP3    H222559   3.611   0.539   1.147  0.2194 -0.5332 -1.1537
  334TIP3   OH222560   4.303   5.218   0.646 -0.8719 -0.3544  0.1125
  334TIP3    H122561   4.210   5.221   0.623 -1.5387 -0.4129  2.5330
  334TIP3    H222562   4.304   5.189   0.737  1.5140 -0.0621  0.2348
  335TIP3   OH222563   4.958   3.156   2.371 -0.2927 -0.0165  0.0452
  335TIP3    H122564   4.983   3.108   2.292 -0.1241  1.9327 -1.1388
  335TIP3    H222565   4.869   3.126   2.390 -0.5519 -0.0923 -1.2336
  336TIP3   OH222566   4.376   5.186   0.393  0.7768 -0.4417 -0.1141
  336TIP3    H122567   4.460   5.140   0.400  0.2023 -1.4825  0.2788
  336TIP3    H222568   4.342   5.186   0.482  0.2144 -0.3251 -0.3280
  337TIP3   OH222569   3.574   0.868   7.743  0.1401 -0.2840 -0.6005
  337TIP3    H122570   3.516   0.834   7.674 -1.9589 -0.2146  1.0323
  337TIP3    H222571   3.556   0.962   7.745  0.6612 -0.1869 -0.3678
  338TIP3   OH222572   3.213   4.831   0.042  0.2707 -0.4781 -0.1060
  338TIP3    H122573   3.130   4.860   0.004  0.5442 -0.0561 -0.3904
  338TIP3    H222574   3.191   4.750   0.088 -0.4744  0.0634  0.5279
  339TIP3   OH222575   6.731   2.795   0.092 -0.1390  0.1417 -0.3208
  339TIP3    H122576   6.732   2.703   0.118 -0.0216  0.2704  0.1453
  339TIP3    H222577   6.703   2.841   0.171 -0.6054  0.4715 -0.6724
  340TIP3   OH222578   5.269   3.250   1.690  0.3409  0.2557  0.5407
  340TIP3    H122579   5.179   3.253   1.721  0.3800 -3.0726  1.3520
  340TIP3    H222580   5.320   3.291   1.761 -0.4389  1.6688  0.3134
  341TIP3   OH222581   5.927   0.624   1.630 -0.0603  0.2069  0.3672
  341TIP3    H122582   6.022   0.629   1.633 -0.0049 -0.2138 -0.3737
  341TIP3    H222583   5.902   0.591   1.716  0.1869  3.6682  1.9347
  342TIP3   OH222584   6.073   6.236   1.008  0.2084  0.0144 -0.8876
  342TIP3    H122585   6.024   6.155   0.993 -0.1603 -0.1090  0.8292
  342TIP3    H222586   6.108   6.227   1.097 -1.8060  2.6769  0.3233
  343TIP3   OH222587   5.800   4.002   7.325 -0.7332 -0.5368 -0.1933
  343TIP3    H122588   5.726   4.018   7.384 -0.6768 -1.3711  0.1158
  343TIP3    H222589   5.841   4.088   7.316 -0.6136 -0.4230  1.1624
  344TIP3   OH222590   2.378   2.407   1.389  0.0999 -0.3988  0.4318
  344TIP3    H122591   2.414   2.330   1.432 -0.1913 -0.6582  0.2236
  344TIP3    H222592   2.383   2.476   1.454 -0.8610 -0.9224  1.0833
  345TIP3   OH222593   4.833   5.274   0.962 -0.1297  0.3047 -0.0045
  345TIP3    H122594   4.896   5.303   0.896 -0.0737 -0.3148 -0.2357
  345TIP3    H222595   4.822   5.180   0.944 -0.4249  0.2185  0.6084
  346TIP3   OH222596   6.248   3.859   7.866  0.1289 -0.2379 -0.5840
  346TIP3    H122597   6.277   3.827   7.952 -0.7034  0.5873  0.0316
  346TIP3    H222598   6.222   3.781   7.818  1.2601 -0.7823 -0.3529
  347TIP3   OH222599   6.246   5.609   6.716 -0.2544 -0.2605  0.3462
  347TIP3    H122600   6.304   5.683   6.735 -1.6847  0.6302  1.4313
  347TIP3    H222601   6.298   5.552   6.659  1.3883  0.8799  0.6320
  348TIP3   OH222602   2.940   2.123   1.556  0.2445  0.1171  0.7252
  348TIP3    H122603   2.882   2.156   1.488 -0.2671 -0.1378  1.0326
  348TIP3    H222604   3.020   2.175   1.547 -0.1975  0.7861  0.5917
  349TIP3   OH222605   4.018   0.041   7.063  0.2474 -0.1086  0.1783
  349TIP3    H122606   4.019  -0.046   7.103 -1.1790 -0.5425 -0.6536
  349TIP3    H222607   4.011   0.101   7.137  1.5098 -0.6621  0.7784
  350TIP3   OH222608   0.903   1.955   8.822  0.4099 -0.1078  0.4427
  350TIP3    H122609   0.972   1.926   8.761 -0.5556 -2.1478  0.2410
  350TIP3    H222610   0.936   2.038   8.857  2.6182 -0.6346 -0.2102
  351TIP3   OH222611   4.652   3.618   0.054  0.0267  0.5336  0.0101
  351TIP3    H122612   4.687   3.647  -0.030  1.6560  0.2622  0.5576
  351TIP3    H222613   4.721   3.562   0.090 -1.1823 -0.3915  0.9592
  352TIP3   OH222614   0.344   3.933   0.690  0.4014  0.0214  0.7781
  352TIP3    H122615   0.372   3.843   0.672 -2.2717 -1.0682  1.5213
  352TIP3    H222616   0.366   3.947   0.782  0.4875 -0.0105  0.7625
  353TIP3   OH222617   0.454   1.068   1.214  0.0540 -0.2654 -0.0731
  353TIP3    H122618   0.480   1.062   1.122  0.0524 -5.2882  0.0092
  353TIP3    H222619   0.369   1.113   1.212  1.0590  1.7572 -2.1449
  354TIP3   OH222620   0.343   4.292   7.912 -0.3933 -0.5627  0.4334
  354TIP3    H122621   0.352   4.386   7.905  2.7090 -0.8635 -1.0609
  354TIP3    H222622   0.350   4.274   8.006 -1.5582  0.6834  0.7877
  355TIP3   OH222623   4.504   5.459   1.468  0.0134 -0.2415  0.7357
  355TIP3    H122624   4.557   5.439   1.545  0.7946  0.0387  0.2807
  355TIP3    H222625   4.566   5.492   1.403 -0.8410  1.1532  0.5624
  356TIP3   OH222626   4.537   5.668   0.534 -0.6762 -0.0510 -0.1098
  356TIP3    H122627   4.503   5.597   0.480 -1.6370  0.2557  0.0779
  356TIP3    H222628   4.579   5.625   0.608 -0.2382 -0.4452 -0.5791
  357TIP3   OH222629   4.779   2.405   7.394  0.1163  0.1999  0.2747
  357TIP3    H122630   4.699   2.383   7.442 -0.1961 -0.1125 -0.3831
  357TIP3    H222631   4.805   2.490   7.429 -1.0110  0.7457 -0.1467
  358TIP3   OH222632   6.747   5.678   1.948 -0.4846  0.1309 -0.1433
  358TIP3    H122633   6.746   5.765   1.988 -3.9046  0.6913 -1.1268
  358TIP3    H222634   6.799   5.689   1.869  0.6649  0.7591  0.6752
  359TIP3   OH222635   5.067   3.356   7.584 -0.7158 -0.0624 -0.6514
  359TIP3    H122636   5.016   3.275   7.588 -0.8934  0.0664 -0.1878
  359TIP3    H222637   5.150   3.334   7.625  0.6080 -0.9646 -3.5728
  360TIP3   OH222638   3.216   0.378   0.542  0.1430 -0.0443  0.4174
  360TIP3    H122639   3.224   0.348   0.633 -0.0147 -0.2685  0.3573
  360TIP3    H222640   3.290   0.438   0.531  0.1593 -0.0100  0.6959
  361TIP3   OH222641   4.591   2.411   6.958  0.3676 -0.7535  0.0437
  361TIP3    H122642   4.497   2.397   6.959  0.0183  1.2013 -0.9478
  361TIP3    H222643   4.604   2.494   7.004  1.3249  0.1945 -1.8282
  362TIP3   OH222644   0.289   1.470   0.436 -0.3783 -0.0706  0.8309
  362TIP3    H122645   0.267   1.524   0.512 -0.4323  1.1546 -0.0223
  362TIP3    H222646   0.292   1.532   0.363  0.7206 -1.0497  0.0109
  363TIP3   OH222647   4.010   1.782   0.245 -0.1113  0.1441  0.2644
  363TIP3    H122648   3.925   1.751   0.214 -0.4520  0.4640  0.8516
  363TIP3    H222649   4.074   1.745   0.184 -0.4437 -1.9934  1.1376
  364TIP3   OH222650   0.198   2.265   7.681  0.6454 -0.0446 -0.0024
  364TIP3    H122651   0.133   2.330   7.655  1.7336  1.2461  0.3870
  364TIP3    H222652   0.149   2.201   7.732 -0.4019  0.6229 -0.1465
  365TIP3   OH222653   0.001   2.097   7.802  0.6861 -0.2886 -0.1065
  365TIP3    H122654   0.047   2.037   7.860  0.9461  0.1251  0.1177
  365TIP3    H222655  -0.066   2.137   7.857  3.0679  2.6717  0.9166
  366TIP3   OH222656   1.510   1.693   0.238 -0.3225 -0.6186 -0.8645
  366TIP3    H122657   1.493   1.784   0.214 -0.6436 -0.3540  0.3044
  366TIP3    H222658   1.530   1.696   0.332 -1.9180 -1.9105 -0.4207
  367TIP3   OH222659   0.939   3.008   7.950  0.0508 -0.2619  0.0350
  367TIP3    H122660   0.895   3.085   7.985  1.7659  0.3847  0.8945
  367TIP3    H222661   1.020   3.001   8.001  0.3828 -2.0938 -0.6540
  368TIP3   OH222662   2.191   6.573   6.678  0.6611  0.0463  0.0236
  368TIP3    H122663   2.233   6.488   6.663  2.3365  1.1333 -1.9256
  368TIP3    H222664   2.151   6.595   6.594 -2.0449  0.0946  1.2040
  369TIP3   OH222665   1.135   3.260   7.410  0.1570 -0.2747 -0.1530
  369TIP3    H122666   1.125   3.175   7.368  1.0335 -0.1145 -0.6842
  369TIP3    H222667   1.056   3.309   7.384  0.3598 -0.4134 -1.0440
  370TIP3   OH222668   6.087   2.336   8.180 -0.2829 -0.0655 -0.1413
  370TIP3    H122669   6.135   2.256   8.157  0.2073  0.2131 -0.1050
  370TIP3    H222670   6.127   2.365   8.262  1.5613  1.7977 -1.5897
  371TIP3   OH222671   2.625   1.408   1.485  0.6841  0.2091  0.2607
  371TIP3    H122672   2.637   1.412   1.580  0.4090 -0.8400  0.3566
  371TIP3    H222673   2.565   1.334   1.472  1.4024 -0.2131 -0.7798
  372TIP3   OH222674   2.111   1.111   7.826  0.1398 -0.3867  0.0582
  372TIP3    H122675   2.066   1.193   7.846  0.2256 -0.4978  0.7152
  372TIP3    H222676   2.058   1.043   7.869  0.5528 -0.5865  0.2610
  373TIP3   OH222677   5.800   0.094   1.324  0.3121 -0.0117  0.0780
  373TIP3    H122678   5.741   0.020   1.336 -1.0897  1.1689  0.7555
  373TIP3    H222679   5.795   0.143   1.406  3.9852 -0.9994  1.0717
  374TIP3   OH222680   1.071   6.480   8.748 -0.3172  0.3397 -0.9492
  374TIP3    H122681   1.097   6.571   8.763  1.0614 -0.2705  0.6117
  374TIP3    H222682   1.125   6.452   8.674 -1.2698  0.9701 -1.9165
  375TIP3   OH222683   2.368   3.078   8.671  0.5288 -0.2230  0.4050
  375TIP3    H122684   2.342   3.090   8.762 -1.7403  1.0204 -0.3262
  375TIP3    H222685   2.314   3.141   8.622  1.6302 -0.8962 -1.7985
  376TIP3   OH222686   6.574   5.428   0.878 -0.1238 -0.5258 -0.7235
  376TIP3    H122687   6.483   5.401   0.866  0.5979 -4.0309  0.5694
  376TIP3    H222688   6.612   5.423   0.791 -1.3266  2.2530 -1.5315
  377TIP3   OH222689   6.487   0.236   0.520 -0.4567  0.3988  0.2364
  377TIP3    H122690   6.474   0.267   0.430  0.4732 -0.5266 -0.2532
  377TIP3    H222691   6.421   0.168   0.531 -2.2037  2.1649  1.1547
  378TIP3   OH222692   0.025   4.182   7.788  0.4126  0.0548 -0.2192
  378TIP3    H122693   0.035   4.271   7.823  0.7966  0.2420 -0.8071
  378TIP3    H222694  -0.063   4.156   7.816  0.3698  0.5463  0.1203
  379TIP3   OH222695   0.660   2.509   1.315 -0.1873  0.5015 -0.2721
  379TIP3    H122696   0.717   2.553   1.252  0.4854  0.1298  0.0646
  379TIP3    H222697   0.684   2.546   1.400  0.2304 -0.3343 -0.0139
  380TIP3   OH222698   4.466   0.052   1.457 -0.1356 -0.0354 -0.0949
  380TIP3    H122699   4.436  -0.036   1.479 -0.7386  0.1267 -0.2581
  380TIP3    H222700   4.481   0.050   1.362  0.1766 -0.0592 -0.0452
  381TIP3   OH222701   6.579   2.827   7.342  0.2741  0.2467  0.4146
  381TIP3    H122702   6.544   2.819   7.254 -1.7650  1.2431  1.0683
  381TIP3    H222703   6.507   2.801   7.400  1.2328  0.5282  1.7990
  382TIP3   OH222704   5.134   0.757   8.220 -0.2227 -0.3953 -0.0592
  382TIP3    H122705   5.159   0.815   8.292  1.0417 -0.1340 -0.6680
  382TIP3    H222706   5.217   0.722   8.188 -0.8656 -1.5169 -0.5645
  383TIP3   OH222707   5.191   5.986   7.130 -0.7482  0.2854 -0.4235
  383TIP3    H122708   5.186   6.081   7.137  1.5202  0.4739 -0.3624
  383TIP3    H222709   5.217   5.957   7.217  0.6454 -0.1389 -0.9477
  384TIP3   OH222710   1.990   5.235   0.469  0.4178  0.0033 -0.1274
  384TIP3    H122711   1.961   5.189   0.549  0.0209  1.2130  0.4467
  384TIP3    H222712   1.942   5.318   0.470 -2.1538 -1.2336 -3.3521
  385TIP3   OH222713   1.789   2.005   8.280 -0.0275  0.2308 -0.5255
  385TIP3    H122714   1.755   1.987   8.192 -0.0845  0.3891 -0.5360
  385TIP3    H222715   1.867   1.951   8.287  0.2308  0.5589 -0.8410
  386TIP3   OH222716   0.429   5.538   7.997  0.0817  0.6359 -0.1487
  386TIP3    H122717   0.436   5.623   7.954  0.3967  0.4507 -0.4741
  386TIP3    H222718   0.427   5.558   8.090  2.6330  0.9008 -0.0698
  387TIP3   OH222719   5.345   5.990   0.122 -0.0831 -0.0945  0.2658
  387TIP3    H122720   5.306   6.051   0.185 -0.0704  0.9870 -0.7283
  387TIP3    H222721   5.286   5.993   0.047  1.1911  0.5401 -0.7425
  388TIP3   OH222722   6.311   0.921   1.924 -0.3383 -0.2789  0.0337
  388TIP3    H122723   6.267   1.006   1.923 -0.7684 -0.5058 -0.7094
  388TIP3    H222724   6.251   0.861   1.880  0.3055 -0.7950 -0.1720
  389TIP3   OH222725   3.771   3.493   8.775 -0.3824 -0.6442  0.5570
  389TIP3    H122726   3.802   3.559   8.712  2.1779 -2.6202 -0.4301
  389TIP3    H222727   3.692   3.457   8.735 -0.6928  0.4630  0.1482
  390TIP3   OH222728   4.278   5.304   2.033  0.3873  0.7037 -0.1593
  390TIP3    H122729   4.233   5.355   2.101 -0.2552 -0.5672  0.4016
  390TIP3    H222730   4.261   5.213   2.056  0.0348  0.2242 -2.1024
  391TIP3   OH222731   3.160   2.281   1.536 -0.2461  0.4102  0.2751
  391TIP3    H122732   3.178   2.360   1.486 -1.2223  1.1475  1.0391
  391TIP3    H222733   3.242   2.233   1.536 -0.0837  0.6347 -1.5650
  392TIP3   OH222734   3.475   3.503   1.781 -0.4959  0.3342  0.1370
  392TIP3    H122735   3.460   3.431   1.842  2.7838 -0.2347  0.4446
  392TIP3    H222736   3.535   3.468   1.715 -1.0976  1.9809 -1.3832
  393TIP3   OH222737   0.069   1.222   7.000 -0.5362  0.0941 -0.0921
  393TIP3    H122738  -0.004   1.260   6.950 -0.0849 -1.4827 -2.0464
  393TIP3    H222739   0.035   1.140   7.034  0.1827 -0.4447 -0.6510
  394TIP3   OH222740   2.353   2.748   0.497  0.5365 -0.1030 -0.2897
  394TIP3    H122741   2.259   2.757   0.508  0.5528  0.2053 -0.3899
  394TIP3    H222742   2.365   2.712   0.409  0.5568  0.9737 -0.7405
  395TIP3   OH222743   5.069   1.290   0.398 -0.5968 -0.2865  0.6812
  395TIP3    H122744   5.088   1.360   0.335 -0.4736 -0.6016  0.3547
  395TIP3    H222745   5.020   1.332   0.468 -2.4585 -0.2846 -0.5457
  396TIP3   OH222746   5.300   4.866   7.681  0.1635  0.2699  0.3261
  396TIP3    H122747   5.347   4.911   7.611  1.3503  0.3684  1.1401
  396TIP3    H222748   5.310   4.923   7.757 -2.9982  1.2745  0.1169
  397TIP3   OH222749   2.606   3.929   2.107 -0.2814 -0.3475  0.0115
  397TIP3    H122750   2.597   3.989   2.181  0.8787  3.5229 -2.6674
  397TIP3    H222751   2.516   3.898   2.090 -0.9371  0.6336  1.5094
  398TIP3   OH222752   2.106   1.792   8.533  0.2702 -0.1641 -0.1530
  398TIP3    H122753   2.117   1.810   8.439 -0.2583  0.8480 -0.0437
  398TIP3    H222754   2.107   1.697   8.540 -1.1840 -0.3078 -1.3980
  399TIP3   OH222755   2.115   6.182   1.627  0.1185 -0.4823 -0.1946
  399TIP3    H122756   2.152   6.094   1.620 -2.7932 -1.9148  0.7833
  399TIP3    H222757   2.120   6.203   1.720 -0.5624 -0.2798 -0.1964
  400TIP3   OH222758   2.766   1.677   8.767 -0.4267 -0.5880 -0.2710
  400TIP3    H122759   2.757   1.708   8.677  1.4807 -1.1136 -0.6940
  400TIP3    H222760   2.783   1.583   8.759 -0.1920 -0.6333  0.6238
  401TIP3   OH222761   4.090   1.304   6.998 -0.0502  0.0090  0.0343
  401TIP3    H122762   4.024   1.369   6.975 -1.5245 -0.2554  3.0094
  401TIP3    H222763   4.064   1.225   6.950 -0.6217  0.5056 -0.4816
  402TIP3   OH222764   2.100   0.957   7.586  0.2414 -0.0047  0.1308
  402TIP3    H122765   2.083   1.030   7.645 -0.2637  0.5106 -0.6293
  402TIP3    H222766   2.013   0.920   7.568  0.2713  0.3944 -0.9531
  403TIP3   OH222767   3.885   1.194   8.450 -0.2816  0.1547  0.3032
  403TIP3    H122768   3.931   1.123   8.496  0.9097  0.2170 -0.7681
  403TIP3    H222769   3.832   1.149   8.384 -0.6684  0.1821  0.5881
  404TIP3   OH222770   1.781   2.179   7.609  0.1667 -0.2790  0.1735
  404TIP3    H122771   1.832   2.205   7.686 -0.4404  0.0083  0.4825
  404TIP3    H222772   1.831   2.106   7.571  2.4853  1.9247 -1.3324
  405TIP3   OH222773   0.984   1.673   8.557 -0.1323  0.2545  0.1032
  405TIP3    H122774   1.044   1.744   8.579  0.9590 -0.2666 -1.0965
  405TIP3    H222775   1.032   1.594   8.581 -1.3128 -0.1241  1.3714
  406TIP3   OH222776   5.416   6.746   8.082  0.4080  0.6247  0.0055
  406TIP3    H122777   5.422   6.651   8.076  0.6717  0.6071  0.5209
  406TIP3    H222778   5.457   6.777   8.001  1.1878  0.3169  0.2667
  407TIP3   OH222779   1.399   0.958   1.553 -0.3957 -0.1938  0.3400
  407TIP3    H122780   1.399   0.942   1.648 -1.9609 -0.5727  0.3132
  407TIP3    H222781   1.330   1.023   1.540 -2.4990 -2.4941 -0.8299
  408TIP3   OH222782   4.330   0.639   8.375  0.0087 -0.5274 -0.1406
  408TIP3    H122783   4.336   0.592   8.291  0.2097 -2.1164  0.7208
  408TIP3    H222784   4.322   0.569   8.440  0.3425  0.6633  1.2098
  409TIP3   OH222785   6.034   0.679   0.463  0.2553  0.0321 -0.2471
  409TIP3    H122786   6.058   0.593   0.498 -2.5839 -0.5488  0.5323
  409TIP3    H222787   6.110   0.734   0.482  1.2468 -1.7419  1.3692
  410TIP3   OH222788   2.969   2.627   0.726 -0.8883  0.1425 -0.0305
  410TIP3    H122789   2.974   2.644   0.632  0.1323  0.3158  0.0365
  410TIP3    H222790   2.999   2.537   0.736 -1.3131  0.0123  0.1044
  411TIP3   OH222791   1.484   3.996   1.909  0.0018 -0.3159 -0.4087
  411TIP3    H122792   1.461   4.072   1.962 -0.3422 -0.1367 -0.8052
  411TIP3    H222793   1.424   3.927   1.939  1.0445 -0.7789  0.7242
  412TIP3   OH222794   5.582   6.465   1.870 -0.2045  0.4383  0.3559
  412TIP3    H122795   5.608   6.383   1.912  0.8691  0.0780 -0.9490
  412TIP3    H222796   5.646   6.529   1.901  1.2685 -0.0676 -1.5093
  413TIP3   OH222797   4.771   1.477   7.046  0.0829  0.2312  0.3589
  413TIP3    H122798   4.699   1.418   7.025  0.4284  0.4452 -1.5661
  413TIP3    H222799   4.846   1.442   6.997  0.3315  2.1534 -0.7078
  414TIP3   OH222800   3.387   5.723   1.012  0.1695  0.0069 -0.1328
  414TIP3    H122801   3.445   5.677   1.073 -0.0271  0.8153  0.6894
  414TIP3    H222802   3.309   5.668   1.006  0.8832 -0.9566 -1.0429
  415TIP3   OH222803   5.402   3.026   0.144  0.2872 -0.0795 -0.2433
  415TIP3    H122804   5.448   3.083   0.082  1.0492 -1.0975 -0.6228
  415TIP3    H222805   5.316   3.067   0.153  0.4678  0.5817 -1.2971
  416TIP3   OH222806   5.385   5.654   8.581  0.2219  0.3455  0.5450
  416TIP3    H122807   5.304   5.604   8.591  1.1058 -1.3610 -0.2139
  416TIP3    H222808   5.454   5.591   8.603  1.5242  0.4160 -2.7286
  417TIP3   OH222809   3.192   3.674   0.402  0.0866  0.5535  0.2308
  417TIP3    H122810   3.128   3.673   0.474  0.4107 -2.0408  0.5978
  417TIP3    H222811   3.144   3.707   0.327 -1.3547 -0.1425  0.8043
  418TIP3   OH222812   3.755   4.655   0.852 -0.1263 -0.1573 -0.4403
  418TIP3    H122813   3.678   4.657   0.909  0.5191 -0.1803  0.4646
  418TIP3    H222814   3.828   4.677   0.910  0.4313  0.9178 -1.5053
  419TIP3   OH222815   1.628   6.246   8.103  0.2114 -0.1003  0.1631
  419TIP3    H122816   1.708   6.297   8.108  0.5809 -0.7672  1.6453
  419TIP3    H222817   1.559   6.307   8.129 -0.2199  1.2495 -3.6669
  420TIP3   OH222818   4.527   4.694   8.480 -0.0380 -0.5320 -0.8432
  420TIP3    H122819   4.445   4.702   8.431 -0.3723 -0.8254 -0.3440
  420TIP3    H222820   4.527   4.770   8.538 -1.3691 -1.9366  1.1866
  421TIP3   OH222821   3.557   3.693   1.598 -0.8442  0.5375  0.0304
  421TIP3    H122822   3.551   3.653   1.684  1.0769 -1.2084 -0.5681
  421TIP3    H222823   3.502   3.638   1.542  0.2466 -0.1582 -0.4011
  422TIP3   OH222824   2.386   6.506   8.046 -0.1057 -0.4116 -0.1060
  422TIP3    H122825   2.373   6.416   8.017  2.1941 -0.1898 -2.1309
  422TIP3    H222826   2.369   6.560   7.968  0.3159  0.7533  0.5710
  423TIP3   OH222827   3.701   2.287   0.649 -0.2064  0.4469 -0.5851
  423TIP3    H122828   3.646   2.332   0.713 -3.0299  0.0977 -2.5393
  423TIP3    H222829   3.649   2.211   0.623  2.3581 -1.3258 -0.8263
  424TIP3   OH222830   6.213   2.681   8.557  0.0943  0.1972 -0.2230
  424TIP3    H122831   6.143   2.653   8.499 -0.8454 -0.1534  1.0287
  424TIP3    H222832   6.268   2.603   8.568  1.1085  0.6613 -1.7489
  425TIP3   OH222833   2.110   3.605   7.208  0.2184 -0.4343  0.1800
  425TIP3    H122834   2.184   3.611   7.147  0.0500 -3.0717 -0.3894
  425TIP3    H222835   2.138   3.541   7.273 -0.9154 -0.1895  0.9328
  426TIP3   OH222836   5.282   4.315   8.494 -0.2050  0.0184  0.2622
  426TIP3    H122837   5.289   4.409   8.478 -0.0472 -0.0324  0.0183
  426TIP3    H222838   5.250   4.308   8.583 -1.1660  0.3118 -0.0520
  427TIP3   OH222839   6.384   5.901   1.920  0.6830 -0.4939 -0.0110
  427TIP3    H122840   6.454   5.852   1.877  0.6486  0.5016 -1.2512
  427TIP3    H222841   6.304   5.874   1.874  0.5311 -0.0654 -0.0036
  428TIP3   OH222842   3.544   0.832   0.523 -0.0407 -0.0531  0.2270
  428TIP3    H122843   3.632   0.796   0.509  0.5278  0.3947  2.3322
  428TIP3    H222844   3.509   0.842   0.435  2.2434  0.3363 -0.7227
  429TIP3   OH222845   1.773   6.498   2.095  0.1486  0.3396  0.8772
  429TIP3    H122846   1.853   6.445   2.093 -0.1037 -0.0905  1.6864
  429TIP3    H222847   1.704   6.436   2.120 -0.3416  0.8188  0.7184
  430TIP3   OH222848   6.327   5.402   7.905 -0.1652  0.2115 -0.6528
  430TIP3    H122849   6.420   5.379   7.915 -0.4417 -1.0631 -0.8207
  430TIP3    H222850   6.316   5.481   7.957  1.2737  1.0674 -1.5868
  431TIP3   OH222851   1.477   0.727   1.188  0.7612  0.0914  0.6241
  431TIP3    H122852   1.452   0.680   1.268  0.7159 -0.6862  0.1557
  431TIP3    H222853   1.423   0.806   1.190 -0.0484 -0.4538  0.8151
  432TIP3   OH222854   3.255   0.082   2.403 -0.2337  0.2154  0.3277
  432TIP3    H122855   3.327   0.141   2.422  0.3646  0.4879 -2.4555
  432TIP3    H222856   3.176   0.134   2.422  0.2324  0.3771  2.0301
  433TIP3   OH222857   6.373   6.383   0.279 -0.0819 -0.1998  0.2354
  433TIP3    H122858   6.333   6.440   0.344  1.7762 -0.4489  1.6653
  433TIP3    H222859   6.366   6.295   0.316 -0.9397 -0.6459 -0.9295
  434TIP3   OH222860   4.776   5.360   8.499  0.4582  0.1806 -0.0882
  434TIP3    H122861   4.864   5.372   8.537  0.3184 -1.6404  0.9151
  434TIP3    H222862   4.786   5.383   8.407  1.9983 -0.0042  0.0065
  435TIP3   OH222863   3.932   0.903   7.829  0.2625  0.5333  0.1170
  435TIP3    H122864   3.904   0.943   7.911 -1.1176 -1.5035  0.7238
  435TIP3    H222865   4.022   0.932   7.817  0.7923  0.2095  2.8191
  436TIP3   OH222866   5.112   1.154   1.011 -0.0963  0.2170  0.1073
  436TIP3    H122867   5.127   1.068   1.050  0.4235 -0.8270 -2.2382
  436TIP3    H222868   5.140   1.144   0.920 -3.0507  1.9457 -1.1192
  437TIP3   OH222869   3.596   3.362   0.226  0.3496 -0.6840  0.2120
  437TIP3    H122870   3.524   3.410   0.265  0.3732  0.8832 -1.5320
  437TIP3    H222871   3.674   3.397   0.268  0.3319  0.5374 -0.7080
  438TIP3   OH222872   1.194   4.605   7.522  0.1666  0.2539 -0.0646
  438TIP3    H122873   1.283   4.578   7.544  1.0525  0.4894 -2.8892
  438TIP3    H222874   1.149   4.524   7.500 -1.2974 -0.2260  3.8683
  439TIP3   OH222875   1.824   6.602   1.369 -0.2086  0.0584 -0.0621
  439TIP3    H122876   1.899   6.654   1.340  0.0010 -0.5130 -0.5849
  439TIP3    H222877   1.773   6.661   1.425  2.6128 -0.5896  3.5631
  440TIP3   OH222878   3.024   4.269   7.045  0.2643  0.1164 -0.2793
  440TIP3    H122879   3.117   4.253   7.026  0.4137  2.1831 -1.6473
  440TIP3    H222880   3.021   4.360   7.074 -1.1226 -0.5244  1.7983
  441TIP3   OH222881   2.413   0.922   0.151 -0.4132  0.4900 -0.2606
  441TIP3    H122882   2.441   0.951   0.064 -3.1305  1.0308 -1.0424
  441TIP3    H222883   2.348   0.987   0.178 -2.0950 -1.4876  0.6967
  442TIP3   OH222884   5.145   1.732   0.580  0.1223 -0.6975 -0.1786
  442TIP3    H122885   5.206   1.794   0.540  0.6910 -1.2618 -0.2145
  442TIP3    H222886   5.071   1.728   0.520 -0.0621  0.1827 -0.0159
  443TIP3   OH222887   2.400   2.018   1.020  0.4112  0.4096  0.1240
  443TIP3    H122888   2.366   1.940   0.975 -0.1445  1.6846 -1.8090
  443TIP3    H222889   2.323   2.073   1.032  1.0047  1.2194  0.2725
  444TIP3   OH222890   3.235   0.501   7.676 -0.1322  0.8162 -0.0537
  444TIP3    H122891   3.206   0.412   7.696  1.1284  0.4590  0.2902
  444TIP3    H222892   3.296   0.523   7.746 -0.1482  1.8135 -0.3395
  445TIP3   OH222893   6.461   6.749   7.239 -0.6292 -0.0425  0.5613
  445TIP3    H122894   6.481   6.725   7.149  0.7338 -0.2830  0.9009
  445TIP3    H222895   6.366   6.735   7.248 -0.5072 -1.6311 -0.3485
  446TIP3   OH222896   6.285   5.762   8.770 -0.0126 -0.6749 -0.3003
  446TIP3    H122897   6.269   5.674   8.737 -1.0277 -0.6540  0.1106
  446TIP3    H222898   6.245   5.820   8.706 -0.8156 -0.5834  0.2729
  447TIP3   OH222899   3.389   6.792   6.679 -0.2328 -0.2220 -0.2734
  447TIP3    H122900   3.421   6.745   6.756 -0.9891 -0.9391 -0.3862
  447TIP3    H222901   3.445   6.762   6.608  1.1351  1.1938  0.1336
  448TIP3   OH222902   5.467   5.443   0.661 -0.1146 -0.6322  0.2319
  448TIP3    H122903   5.406   5.399   0.601  2.2224 -1.2706 -1.8459
  448TIP3    H222904   5.523   5.373   0.693  0.8494  0.2033  0.4055
  449TIP3   OH222905   4.119   4.037   6.740 -0.8448  0.1024  0.0004
  449TIP3    H122906   4.169   4.024   6.660  0.1814 -0.3368  0.6857
  449TIP3    H222907   4.083   3.950   6.760  0.5551 -0.2824  1.0502
  450TIP3   OH222908   1.260   3.511   0.065 -0.6507 -0.5078  0.7998
  450TIP3    H122909   1.168   3.508   0.039 -0.8123 -1.5310  1.4157
  450TIP3    H222910   1.295   3.427   0.035  0.1407 -0.0352  0.3904
  451TIP3   OH222911   2.328   5.203   0.758 -0.4983  0.4419 -0.1650
  451TIP3    H122912   2.356   5.112   0.751  0.9426  0.8031  0.5993
  451TIP3    H222913   2.324   5.233   0.667 -0.3007 -0.1852 -0.3875
  452TIP3   OH222914   3.711   2.625   0.179  0.7358  0.9788 -0.0988
  452TIP3    H122915   3.662   2.631   0.261  0.5936  0.4631 -0.1417
  452TIP3    H222916   3.643   2.623   0.111  0.6383 -2.0345 -0.0560
  453TIP3   OH222917   0.810   1.555   7.268 -0.4122 -0.0248 -0.4972
  453TIP3    H122918   0.743   1.600   7.218  2.2151  1.0594 -3.4204
  453TIP3    H222919   0.850   1.623   7.323  0.6118  0.2698 -1.5499
  454TIP3   OH222920   0.004   5.639   8.460 -0.1851 -0.5315  0.2992
  454TIP3    H122921   0.021   5.706   8.394  0.1255 -0.5185  0.3880
  454TIP3    H222922  -0.091   5.626   8.458 -0.3213  0.3917  0.7518
  455TIP3   OH222923   5.462   0.994   7.740 -0.4120  0.2760  0.0528
  455TIP3    H122924   5.411   0.936   7.683 -1.4115  1.4069 -0.2230
  455TIP3    H222925   5.446   0.960   7.828 -1.5459  0.5250 -0.0448
  456TIP3   OH222926   3.909   5.183   8.028 -0.4929  0.3337  0.6780
  456TIP3    H122927   3.835   5.245   8.020 -0.9823 -0.0071  2.3181
  456TIP3    H222928   3.983   5.230   7.989 -1.0102  1.7091  1.2698
  457TIP3   OH222929   3.422   6.737   7.492 -1.0331  0.0482  0.7229
  457TIP3    H122930   3.428   6.788   7.411 -0.3951  1.0980  1.4131
  457TIP3    H222931   3.355   6.782   7.544 -1.1313 -0.3701  0.9604
  458TIP3   OH222932   1.315   3.158   1.938  0.0427 -0.4969  0.4233
  458TIP3    H122933   1.388   3.120   1.987  0.3938  0.3466  0.5728
  458TIP3    H222934   1.343   3.247   1.918 -0.9994 -0.1186  0.5841
  459TIP3   OH222935   1.603   2.678   1.551 -0.3309  0.1125 -0.2581
  459TIP3    H122936   1.601   2.695   1.645 -1.0331 -3.0922  0.4057
  459TIP3    H222937   1.520   2.712   1.518  0.0607  1.5499  0.1760
  460TIP3   OH222938   3.505   5.111   7.670  0.4866 -0.3929  0.1742
  460TIP3    H122939   3.473   5.056   7.741  0.8363 -1.3494 -0.4031
  460TIP3    H222940   3.447   5.187   7.672  1.4501  0.4089  2.5166
  461TIP3   OH222941   1.696   0.313   0.844 -0.3215  0.0208  0.4315
  461TIP3    H122942   1.699   0.373   0.770 -0.3640  0.8496  1.0857
  461TIP3    H222943   1.642   0.357   0.910  1.3985  0.2637  1.7561
  462TIP3   OH222944   1.055   5.308   1.918  0.0921 -0.3706  0.6782
  462TIP3    H122945   1.017   5.394   1.934  0.9860  0.4455 -1.2274
  462TIP3    H222946   1.149   5.320   1.932  0.3976 -0.6232 -0.9439
  463TIP3   OH222947   6.332   1.458   2.151  0.0934  0.1603  0.7566
  463TIP3    H122948   6.323   1.546   2.186 -2.2244  0.6067 -0.7597
  463TIP3    H222949   6.249   1.440   2.108  1.7966 -1.2439 -2.3384
  464TIP3   OH222950   2.222   0.622   0.235 -0.3729  0.0650  0.5887
  464TIP3    H122951   2.289   0.677   0.277  0.8297 -1.1696  0.3685
  464TIP3    H222952   2.157   0.684   0.202  2.2054  1.6521 -2.0063
  465TIP3   OH222953   1.672   1.116   1.003  0.2075 -0.0835 -0.3671
  465TIP3    H122954   1.631   1.052   0.945  1.2847 -0.0272 -1.2174
  465TIP3    H222955   1.762   1.123   0.972  0.5204  0.7415  0.6559
  466TIP3   OH222956   4.108   1.785   0.883  0.0717 -0.0214  0.7054
  466TIP3    H122957   4.054   1.860   0.908  1.2470  1.1594 -0.1844
  466TIP3    H222958   4.193   1.822   0.859  0.0758 -1.3992 -1.7625
  467TIP3   OH222959   2.468   6.450   0.868  0.2885  0.1770 -0.6346
  467TIP3    H122960   2.432   6.361   0.855  1.2948 -0.3766  0.2428
  467TIP3    H222961   2.415   6.505   0.810 -1.0532 -0.8257 -0.4301
  468TIP3   OH222962   3.436   1.015   8.165  0.5913  0.2707  0.0758
  468TIP3    H122963   3.449   0.942   8.104 -0.2988 -0.4443  0.7204
  468TIP3    H222964   3.436   1.092   8.109 -0.8022 -0.4137 -0.9525
  469TIP3   OH222965   5.900   5.881   8.139  0.2397 -0.1218  0.2944
  469TIP3    H122966   5.939   5.915   8.058  1.3771  1.5286  1.4461
  469TIP3    H222967   5.968   5.825   8.177  0.0188 -0.2591  0.4946
  470TIP3   OH222968   4.749   1.307   8.357 -0.4302  0.8303 -0.6671
  470TIP3    H122969   4.793   1.228   8.325 -0.6750  1.5729 -2.9541
  470TIP3    H222970   4.670   1.313   8.304 -0.8627  2.1464  0.0950
  471TIP3   OH222971   3.899   0.955   0.321  0.5016  0.3785 -0.1780
  471TIP3    H122972   3.867   0.865   0.320  2.4215 -0.3586 -0.5773
  471TIP3    H222973   3.986   0.950   0.280  0.9863  2.2719  0.4983
  472TIP3   OH222974   4.954   4.850   8.362 -0.1257  0.4376  0.1427
  472TIP3    H122975   5.044   4.866   8.334  0.0345  1.3858  1.1396
  472TIP3    H222976   4.903   4.920   8.322 -0.4092 -0.0272 -0.3211
  473TIP3   OH222977   2.449   0.311   0.607 -0.0102 -0.1081  0.0439
  473TIP3    H122978   2.511   0.263   0.662  0.3423  0.4461  0.1451
  473TIP3    H222979   2.457   0.270   0.521 -0.8824 -1.2639  0.4987
  474TIP3   OH222980   3.528   0.727   7.160  0.3653 -0.2105 -0.2123
  474TIP3    H122981   3.564   0.690   7.240  2.8777 -2.3180 -2.1711
  474TIP3    H222982   3.511   0.819   7.182  0.3983 -0.8312  2.8487
  475TIP3   OH222983   2.622   0.740   7.439 -0.1385 -0.3784  0.4940
  475TIP3    H122984   2.626   0.712   7.530 -0.4106  2.0117  1.3160
  475TIP3    H222985   2.541   0.703   7.406 -0.8262 -0.0252  1.7196
  476TIP3   OH222986   0.907   5.172   8.836 -0.4095  0.5202  0.1247
  476TIP3    H122987   0.928   5.110   8.906 -0.4201  0.5696  0.1714
  476TIP3    H222988   0.815   5.156   8.816 -1.2722  2.4666  2.1049
  477TIP3   OH222989   0.421   5.280   0.917 -0.0777  0.4544 -0.5104
  477TIP3    H122990   0.431   5.370   0.948  1.8866 -0.1633  0.7948
  477TIP3    H222991   0.344   5.248   0.964  0.5786  0.7530  0.8246
  478TIP3   OH222992   3.338   6.512   1.512 -0.2988  0.0763  0.6253
  478TIP3    H122993   3.251   6.477   1.531 -0.6750  1.0625  0.7594
  478TIP3    H222994   3.353   6.578   1.579 -1.3434  3.1374 -1.9057
  479TIP3   OH222995   2.516   2.695   6.309  0.1932 -0.2281 -0.3326
  479TIP3    H122996   2.588   2.755   6.329  0.8371 -1.1962  0.3853
  479TIP3    H222997   2.437   2.748   6.319  0.7738  0.6903 -0.4752
  480TIP3   OH222998   2.211   2.979   8.421  0.0539  0.1288 -0.4930
  480TIP3    H122999   2.198   3.074   8.418 -0.7669  0.0148 -0.9219
  480TIP3    H223000   2.158   2.946   8.349  1.1929 -0.5739 -1.0319
  481TIP3   OH223001   2.678   3.246   0.160 -0.0369  0.7148 -0.0699
  481TIP3    H123002   2.687   3.261   0.066 -0.9577 -0.6607 -0.4045
  481TIP3    H223003   2.624   3.319   0.190 -0.5136  0.6704 -0.7838
  482TIP3   OH223004   0.353   4.411   0.146  0.4070 -0.8207  0.2535
  482TIP3    H123005   0.308   4.429   0.228  1.3740 -1.1741  0.8857
  482TIP3    H223006   0.408   4.335   0.165  0.8566 -0.7362 -0.6402
  483TIP3   OH223007   2.005   4.756   0.272  0.8761  0.3733  0.0521
  483TIP3    H123008   2.082   4.812   0.282  1.8322 -1.0179  0.7979
  483TIP3    H223009   2.006   4.730   0.180  1.9900 -0.5641  0.3114
  484TIP3   OH223010   6.299   6.680   8.769  0.0491 -0.2047 -0.3955
  484TIP3    H123011   6.360   6.718   8.832  0.1796 -0.3402 -0.4359
  484TIP3    H223012   6.307   6.735   8.691 -1.5090  1.0941  0.3359
  485TIP3   OH223013   0.775   5.436   1.915  0.2141  0.1459 -0.8988
  485TIP3    H123014   0.773   5.399   2.003  0.0824 -1.2905 -1.4686
  485TIP3    H223015   0.786   5.530   1.928 -0.9449  0.1034  0.6736
  486TIP3   OH223016   0.204   0.086   7.638  0.3714  0.3476 -0.1979
  486TIP3    H123017   0.271   0.152   7.621  0.5622 -0.3125 -2.3525
  486TIP3    H223018   0.240   0.032   7.707  0.6601  1.8422  0.8734
  487TIP3   OH223019   3.158   0.886   8.811 -0.2406 -0.1359  0.2247
  487TIP3    H123020   3.157   0.981   8.795  1.6320 -0.2981 -1.1954
  487TIP3    H223021   3.104   0.850   8.740  1.4380 -0.2773 -1.0567
  488TIP3   OH223022   0.146   2.749   0.300  0.5568 -0.0742  0.5745
  488TIP3    H123023   0.192   2.709   0.226 -0.0549  0.0879  0.0961
  488TIP3    H223024   0.125   2.837   0.269  2.4063  0.8622  1.8243
  489TIP3   OH223025   3.294   0.707   8.213 -0.3097 -0.5697 -0.9623
  489TIP3    H123026   3.243   0.787   8.217 -0.3305 -0.5369 -1.6832
  489TIP3    H223027   3.350   0.718   8.136  0.4470 -0.8028 -0.4606
  490TIP3   OH223028   4.216   3.576   0.815  0.4483 -0.0153  0.3381
  490TIP3    H123029   4.194   3.486   0.789  1.7214 -0.7604  1.6995
  490TIP3    H223030   4.155   3.595   0.887  1.3087 -0.4731  1.2170
  491TIP3   OH223031   0.088   2.032   1.810 -0.0122 -0.4230  0.2898
  491TIP3    H123032   0.087   2.110   1.866  2.2567 -0.1537  0.0441
  491TIP3    H223033   0.128   1.964   1.864  0.8439 -0.5581 -0.4796
  492TIP3   OH223034   1.886   0.841   8.659 -0.1247 -0.0741 -0.3544
  492TIP3    H123035   1.858   0.794   8.737 -0.6518 -1.6223 -1.4366
  492TIP3    H223036   1.865   0.783   8.586  1.8316  0.6126 -1.5611
  493TIP3   OH223037   4.214   4.494   6.392  0.1403  0.0566 -0.4045
  493TIP3    H123038   4.189   4.584   6.372 -2.2742 -0.6202 -0.7136
  493TIP3    H223039   4.134   4.443   6.377  1.3596 -2.0985  0.0653
  494TIP3   OH223040   1.415   0.321   1.712 -0.4327  0.7545 -0.4079
  494TIP3    H123041   1.390   0.229   1.711 -0.5012  0.6881  1.8983
  494TIP3    H223042   1.333   0.367   1.731 -0.3379  1.2772 -1.2251
  495TIP3   OH223043   6.313   1.117   8.849 -0.6497 -0.0382 -0.6192
  495TIP3    H123044   6.391   1.169   8.832 -0.7135  0.0015 -0.7951
  495TIP3    H223045   6.268   1.113   8.764 -0.5151 -0.5972 -0.6657
  496TIP3   OH223046   2.594   6.489   0.337  0.0516 -0.0646  0.3351
  496TIP3    H123047   2.504   6.504   0.309 -0.3052  0.0640  1.4777
  496TIP3    H223048   2.609   6.556   0.405 -0.0690 -1.9958  2.3908
  497TIP3   OH223049   3.728   1.336   2.063 -0.3618 -0.0327 -0.4921
  497TIP3    H123050   3.638   1.349   2.036 -0.8893 -0.1338  1.1019
  497TIP3    H223051   3.733   1.374   2.151  0.3773 -2.4960  0.6421
  498TIP3   OH223052   0.138   1.089   1.066  0.0498  0.5128  0.0794
  498TIP3    H123053   0.075   1.021   1.088 -0.4392  0.7975 -0.4120
  498TIP3    H223054   0.101   1.170   1.102  0.8938  0.4544  1.1457
  499TIP3   OH223055   4.066   5.582   0.164 -1.0361  0.0763 -0.2130
  499TIP3    H123056   4.145   5.626   0.196 -0.7413 -0.8248  0.3447
  499TIP3    H223057   4.000   5.651   0.158 -1.3815  0.2372  3.2681
  500TIP3   OH223058   4.965   4.271   8.268  0.2535  0.1464 -0.2318
  500TIP3    H123059   4.910   4.196   8.244  0.7840  0.3122 -2.1222
  500TIP3    H223060   5.000   4.248   8.354 -2.2921 -0.1995  0.8011
  501TIP3   OH223061   3.243   5.483   8.816 -0.0953 -0.2394  0.4251
  501TIP3    H123062   3.211   5.393   8.808 -2.2095  0.4055  1.1245
  501TIP3    H223063   3.259   5.494   8.910  1.8112 -0.3611  0.1664
  502TIP3   OH223064   5.559   4.512   8.253 -0.0174 -0.0765 -0.2763
  502TIP3    H123065   5.609   4.436   8.224  1.2758  0.5891  0.1455
  502TIP3    H223066   5.495   4.526   8.184  1.2844 -0.1118 -1.5335
  503TIP3   OH223067   3.825   0.778   7.085  0.4318 -0.0628 -0.0817
  503TIP3    H123068   3.868   0.799   7.168 -0.8621 -0.7071  0.7826
  503TIP3    H223069   3.732   0.789   7.103  0.1047 -0.6824 -1.3112
  504TIP3   OH223070   5.936   5.280   1.383  0.7502 -0.0139 -0.0139
  504TIP3    H123071   5.904   5.282   1.293  1.7061 -3.3981 -0.5504
  504TIP3    H223072   5.948   5.188   1.402  1.9743  0.6753  3.1357
  505TIP3   OH223073   4.302   0.622   7.362  0.0846 -0.0309 -0.1298
  505TIP3    H123074   4.350   0.692   7.405  1.4980 -0.1290 -1.4421
  505TIP3    H223075   4.347   0.542   7.389  0.4192 -0.1580 -1.0059
  506TIP3   OH223076   1.952   5.806   8.109 -0.3587 -0.2728 -0.5126
  506TIP3    H123077   1.903   5.831   8.188 -1.2318 -1.3286 -0.6942
  506TIP3    H223078   1.886   5.807   8.039  0.0380 -1.0278 -0.9032
  507TIP3   OH223079   1.333   2.910   1.773 -0.0633  0.2050  0.5470
  507TIP3    H123080   1.334   3.003   1.796 -1.2042 -0.0202  1.6171
  507TIP3    H223081   1.329   2.909   1.677 -2.8427  1.3394  0.5606
  508TIP3   OH223082   3.202   0.397   0.044  0.4652  0.1812  0.2681
  508TIP3    H123083   3.147   0.468   0.078  0.6374  0.1415  0.6409
  508TIP3    H223084   3.229   0.348   0.122  1.2115  0.3303  0.1172
  509TIP3   OH223085   2.988   1.609   7.305  0.5532 -0.2308  0.3756
  509TIP3    H123086   3.079   1.629   7.285  0.2526  1.4182  0.4701
  509TIP3    H223087   2.983   1.613   7.401  0.0886  1.3516  0.3245
  510TIP3   OH223088   0.848   6.292   6.575 -0.0891 -0.3296  0.4796
  510TIP3    H123089   0.754   6.278   6.579 -0.1372  0.0890  0.9084
  510TIP3    H223090   0.873   6.260   6.488 -0.8099  0.5827 -0.0836
  511TIP3   OH223091   2.594   0.558   2.027 -0.7056 -0.1331 -0.6713
  511TIP3    H123092   2.673   0.530   1.982 -1.1336 -1.3236 -0.7022
  511TIP3    H223093   2.535   0.483   2.022 -1.2556  0.1680  0.7213
  512TIP3   OH223094   5.317   0.680   7.279 -0.0007 -0.1069 -0.0152
  512TIP3    H123095   5.315   0.600   7.225 -3.0377 -1.7760  2.2172
  512TIP3    H223096   5.257   0.660   7.352 -0.0008  3.8450  1.2628
  513TIP3   OH223097   6.025   0.678   0.208  0.4222  0.4150 -1.0107
  513TIP3    H123098   6.033   0.723   0.292 -0.8884  2.1459 -1.7574
  513TIP3    H223099   6.066   0.593   0.223  0.3277  0.7130  1.3387
  514TIP3   OH223100   4.985   2.896   7.598 -0.1690 -0.0121  0.1894
  514TIP3    H123101   5.052   2.861   7.658 -1.7855  0.4823  2.3953
  514TIP3    H223102   4.926   2.945   7.655 -2.0798  0.0715 -1.7745
  515TIP3   OH223103   2.036   6.071   7.482 -0.5525  0.2346  0.5143
  515TIP3    H123104   1.974   6.139   7.511 -0.3813  0.5524  0.1425
  515TIP3    H223105   1.980   5.997   7.458 -0.7481  0.2834  0.8136
  516TIP3   OH223106   4.769   0.676   1.057 -0.2039 -0.3661 -0.2203
  516TIP3    H123107   4.785   0.752   1.000  1.3626  0.7935  1.6429
  516TIP3    H223108   4.808   0.602   1.010 -0.0947  0.3078 -1.2208
  517TIP3   OH223109   2.069   0.864   1.167 -0.5954  0.1825 -0.3322
  517TIP3    H123110   2.020   0.840   1.088 -0.3470 -1.4185 -0.0217
  517TIP3    H223111   2.155   0.823   1.156 -0.7797 -0.6286  1.0631
  518TIP3   OH223112   3.176   4.621   1.849  0.5451 -0.1282 -0.1918
  518TIP3    H123113   3.242   4.686   1.875  1.0746 -0.6296 -0.2732
  518TIP3    H223114   3.190   4.610   1.755 -0.4821  0.6823 -0.4578
  519TIP3   OH223115   3.747   0.725   6.320  0.0082 -0.5904 -0.0446
  519TIP3    H123116   3.839   0.704   6.304  0.0352 -1.3030  0.9010
  519TIP3    H223117   3.748   0.814   6.356  0.2020 -0.1268 -1.1649
  520TIP3   OH223118   5.010   1.358   6.955  0.0475 -0.0971  0.2002
  520TIP3    H123119   4.974   1.322   6.875 -0.8123  0.6512  0.2396
  520TIP3    H223120   5.103   1.334   6.952 -0.0010 -0.1984 -0.9425
  521TIP3   OH223121   5.124   0.575   7.443 -0.3322 -0.0120  0.0223
  521TIP3    H123122   5.132   0.605   7.534 -0.0256 -1.5247  0.5273
  521TIP3    H223123   5.191   0.506   7.435 -0.5847 -0.1276 -1.2513
  522TIP3   OH223124   1.535   2.342   7.260  0.4321 -0.7886  0.6224
  522TIP3    H123125   1.609   2.284   7.244  1.2805  0.1190  1.1683
  522TIP3    H223126   1.562   2.426   7.225 -0.4559 -0.5012  0.5898
  523TIP3   OH223127   4.860   3.126   8.035 -0.6478 -0.1415  0.3742
  523TIP3    H123128   4.774   3.169   8.044 -1.8790 -2.1100 -1.1190
  523TIP3    H223129   4.861   3.062   8.106 -0.3243  0.0143  0.5088
  524TIP3   OH223130   2.297   1.153   8.623  0.2070 -0.2770 -0.3908
  524TIP3    H123131   2.368   1.216   8.616  0.5213 -0.3180  1.8124
  524TIP3    H223132   2.240   1.188   8.692 -0.3893 -1.6639 -0.1435
  525TIP3   OH223133   4.342   0.033   7.036 -0.8865  0.2211 -0.0193
  525TIP3    H123134   4.349   0.015   7.130  1.0888  0.9976  0.0304
  525TIP3    H223135   4.341   0.128   7.030  0.6678  0.2278 -0.8228
  526TIP3   OH223136   4.458   4.975   8.440 -0.6966  0.2305 -0.2141
  526TIP3    H123137   4.440   5.020   8.357 -0.9058 -0.6681 -0.6626
  526TIP3    H223138   4.543   5.010   8.468 -0.8389  0.8776 -0.5652
  527TIP3   OH223139   6.520   4.545   6.473 -0.0134 -0.2826 -0.5686
  527TIP3    H123140   6.544   4.453   6.475  0.7487 -0.1074 -1.0937
  527TIP3    H223141   6.425   4.545   6.474 -0.0288 -1.0952 -1.1785
  528TIP3   OH223142   5.412   5.668   1.748  0.3393 -0.6780  0.2533
  528TIP3    H123143   5.496   5.686   1.706 -0.2000 -1.3786 -1.1964
  528TIP3    H223144   5.397   5.575   1.732 -0.4267 -0.7093  1.0536
  529TIP3   OH223145   0.006   4.432   0.544  0.8909  0.0770 -0.1923
  529TIP3    H123146  -0.006   4.492   0.471 -3.2747  0.4374  0.5204
  529TIP3    H223147   0.050   4.484   0.611 -0.5551  1.6843 -0.4218
  530TIP3   OH223148   1.646   5.165   7.593 -0.3672  0.1105  0.2577
  530TIP3    H123149   1.563   5.207   7.614 -0.7404 -0.3632 -0.2168
  530TIP3    H223150   1.694   5.231   7.543  0.8004  1.4891  3.0062
  531TIP3   OH223151   1.342   0.326   0.923 -0.4564  0.2101 -0.2648
  531TIP3    H123152   1.405   0.375   0.975 -0.1829 -2.9176  2.7393
  531TIP3    H223153   1.395   0.277   0.860 -0.3572  0.9134 -0.7293
  532TIP3   OH223154   4.817   6.445   1.573  0.2310  0.0842 -0.0196
  532TIP3    H123155   4.861   6.482   1.496  0.5583  1.3041  0.7222
  532TIP3    H223156   4.824   6.514   1.640  0.6239 -1.2233  1.3449
  533TIP3   OH223157   3.960   1.821   1.536  0.1855  0.5229 -0.0875
  533TIP3    H123158   3.947   1.737   1.581 -1.0243  1.0291  0.5532
  533TIP3    H223159   4.044   1.853   1.569  0.4471 -0.2267 -0.0059
  534TIP3   OH223160   4.057   2.759   1.428 -0.3993  1.2384  0.1088
  534TIP3    H123161   3.993   2.815   1.383  0.3754  2.8556  0.9096
  534TIP3    H223162   4.039   2.773   1.521 -1.7112 -1.7404  0.4002
  535TIP3   OH223163   4.094   6.778   8.313 -0.0358  0.3350  0.2345
  535TIP3    H123164   4.124   6.856   8.360  0.0990  0.2828  0.2379
  535TIP3    H223165   4.175   6.731   8.291 -0.1463 -0.1273  0.7887
  536TIP3   OH223166   1.584   4.197   8.762 -0.0839 -0.0324 -0.2271
  536TIP3    H123167   1.549   4.256   8.695 -0.1333  0.3927  0.1644
  536TIP3    H223168   1.562   4.240   8.845  0.4605 -0.2739  0.0471
  537TIP3   OH223169   4.894   0.020   6.803  0.0210 -0.1961  0.3685
  537TIP3    H123170   4.915  -0.065   6.840  0.4708 -0.8483 -1.3127
  537TIP3    H223171   4.978   0.064   6.792 -0.1706  0.2958  0.8135
  538TIP3   OH223172   0.643   0.595   8.405  0.8982  0.1084  0.6116
  538TIP3    H123173   0.602   0.682   8.405 -1.5911 -0.9879  0.6782
  538TIP3    H223174   0.570   0.534   8.400  2.6197 -2.0059 -0.2676
  539TIP3   OH223175   3.140   1.078   1.609 -0.1950 -0.1731 -0.3753
  539TIP3    H123176   3.083   1.002   1.613  1.6302 -1.6322 -0.4499
  539TIP3    H223177   3.171   1.080   1.518 -1.1071  1.3955 -0.6940
  540TIP3   OH223178   1.346   3.765   1.302  0.4322 -0.0813 -0.8251
  540TIP3    H123179   1.360   3.730   1.389  4.2984 -0.3145 -1.3681
  540TIP3    H223180   1.252   3.756   1.287 -0.1799 -1.1336  2.7871
  541TIP3   OH223181   6.248   3.094   6.566 -0.0125  0.6304 -0.2185
  541TIP3    H123182   6.322   3.068   6.621  0.0494  0.5161 -0.3571
  541TIP3    H223183   6.171   3.062   6.613  0.1167 -0.7324 -0.9059
  542TIP3   OH223184   0.255   0.136   8.050  0.1324 -0.0595 -0.7731
  542TIP3    H123185   0.168   0.168   8.025 -0.8965 -2.9036 -1.2472
  542TIP3    H223186   0.259   0.149   8.144 -1.1805 -0.6073 -0.6162
  543TIP3   OH223187   6.438   3.384   8.823 -0.0741  0.0713  0.3074
  543TIP3    H123188   6.513   3.368   8.880  0.0837 -1.7667 -0.3399
  543TIP3    H223189   6.370   3.415   8.882  0.1237 -1.6650  1.5435
  544TIP3   OH223190   3.264   4.576   1.088  0.6553 -0.5694  1.0585
  544TIP3    H123191   3.195   4.581   1.022  1.6888 -1.4083 -0.1276
  544TIP3    H223192   3.231   4.513   1.152 -0.0959 -0.2178  1.0266
  545TIP3   OH223193   0.611   2.224   7.007  0.2820  0.3123 -0.4187
  545TIP3    H123194   0.686   2.274   7.038 -0.2476  0.7639  0.1716
  545TIP3    H223195   0.572   2.279   6.939 -1.6610  1.9088  1.7901
  546TIP3   OH223196   2.699   2.581   6.139 -0.6039 -0.0193  0.0501
  546TIP3    H123197   2.611   2.600   6.172  0.0704  0.2516  1.7868
  546TIP3    H223198   2.721   2.496   6.176 -0.7081 -0.8326 -1.6624
  547TIP3   OH223199   4.395   6.151   8.084 -0.6655  0.0193 -0.0925
  547TIP3    H123200   4.438   6.165   8.168 -2.6973  3.5868  0.5763
  547TIP3    H223201   4.467   6.143   8.021  0.9556  1.1154  1.5158
  548TIP3   OH223202   2.091   6.346   7.132 -0.5206  0.1827  0.2779
  548TIP3    H123203   2.159   6.373   7.070 -0.6127 -0.5459 -0.1527
  548TIP3    H223204   2.116   6.389   7.215  1.2336 -1.1460  0.4993
  549TIP3   OH223205   3.699   6.779   7.002  0.1904  0.2123 -0.6390
  549TIP3    H123206   3.626   6.749   6.948 -0.7445  1.8430 -0.3446
  549TIP3    H223207   3.771   6.789   6.940  0.2290 -1.5393 -0.9130
  550TIP3   OH223208   3.426   5.804   8.392 -0.0012 -0.0540  0.7286
  550TIP3    H123209   3.363   5.802   8.321  1.0745  1.7325 -0.3656
  550TIP3    H223210   3.389   5.866   8.455 -0.3909 -0.7476  1.2024
  551TIP3   OH223211   6.116   2.258   6.671  0.2278 -0.0890  0.1920
  551TIP3    H123212   6.196   2.296   6.706  0.1257  1.0592 -0.7441
  551TIP3    H223213   6.059   2.333   6.655  0.5332 -0.3938 -3.0381
  552TIP3   OH223214   4.735   1.893   8.717 -0.3090 -0.4845 -0.3211
  552TIP3    H123215   4.747   1.832   8.644  0.4820 -2.7793  1.5707
  552TIP3    H223216   4.780   1.972   8.690  1.5857 -1.9150 -1.6170
  553TIP3   OH223217   1.506   4.967   2.164  0.9855 -0.0035  0.0955
  553TIP3    H123218   1.435   4.911   2.131  1.7103 -0.8314 -0.1160
  553TIP3    H223219   1.467   5.054   2.172  0.5647  0.0938 -2.2725
  554TIP3   OH223220   0.886   0.790   0.230 -0.1370 -0.0254  0.5320
  554TIP3    H123221   0.873   0.777   0.324 -3.0875 -2.0774 -0.0026
  554TIP3    H223222   0.939   0.716   0.202 -0.5358 -0.2457  0.3569
  555TIP3   OH223223   0.764   6.682   6.375  0.1345 -0.2492 -0.0600
  555TIP3    H123224   0.837   6.741   6.357  1.9548 -2.0159  1.1187
  555TIP3    H223225   0.773   6.612   6.311  1.1802 -1.8577  1.7421
  556TIP3   OH223226   3.554   1.746   2.670 -0.0042 -0.0310 -0.1387
  556TIP3    H123227   3.546   1.835   2.635 -0.9099 -0.3963 -0.8854
  556TIP3    H223228   3.466   1.726   2.704  0.9352  0.5426  2.9914
  557TIP3   OH223229   6.498   0.806   1.657  0.7249 -0.0786 -0.6551
  557TIP3    H123230   6.499   0.727   1.711 -0.5233 -0.6910 -1.5011
  557TIP3    H223231   6.488   0.775   1.567  0.8398  1.0128 -1.0692
  558TIP3   OH223232   3.226   4.820   7.822 -0.2692  0.6651  0.3284
  558TIP3    H123233   3.173   4.741   7.827 -0.6136  0.9661  2.1756
  558TIP3    H223234   3.163   4.889   7.799  0.1900  0.3107 -2.2408
  559TIP3   OH223235   1.680   3.204   1.760  0.3439  0.2111  0.5160
  559TIP3    H123236   1.750   3.188   1.696  1.0170  1.8315  0.7927
  559TIP3    H223237   1.666   3.119   1.802  0.4573 -0.7018 -1.1837
  560TIP3   OH223238   5.535   6.032   2.067 -0.4309 -0.3370 -0.7501
  560TIP3    H123239   5.555   5.942   2.041 -0.5885 -0.0639 -1.8670
  560TIP3    H223240   5.439   6.033   2.076 -0.3907 -0.3908 -0.2794
  561TIP3   OH223241   5.264   3.924   0.056 -0.3256 -0.3485 -0.5642
  561TIP3    H123242   5.340   3.881   0.016  0.2005 -1.9851  1.9608
  561TIP3    H223243   5.189   3.891   0.007  0.3804 -1.2437 -1.0835
  562TIP3   OH223244   3.236   3.868   6.189 -0.1114  0.1403 -0.0953
  562TIP3    H123245   3.206   3.900   6.104 -0.1186  1.2794  0.3185
  562TIP3    H223246   3.156   3.854   6.239 -0.1464 -1.3038 -0.5284
  563TIP3   OH223247   1.325   2.007   0.623  0.6037 -0.2013  0.9612
  563TIP3    H123248   1.313   2.074   0.556 -2.1681 -0.9048  0.6516
  563TIP3    H223249   1.309   1.925   0.578  0.1044 -0.7887  2.1703
  564TIP3   OH223250   3.555   1.851   1.852  0.1305 -0.3455 -0.6353
  564TIP3    H123251   3.566   1.761   1.885  0.2542 -0.8114 -1.8756
  564TIP3    H223252   3.622   1.859   1.784  0.6992  1.0035  0.0537
  565TIP3   OH223253   0.232   5.322   0.497  0.3233 -0.3667 -0.2967
  565TIP3    H123254   0.196   5.241   0.532  0.2213  0.1332  0.7932
  565TIP3    H223255   0.326   5.313   0.510  0.2654 -0.0770  0.3536
  566TIP3   OH223256   4.594   6.312   2.103  0.0881  0.1391 -0.1850
  566TIP3    H123257   4.528   6.258   2.146 -2.5887  1.8078 -1.8761
  566TIP3    H223258   4.661   6.251   2.074 -1.9780 -2.0544 -0.6164
  567TIP3   OH223259   3.143   0.999   8.029 -0.0285 -0.3908 -0.6838
  567TIP3    H123260   3.091   1.062   7.978 -0.2146  0.5938  0.6522
  567TIP3    H223261   3.234   1.023   8.011 -0.0771 -0.4759 -1.0546
  568TIP3   OH223262   6.730   1.806   0.848  0.5049  0.2511 -0.0120
  568TIP3    H123263   6.787   1.749   0.900  1.6010  1.4017  0.0949
  568TIP3    H223264   6.715   1.757   0.767 -1.3077 -1.6109  1.3632
  569TIP3   OH223265   0.357   0.345   7.035 -0.3998  0.1137  0.3592
  569TIP3    H123266   0.336   0.313   7.122  0.2955  1.4237  1.0359
  569TIP3    H223267   0.278   0.393   7.008 -0.6337 -0.3342  0.2335
  570TIP3   OH223268   0.597   4.179   1.133 -0.8495  0.1135  0.3151
  570TIP3    H123269   0.590   4.223   1.217 -0.8942 -0.9917  0.9052
  570TIP3    H223270   0.643   4.242   1.077 -1.5729  1.1915  0.9035
  571TIP3   OH223271   3.331   0.030   8.552  0.2300 -0.1184 -0.1131
  571TIP3    H123272   3.359  -0.060   8.540  0.2977 -0.4845  2.3112
  571TIP3    H223273   3.365   0.076   8.476  2.1433 -1.7159 -0.2927
  572TIP3   OH223274   4.470   1.003   0.304  0.2670 -0.1817 -0.3109
  572TIP3    H123275   4.461   1.068   0.234  0.6337 -0.5468 -0.7001
  572TIP3    H223276   4.563   0.982   0.306  0.2156 -0.3840  0.0958
  573TIP3   OH223277   4.787   1.237   6.572  0.5608  0.4265  0.1161
  573TIP3    H123278   4.758   1.196   6.491  2.3360 -0.2665 -0.2104
  573TIP3    H223279   4.709   1.282   6.606 -0.4964 -0.2304 -1.3634
  574TIP3   OH223280   0.613   5.302   7.999  0.2249  0.1190  0.6099
  574TIP3    H123281   0.614   5.326   8.091 -0.1607  0.8698  0.4268
  574TIP3    H223282   0.554   5.365   7.958  0.9890  0.2820 -0.2773
  575TIP3   OH223283   6.082   6.196   8.715 -0.4308  0.1970 -0.1539
  575TIP3    H123284   6.152   6.176   8.777  1.9418 -0.4201 -2.8422
  575TIP3    H223285   6.038   6.112   8.701 -0.8042  0.2857  0.4081
  576TIP3   OH223286   3.545   4.426   6.317  0.6024  0.0294 -0.4592
  576TIP3    H123287   3.552   4.509   6.271  1.6733 -0.4800 -1.2765
  576TIP3    H223288   3.583   4.362   6.256  1.2109 -0.8068  0.7692
  577TIP3   OH223289   0.651   6.760   0.094 -0.6485 -0.0044  0.7835
  577TIP3    H123290   0.662   6.682   0.039  0.1150  0.5538  0.1267
  577TIP3    H223291   0.723   6.818   0.068  0.0380  0.0845  2.6834
  578TIP3   OH223292   4.351   5.714   8.783  0.2276  0.0580 -0.4428
  578TIP3    H123293   4.281   5.759   8.830 -0.3810  0.4364 -1.6700
  578TIP3    H223294   4.428   5.725   8.839 -0.3230  1.0668  0.1457
  579TIP3   OH223295   5.593   2.858   0.911  0.0867  0.6997  0.1439
  579TIP3    H123296   5.630   2.938   0.873  2.2939  0.2170  1.1566
  579TIP3    H223297   5.628   2.854   1.000 -1.8993 -0.1851  0.9388
  580TIP3   OH223298   3.222   5.904   2.122  0.1899  0.5629 -0.3828
  580TIP3    H123299   3.167   5.880   2.196 -0.9528 -0.4339 -1.5022
  580TIP3    H223300   3.311   5.881   2.149 -0.4625 -1.9937 -0.1656
  581TIP3   OH223301   4.449   3.348   7.272  0.2940  0.3482 -0.0524
  581TIP3    H123302   4.362   3.363   7.236  0.4851  1.3928 -0.1318
  581TIP3    H223303   4.508   3.356   7.197  0.4380 -0.6680 -0.0533
  582TIP3   OH223304   3.375   4.320   7.965 -0.4297 -0.0206  0.0962
  582TIP3    H123305   3.405   4.375   7.893 -0.7989  0.6137  0.4195
  582TIP3    H223306   3.436   4.246   7.966 -1.4444 -0.9675 -1.9943
  583TIP3   OH223307   1.249   5.994   7.315  0.0585  0.6305 -0.1398
  583TIP3    H123308   1.229   6.005   7.222 -3.1766  1.3640  0.4972
  583TIP3    H223309   1.208   5.911   7.339  1.2700  0.2140  0.5609
  584TIP3   OH223310   1.253   6.324   8.530 -0.1574  0.1293  0.6851
  584TIP3    H123311   1.242   6.401   8.473  3.3975  0.1624 -0.1798
  584TIP3    H223312   1.222   6.251   8.477  1.8106  0.3422 -0.8916
  585TIP3   OH223313   3.425   1.585   1.343 -0.3464  0.2750  0.1697
  585TIP3    H123314   3.368   1.644   1.294 -0.6087  0.1844  0.3706
  585TIP3    H223315   3.368   1.515   1.373 -0.2729  0.5558  0.9833
  586TIP3   OH223316   5.152   0.039   0.051  0.3360  0.1427 -0.5031
  586TIP3    H123317   5.136  -0.011  -0.029 -0.0063 -0.3123 -0.1570
  586TIP3    H223318   5.064   0.061   0.082  0.4134 -0.7828  0.4307
  587TIP3   OH223319   1.469   3.773   0.218  0.3737  0.0751  0.2311
  587TIP3    H123320   1.393   3.821   0.252  0.1703 -0.3070  0.3194
  587TIP3    H223321   1.480   3.699   0.278  1.5513  0.7741  0.9297
  588TIP3   OH223322   3.766   6.197   0.618 -0.6481  0.7576 -0.0430
  588TIP3    H123323   3.852   6.160   0.638 -0.9743 -0.2209 -0.4071
  588TIP3    H223324   3.782   6.291   0.609  0.5731  0.4897 -1.0479
  589TIP3   OH223325   3.615   0.561   6.545  0.0448  0.5690 -0.4456
  589TIP3    H123326   3.643   0.472   6.523  0.8278  1.0886 -1.6868
  589TIP3    H223327   3.595   0.601   6.461  0.6394  1.8656  0.0055
  590TIP3   OH223328   5.052   6.358   0.262  0.1486  0.2634 -0.1999
  590TIP3    H123329   5.080   6.373   0.352 -1.6718 -0.7096  0.5808
  590TIP3    H223330   5.061   6.444   0.220 -0.1827  1.0520  1.2599
  591TIP3   OH223331   2.405   1.684   7.578  0.3112  0.0913 -0.5175
  591TIP3    H123332   2.488   1.644   7.553 -0.6285 -1.8353 -0.7585
  591TIP3    H223333   2.406   1.770   7.536  1.7907 -0.2612 -1.2605
  592TIP3   OH223334   5.358   5.336   7.787  0.4061 -0.1628 -0.5115
  592TIP3    H123335   5.376   5.389   7.710 -0.6636  0.4483 -0.3662
  592TIP3    H223336   5.302   5.265   7.755 -0.1698  0.1795 -0.2902
  593TIP3   OH223337   5.823   0.211   2.410 -0.0603 -0.3553 -0.4217
  593TIP3    H123338   5.851   0.125   2.380 -0.2968 -0.6967  0.3009
  593TIP3    H223339   5.743   0.229   2.360 -0.2263 -0.7353 -0.2991
  594TIP3   OH223340   4.205   2.452   1.410 -0.0358 -0.2306  0.4349
  594TIP3    H123341   4.250   2.530   1.443  1.3756 -0.5440 -0.6766
  594TIP3    H223342   4.260   2.421   1.339 -0.9929 -1.8057  0.3447
  595TIP3   OH223343   1.493   2.119   8.230  0.4694 -0.4377  0.1364
  595TIP3    H123344   1.518   2.191   8.288 -0.0081 -0.2134  0.0727
  595TIP3    H223345   1.475   2.046   8.290 -1.0194  0.0863  0.3700
  596TIP3   OH223346   1.200   2.261   8.349 -0.0820  0.2641 -0.2743
  596TIP3    H123347   1.194   2.355   8.332 -1.7594  0.3340  0.4078
  596TIP3    H223348   1.289   2.247   8.381  0.3097  1.5523 -0.7627
  597TIP3   OH223349   2.127   4.986   0.643  0.3424  0.1216  1.0664
  597TIP3    H123350   2.071   5.052   0.684 -0.7049 -0.8729  1.2886
  597TIP3    H223351   2.123   4.911   0.702  0.4863 -0.5956  0.1884
  598TIP3   OH223352   3.174   4.640   0.281 -0.1196 -0.0338 -0.2432
  598TIP3    H123353   3.107   4.580   0.314 -0.6119  0.3655 -0.4932
  598TIP3    H223354   3.256   4.609   0.320 -0.2896 -1.1402 -0.7359
  599TIP3   OH223355   3.518   3.392   7.831 -0.1088 -0.3170 -0.3692
  599TIP3    H123356   3.512   3.351   7.745 -0.2274 -0.7519 -0.1550
  599TIP3    H223357   3.537   3.320   7.891  0.3622  0.0376 -0.0805
  600TIP3   OH223358   2.668   1.860   0.659  0.2852 -0.2767  0.1013
  600TIP3    H123359   2.644   1.767   0.656  1.3479 -0.5244 -1.6202
  600TIP3    H223360   2.662   1.890   0.569 -1.0498  1.6482  0.7459
  601TIP3   OH223361   2.610   3.281   8.309  0.5662  0.4039 -0.0170
  601TIP3    H123362   2.539   3.345   8.302 -0.5993 -0.9024 -0.6837
  601TIP3    H223363   2.652   3.301   8.393 -0.2553  1.5383  0.1553
  602TIP3   OH223364   2.673   5.276   8.855 -0.6586  0.2164 -0.7279
  602TIP3    H123365   2.594   5.304   8.900  0.1492  2.6589 -0.6918
  602TIP3    H223366   2.740   5.272   8.923 -0.0665  1.2660 -1.2092
  603TIP3   OH223367   3.572   0.236   2.261  0.1358 -0.0666  0.4752
  603TIP3    H123368   3.646   0.189   2.222 -0.0824  1.2159 -1.6280
  603TIP3    H223369   3.601   0.327   2.266 -1.0625  0.3526  0.1782
  604TIP3   OH223370   1.706   1.815   7.425 -0.1130 -0.5091 -0.1276
  604TIP3    H123371   1.652   1.857   7.358 -1.8824 -0.7026  1.1138
  604TIP3    H223372   1.776   1.878   7.442 -0.9642  0.5723 -0.5036
  605TIP3   OH223373   0.079   5.970   6.829 -0.2772 -0.2379  0.3547
  605TIP3    H123374   0.064   5.879   6.805  1.8342 -0.0075 -2.2115
  605TIP3    H223375   0.029   6.021   6.765 -0.8336  0.4455  1.3009
  606TIP3   OH223376   5.874   1.987   0.129  0.2776 -0.1267  0.3669
  606TIP3    H123377   5.865   2.079   0.104  1.0371  0.2896  1.5351
  606TIP3    H223378   5.888   1.989   0.223  0.4073 -1.4395  0.3953
  607TIP3   OH223379   1.985   6.578   8.295 -0.2018 -0.1771 -0.0937
  607TIP3    H123380   2.046   6.619   8.355 -0.2329 -1.1977  0.6655
  607TIP3    H223381   2.027   6.583   8.209 -0.4550  1.9046 -0.1507
  608TIP3   OH223382   3.848   1.942   0.441  0.3398 -0.1427  0.0789
  608TIP3    H123383   3.899   1.879   0.391  0.9074 -0.3431  0.8981
  608TIP3    H223384   3.843   2.019   0.383  1.7799 -0.0243  0.0566
  609TIP3   OH223385   1.910   0.366   0.327  0.1770  0.9713 -0.0166
  609TIP3    H123386   1.978   0.332   0.384 -0.2741  4.0064  2.6003
  609TIP3    H223387   1.842   0.396   0.386 -1.4490  2.1117 -2.3166
  610TIP3   OH223388   4.234   1.732   7.717  0.2945 -0.0632 -0.2462
  610TIP3    H123389   4.182   1.715   7.796  1.4685 -0.1992  0.5163
  610TIP3    H223390   4.198   1.672   7.651  0.0258 -0.7358  0.4991
  611TIP3   OH223391   5.920   1.739   7.690 -0.0032  0.2603  0.3340
  611TIP3    H123392   5.826   1.741   7.674 -0.4501  1.6043  2.6337
  611TIP3    H223393   5.952   1.664   7.640 -2.5363 -1.1411  0.6893
  612TIP3   OH223394   2.999   3.228   6.328 -0.4279  0.0103 -1.1788
  612TIP3    H123395   2.964   3.262   6.246  1.6833  1.0891 -1.7257
  612TIP3    H223396   3.032   3.141   6.305 -1.3459 -0.3890 -1.0275
  613TIP3   OH223397   3.047   6.526   1.926 -0.1341  0.7592  0.6844
  613TIP3    H123398   3.092   6.465   1.984  0.6318  0.7297  0.0811
  613TIP3    H223399   2.983   6.569   1.982 -0.9797 -0.8791  1.0229
  614TIP3   OH223400   4.722   6.430   6.781  0.1288 -0.0726  0.1707
  614TIP3    H123401   4.663   6.448   6.708  0.8886  3.0785  0.2152
  614TIP3    H223402   4.809   6.429   6.742  0.3753 -0.8612  0.7057
  615TIP3   OH223403   0.659   5.793   7.916  0.3236  0.1750  0.6119
  615TIP3    H123404   0.565   5.791   7.899  0.5563 -1.3354 -0.8393
  615TIP3    H223405   0.699   5.792   7.829  1.6672 -1.2483  1.1917
  616TIP3   OH223406   0.702   0.366   0.120  0.0993  0.7474  0.4087
  616TIP3    H123407   0.780   0.350   0.174 -0.6659 -2.8013  0.7134
  616TIP3    H223408   0.648   0.426   0.172  1.1229  0.5552  1.7528
  617TIP3   OH223409   1.219   5.427   1.691  0.8037  0.4155 -0.3419
  617TIP3    H123410   1.290   5.386   1.740  2.6597  1.8994 -1.6380
  617TIP3    H223411   1.187   5.358   1.633  0.0296 -0.7287  1.3605
  618TIP3   OH223412   4.635   3.290   7.569 -0.3767 -0.0975  0.2398
  618TIP3    H123413   4.657   3.228   7.498 -2.6033  0.4036 -0.9891
  618TIP3    H223414   4.548   3.263   7.598 -0.9253  1.7698  0.4468
  619TIP3   OH223415   1.587   2.554   1.278  0.7705  0.4504 -0.2303
  619TIP3    H123416   1.658   2.490   1.277  2.2795  2.0514 -1.2205
  619TIP3    H223417   1.592   2.594   1.364  0.1880 -0.3439  0.1837
  620TIP3   OH223418   6.784   1.035   7.508 -0.4475 -0.0316  0.3414
  620TIP3    H123419   6.833   1.002   7.432  0.5342 -0.8720  1.3114
  620TIP3    H223420   6.842   1.101   7.546 -0.0996 -0.9128  1.4027
  621TIP3   OH223421   4.491   4.138   0.555 -0.8176 -0.3443 -0.4397
  621TIP3    H123422   4.445   4.074   0.609 -1.0706 -0.8286 -1.2181
  621TIP3    H223423   4.423   4.199   0.527 -1.3659 -1.9343 -2.8822
  622TIP3   OH223424   3.371   3.674   1.079 -1.0412 -0.8021  0.0498
  622TIP3    H123425   3.398   3.595   1.126  2.0418 -0.1163 -0.3454
  622TIP3    H223426   3.344   3.735   1.148  0.0869 -0.9880  0.6734
  623TIP3   OH223427   4.019   5.859   8.198 -0.1859 -0.0299  1.1605
  623TIP3    H123428   3.955   5.930   8.185 -0.0693 -0.4186 -2.6965
  623TIP3    H223429   4.085   5.874   8.131  1.7008 -1.9186  2.4674
  624TIP3   OH223430   1.440   2.288   7.814  1.0727 -0.2946  0.5410
  624TIP3    H123431   1.433   2.383   7.824 -2.9912 -0.1040 -1.6729
  624TIP3    H223432   1.507   2.276   7.747  0.5163  1.1927 -0.3321
  625TIP3   OH223433   0.055   3.387   8.091 -0.0286 -0.0970 -0.4321
  625TIP3    H123434   0.127   3.379   8.027 -0.9288 -0.0112 -1.4924
  625TIP3    H223435  -0.016   3.426   8.041 -0.4268  0.9749  0.9180
  626TIP3   OH223436   6.702   2.506   1.678 -0.2564  0.3438 -0.3212
  626TIP3    H123437   6.757   2.580   1.651  1.6684 -0.9923 -0.2590
  626TIP3    H223438   6.660   2.536   1.759  0.9669  1.1419  0.0403
  627TIP3   OH223439   4.590   2.685   7.017 -0.4690 -0.6498  0.1912
  627TIP3    H123440   4.553   2.757   6.966  0.2903 -0.7607 -0.5219
  627TIP3    H223441   4.658   2.726   7.071  0.8859 -1.0125 -1.1810
  628TIP3   OH223442   4.561   4.796   0.553 -0.0476  0.1750 -0.0238
  628TIP3    H123443   4.617   4.799   0.476 -0.9326  2.1493 -0.6479
  628TIP3    H223444   4.602   4.855   0.616  0.3334 -0.9443  0.8157
  629TIP3   OH223445   2.898   5.822   7.297  0.4156  0.2104 -0.5104
  629TIP3    H123446   2.836   5.870   7.352 -0.4082 -0.5382 -0.7545
  629TIP3    H223447   2.844   5.756   7.253  0.8450  1.3923 -2.9678
  630TIP3   OH223448   1.777   1.529   7.779 -0.5468  0.4827  0.1630
  630TIP3    H123449   1.780   1.581   7.859 -1.0002 -0.0968  0.5649
  630TIP3    H223450   1.712   1.574   7.724 -0.2501  0.8688  0.1251
  631TIP3   OH223451   5.804   4.599   8.190  0.4132 -0.7762  0.3639
  631TIP3    H123452   5.731   4.593   8.251 -0.5441 -1.3890 -0.7908
  631TIP3    H223453   5.822   4.693   8.182 -0.6777 -0.5664  0.1917
  632TIP3   OH223454   4.754   2.741   0.355 -0.2749  0.0234  0.3197
  632TIP3    H123455   4.823   2.722   0.418 -0.6723  1.6326  1.2938
  632TIP3    H223456   4.690   2.671   0.367  1.3503 -1.7911 -0.9525
  633TIP3   OH223457   6.063   4.459   0.183 -0.2953 -0.1468  0.5579
  633TIP3    H123458   6.028   4.501   0.104 -1.9497  0.6245  1.6434
  633TIP3    H223459   6.069   4.529   0.247 -0.2927 -1.0080  1.5288
  634TIP3   OH223460   2.269   4.850   1.829 -0.7489 -0.0422 -0.1212
  634TIP3    H123461   2.287   4.937   1.865 -0.5531  0.1141 -0.6003
  634TIP3    H223462   2.318   4.790   1.886  0.6326  0.3099 -0.9143
  635TIP3   OH223463   1.986   3.422   2.006  0.6868  0.3167  0.1022
  635TIP3    H123464   1.940   3.373   2.074  2.1643  0.7373  1.4699
  635TIP3    H223465   2.017   3.501   2.051 -0.1485  1.6900 -1.6128
  636TIP3   OH223466   5.456   2.508   1.042  0.1791 -0.3120 -0.4040
  636TIP3    H123467   5.550   2.491   1.040  0.0399 -1.1553 -0.1782
  636TIP3    H223468   5.447   2.593   1.085  0.7843 -0.6459  0.4032
  637TIP3   OH223469   0.783   3.580   0.741 -0.4395 -0.3791  0.8321
  637TIP3    H123470   0.751   3.491   0.757  0.7885 -0.6683  1.8366
  637TIP3    H223471   0.705   3.635   0.742 -1.1077 -1.3160  1.1512
  638TIP3   OH223472   3.072   2.990   6.896  0.6705  0.2324  0.1182
  638TIP3    H123473   3.153   2.940   6.909 -0.5789 -2.2338 -0.8832
  638TIP3    H223474   3.002   2.927   6.912 -1.0671  1.9569 -0.2669
  639TIP3   OH223475   0.174   3.691   0.444  0.1584 -0.2590  0.5460
  639TIP3    H123476   0.262   3.716   0.415 -0.3263  1.8553  0.7532
  639TIP3    H223477   0.118   3.712   0.369 -0.4630  0.6928  1.2571
  640TIP3   OH223478   0.965   0.505   0.482 -0.1507  0.3040  0.1247
  640TIP3    H123479   0.883   0.512   0.531  0.5944  0.8564  1.3364
  640TIP3    H223480   0.990   0.596   0.464  0.8175  0.2048  0.8700
  641TIP3   OH223481   1.329   5.424   1.033  0.0828 -1.1161  0.2664
  641TIP3    H123482   1.408   5.476   1.047 -0.3314 -0.5294  0.4645
  641TIP3    H223483   1.277   5.475   0.971 -1.3839 -0.0968  2.2330
  642TIP3   OH223484   4.480   2.932   6.910 -0.1791  0.7310 -0.1580
  642TIP3    H123485   4.452   2.911   6.821  1.7368  0.0404 -0.6367
  642TIP3    H223486   4.499   3.026   6.907  1.7499  0.3559 -1.0637
  643TIP3   OH223487   5.753   2.612   7.406 -0.2358 -0.6492 -0.5006
  643TIP3    H123488   5.802   2.654   7.476 -0.6053 -1.6960  0.4300
  643TIP3    H223489   5.818   2.564   7.356  0.0073 -0.0450 -0.7665
  644TIP3   OH223490   6.679   0.133   1.928  0.5597  0.5765  0.2420
  644TIP3    H123491   6.593   0.128   1.969  0.6703  2.2095  0.7279
  644TIP3    H223492   6.690   0.225   1.904  2.1965  0.4235  0.2495
  645TIP3   OH223493   3.059   1.682   6.763  0.3690  0.3472 -0.3309
  645TIP3    H123494   3.117   1.635   6.703  1.1854  0.3740  0.4255
  645TIP3    H223495   3.072   1.774   6.742  0.4145  0.3423 -0.3231
  646TIP3   OH223496   2.886   0.475   1.344  0.0745  0.3147 -0.1463
  646TIP3    H123497   2.856   0.384   1.335 -2.3181  0.9262  1.0086
  646TIP3    H223498   2.833   0.524   1.282 -0.2575  1.2285  0.8306
  647TIP3   OH223499   4.817   1.605   0.130  0.6089  0.3394  0.2926
  647TIP3    H123500   4.770   1.622   0.049  1.2784 -0.7267 -0.3550
  647TIP3    H223501   4.749   1.578   0.193  0.2750 -0.6229 -0.4578
  648TIP3   OH223502   4.827   5.271   6.259  0.4124  0.2178 -1.2055
  648TIP3    H123503   4.888   5.345   6.256  0.1868  0.4768 -0.1997
  648TIP3    H223504   4.741   5.313   6.270  0.3688 -0.1880  0.2323
  649TIP3   OH223505   1.969   2.147   6.874 -0.0873  0.4103  0.3833
  649TIP3    H123506   2.048   2.167   6.823  0.7749 -1.0833  1.0409
  649TIP3    H223507   1.897   2.162   6.813  0.9022 -1.4427 -1.4168
  650TIP3   OH223508   3.046   6.251   0.824  0.0921  0.0142 -0.2499
  650TIP3    H123509   3.115   6.185   0.827  0.1345  0.0893  1.7048
  650TIP3    H223510   3.021   6.264   0.915 -2.1568  0.3914 -0.8579
  651TIP3   OH223511   5.877   4.757   1.112  0.0830 -0.2465 -0.2754
  651TIP3    H123512   5.875   4.805   1.029 -1.3676  0.6677  0.2535
  651TIP3    H223513   5.936   4.807   1.168 -1.2529  0.8342  0.2018
  652TIP3   OH223514   5.297   6.655   8.508 -0.2656 -0.0243  0.1312
  652TIP3    H123515   5.325   6.714   8.438 -0.0871  0.8348  0.8938
  652TIP3    H223516   5.365   6.663   8.575 -0.5391 -0.6490  0.4938
  653TIP3   OH223517   3.502   2.055   0.045 -0.5030  0.2777 -0.3157
  653TIP3    H123518   3.564   2.127   0.037 -0.6673  0.6643  1.4676
  653TIP3    H223519   3.499   2.036   0.139 -1.8357 -0.8469 -0.5480
  654TIP3   OH223520   6.119   2.047   7.954 -0.3247  0.0221 -0.3544
  654TIP3    H123521   6.177   1.993   7.901  0.8744  0.7706  0.1690
  654TIP3    H223522   6.032   2.033   7.916  0.4176  0.1766 -2.2253
  655TIP3   OH223523   0.130   6.381   8.481  0.2835 -0.4038 -0.2445
  655TIP3    H123524   0.160   6.291   8.472  0.8454 -0.1805 -0.6692
  655TIP3    H223525   0.207   6.429   8.510  0.0482 -0.0192 -0.2513
  656TIP3   OH223526   0.497   5.201   8.230  0.1185 -0.0343  0.1730
  656TIP3    H123527   0.569   5.247   8.274  1.1301 -0.8173 -0.6220
  656TIP3    H223528   0.427   5.199   8.295 -0.1212  2.8785  0.1667
  657TIP3   OH223529   3.222   2.132   1.281  0.2008 -0.1002  0.0137
  657TIP3    H123530   3.214   2.123   1.376 -0.8649  0.8594  0.0402
  657TIP3    H223531   3.288   2.067   1.256  0.1196 -0.7292  1.3370
  658TIP3   OH223532   4.928   3.742   7.209 -0.2850  0.1256  0.6261
  658TIP3    H123533   4.928   3.653   7.244 -0.7161  0.1518  0.6970
  658TIP3    H223534   4.909   3.797   7.285 -0.6957  0.2237  0.4562
  659TIP3   OH223535   0.149   2.699   8.179  0.0330  0.7668  0.0414
  659TIP3    H123536   0.185   2.645   8.249 -0.6418  1.1940  0.7292
  659TIP3    H223537   0.104   2.770   8.224  0.7881  1.8363 -0.8545
  660TIP3   OH223538   3.204   6.132   1.947 -0.4233  0.9382  0.5336
  660TIP3    H123539   3.113   6.155   1.966 -0.1260  1.9660  0.7797
  660TIP3    H223540   3.216   6.046   1.985 -1.0462  1.1760  1.2853
  661TIP3   OH223541   5.693   0.646   2.251  0.5313  0.4598 -0.4519
  661TIP3    H123542   5.730   0.637   2.338  1.8920  1.4235 -0.9038
  661TIP3    H223543   5.638   0.724   2.256  0.1334  0.1802 -0.3257
  662TIP3   OH223544   3.686   6.618   8.668 -0.9592  0.7329  0.0812
  662TIP3    H123545   3.716   6.697   8.713 -0.5456  0.4203  0.3696
  662TIP3    H223546   3.764   6.587   8.622 -1.1670  0.5897 -0.1740
  663TIP3   OH223547   0.086   6.743   7.437  0.0028 -0.4714 -0.1717
  663TIP3    H123548   0.068   6.677   7.504 -0.6756 -0.5176 -0.3918
  663TIP3    H223549   0.115   6.820   7.487 -1.7588 -0.0767  0.3000
  664TIP3   OH223550   4.428   2.041   1.091 -0.3141  0.2321 -0.4949
  664TIP3    H123551   4.381   2.051   1.008  1.1378  0.7889 -1.3090
  664TIP3    H223552   4.361   2.047   1.158 -1.5532 -0.3225 -1.6277
  665TIP3   OH223553   3.305   1.822   0.106 -0.0618 -0.2766  0.9029
  665TIP3    H123554   3.229   1.870   0.138 -1.6009  0.9811 -3.7686
  665TIP3    H223555   3.372   1.890   0.094 -0.0278 -0.4139  0.2544
  666TIP3   OH223556   0.053   3.023   7.182 -0.1403 -0.0746 -0.4477
  666TIP3    H123557   0.010   3.106   7.200 -2.8896 -1.3044 -0.7452
  666TIP3    H223558   0.073   2.987   7.268 -3.2255 -1.0506  0.0223
  667TIP3   OH223559   3.988   3.389   8.442  0.5004  0.6077 -0.1950
  667TIP3    H123560   4.082   3.405   8.436  1.5312 -2.0244  4.3370
  667TIP3    H223561   3.975   3.303   8.402  0.4335  0.1737  0.7149
  668TIP3   OH223562   2.916   5.473   0.801  0.0680  0.0166 -0.0478
  668TIP3    H123563   2.960   5.391   0.779  0.5108 -0.1373  1.2940
  668TIP3    H223564   2.823   5.452   0.799  0.1789 -0.5324  0.2831
  669TIP3   OH223565   2.864   6.046   0.616  0.4957  0.4579  0.2724
  669TIP3    H123566   2.915   6.122   0.643 -0.0250  0.2384  1.9823
  669TIP3    H223567   2.928   5.976   0.609  0.8545  0.8508 -0.5046
  670TIP3   OH223568   5.638   3.617   6.211  0.3562  0.0222 -0.4564
  670TIP3    H123569   5.702   3.683   6.185  1.2984 -0.0422  1.5530
  670TIP3    H223570   5.634   3.622   6.306 -1.3014 -1.2310 -0.4052
  671TIP3   OH223571   6.021   2.483   8.474 -0.4832  0.2003 -0.1198
  671TIP3    H123572   5.942   2.467   8.422  1.3749 -1.2948 -2.6954
  671TIP3    H223573   6.026   2.409   8.534 -0.5023 -0.2706 -0.6916
  672TIP3   OH223574   5.393   4.792   1.551 -0.3941 -0.2789 -0.1027
  672TIP3    H123575   5.411   4.794   1.457  0.6528 -1.1572  0.0536
  672TIP3    H223576   5.311   4.743   1.560 -0.0774 -0.8898 -0.5121
  673TIP3   OH223577   4.589   6.384   7.482 -0.2779  0.4064 -0.0335
  673TIP3    H123578   4.558   6.333   7.408 -1.3732  2.0397 -0.7524
  673TIP3    H223579   4.684   6.388   7.471 -0.3465 -0.1031 -0.8474
  674TIP3   OH223580   2.864   0.222   1.871  0.1519 -0.4679 -0.5651
  674TIP3    H123581   2.919   0.187   1.940  0.5446 -0.2163 -0.7505
  674TIP3    H223582   2.921   0.224   1.794  0.9340  2.9082 -0.0254
  675TIP3   OH223583   4.903   2.019   0.470  0.2635  0.0350  0.3802
  675TIP3    H123584   4.831   1.969   0.508 -0.4147  0.4616 -0.3097
  675TIP3    H223585   4.945   1.958   0.409 -0.4833  0.2539 -0.3664
  676TIP3   OH223586   5.851   2.646   2.154  0.8028  0.2898 -0.1441
  676TIP3    H123587   5.891   2.561   2.174  1.0697  0.5013  0.2421
  676TIP3    H223588   5.786   2.659   2.223  0.7099  0.3674 -0.2455
  677TIP3   OH223589   3.675   5.976   1.998 -0.5431  0.4953 -0.0504
  677TIP3    H123590   3.676   5.910   1.929 -1.2044 -0.3290  0.7055
  677TIP3    H223591   3.768   5.992   2.016 -0.3253  1.5689 -1.8760
  678TIP3   OH223592   2.491   5.714   7.817 -0.2558  0.1981  0.2120
  678TIP3    H123593   2.513   5.629   7.777  1.3198  0.2083  0.9838
  678TIP3    H223594   2.407   5.699   7.860 -1.3483 -0.1937 -1.8948
  679TIP3   OH223595   5.911   6.242   7.373  0.0293 -0.2674 -0.0729
  679TIP3    H123596   5.929   6.320   7.425  0.7154 -0.3120 -0.2427
  679TIP3    H223597   5.816   6.231   7.379 -0.6032  2.5439 -2.8890
  680TIP3   OH223598   0.447   2.241   1.064 -0.4476  0.4190  0.0566
  680TIP3    H123599   0.436   2.314   1.003 -2.8318 -0.3662 -0.5910
  680TIP3    H223600   0.409   2.272   1.146 -1.7123 -0.1173 -0.2947
  681TIP3   OH223601   0.024   0.362   0.908 -0.0753 -0.4596  0.1348
  681TIP3    H123602  -0.048   0.407   0.953 -1.3127 -1.9172 -0.2941
  681TIP3    H223603  -0.019   0.309   0.841  1.3518 -1.8705  0.2680
  682TIP3   OH223604   4.421   2.498   8.304 -0.1805 -0.4358 -0.0364
  682TIP3    H123605   4.363   2.492   8.228  0.7971 -0.1445 -0.8221
  682TIP3    H223606   4.459   2.410   8.312 -0.5229 -0.5554  0.3225
  683TIP3   OH223607   6.256   2.335   7.370 -1.1016  0.1866  0.1147
  683TIP3    H123608   6.335   2.363   7.324  2.4307 -2.0599  4.0506
  683TIP3    H223609   6.233   2.251   7.331  0.0704 -0.3283  0.4837
  684TIP3   OH223610   3.957   0.446   6.383  0.5572  0.2025  0.8565
  684TIP3    H123611   3.960   0.506   6.308 -1.1063  0.6437  1.0870
  684TIP3    H223612   4.027   0.384   6.367  0.5497  0.5729 -0.8304
  685TIP3   OH223613   1.277   2.472   8.647 -0.1686 -0.1492 -0.1465
  685TIP3    H123614   1.237   2.497   8.564 -2.1346 -1.9258  0.1825
  685TIP3    H223615   1.251   2.381   8.661  1.6357 -0.4913  1.5600
  686TIP3   OH223616   1.887   5.128   1.052  0.2736  0.0553  0.3923
  686TIP3    H123617   1.972   5.160   1.023  0.0899 -0.1420 -0.3725
  686TIP3    H223618   1.831   5.206   1.056 -0.1833 -0.1219 -1.5011
  687TIP3   OH223619   0.586   0.468   7.155  0.2730 -0.0319  1.2440
  687TIP3    H123620   0.505   0.462   7.104  0.3015  0.5447  1.1258
  687TIP3    H223621   0.621   0.379   7.154  0.4175  0.0238  0.0172
  688TIP3   OH223622   3.758   2.555   0.571 -0.1933  0.2857  0.2109
  688TIP3    H123623   3.714   2.623   0.622  1.2720  0.1696  1.7060
  688TIP3    H223624   3.687   2.495   0.547 -1.6790  2.7075 -1.9153
  689TIP3   OH223625   4.536   1.255   1.121 -0.4870  0.2680 -0.5355
  689TIP3    H123626   4.553   1.348   1.137  0.8095 -0.0972  0.3573
  689TIP3    H223627   4.575   1.238   1.035  0.3446  0.3058 -0.1781
  690TIP3   OH223628   1.627   5.238   8.600 -0.6656  0.0622 -0.0129
  690TIP3    H123629   1.592   5.190   8.674 -0.1585  1.0898  0.9168
  690TIP3    H223630   1.679   5.174   8.552 -1.7349 -0.8377 -0.0065
  691TIP3   OH223631   6.015   1.983   0.747  0.8619  0.2799  0.1199
  691TIP3    H123632   6.090   1.972   0.688  1.0420 -0.3926  0.4693
  691TIP3    H223633   5.969   2.059   0.712  1.0281 -0.0351 -0.8318
  692TIP3   OH223634   4.531   2.697   7.531 -0.6442 -0.5318  0.0685
  692TIP3    H123635   4.621   2.671   7.514 -1.3879 -1.3076 -3.8422
  692TIP3    H223636   4.486   2.615   7.553 -0.6668 -0.3714  0.6373
  693TIP3   OH223637   4.714   2.990   0.883 -0.3395 -0.4026  0.0534
  693TIP3    H123638   4.746   3.013   0.970  0.2193 -1.8753  0.2711
  693TIP3    H223639   4.661   3.065   0.856 -2.0268 -0.6511  2.4049
  694TIP3   OH223640   2.822   4.367   8.432  0.4295 -0.3418  0.6755
  694TIP3    H123641   2.780   4.306   8.371 -0.1020  0.6618  0.0050
  694TIP3    H223642   2.754   4.387   8.496 -0.0666  1.0772 -0.2571
  695TIP3   OH223643   4.255   5.028   7.610  0.5474 -0.6818 -0.1462
  695TIP3    H123644   4.203   5.030   7.530 -0.0454  2.4720  0.2214
  695TIP3    H223645   4.191   5.018   7.680  0.8931 -1.4644  0.0714
  696TIP3   OH223646   6.332   0.006   1.274  0.6388  0.3154  0.4427
  696TIP3    H123647   6.243  -0.012   1.245  1.0218  1.5973 -1.8310
  696TIP3    H223648   6.322   0.072   1.343 -0.1945 -0.1003  0.7297
  697TIP3   OH223649   0.315   4.571   2.235 -0.3199 -0.0105  0.3099
  697TIP3    H123650   0.220   4.556   2.235 -0.3920  0.4187  0.1971
  697TIP3    H223651   0.325   4.659   2.271 -0.0559  0.4664 -0.8937
  698TIP3   OH223652   2.252   3.523   6.184 -0.3846  0.1428 -0.1917
  698TIP3    H123653   2.260   3.585   6.111  1.0775 -0.1640 -0.3150
  698TIP3    H223654   2.321   3.458   6.168  0.1530  0.2332  1.6021
  699TIP3   OH223655   3.299   0.066   1.012  0.0667  0.0616 -0.8257
  699TIP3    H123656   3.342   0.007   1.075  2.0962  1.0386 -1.2212
  699TIP3    H223657   3.214   0.026   0.997 -0.9258  0.2033  3.2034
  700TIP3   OH223658   0.676   3.418   6.108 -0.2329  0.1343  0.2075
  700TIP3    H123659   0.713   3.380   6.188 -0.7909  0.8139  0.7993
  700TIP3    H223660   0.587   3.386   6.104  0.2933 -1.2979 -1.0908
  701TIP3   OH223661   6.338   1.598   6.894 -0.5969 -0.3278  1.0955
  701TIP3    H123662   6.286   1.624   6.818 -0.6996  0.4396  1.4238
  701TIP3    H223663   6.307   1.655   6.965 -0.1034 -0.6483  1.5756
  702TIP3   OH223664   5.840   4.386   8.021 -0.3242 -0.5195  0.1458
  702TIP3    H123665   5.764   4.332   8.038 -0.9397  0.4130  0.4128
  702TIP3    H223666   5.838   4.453   8.088  1.3759 -1.1178  0.8555
  703TIP3   OH223667   6.008   4.901   8.753 -0.4941 -0.0073  0.5218
  703TIP3    H123668   6.076   4.968   8.752 -0.8633  0.3907 -0.6231
  703TIP3    H223669   6.015   4.859   8.667 -0.7267 -0.9672  0.9586
  704TIP3   OH223670   0.879   3.132   7.019 -0.0327  0.2290  0.1580
  704TIP3    H123671   0.802   3.173   7.058 -1.0955  0.3016 -1.8514
  704TIP3    H223672   0.886   3.173   6.932  1.1499 -1.1448 -0.4412
  705TIP3   OH223673   4.276   3.698   7.029  0.1518 -0.1781  0.3050
  705TIP3    H123674   4.282   3.782   6.985  0.7310  0.0389  0.7922
  705TIP3    H223675   4.366   3.670   7.040 -0.0328 -0.8550  0.1746
  706TIP3   OH223676   4.561   1.525   7.518 -0.1551 -0.3488 -0.3505
  706TIP3    H123677   4.603   1.611   7.518  0.4784 -0.6394  0.5077
  706TIP3    H223678   4.499   1.528   7.445  2.0804 -0.2606 -2.3481
  707TIP3   OH223679   5.709   2.326   8.670 -0.1974  0.3060 -0.0657
  707TIP3    H123680   5.615   2.348   8.674 -0.0309  1.0201  0.1224
  707TIP3    H223681   5.714   2.252   8.610 -0.9544 -0.1314  0.3964
  708TIP3   OH223682   3.591   2.533   6.709  0.3117  0.3058  0.7967
  708TIP3    H123683   3.567   2.598   6.642  0.9059  0.8288  1.0809
  708TIP3    H223684   3.567   2.449   6.670 -1.5212  0.7466  0.8713
  709TIP3   OH223685   6.698   0.932   0.841 -0.0340 -0.4001  0.0722
  709TIP3    H123686   6.734   0.974   0.764  1.1206 -1.4764 -0.0135
  709TIP3    H223687   6.654   0.854   0.808 -2.7775  0.9950  0.1437
  710TIP3   OH223688   6.134   3.657   0.418  0.0507  0.4140  0.4831
  710TIP3    H123689   6.067   3.683   0.481 -1.5273 -1.9307 -0.0958
  710TIP3    H223690   6.089   3.597   0.358  1.9136  1.2016 -1.8639
  711TIP3   OH223691   6.527   4.081   7.317 -0.3654 -0.0863 -0.9742
  711TIP3    H123692   6.447   4.119   7.353  1.7553  1.8629  2.2102
  711TIP3    H223693   6.585   4.156   7.304  2.1585 -1.6734  0.3227
  712TIP3   OH223694   4.289   5.944   8.320  0.0507  0.3793 -0.1613
  712TIP3    H123695   4.378   5.974   8.341  0.0494  0.9001 -0.8532
  712TIP3    H223696   4.246   6.022   8.284 -0.9003  0.3087  0.7681
  713TIP3   OH223697   1.810   5.713   7.637 -0.2960 -0.0778  0.0004
  713TIP3    H123698   1.758   5.632   7.635 -0.8300  0.2531  0.3027
  713TIP3    H223699   1.796   5.749   7.725 -1.0788  0.9906 -0.5371
  714TIP3   OH223700   2.763   3.933   0.005 -0.3235 -0.1582  0.0954
  714TIP3    H123701   2.832   3.882  -0.038 -1.7752 -0.4860 -1.9354
  714TIP3    H223702   2.760   4.015  -0.043 -0.1931  0.5883  1.3106
  715TIP3   OH223703   4.021   5.946   0.882 -0.0590  0.2970 -0.4197
  715TIP3    H123704   4.113   5.921   0.887 -0.0701  0.3410  0.0737
  715TIP3    H223705   4.014   5.996   0.801  0.1405 -0.5583 -0.9716
  716TIP3   OH223706   6.063   0.094   1.676 -0.9958 -0.0272 -0.0579
  716TIP3    H123707   6.072   0.088   1.771 -1.1203 -1.1857 -0.1089
  716TIP3    H223708   5.972   0.069   1.659 -1.0195  0.3336 -0.4693
  717TIP3   OH223709   3.561   4.325   7.682  0.5011 -0.2545 -0.1635
  717TIP3    H123710   3.593   4.404   7.726 -0.5063  0.1360 -0.0912
  717TIP3    H223711   3.580   4.254   7.744  0.0568  0.1479  0.4543
  718TIP3   OH223712   2.944   1.142   0.991 -0.0728 -0.3718 -0.9453
  718TIP3    H123713   2.953   1.237   0.988 -1.3401 -0.2401 -0.7396
  718TIP3    H223714   3.034   1.110   1.000  0.2431  0.8745  0.8235
  719TIP3   OH223715   6.577   6.241   8.265 -0.1284  0.4589 -0.5960
  719TIP3    H123716   6.499   6.256   8.212 -0.3914  0.8893 -0.1059
  719TIP3    H223717   6.650   6.265   8.209 -0.3724  0.4285 -0.9267
  720TIP3   OH223718   0.609   1.070   7.425 -0.0307 -0.2832 -0.1844
  720TIP3    H123719   0.516   1.065   7.448 -0.1820 -0.7182 -0.8337
  720TIP3    H223720   0.613   1.135   7.355  0.1318 -0.3343 -0.2235
  721TIP3   OH223721   2.166   3.429   6.423  0.1063  0.3303  0.4848
  721TIP3    H123722   2.118   3.355   6.387 -2.6805  2.1304  0.1496
  721TIP3    H223723   2.205   3.473   6.347  0.5836 -0.0027  0.5331
  722TIP3   OH223724   3.374   5.704   8.698  1.0700  0.1807  0.4131
  722TIP3    H123725   3.461   5.677   8.670  0.0933 -0.8679 -1.8348
  722TIP3    H223726   3.334   5.624   8.733  0.4476  0.2746 -0.0804
  723TIP3   OH223727   4.660   2.729   0.730 -0.2878 -0.2601  0.2304
  723TIP3    H123728   4.671   2.682   0.812  0.9061  0.6274  0.6073
  723TIP3    H223729   4.698   2.816   0.746  2.8675 -1.0229 -2.1074
  724TIP3   OH223730   5.412   6.669   8.753 -0.2371  0.2355  0.3734
  724TIP3    H123731   5.359   6.595   8.780 -1.0962  0.0580 -1.6259
  724TIP3    H223732   5.450   6.702   8.834 -4.1407  0.9880  2.1339
  725TIP3   OH223733   1.993   5.463   1.144 -0.5726 -0.0588 -0.4832
  725TIP3    H123734   1.991   5.553   1.176  1.0579 -0.6269  1.4278
  725TIP3    H223735   1.903   5.432   1.153 -0.8426  0.9121  0.3309
  726TIP3   OH223736   4.415   6.381   7.219 -0.0122  0.2967  0.1277
  726TIP3    H123737   4.409   6.450   7.154 -1.7706  0.7441  0.7155
  726TIP3    H223738   4.504   6.347   7.210  0.3357  1.5014 -1.3045
  727TIP3   OH223739   0.431   4.947   6.693 -0.4354 -0.0157 -0.0976
  727TIP3    H123740   0.364   5.006   6.659  0.2022  0.7113 -0.1243
  727TIP3    H223741   0.498   5.005   6.728 -0.3506 -0.7464  0.9796
  728TIP3   OH223742   5.342   0.369   7.102  0.0739  0.0468 -0.1215
  728TIP3    H123743   5.426   0.357   7.145 -0.4386 -2.2517  0.3803
  728TIP3    H223744   5.351   0.323   7.018 -0.3738  0.6162 -0.4882
  729TIP3   OH223745   5.650   3.717   1.161  0.0428  0.0462 -0.0084
  729TIP3    H123746   5.585   3.697   1.093  0.8360  1.3143 -1.2162
  729TIP3    H223747   5.697   3.635   1.174 -1.1441 -0.6271  0.1660
  730TIP3   OH223748   1.338   2.901   1.101 -0.2043 -0.1456  0.3780
  730TIP3    H123749   1.315   2.965   1.168  1.0889 -0.3702  1.0755
  730TIP3    H223750   1.434   2.894   1.106 -0.1032 -0.4220 -1.2663
  731TIP3   OH223751   5.503   1.278   6.637 -0.3412 -0.0131 -0.0224
  731TIP3    H123752   5.593   1.277   6.607 -0.6338 -1.3230 -0.9209
  731TIP3    H223753   5.508   1.308   6.728  0.8824  0.8094 -0.3377
  732TIP3   OH223754   4.167   1.588   2.363 -0.0174  0.0488 -0.2683
  732TIP3    H123755   4.247   1.551   2.400 -0.4028 -0.2310  0.3212
  732TIP3    H223756   4.136   1.649   2.430  0.5154  1.3193 -1.1587
  733TIP3   OH223757   1.381   3.446   1.908  0.1655 -0.4548  0.2667
  733TIP3    H123758   1.349   3.524   1.862 -0.4786 -0.8024  0.1274
  733TIP3    H223759   1.477   3.453   1.902  0.1028 -0.5333 -1.1868
  734TIP3   OH223760   6.714   5.379   7.733 -0.2184 -0.0812 -0.1889
  734TIP3    H123761   6.695   5.467   7.701 -1.5377 -0.2731  0.0265
  734TIP3    H223762   6.806   5.383   7.760 -0.9010  1.9814  2.1760
  735TIP3   OH223763   0.138   3.135   6.351 -0.0145  0.0059 -0.0597
  735TIP3    H123764   0.087   3.070   6.303 -0.4874  0.0228  0.4005
  735TIP3    H223765   0.156   3.204   6.287 -1.5639  0.5460  0.0187
  736TIP3   OH223766   3.076   3.894   7.280 -0.8836  0.2886  0.7227
  736TIP3    H123767   3.034   3.952   7.217  0.7631 -0.4588 -1.1715
  736TIP3    H223768   3.036   3.808   7.264 -0.6190  0.1404  0.8448
  737TIP3   OH223769   0.053   2.254   2.121 -0.4599  0.1526  0.2587
  737TIP3    H123770  -0.011   2.227   2.055  0.0290 -1.7473  0.5230
  737TIP3    H223771   0.022   2.215   2.202  0.3951  0.2075  0.6223
  738TIP3   OH223772   3.188   5.241   6.680  0.5969  0.0389  0.2892
  738TIP3    H123773   3.100   5.206   6.696  1.3298 -1.8301  0.5769
  738TIP3    H223774   3.243   5.194   6.743  1.7815  1.2803  0.2051
  739TIP3   OH223775   2.333   4.696   7.867 -0.2437 -0.2003  0.4584
  739TIP3    H123776   2.288   4.643   7.801  0.1610 -0.1965  0.1770
  739TIP3    H223777   2.328   4.785   7.834  2.1728 -0.4806 -0.8826
  740TIP3   OH223778   1.682   2.135   7.965  0.1482  0.1889 -0.0342
  740TIP3    H123779   1.707   2.057   7.915  0.8034  0.1797  0.2928
  740TIP3    H223780   1.764   2.183   7.978 -0.2029  0.8001  0.0030
  741TIP3   OH223781   0.202   0.613   1.559 -0.3370  0.0784  0.0104
  741TIP3    H123782   0.202   0.638   1.467 -0.9800 -1.3389 -0.4024
  741TIP3    H223783   0.242   0.687   1.605  1.0613  0.3322 -1.5293
  742TIP3   OH223784   4.050   4.125   6.412  0.2444 -0.2623 -0.4142
  742TIP3    H123785   4.045   4.034   6.439 -0.8755  0.3770  1.7509
  742TIP3    H223786   4.138   4.153   6.438 -0.0879 -0.2307  0.7190
  743TIP3   OH223787   4.668   6.576   2.227  0.7139 -0.0264 -0.1883
  743TIP3    H123788   4.665   6.484   2.199 -1.1704  0.5272 -2.1465
  743TIP3    H223789   4.714   6.621   2.157  0.8691  0.6535  0.3395
  744TIP3   OH223790   4.317   6.631   1.415 -0.4897  0.4698 -0.3945
  744TIP3    H123791   4.259   6.598   1.346  1.0944 -2.6493 -0.4170
  744TIP3    H223792   4.270   6.613   1.497  0.0907 -1.5624 -0.4419
  745TIP3   OH223793   3.756   4.062   0.726  0.1475 -0.2703  0.1214
  745TIP3    H123794   3.686   4.124   0.710  1.3699  0.5212 -2.7984
  745TIP3    H223795   3.726   3.981   0.684  0.2018 -0.4996  0.5185
  746TIP3   OH223796   2.625   5.443   1.018 -0.0989 -0.1701 -0.7593
  746TIP3    H123797   2.578   5.368   1.054 -0.3692  1.0207  1.5169
  746TIP3    H223798   2.566   5.479   0.953 -1.6370  0.2521  0.8093
  747TIP3   OH223799   1.738   6.640   8.198 -0.5154  0.2979  0.3372
  747TIP3    H123800   1.783   6.724   8.203  0.5952 -0.1316 -1.4509
  747TIP3    H223801   1.788   6.583   8.257  1.2798 -0.1121 -1.4533
  748TIP3   OH223802   3.663   1.411   6.726  0.0745 -0.2668  0.1998
  748TIP3    H123803   3.574   1.448   6.724 -0.1245 -0.6936 -2.1293
  748TIP3    H223804   3.672   1.375   6.814 -1.6742  0.7055  0.8279
  749TIP3   OH223805   0.316   3.177   7.189 -0.3346 -0.1564  0.7825
  749TIP3    H123806   0.320   3.271   7.169  0.3652 -0.3213  0.1068
  749TIP3    H223807   0.254   3.142   7.125  1.5044 -0.5958 -0.8538
  750TIP3   OH223808   1.847   3.935   7.241  0.1675  0.7820  0.0909
  750TIP3    H123809   1.779   3.985   7.286 -0.3599  0.2348 -0.0804
  750TIP3    H223810   1.799   3.877   7.183  0.7900  0.3551 -0.0052
  751TIP3   OH223811   3.550   5.522   7.211 -0.4453 -0.0949 -0.1803
  751TIP3    H123812   3.534   5.616   7.205 -0.2329  0.0096  0.7474
  751TIP3    H223813   3.474   5.482   7.169 -0.0247  0.4900 -1.5712
  752TIP3   OH223814   2.152   2.277   6.701  0.2589  0.0675  0.0627
  752TIP3    H123815   2.239   2.301   6.671  0.5042 -3.4982 -2.8306
  752TIP3    H223816   2.095   2.294   6.627 -0.6808 -1.5374  0.3480
  753TIP3   OH223817   4.887   3.960   8.578  0.0224  0.3471 -0.0905
  753TIP3    H123818   4.913   3.929   8.492 -1.4263 -1.5436  0.0791
  753TIP3    H223819   4.852   4.047   8.563  0.4647  0.3371 -1.2765
  754TIP3   OH223820   0.680   4.178   8.061  0.3728  0.0030 -0.0303
  754TIP3    H123821   0.692   4.124   7.983 -2.7961 -0.6030 -0.2384
  754TIP3    H223822   0.645   4.260   8.028 -0.6529 -0.1232  0.6964
  755TIP3   OH223823   4.081   5.604   8.624 -0.0209  0.5676  0.6617
  755TIP3    H123824   4.171   5.637   8.615 -0.8074  2.4640 -1.1334
  755TIP3    H223825   4.027   5.683   8.620 -1.8836 -0.7198 -0.7710
  756TIP3   OH223826   4.282   6.787   1.962  0.0286  0.3203  0.1442
  756TIP3    H123827   4.202   6.752   2.002  0.6270  0.1228  1.1882
  756TIP3    H223828   4.274   6.882   1.971 -0.5842  0.3643 -0.7372
  757TIP3   OH223829   0.855   5.781   0.360 -0.4978 -0.2876  0.2246
  757TIP3    H123830   0.851   5.834   0.280 -0.7049 -2.7757 -1.5008
  757TIP3    H223831   0.946   5.788   0.388 -0.2733  0.1525 -0.5729
  758TIP3   OH223832   6.147   2.259   1.106 -0.0070  0.0502  0.1525
  758TIP3    H123833   6.121   2.307   1.027  2.3077  0.8666 -0.1924
  758TIP3    H223834   6.183   2.177   1.074 -0.5841 -0.3470  0.5011
  759TIP3   OH223835   5.317   2.849   8.709  0.4013  0.1637  0.5858
  759TIP3    H123836   5.378   2.877   8.777 -2.5905  4.1058  2.0837
  759TIP3    H223837   5.261   2.785   8.753  0.3722  0.3621  0.8386
  760TIP3   OH223838   1.344   4.146   0.134  0.1796  0.3361  0.3961
  760TIP3    H123839   1.347   4.099   0.217  0.5960 -1.8223 -0.7360
  760TIP3    H223840   1.279   4.097   0.083  1.2289  0.4748 -1.1374
  761TIP3   OH223841   3.237   0.260   6.850  0.2719 -0.2351  0.3092
  761TIP3    H123842   3.278   0.340   6.818 -0.0397 -0.8943 -1.9596
  761TIP3    H223843   3.152   0.258   6.805  0.1872 -1.7109  0.4883
  762TIP3   OH223844   6.708   1.580   0.229 -0.5219  0.2789  0.5076
  762TIP3    H123845   6.794   1.556   0.195 -0.4592  1.0436  0.1076
  762TIP3    H223846   6.692   1.518   0.301 -0.3646 -0.9440 -0.4687
  763TIP3   OH223847   5.664   6.499   0.437  0.4530 -0.4459 -0.7309
  763TIP3    H123848   5.580   6.500   0.392 -1.6695  2.3962  2.7123
  763TIP3    H223849   5.714   6.571   0.398  0.2403 -0.5215 -1.1386
  764TIP3   OH223850   2.620   5.857   2.285 -0.4289  0.4014  0.1837
  764TIP3    H123851   2.677   5.796   2.332 -2.8141 -0.6167  1.9974
  764TIP3    H223852   2.648   5.943   2.316  1.5017  0.1361 -0.6737
  765TIP3   OH223853   3.348   1.113   0.718 -0.0941 -0.2639 -0.1058
  765TIP3    H123854   3.431   1.148   0.750 -0.0123 -1.2516  0.8113
  765TIP3    H223855   3.348   1.131   0.625 -0.0828  2.2036  0.3171
  766TIP3   OH223856   4.521   1.347   6.954  0.2806  0.0379  0.2923
  766TIP3    H123857   4.481   1.278   6.901  1.2357 -1.3687  1.2984
  766TIP3    H223858   4.448   1.399   6.986 -0.4808 -0.5604 -0.4332
  767TIP3   OH223859   1.022   3.376   8.295  0.6201 -0.1506  0.0228
  767TIP3    H123860   1.052   3.448   8.351  0.0588 -1.9082  2.7483
  767TIP3    H223861   0.949   3.414   8.245  0.8953  1.4025  0.7487
  768TIP3   OH223862   0.037   3.911   6.796  0.0402 -0.2617  0.1872
  768TIP3    H123863   0.009   3.836   6.744 -0.1147  0.8466 -1.4166
  768TIP3    H223864  -0.023   3.982   6.770 -0.0808  0.3275  1.9548
  769TIP3   OH223865   1.022   3.663   6.198  1.0064 -0.8017 -0.0812
  769TIP3    H123866   1.116   3.649   6.209  0.8913 -1.9312 -0.4382
  769TIP3    H223867   0.988   3.578   6.170 -0.5305 -1.1216  2.4548
  770TIP3   OH223868   1.548   0.489   1.043  0.0518  0.0661  0.3155
  770TIP3    H123869   1.603   0.540   0.983  1.5986  0.8944  2.3105
  770TIP3    H223870   1.517   0.553   1.107 -2.3582 -0.6125 -0.0799
  771TIP3   OH223871   3.418   2.815   1.645  0.5162 -0.3207  0.7468
  771TIP3    H123872   3.408   2.848   1.734  1.0462 -1.3135  1.1891
  771TIP3    H223873   3.376   2.729   1.646  0.3020 -0.2365 -0.0371
  772TIP3   OH223874   5.416   3.197   8.385  0.4001  0.2893  0.4970
  772TIP3    H123875   5.512   3.186   8.383  0.1470 -4.3300  1.8919
  772TIP3    H223876   5.386   3.162   8.301 -0.1029 -1.2474  1.2675
  773TIP3   OH223877   4.548   1.987   8.314 -0.2824  0.0273 -0.0276
  773TIP3    H123878   4.591   1.910   8.352 -0.6008  0.3928  1.1273
  773TIP3    H223879   4.463   1.991   8.358 -0.4888  0.7304 -0.4749
  774TIP3   OH223880   3.363   6.049   7.230  0.0464  0.1287 -0.3866
  774TIP3    H123881   3.445   6.055   7.179 -0.1832  0.4952 -0.7213
  774TIP3    H223882   3.385   5.993   7.304  0.0869 -1.3851 -1.4841
  775TIP3   OH223883   3.304   5.916   1.614 -0.2614  0.4540  0.4050
  775TIP3    H123884   3.317   5.848   1.680 -0.3149 -0.4916 -0.5330
  775TIP3    H223885   3.219   5.955   1.635 -0.2641  0.1738  0.9094
  776TIP3   OH223886   0.592   0.740   7.607 -0.0109  0.2373 -0.3550
  776TIP3    H123887   0.584   0.670   7.543  1.3430  0.0060 -0.2955
  776TIP3    H223888   0.655   0.801   7.569 -0.3625  0.8897  0.0724
  777TIP3   OH223889   2.471   2.077   0.099  0.2754 -0.2842 -0.5779
  777TIP3    H123890   2.513   2.112   0.020 -1.1236  0.2261 -1.1296
  777TIP3    H223891   2.479   1.982   0.090  0.4519 -0.2210 -1.1450
  778TIP3   OH223892   3.973   1.861   7.434 -0.3392  0.1153  0.2276
  778TIP3    H123893   3.916   1.804   7.382 -0.5083  1.9059 -1.7101
  778TIP3    H223894   4.061   1.834   7.411 -0.4176 -0.3035  0.4199
  779TIP3   OH223895   4.001   4.048   1.394  0.8449  0.4864 -0.1309
  779TIP3    H123896   4.042   3.986   1.455  0.2568  0.7190  0.5187
  779TIP3    H223897   3.908   4.032   1.403  0.6683  1.5907  0.1980
  780TIP3   OH223898   5.794   3.656   0.836  0.1969  0.4179 -0.4302
  780TIP3    H123899   5.720   3.699   0.794 -0.8941 -0.8237  0.1752
  780TIP3    H223900   5.870   3.682   0.782 -0.5982  1.9438 -0.8791
  781TIP3   OH223901   5.659   4.573   7.826 -0.3410  0.1575 -0.9893
  781TIP3    H123902   5.748   4.608   7.830 -0.5140  0.5120  0.3023
  781TIP3    H223903   5.665   4.487   7.867 -0.8727  0.8956  0.7720
  782TIP3   OH223904   3.907   4.236   0.566 -0.3485 -0.0060  0.0935
  782TIP3    H123905   3.918   4.323   0.605  2.5831 -0.7558  1.1715
  782TIP3    H223906   3.869   4.183   0.636  0.3207 -0.1963  0.3168
  783TIP3   OH223907   1.150   5.948   0.815 -0.3883 -0.1038  0.0212
  783TIP3    H123908   1.117   6.008   0.749  0.3838  2.3071  1.6791
  783TIP3    H223909   1.205   5.887   0.767  0.1347  1.5562 -1.6028
  784TIP3   OH223910   5.222   5.939   1.811 -0.2581 -0.4750  0.2482
  784TIP3    H123911   5.240   5.851   1.843  0.9403 -0.4215 -0.2197
  784TIP3    H223912   5.289   5.955   1.744 -0.7107  0.6300  0.0253
  785TIP3   OH223913   5.456   0.311   6.859  0.4036  0.7434  0.0081
  785TIP3    H123914   5.537   0.261   6.858 -1.2943 -2.2571 -0.7976
  785TIP3    H223915   5.444   0.340   6.768 -0.0499  0.0175 -0.1720
  786TIP3   OH223916   5.605   5.035   0.239 -0.4423  0.8462  0.5707
  786TIP3    H123917   5.572   5.124   0.228 -2.6767 -0.1256 -1.9137
  786TIP3    H223918   5.662   5.021   0.163 -0.5294 -0.0042  0.6452
  787TIP3   OH223919   0.298   1.836   1.055  0.1270  0.6644 -0.0041
  787TIP3    H123920   0.356   1.813   0.982  0.4469  0.4528  0.3102
  787TIP3    H223921   0.343   1.801   1.132  0.6910  2.4153  0.5238
  788TIP3   OH223922   6.691   1.927   7.341  0.2583 -0.1294  0.1629
  788TIP3    H123923   6.781   1.941   7.369  0.0310  0.8687  0.4252
  788TIP3    H223924   6.637   1.960   7.413 -0.3273 -0.8204  0.0631
  789TIP3   OH223925   6.017   2.646   1.722 -0.4878  0.1585 -0.2448
  789TIP3    H123926   5.993   2.616   1.635 -0.5520 -1.6512  0.3460
  789TIP3    H223927   6.113   2.641   1.724 -0.5639 -3.5073  0.9081
  790TIP3   OH223928   3.196   4.183   8.698  0.2912 -0.4532 -0.3109
  790TIP3    H123929   3.228   4.111   8.643  1.2458  1.1195 -1.9463
  790TIP3    H223930   3.174   4.252   8.635  1.3333  1.4143  1.2740
  791TIP3   OH223931   3.514   4.970   0.310 -0.2023  0.3436  0.3876
  791TIP3    H123932   3.436   4.975   0.254 -0.1083  0.7647  0.2964
  791TIP3    H223933   3.577   5.029   0.270  0.1862 -0.0308  0.4386
  792TIP3   OH223934   4.994   0.775   8.496 -0.5468  0.8895  0.1594
  792TIP3    H123935   4.958   0.737   8.416  2.7582 -0.3687 -0.9270
  792TIP3    H223936   5.028   0.700   8.544  2.2740  1.9930  0.0852
  793TIP3   OH223937   0.309   1.966   0.122 -0.0785 -0.3551  0.1272
  793TIP3    H123938   0.344   2.043   0.167 -0.0064  0.2656 -0.9543
  793TIP3    H223939   0.383   1.906   0.117  0.0534 -0.2187  0.3820
  794TIP3   OH223940   3.499   4.972   7.384  0.0390 -0.0851  0.1866
  794TIP3    H123941   3.472   5.038   7.449  0.0660  0.3616 -0.2504
  794TIP3    H223942   3.443   4.897   7.401 -0.5974  0.3706  0.1214
  795TIP3   OH223943   2.271   2.459   0.607  0.5086  0.1265  0.5460
  795TIP3    H123944   2.295   2.516   0.534  0.7511 -0.4428  0.1767
  795TIP3    H223945   2.240   2.378   0.565  2.8826 -1.1267  1.0581
  796TIP3   OH223946   2.935   1.785   8.404  0.6371  0.3138  0.1364
  796TIP3    H123947   2.936   1.696   8.369 -1.2121  0.7996 -1.2506
  796TIP3    H223948   3.028   1.806   8.417  1.2873 -0.7620 -2.2591
  797TIP3   OH223949   5.201   1.992   1.463  0.4472  0.1592  0.8517
  797TIP3    H123950   5.222   1.907   1.425  1.3907  0.8655 -0.2855
  797TIP3    H223951   5.160   1.972   1.547 -1.5387 -1.4690 -0.4064
  798TIP3   OH223952   0.068   5.793   1.740  0.1896  0.1423 -0.4637
  798TIP3    H123953   0.051   5.881   1.704  2.3737  0.8193  0.0214
  798TIP3    H223954   0.034   5.734   1.673 -2.8215  1.2542 -0.1056
  799TIP3   OH223955   5.340   1.863   7.676  0.8167  0.0787  0.0963
  799TIP3    H123956   5.296   1.900   7.752 -0.2603  0.6247 -0.7651
  799TIP3    H223957   5.345   1.769   7.694  0.4497  0.1821  0.7737
  800TIP3   OH223958   6.183   5.727   0.550  0.5224  0.3158 -0.0240
  800TIP3    H123959   6.188   5.683   0.635 -0.2546 -0.0147 -0.1368
  800TIP3    H223960   6.216   5.662   0.488  2.4001  1.0349  0.1556
  801TIP3   OH223961   5.907   1.545   8.394  0.1886 -0.3337 -0.0470
  801TIP3    H123962   5.943   1.633   8.386  0.8651 -0.4710  1.2264
  801TIP3    H223963   5.923   1.521   8.485  0.1150 -1.8189 -0.4026
  802TIP3   OH223964   6.574   5.618   8.216 -0.0301 -0.2181  0.0102
  802TIP3    H123965   6.537   5.641   8.301  0.1389 -1.1183  0.3324
  802TIP3    H223966   6.569   5.523   8.212  0.4272 -0.2157 -0.7772
  803TIP3   OH223967   3.663   3.989   1.097  0.0387 -0.6128 -0.0398
  803TIP3    H123968   3.657   3.917   1.159  0.6920  0.2166  1.0224
  803TIP3    H223969   3.641   4.067   1.149 -2.9368 -0.2303 -1.6536
  804TIP3   OH223970   2.820   1.582   7.857 -0.1061  0.4837  0.2023
  804TIP3    H123971   2.807   1.574   7.951  0.8863 -0.4086  0.2911
  804TIP3    H223972   2.914   1.572   7.845 -0.1708  0.9839 -0.8557
  805TIP3   OH223973   4.469   2.220   1.642 -0.6148 -0.6077 -0.2781
  805TIP3    H123974   4.449   2.143   1.696 -2.6450 -0.3823 -0.6317
  805TIP3    H223975   4.527   2.186   1.574 -1.1498 -1.7495 -0.1884
  806TIP3   OH223976   1.871   0.510   7.343  0.1590  0.5469 -0.2706
  806TIP3    H123977   1.966   0.522   7.340  0.4284 -1.5201 -1.6749
  806TIP3    H223978   1.836   0.593   7.308  1.5775  0.3201 -2.4350
  807TIP3   OH223979   3.447   2.245   6.871  0.3001 -0.4922  0.3028
  807TIP3    H123980   3.498   2.262   6.792 -0.6980 -1.2647 -0.5432
  807TIP3    H223981   3.511   2.247   6.942  1.7415 -2.4534 -0.8295
  808TIP3   OH223982   2.119   3.949   7.769 -0.3607 -0.1620 -0.3509
  808TIP3    H123983   2.120   4.010   7.695 -1.5479 -0.8062 -0.9271
  808TIP3    H223984   2.075   3.997   7.839 -0.4669 -0.0280 -0.5087
  809TIP3   OH223985   1.915   1.552   6.487  0.0735 -0.0307  0.4927
  809TIP3    H123986   1.936   1.630   6.435 -0.6314 -0.6920 -0.8447
  809TIP3    H223987   1.820   1.544   6.482  0.0468 -0.4141  1.4621
  810TIP3   OH223988   2.853   3.369   2.266  0.1859 -0.3255  0.1682
  810TIP3    H123989   2.891   3.326   2.189 -1.2353 -2.3265  0.4982
  810TIP3    H223990   2.786   3.427   2.230  2.2119  1.8844 -0.2930
  811TIP3   OH223991   3.838   3.442   1.158 -0.3084 -0.0752  0.0039
  811TIP3    H123992   3.817   3.506   1.091  3.3312  0.3019 -0.9547
  811TIP3    H223993   3.844   3.492   1.239  0.2272  0.4021 -0.3255
  812TIP3   OH223994   3.814   0.133   1.251 -0.5735  0.3008  0.1554
  812TIP3    H123995   3.882   0.194   1.224 -1.6371  0.8874 -1.3683
  812TIP3    H223996   3.842   0.102   1.337  3.3693 -2.0597 -1.6607
  813TIP3   OH223997   0.161   4.780   1.431  0.4605 -0.3599  0.1760
  813TIP3    H123998   0.193   4.856   1.383  2.0690 -1.4672 -0.6407
  813TIP3    H223999   0.074   4.804   1.460  1.1073  1.9664  0.3791
  814TIP3   OH224000   1.862   5.495   1.835  0.0305 -0.4751 -0.0849
  814TIP3    H124001   1.945   5.482   1.881 -0.2627 -0.4849  0.4450
  814TIP3    H224002   1.826   5.406   1.825 -0.2907 -0.4073  0.4002
  815TIP3   OH224003   4.288   4.770   1.529  0.2364 -0.3724  0.4718
  815TIP3    H124004   4.368   4.768   1.581 -0.0875 -3.8010  1.0802
  815TIP3    H224005   4.217   4.760   1.593 -0.8342  3.0700 -0.0038
  816TIP3   OH224006   4.602   2.250   0.413 -0.4463  0.5004  0.2810
  816TIP3    H124007   4.555   2.172   0.383 -0.6430  0.2798  1.1429
  816TIP3    H224008   4.690   2.241   0.377 -1.4312  1.7285 -2.7727
  817TIP3   OH224009   0.500   4.513   8.695 -0.0433 -0.0326  0.3965
  817TIP3    H124010   0.502   4.599   8.737 -1.8290  1.6862 -2.7578
  817TIP3    H224011   0.408   4.490   8.691  0.0997 -0.3646 -2.0457
  818TIP3   OH224012   3.947   4.622   0.397  0.2567 -0.3319  0.9149
  818TIP3    H124013   4.037   4.598   0.379 -0.1780 -1.1520 -0.3152
  818TIP3    H224014   3.939   4.712   0.365  0.1670 -0.9024 -0.7191
  819TIP3   OH224015   4.087   2.734   0.342 -0.4487 -0.2174 -0.4838
  819TIP3    H124016   4.175   2.701   0.325  0.0240  0.5575  0.3814
  819TIP3    H224017   4.035   2.701   0.269  0.5983 -0.5078 -1.1257
  820TIP3   OH224018   4.241   0.887   8.424  0.1016  0.3086 -0.4392
  820TIP3    H124019   4.308   0.820   8.437  1.1516  1.6344  1.6702
  820TIP3    H224020   4.158   0.842   8.438  0.7815 -0.6336  0.7471
  821TIP3   OH224021   4.868   3.471   0.115  0.2682 -0.2416  0.1659
  821TIP3    H124022   4.905   3.398   0.066 -2.1346 -0.4500 -1.5215
  821TIP3    H224023   4.944   3.520   0.146  1.9276 -1.8858 -1.0627
  822TIP3   OH224024   5.020   4.809   7.659  0.0395  0.0518 -0.1681
  822TIP3    H124025   5.112   4.828   7.675  0.3947 -1.3817 -0.3727
  822TIP3    H224026   4.980   4.894   7.641  0.8346  0.9933  2.1998
  823TIP3   OH224027   0.671   1.108   0.423 -0.0595  0.2188 -1.1877
  823TIP3    H124028   0.689   1.163   0.500 -0.2352  1.0557 -1.7278
  823TIP3    H224029   0.621   1.035   0.458  1.7841 -0.6210 -0.1353
  824TIP3   OH224030   6.718   5.765   8.028  0.1085 -0.0524 -0.6103
  824TIP3    H124031   6.687   5.766   7.938 -0.7865 -0.3394 -0.3144
  824TIP3    H224032   6.659   5.705   8.073  0.7967 -0.2199  0.0798
  825TIP3   OH224033   1.550   0.803   2.083 -0.3773 -0.0629 -0.9943
  825TIP3    H124034   1.578   0.759   2.003  1.8223 -0.7664  0.0673
  825TIP3    H224035   1.520   0.732   2.140 -0.1800  0.1939 -0.5595
  826TIP3   OH224036   3.472   0.537   7.368 -0.0163  0.5360 -0.5884
  826TIP3    H124037   3.435   0.622   7.394 -0.0521  0.6732 -1.0868
  826TIP3    H224038   3.463   0.483   7.446 -1.8264  0.3800 -0.8783
  827TIP3   OH224039   0.660   5.988   8.354  0.4877 -0.4747  0.1566
  827TIP3    H124040   0.674   5.997   8.448  0.1518  0.7889  0.1075
  827TIP3    H224041   0.716   6.054   8.315 -0.5102  0.0461 -0.4276
  828TIP3   OH224042   6.455   0.684   1.903  0.6605 -0.2078  0.0009
  828TIP3    H124043   6.512   0.705   1.977  0.8992  0.8339 -0.4599
  828TIP3    H224044   6.402   0.763   1.889  1.5643  0.1547 -1.7583
  829TIP3   OH224045   3.223   6.503   7.251  0.0380 -0.2995 -0.4195
  829TIP3    H124046   3.215   6.466   7.163  0.2481  1.6682 -1.3338
  829TIP3    H224047   3.145   6.559   7.259  0.6336  0.4609  0.1590
  830TIP3   OH224048   2.743   3.747   0.556  0.1153 -0.3002 -0.3742
  830TIP3    H124049   2.762   3.807   0.484 -0.3645  0.9979  0.5523
  830TIP3    H224050   2.654   3.716   0.540  0.1197 -0.2525 -0.4888
  831TIP3   OH224051   2.435   4.455   8.339  0.6482  0.0085  0.0371
  831TIP3    H124052   2.480   4.536   8.313  0.1647  0.1698 -0.3032
  831TIP3    H224053   2.483   4.386   8.293  1.5744  0.0140  0.9725
  832TIP3   OH224054   3.416   6.538   8.100  0.0019  0.6520 -0.3689
  832TIP3    H124055   3.410   6.623   8.057  1.3695  1.8018  1.5637
  832TIP3    H224056   3.466   6.554   8.179  2.7853 -2.4853 -1.2527
  833TIP3   OH224057   5.063   3.129   1.051  0.1742  0.1551 -0.4227
  833TIP3    H124058   5.158   3.120   1.049  0.1335 -0.5936  0.4163
  833TIP3    H224059   5.044   3.202   0.992  1.2220 -0.0562 -1.0395
  834TIP3   OH224060   5.888   0.047   2.001  0.2150  0.4974 -0.2635
  834TIP3    H124061   5.978   0.076   1.988  0.3679 -0.0199 -0.3798
  834TIP3    H224062   5.837   0.128   2.004  0.7907  0.8359  0.7436
  835TIP3   OH224063   4.322   0.407   7.627  0.9120  0.4783  0.4866
  835TIP3    H124064   4.399   0.442   7.672  1.0119  1.5551 -0.4636
  835TIP3    H224065   4.352   0.392   7.537  0.6241 -1.3046  0.6584
  836TIP3   OH224066   0.349   1.920   1.898 -0.1456 -0.3868 -0.7071
  836TIP3    H124067   0.327   1.979   1.827  0.7752 -1.9872 -2.4223
  836TIP3    H224068   0.440   1.941   1.920 -0.1201 -0.5463 -0.6587
  837TIP3   OH224069   6.703   2.278   1.335 -0.2417  0.3868  0.2920
  837TIP3    H124070   6.641   2.281   1.262  2.3922  0.7085 -2.1018
  837TIP3    H224071   6.746   2.193   1.325  0.9834  0.9390  0.7274
  838TIP3   OH224072   3.175   1.892   0.656  0.0719 -0.0745  0.1144
  838TIP3    H124073   3.180   1.801   0.688  0.1066 -0.0416  0.2037
  838TIP3    H224074   3.208   1.944   0.729 -0.2344  0.0339  0.1782
  839TIP3   OH224075   0.686   2.872   0.845  0.2275  0.8225  0.1749
  839TIP3    H124076   0.602   2.831   0.865 -0.2313  1.6658  0.0116
  839TIP3    H224077   0.691   2.945   0.907  1.9952 -0.6686  1.9436
  840TIP3   OH224078   3.165   6.306   8.802 -0.2254  0.1493 -0.4857
  840TIP3    H124079   3.165   6.236   8.868 -2.1042 -1.8889 -2.4639
  840TIP3    H224080   3.092   6.363   8.826  0.3976  0.6259  0.3197
  841TIP3   OH224081   3.480   6.274   7.572 -0.3500  0.4960 -0.6661
  841TIP3    H124082   3.419   6.251   7.642 -0.1939 -1.3008 -1.0801
  841TIP3    H224083   3.425   6.312   7.504 -0.5822  1.6953  0.1494
  842TIP3   OH224084   5.401   0.160   0.127  0.0175 -0.3267  0.1491
  842TIP3    H124085   5.439   0.073   0.140  0.3579  0.0080  1.5913
  842TIP3    H224086   5.307   0.144   0.120 -0.0070 -0.7644  1.2538
  843TIP3   OH224087   4.681   4.482   7.676  0.6964  0.1681 -0.1387
  843TIP3    H124088   4.745   4.455   7.611  0.3513 -1.7021  0.2214
  843TIP3    H224089   4.722   4.555   7.722  1.9426 -0.0417 -0.8790
  844TIP3   OH224090   3.150   0.359   7.148  0.1537  1.1750  0.1811
  844TIP3    H124091   3.228   0.392   7.103 -0.3242  1.7966 -0.2112
  844TIP3    H224092   3.146   0.409   7.230 -1.0154  2.7359 -0.7724
  845TIP3   OH224093   3.317   1.866   0.415  0.5714 -0.1862  0.0722
  845TIP3    H124094   3.277   1.930   0.356  0.3839 -0.4942 -0.1363
  845TIP3    H224095   3.249   1.849   0.481  0.0318 -1.3290 -0.7451
  846TIP3   OH224096   3.451   5.806   7.399 -0.0062 -0.0912 -0.3809
  846TIP3    H124097   3.429   5.765   7.483 -0.1861 -0.9726 -0.8497
  846TIP3    H224098   3.383   5.775   7.338 -1.0410  2.0919 -0.4309
  847TIP3   OH224099   6.744   2.538   1.393  0.0277  0.1914  0.2324
  847TIP3    H124100   6.738   2.443   1.381 -1.4541  0.3636 -0.6504
  847TIP3    H224101   6.736   2.550   1.488 -1.5350 -0.4986  0.2260
  848TIP3   OH224102   0.135   4.009   7.586 -0.1833 -0.1561 -0.2601
  848TIP3    H124103   0.221   3.966   7.587  0.7311  1.5711  0.0291
  848TIP3    H224104   0.127   4.048   7.673 -1.6724 -0.9974  0.0115
  849TIP3   OH224105   4.236   4.684   0.395  0.5253  0.3327 -0.0808
  849TIP3    H124106   4.284   4.731   0.463  0.4300  0.1588  0.1106
  849TIP3    H224107   4.258   4.728   0.314  1.0139  0.2487  0.0054
  850TIP3   OH224108   5.678   3.054   0.741  0.0534 -0.1751 -0.0298
  850TIP3    H124109   5.691   3.138   0.786  1.8396 -0.7013  0.5009
  850TIP3    H224110   5.761   3.037   0.696 -0.7002 -1.0917 -1.1287
  851TIP3   OH224111   1.472   4.509   8.025  0.5556  0.3556  0.4173
  851TIP3    H124112   1.508   4.595   8.006 -0.3823  0.7027  0.1278
  851TIP3    H224113   1.378   4.525   8.039  0.4147 -0.5777  0.6172
  852TIP3   OH224114   6.260   3.168   7.366  0.0317  0.1302 -0.3951
  852TIP3    H124115   6.218   3.243   7.407  0.6523 -0.1062  0.7431
  852TIP3    H224116   6.350   3.171   7.397  0.3962 -0.3615 -1.3664
  853TIP3   OH224117   6.054   5.684   0.129  0.7010 -0.7380  0.2343
  853TIP3    H124118   6.084   5.765   0.088 -0.0838 -0.2942  0.5393
  853TIP3    H224119   6.108   5.675   0.207  0.2215 -0.0706  0.6446
  854TIP3   OH224120   0.562   6.730   0.992 -0.0166  0.0817 -0.0714
  854TIP3    H124121   0.621   6.800   1.021 -1.3482  1.2098  0.0378
  854TIP3    H224122   0.552   6.674   1.069 -1.2436  1.4402  0.8123
  855TIP3   OH224123   2.591   1.878   8.224  0.0614 -0.0976 -0.6032
  855TIP3    H124124   2.614   1.941   8.293 -1.6646  0.3484 -0.3733
  855TIP3    H224125   2.675   1.845   8.192  0.9422  0.6470  0.8260
  856TIP3   OH224126   0.148   3.694   0.751  0.3179 -0.0596  0.3240
  856TIP3    H124127   0.171   3.728   0.664  0.3280 -0.0678  0.3236
  856TIP3    H224128   0.055   3.674   0.744  0.3515 -0.2017  0.2682
  857TIP3   OH224129   2.709   4.987   0.076  0.4457 -0.1540  0.1404
  857TIP3    H124130   2.744   4.898   0.077 -0.2930 -0.5273 -2.1082
  857TIP3    H224131   2.630   4.981   0.023  1.1209  2.0892 -1.2537
  858TIP3   OH224132   5.385   3.573   1.342 -0.7264 -0.2498  0.2499
  858TIP3    H124133   5.447   3.642   1.316 -0.3012 -0.1283  1.5170
  858TIP3    H224134   5.299   3.611   1.324 -0.5161  0.8256  1.3441
  859TIP3   OH224135   5.441   2.944   7.908  0.1746 -0.3254  0.5870
  859TIP3    H124136   5.512   2.985   7.858 -0.2006 -0.6763 -0.2500
  859TIP3    H224137   5.429   3.001   7.983  0.4096  0.5015  0.0131
  860TIP3   OH224138   3.476   4.964   1.223 -0.1657  0.0157 -0.3671
  860TIP3    H124139   3.488   5.035   1.160 -1.3325 -0.3087 -0.9809
  860TIP3    H224140   3.382   4.961   1.238 -0.0722 -1.0431  0.0720
  861TIP3   OH224141   2.749   4.257   8.139 -0.4761  0.7501  0.4166
  861TIP3    H124142   2.768   4.341   8.096 -1.3000  0.2874 -0.9285
  861TIP3    H224143   2.675   4.222   8.090 -0.4533 -0.5478  1.2704
  862TIP3   OH224144   5.766   1.397   0.950 -0.2933 -0.0219 -0.0893
  862TIP3    H124145   5.766   1.301   0.955 -0.1298 -0.0654 -0.7956
  862TIP3    H224146   5.820   1.425   1.025  0.2285 -0.5092 -0.2766
  863TIP3   OH224147   5.152   4.273   1.376  0.8403  0.0587  0.5954
  863TIP3    H124148   5.137   4.317   1.459  3.0916 -0.0510  1.1305
  863TIP3    H224149   5.156   4.180   1.398 -0.0993 -0.1112  0.0921
  864TIP3   OH224150   2.607   2.014   8.507  0.7295 -0.3011 -0.1831
  864TIP3    H124151   2.682   1.973   8.551  1.2906  1.1412  0.2831
  864TIP3    H224152   2.558   2.056   8.578 -0.2740 -0.8262 -0.5449
  865TIP3   OH224153   2.788   6.527   1.213 -0.2719 -0.4885  0.1305
  865TIP3    H124154   2.878   6.503   1.232  0.6494  0.6657 -2.3909
  865TIP3    H224155   2.764   6.474   1.137 -1.1262  0.3829 -0.2316
  866TIP3   OH224156   2.152   1.012   1.394  0.1123 -0.2228 -0.1018
  866TIP3    H124157   2.103   1.053   1.466  0.9844  0.9581 -0.1507
  866TIP3    H224158   2.089   0.953   1.353 -0.8754  0.2742  0.6514
  867TIP3   OH224159   4.663   3.475   0.858  0.3721  0.9795  0.7366
  867TIP3    H124160   4.647   3.467   0.952  0.5683  2.0266  0.8632
  867TIP3    H224161   4.637   3.390   0.823 -0.9099  0.9952  1.5672
  868TIP3   OH224162   4.504   6.629   1.696 -0.3481  0.1611 -0.3082
  868TIP3    H124163   4.424   6.682   1.701  0.4348  1.6825 -2.4364
  868TIP3    H224164   4.569   6.680   1.743 -0.2077 -0.2674 -0.0286
  869TIP3   OH224165   6.660   1.765   7.826 -0.0379 -0.0947 -0.4949
  869TIP3    H124166   6.613   1.801   7.751  0.0952  1.2522  0.0310
  869TIP3    H224167   6.592   1.751   7.892  0.2243  1.7749  0.2364
  870TIP3   OH224168   3.799   1.075   8.024 -0.2240 -0.6067  0.5512
  870TIP3    H124169   3.859   1.149   8.015  0.6193 -1.3602 -0.1649
  870TIP3    H224170   3.717   1.106   7.984  0.4183 -0.3943 -0.6332
  871TIP3   OH224171   4.612   6.121   6.545 -0.1788 -0.1875  0.1920
  871TIP3    H124172   4.553   6.140   6.472 -0.0301  2.4264  0.6595
  871TIP3    H224173   4.684   6.073   6.505 -1.1752 -0.8253 -0.9341
  872TIP3   OH224174   3.911   0.801   8.140 -0.0923  0.3201  0.2922
  872TIP3    H124175   3.824   0.840   8.128 -0.5400 -0.5650  0.5706
  872TIP3    H224176   3.946   0.844   8.218 -0.1271  0.9451 -0.0317
  873TIP3   OH224177   0.032   2.751   1.196 -0.0232  0.0893  0.4790
  873TIP3    H124178  -0.025   2.711   1.262  2.2985 -0.9362  1.9553
  873TIP3    H224179   0.034   2.688   1.124  0.0434 -0.3227  0.8442
  874TIP3   OH224180   4.781   1.564   8.536 -0.4116  0.5302  0.0860
  874TIP3    H124181   4.807   1.510   8.611 -0.6857 -0.1519 -0.2956
  874TIP3    H224182   4.821   1.520   8.461 -0.8808  0.6954 -0.2635
  875TIP3   OH224183   2.165   5.231   7.349  0.0350  0.4623 -0.0130
  875TIP3    H124184   2.212   5.186   7.279 -0.8557 -0.8215  0.1735
  875TIP3    H224185   2.168   5.324   7.325  1.0473  0.2077 -0.9414
  876TIP3   OH224186   5.566   0.089   8.590 -1.0883 -0.2885 -0.5188
  876TIP3    H124187   5.572   0.072   8.496 -0.6099  0.0001 -0.5414
  876TIP3    H224188   5.541   0.004   8.627 -1.7283 -0.2985 -0.9477
  877TIP3   OH224189   5.128   1.015   6.997 -0.3246 -0.1919 -1.3107
  877TIP3    H124190   5.220   0.989   7.000  0.5577  2.6932  0.2213
  877TIP3    H224191   5.079   0.936   7.019  1.9538 -1.2037  0.4758
  878TIP3   OH224192   1.869   4.918   1.231 -0.4250 -0.3056  0.5059
  878TIP3    H124193   1.843   4.986   1.169 -0.8203 -0.2189  0.7678
  878TIP3    H224194   1.949   4.953   1.271 -0.9223  0.2596  1.0333
  879TIP3   OH224195   0.960   2.284   7.473  0.6571 -0.2301 -0.0077
  879TIP3    H124196   0.977   2.230   7.551  0.0044  2.0421  1.8373
  879TIP3    H224197   1.028   2.351   7.475 -0.9587  1.4865  0.2506
  880TIP3   OH224198   4.931   0.644   6.804  0.4842 -0.2971 -0.0957
  880TIP3    H124199   4.961   0.557   6.776  1.7612 -0.7519  2.4018
  880TIP3    H224200   4.850   0.626   6.852  0.0470  0.0799 -0.6792
  881TIP3   OH224201   1.589   5.799   0.634  0.1553  0.0322  0.1395
  881TIP3    H124202   1.637   5.878   0.610  1.7274 -0.0851  2.5829
  881TIP3    H224203   1.652   5.728   0.623 -1.7445 -1.3345 -3.8358
  882TIP3   OH224204   0.942   3.392   7.292  0.4412 -0.1492 -0.2646
  882TIP3    H124205   0.977   3.413   7.205  0.8641  0.5168  0.0620
  882TIP3    H224206   0.848   3.381   7.278  0.3653  0.9086 -0.6380
  883TIP3   OH224207   0.993   4.934   8.241 -0.0336 -0.0142 -0.2036
  883TIP3    H124208   0.937   4.896   8.173  0.0916  0.8336 -0.7996
  883TIP3    H224209   1.082   4.911   8.214  0.0119  0.2505 -0.2774
  884TIP3   OH224210   4.104   4.377   0.901 -0.2515  0.1213 -0.1822
  884TIP3    H124211   4.056   4.412   0.826 -0.7062 -0.7324 -0.2994
  884TIP3    H224212   4.037   4.335   0.955  0.2638 -0.4631  0.0111
  885TIP3   OH224213   2.121   2.611   7.603 -0.0607 -0.2169  0.2183
  885TIP3    H124214   2.177   2.630   7.529 -1.5200  0.2401 -0.8247
  885TIP3    H224215   2.075   2.694   7.619 -0.4472 -0.5790  1.0257
  886TIP3   OH224216   0.167   4.033   7.973 -0.3965 -0.5507 -0.0191
  886TIP3    H124217   0.124   4.090   7.909 -0.3936  0.5348  0.9034
  886TIP3    H224218   0.249   4.007   7.931 -0.2277  0.4390 -0.3266
  887TIP3   OH224219   4.330   3.923   6.404  0.1730 -0.3078  0.6025
  887TIP3    H124220   4.306   4.015   6.415 -0.9890 -0.0940 -2.6795
  887TIP3    H224221   4.252   3.875   6.433 -0.3676 -0.0889 -0.4521
  888TIP3   OH224222   4.167   3.430   1.744 -0.1239  0.2705 -0.1934
  888TIP3    H124223   4.198   3.380   1.819 -0.1465  0.3269 -0.1465
  888TIP3    H224224   4.149   3.518   1.779  2.2818  1.0617 -0.7466
  889TIP3   OH224225   0.032   3.282   5.993  0.7944 -0.2710  0.2764
  889TIP3    H124226   0.063   3.311   6.079  2.4844 -0.4801 -0.2135
  889TIP3    H224227  -0.002   3.361   5.952 -0.7530 -0.3129  1.3984
  890TIP3   OH224228   5.970   2.963   0.708  0.1338 -0.5934  0.3196
  890TIP3    H124229   5.968   2.915   0.791  1.4226  0.6834  1.1314
  890TIP3    H224230   6.062   2.982   0.692 -0.2810  1.4760 -0.0112
  891TIP3   OH224231   5.524   0.615   7.012 -0.0492  0.1609  0.0684
  891TIP3    H124232   5.602   0.655   6.973  1.2765  0.2581  2.6027
  891TIP3    H224233   5.556   0.535   7.053 -1.0738  0.6206  1.8646
  892TIP3   OH224234   5.686   0.982   8.563 -0.7461 -0.2035 -0.5990
  892TIP3    H124235   5.708   0.897   8.600  0.6625  0.8129  1.0746
  892TIP3    H224236   5.728   0.982   8.477  0.0797 -0.8599 -0.2129
  893TIP3   OH224237   3.689   2.657   8.328  0.3200  0.8090 -0.1477
  893TIP3    H124238   3.673   2.638   8.236  3.7161 -0.5103 -0.6047
  893TIP3    H224239   3.607   2.635   8.372 -0.8316 -0.2068 -2.6362
  894TIP3   OH224240   1.062   6.791   1.732 -0.7852 -0.1796  0.0301
  894TIP3    H124241   1.054   6.874   1.684 -0.0778 -0.3458 -0.4021
  894TIP3    H224242   0.989   6.791   1.793 -1.0459  0.5667 -0.2684
  895TIP3   OH224243   0.826   4.093   1.279  0.4349 -0.1341  0.7730
  895TIP3    H124244   0.755   4.120   1.221  1.5436  0.1587 -0.4994
  895TIP3    H224245   0.812   4.142   1.359  0.0876  1.1129 -0.0328
  896TIP3   OH224246   1.022   2.090   2.180  0.0645  0.2844 -0.4777
  896TIP3    H124247   0.947   2.052   2.135 -0.0158 -0.7484  0.4903
  896TIP3    H224248   1.067   2.142   2.112 -1.6798  1.2094 -0.9937
  897TIP3   OH224249   2.152   2.033   8.002 -0.7231 -0.6295  0.1983
  897TIP3    H124250   2.178   2.054   7.912 -0.7346 -2.2923 -0.2255
  897TIP3    H224251   2.234   2.029   8.051 -0.7534  0.7607  0.3908
  898TIP3   OH224252   0.349   6.516   7.954 -0.4708  0.5840  0.0807
  898TIP3    H124253   0.353   6.564   8.037 -0.9502  0.2757  0.2960
  898TIP3    H224254   0.353   6.424   7.981  2.4030  0.4779 -0.4492
  899TIP3   OH224255   3.781   4.569   8.781 -0.4938  0.0694 -0.3051
  899TIP3    H124256   3.697   4.522   8.777 -0.1790 -0.4530 -0.9188
  899TIP3    H224257   3.820   4.541   8.864  0.4104 -2.0354 -1.3765
  900TIP3   OH224258   6.158   2.701   0.712 -0.5144 -0.6671  0.0862
  900TIP3    H124259   6.067   2.672   0.708  0.3947 -3.9122  0.2723
  900TIP3    H224260   6.189   2.696   0.622 -0.1814 -0.9315  0.2113
  901TIP3   OH224261   3.805   3.403   1.864  0.0436 -0.1651  0.2204
  901TIP3    H124262   3.875   3.361   1.915 -0.6130 -1.8832 -0.2328
  901TIP3    H224263   3.741   3.431   1.929  1.6588  2.6629  0.7883
  902TIP3   OH224264   1.578   3.346   6.725 -0.3012 -0.9785 -0.3365
  902TIP3    H124265   1.648   3.329   6.662 -1.3752 -1.5025 -1.4297
  902TIP3    H224266   1.563   3.440   6.719  0.7478 -0.7374  0.4167
  903TIP3   OH224267   2.122   4.150   7.554  0.4229 -0.2817 -0.2721
  903TIP3    H124268   2.116   4.166   7.460  1.4014 -0.6163 -0.3941
  903TIP3    H224269   2.112   4.237   7.593 -2.5193 -0.3938 -0.5267
  904TIP3   OH224270   0.225   0.158   1.995 -0.4135  0.0506  0.7445
  904TIP3    H124271   0.299   0.098   1.992  0.2675  0.8982 -0.3639
  904TIP3    H224272   0.150   0.104   2.020 -0.4442 -1.8992 -2.9116
  905TIP3   OH224273   0.423   4.961   0.567  0.3339 -0.1305  0.9055
  905TIP3    H124274   0.463   5.000   0.645 -0.1581  0.9981  0.6107
  905TIP3    H224275   0.330   4.982   0.574  0.4125  0.7937 -0.4379
  906TIP3   OH224276   0.152   6.656   0.906  0.1130  0.0456  0.1929
  906TIP3    H124277   0.214   6.655   0.834  1.1720  1.1261  1.0500
  906TIP3    H224278   0.104   6.738   0.896 -0.9883 -0.6305 -0.2774
  907TIP3   OH224279   0.943   1.932   6.521  0.1072  0.1695  0.1473
  907TIP3    H124280   0.967   1.868   6.589  0.4583  0.6880  0.5218
  907TIP3    H224281   0.931   1.880   6.442  0.1883 -0.3859  0.4983
  908TIP3   OH224282   3.775   1.063   7.075 -0.1159 -0.2639 -0.5605
  908TIP3    H124283   3.844   1.027   7.131 -1.9822 -1.1446  1.3129
  908TIP3    H224284   3.744   0.988   7.025  0.2153  0.1188 -1.3582
  909TIP3   OH224285   1.424   3.065   1.341  0.0038 -0.0048  0.1687
  909TIP3    H124286   1.419   3.160   1.350 -1.0089 -0.1929  2.0427
  909TIP3    H224287   1.517   3.045   1.348  0.1890  0.8216  0.1433
  910TIP3   OH224288   6.363   2.976   0.553  0.0409 -0.3547  0.1612
  910TIP3    H124289   6.370   3.036   0.479 -2.2721  1.1638  1.0318
  910TIP3    H224290   6.315   3.026   0.619 -2.0913 -3.1706  0.9326
  911TIP3   OH224291   3.631   5.578   8.629 -0.0682  0.4082 -0.4308
  911TIP3    H124292   3.676   5.632   8.693  0.5233  0.2303 -0.6951
  911TIP3    H224293   3.619   5.494   8.673  1.6651 -0.2028 -1.0503
  912TIP3   OH224294   4.005   4.754   8.294 -0.0212 -0.3945  0.3283
  912TIP3    H124295   3.969   4.668   8.313  0.1175 -0.0807  2.1852
  912TIP3    H224296   3.950   4.814   8.344  1.4993  0.3409  1.1662
  913TIP3   OH224297   4.609   1.005   8.134 -0.7675 -0.4601  0.2229
  913TIP3    H124298   4.696   1.026   8.167 -0.7456  0.5857 -0.4470
  913TIP3    H224299   4.577   0.936   8.192  0.5219 -0.8906  0.4506
  914TIP3   OH224300   2.724   3.890   1.392  0.4479  0.0572  0.2686
  914TIP3    H124301   2.704   3.945   1.316  0.6449 -1.1754 -0.7042
  914TIP3    H224302   2.686   3.937   1.466 -1.4055  0.3899 -0.8231
  915TIP3   OH224303   4.201   5.999   7.614  0.0286  0.3344  0.0943
  915TIP3    H124304   4.111   6.019   7.640  0.0912  0.1234  0.4829
  915TIP3    H224305   4.232   6.079   7.573 -0.3580  0.3880 -0.1060
  916TIP3   OH224306   5.696   1.193   0.599  0.2255 -0.0036 -0.3020
  916TIP3    H124307   5.748   1.179   0.678  1.2304 -0.9202 -1.0988
  916TIP3    H224308   5.614   1.232   0.631  1.5851  2.0583  0.9190
  917TIP3   OH224309   4.797   0.569   1.817  0.1603 -0.3036  0.0995
  917TIP3    H124310   4.816   0.534   1.905  0.9582  0.3201  0.1798
  917TIP3    H224311   4.703   0.590   1.820  0.2422 -0.0050  0.9124
  918TIP3   OH224312   5.857   1.351   7.280  0.2461 -0.3289  0.0062
  918TIP3    H124313   5.778   1.317   7.238 -0.0450 -2.1080  1.8070
  918TIP3    H224314   5.925   1.287   7.259  0.8276  0.3682 -0.2511
  919TIP3   OH224315   3.534   6.721   0.502  0.1408  0.0823 -0.1664
  919TIP3    H124316   3.559   6.638   0.459  1.1958  1.7372 -3.0805
  919TIP3    H224317   3.618   6.759   0.530 -0.1282  0.9171 -0.4550
  920TIP3   OH224318   1.388   3.465   6.372 -0.5226  0.0090 -0.6749
  920TIP3    H124319   1.378   3.555   6.343 -1.4972 -0.0481 -0.5529
  920TIP3    H224320   1.315   3.418   6.330 -0.2138 -0.6541 -0.4857
  921TIP3   OH224321   6.566   3.982   0.536 -0.1133  0.5113  0.4106
  921TIP3    H124322   6.571   3.954   0.445 -2.6945  0.0264  0.3402
  921TIP3    H224323   6.642   4.040   0.548  1.9726 -1.6923 -1.1667
  922TIP3   OH224324   0.565   6.509   7.274 -0.1378 -0.0626  0.0248
  922TIP3    H124325   0.543   6.440   7.211 -0.9784  0.8590 -0.7368
  922TIP3    H224326   0.526   6.588   7.237 -0.0652  0.6412  1.3818
  923TIP3   OH224327   6.244   5.998   1.608  0.1080  0.1076  0.2848
  923TIP3    H124328   6.301   5.941   1.660 -0.5600 -1.4682 -0.6456
  923TIP3    H224329   6.233   6.076   1.662  2.7674  0.2871  0.7088
  924TIP3   OH224330   3.839   1.430   0.083 -0.0805  0.2365  0.2508
  924TIP3    H124331   3.851   1.337   0.104  1.6296  0.5886  1.0317
  924TIP3    H224332   3.862   1.476   0.164 -2.5681  1.3086  0.4254
  925TIP3   OH224333   1.445   3.741   8.584 -0.1197  0.6020  0.6661
  925TIP3    H124334   1.459   3.664   8.529 -2.5676 -0.0031  0.7825
  925TIP3    H224335   1.431   3.813   8.521  0.2975  0.5903  0.5532
  926TIP3   OH224336   0.465   1.454   7.563 -0.0256  0.1288 -0.6250
  926TIP3    H124337   0.401   1.505   7.613  2.2283  1.7528  0.8074
  926TIP3    H224338   0.518   1.520   7.518  0.7179 -1.1349 -1.6738
  927TIP3   OH224339   4.202   3.085   0.164 -0.4971  0.5049  0.1501
  927TIP3    H124340   4.169   3.172   0.188 -0.8432  0.5596 -0.5110
  927TIP3    H224341   4.226   3.093   0.072  0.2125  0.1135  0.2963
  928TIP3   OH224342   5.336   4.821   0.457  0.2521 -0.1018 -0.0321
  928TIP3    H124343   5.299   4.751   0.404 -0.3379  0.7215 -0.7492
  928TIP3    H224344   5.296   4.809   0.543  1.1417 -1.3881  0.2227
  929TIP3   OH224345   3.476   2.683   7.296 -0.3444  0.2213 -0.2520
  929TIP3    H124346   3.503   2.663   7.385 -1.3191 -0.3513 -0.0642
  929TIP3    H224347   3.519   2.765   7.275  2.2730 -1.0659 -0.3421
  930TIP3   OH224348   3.754   1.164   6.813 -0.3479  0.0088  0.2159
  930TIP3    H124349   3.788   1.161   6.902 -0.0954  1.3775  0.1962
  930TIP3    H224350   3.818   1.118   6.760 -0.5923 -0.9715  0.7591
  931TIP3   OH224351   6.587   3.424   7.238  0.3912  1.1000 -0.1811
  931TIP3    H124352   6.615   3.334   7.218  1.1632  1.2274  0.2556
  931TIP3    H224353   6.642   3.449   7.312 -1.0434  1.3088  0.8552
  932TIP3   OH224354   4.361   2.555   6.916  0.0875  0.7135  0.3251
  932TIP3    H124355   4.318   2.620   6.862  0.7994  1.8076  1.0200
  932TIP3    H224356   4.406   2.606   6.984  0.9011 -0.4834  0.7285
  933TIP3   OH224357   4.118   3.293   0.795  0.3729 -0.1402  0.2812
  933TIP3    H124358   4.149   3.226   0.734  0.4677 -1.2567  1.5136
  933TIP3    H224359   4.172   3.280   0.874  1.7810  2.6618 -0.0873
  934TIP3   OH224360   4.679   1.237   5.961  0.5088 -0.4784  0.7346
  934TIP3    H124361   4.751   1.193   6.007  0.6386 -0.4407  0.5664
  934TIP3    H224362   4.622   1.270   6.031  2.9375  3.5489  1.1073
  935TIP3   OH224363   6.307   3.071   1.627  0.0177  0.0486  0.0537
  935TIP3    H124364   6.358   3.035   1.556 -1.6721 -0.4608 -0.9679
  935TIP3    H224365   6.308   3.003   1.695 -0.0780 -0.3466 -0.3400
  936TIP3   OH224366   5.969   3.936   7.717  0.0168  0.3959 -0.0273
  936TIP3    H124367   6.000   3.846   7.707 -0.6273  0.1210  0.3510
  936TIP3    H224368   6.047   3.990   7.708  0.4297 -0.2120 -0.1309
  937TIP3   OH224369   2.581   2.648   1.108 -0.1716  0.1118  0.7193
  937TIP3    H124370   2.587   2.743   1.096 -2.0884  0.1769 -0.2785
  937TIP3    H224371   2.506   2.622   1.054  1.5256 -2.2877 -0.7062
  938TIP3   OH224372   5.593   0.915   1.341 -0.9277 -0.0657  0.0216
  938TIP3    H124373   5.611   0.963   1.422  0.1490  0.5690 -0.5599
  938TIP3    H224374   5.656   0.843   1.341  0.6898  1.2501 -1.2788
  939TIP3   OH224375   3.095   0.508   6.657 -0.0689 -0.7121 -0.9527
  939TIP3    H124376   3.157   0.498   6.585 -0.6945 -2.9272 -1.2606
  939TIP3    H224377   3.077   0.418   6.686  0.2334  0.0838  2.0551
  940TIP3   OH224378   5.844   3.604   7.955  0.2228 -0.7584  0.1915
  940TIP3    H124379   5.789   3.611   8.033 -0.1114 -0.0505 -0.0949
  940TIP3    H224380   5.800   3.659   7.890  1.5625  0.2688  0.1201
  941TIP3   OH224381   0.978   5.948   0.055 -0.4219  0.6088 -0.5991
  941TIP3    H124382   0.993   5.957  -0.039  0.3801  1.8709 -0.3786
  941TIP3    H224383   1.053   5.897   0.086 -0.9026 -0.1683 -0.6944
  942TIP3   OH224384   3.118   2.630   8.777 -0.9978 -0.2093  0.4976
  942TIP3    H124385   3.103   2.594   8.690  0.8577 -3.4974  1.3516
  942TIP3    H224386   3.199   2.681   8.768 -0.4219 -1.1159  0.3748
  943TIP3   OH224387   2.213   6.005   7.832 -0.2999  0.2553  0.4333
  943TIP3    H124388   2.251   5.967   7.911 -2.2546 -0.2647  1.1946
  943TIP3    H224389   2.120   5.982   7.837 -0.4558  0.0447 -2.1232
  944TIP3   OH224390   4.475   0.785   7.480  0.6190  0.7190  0.2662
  944TIP3    H124391   4.504   0.778   7.570  0.5614 -0.0791  0.2268
  944TIP3    H224392   4.555   0.781   7.428  0.5067 -1.1046  0.1773
  945TIP3   OH224393   6.792   6.641   8.561 -0.4451 -0.1856  0.2682
  945TIP3    H124394   6.729   6.635   8.633  1.0791 -2.0013  1.5166
  945TIP3    H224395   6.792   6.554   8.521  1.7019 -0.4556  0.7252
  946TIP3   OH224396   3.127   2.063   7.385  1.0133  0.1491  0.1781
  946TIP3    H124397   3.200   2.095   7.438  3.4326 -0.7847 -2.3142
  946TIP3    H224398   3.127   1.968   7.398 -0.7689  0.2455  1.2266
  947TIP3   OH224399   0.308   5.338   7.486  0.1576 -0.2848 -0.2693
  947TIP3    H124400   0.329   5.293   7.404  1.1814  1.5273 -1.0603
  947TIP3    H224401   0.232   5.393   7.464  0.1266 -0.1663  0.1315
  948TIP3   OH224402   2.674   3.467   7.084  0.0943  0.1933  0.1544
  948TIP3    H124403   2.641   3.448   6.996 -0.2994 -1.3779  0.6191
  948TIP3    H224404   2.645   3.557   7.100  1.4825  1.0878 -1.8891
  949TIP3   OH224405   1.784   0.108   1.788  0.4221 -0.3072 -0.2358
  949TIP3    H124406   1.773   0.021   1.826 -1.6984  0.4351  0.9999
  949TIP3    H224407   1.732   0.166   1.844  0.2302  1.4531 -2.1103
  950TIP3   OH224408   4.344   0.849   1.413  0.4988  0.2819  0.6386
  950TIP3    H124409   4.355   0.885   1.501  2.3523 -0.0007  0.5487
  950TIP3    H224410   4.308   0.922   1.362 -0.1445  0.5864  1.5049
  951TIP3   OH224411   6.587   2.495   8.196 -0.6727  0.0713 -0.6023
  951TIP3    H124412   6.609   2.522   8.285 -3.4239 -0.7314  0.4384
  951TIP3    H224413   6.587   2.400   8.199  2.7686 -0.1556 -2.5574
  952TIP3   OH224414   4.724   6.180   7.638 -0.4882  0.5667  0.1016
  952TIP3    H124415   4.809   6.180   7.683 -1.1011  0.3316  1.2796
  952TIP3    H224416   4.744   6.216   7.551  0.9556 -0.2138  0.0759
  953TIP3   OH224417   5.278   2.656   0.034  0.5384 -0.4590 -0.1652
  953TIP3    H124418   5.183   2.641   0.035  0.4080  0.2172 -1.2789
  953TIP3    H224419   5.301   2.665   0.127 -0.4760 -0.6382  0.1212
  954TIP3   OH224420   1.869   2.046   0.234 -0.0690 -0.3085  0.7886
  954TIP3    H124421   1.911   2.075   0.153 -0.8379 -0.7193  0.2377
  954TIP3    H224422   1.777   2.069   0.223 -0.1075  0.0181  1.7330
  955TIP3   OH224423   1.080   3.451   0.719  0.2055  0.0099  0.3478
  955TIP3    H124424   1.028   3.414   0.648  0.9461 -0.2376 -0.0814
  955TIP3    H224425   1.016   3.484   0.782 -0.5816  2.4209 -1.5190
  956TIP3   OH224426   0.772   5.671   8.148  0.1989  0.1710  0.2069
  956TIP3    H124427   0.723   5.727   8.208 -0.1123  0.2425 -0.1120
  956TIP3    H224428   0.731   5.685   8.063  0.9318  0.4221 -0.1139
  957TIP3   OH224429   2.251   3.051   7.138  0.2099  0.5065 -0.3294
  957TIP3    H124430   2.179   3.055   7.200  0.8662  0.1843  0.4642
  957TIP3    H224431   2.283   3.141   7.132  0.0146  0.5740 -0.3651
  958TIP3   OH224432   6.530   4.458   1.203  0.2251 -0.2656 -0.3488
  958TIP3    H124433   6.446   4.412   1.207 -0.3226  0.7493  0.1821
  958TIP3    H224434   6.508   4.550   1.218  1.4391  0.0097 -0.1455
  959TIP3   OH224435   5.269   6.273   1.714 -0.1458  0.5013 -0.2512
  959TIP3    H124436   5.340   6.319   1.759 -0.3089  0.5140 -0.0060
  959TIP3    H224437   5.296   6.181   1.715 -0.6786  0.3388  0.8853
  960TIP3   OH224438   0.359   5.689   8.213 -0.4654 -0.0701 -0.4436
  960TIP3    H124439   0.325   5.773   8.242 -1.0940  0.0508 -1.5000
  960TIP3    H224440   0.395   5.649   8.293  1.9866  2.1546 -0.2888
  961TIP3   OH224441   4.257   2.322   6.497 -0.5676 -0.0251  0.8499
  961TIP3    H124442   4.314   2.362   6.563  0.6786  1.6522 -1.1148
  961TIP3    H224443   4.317   2.284   6.433 -1.7026 -0.1859 -0.1590
  962TIP3   OH224444   3.394   0.157   7.310 -0.3553  0.1397  0.1045
  962TIP3    H124445   3.302   0.183   7.298 -0.2799  1.1857  1.5799
  962TIP3    H224446   3.422   0.204   7.388  1.2021 -0.8448  0.1676
  963TIP3   OH224447   3.692   3.197   2.182  0.5185  0.1029  0.2989
  963TIP3    H124448   3.775   3.185   2.228  0.5070  1.5885  0.7416
  963TIP3    H224449   3.679   3.291   2.179 -0.5984 -0.0639 -0.7902
  964TIP3   OH224450   2.507   3.853   6.128  0.0288 -0.2361  0.7400
  964TIP3    H124451   2.587   3.807   6.152  0.7576  0.8522  0.4525
  964TIP3    H224452   2.501   3.924   6.191 -1.2876 -0.9101  1.4154
  965TIP3   OH224453   3.149   4.794   6.828 -0.1495 -0.3469  0.1233
  965TIP3    H124454   3.076   4.819   6.885 -0.8489  3.7896 -2.2397
  965TIP3    H224455   3.111   4.732   6.766 -1.1035  0.1090  0.2318
  966TIP3   OH224456   2.971   0.914   1.358  0.2632  0.5833 -0.4106
  966TIP3    H124457   3.043   0.963   1.319  0.4822 -0.0935 -0.8764
  966TIP3    H224458   2.896   0.930   1.300  0.2799  0.5288 -0.4466
  967TIP3   OH224459   6.084   1.011   0.695  0.1664  0.9587 -0.0628
  967TIP3    H124460   6.136   1.020   0.615 -1.3378 -0.5855 -1.2944
  967TIP3    H224461   6.128   0.941   0.744 -1.0928 -0.9301 -1.4902
  968TIP3   OH224462   1.484   3.586   0.542 -0.3498  0.1743  0.0286
  968TIP3    H124463   1.443   3.557   0.461 -1.1191  1.5730 -0.1145
  968TIP3    H224464   1.412   3.592   0.605  0.1231 -0.2147  0.6131
  969TIP3   OH224465   6.353   3.388   6.622 -0.5210 -0.1128 -0.1368
  969TIP3    H124466   6.275   3.419   6.668  0.4273  1.1665  0.6597
  969TIP3    H224467   6.320   3.319   6.564 -2.2951  0.6319 -0.0838
  970TIP3   OH224468   5.121   5.837   8.852 -0.2966  0.2999  0.0780
  970TIP3    H124469   5.121   5.840   8.756  1.0034  0.3356  0.0581
  970TIP3    H224470   5.169   5.757   8.873  0.9805  1.1821  0.6821
  971TIP3   OH224471   1.163   0.809   8.074 -0.6320  0.3915 -0.7094
  971TIP3    H124472   1.111   0.842   8.001 -0.0442 -1.3540 -1.9864
  971TIP3    H224473   1.253   0.837   8.055 -0.3747 -0.5984 -1.0153
  972TIP3   OH224474   0.906   3.395   7.628 -0.2485 -0.3439  0.3516
  972TIP3    H124475   0.970   3.403   7.557  0.9684  1.6611  1.5932
  972TIP3    H224476   0.824   3.374   7.583  0.7815 -0.7542 -1.4816
  973TIP3   OH224477   5.203   2.798   7.789 -0.1895 -0.0100  0.4525
  973TIP3    H124478   5.268   2.862   7.818 -0.5381  0.6677 -0.2306
  973TIP3    H224479   5.123   2.821   7.838 -0.8846  1.3693 -1.2373
  974TIP3   OH224480   5.483   2.385   7.926  0.3093  0.0366 -0.1861
  974TIP3    H124481   5.456   2.476   7.922  0.7931  0.1602 -1.0933
  974TIP3    H224482   5.471   2.353   7.836 -0.7379 -1.0594  0.3222
  975TIP3   OH224483   0.570   1.241   6.758 -0.3078  0.2526  0.8526
  975TIP3    H124484   0.501   1.306   6.755 -0.8878 -0.2315  2.5315
  975TIP3    H224485   0.580   1.221   6.851 -1.0514 -2.9730  0.3671
  976TIP3   OH224486   2.203   1.534   8.598  0.8287  0.0181  0.3212
  976TIP3    H124487   2.229   1.483   8.521  0.7369  0.1052  0.2313
  976TIP3    H224488   2.275   1.595   8.611  0.2896  0.8512 -0.4578
  977TIP3   OH224489   6.071   2.605   0.451 -0.0164 -0.0197 -0.0241
  977TIP3    H124490   6.162   2.576   0.443  0.2026  0.4555  0.6652
  977TIP3    H224491   6.023   2.525   0.474  0.3274 -0.1619  0.2127
  978TIP3   OH224492   0.080   1.354   0.308  0.6511 -0.5453 -0.1373
  978TIP3    H124493   0.152   1.381   0.365  0.5563  0.8634 -0.6370
  978TIP3    H224494   0.116   1.364   0.219  0.0934 -0.5547 -0.3667
  979TIP3   OH224495   3.848   3.701   0.529  0.6010 -0.2061  0.4543
  979TIP3    H124496   3.821   3.793   0.532  0.1404 -0.2214 -1.7007
  979TIP3    H224497   3.943   3.703   0.524  0.6174  0.1329  0.8997
  980TIP3   OH224498   5.494   4.824   8.830  0.4078  0.5578  0.4815
  980TIP3    H124499   5.416   4.836   8.775 -0.1185  1.1262  1.3223
  980TIP3    H224500   5.556   4.889   8.798  1.0929 -0.8115 -1.1068
  981TIP3   OH224501   0.358   6.768   1.374 -0.0549  0.4662 -1.0281
  981TIP3    H124502   0.321   6.746   1.288  0.2851  1.9296 -1.5772
  981TIP3    H224503   0.403   6.852   1.360 -1.2805  1.5221  0.9203
  982TIP3   OH224504   2.758   6.048   8.311  0.5939 -0.5772  0.1885
  982TIP3    H124505   2.711   5.978   8.265 -1.1884  1.1555 -0.7790
  982TIP3    H224506   2.819   6.082   8.246  0.2124 -0.0888  0.0858
  983TIP3   OH224507   2.153   4.496   0.416  0.1795  0.3738 -0.5065
  983TIP3    H124508   2.104   4.573   0.386 -1.6913 -0.5118  0.0645
  983TIP3    H224509   2.129   4.427   0.355 -1.8400 -0.8571  1.4945
  984TIP3   OH224510   3.843   2.759   1.007 -0.1810 -0.2233 -0.5209
  984TIP3    H124511   3.927   2.761   1.052  0.4674 -0.2938 -1.6956
  984TIP3    H224512   3.828   2.850   0.979 -0.1306 -0.3518 -0.9692
  985TIP3   OH224513   5.518   6.434   7.526 -0.6836  0.8182  0.2309
  985TIP3    H124514   5.465   6.475   7.595 -0.3179  0.6241  0.6292
  985TIP3    H224515   5.571   6.505   7.491 -0.5026  0.8132  0.4959
  986TIP3   OH224516   2.641   2.684   0.485  0.1636 -0.0415  0.1820
  986TIP3    H124517   2.582   2.682   0.409  0.2259  3.1226 -0.0916
  986TIP3    H224518   2.584   2.709   0.558  0.9326  2.3856  0.0424
  987TIP3   OH224519   5.230   5.106   6.759  0.3428 -0.4190 -0.2013
  987TIP3    H124520   5.252   5.181   6.703 -0.1551 -2.0405 -2.6968
  987TIP3    H224521   5.164   5.141   6.819  0.4351  1.2585 -1.0083
  988TIP3   OH224522   6.561   2.084   7.170  0.2828 -0.2362  0.1587
  988TIP3    H124523   6.607   2.051   7.247 -0.2411  0.1575  0.6485
  988TIP3    H224524   6.506   2.011   7.142 -0.3992 -0.0100  0.8610
  989TIP3   OH224525   1.040   5.650   8.108 -0.0812 -0.2366  0.2353
  989TIP3    H124526   1.069   5.567   8.145  0.2419  0.6132  2.0056
  989TIP3    H224527   0.944   5.643   8.107 -0.0367 -1.1324 -0.9730
  990TIP3   OH224528   5.413   3.501   8.184 -0.2078  0.0907  0.2977
  990TIP3    H124529   5.499   3.510   8.142 -0.6335  0.7072 -0.4731
  990TIP3    H224530   5.431   3.495   8.277  0.7880 -1.3959  0.0445
  991TIP3   OH224531   2.264   3.538   7.439  0.0430 -0.0646  0.0465
  991TIP3    H124532   2.345   3.514   7.395 -0.1870 -0.8865  0.0393
  991TIP3    H224533   2.263   3.483   7.518 -1.0329 -0.9119 -0.5259
  992TIP3   OH224534   5.289   0.375   7.771 -0.8627  0.3837  0.3677
  992TIP3    H124535   5.342   0.298   7.794 -1.6844 -1.5915 -3.4055
  992TIP3    H224536   5.214   0.339   7.725 -0.8877  3.4401 -2.3474
  993TIP3   OH224537   5.191   2.530   7.728  0.3282 -0.0122 -0.3503
  993TIP3    H124538   5.097   2.521   7.742  0.4227 -0.7192 -0.1086
  993TIP3    H224539   5.210   2.621   7.752 -0.2185  0.0009  0.0638
  994TIP3   OH224540   1.236   2.978   8.651  0.3940 -1.4045  0.4601
  994TIP3    H124541   1.147   2.943   8.664 -0.3095  1.0856  3.8449
  994TIP3    H224542   1.222   3.068   8.624  1.8687 -0.8522  1.4280
  995TIP3   OH224543   4.253   1.427   1.462  0.1925 -0.4770 -0.1479
  995TIP3    H124544   4.236   1.399   1.372 -0.9876 -2.1794  0.5550
  995TIP3    H224545   4.268   1.345   1.510 -1.2982  0.2074  1.6047
  996TIP3   OH224546   0.874   0.470   1.618  0.0327  0.4189  0.3252
  996TIP3    H124547   0.859   0.478   1.524 -0.1154  0.5080  0.3550
  996TIP3    H224548   0.851   0.557   1.652 -1.4370 -0.0786  0.6446
  997TIP3   OH224549   0.202   3.870   0.067  0.7874 -0.0502 -0.2526
  997TIP3    H124550   0.171   3.800   0.008  0.4337 -1.3534  1.3858
  997TIP3    H224551   0.130   3.881   0.129  1.3746  0.8824  0.2703
  998TIP3   OH224552   0.830   0.668   2.069 -0.5923 -0.7136 -0.0511
  998TIP3    H124553   0.781   0.586   2.062 -0.3687 -0.7672 -1.1385
  998TIP3    H224554   0.922   0.640   2.072 -0.5694 -0.5645  1.0277
  999TIP3   OH224555   2.290   5.562   0.491  0.0773  0.0902  0.4361
  999TIP3    H124556   2.324   5.473   0.487 -0.0891  0.0591 -1.1040
  999TIP3    H224557   2.366   5.616   0.514  1.0275 -0.0937 -1.9841
 1000TIP3   OH224558   5.850   5.989   7.626  0.0256 -0.1012 -0.3370
 1000TIP3    H124559   5.817   5.915   7.678  0.3556  0.6719  1.0342
 1000TIP3    H224560   5.862   6.059   7.690 -1.0623  1.4226 -1.7293
 1001TIP3   OH224561   6.051   0.359   7.991  0.2857  0.1256 -0.2294
 1001TIP3    H124562   5.966   0.390   7.961  0.1067 -2.7492 -3.2492
 1001TIP3    H224563   6.112   0.428   7.966 -0.7977  0.9373 -0.6930
 1002TIP3   OH224564   3.516   6.537   0.868  0.1003 -0.3083  0.0427
 1002TIP3    H124565   3.462   6.495   0.935 -1.3009  0.6807 -0.4112
 1002TIP3    H224566   3.555   6.612   0.913  0.5404 -0.6231  0.1891
 1003TIP3   OH224567   4.297   1.342   0.718 -0.1155 -0.0731  0.0374
 1003TIP3    H124568   4.315   1.291   0.639 -0.8325 -1.4224  0.7114
 1003TIP3    H224569   4.295   1.277   0.788 -1.0747  0.8784  0.9190
 1004TIP3   OH224570   3.315   1.474   6.725 -0.2671 -0.8133  0.5516
 1004TIP3    H124571   3.256   1.403   6.700  1.6678 -3.3086  2.5313
 1004TIP3    H224572   3.299   1.487   6.818 -0.8617  1.7776  0.1654
 1005TIP3   OH224573   0.987   1.209   0.590  0.2341 -0.4235  0.1780
 1005TIP3    H124574   0.965   1.286   0.537  0.0749  0.0167  0.8591
 1005TIP3    H224575   0.911   1.197   0.647 -0.3982 -2.0301 -0.9574
 1006TIP3   OH224576   4.511   4.951   7.103  0.0923 -0.2156 -0.2070
 1006TIP3    H124577   4.483   4.869   7.144 -1.4965  0.1493 -0.5011
 1006TIP3    H224578   4.564   4.995   7.170  0.7762 -1.3563  0.0335
 1007TIP3   OH224579   5.790   6.677   0.097 -0.0706 -0.4801  0.0946
 1007TIP3    H124580   5.868   6.664   0.151 -0.0021  2.2097  0.7601
 1007TIP3    H224581   5.824   6.692   0.009  0.1845  0.6234  0.3713
 1008TIP3   OH224582   5.839   6.763   7.734 -0.7566 -0.1737 -0.5698
 1008TIP3    H124583   5.804   6.836   7.684 -2.6945  0.1473  1.1013
 1008TIP3    H224584   5.916   6.799   7.779  0.0460 -0.0386 -1.9810
 1009TIP3   OH224585   6.663   0.166   7.238  0.2957 -0.6280 -0.4890
 1009TIP3    H124586   6.672   0.205   7.150 -2.7277  0.3129 -0.5057
 1009TIP3    H224587   6.645   0.074   7.221 -2.3937 -0.0721 -1.0779
 1010TIP3   OH224588   5.459   2.002   1.066 -0.0257 -0.2041 -0.4721
 1010TIP3    H124589   5.400   1.967   1.133  0.0002 -0.1352 -0.4128
 1010TIP3    H224590   5.402   2.052   1.008 -0.0875 -0.4684 -0.6454
 1011TIP3   OH224591   2.427   5.639   6.548 -0.0715  0.1202  0.7545
 1011TIP3    H124592   2.388   5.717   6.511  0.0130 -0.9622 -1.8640
 1011TIP3    H224593   2.514   5.634   6.507  0.2570 -0.8968  1.5255
 1012TIP3   OH224594   2.617   6.323   7.842  0.4795  0.1095  0.5798
 1012TIP3    H124595   2.631   6.231   7.866  2.5439 -0.5879 -2.6779
 1012TIP3    H224596   2.529   6.324   7.804  0.9399 -0.9225 -0.6254
 1013TIP3   OH224597   3.899   3.526   7.999  0.4790  0.1846 -0.1867
 1013TIP3    H124598   3.829   3.489   8.052 -0.9696  0.8277 -1.5532
 1013TIP3    H224599   3.955   3.452   7.977  0.9253 -0.1511  1.8803
 1014TIP3   OH224600   0.935   6.118   8.605  0.0868  0.3469  0.2701
 1014TIP3    H124601   0.844   6.088   8.604  0.1668  0.0515  1.2505
 1014TIP3    H224602   0.984   6.049   8.559 -0.3462  1.1156 -1.4120
 1015TIP3   OH224603   0.417   1.232   0.295 -0.5623  0.1000  0.4396
 1015TIP3    H124604   0.364   1.250   0.372 -1.3433  0.5891 -0.1918
 1015TIP3    H224605   0.507   1.224   0.329 -1.2810 -3.5887  1.9401
 1016TIP3   OH224606   3.268   1.395   1.543 -0.3694  0.0335  0.0354
 1016TIP3    H124607   3.182   1.428   1.520  0.3529  2.6449  0.7634
 1016TIP3    H224608   3.251   1.321   1.601 -2.1153  0.2207 -0.1910
 1017TIP3   OH224609   6.483   1.872   0.450 -0.1645 -0.2130 -0.4036
 1017TIP3    H124610   6.568   1.830   0.462  0.0369  0.5258  1.0459
 1017TIP3    H224611   6.503   1.954   0.403 -0.1755 -0.3688 -0.6822
 1018TIP3   OH224612   3.993   1.583   7.838  0.3176  0.1745  0.5168
 1018TIP3    H124613   4.013   1.587   7.744 -1.1248  0.9756  0.2225
 1018TIP3    H224614   3.921   1.644   7.850  1.1853  0.9093  2.3645
 1019TIP3   OH224615   0.857   2.584   7.340  0.2676 -0.1458 -0.7997
 1019TIP3    H124616   0.947   2.573   7.309  1.0223 -0.5638  1.3761
 1019TIP3    H224617   0.828   2.667   7.302  0.4571 -1.3916 -3.9458
 1020TIP3   OH224618   5.750   6.407   1.524  0.2013  0.0225  0.0378
 1020TIP3    H124619   5.707   6.376   1.604 -0.6279 -1.6400 -0.9876
 1020TIP3    H224620   5.837   6.368   1.527  1.0797  1.9387  1.2508
 1021TIP3   OH224621   1.242   0.449   8.369  0.0666 -0.2829  0.8082
 1021TIP3    H124622   1.289   0.367   8.353 -1.4666 -0.8108 -1.6667
 1021TIP3    H224623   1.176   0.453   8.299 -1.5831  1.8559  2.3163
 1022TIP3   OH224624   5.821   0.144   7.138  0.0002  0.2213  0.0528
 1022TIP3    H124625   5.797   0.106   7.054  2.1787 -1.1989 -0.0109
 1022TIP3    H224626   5.850   0.070   7.191  0.6570  1.3241  1.3149
 1023TIP3   OH224627   1.388   2.841   0.414 -0.0849 -0.0691 -0.0699
 1023TIP3    H124628   1.354   2.753   0.430  0.3327 -0.0293  1.2404
 1023TIP3    H224629   1.403   2.877   0.502 -0.1767  1.2840 -0.5807
 1024TIP3   OH224630   1.557   4.244   6.329 -0.7941 -0.2412  0.4635
 1024TIP3    H124631   1.536   4.336   6.311 -2.3870 -0.7904 -0.6250
 1024TIP3    H224632   1.614   4.248   6.406 -0.4016  1.6821  0.1418
 1025TIP3   OH224633   2.840   0.484   1.975 -0.1106 -0.3905  0.2321
 1025TIP3    H124634   2.903   0.497   2.047  1.1903 -0.0134 -0.9210
 1025TIP3    H224635   2.877   0.412   1.924 -1.2670 -0.9639  0.1834
 1026TIP3   OH224636   1.695   2.311   6.306  0.4720 -0.0802 -0.5787
 1026TIP3    H124637   1.645   2.259   6.242  0.3169 -1.1551  0.3718
 1026TIP3    H224638   1.785   2.281   6.295  0.2888 -1.0755  0.4143
 1027TIP3   OH224639   4.290   2.783   1.101 -0.1144 -0.0550  0.5766
 1027TIP3    H124640   4.245   2.719   1.046 -1.5198  2.0235 -0.8284
 1027TIP3    H224641   4.243   2.865   1.086  0.7690  1.0687  3.3180
 1028TIP3   OH224642   2.139   1.422   6.588 -0.2620  0.0372 -0.0314
 1028TIP3    H124643   2.212   1.481   6.568 -1.0862  0.3692 -2.3754
 1028TIP3    H224644   2.063   1.462   6.545 -1.1525 -1.9633 -0.4428
 1029TIP3   OH224645   5.013   2.597   0.097  0.2417  0.3152  0.3447
 1029TIP3    H124646   5.015   2.574   0.190 -0.8828 -0.0223  0.2944
 1029TIP3    H224647   4.928   2.637   0.083  0.7821  1.2749 -0.3485
 1030TIP3   OH224648   5.563   3.154   8.831  0.4430  0.1116  0.3755
 1030TIP3    H124649   5.574   3.245   8.803  3.0974 -0.6373 -1.4739
 1030TIP3    H224650   5.652   3.121   8.841 -0.4416 -2.0657  1.8907
 1031TIP3   OH224651   2.201   1.917   0.232 -0.6116  0.8518 -0.8750
 1031TIP3    H124652   2.174   1.950   0.146  0.4354  0.2854 -1.4280
 1031TIP3    H224653   2.227   1.995   0.280 -1.3025  1.1832 -1.0184
 1032TIP3   OH224654   0.537   6.341   8.344 -0.2035 -0.2284 -0.4899
 1032TIP3    H124655   0.454   6.380   8.317  1.2262  0.9739 -3.6837
 1032TIP3    H224656   0.594   6.416   8.361  0.4824 -1.0261  0.8890
 1033TIP3   OH224657   3.699   1.584   0.409 -0.0398 -0.6525  0.3404
 1033TIP3    H124658   3.605   1.593   0.400 -0.3193 -2.3526  1.1165
 1033TIP3    H224659   3.735   1.622   0.329 -1.2092  1.9356  0.9351
 1034TIP3   OH224660   0.019   3.864   6.491 -0.3677 -0.7582  0.4159
 1034TIP3    H124661  -0.055   3.916   6.459 -0.7968 -1.4199  0.3159
 1034TIP3    H224662  -0.019   3.806   6.557  0.0269 -1.2250  0.2384
 1035TIP3   OH224663   5.733   6.551   6.795  0.0420 -0.6193  0.1179
 1035TIP3    H124664   5.699   6.493   6.727 -0.6029  0.0066 -0.1032
 1035TIP3    H224665   5.678   6.629   6.790 -0.4945 -0.8474  1.8449
 1036TIP3   OH224666   3.310   5.416   0.214 -0.3342  0.4398  1.0600
 1036TIP3    H124667   3.274   5.504   0.225  0.6267  0.9750  0.0950
 1036TIP3    H224668   3.280   5.368   0.291  0.2367  1.9720  2.2711
 1037TIP3   OH224669   6.509   0.728   1.407 -0.8278  0.5171  0.1771
 1037TIP3    H124670   6.534   0.760   1.321 -1.6918  0.3966 -0.1253
 1037TIP3    H224671   6.570   0.656   1.425 -0.8633  0.3166 -0.4856
 1038TIP3   OH224672   6.495   5.442   0.224  0.1869 -0.1083  0.3982
 1038TIP3    H124673   6.472   5.533   0.204 -0.8077 -0.2733  0.7396
 1038TIP3    H224674   6.589   5.437   0.206  0.0718  0.7359 -0.5373
 1039TIP3   OH224675   3.209   4.413   7.156 -0.6791  0.0184 -0.7679
 1039TIP3    H124676   3.275   4.417   7.087  0.2170 -0.1851  0.0574
 1039TIP3    H224677   3.182   4.504   7.168 -0.1989  0.1654 -0.7800
 1040TIP3   OH224678   2.716   4.428   6.964  0.0224 -0.4509  0.6701
 1040TIP3    H124679   2.757   4.443   7.049  1.1674  1.7240 -0.1696
 1040TIP3    H224680   2.789   4.425   6.903 -0.8427 -0.9323 -0.3739
 1041TIP3   OH224681   0.145   1.994   0.795 -0.1395  0.2063  0.3916
 1041TIP3    H124682   0.160   2.030   0.882 -0.0802 -1.7439  1.2504
 1041TIP3    H224683   0.056   1.959   0.798  0.9222 -2.8010  0.8639
 1042TIP3   OH224684   4.394   2.157   8.571 -0.4312 -0.2182  0.3592
 1042TIP3    H124685   4.376   2.064   8.557  1.0535 -0.4185 -0.4804
 1042TIP3    H224686   4.350   2.201   8.498  0.6100 -0.4975 -0.4694
 1043TIP3   OH224687   4.975   3.419   0.983 -0.3222 -0.1657  0.5173
 1043TIP3    H124688   4.891   3.450   1.017 -0.2727 -0.4529  0.9085
 1043TIP3    H224689   4.952   3.365   0.908 -0.4690 -0.0086  0.4491
 1044TIP3   OH224690   4.227   6.015   8.596  0.0369 -0.7346 -0.6293
 1044TIP3    H124691   4.307   6.058   8.628  0.6592 -2.0412 -0.3653
 1044TIP3    H224692   4.249   5.987   8.507 -0.1033 -1.1522 -0.5323
 1045TIP3   OH224693   2.943   5.010   7.506  0.0346  0.5350 -0.1297
 1045TIP3    H124694   2.923   4.919   7.529 -2.4019  1.4311  1.8287
 1045TIP3    H224695   3.017   5.033   7.562  0.9491 -0.3291 -0.9540
 1046TIP3   OH224696   3.246   4.258   6.418  0.3721  1.3213  0.0515
 1046TIP3    H124697   3.308   4.222   6.354 -2.8409 -1.0532 -2.0169
 1046TIP3    H224698   3.164   4.266   6.371 -1.9119  0.7680  3.5445
 1047TIP3   OH224699   1.722   3.242   7.598  0.3430 -0.8423  0.0834
 1047TIP3    H124700   1.683   3.257   7.685  2.3435 -1.2118  1.1001
 1047TIP3    H224701   1.647   3.218   7.543 -0.7679 -2.8391  2.2310
 1048TIP3   OH224702   4.325   2.714   1.516  0.3435 -0.0437 -0.1857
 1048TIP3    H124703   4.246   2.760   1.485 -0.1719  0.0714  1.2511
 1048TIP3    H224704   4.393   2.781   1.513  0.3536 -0.0841 -1.2297
 1049TIP3   OH224705   0.716   0.556   0.577 -0.6768 -0.0851 -0.3433
 1049TIP3    H124706   0.639   0.516   0.618 -0.7374 -0.4912 -0.8375
 1049TIP3    H224707   0.712   0.648   0.604  0.0303 -0.5897  1.6436
 1050TIP3   OH224708   5.104   5.100   0.542  0.8219  0.3096  0.0292
 1050TIP3    H124709   5.166   5.055   0.600  0.8558 -0.0110 -0.2480
 1050TIP3    H224710   5.145   5.095   0.456  2.6012  4.0007  0.4690
 1051TIP3   OH224711   5.711   6.624   1.361  0.0036  0.3592  0.7985
 1051TIP3    H124712   5.707   6.540   1.406 -0.6916  0.9413  1.8490
 1051TIP3    H224713   5.653   6.681   1.411 -0.0633  1.2846 -0.2986
 1052TIP3   OH224714   4.440   6.147   0.939  0.2534 -0.1528 -0.0640
 1052TIP3    H124715   4.411   6.193   1.018  1.1613 -0.8620  0.6974
 1052TIP3    H224716   4.535   6.160   0.937  0.2424 -0.1446 -1.0440
 1053TIP3   OH224717   2.631   4.457   0.045  0.6049 -0.3499 -0.3215
 1053TIP3    H124718   2.561   4.395   0.026 -0.5871  0.6478  0.6082
 1053TIP3    H224719   2.628   4.520  -0.028 -0.6338  0.6442  0.5412
 1054TIP3   OH224720   4.544   1.249   0.202 -0.3305 -0.5164  0.1422
 1054TIP3    H124721   4.496   1.295   0.134  0.7554  0.0152 -0.2870
 1054TIP3    H224722   4.618   1.209   0.157  0.6625  0.2162  1.0524
 1055TIP3   OH224723   3.031   3.259   0.588  0.1617 -0.1491  0.1454
 1055TIP3    H124724   3.077   3.342   0.599 -1.8359  0.9473  0.7622
 1055TIP3    H224725   3.044   3.213   0.671 -0.3500  0.4194  0.5458
 1056TIP3   OH224726   5.946   3.715   2.389  0.2874 -0.2196 -0.1807
 1056TIP3    H124727   5.977   3.677   2.307 -0.1612 -1.0714  0.0182
 1056TIP3    H224728   5.916   3.639   2.440  2.7615 -0.0155  1.7752
 1057TIP3   OH224729   3.313   1.511   7.459 -0.3083 -0.1401  0.6012
 1057TIP3    H124730   3.375   1.583   7.445 -1.0352  0.6390  1.2949
 1057TIP3    H224731   3.349   1.439   7.408  1.0124  0.3838  0.7422
 1058TIP3   OH224732   2.907   0.617   7.834 -0.1206 -0.0424  0.2818
 1058TIP3    H124733   2.970   0.574   7.775 -1.3308 -1.3523 -0.0923
 1058TIP3    H224734   2.830   0.561   7.832 -1.4820  1.7607  0.3948
 1059TIP3   OH224735   4.821   6.058   1.010  0.5594  0.0558  0.6916
 1059TIP3    H124736   4.798   6.057   1.103  0.6796 -4.4949  0.8795
 1059TIP3    H224737   4.897   6.000   1.003 -1.0407 -1.8980 -2.5006
 1060TIP3   OH224738   1.460   5.355   7.669  0.4020 -0.1445 -0.3206
 1060TIP3    H124739   1.412   5.277   7.640 -0.2079 -0.1326  0.6122
 1060TIP3    H224740   1.452   5.354   7.764  0.6781  0.8810 -0.2761
 1061TIP3   OH224741   5.227   5.626   1.138  0.0102  0.5010  0.4502
 1061TIP3    H124742   5.166   5.660   1.204 -1.6155 -0.6002 -0.4255
 1061TIP3    H224743   5.178   5.557   1.092  1.6521  0.1072 -0.8203
 1062TIP3   OH224744   1.370   6.592   0.690  0.4850  0.0195 -0.3699
 1062TIP3    H124745   1.351   6.501   0.712  1.4621  0.2123  1.4648
 1062TIP3    H224746   1.345   6.600   0.598 -1.4842 -1.5508 -0.0487
 1063TIP3   OH224747   4.297   1.946   8.443 -0.2700  0.1078  0.0626
 1063TIP3    H124748   4.314   1.871   8.387 -2.0815  1.2780 -2.2495
 1063TIP3    H224749   4.221   1.921   8.494 -0.9466  0.3511 -0.7923
 1064TIP3   OH224750   3.333   2.634   0.239 -0.5380 -0.5597 -0.3277
 1064TIP3    H124751   3.367   2.605   0.154  0.9937 -0.0424  0.0621
 1064TIP3    H224752   3.410   2.670   0.284 -1.4973  0.0064  0.9249
 1065TIP3   OH224753   6.601   4.538   8.609 -1.2557  0.5492 -0.7595
 1065TIP3    H124754   6.592   4.615   8.666 -0.0307  1.3683 -1.6077
 1065TIP3    H224755   6.592   4.573   8.520 -1.0817 -0.3552 -1.1435
 1066TIP3   OH224756   2.691   2.377   0.510 -0.0987 -0.1861  0.3220
 1066TIP3    H124757   2.746   2.444   0.469  0.5479 -0.8821  0.0173
 1066TIP3    H224758   2.602   2.402   0.486 -0.0737  1.7770  2.0348
 1067TIP3   OH224759   2.360   5.595   1.898  0.1783  0.3369 -0.1640
 1067TIP3    H124760   2.336   5.688   1.898 -0.6825  0.1641  1.7453
 1067TIP3    H224761   2.421   5.586   1.971  0.5923 -0.5151 -0.6116
 1068TIP3   OH224762   6.308   3.737   0.773  0.4437  0.6678  0.4568
 1068TIP3    H124763   6.305   3.825   0.734 -0.8771  1.4302  2.1369
 1068TIP3    H224764   6.372   3.745   0.844  2.2283 -0.4833 -0.9352
 1069TIP3   OH224765   4.806   5.799   0.754 -0.7699  0.0962  0.2554
 1069TIP3    H124766   4.886   5.829   0.798 -1.1198  2.2937 -0.4458
 1069TIP3    H224767   4.786   5.869   0.692 -2.1292 -1.3582 -1.0312
 1070TIP3   OH224768   5.248   4.135   7.123 -0.2072 -0.0443  0.2113
 1070TIP3    H124769   5.332   4.136   7.170 -1.0471  2.9745  1.8985
 1070TIP3    H224770   5.273   4.133   7.030  1.6600 -0.4957  0.6702
 1071TIP3   OH224771   1.601   0.707   1.595 -0.4583 -0.4133 -0.3847
 1071TIP3    H124772   1.621   0.797   1.570  0.3131 -0.8633 -1.4644
 1071TIP3    H224773   1.529   0.715   1.657  0.3575  1.0155  0.4300
 1072TIP3   OH224774   2.505   4.667   8.680  0.0714 -1.0003 -0.1731
 1072TIP3    H124775   2.462   4.706   8.756 -1.0422 -2.4234 -0.0203
 1072TIP3    H224776   2.438   4.665   8.612  0.8105 -0.5077 -0.9318
 1073TIP3   OH224777   4.003   6.669   7.774 -0.3471  0.5274  0.2734
 1073TIP3    H124778   4.026   6.734   7.841 -1.8020  0.6343  0.7176
 1073TIP3    H224779   4.066   6.683   7.703 -0.1461  1.8949  0.6997
 1074TIP3   OH224780   5.183   3.681   7.530 -0.3950  0.1701 -0.1081
 1074TIP3    H124781   5.233   3.738   7.472  1.8085 -3.7431 -2.4091
 1074TIP3    H224782   5.234   3.679   7.611  0.6273 -0.1234 -0.7498
 1075TIP3   OH224783   1.155   0.450   1.710  0.2860  0.2424 -0.0005
 1075TIP3    H124784   1.177   0.497   1.791  0.9296 -1.6830  1.0008
 1075TIP3    H224785   1.074   0.404   1.730  0.6573 -0.5588 -0.3237
 1076TIP3   OH224786   2.511   0.385   1.520  0.2263  0.1245 -0.2051
 1076TIP3    H124787   2.417   0.394   1.539  0.2659  0.4870 -0.1797
 1076TIP3    H224788   2.514   0.349   1.431  0.0490 -0.9021  0.1895
 1077TIP3   OH224789   0.598   3.215   7.272 -0.0942 -0.0365 -0.0406
 1077TIP3    H124790   0.524   3.260   7.231  0.1903  1.0100  0.5603
 1077TIP3    H224791   0.587   3.123   7.247  0.6853  0.6657 -3.4741
 1078TIP3   OH224792   1.916   6.389   7.650  0.0411  0.2097 -0.3166
 1078TIP3    H124793   1.866   6.335   7.589  0.1115 -0.4904  0.2328
 1078TIP3    H224794   1.851   6.447   7.690 -0.1643  0.0091 -0.3567
 1079TIP3   OH224795   1.364   0.669   8.598 -0.2682 -0.6484  0.0655
 1079TIP3    H124796   1.309   0.729   8.647  0.8118  0.4559 -0.0384
 1079TIP3    H224797   1.302   0.613   8.551 -1.2910  0.2882  0.2628
 1080TIP3   OH224798   4.641   0.170   8.843  0.5291 -0.2033  0.5822
 1080TIP3    H124799   4.631   0.093   8.786 -1.8590 -0.1149  0.7608
 1080TIP3    H224800   4.598   0.241   8.794  0.7262  0.4783  1.3867
 1081TIP3   OH224801   3.042   1.075   0.204 -0.2498 -0.2598 -0.1190
 1081TIP3    H124802   3.089   1.155   0.180  0.9204 -1.1851 -1.0684
 1081TIP3    H224803   3.002   1.045   0.122  1.2537 -1.8535 -0.3335
 1082TIP3   OH224804   4.105   6.360   7.253  0.3676 -0.3404  0.3501
 1082TIP3    H124805   4.064   6.432   7.301 -0.1894 -2.0625  2.5870
 1082TIP3    H224806   4.049   6.348   7.176 -0.2796  0.7631  0.6332
 1083TIP3   OH224807   2.831   1.056   2.584  0.3535  0.3585 -0.2884
 1083TIP3    H124808   2.899   1.058   2.651  1.8511  0.3385 -1.7474
 1083TIP3    H224809   2.827   0.965   2.556 -0.5952  0.2764  0.0636
 1084TIP3   OH224810   2.678   5.271   1.634 -0.1312 -0.2266 -0.1423
 1084TIP3    H124811   2.625   5.278   1.555 -2.4616  0.0118  1.3355
 1084TIP3    H224812   2.624   5.310   1.703  2.4452  1.0690  1.3349
 1085TIP3   OH224813   6.712   4.710   6.872  0.2688  0.9456 -0.1831
 1085TIP3    H124814   6.646   4.769   6.836 -0.8435 -0.3868 -0.4077
 1085TIP3    H224815   6.695   4.626   6.830  1.3020  0.2589  0.7097
 1086TIP3   OH224816   4.038   1.300   8.753  0.2381  0.0817  0.0090
 1086TIP3    H124817   3.954   1.341   8.732  0.4017  1.0207  1.0336
 1086TIP3    H224818   4.081   1.288   8.668 -0.3731  0.8454 -0.4236
 1087TIP3   OH224819   0.712   3.034   6.303 -0.0334 -0.7895 -0.6731
 1087TIP3    H124820   0.738   3.124   6.323  0.3189 -1.3697  1.7723
 1087TIP3    H224821   0.644   3.044   6.236 -1.1173  1.4138  0.6304
 1088TIP3   OH224822   0.705   0.203   8.748 -0.1268  0.3325  0.1702
 1088TIP3    H124823   0.620   0.160   8.743  0.0584 -0.1586  0.9519
 1088TIP3    H224824   0.698   0.261   8.824  0.7271 -0.9047  1.2434
 1089TIP3   OH224825   0.267   1.658   7.041  0.0905  0.0561  0.9181
 1089TIP3    H124826   0.279   1.582   7.099  1.0052 -2.3155 -2.1026
 1089TIP3    H224827   0.179   1.646   7.005  0.5628 -0.0810 -0.2163
 1090TIP3   OH224828   6.556   5.063   1.310 -0.1961 -0.0302 -0.0800
 1090TIP3    H124829   6.623   5.094   1.249 -0.1619 -0.1228 -0.0896
 1090TIP3    H224830   6.600   4.995   1.361  0.6476  1.9789  1.9993
 1091TIP3   OH224831   6.792   6.046   7.290 -0.1816 -0.3784 -0.2617
 1091TIP3    H124832   6.754   6.063   7.203  0.1220  0.6488 -0.2079
 1091TIP3    H224833   6.798   6.133   7.330 -0.0395 -0.8160  0.6749
 1092TIP3   OH224834   4.742   3.707   0.630  0.2777  0.2192  0.1918
 1092TIP3    H124835   4.665   3.662   0.666 -0.1538 -0.0425 -1.0096
 1092TIP3    H224836   4.815   3.671   0.679 -0.1567 -1.1660 -0.1185
 1093TIP3   OH224837   6.316   0.362   1.260  0.0990  0.7145  0.3235
 1093TIP3    H124838   6.362   0.324   1.186  0.3727  2.2594 -0.3489
 1093TIP3    H224839   6.374   0.345   1.335 -1.6921 -3.8394  0.9922
 1094TIP3   OH224840   3.186   5.906   2.399  0.2375  0.3502  0.0669
 1094TIP3    H124841   3.195   6.001   2.395  0.7121  0.3182  0.3495
 1094TIP3    H224842   3.188   5.886   2.493  1.4240 -0.0597 -0.0325
 1095TIP3   OH224843   2.926   5.658   7.524 -0.4185  0.2029 -0.1195
 1095TIP3    H124844   2.911   5.703   7.440 -1.1380  0.3988  0.1088
 1095TIP3    H224845   2.952   5.728   7.584  0.7730 -0.0384 -0.3424
 1096TIP3   OH224846   3.993   6.710   0.427  0.5462 -0.0427  0.2480
 1096TIP3    H124847   3.922   6.741   0.483 -0.3304  0.4348 -1.1051
 1096TIP3    H224848   4.070   6.759   0.457  0.1833 -0.0415  1.2377
 1097TIP3   OH224849   1.397   2.384   6.533  0.2156  0.0676 -0.3605
 1097TIP3    H124850   1.337   2.439   6.584  0.9126  0.4608  0.0432
 1097TIP3    H224851   1.340   2.318   6.494 -0.3972  0.0110  0.5842
 1098TIP3   OH224852   1.005   1.214   7.894  0.4268 -0.1325 -0.1353
 1098TIP3    H124853   0.956   1.233   7.974  0.3196  0.9988 -0.4570
 1098TIP3    H224854   0.968   1.131   7.863  1.6584 -1.5618  1.8994
 1099TIP3   OH224855   3.239   6.119   0.134  0.3679  0.7000  0.0046
 1099TIP3    H124856   3.277   6.035   0.110 -2.1198 -0.5611  0.1889
 1099TIP3    H224857   3.201   6.105   0.221  0.4003  2.1686  0.2755
 1100TIP3   OH224858   5.978   1.073   0.099 -0.0857 -0.2353  0.5105
 1100TIP3    H124859   5.948   1.067   0.009  0.9063 -1.4215  0.2307
 1100TIP3    H224860   5.903   1.105   0.148 -0.9059 -0.4299 -0.6056
 1101TIP3   OH224861   2.073   2.532   2.220 -0.1010 -0.1092 -0.0152
 1101TIP3    H124862   2.135   2.575   2.161  0.7935 -0.7379  0.4335
 1101TIP3    H224863   2.001   2.594   2.229  0.2293  0.4259 -0.9496
 1102TIP3   OH224864   6.079   3.341   0.903 -0.2090  0.1807 -0.0424
 1102TIP3    H124865   6.148   3.280   0.930  0.0198 -0.1316 -1.2714
 1102TIP3    H224866   6.125   3.410   0.855 -0.7467 -0.0799 -0.9577
 1103TIP3   OH224867   5.022   5.277   8.463 -0.4001  0.1632 -0.1045
 1103TIP3    H124868   5.035   5.213   8.393  1.3885 -0.5468  0.8165
 1103TIP3    H224869   5.049   5.360   8.424 -1.2674  0.1162 -0.8383
 1104TIP3   OH224870   3.401   1.727   7.849  0.2282 -0.4221  0.5119
 1104TIP3    H124871   3.339   1.787   7.807  0.5003 -1.3097 -1.2255
 1104TIP3    H224872   3.487   1.763   7.827  0.3736 -0.4313  1.0482
 1105TIP3   OH224873   0.104   4.633   1.042  0.3529  0.7256 -0.0352
 1105TIP3    H124874   0.177   4.681   1.083  0.6387 -0.7356  1.2504
 1105TIP3    H224875   0.026   4.683   1.066  0.6848  0.8279  0.8547
 1106TIP3   OH224876   4.400   3.884   6.825 -0.0036  0.4997  0.1282
 1106TIP3    H124877   4.471   3.929   6.780  0.5237  0.5672  1.0086
 1106TIP3    H224878   4.422   3.892   6.918 -0.4548 -0.6540  0.3463
 1107TIP3   OH224879   4.153   1.895   8.070  0.3637 -0.1922  0.0670
 1107TIP3    H124880   4.169   1.915   8.162 -0.9052 -1.3977  0.5924
 1107TIP3    H224881   4.170   1.801   8.062 -2.4006 -0.7597 -0.1761
 1108TIP3   OH224882   2.941   1.393   0.241 -0.3556  0.4805  0.1925
 1108TIP3    H124883   2.960   1.326   0.176  3.0589 -0.0083  1.4906
 1108TIP3    H224884   2.896   1.347   0.311 -1.0020  0.2845 -0.3464
 1109TIP3   OH224885   0.157   4.356   7.485 -0.5267 -0.2023 -0.2168
 1109TIP3    H124886   0.098   4.415   7.531  1.7610  1.2421  1.0360
 1109TIP3    H224887   0.204   4.412   7.423 -0.0215 -1.1761 -0.7450
 1110TIP3   OH224888   0.490   4.807   1.671 -0.5150  0.3581 -0.5232
 1110TIP3    H124889   0.481   4.865   1.747  1.6912 -0.0126  0.0909
 1110TIP3    H224890   0.579   4.825   1.638 -0.8315 -0.6776 -2.0179
 1111TIP3   OH224891   4.227   4.408   8.441 -0.3979 -0.3524  0.1655
 1111TIP3    H124892   4.159   4.473   8.456  1.2350  1.3270  0.7780
 1111TIP3    H224893   4.226   4.353   8.519 -1.2534 -0.5489  0.0194
 1112TIP3   OH224894   4.195   5.434   8.120  0.3714 -0.1445  0.2298
 1112TIP3    H124895   4.201   5.529   8.128 -1.3172  0.0263 -0.3167
 1112TIP3    H224896   4.140   5.419   8.043  2.2627 -1.5992 -0.9744
 1113TIP3   OH224897   5.425   6.057   1.658 -0.5810 -0.2975 -0.1494
 1113TIP3    H124898   5.485   6.125   1.626  0.8922 -1.2775  0.4189
 1113TIP3    H224899   5.409   6.001   1.583  0.5061 -0.9183  0.0607
 1114TIP3   OH224900   4.802   0.250   8.445 -0.6004 -0.8595 -0.5247
 1114TIP3    H124901   4.809   0.344   8.461  1.6588 -0.4811 -3.0284
 1114TIP3    H224902   4.708   0.232   8.449 -0.9388  0.9370  2.4726
 1115TIP3   OH224903   1.976   6.142   1.944  0.2240 -0.5234 -0.3461
 1115TIP3    H124904   1.888   6.141   1.904  0.6189  0.1860 -1.2696
 1115TIP3    H224905   1.959   6.133   2.038 -1.0230  1.9055 -0.2432
 1116TIP3   OH224906   1.623   4.779   1.352 -0.0152  0.2748  0.0771
 1116TIP3    H124907   1.611   4.846   1.285 -0.1733  1.2289  1.0246
 1116TIP3    H224908   1.715   4.754   1.344  0.2765  1.2466  0.2733
 1117TIP3   OH224909   2.491   5.346   2.461 -0.6994 -0.7826  0.0422
 1117TIP3    H124910   2.466   5.255   2.443 -0.1981 -1.1527  1.0962
 1117TIP3    H224911   2.417   5.398   2.430 -1.1078 -1.5738 -0.3449
 1118TIP3   OH224912   2.174   6.500   2.655 -0.1654 -0.0094 -0.3056
 1118TIP3    H124913   2.267   6.488   2.639 -0.2720 -0.8598 -0.3753
 1118TIP3    H224914   2.166   6.589   2.688  0.3979  0.8828 -2.4132
 1119TIP3   OH224915   3.531   3.822   0.908 -0.1657 -0.2094 -0.2898
 1119TIP3    H124916   3.471   3.777   0.967 -1.0924  0.9837 -0.2987
 1119TIP3    H224917   3.555   3.902   0.954  0.0142  0.1819 -1.0442
 1120TIP3   OH224918   1.187   2.196   7.717 -0.0129  0.1316 -0.5875
 1120TIP3    H124919   1.156   2.273   7.765 -0.0449 -1.2113  1.6781
 1120TIP3    H224920   1.279   2.188   7.742 -0.6753 -2.1023  1.5420
 1121TIP3   OH224921   4.704   2.313   6.568  0.1129  0.2083  0.0085
 1121TIP3    H124922   4.729   2.386   6.624  0.4555 -0.0427  0.1866
 1121TIP3    H224923   4.609   2.324   6.555 -0.0413  0.0547  0.9521
 1122TIP3   OH224924   3.035   5.028   7.780 -0.6940  0.1101 -0.0703
 1122TIP3    H124925   2.950   5.006   7.819 -0.3429  1.0236  1.2699
 1122TIP3    H224926   3.058   5.112   7.819  1.2506 -0.5521  0.3019
 1123TIP3   OH224927   0.198   0.231   0.428 -0.0946  0.6829 -0.2603
 1123TIP3    H124928   0.265   0.297   0.411 -0.3569  0.8859 -0.4990
 1123TIP3    H224929   0.238   0.174   0.494 -0.9327  2.7144  2.1686
 1124TIP3   OH224930   2.623   2.842   8.663  0.3118  0.4344  0.4312
 1124TIP3    H124931   2.703   2.883   8.695  0.8113 -0.8053  0.8753
 1124TIP3    H224932   2.585   2.801   8.741  0.3334 -0.7098 -0.1369
 1125TIP3   OH224933   1.408   3.648   6.919 -0.0777  0.0251 -0.4966
 1125TIP3    H124934   1.486   3.662   6.865 -0.8898  0.0848 -1.6977
 1125TIP3    H224935   1.367   3.734   6.925 -0.5325 -0.1755 -0.6589
 1126TIP3   OH224936   5.638   5.780   7.111 -0.1208  0.4289 -0.4182
 1126TIP3    H124937   5.684   5.806   7.032  0.9750  0.2689  0.1560
 1126TIP3    H224938   5.610   5.862   7.151  1.3137  0.6453  0.1944
 1127TIP3   OH224939   4.646   5.525   1.248  0.2485  0.1307  0.6728
 1127TIP3    H124940   4.591   5.538   1.171 -0.9983  2.1083  1.8136
 1127TIP3    H224941   4.734   5.545   1.218 -0.2015  0.7154 -0.2910
 1128TIP3   OH224942   5.775   2.839   0.456  0.4428  0.0833 -0.3270
 1128TIP3    H124943   5.805   2.868   0.542 -1.0264 -0.2119  0.3091
 1128TIP3    H224944   5.683   2.815   0.469  0.3966 -0.6731 -1.8123
 1129TIP3   OH224945   5.594   4.609   8.528  0.3778 -0.1079 -0.2168
 1129TIP3    H124946   5.563   4.550   8.460  0.4793  0.6472 -0.9437
 1129TIP3    H224947   5.685   4.584   8.542  0.3084 -0.3761 -0.2479
 1130TIP3   OH224948   0.099   1.491   1.373  0.4316  0.1392  0.1430
 1130TIP3    H124949   0.057   1.575   1.356  1.0994  0.8743  1.9103
 1130TIP3    H224950   0.039   1.447   1.434  1.4507  0.5801  1.5069
 1131TIP3   OH224951   5.589   3.893   8.214  0.0759  0.1668 -0.4400
 1131TIP3    H124952   5.499   3.868   8.192  0.3062 -0.2590 -0.9260
 1131TIP3    H224953   5.588   3.904   8.309 -0.0076 -1.9194 -0.1429
 1132TIP3   OH224954   0.836   6.148   0.716 -0.2429 -0.1426  0.2931
 1132TIP3    H124955   0.884   6.090   0.657 -0.2479 -0.7452  0.8732
 1132TIP3    H224956   0.744   6.121   0.706 -0.8469  2.3858 -2.4166
 1133TIP3   OH224957   2.162   5.244   1.096 -0.0942  0.2994  0.1922
 1133TIP3    H124958   2.253   5.274   1.104 -0.4195  2.1805 -2.0177
 1133TIP3    H224959   2.111   5.309   1.144 -0.4162  0.3173 -0.1745
 1134TIP3   OH224960   2.300   0.138   8.592 -0.0746  0.6278 -0.2380
 1134TIP3    H124961   2.357   0.199   8.544  0.6111 -0.6655 -1.1161
 1134TIP3    H224962   2.334   0.051   8.570 -1.9922 -0.1513 -0.2558
 1135TIP3   OH224963   0.445   5.385   8.643 -0.1853 -0.0565 -0.1005
 1135TIP3    H124964   0.531   5.353   8.618  0.0610  0.5305 -0.0073
 1135TIP3    H224965   0.462   5.458   8.702 -0.7266  0.8515 -1.0412
 1136TIP3   OH224966   6.040   2.244   0.113  0.2242 -0.5033  0.0130
 1136TIP3    H124967   6.078   2.163   0.079  1.1923  0.0630 -0.2980
 1136TIP3    H224968   6.092   2.265   0.190  0.5153  0.2365 -0.3682
 1137TIP3   OH224969   6.268   1.954   1.230  0.0188  0.6147  0.7554
 1137TIP3    H124970   6.352   1.930   1.270 -0.6348  0.6638  2.2072
 1137TIP3    H224971   6.289   1.967   1.137  1.0025 -2.6556  0.3575
 1138TIP3   OH224972   5.733   5.444   1.477 -0.0838  0.0524 -0.2939
 1138TIP3    H124973   5.681   5.398   1.543  0.6164  0.2983  0.4499
 1138TIP3    H224974   5.808   5.386   1.461  0.7742  0.8625  0.6079
 1139TIP3   OH224975   5.056   0.839   6.308 -0.3312 -0.5774 -0.2971
 1139TIP3    H124976   4.969   0.842   6.269 -1.6741 -1.8423  2.3898
 1139TIP3    H224977   5.111   0.886   6.245 -3.0352  0.8823 -1.7873
 1140TIP3   OH224978   1.052   2.418   1.488  0.1381 -0.0660 -0.2618
 1140TIP3    H124979   1.007   2.478   1.548  0.1196 -0.6798  0.3418
 1140TIP3    H224980   1.000   2.338   1.491  1.2603 -0.7852  0.4364
 1141TIP3   OH224981   5.597   2.864   8.217 -0.3692  0.2950  0.1725
 1141TIP3    H124982   5.534   2.856   8.289 -0.2924  4.0872  0.8602
 1141TIP3    H224983   5.682   2.849   8.258 -0.5229 -2.4531 -0.2836
 1142TIP3   OH224984   5.192   5.148   8.239 -0.2521  0.1140  0.3782
 1142TIP3    H124985   5.211   5.071   8.292 -1.0671 -0.9659 -0.8336
 1142TIP3    H224986   5.242   5.134   8.158  0.2170  1.2599  0.4449
 1143TIP3   OH224987   6.456   5.864   7.136 -0.6515 -0.1653  0.3332
 1143TIP3    H124988   6.531   5.811   7.110 -0.0880  1.1866 -0.9503
 1143TIP3    H224989   6.423   5.901   7.054 -0.2940  2.3715  1.2447
 1144TIP3   OH224990   6.454   2.899   7.961 -0.1815 -0.3241 -0.0494
 1144TIP3    H124991   6.396   2.936   8.028  1.6107 -0.7708  1.8475
 1144TIP3    H224992   6.462   2.807   7.984  0.7175 -0.4171 -0.6829
 1145TIP3   OH224993   0.069   3.852   1.615 -0.2238  0.3006 -0.2292
 1145TIP3    H124994   0.052   3.767   1.574 -0.6474  1.0577 -1.7106
 1145TIP3    H224995   0.123   3.832   1.691 -0.7930 -1.3421 -0.2241
 1146TIP3   OH224996   0.928   2.472   8.474 -0.6664 -0.2002 -0.3938
 1146TIP3    H124997   0.868   2.463   8.400  0.6748 -0.9475 -1.4423
 1146TIP3    H224998   1.014   2.484   8.433  0.0648 -0.3632  1.0524
 1147TIP3   OH224999   2.726   2.545   8.463 -0.8394  0.0652 -0.2491
 1147TIP3    H125000   2.705   2.612   8.528 -1.6833 -0.6793  0.2736
 1147TIP3    H225001   2.677   2.571   8.385 -0.4736  0.5151 -0.3364
 1148TIP3   OH225002   6.620   5.735   6.962  0.0648 -0.2474  0.4624
 1148TIP3    H125003   6.615   5.643   6.938  0.6321 -0.5529  1.4600
 1148TIP3    H225004   6.563   5.779   6.899  1.3652 -1.0005 -1.3312
 1149TIP3   OH225005   1.118   2.342   0.677 -0.3536  0.3493  0.1300
 1149TIP3    H125006   1.080   2.312   0.595 -0.0150 -0.9528  0.4297
 1149TIP3    H225007   1.081   2.284   0.743  1.6736 -0.6146  0.5072
 1150TIP3   OH225008   3.510   0.499   1.360 -0.4978 -0.3844  0.1318
 1150TIP3    H125009   3.490   0.551   1.438 -0.1140  0.5616 -0.3902
 1150TIP3    H225010   3.447   0.427   1.363 -0.3004 -0.5208  1.4695
 1151TIP3   OH225011   1.025   0.340   8.504 -0.0357 -0.5673  0.2704
 1151TIP3    H125012   1.117   0.342   8.479  0.1655  1.6113  1.0273
 1151TIP3    H225013   0.998   0.431   8.506 -1.9084 -1.0879  1.2016
 1152TIP3   OH225014   6.186   0.637   6.645  0.3981 -0.1361 -0.4608
 1152TIP3    H125015   6.238   0.611   6.569  0.1856 -0.1943 -0.5888
 1152TIP3    H225016   6.179   0.558   6.698 -0.7771 -0.5286 -1.1572
 1153TIP3   OH225017   3.889   4.277   6.963 -0.3817 -0.0313  0.4232
 1153TIP3    H125018   3.909   4.341   7.031  0.3974  0.4173 -0.2131
 1153TIP3    H225019   3.807   4.307   6.926 -1.4130 -0.9011  1.8838
 1154TIP3   OH225020   2.003   6.111   1.148  0.8375  0.0286  0.5483
 1154TIP3    H125021   1.913   6.110   1.181  0.9125 -1.0192  0.7558
 1154TIP3    H225022   2.052   6.161   1.214  0.5798 -0.1922  0.9116
 1155TIP3   OH225023   5.197   5.144   7.666 -0.1023  0.0032  0.0295
 1155TIP3    H125024   5.124   5.175   7.719  0.6873  1.6754  0.1888
 1155TIP3    H225025   5.162   5.139   7.577 -0.3968  0.9369  0.0821
 1156TIP3   OH225026   4.781   6.381   6.499  0.0147  1.0149  0.3783
 1156TIP3    H125027   4.704   6.324   6.500  0.1184  0.7283 -2.0488
 1156TIP3    H225028   4.848   6.332   6.546 -0.4395 -0.0236 -0.0426
 1157TIP3   OH225029   6.743   3.474   0.927  0.6380  0.1200  0.2859
 1157TIP3    H125030   6.834   3.468   0.955  0.5752 -0.4313  0.3771
 1157TIP3    H225031   6.702   3.534   0.991  1.3601  1.9415 -0.8790
 1158TIP3   OH225032   1.313   3.610   0.740  0.2224 -0.2618 -0.5144
 1158TIP3    H125033   1.230   3.561   0.739  0.6495 -1.0315  0.3024
 1158TIP3    H225034   1.370   3.559   0.798  0.9260  0.8212 -0.2312
 1159TIP3   OH225035   4.347   1.681   8.312 -0.2361  0.2511 -0.2340
 1159TIP3    H125036   4.373   1.630   8.236  1.3919  0.8190 -0.1047
 1159TIP3    H225037   4.430   1.702   8.356 -0.9351  1.9783  0.3468
 1160TIP3   OH225038   4.032   2.116   7.341 -0.3204  0.0722 -0.4394
 1160TIP3    H125039   4.013   2.027   7.372 -1.4610  0.0153 -1.2470
 1160TIP3    H225040   4.080   2.103   7.259 -2.1158  0.1608 -1.5378
 1161TIP3   OH225041   2.650   1.330   6.909 -0.0287 -0.2585 -0.1130
 1161TIP3    H125042   2.738   1.368   6.901 -0.4101  1.1189  1.7128
 1161TIP3    H225043   2.596   1.383   6.850 -0.2547  1.1499  1.2911
 1162TIP3   OH225044   3.819   0.475   7.324  0.5170 -0.5242  0.3751
 1162TIP3    H125045   3.910   0.504   7.313  0.7187 -1.5636 -1.0699
 1162TIP3    H225046   3.767   0.555   7.321  1.3507  0.0379  0.6681
 1163TIP3   OH225047   2.266   1.185   0.176 -0.0397 -0.3741 -0.3739
 1163TIP3    H125048   2.177   1.166   0.147 -0.2769  0.9522 -0.5787
 1163TIP3    H225049   2.268   1.280   0.187  1.0620 -0.4791  0.6048
 1164TIP3   OH225050   2.810   4.788   7.568  0.2048 -0.2896  0.0554
 1164TIP3    H125051   2.794   4.830   7.652  0.5307 -1.7519  0.8869
 1164TIP3    H225052   2.723   4.783   7.527 -0.0665 -0.1606  0.5989
 1165TIP3   OH225053   5.175   2.220   0.038 -0.0574 -0.2298  0.0282
 1165TIP3    H125054   5.173   2.141   0.092  1.2597 -0.5800 -0.3811
 1165TIP3    H225055   5.224   2.283   0.090  2.0154 -0.8541 -1.0373
 1166TIP3   OH225056   2.467   0.498   0.066 -0.5879  0.5090 -0.0473
 1166TIP3    H125057   2.431   0.467   0.149 -0.8588  0.4426 -0.1874
 1166TIP3    H225058   2.395   0.546   0.025 -0.0888  1.5743  0.2926
 1167TIP3   OH225059   3.890   4.650   7.945 -0.3157  0.0860 -0.0765
 1167TIP3    H125060   3.966   4.616   7.992  0.0132  0.7483 -0.1240
 1167TIP3    H225061   3.892   4.744   7.961 -0.9132  0.1559 -0.3927
 1168TIP3   OH225062   4.360   2.655   0.283  0.3238 -0.1595 -0.5743
 1168TIP3    H125063   4.385   2.644   0.192  0.5669 -1.0281 -0.4082
 1168TIP3    H225064   4.429   2.611   0.333 -0.0104 -0.0336  0.0140
 1169TIP3   OH225065   4.120   0.561   1.669  0.0292 -0.0114  0.0866
 1169TIP3    H125066   4.134   0.578   1.762  1.6118  1.3537 -0.3408
 1169TIP3    H225067   4.087   0.644   1.634 -0.5386 -0.5073 -0.5728
 1170TIP3   OH225068   1.488   3.126   6.894  0.3187  0.5508 -0.5648
 1170TIP3    H125069   1.577   3.101   6.918  0.0885  1.0145  0.8512
 1170TIP3    H225070   1.497   3.213   6.856  0.6159  0.0432 -1.7058
 1171TIP3   OH225071   1.287   2.406   2.135  0.1338  0.3747 -0.1263
 1171TIP3    H125072   1.241   2.399   2.219  0.3044  2.8389  0.2500
 1171TIP3    H225073   1.339   2.486   2.143 -0.8260  1.4192 -3.0152
 1172TIP3   OH225074   2.777   1.517   7.160 -0.3387 -0.9701  0.1843
 1172TIP3    H125075   2.804   1.540   7.071 -2.4138 -1.0707 -0.5079
 1172TIP3    H225076   2.837   1.566   7.216  0.0562  0.2872 -1.2759
 1173TIP3   OH225077   6.255   0.973   0.190  0.0873  0.3011  0.0941
 1173TIP3    H125078   6.161   0.983   0.177  0.0639  0.2404  0.2148
 1173TIP3    H225079   6.294   1.033   0.126 -0.0198 -0.1829 -0.4367
 1174TIP3   OH225080   1.165   1.510   0.376 -0.2428  0.3604 -0.6274
 1174TIP3    H125081   1.204   1.426   0.355 -1.8412 -0.4421 -0.5506
 1174TIP3    H225082   1.079   1.489   0.411 -0.0023  1.9443  1.1141
 1175TIP3   OH225083   1.096   3.661   8.411 -0.0335 -0.6518 -0.5579
 1175TIP3    H125084   1.023   3.682   8.469  1.2726  2.4589  0.1132
 1175TIP3    H225085   1.125   3.745   8.377  1.5584 -2.0529 -2.9665
 1176TIP3   OH225086   6.428   0.068   0.899  0.1227  0.8398 -0.5413
 1176TIP3    H125087   6.348   0.022   0.923  1.5711 -0.7082  1.7021
 1176TIP3    H225088   6.433   0.060   0.804 -1.7680 -0.0245 -0.6165
 1177TIP3   OH225089   3.590   1.278   7.979  0.1372 -0.0359 -0.0923
 1177TIP3    H125090   3.636   1.357   8.008  0.7238  0.0475 -1.2204
 1177TIP3    H225091   3.599   1.278   7.884 -1.8282 -0.2546 -0.3236
 1178TIP3   OH225092   3.683   4.374   7.390 -0.0096  0.4134  0.0374
 1178TIP3    H125093   3.685   4.280   7.374  0.6575  0.3041  0.7039
 1178TIP3    H225094   3.635   4.383   7.473  2.5740  0.3749  1.6418
 1179TIP3   OH225095   0.960   5.954   7.026 -0.4053  0.4366 -0.1459
 1179TIP3    H125096   1.051   5.942   6.998 -0.7616  0.3685 -1.3337
 1179TIP3    H225097   0.911   5.963   6.944 -1.5794 -0.3415  0.4488
 1180TIP3   OH225098   4.956   0.923   6.747  0.0532 -0.2945 -0.4999
 1180TIP3    H125099   4.886   0.914   6.683  0.4961  0.8914 -1.1822
 1180TIP3    H225100   4.980   0.833   6.769  0.3006 -0.7555 -2.4628
 1181TIP3   OH225101   1.468   6.303   7.894 -0.1410 -0.2196 -0.3741
 1181TIP3    H125102   1.429   6.222   7.860 -1.4825 -0.0503  0.6521
 1181TIP3    H225103   1.524   6.274   7.966  0.6402 -0.3520 -1.0210
 1182TIP3   OH225104   0.629   3.984   0.820 -0.1559 -0.5040  0.1321
 1182TIP3    H125105   0.705   4.033   0.788 -0.5257  0.8552  1.2335
 1182TIP3    H225106   0.556   4.047   0.814 -1.6754 -2.2971 -2.6379
 1183TIP3   OH225107   1.590   6.308   1.736  0.3825  0.5266 -1.0165
 1183TIP3    H125108   1.672   6.259   1.732  1.5441  2.1235  1.2211
 1183TIP3    H225109   1.570   6.313   1.830 -2.8486 -0.6149 -1.5168
 1184TIP3   OH225110   2.974   3.805   1.519  0.2515  0.0000  0.0973
 1184TIP3    H125111   2.911   3.856   1.467  1.7304  1.7336 -0.1079
 1184TIP3    H225112   2.946   3.714   1.509 -0.6617  0.4557 -2.1398
 1185TIP3   OH225113   1.562   6.329   1.028  0.3692 -0.0585 -0.6433
 1185TIP3    H125114   1.519   6.399   1.077 -0.6160 -1.0722 -0.0301
 1185TIP3    H225115   1.491   6.271   1.002  1.2135 -1.0169 -0.8657
 1186TIP3   OH225116   0.709   1.251   6.516  0.7161  0.3124  0.1920
 1186TIP3    H125117   0.726   1.160   6.492 -0.9743 -0.2153  0.8680
 1186TIP3    H225118   0.669   1.246   6.603 -2.4979  1.3968 -1.0681
 1187TIP3   OH225119   5.394   4.690   7.258  0.3758  0.3817  0.0749
 1187TIP3    H125120   5.301   4.689   7.234  0.0972  0.7734  1.1028
 1187TIP3    H225121   5.423   4.779   7.237  0.4655  0.3288 -0.0277
 1188TIP3   OH225122   0.118   0.960   7.249  0.2938 -0.0873  0.5055
 1188TIP3    H125123   0.037   0.991   7.208 -0.8441 -2.1751  1.0387
 1188TIP3    H225124   0.130   0.872   7.215  1.3069 -0.5132  1.8858
 1189TIP3   OH225125   0.858   1.720   8.318 -0.1390  0.0362  0.3904
 1189TIP3    H125126   0.834   1.789   8.379  0.2813  1.7304 -1.2551
 1189TIP3    H225127   0.920   1.666   8.366  0.7130  1.7053  1.2643
 1190TIP3   OH225128   3.516   6.139   0.720 -0.3547 -0.2989  0.5653
 1190TIP3    H125129   3.479   6.227   0.712 -1.5697 -0.6937  1.6860
 1190TIP3    H225130   3.605   6.148   0.685 -0.8113  1.1176 -0.3347
 1191TIP3   OH225131   4.825   4.974   0.946  0.4128  0.1119  0.0873
 1191TIP3    H125132   4.811   4.879   0.948  1.4930 -0.0712 -0.2710
 1191TIP3    H225133   4.842   4.994   0.854 -0.9033  0.8386 -0.0150
 1192TIP3   OH225134   2.669   2.887   1.346 -0.0070  0.1642 -0.5240
 1192TIP3    H125135   2.721   2.958   1.383 -1.0717  0.2127  0.9513
 1192TIP3    H225136   2.675   2.817   1.411  0.2904 -0.7881 -1.5370
 1193TIP3   OH225137   4.610   4.116   1.935 -0.3529  0.0619 -0.8375
 1193TIP3    H125138   4.696   4.074   1.940  0.0999  1.1214  1.3114
 1193TIP3    H225139   4.548   4.044   1.934  0.5086 -0.7092 -0.2415
 1194TIP3   OH225140   4.897   5.030   6.351 -0.4885  0.1973 -0.2546
 1194TIP3    H125141   4.837   5.009   6.423  0.0992  0.4044  0.2955
 1194TIP3    H225142   4.881   5.123   6.333 -1.5327 -0.1491 -1.2427
 1195TIP3   OH225143   1.037   4.141   7.131 -0.1210 -0.4150  0.5592
 1195TIP3    H125144   1.020   4.200   7.057 -1.6338 -1.3396  0.1264
 1195TIP3    H225145   1.114   4.179   7.174 -1.2091  2.0738  0.5003
 1196TIP3   OH225146   5.695   2.253   7.339 -0.4596 -0.1174 -0.1615
 1196TIP3    H125147   5.720   2.224   7.426  2.6515  2.3641 -0.0286
 1196TIP3    H225148   5.627   2.319   7.354  2.0810  2.4685  0.8314
 1197TIP3   OH225149   2.997   6.544   8.510  0.7058  0.0404 -0.9463
 1197TIP3    H125150   3.069   6.545   8.448  0.6605  1.7255 -1.0195
 1197TIP3    H225151   2.971   6.636   8.518  1.1207 -0.0040  2.0135
 1198TIP3   OH225152   4.287   1.576   6.778  0.3066 -0.6332  0.2035
 1198TIP3    H125153   4.245   1.653   6.740  0.2241 -0.0991  1.3294
 1198TIP3    H225154   4.256   1.503   6.725 -0.5770 -0.0294 -0.1287
 1199TIP3   OH225155   4.251   5.417   7.611  0.1818  0.3620  0.8366
 1199TIP3    H125156   4.215   5.505   7.607  0.5664  0.5540  1.3573
 1199TIP3    H225157   4.267   5.393   7.520 -1.0393  0.3507  0.6082
 1200TIP3   OH225158   0.143   4.836   6.757  0.2568 -0.2428 -0.5635
 1200TIP3    H125159   0.132   4.929   6.779 -0.7671 -0.1028 -1.5882
 1200TIP3    H225160   0.064   4.794   6.791  0.4745 -0.6562 -0.5617
 1201TIP3   OH225161   0.163   1.942   8.669  0.3512 -0.6344  0.9556
 1201TIP3    H125162   0.226   2.006   8.637 -0.9360 -0.2372 -0.9561
 1201TIP3    H225163   0.082   1.992   8.681  0.1335 -1.2976  2.5271
 1202TIP3   OH225164   2.643   3.693   0.092  0.5480  0.1355 -0.1130
 1202TIP3    H125165   2.677   3.782   0.080  0.9210  0.2980  1.8343
 1202TIP3    H225166   2.718   3.643   0.123 -0.0032 -0.5170  0.1873
 1203TIP3   OH225167   1.723   5.700   7.118 -0.6654  0.0129 -0.2517
 1203TIP3    H125168   1.744   5.656   7.036  0.5911  0.8922 -0.4423
 1203TIP3    H225169   1.637   5.739   7.104 -1.2375 -1.3129 -0.5098
 1204TIP3   OH225170   1.582   4.949   1.163  0.3067 -0.1037 -0.0485
 1204TIP3    H125171   1.557   4.895   1.088  1.4660  0.3946 -0.8259
 1204TIP3    H225172   1.503   5.001   1.182 -0.2554 -0.8142 -0.4019
 1205TIP3   OH225173   0.846   3.970   6.745  0.3080 -0.3850  0.1733
 1205TIP3    H125174   0.907   4.033   6.707 -0.4043  0.2191  0.0142
 1205TIP3    H225175   0.821   3.913   6.672 -0.3125  0.1765 -0.0630
 1206TIP3   OH225176   0.757   0.863   1.401  0.3583  0.5779  0.1354
 1206TIP3    H125177   0.837   0.880   1.352  0.1058 -1.2027 -0.9727
 1206TIP3    H225178   0.693   0.837   1.335 -0.1757 -1.2648  1.3146
 1207TIP3   OH225179   6.467   5.826   7.506 -0.0256  0.9193  0.0010
 1207TIP3    H125180   6.436   5.855   7.420  0.0757  1.2260  0.0663
 1207TIP3    H225181   6.420   5.882   7.568  1.6580  2.3313  0.0516
 1208TIP3   OH225182   0.402   2.094   8.664  0.3727  0.3295 -0.1539
 1208TIP3    H125183   0.476   2.052   8.708  1.0978  0.4590 -1.2195
 1208TIP3    H225184   0.379   2.168   8.721  0.4305 -0.2680  0.6679
 1209TIP3   OH225185   3.211   1.047   1.029  0.3873 -0.2243  0.0878
 1209TIP3    H125186   3.258   0.971   1.064  0.4782 -0.5066 -0.6197
 1209TIP3    H225187   3.261   1.122   1.060  1.0838 -0.5087 -0.3188
 1210TIP3   OH225188   5.065   2.424   8.749 -0.1864 -0.1539 -0.1386
 1210TIP3    H125189   5.088   2.350   8.805  0.6148  0.1661 -0.0353
 1210TIP3    H225190   5.041   2.494   8.810  0.9348  0.2764 -0.1637
 1211TIP3   OH225191   3.215   3.854   6.672 -0.4948 -0.5987  0.4524
 1211TIP3    H125192   3.209   3.767   6.633 -1.1849 -0.7993  0.9861
 1211TIP3    H225193   3.126   3.874   6.700 -0.3214  0.2369  0.4333
 1212TIP3   OH225194   4.843   2.125   8.426  0.3257  0.5674  0.1557
 1212TIP3    H125195   4.890   2.114   8.509 -1.7172  0.3649  1.3592
 1212TIP3    H225196   4.875   2.053   8.371  2.6198  1.4274  0.2545
 1213TIP3   OH225197   5.333   3.866   0.724  0.2000  0.2747 -0.2182
 1213TIP3    H125198   5.266   3.866   0.655 -0.9764  1.1653  0.8658
 1213TIP3    H225199   5.282   3.866   0.805  1.5525 -0.2424  0.6442
 1214TIP3   OH225200   2.263   0.006   7.489  0.6539 -0.1902 -0.2597
 1214TIP3    H125201   2.235   0.013   7.398  1.7793 -0.2415 -0.6152
 1214TIP3    H225202   2.223  -0.075   7.521 -0.6818  0.4066 -0.3554
 1215TIP3   OH225203   6.785   1.204   2.455  0.1871 -0.3910  0.0327
 1215TIP3    H125204   6.864   1.188   2.404 -0.0736  1.3306 -1.0040
 1215TIP3    H225205   6.782   1.299   2.465 -2.9052 -0.1389 -1.9542
 1216TIP3   OH225206   3.688   6.620   1.833 -0.3811 -0.3792  0.1707
 1216TIP3    H125207   3.691   6.648   1.925 -0.7097 -1.4944  0.5451
 1216TIP3    H225208   3.633   6.685   1.790 -0.3565  0.0695  0.8028
 1217TIP3   OH225209   4.972   4.713   0.379  0.0064 -0.2832 -0.6893
 1217TIP3    H125210   5.034   4.759   0.322  0.5376  0.5588  0.5302
 1217TIP3    H225211   4.973   4.623   0.346 -0.1012  0.2735 -2.3259
 1218TIP3   OH225212   3.447   3.823   7.644 -0.2115  0.5266 -0.1685
 1218TIP3    H125213   3.535   3.855   7.660 -0.9181  1.9200  1.2215
 1218TIP3    H225214   3.459   3.734   7.610  1.6706  0.2244  1.1453
 1219TIP3   OH225215   5.893   1.156   8.720  0.4592 -1.0285 -0.5170
 1219TIP3    H125216   5.818   1.101   8.743  1.3185 -1.9031  0.2791
 1219TIP3    H225217   5.854   1.240   8.695 -0.8179 -1.6532 -0.7243
 1220TIP3   OH225218   6.430   0.314   0.977  0.0225 -0.9061  0.1115
 1220TIP3    H125219   6.372   0.346   0.908 -0.3775 -1.9972 -0.0932
 1220TIP3    H225220   6.415   0.219   0.977  1.4170 -1.1429  0.4194
 1221TIP3   OH225221   1.684   6.747   2.291 -0.1070  0.1096  0.3320
 1221TIP3    H125222   1.748   6.769   2.359 -0.4471 -0.9566  1.0206
 1221TIP3    H225223   1.735   6.704   2.222  0.0511  0.0549  0.4843
 1222TIP3   OH225224   2.612   3.518   8.076  0.5614  0.2608 -0.2147
 1222TIP3    H125225   2.553   3.463   8.127  1.5740 -0.1230  0.5799
 1222TIP3    H225226   2.570   3.604   8.074  0.3568  0.2030  1.0282
 1223TIP3   OH225227   3.891   1.560   1.623  0.0198 -0.2963 -0.3840
 1223TIP3    H125228   3.929   1.483   1.580 -0.3273  0.0113 -1.2598
 1223TIP3    H225229   3.882   1.533   1.715  1.1498 -0.8257 -0.4011
 1224TIP3   OH225230   5.645   4.295   8.605  0.0518 -0.3563  0.2453
 1224TIP3    H125231   5.628   4.266   8.695 -0.7302 -0.1102  0.1812
 1224TIP3    H225232   5.604   4.227   8.551 -0.4073  0.0500  0.0836
 1225TIP3   OH225233   2.511   0.044   0.046 -0.0231 -0.4066 -0.0535
 1225TIP3    H125234   2.464  -0.012  -0.016 -0.2365  0.5433 -0.7664
 1225TIP3    H225235   2.568   0.098  -0.009 -1.8008  2.0035  0.3193
 1226TIP3   OH225236   4.705   2.212   0.816  0.6494  0.4619  0.1046
 1226TIP3    H125237   4.646   2.142   0.790  0.1912  0.5736  0.8096
 1226TIP3    H225238   4.663   2.252   0.892  1.2079  1.1033  0.0894
 1227TIP3   OH225239   0.296   5.679   1.463  0.4604  0.2198  0.4951
 1227TIP3    H125240   0.202   5.694   1.475  0.6615  1.9941  0.1205
 1227TIP3    H225241   0.311   5.592   1.500 -1.0770  0.4812  1.8475
 1228TIP3   OH225242   3.209   3.334   7.262 -0.6637 -0.0195 -0.3898
 1228TIP3    H125243   3.174   3.317   7.175  1.2155 -1.5534 -0.9205
 1228TIP3    H225244   3.295   3.290   7.263 -0.3236  0.5272  1.9987
 1229TIP3   OH225245   4.747   2.025   8.081 -0.5516 -0.3537  0.0625
 1229TIP3    H125246   4.686   2.015   8.154 -0.7454 -2.1980 -0.3030
 1229TIP3    H225247   4.832   2.040   8.122 -0.8928  0.0534  0.6293
 1230TIP3   OH225248   5.030   3.846   1.239 -0.3337 -0.9093  0.0837
 1230TIP3    H125249   4.958   3.894   1.198  0.8827 -0.3057 -1.4169
 1230TIP3    H225250   5.019   3.861   1.333  0.6956  3.4422 -0.3029
 1231TIP3   OH225251   4.235   0.574   1.303 -0.2737  0.5029  0.0990
 1231TIP3    H125252   4.195   0.643   1.355  1.2616  0.8824  0.8316
 1231TIP3    H225253   4.253   0.615   1.218 -0.8127  0.5190 -0.0109
 1232TIP3   OH225254   0.751   6.481   0.024 -0.1435 -0.5662 -0.2060
 1232TIP3    H125255   0.820   6.484   0.091  0.4262 -0.4746 -0.7878
 1232TIP3    H225256   0.710   6.395   0.035  1.8708 -1.7759 -1.6335
 1233TIP3   OH225257   4.136   1.652   1.807 -0.3639 -0.1051  0.1630
 1233TIP3    H125258   4.062   1.700   1.771 -1.3492  0.2429  2.4223
 1233TIP3    H225259   4.114   1.641   1.900  1.9988 -0.8211  0.7192
 1234TIP3   OH225260   5.933   0.567   1.252  0.4046 -0.3870  0.3882
 1234TIP3    H125261   5.937   0.476   1.281  1.3323 -0.1644  0.9883
 1234TIP3    H225262   6.025   0.593   1.239  0.1224  0.2389 -0.5097
 1235TIP3   OH225263   5.347   2.205   6.977  0.5030 -0.4534  0.0138
 1235TIP3    H125264   5.368   2.216   6.885  3.0111 -0.3592  0.5037
 1235TIP3    H225265   5.408   2.265   7.022 -0.6778 -0.4608  1.7319
 1236TIP3   OH225266   5.544   1.377   7.897 -0.0953 -0.4017 -0.1456
 1236TIP3    H125267   5.618   1.320   7.878 -0.7323 -1.2905 -0.0626
 1236TIP3    H225268   5.480   1.319   7.939 -1.0034  0.2508 -0.5991
 1237TIP3   OH225269   5.979   2.698   7.667  0.2159 -0.1096  0.5048
 1237TIP3    H125270   5.978   2.677   7.760  0.2282  0.5491  0.6561
 1237TIP3    H225271   6.033   2.777   7.660 -1.7249  1.2678  0.2568
 1238TIP3   OH225272   5.771   0.700   6.792 -0.6062  0.2885 -0.4524
 1238TIP3    H125273   5.865   0.717   6.800 -0.5672  0.2025 -0.7187
 1238TIP3    H225274   5.765   0.636   6.721 -1.0704  2.3447 -2.3881
 1239TIP3   OH225275   0.174   1.137   1.684 -0.1387  0.2657 -0.1587
 1239TIP3    H125276   0.161   1.223   1.645 -0.6330  0.3525  0.1919
 1239TIP3    H225277   0.173   1.153   1.778  1.0342  0.0592 -0.0940
 1240TIP3   OH225278   1.714   1.386   0.920  0.1288  0.0224  0.2927
 1240TIP3    H125279   1.774   1.317   0.891 -1.2950 -1.0727 -0.1663
 1240TIP3    H225280   1.720   1.383   1.016  0.7354 -0.1160  0.2566
 1241TIP3   OH225281   3.451   6.421   8.817  0.4160  0.2582  0.3806
 1241TIP3    H125282   3.364   6.383   8.802  0.4628  0.8869 -2.0327
 1241TIP3    H225283   3.434   6.514   8.830  0.5996  0.0655  2.1981
 1242TIP3   OH225284   3.291   0.307   1.171  0.7867 -0.4102 -0.3128
 1242TIP3    H125285   3.265   0.258   1.249 -0.5781 -0.3748 -0.7063
 1242TIP3    H225286   3.287   0.399   1.198  0.4810 -0.4050 -0.3693
 1243TIP3   OH225287   5.403   6.383   0.561  0.0007  0.1202 -0.7175
 1243TIP3    H125288   5.404   6.391   0.466 -0.4175 -0.3990 -0.7708
 1243TIP3    H225289   5.312   6.363   0.582  0.6259 -2.9322 -0.4928
 1244TIP3   OH225290   0.227   4.633   1.731  0.0486  0.0498 -0.3656
 1244TIP3    H125291   0.276   4.604   1.807 -1.5845 -0.0067  0.7103
 1244TIP3    H225292   0.154   4.572   1.724 -1.3919  1.6850 -0.2710
 1245TIP3   OH225293   5.147   0.030   1.227 -0.1386 -0.0794 -0.0340
 1245TIP3    H125294   5.092   0.106   1.209 -1.0194 -1.0834 -1.9409
 1245TIP3    H225295   5.185   0.047   1.313 -0.6809  2.2636 -0.1963
 1246TIP3   OH225296   2.090   6.191   0.128  0.0880  0.2904 -1.0512
 1246TIP3    H125297   2.117   6.130   0.059  2.7205 -0.3656  0.4207
 1246TIP3    H225298   2.031   6.140   0.183 -0.3689  0.1610 -1.6479
 1247TIP3   OH225299   5.595   4.103   7.505  0.2996  0.0901 -0.0877
 1247TIP3    H125300   5.536   4.053   7.562  0.3739 -0.1193 -0.1978
 1247TIP3    H225301   5.609   4.185   7.553  0.3107 -0.0596  0.1671
 1248TIP3   OH225302   3.626   3.327   1.391  0.0712  0.3807  0.5958
 1248TIP3    H125303   3.630   3.360   1.481  2.8010  0.3692  0.5748
 1248TIP3    H225304   3.716   3.300   1.372 -0.9707 -2.0830 -1.2619
 1249TIP3   OH225305   0.876   4.838   7.725  0.0676  0.3723  0.0282
 1249TIP3    H125306   0.947   4.852   7.787 -1.4238  0.4337  1.8019
 1249TIP3    H225307   0.835   4.756   7.754 -0.1960 -0.0210 -1.3795
 1250TIP3   OH225308   5.047   2.654   0.803  0.2572  0.9456  0.8919
 1250TIP3    H125309   5.061   2.562   0.778  0.2278  0.4710  2.4670
 1250TIP3    H225310   4.975   2.650   0.867 -1.0398  2.3006 -0.4028
 1251TIP3   OH225311   3.434   5.950   0.357  0.8357 -0.1764 -0.4507
 1251TIP3    H125312   3.407   5.937   0.266 -0.2817 -0.2423 -0.1312
 1251TIP3    H225313   3.524   5.983   0.352  0.6057  0.3146 -1.5917
 1252TIP3   OH225314   0.397   0.040   1.653 -0.4582 -1.0237  0.2288
 1252TIP3    H125315   0.449   0.115   1.624 -2.5964  0.3290 -0.3071
 1252TIP3    H225316   0.391  -0.016   1.576 -0.4392 -0.8189  0.0767
 1253TIP3   OH225317   6.164   4.524   8.052 -0.4502 -0.3952  0.3558
 1253TIP3    H125318   6.176   4.531   8.147 -0.9571  0.2651  0.3781
 1253TIP3    H225319   6.070   4.535   8.039 -0.5487 -1.6765 -0.1344
 1254TIP3   OH225320   0.366   3.755   0.276  0.3283  0.5989  0.1227
 1254TIP3    H125321   0.307   3.774   0.203 -0.4988  0.5856  0.7698
 1254TIP3    H225322   0.453   3.770   0.241 -0.0751  0.9405 -0.7645
 1255TIP3   OH225323   5.785   6.352   7.123 -0.2446 -0.0324 -0.1110
 1255TIP3    H125324   5.733   6.431   7.106  2.2101  1.7638  0.2250
 1255TIP3    H225325   5.759   6.324   7.211 -1.4128  0.1609 -0.3819
 1256TIP3   OH225326   5.109   4.727   8.810 -0.1423  0.1127 -0.0690
 1256TIP3    H125327   5.099   4.778   8.890 -0.7928 -2.0287  1.3115
 1256TIP3    H225328   5.117   4.636   8.840 -1.0401 -0.8495 -2.4498
 1257TIP3   OH225329   3.175   2.072   0.203 -0.1178 -0.5257  0.4870
 1257TIP3    H125330   3.221   2.143   0.157  0.9625 -1.9545 -0.7892
 1257TIP3    H225331   3.082   2.089   0.187  0.1505  0.2710 -0.3384
 1258TIP3   OH225332   6.332   2.160   8.087  0.1800  0.0296 -0.1968
 1258TIP3    H125333   6.348   2.087   8.147  3.6361  0.1621 -0.7398
 1258TIP3    H225334   6.263   2.129   8.028  2.4083 -3.4545 -1.2436
 1259TIP3   OH225335   4.493   4.636   1.369  0.0026 -0.0625 -0.0458
 1259TIP3    H125336   4.408   4.680   1.368 -0.0152 -0.0841  0.4528
 1259TIP3    H225337   4.482   4.565   1.432  0.5815  0.3220  0.5007
 1260TIP3   OH225338   2.240   1.341   1.325  0.4504 -0.1684 -0.1877
 1260TIP3    H125339   2.172   1.313   1.387 -0.6832  0.6632 -1.0089
 1260TIP3    H225340   2.192   1.389   1.258  1.5927 -1.3331 -1.9210
 1261TIP3   OH225341   3.571   5.365   8.820 -0.0518 -0.0501 -0.0512
 1261TIP3    H125342   3.516   5.295   8.785  1.0519 -0.9069 -0.1064
 1261TIP3    H225343   3.528   5.389   8.902 -0.4366 -0.8088 -0.0193
 1262TIP3   OH225344   3.008   4.220   0.172  0.1798  0.4850 -0.4978
 1262TIP3    H125345   2.995   4.148   0.234 -0.1759  0.1682 -0.9349
 1262TIP3    H225346   2.998   4.180   0.086  0.1564  1.0258 -0.7501
 1263TIP3   OH225347   1.589   6.253   7.652 -0.6728 -0.3705  0.3071
 1263TIP3    H125348   1.585   6.294   7.738  0.2004  0.9493 -0.2594
 1263TIP3    H225349   1.610   6.161   7.671 -1.3318 -0.3006  1.5233
 1264TIP3   OH225350   6.055   0.436   8.438 -0.6816  0.1258  0.3544
 1264TIP3    H125351   6.118   0.364   8.436 -2.3849 -1.4015 -0.5585
 1264TIP3    H225352   6.053   0.464   8.530 -0.4795 -1.4431  0.8558
 1265TIP3   OH225353   6.346   2.663   6.864  0.0100  0.0193 -0.4318
 1265TIP3    H125354   6.365   2.685   6.773 -1.1257  2.2763 -0.1866
 1265TIP3    H225355   6.255   2.631   6.863  0.5636 -1.6901 -0.2858
 1266TIP3   OH225356   5.416   4.341   1.295 -0.4084  0.1382  0.1945
 1266TIP3    H125357   5.324   4.316   1.290 -0.3576  0.1758 -1.3757
 1266TIP3    H225358   5.463   4.269   1.253  0.2999  0.0944  1.0235
 1267TIP3   OH225359   5.341   6.516   7.290 -0.3051  0.5614  0.7704
 1267TIP3    H125360   5.267   6.568   7.260 -0.8000 -0.0792  0.8750
 1267TIP3    H225361   5.407   6.581   7.316 -0.7965  1.1293  0.6040
 1268TIP3   OH225362   2.709   5.492   8.017  0.1881 -0.4403  0.3082
 1268TIP3    H125363   2.731   5.415   7.965  0.4411 -0.0889 -0.1095
 1268TIP3    H225364   2.620   5.515   7.990  0.9603  0.7974 -1.2906
 1269TIP3   OH225365   5.683   1.109   0.124  0.7560 -0.0818  0.0409
 1269TIP3    H125366   5.640   1.121   0.039  0.9143 -1.3948 -0.2418
 1269TIP3    H225367   5.613   1.084   0.184  0.8398 -0.4354 -0.0060
 1270TIP3   OH225368   6.791   1.709   7.008 -0.4053 -0.9105  0.1585
 1270TIP3    H125369   6.780   1.630   6.956 -1.6213 -1.3922  1.1002
 1270TIP3    H225370   6.728   1.771   6.970  0.7624 -0.2374 -0.7829
 1271TIP3   OH225371   3.962   2.536   7.817  0.2497 -0.1831 -0.2554
 1271TIP3    H125372   3.926   2.459   7.861 -0.4861 -0.3889 -1.1925
 1271TIP3    H225373   3.945   2.608   7.878 -0.4507 -0.5185 -0.0382
 1272TIP3   OH225374   5.146   4.213   0.951  0.4116 -0.4228 -0.4812
 1272TIP3    H125375   5.085   4.139   0.955  0.0072 -0.0384  2.0599
 1272TIP3    H225376   5.205   4.191   0.879 -0.2141 -2.8196 -0.3694
 1273TIP3   OH225377   6.171   4.160   1.456  0.1901 -0.0540  0.0527
 1273TIP3    H125378   6.125   4.164   1.540 -0.4361  0.6241 -0.3152
 1273TIP3    H225379   6.164   4.068   1.430  0.4233 -0.2787  0.7570
 1274TIP3   OH225380   0.817   4.882   6.992  0.0653  0.5134  0.2215
 1274TIP3    H125381   0.853   4.903   6.905 -1.5758 -0.6919 -0.8004
 1274TIP3    H225382   0.886   4.831   7.034  0.4608  0.1635 -0.8178
 1275TIP3   OH225383   3.348   1.122   7.897  0.0837 -0.0832  0.1206
 1275TIP3    H125384   3.382   1.212   7.899 -0.3193  0.0635  0.3881
 1275TIP3    H225385   3.312   1.112   7.809 -1.1989  0.5162  0.5553
 1276TIP3   OH225386   0.233   6.288   0.830 -0.3612  0.0095  0.0734
 1276TIP3    H125387   0.192   6.359   0.880  2.0462 -0.0542  2.3712
 1276TIP3    H225388   0.178   6.211   0.849 -0.6337  0.4230  1.0316
 1277TIP3   OH225389   3.184   5.477   8.436 -0.1761  0.1280 -0.0979
 1277TIP3    H125390   3.201   5.395   8.483 -1.4915 -0.1615 -0.0791
 1277TIP3    H225391   3.153   5.537   8.504  0.9247  0.7132 -0.0840
 1278TIP3   OH225392   4.119   0.210   6.353 -0.2562  0.3860  0.8657
 1278TIP3    H125393   4.149   0.230   6.441  1.8871  0.9055  0.0732
 1278TIP3    H225394   4.199   0.189   6.304 -1.4102 -0.1797 -0.8884
 1279TIP3   OH225395   1.544   0.882   7.425  0.2723  0.8765  0.6153
 1279TIP3    H125396   1.517   0.832   7.502 -0.9218  1.2392  0.4504
 1279TIP3    H225397   1.602   0.950   7.460  1.8928 -0.5442  0.8429
 1280TIP3   OH225398   1.149   1.688   8.812 -0.4924 -0.1749 -0.2821
 1280TIP3    H125399   1.059   1.712   8.789 -1.7734 -3.1352  1.0972
 1280TIP3    H225400   1.155   1.703   8.906  0.6117  0.3265 -0.4160
 1281TIP3   OH225401   5.425   3.448   6.968  0.0414  0.2526 -0.0364
 1281TIP3    H125402   5.451   3.500   6.893 -1.0318  1.9492  0.7060
 1281TIP3    H225403   5.505   3.403   6.996  0.3969 -0.6393 -2.3042
 1282TIP3   OH225404   1.598   6.421   7.456 -0.3700 -0.1858  0.1045
 1282TIP3    H125405   1.600   6.362   7.531 -0.6131  0.3917  0.5794
 1282TIP3    H225406   1.515   6.468   7.465 -0.1954  0.2068 -0.2837
 1283TIP3   OH225407   1.721   1.152   2.039 -0.3822 -0.4675 -0.1700
 1283TIP3    H125408   1.717   1.168   2.133 -1.5192 -2.0032  0.0781
 1283TIP3    H225409   1.752   1.235   2.002 -0.3377  0.2999  1.5021
 1284TIP3   OH225410   4.436   6.204   1.200  0.4515  0.3684 -0.0088
 1284TIP3    H125411   4.481   6.271   1.251 -0.7120  1.4604 -0.3555
 1284TIP3    H225412   4.371   6.168   1.260  1.3280 -0.7594  0.2989
 1285TIP3   OH225413   6.589   4.163   7.898  0.2064  0.2266  0.1000
 1285TIP3    H125414   6.520   4.218   7.936 -0.0289  0.8259 -1.1345
 1285TIP3    H225415   6.565   4.073   7.923 -1.7233  0.2953 -1.2825
 1286TIP3   OH225416   2.710   6.088   7.188  0.2846 -0.4178  0.8600
 1286TIP3    H125417   2.781   6.139   7.149 -0.7247  0.9458  0.7426
 1286TIP3    H225418   2.708   6.116   7.280 -0.0263 -0.5378  0.8898
 1287TIP3   OH225419   5.887   1.114   7.881 -0.1768 -0.2475  0.0612
 1287TIP3    H125420   5.843   1.061   7.948  0.4643 -0.7855  0.0671
 1287TIP3    H225421   5.815   1.151   7.828 -0.6199 -1.7620 -0.4336
 1288TIP3   OH225422   5.312   5.525   7.580  0.1193  0.0919  0.1226
 1288TIP3    H125423   5.250   5.588   7.616 -0.6028 -1.5466  1.8907
 1288TIP3    H225424   5.352   5.571   7.505  0.9139  3.2738  2.2928
 1289TIP3   OH225425   2.718   6.226   7.430  0.0867 -0.5766  0.5265
 1289TIP3    H125426   2.656   6.297   7.416  0.9391  0.4872  1.9690
 1289TIP3    H225427   2.799   6.269   7.458  1.1697 -2.0002 -0.2476
 1290TIP3   OH225428   4.824   5.492   7.184 -0.0524 -0.6068 -0.0250
 1290TIP3    H125429   4.840   5.442   7.264 -1.1993  1.8153  1.8362
 1290TIP3    H225430   4.753   5.444   7.140 -0.4036 -1.1923  1.1505
 1291TIP3   OH225431   6.692   4.377   1.479 -0.3442  0.2637  0.0174
 1291TIP3    H125432   6.606   4.392   1.517 -0.9450 -0.5889 -0.9348
 1291TIP3    H225433   6.679   4.390   1.385  0.3877 -0.5862 -0.2149
 1292TIP3   OH225434   3.442   2.745   1.217  0.1880  0.4589 -0.5642
 1292TIP3    H125435   3.511   2.757   1.282  0.4493  0.0886 -0.7686
 1292TIP3    H225436   3.484   2.696   1.146 -0.5700 -0.7399 -0.2063
 1293TIP3   OH225437   0.194   2.796   2.154 -0.8784  0.5403  0.2188
 1293TIP3    H125438   0.274   2.750   2.178  0.2451 -1.5120 -5.6513
 1293TIP3    H225439   0.218   2.889   2.152  1.1700  0.0330 -0.5649
 1294TIP3   OH225440   2.946   2.758   7.577  0.0586 -0.5360 -0.3067
 1294TIP3    H125441   2.854   2.767   7.551  0.2529 -0.7943 -1.0956
 1294TIP3    H225442   2.951   2.806   7.660 -0.6616 -0.0185 -0.5430
 1295TIP3   OH225443   3.171   3.480   0.668 -0.6356  0.2009 -0.2066
 1295TIP3    H125444   3.256   3.473   0.624 -0.8142 -1.6303 -0.3594
 1295TIP3    H225445   3.172   3.566   0.709  0.7837  0.7219 -1.2419
 1296TIP3   OH225446   4.539   1.093   7.350  0.4859  0.1339  0.2749
 1296TIP3    H125447   4.595   1.018   7.368  1.7364  0.9539 -0.0966
 1296TIP3    H225448   4.569   1.127   7.265 -1.1418  0.0927 -0.3613
 1297TIP3   OH225449   6.174   5.132   8.673  0.8025  0.2766 -0.1816
 1297TIP3    H125450   6.238   5.190   8.634 -1.1930  2.7835 -0.0288
 1297TIP3    H225451   6.098   5.188   8.689 -0.9387 -2.2028  0.8896
 1298TIP3   OH225452   2.726   2.710   1.558 -0.2794 -0.2912 -0.1564
 1298TIP3    H125453   2.754   2.639   1.500  1.1198  1.1552 -1.3303
 1298TIP3    H225454   2.759   2.684   1.645  1.3233 -0.4887 -0.8011
 1299TIP3   OH225455   2.655   0.237   8.058  0.4368 -0.9683 -0.1441
 1299TIP3    H125456   2.564   0.243   8.029  0.2679 -0.4799  0.4797
 1299TIP3    H225457   2.650   0.240   8.153  1.3039  2.3732 -0.0846
 1300TIP3   OH225458   4.822   2.655   7.534  0.2029  0.9072  0.4878
 1300TIP3    H125459   4.853   2.720   7.597  2.0983 -1.0161  1.6975
 1300TIP3    H225460   4.883   2.661   7.461 -1.2813  2.3210 -0.6777
 1301TIP3   OH225461   5.846   0.555   0.029 -0.1870 -0.1863  0.5775
 1301TIP3    H125462   5.871   0.621   0.094 -0.5855 -0.0782  0.6229
 1301TIP3    H225463   5.821   0.479   0.081  0.3645 -0.4122  0.5231
 1302TIP3   OH225464   0.378   2.507   6.492 -0.0218  0.8279  0.1062
 1302TIP3    H125465   0.457   2.453   6.494  0.6776  1.7710 -1.0090
 1302TIP3    H225466   0.311   2.449   6.457  0.5191  0.4253 -0.2852
 1303TIP3   OH225467   3.507   2.410   1.224 -0.8657  0.3158  0.2522
 1303TIP3    H125468   3.582   2.469   1.222 -1.6936  1.3734 -0.9241
 1303TIP3    H225469   3.516   2.356   1.146  0.6202 -2.1887  1.9748
 1304TIP3   OH225470   0.520   3.455   8.592 -0.2641 -0.3446 -0.0391
 1304TIP3    H125471   0.578   3.379   8.596  0.6865  0.3818  0.3984
 1304TIP3    H225472   0.487   3.456   8.502 -0.7484 -1.5918  0.0986
 1305TIP3   OH225473   0.331   1.523   7.804 -0.2325  0.2678 -0.1149
 1305TIP3    H125474   0.368   1.480   7.881 -0.1127  0.0332 -0.3024
 1305TIP3    H225475   0.238   1.500   7.805 -0.0521 -0.5144 -0.5562
 1306TIP3   OH225476   3.880   1.287   1.581  0.1390  0.0204 -0.2843
 1306TIP3    H125477   3.804   1.244   1.619 -0.0636 -1.1275 -1.8650
 1306TIP3    H225478   3.942   1.216   1.563  1.1137  0.7939 -0.1012
 1307TIP3   OH225479   0.792   3.245   8.057  0.0935 -0.4065  0.1786
 1307TIP3    H125480   0.825   3.334   8.073  0.6413 -0.5594 -0.0856
 1307TIP3    H225481   0.731   3.229   8.128 -3.6406  1.9488 -2.1751
 1308TIP3   OH225482   0.234   3.268   1.380 -0.1687 -0.2020  0.3519
 1308TIP3    H125483   0.216   3.348   1.430  0.2154 -0.0422  0.2344
 1308TIP3    H225484   0.254   3.202   1.447  0.8438  0.1354  0.3965
 1309TIP3   OH225485   6.383   5.536   7.441 -0.2054  0.8387 -0.4187
 1309TIP3    H125486   6.423   5.549   7.527 -0.1417 -0.1883 -0.2846
 1309TIP3    H225487   6.360   5.625   7.411 -1.3315  1.1292  1.1785
 1310TIP3   OH225488   3.126   5.843   0.126 -0.2440  0.2590  0.1979
 1310TIP3    H125489   3.208   5.868   0.083 -0.1857  1.0672  0.7421
 1310TIP3    H225490   3.144   5.756   0.163  0.1214  0.1172 -0.3055
 1311TIP3   OH225491   5.242   2.090   2.313  0.0095 -0.1406 -0.0378
 1311TIP3    H125492   5.214   2.182   2.316  1.7570  0.4196  0.1499
 1311TIP3    H225493   5.187   2.050   2.246 -0.4920  1.1367 -0.4113
 1312TIP3   OH225494   4.856   6.106   1.412 -0.8071 -0.2965 -0.4542
 1312TIP3    H125495   4.937   6.099   1.362 -0.5487 -0.2095 -0.0459
 1312TIP3    H225496   4.792   6.055   1.361 -0.4842 -0.4149 -0.7414
 1313TIP3   OH225497   1.126   1.453   8.686  0.3463 -0.5706 -0.1078
 1313TIP3    H125498   1.164   1.522   8.741  1.5880 -1.0004 -0.3949
 1313TIP3    H225499   1.172   1.460   8.603 -1.1717 -0.2511 -0.9550
 1314TIP3   OH225500   2.998   4.374   1.878  0.0396 -0.1312 -0.3411
 1314TIP3    H125501   3.034   4.430   1.809 -0.7051  1.1491  0.2598
 1314TIP3    H225502   3.039   4.405   1.958 -0.6137 -0.2441  0.0447
 1315TIP3   OH225503   0.344   6.216   8.130 -0.3348  0.0019  0.0523
 1315TIP3    H125504   0.334   6.147   8.066  1.3492  1.0153 -1.3837
 1315TIP3    H225505   0.422   6.192   8.180 -0.5333  0.1858  0.4625
 1316TIP3   OH225506   3.009   3.281   2.053 -0.2092 -0.0063 -0.0885
 1316TIP3    H125507   3.031   3.199   2.008 -0.9659  0.9865 -2.3854
 1316TIP3    H225508   3.093   3.315   2.084  0.3135 -0.8223 -0.5711
 1317TIP3   OH225509   0.932   2.886   1.428 -0.6555  0.4676 -0.4525
 1317TIP3    H125510   0.950   2.831   1.504 -2.0819 -0.5984 -0.8423
 1317TIP3    H225511   0.962   2.973   1.454  1.5281 -0.4267  0.2176
 1318TIP3   OH225512   4.091   3.682   1.485 -0.6754  0.0375 -0.2544
 1318TIP3    H125513   4.181   3.690   1.514  0.3032  1.7391 -3.2480
 1318TIP3    H225514   4.041   3.741   1.542  0.7388  1.6240 -0.5765
 1319TIP3   OH225515   0.016   1.980   0.463 -0.4978  0.2134  0.4066
 1319TIP3    H125516  -0.013   1.906   0.516 -2.3419 -1.0153 -2.0848
 1319TIP3    H225517   0.111   1.975   0.465 -0.5509 -0.9519  1.9692
 1320TIP3   OH225518   2.652   3.741   8.323  0.1859 -0.1892  0.5341
 1320TIP3    H125519   2.600   3.725   8.244 -0.3978  1.9506  0.4184
 1320TIP3    H225520   2.735   3.697   8.308 -0.7778 -1.8051 -0.2398
 1321TIP3   OH225521   4.185   5.484   6.836 -0.2153  0.3464 -0.0653
 1321TIP3    H125522   4.193   5.469   6.742 -0.1121  0.2791 -0.0461
 1321TIP3    H225523   4.115   5.549   6.845 -0.5361  0.0131 -0.1565
 1322TIP3   OH225524   5.649   4.331   7.610 -0.3583  0.3115 -0.1402
 1322TIP3    H125525   5.716   4.291   7.665 -1.3881  0.2076  1.0901
 1322TIP3    H225526   5.681   4.420   7.594  0.5904 -0.0789 -0.5299
 1323TIP3   OH225527   3.008   0.243   6.665 -0.1328  0.1794  0.9193
 1323TIP3    H125528   2.919   0.221   6.637 -1.3663  0.9748  3.8500
 1323TIP3    H225529   3.058   0.162   6.652 -1.7706 -0.9085  1.0791
 1324TIP3   OH225530   2.028   2.675   1.536 -0.1972 -0.0125  0.1729
 1324TIP3    H125531   1.983   2.591   1.538  2.6556 -1.6598  1.0746
 1324TIP3    H225532   1.991   2.723   1.610  0.9393 -2.2114  2.3301
 1325TIP3   OH225533   4.751   2.815   2.130  0.2486 -0.1235 -0.1307
 1325TIP3    H125534   4.734   2.779   2.044 -1.3294 -0.3462  0.2405
 1325TIP3    H225535   4.798   2.897   2.113 -0.7221  0.2286 -1.2444
 1326TIP3   OH225536   4.609   6.093   7.902 -0.3394 -0.4081  0.1699
 1326TIP3    H125537   4.654   6.138   7.830 -1.0180  0.7040  0.4161
 1326TIP3    H225538   4.599   6.003   7.870 -0.1981 -0.0583 -0.9296
 1327TIP3   OH225539   4.063   5.852   0.034  0.5652 -0.1467  0.1866
 1327TIP3    H125540   4.032   5.933   0.076 -1.3144 -1.0527  0.6477
 1327TIP3    H225541   4.026   5.855  -0.054 -0.6113 -1.0880  0.6301
 1328TIP3   OH225542   4.687   5.002   7.376  0.3280 -0.1799  0.2330
 1328TIP3    H125543   4.611   5.013   7.433 -0.8529 -0.1260 -1.2979
 1328TIP3    H225544   4.762   5.026   7.431 -0.8896  1.3883  1.2899
 1329TIP3   OH225545   5.139   6.646   7.783  0.2058 -0.3212  0.7236
 1329TIP3    H125546   5.127   6.693   7.865 -0.4773  0.8325 -0.0030
 1329TIP3    H225547   5.050   6.621   7.756  0.2184  0.7497 -0.4455
 1330TIP3   OH225548   1.718   4.184   6.694  0.3921 -0.0175  0.0281
 1330TIP3    H125549   1.725   4.257   6.632  1.3649 -0.6594 -0.6492
 1330TIP3    H225550   1.761   4.216   6.774 -0.4663  0.6537  0.2314
 1331TIP3   OH225551   4.413   0.371   1.378  0.4195 -0.0702 -0.5055
 1331TIP3    H125552   4.393   0.448   1.325  0.7231  0.7329  0.5272
 1331TIP3    H225553   4.506   0.356   1.364  0.3045 -0.4398 -0.9257
 1332TIP3   OH225554   0.581   2.553   7.033 -0.6189  0.1929 -0.0890
 1332TIP3    H125555   0.675   2.544   7.049 -0.8805  0.4864  1.9761
 1332TIP3    H225556   0.564   2.500   6.956  1.0279 -1.0415  0.3455
 1333TIP3   OH225557   3.097   6.631   1.576 -0.7993  0.2566 -0.4384
 1333TIP3    H125558   3.118   6.693   1.647  2.5179 -1.7335  0.5511
 1333TIP3    H225559   3.018   6.586   1.607 -1.8921  2.2582 -0.0887
 1334TIP3   OH225560   4.608   1.724   6.990 -0.0633  0.1911  0.3018
 1334TIP3    H125561   4.636   1.634   7.007  1.2547  0.6721  0.8072
 1334TIP3    H225562   4.685   1.777   7.009  0.1038  1.2078 -2.5886
 1335TIP3   OH225563   3.336   2.069   1.840 -0.1267 -0.4952 -0.8263
 1335TIP3    H125564   3.290   2.042   1.919  0.8434 -0.7557 -0.3403
 1335TIP3    H225565   3.377   1.989   1.808  0.2048 -0.2128 -1.1087
 1336TIP3   OH225566   5.210   5.260   0.964  0.2092 -0.2395  0.5325
 1336TIP3    H125567   5.215   5.171   0.930  1.5549 -0.1762  0.4945
 1336TIP3    H225568   5.211   5.250   1.060  1.4869 -0.2578  0.5422
 1337TIP3   OH225569   6.472   2.742   0.600 -0.3253  0.7091  0.7506
 1337TIP3    H125570   6.439   2.687   0.529 -1.1625 -0.0692  1.7147
 1337TIP3    H225571   6.424   2.824   0.592 -0.5528  0.5532  0.5288
 1338TIP3   OH225572   3.600   2.371   2.201  0.3368 -0.4669  0.2689
 1338TIP3    H125573   3.564   2.284   2.219  1.6483 -1.1106 -0.1315
 1338TIP3    H225574   3.611   2.410   2.288 -0.6077 -0.5268  0.4336
 1339TIP3   OH225575   5.916   2.618   7.983  0.5612  0.4744 -0.0455
 1339TIP3    H125576   5.864   2.690   7.947  0.0625  0.2094  0.1415
 1339TIP3    H225577   5.853   2.563   8.028  0.8583 -0.3697 -0.6357
 1340TIP3   OH225578   4.932   2.970   7.334  0.4649  0.1063 -0.6977
 1340TIP3    H125579   4.932   2.930   7.421  1.1324  1.5983  0.0106
 1340TIP3    H225580   5.001   3.035   7.337 -1.0006  1.7856 -1.5826
 1341TIP3   OH225581   4.492   2.035   2.058 -0.6497  0.3202 -0.7486
 1341TIP3    H125582   4.429   2.056   1.989 -0.9644  0.3420 -0.4549
 1341TIP3    H225583   4.483   1.941   2.071  0.2701  0.1039 -1.5806
 1342TIP3   OH225584   0.987   2.863   7.609  0.0443  0.1031  0.4265
 1342TIP3    H125585   0.932   2.931   7.647 -1.1624  0.0788 -1.1968
 1342TIP3    H225586   0.937   2.782   7.622 -0.7717  0.1839 -1.7836
 1343TIP3   OH225587   4.588   2.275   7.551  0.2786 -0.4668  0.4011
 1343TIP3    H125588   4.542   2.303   7.630 -0.2266 -0.3590  0.0757
 1343TIP3    H225589   4.519   2.263   7.486  0.4563 -2.4562  0.5085
 1344TIP3   OH225590   1.431   4.711   0.737  0.7126  0.2513  0.3986
 1344TIP3    H125591   1.351   4.763   0.745  0.4817  0.4549 -2.2433
 1344TIP3    H225592   1.410   4.628   0.778 -1.1461  0.0504 -0.8254
 1345TIP3   OH225593   4.543   2.472   0.674 -0.3862  0.1480  0.1242
 1345TIP3    H125594   4.581   2.388   0.701 -0.2231  0.3702  0.5911
 1345TIP3    H225595   4.605   2.538   0.705  0.7446  0.3672 -2.3156
 1346TIP3   OH225596   2.702   2.922   0.687 -0.3152 -0.4446 -0.5457
 1346TIP3    H125597   2.715   2.895   0.597  0.5293 -1.1128 -0.2286
 1346TIP3    H225598   2.718   2.843   0.739  2.0996  0.5677  0.3947
 1347TIP3   OH225599   3.744   1.015   0.913  0.4101  0.1947  0.2006
 1347TIP3    H125600   3.673   1.038   0.973  0.7725 -2.3035  1.6992
 1347TIP3    H225601   3.722   1.060   0.831 -1.9611  0.8637  1.1346
 1348TIP3   OH225602   2.674   6.240   2.054 -0.8140  0.1542 -0.7426
 1348TIP3    H125603   2.643   6.315   2.002 -1.1545  0.7959  0.3398
 1348TIP3    H225604   2.597   6.213   2.104 -1.0976 -1.8758 -2.1360
 1349TIP3   OH225605   5.735   5.987   8.336 -0.0359 -0.4174 -0.1168
 1349TIP3    H125606   5.777   5.957   8.255  0.3128  1.5715 -0.7355
 1349TIP3    H225607   5.779   5.938   8.405  1.3524 -0.4488 -0.9719
 1350TIP3   OH225608   6.345   3.491   8.344 -0.0764 -0.3914  0.2422
 1350TIP3    H125609   6.288   3.428   8.389  0.9686 -1.2189  0.4290
 1350TIP3    H225610   6.428   3.488   8.392  0.7722 -0.6169 -1.1824
 1351TIP3   OH225611   5.348   0.797   7.601  0.6105 -0.0503  0.7643
 1351TIP3    H125612   5.304   0.740   7.664 -2.0945  0.6887 -0.2845
 1351TIP3    H225613   5.389   0.736   7.539  2.9845 -0.7812  2.8735
 1352TIP3   OH225614   1.660   3.785   1.282  0.2959 -0.0699  0.0755
 1352TIP3    H125615   1.586   3.827   1.239  0.4733  0.7742  0.5805
 1352TIP3    H225616   1.665   3.698   1.242  0.4416  0.6654 -1.5797
 1353TIP3   OH225617   3.471   3.828   6.767 -0.0188  0.0515 -0.1389
 1353TIP3    H125618   3.399   3.883   6.736 -0.6996 -1.1272 -0.7267
 1353TIP3    H225619   3.456   3.743   6.725  0.4722 -0.8716  1.4686
 1354TIP3   OH225620   1.249   2.667   2.291 -0.1352  0.7116 -0.2285
 1354TIP3    H125621   1.232   2.580   2.327  0.3141  0.0372 -1.5861
 1354TIP3    H225622   1.173   2.719   2.317 -0.7913 -0.3000 -0.0834
 1355TIP3   OH225623   1.358   5.500   7.035 -0.2758  0.3251  1.0159
 1355TIP3    H125624   1.446   5.478   7.003 -0.4947 -0.2314  0.7854
 1355TIP3    H225625   1.335   5.427   7.093 -1.2849 -0.4318 -0.2933
 1356TIP3   OH225626   5.042   6.735   0.461  0.0194  0.3848 -0.3173
 1356TIP3    H125627   5.063   6.817   0.416  1.0152  0.7409  0.7371
 1356TIP3    H225628   5.084   6.667   0.408  0.9396  0.7698 -0.1009
 1357TIP3   OH225629   5.370   3.195   8.102  0.0980  0.4193 -0.0383
 1357TIP3    H125630   5.286   3.151   8.108  1.2528 -1.8305  1.5041
 1357TIP3    H225631   5.351   3.287   8.117 -2.0494 -0.0794  0.5729
 1358TIP3   OH225632   6.206   2.374   1.756 -0.2896  0.5522  0.5057
 1358TIP3    H125633   6.250   2.355   1.673 -1.6321  1.0678 -0.3635
 1358TIP3    H225634   6.255   2.448   1.793  2.0327 -1.3932  1.5901
 1359TIP3   OH225635   4.779   1.403   8.753 -0.6788 -0.1251 -0.9101
 1359TIP3    H125636   4.720   1.475   8.776  0.1559  0.3953 -0.3453
 1359TIP3    H225637   4.796   1.358   8.836 -1.8685 -1.5402 -1.3741
 1360TIP3   OH225638   1.245   1.035   0.692  0.0771  0.5292  0.5792
 1360TIP3    H125639   1.184   1.093   0.646 -0.7396  1.4062  2.6437
 1360TIP3    H225640   1.190   0.989   0.755  0.8069 -2.1997 -0.6596
 1361TIP3   OH225641   1.298   5.109   2.496 -0.2339  0.2470 -0.2302
 1361TIP3    H125642   1.293   5.052   2.572 -2.2091  0.7269  0.0514
 1361TIP3    H225643   1.389   5.138   2.493  0.7170 -2.4361 -0.0661
 1362TIP3   OH225644   0.994   4.384   0.952  0.0197  0.2379 -0.7334
 1362TIP3    H125645   0.975   4.440   1.027  1.8881 -0.4723  0.3406
 1362TIP3    H225646   1.000   4.445   0.878  1.6927  1.4685  0.3495
 1363TIP3   OH225647   6.554   3.690   1.497 -0.1676 -0.2825 -0.2043
 1363TIP3    H125648   6.509   3.742   1.563  0.1848 -0.5217  0.2291
 1363TIP3    H225649   6.501   3.700   1.418 -1.7396 -1.6252  0.6225
 1364TIP3   OH225650   3.409   0.470   6.754  0.1686  0.2234  0.7442
 1364TIP3    H125651   3.491   0.424   6.737  0.3061  0.6755  0.1736
 1364TIP3    H225652   3.361   0.465   6.672 -0.5032 -0.2892  1.1644
 1365TIP3   OH225653   3.691   2.786   2.402 -0.3306 -0.2311  0.5494
 1365TIP3    H125654   3.652   2.860   2.450 -1.5337  0.8486 -1.8896
 1365TIP3    H225655   3.737   2.827   2.329 -0.7061 -1.8504 -0.6553
 1366TIP3   OH225656   3.839   3.054   2.000  0.0365  0.1411  0.1521
 1366TIP3    H125657   3.907   2.998   2.039 -1.4764 -2.1199 -0.2919
 1366TIP3    H225658   3.805   3.105   2.074  0.3027 -0.7692  0.9319
 1367TIP3   OH225659   2.787   5.392   6.135 -0.3514  0.2010  0.4154
 1367TIP3    H125660   2.746   5.305   6.125  0.3170  0.0620 -1.3521
 1367TIP3    H225661   2.715   5.453   6.123 -0.2581 -0.0625 -1.7188
 1368TIP3   OH225662   5.633   4.373   0.362 -0.0965 -0.5157  0.2248
 1368TIP3    H125663   5.545   4.378   0.399 -0.1142 -1.3103  0.2996
 1368TIP3    H225664   5.681   4.444   0.405 -0.4109 -0.7494  0.9771
 1369TIP3   OH225665   2.067   4.703   8.466 -0.0830  0.7600 -0.4397
 1369TIP3    H125666   2.115   4.621   8.464 -0.7652  0.3359  0.0806
 1369TIP3    H225667   2.098   4.748   8.545 -1.2399  0.0270  0.4735
 1370TIP3   OH225668   2.888   6.288   7.039  0.1171  0.3837 -0.4849
 1370TIP3    H125669   2.809   6.342   7.043  0.5715  1.2027 -1.9126
 1370TIP3    H225670   2.959   6.351   7.024  1.0088 -0.3773  0.4018
 1371TIP3   OH225671   1.100   1.057   1.363 -0.3494 -0.4432 -0.2373
 1371TIP3    H125672   1.135   1.026   1.279  0.3409  0.2102 -0.1985
 1371TIP3    H225673   1.088   0.977   1.414  2.2899 -0.6676  0.2023
 1372TIP3   OH225674   4.541   2.442   2.249 -0.2646  0.0861 -0.1802
 1372TIP3    H125675   4.589   2.518   2.282  1.4376  0.1609 -2.5627
 1372TIP3    H225676   4.462   2.479   2.209  0.4509  0.6155 -1.1388
 1373TIP3   OH225677   6.533   3.927   8.647 -0.1367  0.4916  0.2885
 1373TIP3    H125678   6.460   3.969   8.691  0.8424  2.1047  0.4434
 1373TIP3    H225679   6.600   3.995   8.640  1.2614 -0.8576 -0.0792
 1374TIP3   OH225680   4.368   0.661   1.595 -0.5537 -0.2899  0.4582
 1374TIP3    H125681   4.353   0.715   1.518 -0.5005 -0.5808  0.2434
 1374TIP3    H225682   4.283   0.622   1.614  0.1711 -3.3723 -1.8317
 1375TIP3   OH225683   0.942   5.053   2.369 -0.3389  0.0486 -0.3755
 1375TIP3    H125684   1.008   5.084   2.307  0.6783  0.7392  0.9909
 1375TIP3    H225685   0.939   4.958   2.356  0.6453  0.0553 -0.7203
 1376TIP3   OH225686   1.752   4.546   7.785 -0.8788 -0.0173  0.0165
 1376TIP3    H125687   1.828   4.586   7.827 -1.0547  0.1057  0.2201
 1376TIP3    H225688   1.733   4.604   7.710 -1.6758  0.7955  0.8218
 1377TIP3   OH225689   6.081   6.003   6.266 -0.3273 -0.4605  0.0829
 1377TIP3    H125690   6.078   5.941   6.339  0.3204 -0.0384  0.4851
 1377TIP3    H225691   5.990   6.029   6.253 -0.7483 -2.1849 -0.7150
 1378TIP3   OH225692   1.199   5.187   1.106 -0.4420  0.4961 -0.0876
 1378TIP3    H125693   1.216   5.281   1.098  1.9472  0.0119 -1.6378
 1378TIP3    H225694   1.281   5.150   1.138 -1.2252 -1.1127  0.1641
 1379TIP3   OH225695   0.591   3.805   0.072  0.0712 -0.2664 -0.6338
 1379TIP3    H125696   0.669   3.840   0.028 -0.5153 -0.3203 -1.7658
 1379TIP3    H225697   0.519   3.824   0.011 -1.1028  1.3382  1.1254
 1380TIP3   OH225698   1.301   6.350   0.768  0.1374 -0.0516  0.7900
 1380TIP3    H125699   1.312   6.267   0.815 -0.9437 -0.6773 -0.0358
 1380TIP3    H225700   1.208   6.370   0.774 -0.6151 -1.4203 -3.0308
 1381TIP3   OH225701   0.123   6.316   7.034  0.0617  0.4786 -0.4131
 1381TIP3    H125702   0.063   6.242   7.044  0.8020 -0.1641 -0.6186
 1381TIP3    H225703   0.116   6.340   6.942  2.2158 -1.4715 -1.1680
 1382TIP3   OH225704   3.580   0.594   8.673  0.2781 -0.2477 -0.3150
 1382TIP3    H125705   3.601   0.665   8.612 -0.3661  0.5064  0.3069
 1382TIP3    H225706   3.501   0.624   8.718  0.4063 -1.0483  0.4780
 1383TIP3   OH225707   0.124   0.487   6.961 -0.1422 -0.1087  0.1844
 1383TIP3    H125708   0.069   0.564   6.973 -1.7051 -1.0727 -0.5391
 1383TIP3    H225709   0.157   0.494   6.872 -1.1334 -0.7763 -0.2498
 1384TIP3   OH225710   3.298   0.480   7.995 -0.2986  0.7769  0.8816
 1384TIP3    H125711   3.207   0.469   8.023 -0.4520  1.7881  0.7971
 1384TIP3    H225712   3.349   0.435   8.062 -0.9733 -3.2950 -1.0115
 1385TIP3   OH225713   5.771   3.655   7.014  0.1640 -0.0354 -0.0863
 1385TIP3    H125714   5.754   3.590   7.082 -0.0722 -0.1907 -0.2940
 1385TIP3    H225715   5.734   3.617   6.935  1.4767 -0.3941 -0.5578
 1386TIP3   OH225716   2.866   3.727   8.673 -0.0511  0.0533  0.2190
 1386TIP3    H125717   2.912   3.643   8.676  1.0569  0.2092 -4.2187
 1386TIP3    H225718   2.774   3.703   8.661  0.3846 -0.7069 -2.1621
 1387TIP3   OH225719   3.083   5.746   1.156  0.3222  0.0518 -0.0215
 1387TIP3    H125720   2.998   5.777   1.187 -1.5178 -3.1353 -1.3067
 1387TIP3    H225721   3.146   5.782   1.218 -2.0182  1.9055  1.4815
 1388TIP3   OH225722   2.867   4.138   1.876 -1.2533 -0.1078  0.7538
 1388TIP3    H125723   2.886   4.231   1.879  0.4996 -0.3935 -0.0667
 1388TIP3    H225724   2.926   4.099   1.941  1.9121 -1.0955 -2.3497
 1389TIP3   OH225725   2.591   0.302   1.865 -0.3459  0.0243  0.7444
 1389TIP3    H125726   2.673   0.253   1.878 -0.5912 -1.5427 -2.5915
 1389TIP3    H225727   2.606   0.354   1.787 -1.5789  2.1459  1.8340
 1390TIP3   OH225728   0.074   3.747   7.914  0.2938  0.1518 -0.4242
 1390TIP3    H125729   0.077   3.842   7.924  1.8955  0.0828  0.1111
 1390TIP3    H225730   0.118   3.730   7.830 -0.2713 -0.1096 -0.6754
 1391TIP3   OH225731   3.486   3.328   1.997 -0.2466  0.4540 -0.0156
 1391TIP3    H125732   3.554   3.367   2.051  0.3770 -0.3956 -0.1695
 1391TIP3    H225733   3.523   3.245   1.968 -1.0363  0.3509 -0.7662
 1392TIP3   OH225734   3.224   2.972   8.063 -0.1902 -0.3926  0.1559
 1392TIP3    H125735   3.145   2.944   8.017 -0.6081  2.2092 -0.9347
 1392TIP3    H225736   3.295   2.951   8.003 -0.4855  0.6300 -0.5970
 1393TIP3   OH225737   0.395   2.205   8.129  0.3476 -0.6783  0.6615
 1393TIP3    H125738   0.414   2.257   8.051 -0.6679 -2.0381 -0.5673
 1393TIP3    H225739   0.314   2.242   8.163 -1.7025 -2.7269 -1.5657
 1394TIP3   OH225740   6.711   1.970   1.148  0.7251 -0.5219  0.5684
 1394TIP3    H125741   6.692   1.899   1.087 -2.6044 -1.0801  2.0302
 1394TIP3    H225742   6.732   2.045   1.093 -1.5428 -1.1609 -1.2901
 1395TIP3   OH225743   6.736   0.355   0.044 -0.8562  0.1352 -0.0189
 1395TIP3    H125744   6.677   0.430   0.042 -1.8407 -0.5932 -2.6527
 1395TIP3    H225745   6.816   0.388   0.086 -1.3138  2.6220 -0.9454
 1396TIP3   OH225746   5.234   4.719   1.309 -0.3866  0.3022  0.0560
 1396TIP3    H125747   5.220   4.675   1.393 -0.8844  0.0749 -0.1434
 1396TIP3    H225748   5.303   4.668   1.266 -0.2542  0.3160  0.2478
 1397TIP3   OH225749   1.507   6.749   8.414 -0.0315 -0.0456  0.4306
 1397TIP3    H125750   1.555   6.818   8.460 -0.8948  2.6085 -2.3157
 1397TIP3    H225751   1.571   6.680   8.398  2.0784  1.9861 -0.3702
 1398TIP3   OH225752   0.469   1.646   8.111 -0.1157 -0.5009 -0.5790
 1398TIP3    H125753   0.496   1.678   8.197  0.4997 -0.5192 -0.7621
 1398TIP3    H225754   0.458   1.551   8.123  2.1957 -0.8867 -1.0483
 1399TIP3   OH225755   1.521   0.179   2.108  0.0042 -0.3475  0.1117
 1399TIP3    H125756   1.448   0.239   2.124 -0.1585  0.5363 -3.2096
 1399TIP3    H225757   1.489   0.094   2.139 -0.4439  0.7964  3.2202
 1400TIP3   OH225758   2.961   6.009   8.108  0.1691 -0.5153  0.3042
 1400TIP3    H125759   2.955   6.105   8.117  2.2370 -0.2162 -0.8625
 1400TIP3    H225760   2.952   5.993   8.014  0.2078 -1.4264  0.4478
 1401TIP3   OH225761   2.151   5.452   0.213 -0.0383 -0.3040  0.0921
 1401TIP3    H125762   2.134   5.509   0.138  0.4760  0.0797  0.2566
 1401TIP3    H225763   2.240   5.420   0.199  0.3410  0.3437  0.8925
 1402TIP3   OH225764   2.793   5.462   8.274  0.0851  0.7731 -0.6333
 1402TIP3    H125765   2.771   5.472   8.181 -0.0599  3.0052 -0.3996
 1402TIP3    H225766   2.877   5.506   8.284  1.0488 -1.1037 -0.0320
 1403TIP3   OH225767   5.658   6.414   6.564 -0.1644 -0.9566  0.4845
 1403TIP3    H125768   5.738   6.393   6.516  0.4369  0.6257  0.7336
 1403TIP3    H225769   5.587   6.390   6.504  0.5568  0.2004 -0.8900
 1404TIP3   OH225770   4.184   1.358   6.647 -0.0451  0.1284  0.2670
 1404TIP3    H125771   4.200   1.285   6.706 -0.9533 -0.2827  0.0263
 1404TIP3    H225772   4.092   1.347   6.620 -0.6181  2.0785  1.2301
 1405TIP3   OH225773   0.149   1.481   8.042  0.0413 -0.3897 -0.2996
 1405TIP3    H125774   0.191   1.403   8.006  1.3415  0.7103 -1.2539
 1405TIP3    H225775   0.064   1.486   7.998  0.7609 -0.2079 -1.7119
 1406TIP3   OH225776   6.484   0.867   8.611  0.1915 -0.0750  0.4278
 1406TIP3    H125777   6.543   0.841   8.541 -0.5049  0.2477 -0.2842
 1406TIP3    H225778   6.420   0.924   8.569  0.9759  1.8524  1.7097
 1407TIP3   OH225779   5.512   4.700   0.225 -0.0395  0.1914  0.2371
 1407TIP3    H125780   5.433   4.650   0.247 -0.1335  0.5213  0.6687
 1407TIP3    H225781   5.481   4.765   0.162 -0.0123  0.0087  0.0342
 1408TIP3   OH225782   5.101   2.247   7.092 -0.4211  0.0944 -0.4955
 1408TIP3    H125783   5.189   2.224   7.063 -0.0594  1.5916 -0.6327
 1408TIP3    H225784   5.045   2.178   7.055  0.2110  1.0676 -3.4956
 1409TIP3   OH225785   0.802   3.807   6.272 -0.4361  0.6879 -0.0656
 1409TIP3    H125786   0.868   3.742   6.246 -0.7939  0.0534  0.5672
 1409TIP3    H225787   0.721   3.777   6.231 -1.0030 -0.3109  1.6506
 1410TIP3   OH225788   4.451   6.391   0.689  0.3294  0.0909 -0.1689
 1410TIP3    H125789   4.477   6.444   0.614  0.1959 -0.3949 -0.5627
 1410TIP3    H225790   4.470   6.301   0.663 -3.0200 -0.4925 -1.0725
 1411TIP3   OH225791   3.991   3.966   7.685 -0.2052 -0.1817 -0.4730
 1411TIP3    H125792   4.008   4.051   7.644 -1.7212  0.4172  0.1061
 1411TIP3    H225793   3.990   3.904   7.611 -0.0780  0.4382 -1.0039
 1412TIP3   OH225794   2.215   0.453   8.600 -0.2358 -0.2967 -0.2233
 1412TIP3    H125795   2.255   0.390   8.540  1.0058  0.9990 -0.8121
 1412TIP3    H225796   2.287   0.484   8.655 -0.5734  1.4184 -0.6850
 1413TIP3   OH225797   4.116   3.530   6.834  0.3520  0.0246 -0.6754
 1413TIP3    H125798   4.115   3.443   6.794  1.8438 -0.4998  0.3315
 1413TIP3    H225799   4.206   3.560   6.824  0.3163  0.6451  0.6293
 1414TIP3   OH225800   5.029   3.833   8.825 -0.3748  0.4160  0.0021
 1414TIP3    H125801   5.038   3.761   8.763 -0.5667  0.4786 -0.1004
 1414TIP3    H225802   4.936   3.854   8.824 -0.2362  1.0381 -0.3950
 1415TIP3   OH225803   0.963   3.002   8.387 -0.0727  0.2172  0.1189
 1415TIP3    H125804   0.935   2.956   8.466  0.9743 -1.7580 -0.6007
 1415TIP3    H225805   0.948   3.095   8.407 -0.3761 -0.2630  2.3979
 1416TIP3   OH225806   5.250   0.354   1.256  0.0561 -0.4265 -0.2423
 1416TIP3    H125807   5.247   0.431   1.312  0.3975 -0.5566 -0.0462
 1416TIP3    H225808   5.338   0.319   1.267 -1.1421 -2.9619  2.5235
 1417TIP3   OH225809   0.436   1.096   8.774 -0.1072  0.2466  0.3691
 1417TIP3    H125810   0.502   1.134   8.832  0.1495 -0.6368  0.6684
 1417TIP3    H225811   0.476   1.015   8.743 -1.2095 -0.5174  0.8967
 1418TIP3   OH225812   5.610   5.765   1.959 -0.0424  0.3805  0.0945
 1418TIP3    H125813   5.700   5.736   1.949 -0.4607 -0.7299 -0.6606
 1418TIP3    H225814   5.564   5.728   1.883 -1.3407  0.0541  1.0021
 1419TIP3   OH225815   2.072   4.507   6.888 -0.4990 -0.1808  0.1604
 1419TIP3    H125816   2.154   4.554   6.873 -1.1474  0.9391  0.0274
 1419TIP3    H225817   2.073   4.484   6.981 -1.1885  2.1557  0.8081
 1420TIP3   OH225818   2.144   6.041   8.746  0.5057 -0.3227 -0.4166
 1420TIP3    H125819   2.055   6.008   8.737 -0.2227  0.7742  2.0187
 1420TIP3    H225820   2.143   6.126   8.701 -0.4858  0.9007  1.7827
 1421TIP3   OH225821   2.764   2.122   6.972 -0.1333  0.6374  0.3648
 1421TIP3    H125822   2.822   2.080   7.035 -0.7913  0.8934  1.1670
 1421TIP3    H225823   2.804   2.106   6.887 -0.0369 -1.0681  0.6993
 1422TIP3   OH225824   4.992   2.563   6.202 -0.3121  1.1718  0.3089
 1422TIP3    H125825   4.961   2.497   6.264  1.2689 -0.6368 -0.7335
 1422TIP3    H225826   5.086   2.549   6.196 -0.2286  2.1682 -1.5000
 1423TIP3   OH225827   4.680   4.024   6.819  0.1724  0.6339  0.2163
 1423TIP3    H125828   4.747   4.002   6.755  0.2111 -0.7675  0.7054
 1423TIP3    H225829   4.728   4.062   6.893  0.6100 -1.3234  1.0088
 1424TIP3   OH225830   4.742   2.394   1.285 -0.1278 -0.1093  0.1513
 1424TIP3    H125831   4.834   2.384   1.262 -0.2239  0.7824 -0.6493
 1424TIP3    H225832   4.735   2.481   1.323 -0.5513 -0.3724  0.7024
 1425TIP3   OH225833   0.464   6.384   0.695 -1.0377  0.0908  0.0786
 1425TIP3    H125834   0.385   6.347   0.736  0.0776 -0.2912  2.0166
 1425TIP3    H225835   0.531   6.317   0.708 -0.2603  0.6138 -1.1092
 1426TIP3   OH225836   6.767   1.516   7.842  0.6155 -0.0646 -0.3641
 1426TIP3    H125837   6.731   1.604   7.852 -2.2674 -0.9359 -1.8845
 1426TIP3    H225838   6.732   1.485   7.759  1.3036 -2.7587  0.2413
 1427TIP3   OH225839   1.062   6.789   7.682 -0.0040  0.0744 -0.3234
 1427TIP3    H125840   1.117   6.811   7.606 -0.6651 -2.0847 -1.5147
 1427TIP3    H225841   1.119   6.801   7.757  1.7284 -0.9007 -1.4292
 1428TIP3   OH225842   0.833   0.425   0.827  0.1859 -0.0671 -0.0214
 1428TIP3    H125843   0.818   0.446   0.735  0.3771  0.0444 -0.0284
 1428TIP3    H225844   0.894   0.351   0.825  0.3516  0.0681  0.0181
 1429TIP3   OH225845   3.648   3.636   7.851 -0.6962  0.0296 -0.5086
 1429TIP3    H125846   3.693   3.633   7.767 -0.6180  0.1219 -0.4694
 1429TIP3    H225847   3.626   3.545   7.869  0.6903 -0.1891  0.1370
 1430TIP3   OH225848   4.197   0.221   2.045 -0.2455 -0.1590 -0.1018
 1430TIP3    H125849   4.257   0.267   2.105 -0.0477 -1.8966  1.1025
 1430TIP3    H225850   4.119   0.276   2.043  0.4094  0.8167  0.3788
 1431TIP3   OH225851   1.905   2.105   1.436 -0.1484 -0.6940  0.4891
 1431TIP3    H125852   1.899   2.067   1.349  1.6231 -2.8542  1.2137
 1431TIP3    H225853   1.902   2.029   1.495 -1.1996  0.6892  2.3268
 1432TIP3   OH225854   5.360   1.617   0.739 -0.2658  0.3208  0.4402
 1432TIP3    H125855   5.413   1.696   0.751 -0.4096  0.2060  2.1342
 1432TIP3    H225856   5.306   1.636   0.662 -0.5919  2.0716  1.0336
 1433TIP3   OH225857   5.959   5.264   0.786  0.5003 -0.0216  0.3191
 1433TIP3    H125858   6.012   5.184   0.782  2.2213  1.1041 -0.6295
 1433TIP3    H225859   6.023   5.335   0.789 -0.9707  1.3444  1.8236
 1434TIP3   OH225860   6.137   3.904   1.405 -0.5130 -0.2978  0.0809
 1434TIP3    H125861   6.213   3.849   1.384 -1.1813 -0.8433 -1.0012
 1434TIP3    H225862   6.110   3.940   1.321 -0.0703  1.7670  0.7705
 1435TIP3   OH225863   5.608   0.661   1.763 -0.2111  0.0504 -0.0396
 1435TIP3    H125864   5.559   0.616   1.695  1.2625 -1.8295  0.0169
 1435TIP3    H225865   5.677   0.598   1.787  0.9610  1.7392  1.2610
 1436TIP3   OH225866   2.414   5.304   0.156  0.1751 -0.5364  0.1377
 1436TIP3    H125867   2.425   5.398   0.173 -1.1781 -0.4269  0.5463
 1436TIP3    H225868   2.381   5.299   0.066 -3.0551 -0.3207  1.1934
 1437TIP3   OH225869   3.662   2.986   8.711 -0.1901  0.1736 -0.2129
 1437TIP3    H125870   3.740   2.987   8.656  0.2241  1.7879  0.3501
 1437TIP3    H225871   3.591   3.012   8.653 -0.1886 -0.5154 -0.5369
 1438TIP3   OH225872   1.187   6.034   1.174  0.2402  0.2128 -0.2212
 1438TIP3    H125873   1.273   6.030   1.217 -0.1895  0.3391  0.6792
 1438TIP3    H225874   1.135   6.091   1.231 -0.4987 -0.0189 -0.6548
 1439TIP3   OH225875   3.078   3.964   0.453  0.5061  0.4350 -0.4317
 1439TIP3    H125876   3.161   3.917   0.449 -0.0196 -0.7055  0.8261
 1439TIP3    H225877   3.062   3.976   0.547 -0.2867  1.4998 -0.6860
 1440TIP3   OH225878   0.123   0.280   1.749  0.0385 -0.0580 -0.0557
 1440TIP3    H125879   0.113   0.233   1.832  0.6359  0.0907  0.1087
 1440TIP3    H225880   0.136   0.372   1.775  0.2713 -0.0184 -0.3077
 1441TIP3   OH225881   0.930   1.798   6.749  0.8483 -0.2286  0.5321
 1441TIP3    H125882   0.894   1.719   6.790 -0.2269  0.3213  0.7012
 1441TIP3    H225883   0.859   1.862   6.755  1.6044  0.6693  0.1521
 1442TIP3   OH225884   5.333   1.907   0.532  0.2259 -0.7651 -0.4922
 1442TIP3    H125885   5.385   1.901   0.451 -0.3413 -0.4895 -0.8819
 1442TIP3    H225886   5.386   1.962   0.590  0.7864 -1.2298 -0.5547
 1443TIP3   OH225887   0.755   2.748   8.758  0.1134 -0.0547 -0.0000
 1443TIP3    H125888   0.715   2.791   8.682 -0.6600 -3.1467 -1.5272
 1443TIP3    H225889   0.814   2.683   8.719 -1.4296 -2.7886  1.8941
 1444TIP3   OH225890   6.713   4.573   0.280 -0.3255  0.2295  0.1348
 1444TIP3    H125891   6.778   4.641   0.260 -1.0186  0.8160 -0.1613
 1444TIP3    H225892   6.677   4.549   0.195 -0.4714 -0.1274  0.2967
 1445TIP3   OH225893   4.601   5.082   1.373 -0.4954 -0.3623 -0.9908
 1445TIP3    H125894   4.656   5.072   1.295  1.1709 -0.2023  0.1194
 1445TIP3    H225895   4.657   5.053   1.445 -1.4486  1.0006  0.3340
 1446TIP3   OH225896   4.914   2.607   1.765  0.2390  0.6713 -0.1178
 1446TIP3    H125897   4.909   2.645   1.677 -0.9840  0.1734 -0.2846
 1446TIP3    H225898   4.967   2.527   1.754  1.9934  1.7580  0.0541
 1447TIP3   OH225899   2.681   5.400   0.721 -0.2245  0.4414 -0.2768
 1447TIP3    H125900   2.605   5.450   0.689 -0.9777 -0.7752 -0.4729
 1447TIP3    H225901   2.643   5.319   0.756  1.0206 -0.4487 -0.8969
 1448TIP3   OH225902   4.473   5.472   0.323 -0.2860 -0.3785 -0.0354
 1448TIP3    H125903   4.415   5.397   0.332  1.5519 -2.0470 -1.4198
 1448TIP3    H225904   4.556   5.436   0.292  1.1200  2.0594  0.5564
 1449TIP3   OH225905   6.039   0.893   1.163  0.4409 -0.4460  0.3970
 1449TIP3    H125906   6.018   0.838   1.088  1.9212  0.0888 -0.4637
 1449TIP3    H225907   6.083   0.969   1.125  1.1925 -0.1365  1.7980
 1450TIP3   OH225908   0.477   5.610   0.910 -0.6855  0.2736 -0.5662
 1450TIP3    H125909   0.486   5.582   1.001  0.6199  1.9131 -0.1577
 1450TIP3    H225910   0.425   5.690   0.914 -1.0826  0.0630 -1.3209
 1451TIP3   OH225911   5.568   6.785   0.904  0.1611 -0.1093  0.3668
 1451TIP3    H125912   5.575   6.697   0.939  0.8474 -0.3004 -0.2485
 1451TIP3    H225913   5.533   6.837   0.977 -0.9440 -1.0184  0.5060
 1452TIP3   OH225914   6.349   0.196   7.357  0.3103  0.8054 -0.1359
 1452TIP3    H125915   6.412   0.131   7.325 -0.8686 -2.0353  2.6854
 1452TIP3    H225916   6.271   0.182   7.303 -0.2041 -0.8466  0.9393
 1453TIP3   OH225917   2.377   5.039   7.838  0.5841  0.7488  0.0561
 1453TIP3    H125918   2.466   5.058   7.806  0.5854  1.3345  0.4111
 1453TIP3    H225919   2.347   4.968   7.781  1.6304 -0.1018  0.5069
 1454TIP3   OH225920   1.240   1.258   2.231  0.3252 -0.0693 -0.7413
 1454TIP3    H125921   1.298   1.281   2.158  1.4878  0.2468  0.2568
 1454TIP3    H225922   1.233   1.163   2.227  0.6582 -0.0838 -1.0622
 1455TIP3   OH225923   1.759   0.674   7.712 -0.0556  0.0255 -0.5550
 1455TIP3    H125924   1.841   0.678   7.762 -1.7200  0.1338  2.3932
 1455TIP3    H225925   1.760   0.587   7.671  0.5962 -0.8681  1.2541
 1456TIP3   OH225926   0.349   0.532   8.386 -0.2232 -0.2510 -0.3482
 1456TIP3    H125927   0.316   0.618   8.410 -1.0812 -1.2656  2.4494
 1456TIP3    H225928   0.295   0.506   8.311  0.3091  1.7044 -1.5055
 1457TIP3   OH225929   4.691   1.788   0.537 -0.0028  0.5089  0.3277
 1457TIP3    H125930   4.732   1.717   0.486  0.1616 -1.8025  3.3958
 1457TIP3    H225931   4.599   1.762   0.544 -0.1708  1.1731  0.5926
 1458TIP3   OH225932   1.252   1.395   1.563  0.0959  0.5342  0.1303
 1458TIP3    H125933   1.330   1.445   1.538  0.2860  0.9119  1.4155
 1458TIP3    H225934   1.234   1.422   1.653 -2.0001  1.0635 -0.3820
 1459TIP3   OH225935   2.420   1.993   0.494 -0.4450 -0.7300 -0.1652
 1459TIP3    H125936   2.405   1.924   0.559  0.5762 -0.9414 -0.1280
 1459TIP3    H225937   2.506   1.972   0.458 -0.4756  0.0812 -0.7232
 1460TIP3   OH225938   1.854   0.084   8.255 -0.3114 -0.1068  0.2366
 1460TIP3    H125939   1.867   0.171   8.217  0.8522  0.1439  1.1582
 1460TIP3    H225940   1.935   0.066   8.301 -0.6773 -1.5467  0.3528
 1461TIP3   OH225941   5.327   3.408   7.399  0.1042  0.3305 -0.2116
 1461TIP3    H125942   5.317   3.412   7.304 -0.1346  0.3571 -0.1862
 1461TIP3    H225943   5.259   3.465   7.433 -1.3488 -1.4454  0.0497
 1462TIP3   OH225944   2.971   3.388   0.315 -0.3322  0.1520 -0.0671
 1462TIP3    H125945   3.015   3.334   0.249  0.2129 -0.0200  0.4344
 1462TIP3    H225946   3.004   3.356   0.399  2.0022  2.9447  0.2298
 1463TIP3   OH225947   3.555   4.418   8.782 -0.3787 -0.1743 -0.4252
 1463TIP3    H125948   3.509   4.362   8.718  1.3237 -0.9468 -1.0302
 1463TIP3    H225949   3.485   4.452   8.838 -1.7181 -1.0554 -1.4789
 1464TIP3   OH225950   3.718   0.957   6.452 -0.7554  0.0237 -0.3123
 1464TIP3    H125951   3.708   1.045   6.488  1.2739  0.5565 -0.8982
 1464TIP3    H225952   3.812   0.948   6.438 -0.8874 -2.3660 -0.0095
 1465TIP3   OH225953   2.934   0.189   0.073  0.8888  0.3664  0.2463
 1465TIP3    H125954   2.904   0.105   0.107  2.6729 -0.0275  0.9600
 1465TIP3    H225955   3.009   0.167   0.017 -0.5520  1.2179 -2.2028
 1466TIP3   OH225956   5.148   6.678   7.108  0.3850 -0.1269 -0.1242
 1466TIP3    H125957   5.077   6.727   7.149  0.1845 -1.5177  1.3186
 1466TIP3    H225958   5.205   6.744   7.070  0.0575  1.2314  1.6244
 1467TIP3   OH225959   3.634   1.105   0.677  0.1576 -0.2688 -0.4975
 1467TIP3    H125960   3.629   1.088   0.583  1.3466 -0.2298 -0.5806
 1467TIP3    H225961   3.675   1.191   0.684  2.0904 -1.1880  0.0710
 1468TIP3   OH225962   6.224   2.404   1.330  0.0496 -0.1163  0.1511
 1468TIP3    H125963   6.185   2.342   1.269 -0.8380 -0.1975  0.7824
 1468TIP3    H225964   6.281   2.351   1.385 -0.5667 -0.3576  0.5705
 1469TIP3   OH225965   4.674   5.131   0.289  0.1888 -0.0660  0.2879
 1469TIP3    H125966   4.746   5.075   0.319  1.8293  1.2394 -1.0106
 1469TIP3    H225967   4.640   5.087   0.211 -0.5177 -0.7264  0.9495
 1470TIP3   OH225968   2.416   1.938   7.389 -0.2260  0.2840 -0.2816
 1470TIP3    H125969   2.503   1.931   7.427 -0.8327  0.2852  1.2030
 1470TIP3    H225970   2.428   1.991   7.310  1.3348 -1.0369 -0.9843
 1471TIP3   OH225971   0.172   0.825   0.101 -0.4720 -0.8036 -0.2835
 1471TIP3    H125972   0.166   0.920   0.095  0.4104 -0.6179  1.3465
 1471TIP3    H225973   0.109   0.793   0.036 -1.9393  0.8945  0.2384
 1472TIP3   OH225974   0.050   5.079   6.526 -0.2929  0.1883 -0.0392
 1472TIP3    H125975  -0.036   5.103   6.492 -0.8550 -0.0157  1.1788
 1472TIP3    H225976   0.111   5.138   6.481 -1.3905  2.5318  1.3379
 1473TIP3   OH225977   5.242   3.305   2.421  0.0569 -0.2611  0.3510
 1473TIP3    H125978   5.270   3.357   2.345 -1.9794 -1.5310 -1.4059
 1473TIP3    H225979   5.199   3.229   2.382  1.6621 -2.5774  2.8134
 1474TIP3   OH225980   4.345   1.108   0.834  0.1204  0.2405 -0.1897
 1474TIP3    H125981   4.263   1.061   0.848 -1.2249  1.7778 -2.2621
 1474TIP3    H225982   4.408   1.040   0.809 -0.6484 -0.8963  0.8884
 1475TIP3   OH225983   2.258   1.958   6.953  0.4128  0.0823  0.3507
 1475TIP3    H125984   2.257   1.953   7.048 -0.7870  0.5621  0.3825
 1475TIP3    H225985   2.165   1.961   6.928  0.7165  0.8363 -0.7689
 1476TIP3   OH225986   4.822   3.412   0.514 -0.1637  0.3323  0.1484
 1476TIP3    H125987   4.837   3.493   0.562  0.1718  1.6021 -1.9384
 1476TIP3    H225988   4.729   3.413   0.493 -0.4319 -0.5054  1.1825
 1477TIP3   OH225989   2.492   2.036   6.810 -0.5135 -0.7060 -0.1545
 1477TIP3    H125990   2.460   2.126   6.803  1.1305 -0.0140  0.7153
 1477TIP3    H225991   2.424   1.991   6.859 -1.2140  0.1352 -0.3160
 1478TIP3   OH225992   0.825   2.688   8.106  0.2029 -0.2634 -0.1312
 1478TIP3    H125993   0.776   2.770   8.109  0.8314  0.0970  1.0325
 1478TIP3    H225994   0.910   2.710   8.143  0.0223 -1.6861  1.2401
 1479TIP3   OH225995   3.209   1.398   8.213 -0.2847  0.1442  0.0445
 1479TIP3    H125996   3.280   1.461   8.198 -0.0587  0.5415  2.3424
 1479TIP3    H225997   3.206   1.346   8.133  0.2800  2.3235 -1.4918
 1480TIP3   OH225998   3.194   2.827   1.273 -0.3471 -0.4243  0.3432
 1480TIP3    H125999   3.138   2.761   1.231  0.8381 -0.7759 -0.7604
 1480TIP3    H226000   3.283   2.796   1.258  0.3036  1.8307 -0.9828
 1481TIP3   OH226001   1.961   5.166   8.688 -0.1129  0.0258 -0.6421
 1481TIP3    H126002   2.047   5.186   8.724 -0.6001  1.2427 -0.1042
 1481TIP3    H226003   1.930   5.091   8.740  0.0406  0.4731  0.1084
 1482TIP3   OH226004   0.990   1.639   7.829  0.3270  0.0931 -0.3881
 1482TIP3    H126005   1.016   1.613   7.741  1.0230  3.7953 -1.4432
 1482TIP3    H226006   0.895   1.635   7.828  0.3602 -1.6704 -0.6042
 1483TIP3   OH226007   3.869   0.894   7.533 -0.0549  0.5472 -0.1108
 1483TIP3    H126008   3.852   0.986   7.514 -1.2690  0.2111 -0.7348
 1483TIP3    H226009   3.857   0.887   7.628  1.4537  1.2937  0.1745
 1484TIP3   OH226010   4.654   1.186   0.870  0.4108  0.2368 -0.2861
 1484TIP3    H126011   4.678   1.272   0.835  0.1418 -0.0848 -1.2844
 1484TIP3    H226012   4.642   1.131   0.793  0.3435 -0.6415  0.3357
 1485TIP3   OH226013   0.936   2.599   0.165  0.1535 -0.2309  0.0043
 1485TIP3    H126014   0.977   2.672   0.118 -2.5750  2.0700  0.8582
 1485TIP3    H226015   0.953   2.619   0.257  0.1891 -1.2641  0.2281
 1486TIP3   OH226016   5.071   1.647   6.917 -0.3271  0.2228  0.0385
 1486TIP3    H126017   5.162   1.643   6.886  0.2039  1.5188  1.3129
 1486TIP3    H226018   5.058   1.566   6.965  0.2810  0.1832  0.1445
 1487TIP3   OH226019   4.513   1.019   8.733  1.2794 -0.2673  0.0940
 1487TIP3    H126020   4.435   1.074   8.742  1.3304 -0.4637  2.0878
 1487TIP3    H226021   4.573   1.070   8.678  0.4540  0.6607  0.0438
 1488TIP3   OH226022   1.763   6.567   0.440  0.1438 -0.3581  0.0388
 1488TIP3    H126023   1.739   6.577   0.532 -1.7374 -0.3372 -0.4215
 1488TIP3    H226024   1.859   6.569   0.441  0.2383 -1.8364  2.1460
 1489TIP3   OH226025   1.875   2.587   0.042 -0.0093  0.0267  0.0059
 1489TIP3    H126026   1.828   2.540  -0.026  1.4292  0.7582 -1.5756
 1489TIP3    H226027   1.850   2.678   0.029  1.1033  0.3041 -0.2763
 1490TIP3   OH226028   2.094   1.170   1.082  0.1700 -0.0869 -0.1889
 1490TIP3    H126029   2.187   1.155   1.065  0.0391 -0.6136 -0.4721
 1490TIP3    H226030   2.070   1.106   1.149 -0.0618 -0.1787 -0.3551
 1491TIP3   OH226031   4.892   5.041   6.750 -0.2372 -0.1364  0.5623
 1491TIP3    H126032   4.929   5.126   6.726 -0.7012  0.4203  1.7696
 1491TIP3    H226033   4.829   5.022   6.680  0.4653  0.0980 -0.1552
 1492TIP3   OH226034   3.895   5.999   8.419  0.3760 -0.8528 -0.2795
 1492TIP3    H126035   3.897   5.917   8.369 -2.5195 -0.3770 -1.3890
 1492TIP3    H226036   3.937   6.063   8.362  2.7558 -1.4877  0.6385
 1493TIP3   OH226037   1.173   2.699   8.779 -0.3785  0.3974  0.5002
 1493TIP3    H126038   1.237   2.648   8.730 -0.8022 -0.3380  0.6948
 1493TIP3    H226039   1.091   2.650   8.769 -0.3681 -0.0837  2.4044
 1494TIP3   OH226040   2.400   2.314   0.811 -0.2079  0.3523  0.7740
 1494TIP3    H126041   2.341   2.240   0.793 -0.6910  0.6809  0.9809
 1494TIP3    H226042   2.365   2.386   0.758 -0.1548  0.6258  1.1084
 1495TIP3   OH226043   1.110   2.579   6.285  0.1536 -0.1790  0.0028
 1495TIP3    H126044   1.068   2.515   6.343  0.4903  0.4976  1.0163
 1495TIP3    H226045   1.191   2.602   6.330  0.0740  0.8976 -0.3920
 1496TIP3   OH226046   3.953   4.214   7.546 -0.0681  0.1025  0.0003
 1496TIP3    H126047   3.975   4.190   7.456 -0.1444  0.4040 -0.1014
 1496TIP3    H226048   3.956   4.310   7.547  0.1889  0.0966  0.3833
 1497TIP3   OH226049   0.636   4.413   7.932  0.2438  0.3113  0.5435
 1497TIP3    H126050   0.605   4.378   7.849  1.6378  1.9519 -0.7205
 1497TIP3    H226051   0.564   4.468   7.963 -0.6804 -1.0895  0.9706
 1498TIP3   OH226052   1.399   4.741   1.547 -0.3869  0.0918 -0.0567
 1498TIP3    H126053   1.468   4.744   1.481  0.6817 -0.2214  1.0245
 1498TIP3    H226054   1.412   4.659   1.593 -1.1868  0.2552  0.4913
 1499TIP3   OH226055   1.928   4.931   2.388 -0.3838 -0.1698 -0.8250
 1499TIP3    H126056   1.833   4.920   2.384 -0.2260 -2.2052 -0.3267
 1499TIP3    H226057   1.942   5.025   2.393 -2.4020  0.1459 -0.5213
 1500TIP3   OH226058   2.383   0.001   7.207  0.5775 -0.4268 -0.3613
 1500TIP3    H126059   2.376   0.085   7.161  0.1279 -0.4045 -0.2598
 1500TIP3    H226060   2.300  -0.043   7.189  0.1954 -0.2189  0.7868
 1501TIP3   OH226061   5.731   4.288   0.726 -0.4942 -0.1955 -0.3842
 1501TIP3    H126062   5.775   4.366   0.694 -0.1873 -0.3675 -0.3834
 1501TIP3    H226063   5.721   4.302   0.821 -0.3980 -0.1798 -0.3771
 1502TIP3   OH226064   3.617   5.836   7.972 -0.0362 -0.1900  0.4109
 1502TIP3    H126065   3.691   5.892   7.952 -0.2728  0.0305  0.1440
 1502TIP3    H226066   3.580   5.812   7.887 -0.8520  0.4955  0.5620
 1503TIP3   OH226067   3.423   6.393   0.641 -0.0362 -0.5101 -0.2753
 1503TIP3    H126068   3.438   6.433   0.727  0.3108 -2.6478  0.7267
 1503TIP3    H226069   3.329   6.375   0.640 -0.1019 -0.1676 -0.5112
 1504TIP3   OH226070   3.851   2.471   1.395  0.2400  0.2926  0.0288
 1504TIP3    H126071   3.910   2.397   1.385  0.8443  0.7041  0.5182
 1504TIP3    H226072   3.841   2.481   1.490 -1.1102 -0.1540 -0.0340
 1505TIP3   OH226073   2.230   3.397   2.248 -0.0665 -0.2347 -0.2925
 1505TIP3    H126074   2.235   3.487   2.215 -0.0606  0.2283  0.9127
 1505TIP3    H226075   2.312   3.357   2.221  0.0249  0.1859 -0.6579
 1506TIP3   OH226076   6.792   0.638   1.728  0.2973 -0.1134  0.3741
 1506TIP3    H126077   6.863   0.641   1.663  0.1160 -0.6090  0.1446
 1506TIP3    H226078   6.817   0.703   1.793  0.9634 -0.2768  0.2961
 1507TIP3   OH226079   4.867   5.517   1.058  0.9609 -0.4869  0.1696
 1507TIP3    H126080   4.935   5.517   0.990 -0.6172 -1.6360 -1.5158
 1507TIP3    H226081   4.801   5.456   1.026 -1.0245  0.7772  1.5772
 1508TIP3   OH226082   1.765   0.751   1.086 -0.0257 -0.2106 -0.0507
 1508TIP3    H126083   1.749   0.716   1.174  0.3947 -1.3048 -0.3873
 1508TIP3    H226084   1.679   0.782   1.057 -0.1770  0.1354  0.7248
 1509TIP3   OH226085   5.703   1.101   1.672 -0.3148  0.0075 -0.1714
 1509TIP3    H126086   5.720   1.130   1.761  0.1156  0.7898 -0.4947
 1509TIP3    H226087   5.609   1.086   1.669 -0.1078 -1.8918  0.9365
 1510TIP3   OH226088   1.513   4.368   0.128 -0.3265  0.1569  0.0329
 1510TIP3    H126089   1.483   4.433   0.191  0.2501 -0.5331  1.0470
 1510TIP3    H226090   1.455   4.293   0.142 -1.7378  0.7818 -1.9024
 1511TIP3   OH226091   0.230   0.186   1.276 -0.1495 -0.5468 -0.1574
 1511TIP3    H126092   0.148   0.234   1.269  0.2345  0.0313 -0.7614
 1511TIP3    H226093   0.208   0.109   1.328 -0.9040 -0.0143  0.3342
 1512TIP3   OH226094   1.468   3.353   1.345 -0.5695  0.0463  0.1146
 1512TIP3    H126095   1.514   3.403   1.277  0.4507  1.1545  1.5482
 1512TIP3    H226096   1.491   3.397   1.426 -2.1604 -0.9429  1.1529
 1513TIP3   OH226097   4.374   1.782   0.099 -0.4032 -0.8814 -0.4440
 1513TIP3    H126098   4.310   1.853   0.088  0.2847  0.0535  1.2364
 1513TIP3    H226099   4.321   1.702   0.098 -1.4477 -0.2103 -0.3790
 1514TIP3   OH226100   4.991   1.443   7.674 -0.0289 -0.2120  0.0294
 1514TIP3    H126101   4.957   1.499   7.744 -0.0729  0.0894 -0.2262
 1514TIP3    H226102   5.036   1.372   7.719  1.7468  1.0780  0.3667
 1515TIP3   OH226103   4.527   5.469   8.550 -0.1543  0.3549 -0.1307
 1515TIP3    H126104   4.601   5.409   8.535 -0.0792  0.6820 -1.1301
 1515TIP3    H226105   4.569   5.551   8.576 -0.2003  0.3258  0.0327
 1516TIP3   OH226106   6.369   0.298   6.595  0.6981 -0.2318 -0.2054
 1516TIP3    H126107   6.365   0.386   6.558  1.4854 -0.7668 -1.6253
 1516TIP3    H226108   6.279   0.266   6.593  0.2782  0.7938  1.0243
 1517TIP3   OH226109   0.519   3.358   1.360 -0.0980  0.1141 -0.4243
 1517TIP3    H126110   0.494   3.358   1.452 -0.5543  1.0545 -0.5376
 1517TIP3    H226111   0.514   3.450   1.334  3.1866  0.3583 -0.5635
 1518TIP3   OH226112   0.998   2.370   6.865  0.2232 -0.3954  0.3447
 1518TIP3    H126113   0.970   2.290   6.821 -0.6908  0.5190 -0.7774
 1518TIP3    H226114   1.066   2.405   6.808 -0.1302  0.1795  0.2763
 1519TIP3   OH226115   3.555   2.743   8.812 -0.2413  0.3361 -0.1810
 1519TIP3    H126116   3.587   2.815   8.866  0.7929  0.4223 -0.8614
 1519TIP3    H226117   3.491   2.783   8.753 -0.1133  0.5797 -0.1544
 1520TIP3   OH226118   1.025   0.195   1.451  0.7210 -0.5481  0.4806
 1520TIP3    H126119   0.958   0.169   1.388 -0.3986 -1.1572  1.8644
 1520TIP3    H226120   1.012   0.289   1.462  1.4015 -0.2937 -0.7019
 1521TIP3   OH226121   0.292   4.282   7.064  0.2983  0.1801 -0.2248
 1521TIP3    H126122   0.279   4.209   7.003 -0.3845 -0.1328  0.2727
 1521TIP3    H226123   0.306   4.358   7.009  1.7548 -0.4432 -0.7636
 1522TIP3   OH226124   5.964   3.802   7.424  0.2157 -0.0017  0.6200
 1522TIP3    H126125   5.914   3.878   7.398  0.5867  0.4128  1.1008
 1522TIP3    H226126   6.051   3.836   7.444  0.2520 -0.4775  1.2956
 1523TIP3   OH226127   5.485   5.660   8.050  0.3481 -0.2562 -0.1771
 1523TIP3    H126128   5.567   5.625   8.084  0.2287 -1.4245 -1.0222
 1523TIP3    H226129   5.417   5.622   8.107  0.3662  0.6594  0.4822
 1524TIP3   OH226130   5.785   2.247   0.065 -0.1549  0.4729 -0.2260
 1524TIP3    H126131   5.874   2.277   0.083 -0.0146  0.4539 -0.8503
 1524TIP3    H226132   5.762   2.287  -0.020  0.1679 -1.4003 -1.2567
 1525TIP3   OH226133   4.523   6.138   0.609 -0.6044 -0.2013 -0.3809
 1525TIP3    H126134   4.470   6.058   0.611 -1.9599  0.6520  2.3832
 1525TIP3    H226135   4.592   6.123   0.674  1.3341 -0.3913 -2.3245
 1526TIP3   OH226136   0.573   4.023   0.449 -0.8816  0.3442 -0.3061
 1526TIP3    H126137   0.637   3.955   0.468 -2.3189 -0.8187  0.5647
 1526TIP3    H226138   0.609   4.102   0.488  0.9343  0.1849 -1.5381
 1527TIP3   OH226139   3.568   6.736   7.887 -0.9973  0.4906 -0.3841
 1527TIP3    H126140   3.635   6.768   7.825  1.2708 -0.8476  1.2205
 1527TIP3    H226141   3.526   6.663   7.842 -0.0691  0.1660 -0.7459
 1528TIP3   OH226142   4.232   1.074   8.666 -0.0761  0.5648  0.0760
 1528TIP3    H126143   4.159   1.031   8.622  0.5569 -0.7126  0.2313
 1528TIP3    H226144   4.202   1.085   8.757  0.4105 -1.2058  0.4770
 1529TIP3   OH226145   0.856   4.155   0.731  0.0872 -0.4104  0.1248
 1529TIP3    H126146   0.882   4.211   0.658 -0.7195 -1.2802 -0.8591
 1529TIP3    H226147   0.937   4.136   0.778  0.3817  1.6057  0.5215
 1530TIP3   OH226148   6.770   4.755   7.247  0.0979  0.0538 -0.3233
 1530TIP3    H126149   6.863   4.734   7.244 -0.2514 -1.7090 -2.7657
 1530TIP3    H226150   6.763   4.841   7.205  0.7132  0.8384  1.1395
 1531TIP3   OH226151   3.330   0.209   6.509 -0.4849 -0.4481 -0.2382
 1531TIP3    H126152   3.422   0.183   6.505 -0.7606 -1.4937  0.0228
 1531TIP3    H226153   3.292   0.154   6.577 -0.7896  1.6606  1.3892
 1532TIP3   OH226154   2.955   1.706   7.018  0.2229 -0.0532 -0.1624
 1532TIP3    H126155   2.993   1.697   6.931 -1.1307 -0.0054 -0.7927
 1532TIP3    H226156   3.030   1.709   7.077  1.2266  1.3810 -1.4417
 1533TIP3   OH226157   5.127   4.429   7.161 -0.6075 -0.7530  0.0908
 1533TIP3    H126158   5.134   4.346   7.116  1.3450 -0.3234 -0.5231
 1533TIP3    H226159   5.068   4.482   7.108 -0.8817 -1.3373 -0.1799
 1534TIP3   OH226160   2.981   4.068   7.637  0.3140  0.6050 -0.3952
 1534TIP3    H126161   3.010   4.149   7.595  1.4167 -0.1595 -1.1733
 1534TIP3    H226162   3.061   4.016   7.645 -0.3703 -0.3940  0.1163
 1535TIP3   OH226163   6.718   6.685   1.210 -0.0081 -0.2293  0.3522
 1535TIP3    H126164   6.729   6.651   1.298 -0.4021 -0.5992  0.2606
 1535TIP3    H226165   6.630   6.658   1.184  0.7013 -1.6303 -0.7866
 1536TIP3   OH226166   4.199   0.983   7.049  0.1907 -0.1155 -0.0335
 1536TIP3    H126167   4.275   0.926   7.048  1.0068  0.9443  0.2049
 1536TIP3    H226168   4.178   0.994   7.141  0.0260 -0.0399 -0.0800
 1537TIP3   OH226169   3.354   5.297   6.437 -0.3950 -0.2203 -0.1144
 1537TIP3    H126170   3.309   5.323   6.518 -0.2668 -1.7060  0.4600
 1537TIP3    H226171   3.310   5.347   6.368  0.2851  2.0403  0.9723
 1538TIP3   OH226172   6.796   3.053   1.130  0.4874 -0.7601 -0.6092
 1538TIP3    H126173   6.827   3.085   1.045  1.3157 -2.2546 -0.9145
 1538TIP3    H226174   6.786   2.959   1.117 -0.0230 -0.9086  0.7716
 1539TIP3   OH226175   1.801   1.076   8.156 -0.0138 -0.2695 -0.0092
 1539TIP3    H126176   1.781   1.098   8.247  1.1880 -1.2876  0.5298
 1539TIP3    H226177   1.747   1.136   8.105 -0.1602  0.8376  1.3735
 1540TIP3   OH226178   2.647   1.116   6.594  0.2570  0.4168 -0.0817
 1540TIP3    H126179   2.627   1.204   6.562 -0.7871  0.5737  0.9052
 1540TIP3    H226180   2.618   1.058   6.523 -2.0674  0.7493  0.4942
 1541TIP3   OH226181   6.608   4.449   8.128 -0.1294  0.2503 -0.2178
 1541TIP3    H126182   6.690   4.402   8.116 -0.8582 -1.6300  1.5749
 1541TIP3    H226183   6.546   4.404   8.070 -0.3417  0.4320 -0.1358
 1542TIP3   OH226184   2.725   3.731   7.258 -0.2610  0.0756 -0.5424
 1542TIP3    H126185   2.695   3.797   7.195 -1.9074 -0.3543 -0.2643
 1542TIP3    H226186   2.664   3.740   7.332 -0.0234 -1.2332 -0.1695
 1543TIP3   OH226187   1.824   0.227   7.283 -0.5789 -0.1919 -0.1184
 1543TIP3    H126188   1.795   0.228   7.191  0.3863 -0.8835 -0.4467
 1543TIP3    H226189   1.831   0.319   7.307 -2.7734  0.0260 -0.0902
 1544TIP3   OH226190   1.728   1.787   8.712  0.0528  0.5107  0.2313
 1544TIP3    H126191   1.765   1.781   8.801 -1.2871  0.9858  0.8436
 1544TIP3    H226192   1.663   1.717   8.709  0.0181  0.5672 -0.3521
 1545TIP3   OH226193   5.369   4.600   6.976  0.0152 -0.1336 -0.0937
 1545TIP3    H126194   5.319   4.566   7.050 -0.0937 -1.6105 -0.8189
 1545TIP3    H226195   5.331   4.686   6.958  0.2413  0.3832  1.7308
 1546TIP3   OH226196   1.858   1.757   0.076  0.2181 -0.3426 -0.1289
 1546TIP3    H126197   1.859   1.846   0.111 -0.9834 -0.1957 -0.4478
 1546TIP3    H226198   1.891   1.703   0.147  0.3769  0.2840  0.2786
 1547TIP3   OH226199   2.045   3.260   6.772  0.1520 -0.2339 -0.7261
 1547TIP3    H126200   1.992   3.260   6.692 -0.3547 -2.8856 -0.4863
 1547TIP3    H226201   2.040   3.170   6.804  1.0052  0.5609  1.8812
 1548TIP3   OH226202   3.815   1.644   2.585  0.2522 -0.6121  0.1014
 1548TIP3    H126203   3.740   1.694   2.617 -1.0171 -1.0756 -1.9524
 1548TIP3    H226204   3.843   1.691   2.507  0.0666 -2.1558 -0.9427
 1549TIP3   OH226205   3.896   6.718   7.465 -0.4263 -0.6847 -0.4365
 1549TIP3    H126206   3.830   6.709   7.534 -0.3531 -0.5120 -0.3427
 1549TIP3    H226207   3.973   6.673   7.499  0.5342  1.6947  0.8068
 1550TIP3   OH226208   6.304   5.354   0.050 -0.6621 -0.2373 -0.4896
 1550TIP3    H126209   6.235   5.375   0.113  0.3328 -0.6417  0.7693
 1550TIP3    H226210   6.385   5.379   0.093  0.1767 -1.9637 -0.9647
 1551TIP3   OH226211   3.006   4.891   0.902 -0.2631 -0.0624  0.3187
 1551TIP3    H126212   2.919   4.857   0.921 -0.3056  0.0441  0.3163
 1551TIP3    H226213   2.992   4.954   0.831 -0.0610 -0.7247 -0.3287
 1552TIP3   OH226214   3.797   6.040   8.096 -0.2797 -0.2014  0.8570
 1552TIP3    H126215   3.702   6.029   8.097 -0.2251 -1.4225  3.7923
 1552TIP3    H226216   3.813   6.118   8.149  0.3487 -0.1765  0.6335
 1553TIP3   OH226217   1.993   6.378   2.195 -0.4855 -0.5303  0.4366
 1553TIP3    H126218   2.086   6.356   2.193 -0.8093 -2.0124 -0.6326
 1553TIP3    H226219   1.982   6.431   2.273  1.4431  0.6289 -0.0213
 1554TIP3   OH226220   1.335   1.172   6.848 -0.4738  0.1508  0.5541
 1554TIP3    H126221   1.384   1.091   6.864  0.8481  0.1762 -2.5993
 1554TIP3    H226222   1.285   1.154   6.768 -0.0698  2.4558 -0.2782
 1555TIP3   OH226223   1.737   5.466   7.255 -0.2863 -0.3771 -0.0968
 1555TIP3    H126224   1.734   5.558   7.228 -0.1059 -0.5190 -0.6142
 1555TIP3    H226225   1.677   5.421   7.196 -0.7488 -0.5213  0.4707
 1556TIP3   OH226226   1.751   0.118   1.084  0.0143 -0.0739 -0.0576
 1556TIP3    H126227   1.716   0.173   1.155  0.0697 -0.6166  0.4011
 1556TIP3    H226228   1.846   0.118   1.098  0.2299  1.3715 -1.2821
 1557TIP3   OH226229   3.416   6.708   0.050 -0.0438  0.7337  0.1789
 1557TIP3    H126230   3.502   6.737   0.019  1.0638 -1.0114  1.4469
 1557TIP3    H226231   3.392   6.772   0.118  0.1129  1.3585 -0.3435
 1558TIP3   OH226232   1.791   0.678   0.028  0.5092 -0.0181  0.5324
 1558TIP3    H126233   1.701   0.644   0.029  0.7666 -0.7408  0.3391
 1558TIP3    H226234   1.846   0.600   0.040  1.1162  0.3876  0.4420
 1559TIP3   OH226235   6.267   1.941   0.625  0.8092 -0.1712  0.1465
 1559TIP3    H126236   6.329   1.916   0.693 -0.1910 -2.9171  0.1993
 1559TIP3    H226237   6.313   1.924   0.543  0.8727 -0.1196  0.1716
 1560TIP3   OH226238   2.838   0.810   0.394  0.0345  1.0045 -0.6824
 1560TIP3    H126239   2.766   0.747   0.386  0.5482  0.6241 -2.6508
 1560TIP3    H226240   2.803   0.879   0.451 -1.5283  0.3441 -0.8050
 1561TIP3   OH226241   1.397   0.851   7.909  0.0262  0.2807  0.0506
 1561TIP3    H126242   1.465   0.825   7.971  0.2338 -0.2690 -0.3976
 1561TIP3    H226243   1.399   0.947   7.909  2.3697  0.2927 -1.6566
 1562TIP3   OH226244   2.191   3.749   6.743  0.3674  0.2473  0.1601
 1562TIP3    H126245   2.196   3.719   6.652  3.7692 -0.9016  0.5710
 1562TIP3    H226246   2.248   3.826   6.746  0.9672 -0.2138  1.4422
 1563TIP3   OH226247   1.131   1.550   7.239  0.0259  0.8050 -0.0561
 1563TIP3    H126248   1.164   1.494   7.169  1.0959  0.8065  0.4251
 1563TIP3    H226249   1.037   1.530   7.244  0.1946 -0.1725 -0.5836
 1564TIP3   OH226250   5.351   1.689   6.853 -0.1205 -0.4643  0.1840
 1564TIP3    H126251   5.416   1.658   6.791  0.6484 -0.4156  0.9388
 1564TIP3    H226252   5.381   1.777   6.877  0.7897 -1.2333  2.1538
 1565TIP3   OH226253   4.530   2.166   7.167 -0.2466  0.3062  0.0186
 1565TIP3    H126254   4.564   2.136   7.083  2.2622  4.0363 -0.5753
 1565TIP3    H226255   4.588   2.127   7.232  2.3257  2.6121 -0.6590
 1566TIP3   OH226256   1.639   6.465   6.716  0.0436 -0.4919 -0.2051
 1566TIP3    H126257   1.591   6.469   6.634  1.2514  1.2970 -0.8985
 1566TIP3    H226258   1.700   6.391   6.705 -1.9588 -2.3346  0.4245
 1567TIP3   OH226259   4.267   6.766   1.688  0.3619 -0.1772 -0.0470
 1567TIP3    H126260   4.286   6.788   1.780 -0.1385 -0.1259  0.0475
 1567TIP3    H226261   4.172   6.775   1.681  0.3466 -0.6292 -0.4524
 1568TIP3   OH226262   5.600   3.252   7.068  0.4934 -0.3796  1.0793
 1568TIP3    H126263   5.536   3.186   7.095  0.6331 -1.4793 -1.0855
 1568TIP3    H226264   5.685   3.207   7.073  0.5964 -0.3680 -0.3606
 1569TIP3   OH226265   5.486   3.597   8.535 -0.0223 -0.0756  0.5063
 1569TIP3    H126266   5.398   3.571   8.510 -0.6287  0.9110  1.5190
 1569TIP3    H226267   5.529   3.516   8.560 -0.9610 -0.4604  0.9121
 1570TIP3   OH226268   4.097   2.419   7.047  0.6277  0.9581 -0.2406
 1570TIP3    H126269   4.119   2.512   7.058 -1.3712  1.2931  1.6390
 1570TIP3    H226270   4.139   2.375   7.121 -2.6704  1.2744  2.0437
 1571TIP3   OH226271   0.357   3.541   8.828 -0.2950 -0.1530 -0.0830
 1571TIP3    H126272   0.294   3.606   8.795 -0.4179 -0.4098 -0.3622
 1571TIP3    H226273   0.393   3.501   8.749 -0.9099 -1.0844  0.0964
 1572TIP3   OH226274   0.076   6.455   7.600  0.0413  0.2003  0.4534
 1572TIP3    H126275   0.145   6.390   7.615  0.5711  0.7058  0.2325
 1572TIP3    H226276   0.016   6.443   7.674 -0.2175 -0.9774  0.0736
 1573TIP3   OH226277   6.229   5.516   7.163 -0.2256 -0.5658 -0.3163
 1573TIP3    H126278   6.150   5.494   7.114 -0.2243 -0.0831 -0.5344
 1573TIP3    H226279   6.209   5.600   7.204  0.0677 -0.5871 -0.1285
 1574TIP3   OH226280   2.916   0.375   7.012 -0.0899 -0.3345  0.7526
 1574TIP3    H126281   2.912   0.313   6.939 -0.3930  0.5289  0.0236
 1574TIP3    H226282   3.007   0.372   7.040  0.2996  0.1368 -0.3885
 1575TIP3   OH226283   4.512   1.346   6.144  0.2378 -0.2757  0.0379
 1575TIP3    H126284   4.433   1.399   6.132 -0.7986 -1.5567  0.9684
 1575TIP3    H226285   4.508   1.318   6.236  2.6946  1.0359  0.6312
 1576TIP3   OH226286   5.178   2.322   8.228  0.2818 -0.3375  1.0111
 1576TIP3    H126287   5.233   2.312   8.306  0.1781  0.5462  1.2148
 1576TIP3    H226288   5.237   2.357   8.161 -0.1764  1.3989  1.4668
 1577TIP3   OH226289   0.675   5.797   0.709  0.2636  0.1545 -0.1202
 1577TIP3    H126290   0.765   5.774   0.683 -0.2924 -0.5616 -1.4878
 1577TIP3    H226291   0.649   5.727   0.769  0.2192 -0.2642 -0.6235
 1578TIP3   OH226292   6.068   1.645   7.949 -0.4422 -0.0772  0.2486
 1578TIP3    H126293   6.029   1.602   8.026 -1.1539  2.0015  1.1091
 1578TIP3    H226294   6.049   1.585   7.877 -2.4785 -0.6762  1.1871
 1579TIP3   OH226295   2.580   5.432   7.679 -0.5962 -0.4055  0.5547
 1579TIP3    H126296   2.525   5.376   7.625 -0.9033  0.7992 -0.4395
 1579TIP3    H226297   2.667   5.393   7.674 -0.8869 -1.0255  0.2442
 1580TIP3   OH226298   0.457   6.251   7.448 -0.3176  0.5560 -0.4202
 1580TIP3    H126299   0.462   6.340   7.413  0.8059  0.2867 -1.0157
 1580TIP3    H226300   0.407   6.202   7.383 -1.1609  0.8053  0.0358
 1581TIP3   OH226301   5.328   5.803   1.489 -0.5050 -0.1514 -0.4302
 1581TIP3    H126302   5.359   5.713   1.491 -0.1088 -0.0088  0.6475
 1581TIP3    H226303   5.340   5.831   1.398  1.7241 -0.3969 -0.2703
 1582TIP3   OH226304   1.915   5.936   0.916  0.5282 -0.0296  0.2031
 1582TIP3    H126305   2.000   5.973   0.937 -0.3175  3.5993 -1.8795
 1582TIP3    H226306   1.852   5.992   0.962 -0.8191 -0.3669 -1.1373
 1583TIP3   OH226307   5.005   5.225   7.850  0.2209  0.0049 -0.3791
 1583TIP3    H126308   5.009   5.320   7.840 -0.2184 -0.0151 -0.7705
 1583TIP3    H226309   4.915   5.208   7.879  0.7267 -0.1592  1.2145
 1584TIP3   OH226310   4.905   6.439   7.404  0.1093  0.7074  0.0177
 1584TIP3    H126311   4.977   6.377   7.392 -0.8251 -0.6369  1.0644
 1584TIP3    H226312   4.853   6.430   7.324  1.6918  2.6224 -1.3430
 1585TIP3   OH226313   6.222   0.604   8.010 -0.5567 -0.2234  0.1569
 1585TIP3    H126314   6.254   0.671   8.070  1.2040 -0.8274 -0.0236
 1585TIP3    H226315   6.149   0.645   7.964 -1.1585  0.6676  1.8196
 1586TIP3   OH226316   0.754   1.976   8.096 -1.1059  0.1975 -0.1992
 1586TIP3    H126317   0.775   1.884   8.082 -1.9651 -0.1418  0.6598
 1586TIP3    H226318   0.827   2.023   8.055  0.7310 -0.9115  1.5419
 1587TIP3   OH226319   1.364   1.027   2.139 -0.4725 -0.0321  0.5218
 1587TIP3    H126320   1.452   1.002   2.108 -0.4984  0.4293  0.0572
 1587TIP3    H226321   1.313   0.947   2.130 -0.3405 -0.0538 -0.1482
 1588TIP3   OH226322   4.896   3.701   7.979 -0.6836  0.5167 -0.1648
 1588TIP3    H126323   4.969   3.763   7.990 -0.7533  0.4882  0.4818
 1588TIP3    H226324   4.931   3.634   7.921 -0.9165  1.6615 -1.6858
 1589TIP3   OH226325   4.797   0.250   7.034  0.3866  0.3067  0.4631
 1589TIP3    H126326   4.780   0.200   6.954  0.4714  0.0890  0.5816
 1589TIP3    H226327   4.889   0.273   7.029  0.7012 -0.7836  1.1061
 1590TIP3   OH226328   1.339   0.729   7.288  0.1988 -0.2431  0.6925
 1590TIP3    H126329   1.424   0.753   7.325  1.8515  1.4022 -3.6062
 1590TIP3    H226330   1.307   0.809   7.248 -1.8408 -1.6182 -0.5956
 1591TIP3   OH226331   4.872   6.037   7.060 -0.7264  0.1957 -0.4857
 1591TIP3    H126332   4.802   5.995   7.010 -0.7341  1.3372 -1.5034
 1591TIP3    H226333   4.942   5.973   7.062 -1.6273 -0.8119  0.1928
 1592TIP3   OH226334   2.788   2.684   1.893  0.1932 -0.1417  0.3631
 1592TIP3    H126335   2.788   2.713   1.984  0.3199  1.0400  0.0051
 1592TIP3    H226336   2.780   2.588   1.898 -2.6363  0.0607  1.5275
 1593TIP3   OH226337   4.331   3.914   0.662  0.0506  0.0182 -0.9340
 1593TIP3    H126338   4.280   3.925   0.742  0.4992  2.1426 -0.8768
 1593TIP3    H226339   4.389   3.841   0.680 -1.7079 -1.3169 -0.3521
 1594TIP3   OH226340   0.991   4.989   7.247 -0.0528 -0.1114 -0.0708
 1594TIP3    H126341   1.010   4.983   7.340 -0.7818  1.5100  0.2117
 1594TIP3    H226342   0.940   4.910   7.228 -2.7704  1.1049  1.6693
 1595TIP3   OH226343   6.769   4.320   8.597 -0.3613 -0.0360  0.3179
 1595TIP3    H126344   6.846   4.357   8.640  0.2085 -0.8775  0.0409
 1595TIP3    H226345   6.699   4.383   8.615  0.0860  0.1015  1.6722
 1596TIP3   OH226346   6.441   4.256   7.664  0.0267 -0.1494  0.1094
 1596TIP3    H126347   6.427   4.339   7.618  0.1374 -0.0167  0.3116
 1596TIP3    H226348   6.472   4.282   7.750 -0.4393 -0.3907  0.3522
 1597TIP3   OH226349   6.569   1.209   0.691  0.4261 -0.5410  0.4970
 1597TIP3    H126350   6.633   1.155   0.644  0.3692  0.0408 -0.2582
 1597TIP3    H226351   6.622   1.257   0.755  1.1308  1.5156 -1.4979
 1598TIP3   OH226352   5.208   3.713   1.582 -0.4084 -0.0131 -0.4233
 1598TIP3    H126353   5.129   3.739   1.536  1.0525  0.7869 -2.6274
 1598TIP3    H226354   5.277   3.767   1.543  1.5139 -1.9348  0.1728
 1599TIP3   OH226355   4.102   1.575   8.434  0.1297 -0.0533 -0.2450
 1599TIP3    H126356   4.047   1.531   8.370  0.6204 -0.0573 -0.6760
 1599TIP3    H226357   4.177   1.607   8.383  1.1544 -1.1296  0.5110
 1600TIP3   OH226358   0.055   1.977   2.698  0.0780  0.0170  0.6735
 1600TIP3    H126359  -0.020   2.003   2.752 -1.3802  0.5247 -1.4621
 1600TIP3    H226360   0.097   2.060   2.674 -0.0704 -0.1005 -0.0096
 1601TIP3   OH226361   2.370   2.388   8.524  0.6176  0.1533  0.1577
 1601TIP3    H126362   2.404   2.427   8.604 -0.6693  1.0832  0.2864
 1601TIP3    H226363   2.322   2.311   8.553 -0.4631  0.8941  0.3793
 1602TIP3   OH226364   2.885   3.364   6.827  0.2236 -0.1350  0.1150
 1602TIP3    H126365   2.875   3.446   6.876  4.1390  1.4456 -1.3482
 1602TIP3    H226366   2.855   3.386   6.738  0.6250 -0.4823 -0.1093
 1603TIP3   OH226367   0.670   6.125   8.607  0.1957 -0.7104  0.1675
 1603TIP3    H126368   0.635   6.108   8.694  0.4137 -0.8123  0.2336
 1603TIP3    H226369   0.673   6.221   8.601  1.0702 -0.7056  0.6254
 1604TIP3   OH226370   4.505   0.204   8.502  0.0837 -0.4956  0.1102
 1604TIP3    H126371   4.482   0.287   8.544  1.0172  0.8789 -1.9308
 1604TIP3    H226372   4.480   0.137   8.566 -0.2559  1.3527  2.0323
 1605TIP3   OH226373   0.050   6.075   0.816  0.0974 -0.6798  0.1184
 1605TIP3    H126374   0.026   6.052   0.727  1.4594  0.5653 -0.6243
 1605TIP3    H226375   0.002   6.014   0.871 -2.0084 -0.4838 -1.3768
 1606TIP3   OH226376   1.580   5.049   7.098 -0.1141 -0.2268 -0.5231
 1606TIP3    H126377   1.512   5.109   7.127  0.4963  0.4707 -0.5126
 1606TIP3    H226378   1.625   5.022   7.178 -1.0396 -1.5400 -0.4043
 1607TIP3   OH226379   5.502   1.299   1.514 -0.1612  0.0590  0.2927
 1607TIP3    H126380   5.582   1.331   1.472 -0.0441 -1.2193 -0.5040
 1607TIP3    H226381   5.499   1.345   1.598 -0.0329  2.1696 -0.7856
 1608TIP3   OH226382   1.277   3.549   7.165 -0.2776 -0.2349  0.8529
 1608TIP3    H126383   1.295   3.572   7.073 -0.0988  2.1376  1.4101
 1608TIP3    H226384   1.188   3.513   7.163 -0.5099  0.3346 -0.1760
 1609TIP3   OH226385   2.294   4.994   1.581 -0.3200 -0.0800 -0.4479
 1609TIP3    H126386   2.292   4.927   1.650 -1.7615 -1.8708 -2.1002
 1609TIP3    H226387   2.206   5.032   1.582 -0.2566  0.0988 -1.0973
 1610TIP3   OH226388   3.612   1.087   0.379 -0.0734  0.0070  0.5820
 1610TIP3    H126389   3.523   1.118   0.394 -0.5378 -1.8143  1.9192
 1610TIP3    H226390   3.615   1.068   0.285 -0.4546  1.8418  0.1632
 1611TIP3   OH226391   4.549   2.521   8.696  0.3884 -0.0754  0.0355
 1611TIP3    H126392   4.501   2.562   8.767 -2.1422  0.6207 -1.9357
 1611TIP3    H226393   4.640   2.551   8.708 -0.2859  1.4428  1.9030
 1612TIP3   OH226394   3.882   1.075   1.190  0.1959 -0.3878  0.1709
 1612TIP3    H126395   3.880   1.076   1.095 -3.0287  0.3025  0.1270
 1612TIP3    H226396   3.912   1.163   1.214 -2.0716  0.5670 -0.3092
 1613TIP3   OH226397   4.870   0.071   1.511 -0.3525  0.1326 -0.0803
 1613TIP3    H126398   4.810   0.102   1.580  0.0563  1.5156 -0.3109
 1613TIP3    H226399   4.941   0.028   1.559 -0.5841  0.1716  0.3050
 1614TIP3   OH226400   2.616   4.122   8.382  0.7366  0.7230  0.1386
 1614TIP3    H126401   2.706   4.133   8.412  0.7526  1.8224 -0.2352
 1614TIP3    H226402   2.581   4.051   8.434  2.4591 -1.2028 -1.1701
 1615TIP3   OH226403   6.621   3.627   7.821  0.1761  0.1256  0.5992
 1615TIP3    H126404   6.702   3.672   7.844  0.0892 -0.8513  3.1795
 1615TIP3    H226405   6.575   3.617   7.904 -1.9509 -0.5980 -0.5960
 1616TIP3   OH226406   4.829   3.012   0.411 -0.0473  0.3417  0.3834
 1616TIP3    H126407   4.838   2.983   0.501  0.3370 -1.8055 -0.2983
 1616TIP3    H226408   4.799   2.935   0.363 -0.1965  1.4112 -1.3550
 1617TIP3   OH226409   6.334   4.038   0.880  0.4481  0.6902  0.6390
 1617TIP3    H126410   6.258   4.095   0.896  0.9437  1.5602 -0.0150
 1617TIP3    H226411   6.335   4.026   0.785  0.8002  0.2125  0.7042
 1618TIP3   OH226412   2.500   0.282   8.467  0.4030  0.5981  0.1802
 1618TIP3    H126413   2.496   0.362   8.415  1.7168  0.2093 -0.5756
 1618TIP3    H226414   2.555   0.305   8.542  1.5877  0.1910 -0.5244
 1619TIP3   OH226415   5.602   2.634   6.873  0.2651 -0.0274  0.1697
 1619TIP3    H126416   5.697   2.640   6.872  0.2277  0.8687  0.6520
 1619TIP3    H226417   5.574   2.685   6.797  0.2299 -2.6513 -1.7022
 1620TIP3   OH226418   3.229   0.613   1.091  0.0348 -0.0001  0.3077
 1620TIP3    H126419   3.172   0.605   1.168  1.3692 -1.7438  1.2015
 1620TIP3    H226420   3.183   0.673   1.033 -1.9232 -0.0797  1.6666
 1621TIP3   OH226421   5.677   5.790   1.389  0.5037 -0.4856 -0.7582
 1621TIP3    H126422   5.597   5.829   1.353 -0.3812 -1.1393  0.4188
 1621TIP3    H226423   5.730   5.768   1.313 -1.7030 -2.7400 -1.7809
 1622TIP3   OH226424   3.480   3.941   1.524  0.3968  0.5010 -1.0854
 1622TIP3    H126425   3.515   3.853   1.539 -0.9510 -0.0453 -1.0332
 1622TIP3    H226426   3.398   3.927   1.477 -0.6451  1.6212  0.3152
 1623TIP3   OH226427   5.761   1.436   1.878 -0.2461 -0.0867  0.5140
 1623TIP3    H126428   5.671   1.419   1.848  0.3966 -0.5123 -1.2897
 1623TIP3    H226429   5.796   1.349   1.895  0.4401 -0.0813 -0.7533
 1624TIP3   OH226430   4.090   0.867   0.087  0.2596  0.0765 -0.2773
 1624TIP3    H126431   4.119   0.778   0.069 -0.6801 -0.1354 -0.7851
 1624TIP3    H226432   4.018   0.882   0.026 -1.0414  0.3957  1.2671
 1625TIP3   OH226433   0.572   5.126   7.402  0.5046  0.4596  0.0737
 1625TIP3    H126434   0.570   5.153   7.310 -1.4255 -0.5563 -0.2449
 1625TIP3    H226435   0.590   5.032   7.400 -2.2605 -0.1650  0.4732
 1626TIP3   OH226436   2.087   5.843   6.848 -0.4278  0.0586  0.2233
 1626TIP3    H126437   2.116   5.930   6.820  0.1369  0.9333  3.2199
 1626TIP3    H226438   2.157   5.784   6.819 -1.6520  0.1772 -3.4615
 1627TIP3   OH226439   1.272   3.367   7.633 -0.7708  0.4288 -0.3413
 1627TIP3    H126440   1.215   3.329   7.700  0.8321 -0.3668  0.6270
 1627TIP3    H226441   1.240   3.329   7.551 -2.1715  0.6994  0.0429
 1628TIP3   OH226442   6.735   4.238   2.056 -0.4341  0.1203 -0.4375
 1628TIP3    H126443   6.729   4.332   2.072 -1.7980  0.1587 -1.0389
 1628TIP3    H226444   6.665   4.199   2.109  1.3497 -0.8173  1.3792
 1629TIP3   OH226445   0.198   4.431   1.510  0.1266  0.0414 -0.4406
 1629TIP3    H126446   0.256   4.368   1.467 -0.5105 -0.1909 -0.9603
 1629TIP3    H226447   0.111   4.392   1.505 -0.0227  0.1894  0.7259
 1630TIP3   OH226448   4.148   6.783   7.951 -0.2197  0.6192 -0.3092
 1630TIP3    H126449   4.193   6.864   7.930 -0.5102  0.8627  0.0036
 1630TIP3    H226450   4.214   6.729   7.994 -0.0621  0.7365 -0.4017
 1631TIP3   OH226451   3.682   4.545   7.168  1.1568 -0.1046 -0.1449
 1631TIP3    H126452   3.663   4.471   7.225  1.1243  0.7360  0.9666
 1631TIP3    H226453   3.630   4.617   7.204  1.4264  0.5377 -1.0180
 1632TIP3   OH226454   0.590   0.168   0.521 -0.0386  0.2648  0.0435
 1632TIP3    H126455   0.671   0.131   0.485  0.1693  0.0960  0.6841
 1632TIP3    H226456   0.520   0.113   0.485  0.1341  0.3601 -0.4415
 1633TIP3   OH226457   4.794   5.967   8.453 -0.3032 -0.6809 -0.1202
 1633TIP3    H126458   4.874   5.915   8.456 -0.8133 -1.5819 -1.5109
 1633TIP3    H226459   4.823   6.054   8.424  0.1879 -0.9556 -0.4655
 1634TIP3   OH226460   3.772   4.373   1.647  0.0448  0.3029  0.3080
 1634TIP3    H126461   3.835   4.367   1.575  1.6855  4.2034  1.1504
 1634TIP3    H226462   3.808   4.316   1.715  0.4974 -0.5226 -0.5925
 1635TIP3   OH226463   5.658   0.580   1.229  0.1536  0.4816  0.2505
 1635TIP3    H126464   5.636   0.587   1.322  3.4674  1.5858  1.1043
 1635TIP3    H226465   5.754   0.578   1.227  0.2072 -0.4055 -3.1284
 1636TIP3   OH226466   3.286   4.500   6.237  0.0909  0.3058 -0.2414
 1636TIP3    H126467   3.355   4.461   6.290 -0.0757  2.4595  1.7816
 1636TIP3    H226468   3.218   4.433   6.233 -0.1112  0.1624  2.8470
 1637TIP3   OH226469   1.125   5.827   8.290  0.3165 -0.3489  0.5297
 1637TIP3    H126470   1.214   5.794   8.297  0.0739 -0.7506  2.1122
 1637TIP3    H226471   1.089   5.784   8.212 -0.0730 -4.1628  2.5770
 1638TIP3   OH226472   1.423   4.362   5.975 -0.7288  0.1340  0.2132
 1638TIP3    H126473   1.443   4.394   6.063  0.3582 -0.2536  0.1303
 1638TIP3    H226474   1.479   4.414   5.917  0.0828 -0.9621 -0.0373
 1639TIP3   OH226475   3.489   0.136   8.378  0.1632  0.1845  0.2986
 1639TIP3    H126476   3.564   0.101   8.331  0.9342  0.2806  1.4288
 1639TIP3    H226477   3.526   0.196   8.443 -0.9536  0.9691  0.2412
 1640TIP3   OH226478   6.338   4.049   8.802  0.0587 -0.3796 -0.6905
 1640TIP3    H126479   6.384   4.068   8.884 -0.5020 -2.6351  0.2192
 1640TIP3    H226480   6.246   4.044   8.828 -0.0318 -2.0181 -1.2626
 1641TIP3   OH226481   0.206   2.523   1.361 -0.0530  0.7359  0.1270
 1641TIP3    H126482   0.118   2.559   1.373  0.0948  1.0543  0.2558
 1641TIP3    H226483   0.246   2.527   1.448 -0.4107 -0.7405  0.3915
 1642TIP3   OH226484   3.084   1.361   7.473 -0.1452  0.0596  0.8438
 1642TIP3    H126485   3.139   1.439   7.479 -0.2811  0.1044  1.6167
 1642TIP3    H226486   3.129   1.296   7.527 -0.3073 -0.2270  0.6323
 1643TIP3   OH226487   2.055   0.026   1.778  0.3443  0.3171 -0.3067
 1643TIP3    H126488   2.052  -0.035   1.704 -1.7700  0.6640 -0.5526
 1643TIP3    H226489   1.968   0.066   1.781  1.1296  2.0897  0.9014
 1644TIP3   OH226490   0.522   4.757   8.852 -0.1884 -0.1317  0.4906
 1644TIP3    H126491   0.459   4.721   8.915 -0.3283 -1.0501 -0.1462
 1644TIP3    H226492   0.538   4.846   8.882 -0.6911 -0.3636  1.4931
 1645TIP3   OH226493   0.564   3.632   1.403  0.4550  0.1910 -0.3251
 1645TIP3    H126494   0.589   3.708   1.350 -2.6587  0.3860 -1.6730
 1645TIP3    H226495   0.575   3.663   1.494 -2.7991  3.2150 -0.7421
 1646TIP3   OH226496   5.287   2.001   2.009 -0.7326 -0.4514 -0.3153
 1646TIP3    H126497   5.367   2.027   1.963 -0.0895 -0.2832  0.8695
 1646TIP3    H226498   5.220   2.062   1.977  0.0221  0.5662  0.0058
 1647TIP3   OH226499   5.508   1.863   8.397 -0.0672 -0.4224  0.0707
 1647TIP3    H126500   5.499   1.875   8.302 -0.7894 -1.8675 -0.0795
 1647TIP3    H226501   5.501   1.768   8.409  1.1156 -0.3535  1.4676
 1648TIP3   OH226502   3.317   4.490   6.890 -0.2244  0.6393  0.2793
 1648TIP3    H126503   3.292   4.553   6.822  1.9985  1.1009 -0.1822
 1648TIP3    H226504   3.293   4.405   6.853 -1.1550  1.0445 -0.0734
 1649TIP3   OH226505   3.988   3.301   0.264 -0.3711 -0.9314 -0.7339
 1649TIP3    H126506   3.965   3.303   0.357 -0.9400 -3.4167 -0.7643
 1649TIP3    H226507   3.982   3.393   0.236  0.0755 -0.0842  1.7145
 1650TIP3   OH226508   1.089   5.193   7.668 -0.3270  0.0290  0.0436
 1650TIP3    H126509   1.129   5.233   7.745 -0.1722 -1.7256  0.9207
 1650TIP3    H226510   1.002   5.232   7.663 -0.7216 -0.5503  1.7321
 1651TIP3   OH226511   3.814   0.411   1.351 -0.2158  0.1632 -0.2117
 1651TIP3    H126512   3.724   0.389   1.330  0.0276 -1.4702  0.3439
 1651TIP3    H226513   3.820   0.404   1.446 -0.1468  2.9407  0.0774
 1652TIP3   OH226514   3.635   3.305   1.673  0.0144  0.2048 -0.4484
 1652TIP3    H126515   3.643   3.210   1.678 -0.4413  0.2221  0.9718
 1652TIP3    H226516   3.693   3.339   1.741 -0.5347  0.8985 -0.3065
 1653TIP3   OH226517   3.795   6.316   8.278 -0.0756 -0.2127  0.0311
 1653TIP3    H126518   3.743   6.396   8.270 -0.3936 -0.3401  0.7771
 1653TIP3    H226519   3.881   6.340   8.244 -0.4508  0.1576 -0.6989
 1654TIP3   OH226520   0.743   5.668   1.672 -0.4200 -0.4209  0.0839
 1654TIP3    H126521   0.827   5.626   1.686 -0.8537 -1.1513  0.5633
 1654TIP3    H226522   0.713   5.692   1.759 -0.2298  0.8191 -0.1699
 1655TIP3   OH226523   4.781   5.809   0.448 -0.1411  0.4082 -0.3130
 1655TIP3    H126524   4.691   5.839   0.433 -0.1491  0.4214 -0.2433
 1655TIP3    H226525   4.774   5.713   0.447 -0.3032  0.4029  0.5100
 1656TIP3   OH226526   4.319   3.730   1.077 -0.3023  0.1874  0.0050
 1656TIP3    H126527   4.296   3.692   0.992 -0.2601 -2.2696  0.9859
 1656TIP3    H226528   4.236   3.743   1.121 -0.2673  0.0405  0.1184
 1657TIP3   OH226529   0.588   1.543   0.052  0.4439  0.6738 -0.1683
 1657TIP3    H126530   0.626   1.557  -0.035  1.0489  2.2326  0.3063
 1657TIP3    H226531   0.498   1.513   0.035  0.6827  0.5758 -1.3154
 1658TIP3   OH226532   5.792   4.340   0.984  0.5556  0.1387 -0.1387
 1658TIP3    H126533   5.866   4.310   1.036  0.3305  0.0817  0.1553
 1658TIP3    H226534   5.820   4.423   0.945  0.5102  0.4829  0.5596
 1659TIP3   OH226535   3.044   4.696   0.567 -0.2466 -0.4565  0.2022
 1659TIP3    H126536   2.959   4.704   0.612 -0.1578  2.1104  0.0119
 1659TIP3    H226537   3.024   4.712   0.475  0.4658  0.4298  0.1926
 1660TIP3   OH226538   0.283   4.104   7.279  0.2260 -0.1676 -0.3708
 1660TIP3    H126539   0.376   4.085   7.278  0.1703 -0.4887 -1.6046
 1660TIP3    H226540   0.269   4.159   7.202 -0.5001  0.4118  0.1618
 1661TIP3   OH226541   1.108   3.045   0.755  0.2972 -0.4028 -0.2347
 1661TIP3    H126542   1.104   3.097   0.675  0.2229 -1.9027 -1.2525
 1661TIP3    H226543   1.082   3.105   0.825  0.4923  0.9709 -1.3159
 1662TIP3   OH226544   5.839   0.754   7.292  0.2165 -0.1677  0.1885
 1662TIP3    H126545   5.881   0.789   7.213  0.7863 -0.4231  0.3721
 1662TIP3    H226546   5.911   0.741   7.354 -0.2216 -0.0092  0.7389
 1663TIP3   OH226547   3.411   0.853   2.186 -0.2349 -0.1189 -0.0417
 1663TIP3    H126548   3.479   0.893   2.132 -0.6664  0.0199 -0.4883
 1663TIP3    H226549   3.444   0.765   2.205  0.6403  0.3677  0.7951
 1664TIP3   OH226550   2.671   6.345   8.671  0.3452  0.3738  0.0906
 1664TIP3    H126551   2.692   6.387   8.755 -1.7551  0.9571  0.3829
 1664TIP3    H226552   2.744   6.284   8.656  0.7766  0.2439  2.3350
 1665TIP3   OH226553   1.341   1.263   1.320  0.4222  0.1405  0.3092
 1665TIP3    H126554   1.269   1.200   1.330 -0.5244  1.2270  0.5186
 1665TIP3    H226555   1.320   1.333   1.382  2.0799  0.1170  0.9459
 1666TIP3   OH226556   3.060   5.247   8.803 -0.0870  0.3240 -0.7206
 1666TIP3    H126557   3.060   5.159   8.841 -0.4261  0.4933 -0.3122
 1666TIP3    H226558   2.978   5.286   8.833 -0.9834  0.0488 -2.6699
 1667TIP3   OH226559   3.220   5.727   7.267  0.2949  0.1767 -0.0511
 1667TIP3    H126560   3.163   5.803   7.278 -0.2567 -0.2388 -0.0265
 1667TIP3    H226561   3.163   5.652   7.281  0.3124 -0.3219 -2.3490
 1668TIP3   OH226562   3.127   2.059   8.144  0.2408 -0.1029 -0.1650
 1668TIP3    H126563   3.162   2.117   8.077  0.8221 -0.6432 -0.3440
 1668TIP3    H226564   3.171   1.975   8.128 -0.1528 -0.4330  0.4407
 1669TIP3   OH226565   3.218   6.126   7.470  0.3562 -0.6021  0.1751
 1669TIP3    H126566   3.251   6.117   7.380 -2.1206  1.7765 -1.0997
 1669TIP3    H226567   3.245   6.214   7.497  0.5542 -1.0686  1.5763
 1670TIP3   OH226568   5.032   2.542   1.244 -0.2311 -0.0033 -0.2296
 1670TIP3    H126569   4.989   2.492   1.175  0.2869  0.0011 -0.5584
 1670TIP3    H226570   5.050   2.627   1.203  0.9080 -0.3089 -0.3923
 1671TIP3   OH226571   1.867   5.741   0.279  0.0834 -0.0876 -0.0415
 1671TIP3    H126572   1.915   5.666   0.314  0.2824 -0.5815 -1.3383
 1671TIP3    H226573   1.860   5.724   0.185 -2.4587  0.0601  0.0570
 1672TIP3   OH226574   1.664   3.391   7.050  0.4243  0.3103  0.2492
 1672TIP3    H126575   1.700   3.340   6.977  1.8870  0.5003  0.7977
 1672TIP3    H226576   1.592   3.441   7.012  0.1417 -0.7841 -0.6991
 1673TIP3   OH226577   2.038   5.635   8.317 -0.0381 -0.8515  0.4706
 1673TIP3    H126578   1.978   5.566   8.344 -2.4799  1.5483  1.7082
 1673TIP3    H226579   1.996   5.674   8.240 -1.2298  2.0292  2.4035
 1674TIP3   OH226580   2.638   0.863   8.000  0.3037 -0.1482  0.0990
 1674TIP3    H126581   2.642   0.877   8.095  0.0778  0.5338  0.0149
 1674TIP3    H226582   2.729   0.868   7.972  0.4212 -0.8106  0.3341
 1675TIP3   OH226583   2.761   1.947   2.031  0.2013 -0.4374 -0.2533
 1675TIP3    H126584   2.742   2.032   2.072  0.3539 -0.6901  0.3458
 1675TIP3    H226585   2.857   1.942   2.031  0.1938 -1.4719  1.5387
 1676TIP3   OH226586   4.945   2.857   7.877 -0.4898  0.2331 -0.4691
 1676TIP3    H126587   4.874   2.915   7.905  0.1163  0.1076  1.4617
 1676TIP3    H226588   4.930   2.776   7.925  0.9062  0.1821 -0.0919
 1677TIP3   OH226589   1.768   6.247   6.585  0.0928  0.4848 -0.4399
 1677TIP3    H126590   1.786   6.168   6.534  0.9881  0.1814  0.3200
 1677TIP3    H226591   1.784   6.319   6.523 -0.4571  0.0872 -1.0530
 1678TIP3   OH226592   2.627   0.215   1.152  0.3679  0.1768  0.2218
 1678TIP3    H126593   2.543   0.237   1.194  0.3244 -0.5256  0.5133
 1678TIP3    H226594   2.689   0.207   1.225  1.1133  2.3572 -0.0845
 1679TIP3   OH226595   3.367   0.142   7.912 -0.4902  0.8833 -0.7706
 1679TIP3    H126596   3.436   0.076   7.914 -3.3307 -2.3719  2.1404
 1679TIP3    H226597   3.407   0.217   7.867  4.3991 -1.1668 -0.4407
 1680TIP3   OH226598   5.840   5.491   7.546 -0.3922 -0.1685  0.0933
 1680TIP3    H126599   5.931   5.462   7.557 -0.0525  0.4285 -0.9663
 1680TIP3    H226600   5.822   5.478   7.452 -0.9404  0.9870  0.0151
 1681TIP3   OH226601   4.802   2.259   1.687 -0.4195 -0.3352 -0.0971
 1681TIP3    H126602   4.893   2.288   1.689 -0.4389 -0.2741 -0.1124
 1681TIP3    H226603   4.751   2.340   1.684 -0.5779 -0.1758  3.0190
 1682TIP3   OH226604   2.216   5.796   2.045 -0.3304 -0.3292  0.4111
 1682TIP3    H126605   2.157   5.869   2.064 -2.3918 -1.9372  0.5366
 1682TIP3    H226606   2.304   5.833   2.057 -1.2197  2.4418 -0.7987
 1683TIP3   OH226607   6.033   2.236   8.660 -0.2124 -0.2228 -0.4393
 1683TIP3    H126608   5.983   2.223   8.740 -0.8573  0.8630 -0.6575
 1683TIP3    H226609   6.125   2.227   8.687 -0.4849 -2.6693 -0.1187
 1684TIP3   OH226610   6.606   1.763   8.245 -0.1330  0.4851 -0.3466
 1684TIP3    H126611   6.613   1.848   8.287 -0.7777  0.2005  0.3644
 1684TIP3    H226612   6.694   1.744   8.214  0.9302 -0.2218  2.7711
 1685TIP3   OH226613   1.500   6.342   0.546  0.4262 -0.2606 -0.0557
 1685TIP3    H126614   1.440   6.268   0.536 -0.9255  0.7433  0.3693
 1685TIP3    H226615   1.495   6.364   0.639  1.3909 -0.0904 -0.0342
 1686TIP3   OH226616   2.886   2.323   8.526  0.0382  0.4475  0.0733
 1686TIP3    H126617   2.827   2.256   8.491 -0.6145  0.8764  0.3396
 1686TIP3    H226618   2.838   2.405   8.517 -0.1119  0.6036  1.8227
 1687TIP3   OH226619   2.238   6.653   1.087  0.4985 -0.4478 -0.0388
 1687TIP3    H126620   2.305   6.585   1.082  1.4837  0.3478  1.3854
 1687TIP3    H226621   2.261   6.715   1.018 -0.8467 -1.8570 -1.8541
 1688TIP3   OH226622   5.579   4.188   8.859  0.2429  0.7511 -0.6529
 1688TIP3    H126623   5.591   4.148   8.946  0.2441  1.2418 -0.4257
 1688TIP3    H226624   5.604   4.280   8.871 -1.1123  1.1543 -0.8397
 1689TIP3   OH226625   5.739   1.382   1.346  0.2779 -0.3940  0.2366
 1689TIP3    H126626   5.819   1.373   1.397 -0.4944 -0.9525  1.3775
 1689TIP3    H226627   5.740   1.307   1.287  0.3004 -0.7313  0.6622
 1690TIP3   OH226628   6.581   1.616   1.830  0.2885  0.0828 -0.2935
 1690TIP3    H126629   6.521   1.577   1.767 -2.1071  0.5848  1.5226
 1690TIP3    H226630   6.589   1.549   1.899  1.0090  0.4158 -0.0465
 1691TIP3   OH226631   5.730   4.035   7.995 -0.4677  0.2408  0.1039
 1691TIP3    H126632   5.682   3.987   8.063  1.1276 -1.6299  0.0101
 1691TIP3    H226633   5.822   4.016   8.014  0.0469  0.5101 -1.9651
 1692TIP3   OH226634   3.798   4.213   2.082 -0.0662 -0.4112  0.6176
 1692TIP3    H126635   3.774   4.162   2.160 -1.8788  0.6553  0.8307
 1692TIP3    H226636   3.769   4.302   2.103  0.0192  0.0221 -1.0131
 1693TIP3   OH226637   4.430   1.961   7.988  0.1706 -0.0047  0.9579
 1693TIP3    H126638   4.436   2.046   8.033  0.0883 -0.4012  1.7326
 1693TIP3    H226639   4.343   1.929   8.011  0.0297 -0.1042  0.3024
 1694TIP3   OH226640   1.502   4.385   7.159 -0.4020 -0.0195 -0.2194
 1694TIP3    H126641   1.432   4.379   7.224  0.0737 -0.7412  0.2537
 1694TIP3    H226642   1.579   4.350   7.204  0.2408  0.6634 -0.7627
 1695TIP3   OH226643   1.157   0.544   1.046 -0.2703 -0.3578 -0.3490
 1695TIP3    H126644   1.132   0.567   1.135 -1.9222 -2.5949 -0.1230
 1695TIP3    H226645   1.245   0.507   1.054 -0.7599 -1.3956  0.5603
 1696TIP3   OH226646   0.397   3.139   6.477 -0.1698 -0.0024 -0.1255
 1696TIP3    H126647   0.328   3.153   6.412 -1.4264 -0.5371  1.0160
 1696TIP3    H226648   0.398   3.044   6.491  1.5069 -0.1165 -0.8181
 1697TIP3   OH226649   1.909   2.452   7.172 -0.1772  0.2103  0.2933
 1697TIP3    H126650   1.925   2.417   7.260  1.6533  0.7551  0.2155
 1697TIP3    H226651   1.978   2.413   7.118 -0.8319  0.4607 -0.7506
 1698TIP3   OH226652   4.535   1.979   0.346  0.2445 -0.5869 -0.1528
 1698TIP3    H126653   4.547   1.917   0.274 -1.7830 -1.3008  0.0739
 1698TIP3    H226654   4.557   1.929   0.425  0.1661 -0.5212 -0.0896
 1699TIP3   OH226655   6.262   0.865   0.874  0.5917 -0.3141  0.0679
 1699TIP3    H126656   6.336   0.903   0.922 -0.0058  1.3925 -0.2937
 1699TIP3    H226657   6.210   0.821   0.941  0.6851  0.5311  0.7112
 1700TIP3   OH226658   2.519   2.600   7.811  0.4402  0.1861 -0.4086
 1700TIP3    H126659   2.561   2.516   7.828 -0.6134 -0.4223 -0.7415
 1700TIP3    H226660   2.519   2.609   7.716  1.0268  0.8212 -0.3562
 1701TIP3   OH226661   6.440   5.166   0.758 -0.3368  0.1589 -0.6782
 1701TIP3    H126662   6.381   5.240   0.740  1.6863  1.4998 -2.1499
 1701TIP3    H226663   6.464   5.134   0.672 -2.1324 -3.1625 -0.1026
 1702TIP3   OH226664   2.592   0.065   0.689  0.3886 -0.0658 -0.7207
 1702TIP3    H126665   2.678   0.075   0.648  0.7156  0.8889  0.1438
 1702TIP3    H226666   2.611   0.041   0.780 -0.2818 -0.5026 -0.6897
 1703TIP3   OH226667   0.429   3.002   1.418  0.2783 -0.3482  0.0860
 1703TIP3    H126668   0.522   2.981   1.422  0.4040 -0.0236 -0.8679
 1703TIP3    H226669   0.421   3.062   1.343 -0.6377 -0.0682  0.3911
 1704TIP3   OH226670   2.465   2.667   0.805 -0.6409  0.0642 -0.2349
 1704TIP3    H126671   2.425   2.623   0.880 -0.1385 -0.6403 -0.3649
 1704TIP3    H226672   2.436   2.616   0.729 -0.3836  0.2051 -0.4300
 1705TIP3   OH226673   2.518   3.462   0.194 -0.2531  0.4701 -0.5628
 1705TIP3    H126674   2.526   3.555   0.217  0.8956  0.3352 -0.3415
 1705TIP3    H226675   2.443   3.431   0.244 -0.0102  1.0472  0.1817
 1706TIP3   OH226676   1.432   4.476   0.415  0.2960 -0.1155 -0.2613
 1706TIP3    H126677   1.500   4.537   0.442 -0.0217 -0.0958  0.5304
 1706TIP3    H226678   1.372   4.529   0.363  0.0014  0.2671  0.4540
 1707TIP3   OH226679   1.447   1.544   7.980 -0.5055  0.3667  0.0875
 1707TIP3    H126680   1.380   1.482   8.008 -0.8558  0.3935 -0.6883
 1707TIP3    H226681   1.506   1.550   8.055 -0.8258 -0.4024  0.4098
 1708TIP3   OH226682   4.739   4.667   8.282  0.0062  0.0965  0.0014
 1708TIP3    H126683   4.688   4.664   8.362  0.7070 -2.2926  0.4591
 1708TIP3    H226684   4.816   4.720   8.304  0.1889 -0.5271  0.9455
 1709TIP3   OH226685   0.759   2.449   0.667  0.4675  0.2057 -0.1865
 1709TIP3    H126686   0.751   2.354   0.681  1.1924  0.3078  1.0721
 1709TIP3    H226687   0.757   2.486   0.755  0.5430  1.3339 -0.6482
 1710TIP3   OH226688   5.637   2.981   7.496 -0.4801 -0.1485  0.3754
 1710TIP3    H126689   5.644   2.911   7.562 -1.1303 -0.4992  0.0789
 1710TIP3    H226690   5.577   2.946   7.430  0.8082 -0.1414 -0.8479
 1711TIP3   OH226691   2.944   1.200   7.173 -0.1730  0.0288 -0.0278
 1711TIP3    H126692   2.960   1.276   7.229 -1.4492 -0.8564  1.6185
 1711TIP3    H226693   2.903   1.236   7.094  0.5517  1.1830  0.1041
 1712TIP3   OH226694   0.852   0.009   6.601 -0.0712  0.0930  0.2242
 1712TIP3    H126695   0.826  -0.055   6.535  1.0391 -1.4146  1.1720
 1712TIP3    H226696   0.810  -0.022   6.682 -1.2506  1.7940  0.3230
 1713TIP3   OH226697   0.018   5.306   2.526  0.3620  0.6847 -0.4978
 1713TIP3    H126698   0.054   5.393   2.543 -0.8485  1.0567  0.2605
 1713TIP3    H226699   0.016   5.264   2.612  0.9602 -0.1160 -0.8636
 1714TIP3   OH226700   3.164   5.636   0.299 -0.0364  0.2326 -0.3518
 1714TIP3    H126701   3.083   5.611   0.344  0.5862  0.8949  1.2391
 1714TIP3    H226702   3.215   5.683   0.366  1.6117 -0.0612 -1.3299
 1715TIP3   OH226703   0.048   4.554   2.281  0.3706 -0.1896  0.1621
 1715TIP3    H126704   0.032   4.643   2.312 -1.6760 -0.5970  0.4194
 1715TIP3    H226705  -0.039   4.516   2.270  1.1453 -2.9449  2.3738
 1716TIP3   OH226706   1.952   1.849   7.718 -0.3343 -0.1490 -0.0228
 1716TIP3    H126707   2.010   1.775   7.701  0.5507  0.6264 -0.4799
 1716TIP3    H226708   1.941   1.849   7.813  1.7900  0.6637  0.2718
 1717TIP3   OH226709   2.874   2.817   6.901 -0.1401  0.2226  0.4961
 1717TIP3    H126710   2.805   2.849   6.958 -0.1126 -0.6710  1.0463
 1717TIP3    H226711   2.829   2.761   6.837 -0.4261  2.5712 -1.4975
 1718TIP3   OH226712   3.772   5.138   1.180  0.5913  0.2109 -0.0980
 1718TIP3    H126713   3.786   5.139   1.274  0.1726  1.0266 -0.0336
 1718TIP3    H226714   3.830   5.207   1.146 -0.6922  1.2813 -0.2002
 1719TIP3   OH226715   0.702   4.838   8.525  0.7571  0.4426 -0.3627
 1719TIP3    H126716   0.796   4.829   8.510  0.8761  2.0015 -0.7253
 1719TIP3    H226717   0.661   4.804   8.445  1.0245  0.1962 -0.3947
 1720TIP3   OH226718   2.441   5.463   1.306 -0.6705 -0.4767  0.3573
 1720TIP3    H126719   2.388   5.481   1.385 -1.7830  0.6675 -0.5982
 1720TIP3    H226720   2.505   5.534   1.305 -0.6525 -0.4962  0.2277
 1721TIP3   OH226721   1.601   2.699   0.778  0.0293 -0.1113  0.3254
 1721TIP3    H126722   1.631   2.611   0.755 -0.4462  0.0439 -0.9798
 1721TIP3    H226723   1.516   2.684   0.820 -1.0429 -0.2164 -1.7205
 1722TIP3   OH226724   1.162   6.430   1.017 -0.3867 -0.1126  0.4689
 1722TIP3    H126725   1.247   6.474   1.008 -1.2109  2.0563  2.1719
 1722TIP3    H226726   1.167   6.385   1.101 -1.0225  0.3210  0.7484
 1723TIP3   OH226727   6.697   0.761   7.376  0.2774  0.3452 -0.1339
 1723TIP3    H126728   6.650   0.829   7.328 -0.1910  0.1986  0.1147
 1723TIP3    H226729   6.790   0.779   7.359  0.1185  0.3089 -1.0648
 1724TIP3   OH226730   6.645   2.334   2.455  0.2513 -0.1278  0.4949
 1724TIP3    H126731   6.678   2.399   2.393 -1.0563 -1.2832 -1.5376
 1724TIP3    H226732   6.550   2.340   2.448  0.0971 -2.4305  0.0018
 1725TIP3   OH226733   0.450   4.178   1.700  0.2222 -0.5421  0.1300
 1725TIP3    H126734   0.375   4.122   1.720 -0.9579  0.6984 -0.6468
 1725TIP3    H226735   0.522   4.117   1.687  0.1922 -1.6660  4.0154
 1726TIP3   OH226736   2.176   6.693   8.468  0.0681  0.1412 -0.3191
 1726TIP3    H126737   2.167   6.787   8.452  2.0794  0.2065 -1.3629
 1726TIP3    H226738   2.269   6.675   8.458 -0.1657 -1.8680  0.5258
 1727TIP3   OH226739   2.117   1.332   8.814  0.4279 -0.1252 -0.6060
 1727TIP3    H126740   2.032   1.309   8.852 -0.7245 -0.1599 -2.9801
 1727TIP3    H226741   2.109   1.425   8.791  1.7183  0.3514  0.7299
 1728TIP3   OH226742   3.657   6.275   1.777  0.3636 -0.5962 -0.6467
 1728TIP3    H126743   3.641   6.296   1.685 -1.2014 -0.5063 -0.3755
 1728TIP3    H226744   3.688   6.356   1.816  2.0303 -0.8830 -1.2781
 1729TIP3   OH226745   0.238   6.776   8.674 -0.4331 -0.2492  0.0031
 1729TIP3    H126746   0.155   6.768   8.628 -0.3088  0.1854 -0.2952
 1729TIP3    H226747   0.214   6.778   8.767 -0.6560 -1.5453 -0.0051
 1730TIP3   OH226748   5.361   3.067   1.408 -0.9624  0.4987 -0.0923
 1730TIP3    H126749   5.375   3.157   1.381  1.5183  1.2161  2.9864
 1730TIP3    H226750   5.292   3.072   1.474 -0.8910  0.1103  0.0152
 1731TIP3   OH226751   3.085   3.673   6.939 -0.5920  1.0406 -0.3885
 1731TIP3    H126752   3.151   3.740   6.955  0.0473  0.2875  0.2638
 1731TIP3    H226753   3.033   3.671   7.020 -0.2388  0.3672 -0.1694
 1732TIP3   OH226754   6.247   2.638   0.158  0.3430  0.8907 -0.0115
 1732TIP3    H126755   6.201   2.569   0.110  0.2302  1.3247 -0.5339
 1732TIP3    H226756   6.214   2.720   0.121  0.5417  1.2282  0.5393
 1733TIP3   OH226757   2.368   0.457   1.754  0.3926 -0.3571 -0.0424
 1733TIP3    H126758   2.308   0.400   1.706  1.3253 -0.2343 -1.3991
 1733TIP3    H226759   2.406   0.400   1.821 -1.2291 -0.4215  0.8695
 1734TIP3   OH226760   1.457   6.565   7.709 -0.5694 -0.1081  0.4152
 1734TIP3    H126761   1.384   6.517   7.669 -0.4011 -0.2167  0.2429
 1734TIP3    H226762   1.471   6.640   7.652  0.2955 -0.7695 -0.2507
 1735TIP3   OH226763   0.772   1.540   1.200 -0.2484 -0.3715  0.0024
 1735TIP3    H126764   0.695   1.484   1.209 -0.3976 -0.3614 -1.0442
 1735TIP3    H226765   0.739   1.616   1.151  0.2981 -0.1058  0.0496
 1736TIP3   OH226766   6.658   1.971   8.409  0.2836 -0.0046  0.1915
 1736TIP3    H126767   6.600   1.927   8.472  0.9359 -0.1450  0.7169
 1736TIP3    H226768   6.743   1.974   8.454  0.1358  2.3150  0.4137
 1737TIP3   OH226769   5.613   3.456   8.749  0.1097  0.2681 -0.8561
 1737TIP3    H126770   5.694   3.505   8.735 -0.6887  1.8566 -0.2352
 1737TIP3    H226771   5.599   3.461   8.844 -0.9317  0.3888 -1.0110
 1738TIP3   OH226772   2.848   4.137   0.949  0.1735 -0.4377 -0.4443
 1738TIP3    H126773   2.761   4.158   0.914  0.3580 -1.2787 -1.4755
 1738TIP3    H226774   2.901   4.213   0.927  0.1656 -0.7482 -1.6129
 1739TIP3   OH226775   1.561   5.564   1.044  0.6175  0.0675  0.3637
 1739TIP3    H126776   1.582   5.651   1.078  0.7553 -1.2229  4.0457
 1739TIP3    H226777   1.642   5.514   1.054  0.2137 -0.8182 -0.6029
 1740TIP3   OH226778   5.965   1.306   8.180  0.4257 -0.7762  0.3416
 1740TIP3    H126779   5.939   1.395   8.204  1.2147 -0.1088 -1.1413
 1740TIP3    H226780   5.989   1.312   8.087  2.0273 -2.1802  0.6090
 1741TIP3   OH226781   0.657   4.241   7.670 -0.3427 -0.5289 -0.0793
 1741TIP3    H126782   0.611   4.222   7.588  1.2723 -3.1620 -0.5012
 1741TIP3    H226783   0.725   4.304   7.646 -1.3010  0.4785 -0.2340
 1742TIP3   OH226784   4.524   0.625   1.819 -0.0475 -0.2498 -0.2386
 1742TIP3    H126785   4.471   0.650   1.743  1.3851  0.6761 -0.9818
 1742TIP3    H226786   4.461   0.617   1.890 -1.6032 -2.1398 -1.6925
 1743TIP3   OH226787   6.385   1.257   0.870  0.2462 -0.7323  0.2171
 1743TIP3    H126788   6.435   1.245   0.789  2.0216 -1.8759  1.4050
 1743TIP3    H226789   6.296   1.276   0.841  1.0884  0.1705 -1.9929
 1744TIP3   OH226790   2.259   5.261   6.870 -0.2971 -0.4695 -0.0752
 1744TIP3    H126791   2.269   5.301   6.784 -0.3606  0.2526  0.2459
 1744TIP3    H226792   2.170   5.285   6.897 -0.1103 -0.2891  0.3903
 1745TIP3   OH226793   6.200   4.850   0.994  0.2432 -0.2648  0.2234
 1745TIP3    H126794   6.156   4.855   0.909  0.7699 -0.3865 -0.0588
 1745TIP3    H226795   6.246   4.766   0.994  1.1169  0.1963  0.1913
 1746TIP3   OH226796   3.535   0.322   0.014 -0.0477 -0.1091  0.2646
 1746TIP3    H126797   3.543   0.245   0.070  0.0709  1.1340  2.0714
 1746TIP3    H226798   3.441   0.332  -0.000 -0.1396 -0.0149  0.9052
 1747TIP3   OH226799   6.483   1.384   1.639  0.4787  0.4395  0.0484
 1747TIP3    H126800   6.388   1.373   1.632  0.3457  0.1946  1.7486
 1747TIP3    H226801   6.511   1.408   1.551 -1.2970  1.5957 -0.2565
 1748TIP3   OH226802   5.664   4.454   0.064  0.1354 -0.1174  0.1239
 1748TIP3    H126803   5.726   4.525   0.082 -0.6010  0.5394  0.1503
 1748TIP3    H226804   5.646   4.415   0.149  0.4387 -0.2515  0.1277
 1749TIP3   OH226805   4.679   2.702   1.890  0.0726 -0.0391 -0.3270
 1749TIP3    H126806   4.650   2.776   1.837  1.4710 -0.1971 -1.3790
 1749TIP3    H226807   4.746   2.659   1.837 -0.0705 -1.5500  0.6386
 1750TIP3   OH226808   4.522   3.619   7.097  0.5944 -0.2226 -0.4228
 1750TIP3    H126809   4.527   3.627   7.193  0.0579  2.0376 -0.5146
 1750TIP3    H226810   4.594   3.673   7.065 -1.0812  1.6745 -1.2665
 1751TIP3   OH226811   3.416   4.298   8.456 -0.0830  0.2675  0.3160
 1751TIP3    H126812   3.348   4.303   8.388  1.5218  1.0311 -1.3067
 1751TIP3    H226813   3.436   4.389   8.477  1.2612  0.0918 -0.1076
 1752TIP3   OH226814   1.269   0.211   8.263 -0.2565 -0.4871  0.4896
 1752TIP3    H126815   1.199   0.206   8.198 -1.0022  0.4272  1.1700
 1752TIP3    H226816   1.350   0.207   8.213 -0.8095 -0.5000 -0.4237
 1753TIP3   OH226817   4.752   2.816   7.192  0.3828 -0.4627 -0.2776
 1753TIP3    H126818   4.677   2.874   7.202  0.9332  0.3381 -0.6805
 1753TIP3    H226819   4.822   2.859   7.240  0.5077 -1.3631  0.3539
 1754TIP3   OH226820   5.169   0.016   8.211 -0.5862  0.0740 -0.3498
 1754TIP3    H126821   5.239   0.005   8.147 -1.0893 -1.2488 -0.6950
 1754TIP3    H226822   5.095  -0.030   8.174 -0.3404 -2.5071  2.0432
 1755TIP3   OH226823   2.465   6.024   7.297 -0.6972  0.0515  0.1447
 1755TIP3    H126824   2.528   5.981   7.355 -0.4736 -1.0399 -0.8780
 1755TIP3    H226825   2.518   6.052   7.222 -1.2614 -0.0122 -0.2817
 1756TIP3   OH226826   6.149   0.861   8.157 -0.2742 -0.0075  0.2231
 1756TIP3    H126827   6.054   0.856   8.147 -0.2911 -0.3416  0.5633
 1756TIP3    H226828   6.163   0.939   8.211 -0.3251  0.3301 -0.2472
 1757TIP3   OH226829   6.484   1.570   0.591 -0.1875  0.5197  0.1243
 1757TIP3    H126830   6.409   1.511   0.581 -0.1979  0.6913 -1.0490
 1757TIP3    H226831   6.559   1.519   0.560  0.4372 -0.0898  2.4565
 1758TIP3   OH226832   0.682   5.799   8.579 -0.2316  0.2671  0.1299
 1758TIP3    H126833   0.696   5.775   8.670  1.5198 -2.3962 -0.7242
 1758TIP3    H226834   0.770   5.804   8.541 -0.9012  1.6045 -1.3644
 1759TIP3   OH226835   1.655   2.020   6.912 -0.1704  0.7490  1.0557
 1759TIP3    H126836   1.564   2.045   6.898 -0.1002  0.2663 -0.5009
 1759TIP3    H226837   1.651   1.930   6.944 -0.2487  0.8084  1.2123
 1760TIP3   OH226838   5.416   6.382   8.577  0.3313  0.1488  0.2055
 1760TIP3    H126839   5.389   6.440   8.648 -1.0118  1.8205 -1.5397
 1760TIP3    H226840   5.488   6.331   8.613  0.4307  1.7130  2.4045
 1761TIP3   OH226841   6.035   5.666   6.958 -0.9119 -0.8126  0.0697
 1761TIP3    H126842   5.983   5.586   6.952  0.8608 -2.1329  1.1817
 1761TIP3    H226843   6.092   5.663   6.882 -2.1737  0.4647 -0.9710
 1762TIP3   OH226844   1.438   6.705   6.871  0.1583  0.1929  0.6887
 1762TIP3    H126845   1.355   6.751   6.876  0.6314  0.9993  1.5291
 1762TIP3    H226846   1.504   6.775   6.865  0.7937 -0.4175  0.3640
 1763TIP3   OH226847   2.254   2.222   1.596  0.1642 -0.4178 -0.0084
 1763TIP3    H126848   2.191   2.227   1.668  1.3342 -0.2528  1.0401
 1763TIP3    H226849   2.218   2.280   1.529 -0.1825  0.6601  1.0636
 1764TIP3   OH226850   3.010   2.287   1.140  0.0416 -0.1287  0.2959
 1764TIP3    H126851   3.052   2.217   1.191 -1.4370 -0.4990  1.0440
 1764TIP3    H226852   2.987   2.246   1.057  1.2854  0.1309 -0.2058
 1765TIP3   OH226853   3.266   1.282   2.088  0.2604  0.3554 -0.3108
 1765TIP3    H126854   3.171   1.288   2.096  0.2953  0.9947 -0.3062
 1765TIP3    H226855   3.291   1.209   2.145 -0.3026 -0.3167 -0.9034
 1766TIP3   OH226856   2.958   1.958   7.733  0.0994  0.2986  0.1809
 1766TIP3    H126857   2.903   1.979   7.809 -1.7888 -0.8271 -0.7880
 1766TIP3    H226858   2.944   2.031   7.673 -1.5142 -0.6233 -0.6296
 1767TIP3   OH226859   1.613   2.101   0.165  0.4634  0.0555 -0.2641
 1767TIP3    H126860   1.618   2.136   0.076 -0.1410  1.9000  0.3652
 1767TIP3    H226861   1.525   2.063   0.170  0.7270 -0.6137 -0.6341
 1768TIP3   OH226862   6.023   3.824   7.124  0.8742  0.1759  0.3942
 1768TIP3    H126863   6.016   3.794   7.215  0.4446 -1.0754 -0.0240
 1768TIP3    H226864   5.937   3.805   7.086  1.3045 -0.0775 -0.4816
 1769TIP3   OH226865   2.192   5.560   6.678 -0.0247  0.9141 -0.0713
 1769TIP3    H126866   2.186   5.468   6.651  0.3412  0.5369  1.0644
 1769TIP3    H226867   2.284   5.582   6.663 -0.1382  1.1344 -0.4489
 1770TIP3   OH226868   5.982   2.267   1.560 -0.9749  0.3707  0.0285
 1770TIP3    H126869   5.961   2.299   1.472  1.9373 -0.0706 -0.9389
 1770TIP3    H226870   6.016   2.179   1.546  0.0679  0.4937  1.5354
 1771TIP3   OH226871   0.652   1.970   8.726  0.2020 -0.4583  0.1759
 1771TIP3    H126872   0.734   1.971   8.775  1.6108  3.1233 -1.8674
 1771TIP3    H226873   0.677   1.941   8.638 -0.9001 -0.2824 -0.2151
 1772TIP3   OH226874   5.344   6.077   1.296  0.0939 -0.0424  0.3622
 1772TIP3    H126875   5.419   6.019   1.306  0.6036  0.8039  1.6808
 1772TIP3    H226876   5.371   6.159   1.337 -1.1894  0.6075 -0.0374
 1773TIP3   OH226877   3.728   4.833   8.727  0.5786 -0.4210  0.0626
 1773TIP3    H126878   3.633   4.825   8.726  0.4553  0.9159 -0.4979
 1773TIP3    H226879   3.759   4.742   8.725 -0.6762 -0.8657 -1.0574
 1774TIP3   OH226880   1.262   1.720   8.146  0.5271  0.9643  0.4287
 1774TIP3    H126881   1.344   1.765   8.163  0.1935  1.5558  0.5161
 1774TIP3    H226882   1.287   1.639   8.102  1.2523  0.4022  1.8199
 1775TIP3   OH226883   2.474   0.960   8.748  0.2246  0.2580  0.1671
 1775TIP3    H126884   2.401   1.018   8.729  0.9984  0.3349 -3.0832
 1775TIP3    H226885   2.515   0.943   8.663  1.2543 -3.4671  1.1863
 1776TIP3   OH226886   2.976   4.451   8.809  0.0271 -0.5262 -0.0260
 1776TIP3    H126887   2.978   4.455   8.713 -1.1490 -0.1915 -0.0591
 1776TIP3    H226888   2.969   4.358   8.829 -0.1754 -0.5717 -0.2971
 1777TIP3   OH226889   6.732   0.247   6.994  0.1743 -0.2229  0.4975
 1777TIP3    H126890   6.755   0.330   6.953 -2.0690  0.6013  0.7792
 1777TIP3    H226891   6.757   0.181   6.929 -0.3871  0.8562 -0.8671
 1778TIP3   OH226892   3.724   2.335   7.914  0.2518  0.2003  0.8910
 1778TIP3    H126893   3.783   2.344   7.989 -1.4098 -0.8062  2.4001
 1778TIP3    H226894   3.656   2.275   7.945 -1.2797  0.9104 -0.9494
 1779TIP3   OH226895   1.361   1.218   6.209  0.6218  0.4335  0.7149
 1779TIP3    H126896   1.344   1.133   6.249 -0.7376 -0.0041 -0.7226
 1779TIP3    H226897   1.412   1.265   6.275 -0.2172 -0.8057  2.3294
 1780TIP3   OH226898   4.241   2.341   1.745  0.2797 -0.3202  0.4869
 1780TIP3    H126899   4.214   2.310   1.831  0.6331 -1.3383  0.2493
 1780TIP3    H226900   4.335   2.322   1.741  0.7282  1.6354  0.6621
 1781TIP3   OH226901   4.905   4.094   6.982  0.4262  0.0331 -0.3326
 1781TIP3    H126902   4.973   4.111   6.917 -0.3592  1.4716 -0.8293
 1781TIP3    H226903   4.946   4.115   7.066  0.9895 -0.3756 -0.5007
 1782TIP3   OH226904   5.017   5.951   0.219  0.3903 -0.0830  0.6394
 1782TIP3    H126905   5.043   5.908   0.137  2.3458  2.5706 -0.2754
 1782TIP3    H226906   5.069   5.907   0.286  0.2540 -0.9743  0.1761
 1783TIP3   OH226907   0.455   1.964   0.432  0.3636 -0.3859 -0.4765
 1783TIP3    H126908   0.409   2.042   0.402 -0.7715 -1.9297 -3.1813
 1783TIP3    H226909   0.397   1.925   0.497 -0.0950 -0.0860 -0.6979
 1784TIP3   OH226910   3.984   4.612   7.660  0.4086  0.1487 -0.5392
 1784TIP3    H126911   4.073   4.621   7.695  0.3622 -1.9221  0.2196
 1784TIP3    H226912   3.928   4.612   7.737 -0.3889  2.1527 -1.0425
 1785TIP3   OH226913   2.013   5.287   1.411  0.5341 -0.4288 -0.1198
 1785TIP3    H126914   1.988   5.375   1.438 -1.5736 -1.2826  0.9225
 1785TIP3    H226915   1.930   5.243   1.392  1.4804 -2.4062  0.0492
 1786TIP3   OH226916   3.999   4.749   1.288 -0.3167  0.1990 -0.2480
 1786TIP3    H126917   3.928   4.751   1.351  1.0387 -1.9796  1.5093
 1786TIP3    H226918   4.035   4.837   1.288 -0.3840  0.2677  2.0295
 1787TIP3   OH226919   5.592   3.865   0.684 -0.4708 -0.2984  0.0940
 1787TIP3    H126920   5.502   3.870   0.715 -0.4112  0.7121  0.1351
 1787TIP3    H226921   5.597   3.781   0.639 -1.4668 -0.3110 -0.0163
 1788TIP3   OH226922   0.128   2.345   0.885  0.3247 -0.1494 -0.4854
 1788TIP3    H126923   0.078   2.268   0.913  0.5992  0.0624  0.6508
 1788TIP3    H226924   0.216   2.331   0.920 -0.1736  1.6964  1.8075
 1789TIP3   OH226925   3.051   6.269   8.411 -0.0901  0.1461  0.2219
 1789TIP3    H126926   2.998   6.209   8.463 -1.6407 -0.5497 -2.0201
 1789TIP3    H226927   3.012   6.355   8.428 -2.1706 -0.3683 -1.4960
 1790TIP3   OH226928   2.015   5.096   2.113  0.7088 -0.0155 -0.0827
 1790TIP3    H126929   1.945   5.035   2.092 -1.0026  1.9178 -0.2774
 1790TIP3    H226930   1.996   5.125   2.202  2.1279 -0.5392  0.4244
 1791TIP3   OH226931   1.290   4.180   7.282  0.0935  0.5068  0.2316
 1791TIP3    H126932   1.311   4.140   7.366 -0.3594  0.0905  0.1489
 1791TIP3    H226933   1.302   4.110   7.218 -1.8900  0.1194  0.2211
 1792TIP3   OH226934   4.926   2.905   8.227 -0.3943 -0.0862  0.1214
 1792TIP3    H126935   5.015   2.879   8.250 -0.1104 -0.6089 -1.4591
 1792TIP3    H226936   4.872   2.871   8.299  0.4534 -1.5277  0.1149
 1793TIP3   OH226937   4.163   0.822   1.641 -0.2944 -0.2875  0.0455
 1793TIP3    H126938   4.237   0.862   1.688  1.4991  0.3119 -3.0098
 1793TIP3    H226939   4.123   0.895   1.594 -0.4414 -1.2147 -1.3067
 1794TIP3   OH226940   0.038   0.646   8.774  0.5657 -0.4361 -0.2562
 1794TIP3    H126941   0.028   0.621   8.682 -0.9795 -1.4370  0.1421
 1794TIP3    H226942  -0.008   0.577   8.822  2.2928 -0.5499  1.3595
 1795TIP3   OH226943   5.370   0.887   7.003  0.2274 -0.5539  0.2214
 1795TIP3    H126944   5.438   0.949   7.030 -0.5375 -0.8087  2.9503
 1795TIP3    H226945   5.404   0.802   7.028 -0.4136 -0.8399  0.1423
 1796TIP3   OH226946   0.996   1.084   0.300 -0.0768 -0.2990 -0.2697
 1796TIP3    H126947   0.966   1.084   0.391 -0.0555  0.2709 -0.2579
 1796TIP3    H226948   0.916   1.080   0.248 -0.1093 -0.2313 -0.2255
 1797TIP3   OH226949   0.172   1.136   2.064  0.0569 -0.1168 -0.3182
 1797TIP3    H126950   0.102   1.072   2.050 -0.0202 -0.2777  0.7422
 1797TIP3    H226951   0.188   1.134   2.158  1.4115  0.0181 -0.5368
 1798TIP3   OH226952   5.215   1.663   7.969 -0.2340 -0.3048  0.0235
 1798TIP3    H126953   5.126   1.627   7.976 -0.3596 -0.4681 -1.8970
 1798TIP3    H226954   5.232   1.701   8.055 -1.5690 -1.6100  0.9071
 1799TIP3   OH226955   3.216   2.078   0.899 -0.1712  0.0204 -0.0504
 1799TIP3    H126956   3.266   2.117   0.970 -0.3507  0.1816 -0.0133
 1799TIP3    H226957   3.132   2.125   0.899 -0.6225 -0.7691  0.3808
 1800TIP3   OH226958   6.787   1.193   8.768  0.4100 -0.0840  0.2828
 1800TIP3    H126959   6.752   1.254   8.833 -0.7018 -0.0160 -0.3501
 1800TIP3    H226960   6.749   1.109   8.791  0.4596 -0.1680  0.0562
 1801TIP3   OH226961   5.614   6.289   6.198 -0.4843 -0.4022  0.1405
 1801TIP3    H126962   5.564   6.310   6.120  0.3466  0.3358 -0.2182
 1801TIP3    H226963   5.654   6.373   6.224  0.2536 -0.8887  0.6187
 1802TIP3   OH226964   1.289   3.921   0.354  0.2919 -0.4641  0.4034
 1802TIP3    H126965   1.221   3.969   0.401 -0.5298 -0.7070 -0.5144
 1802TIP3    H226966   1.371   3.956   0.389 -0.2456 -1.5353  2.9552
 1803TIP3   OH226967   1.587   3.668   7.985 -0.0062  0.0212 -0.1616
 1803TIP3    H126968   1.629   3.673   7.900  0.5931  1.8154  0.2169
 1803TIP3    H226969   1.648   3.617   8.039 -0.3421 -1.0316 -0.7413
 1804TIP3   OH226970   1.025   0.327   7.406 -0.2131  0.4651  0.3046
 1804TIP3    H126971   1.037   0.412   7.362 -1.7260 -0.2155 -1.5047
 1804TIP3    H226972   0.952   0.341   7.465  2.0533  1.4888  3.0962
 1805TIP3   OH226973   2.338   1.429   0.644  0.4464 -0.7681 -0.0542
 1805TIP3    H126974   2.247   1.402   0.632  0.4585 -1.1586  0.6578
 1805TIP3    H226975   2.387   1.346   0.645  0.7208 -0.6016  0.2668
 1806TIP3   OH226976   4.070   2.040   1.778  0.3409 -0.5663 -0.5696
 1806TIP3    H126977   3.991   1.993   1.805  0.2030 -0.4411 -0.7518
 1806TIP3    H226978   4.132   2.024   1.848 -0.4973  0.9892  0.5834
 1807TIP3   OH226979   0.884   1.280   8.119 -0.0283  0.3587 -0.0526
 1807TIP3    H126980   0.843   1.359   8.154 -1.6470  0.6797 -2.4724
 1807TIP3    H226981   0.883   1.218   8.192 -1.6550  1.5262  0.9696
 1808TIP3   OH226982   6.530   3.906   7.912  0.6956 -0.1867  0.2208
 1808TIP3    H126983   6.532   3.842   7.841 -2.3033 -0.8553  0.6186
 1808TIP3    H226984   6.513   3.854   7.991 -0.4934  0.9418  0.7431
 1809TIP3   OH226985   5.566   4.946   1.750 -0.3780  0.6339 -0.3584
 1809TIP3    H126986   5.542   4.876   1.688 -1.6069  0.2236  0.5457
 1809TIP3    H226987   5.484   4.994   1.764 -0.6893 -0.5907  2.5809
 1810TIP3   OH226988   4.510   1.316   6.585  0.1575 -0.2193 -0.9221
 1810TIP3    H126989   4.472   1.389   6.537  2.1404 -0.0355 -2.3444
 1810TIP3    H226990   4.485   1.239   6.536  1.2635 -0.1309 -1.6421
 1811TIP3   OH226991   1.565   2.536   8.633 -0.2718  0.0259 -0.0634
 1811TIP3    H126992   1.485   2.565   8.589  0.1762 -0.2385 -1.0846
 1811TIP3    H226993   1.598   2.614   8.677 -1.5341 -0.0527  1.1247
 1812TIP3   OH226994   3.970   1.251   7.899  0.3133  0.2281 -0.2509
 1812TIP3    H126995   3.913   1.327   7.886 -0.7344 -0.3482  0.7387
 1812TIP3    H226996   4.033   1.255   7.827 -0.2547  1.5475 -0.7015
 1813TIP3   OH226997   4.692   5.603   8.727  0.3058  0.0781  0.0927
 1813TIP3    H126998   4.654   5.517   8.743 -0.1653  0.3576  0.4982
 1813TIP3    H226999   4.679   5.651   8.809  0.2120  0.6668 -0.2607
 1814TIP3   OH227000   1.589   4.904   7.728  0.3182 -0.1245 -0.2746
 1814TIP3    H127001   1.642   4.910   7.807 -0.9706  1.8350  0.5267
 1814TIP3    H227002   1.592   4.992   7.690  0.1128 -0.7805 -1.8724
 1815TIP3   OH227003   3.747   2.415   7.140 -0.2527  0.5150  0.3522
 1815TIP3    H127004   3.734   2.429   7.234 -0.0103  1.0458  0.3148
 1815TIP3    H227005   3.754   2.504   7.104  0.4909  0.3033 -0.0408
 1816TIP3   OH227006   4.602   5.856   7.765 -0.0227  0.2409  0.7945
 1816TIP3    H127007   4.523   5.828   7.810 -0.2037  0.3076  0.5217
 1816TIP3    H227008   4.606   5.803   7.686 -1.2335  2.0354 -0.5441
 1817TIP3   OH227009   4.498   3.600   7.827 -0.0112  0.3934 -0.2899
 1817TIP3    H127010   4.566   3.533   7.832 -0.2960  0.1637  0.6119
 1817TIP3    H227011   4.421   3.560   7.867 -1.1274  0.1384 -2.5477
 1818TIP3   OH227012   6.479   2.591   0.002 -0.5030 -0.2208  0.2113
 1818TIP3    H127013   6.405   2.604   0.061  0.4319 -1.3983  1.7265
 1818TIP3    H227014   6.545   2.655   0.032  0.1554 -1.1466  0.8140
 1819TIP3   OH227015   0.398   3.070   7.943  0.1748 -0.0094 -0.0813
 1819TIP3    H127016   0.404   3.075   8.039  1.0192  0.0424 -0.1315
 1819TIP3    H227017   0.454   3.141   7.912  0.3903 -0.4100 -0.6230
 1820TIP3   OH227018   2.973   1.254   2.052 -0.1114 -0.2496  0.3723
 1820TIP3    H127019   2.988   1.170   2.096  0.0723  0.2580  1.3121
 1820TIP3    H227020   2.878   1.264   2.051 -0.1117 -0.1994  0.7928
 1821TIP3   OH227021   3.574   1.598   8.845  0.2006  0.2008 -0.3671
 1821TIP3    H127022   3.517   1.673   8.827  0.5131  0.2536 -1.1425
 1821TIP3    H227023   3.516   1.522   8.841 -0.0416  0.3614  0.0362
 1822TIP3   OH227024   1.689   6.040   7.110  0.1903  0.0918 -0.3699
 1822TIP3    H127025   1.660   6.012   7.196  2.0417  3.2831  1.4917
 1822TIP3    H227026   1.761   5.981   7.088 -0.6554 -1.0968 -0.0149
 1823TIP3   OH227027   6.502   1.052   1.536  0.4687  0.0138  0.6024
 1823TIP3    H127028   6.478   1.033   1.446 -2.4721 -0.8533  1.4663
 1823TIP3    H227029   6.489   0.970   1.583  0.7928  0.7352  2.0430
 1824TIP3   OH227030   0.744   4.594   0.798  0.1159  0.3683  0.2961
 1824TIP3    H127031   0.832   4.632   0.799 -0.3321  1.8203 -2.8140
 1824TIP3    H227032   0.700   4.638   0.724 -2.9539 -0.9092  1.2114
 1825TIP3   OH227033   2.280   1.461   7.845 -0.4004  0.2595 -0.7596
 1825TIP3    H127034   2.249   1.454   7.755  0.6402 -1.8012 -1.0060
 1825TIP3    H227035   2.376   1.456   7.838 -0.3006  0.1489  0.4571
 1826TIP3   OH227036   0.124   2.057   7.272 -0.2888  0.4209 -0.1138
 1826TIP3    H127037   0.084   2.108   7.201 -1.8106  0.6535  0.8577
 1826TIP3    H227038   0.191   2.116   7.309  0.5016  0.3033 -1.3030
 1827TIP3   OH227039   0.907   1.300   6.868  0.1654  0.0140 -0.0911
 1827TIP3    H127040   0.878   1.259   6.950 -0.0887 -1.2341 -0.7677
 1827TIP3    H227041   0.928   1.226   6.811  0.1906  0.8539 -1.2084
 1828TIP3   OH227042   1.784   2.978   1.906  1.0082 -0.2671  0.3381
 1828TIP3    H127043   1.729   2.907   1.874  1.0195 -0.7018  1.2529
 1828TIP3    H227044   1.873   2.955   1.877  1.0007 -0.5942  0.5647
 1829TIP3   OH227045   2.405   1.701   8.373 -0.4735  0.5072  0.2979
 1829TIP3    H127046   2.490   1.728   8.337 -0.0626 -0.8835  0.1634
 1829TIP3    H227047   2.367   1.646   8.306 -0.8684  0.0077  0.9226
 1830TIP3   OH227048   6.289   2.372   7.923  0.2766 -0.2890  0.4236
 1830TIP3    H127049   6.310   2.354   7.832 -0.1565 -2.0065  0.6359
 1830TIP3    H227050   6.310   2.291   7.969 -4.1351 -1.3497  1.0737
 1831TIP3   OH227051   0.303   2.491   1.654  0.0293  0.5063 -0.1116
 1831TIP3    H127052   0.296   2.517   1.746 -1.1743 -3.0081  0.9926
 1831TIP3    H227053   0.223   2.440   1.638  0.8577 -0.1320 -2.6754
 1832TIP3   OH227054   6.042   4.986   1.484 -0.5751  0.6790  0.2797
 1832TIP3    H127055   6.026   4.893   1.470 -1.0177  0.9867 -1.4691
 1832TIP3    H227056   6.133   4.999   1.458  0.0025  0.4926  2.0368
 1833TIP3   OH227057   2.441   3.219   6.381 -0.1600 -0.3288 -0.4099
 1833TIP3    H127058   2.505   3.254   6.443 -0.2366 -0.5146 -0.2253
 1833TIP3    H227059   2.379   3.170   6.436 -1.1233  0.8075 -0.4270
 1834TIP3   OH227060   4.684   1.967   7.293  0.4211  0.4517 -0.6895
 1834TIP3    H127061   4.738   1.900   7.251  2.1598  0.3686  1.5211
 1834TIP3    H227062   4.746   2.029   7.330 -0.9877  0.8881  1.1157
 1835TIP3   OH227063   0.935   0.701   0.938  0.1359 -0.1150 -0.5503
 1835TIP3    H127064   0.880   0.636   0.893 -2.5821  0.0211  2.2315
 1835TIP3    H227065   0.994   0.649   0.992  1.0647 -0.2360 -1.6427
 1836TIP3   OH227066   3.495   4.028   2.520  0.2544  0.2525  0.0540
 1836TIP3    H127067   3.459   4.052   2.434 -0.6469 -2.8586 -0.5683
 1836TIP3    H227068   3.422   4.038   2.580  0.7068  1.7966  0.3884
 1837TIP3   OH227069   0.904   0.445   1.318  0.1121  0.0124 -0.0686
 1837TIP3    H127070   0.986   0.492   1.331 -0.2744  0.5022  0.6246
 1837TIP3    H227071   0.924   0.382   1.248  0.6160  1.2665 -1.1089
 1838TIP3   OH227072   2.556   1.604   0.687 -0.1391  0.2742 -0.0493
 1838TIP3    H127073   2.589   1.567   0.769 -0.5996  0.0083  0.0176
 1838TIP3    H227074   2.510   1.532   0.645 -0.2979  0.5351 -0.3268
 1839TIP3   OH227075   4.520   5.740   7.496 -0.2415  0.3544  0.0196
 1839TIP3    H127076   4.454   5.793   7.452 -1.8803 -2.5615 -1.3249
 1839TIP3    H227077   4.580   5.713   7.427  0.5666  0.4205  0.6719
 1840TIP3   OH227078   2.760   3.464   0.502  0.0644  0.1146  0.6960
 1840TIP3    H127079   2.799   3.549   0.525  0.7040 -0.0750  0.3416
 1840TIP3    H227080   2.825   3.423   0.446  0.0936 -0.9343  1.4784
 1841TIP3   OH227081   2.242   6.545   7.030  0.2771  0.2240 -0.4948
 1841TIP3    H127082   2.330   6.508   7.025  0.2068  0.1244 -1.0319
 1841TIP3    H227083   2.248   6.626   6.979 -0.1494 -0.1828 -1.1868
 1842TIP3   OH227084   3.699   6.373   1.104  0.1904 -0.2897 -0.4864
 1842TIP3    H127085   3.672   6.285   1.077 -0.3143  0.0335 -1.0576
 1842TIP3    H227086   3.617   6.422   1.110  0.5810  0.5098 -1.5332
 1843TIP3   OH227087   2.259   4.181   8.630 -0.5839 -0.2889 -0.2731
 1843TIP3    H127088   2.233   4.154   8.718  0.4507 -2.9570 -0.6835
 1843TIP3    H227089   2.346   4.141   8.618 -1.0506 -0.7115 -2.7732
 1844TIP3   OH227090   5.225   2.754   0.576  0.6468 -0.0504 -0.1255
 1844TIP3    H127091   5.194   2.721   0.492  2.8730 -0.5161 -0.8355
 1844TIP3    H227092   5.161   2.722   0.639  0.6414 -2.5532 -1.2666
 1845TIP3   OH227093   6.484   5.931   8.197 -0.5929 -0.1414  0.0631
 1845TIP3    H127094   6.512   6.022   8.191  0.5263 -0.5350 -1.1307
 1845TIP3    H227095   6.517   5.901   8.282 -0.2775  0.3377  0.1127
 1846TIP3   OH227096   3.575   5.933   6.644 -0.1398  0.3697  0.1857
 1846TIP3    H127097   3.500   5.901   6.594 -0.7976 -1.7536  2.3669
 1846TIP3    H227098   3.651   5.910   6.591 -0.8201 -1.6010 -0.0036
 1847TIP3   OH227099   1.703   5.300   0.748  0.2004  0.1244 -0.4003
 1847TIP3    H127100   1.661   5.310   0.834  0.1516  0.7513 -0.4931
 1847TIP3    H227101   1.778   5.243   0.765  0.6311  0.8523  0.2157
 1848TIP3   OH227102   3.797   3.223   7.445 -0.4396  0.5054 -0.4714
 1848TIP3    H127103   3.859   3.282   7.402 -1.4607  1.8099 -0.2540
 1848TIP3    H227104   3.834   3.136   7.433  0.1598  0.9748 -2.5652
 1849TIP3   OH227105   0.120   2.003   8.247 -0.3828 -0.0260 -0.4544
 1849TIP3    H127106   0.136   1.946   8.172  2.3774  0.5388 -0.3891
 1849TIP3    H227107   0.181   1.972   8.314  0.1930  2.1077  0.0612
 1850TIP3   OH227108   2.512   6.490   7.292 -0.6536 -0.6055 -0.1145
 1850TIP3    H127109   2.561   6.509   7.372 -0.9316 -2.5672  0.5814
 1850TIP3    H227110   2.577   6.496   7.222 -1.0898  4.9197 -0.4647
 1851TIP3   OH227111   3.101   3.489   8.124  0.1061  0.0329  0.7122
 1851TIP3    H127112   3.156   3.550   8.073  0.5266 -0.7407  0.2139
 1851TIP3    H227113   3.134   3.402   8.100 -2.6207 -0.6212 -1.1724
 1852TIP3   OH227114   1.356   3.250   8.799 -0.6822 -0.6263 -0.2005
 1852TIP3    H127115   1.297   3.202   8.858 -0.3546  0.1724  0.8046
 1852TIP3    H227116   1.441   3.207   8.811 -0.4161  0.1047  0.6076
 1853TIP3   OH227117   4.386   5.978   1.930 -0.1446  0.4262  0.2914
 1853TIP3    H127118   4.310   5.943   1.976  0.4207 -1.3003  0.0108
 1853TIP3    H227119   4.451   5.992   1.998  0.2120 -0.7753  0.2156
 1854TIP3   OH227120   6.373   4.821   2.024 -0.0538 -0.0626 -0.8005
 1854TIP3    H127121   6.428   4.744   2.011  0.5380  0.4911 -1.7511
 1854TIP3    H227122   6.434   4.892   2.042 -0.5258  0.3634 -0.8415
 1855TIP3   OH227123   6.203   1.673   0.835  0.4282  0.4543  0.0432
 1855TIP3    H127124   6.142   1.654   0.907 -0.3860  1.2366 -0.4150
 1855TIP3    H227125   6.149   1.666   0.756  1.0095  0.8520 -0.3946
 1856TIP3   OH227126   4.106   3.834   7.918  0.0297 -0.4072 -0.0335
 1856TIP3    H127127   4.073   3.896   7.854  0.7164  0.0071  0.0030
 1856TIP3    H227128   4.101   3.749   7.874  0.8949 -0.0751 -0.8004
 1857TIP3   OH227129   6.618   1.471   8.202  0.3377 -0.2259 -0.2359
 1857TIP3    H127130   6.644   1.558   8.231  0.4902 -0.3348 -0.0473
 1857TIP3    H227131   6.687   1.413   8.233 -0.2079 -0.5458  0.4290
 1858TIP3   OH227132   5.045   2.438   0.336 -0.7049  0.0687  0.2563
 1858TIP3    H127133   5.045   2.343   0.350 -1.8140 -0.1484 -0.9448
 1858TIP3    H227134   5.114   2.453   0.271 -1.2637 -0.0949 -0.3960
 1859TIP3   OH227135   4.200   1.995   0.029 -0.2800 -0.0344  0.2379
 1859TIP3    H127136   4.161   2.012   0.114 -0.3268 -0.0712  0.2234
 1859TIP3    H227137   4.283   2.042   0.031 -0.7920  0.9266 -0.1136
 1860TIP3   OH227138   2.071   3.857   8.282  0.3233  0.5704  0.0837
 1860TIP3    H127139   1.977   3.875   8.275 -0.0338  1.4783  4.1444
 1860TIP3    H227140   2.108   3.939   8.316  2.0675 -0.5963  1.1394
 1861TIP3   OH227141   1.437   6.414   7.027 -0.4838 -0.5632  0.5138
 1861TIP3    H127142   1.415   6.354   7.097 -2.0319 -1.0439 -0.3325
 1861TIP3    H227143   1.353   6.442   6.992  0.2142  1.4315  0.3072
 1862TIP3   OH227144   0.287   6.190   0.537 -0.3657  0.0927 -0.3580
 1862TIP3    H127145   0.249   6.102   0.543 -0.7345  0.1641 -1.5004
 1862TIP3    H227146   0.377   6.180   0.570 -0.1395 -0.8919 -1.2355
 1863TIP3   OH227147   3.014   3.725   2.422 -0.1819  0.4960 -0.3602
 1863TIP3    H127148   2.977   3.783   2.356  0.1237 -1.0164 -1.9129
 1863TIP3    H227149   2.972   3.641   2.406  1.3631 -0.3893  0.0935
 1864TIP3   OH227150   0.104   2.862   1.888 -0.2422 -0.0792  0.1214
 1864TIP3    H127151   0.161   2.939   1.879 -0.0938 -0.0333  1.2526
 1864TIP3    H227152   0.131   2.823   1.971 -1.2243 -0.5922  0.2085
 1865TIP3   OH227153   5.087   6.632   1.470 -0.4720 -0.2061 -0.0798
 1865TIP3    H127154   5.177   6.600   1.467 -0.1920  0.6126 -1.3701
 1865TIP3    H227155   5.086   6.693   1.543  0.3675  0.6686 -0.7673
 1866TIP3   OH227156   1.493   4.108   6.101  0.0531 -0.2096  0.0835
 1866TIP3    H127157   1.491   4.161   6.181 -0.9141  0.6636 -0.4984
 1866TIP3    H227158   1.522   4.169   6.033  1.0592 -0.9963 -0.2138
 1867TIP3   OH227159   2.315   4.299   0.788 -0.0190  0.0391 -0.8267
 1867TIP3    H127160   2.249   4.315   0.855  0.9166  0.5324  0.0129
 1867TIP3    H227161   2.367   4.380   0.785  0.4199 -0.2536 -1.6174
 1868TIP3   OH227162   2.652   5.662   7.211 -0.4049 -0.1874 -0.1532
 1868TIP3    H127163   2.646   5.598   7.140 -2.7638  0.6262 -0.7996
 1868TIP3    H227164   2.608   5.619   7.285 -0.2495 -0.0549  0.0163
 1869TIP3   OH227165   6.719   6.202   8.534  0.5132 -0.2968  0.2972
 1869TIP3    H127166   6.790   6.265   8.519 -0.8470  1.0895 -0.7526
 1869TIP3    H227167   6.640   6.256   8.539 -0.5929 -1.8565  0.4787
 1870TIP3   OH227168   4.931   2.598   0.521  0.1216 -0.1082 -0.4414
 1870TIP3    H127169   4.906   2.521   0.472 -0.2285  0.4657 -1.1834
 1870TIP3    H227170   4.914   2.575   0.613  2.9585 -2.0187 -0.2953
 1871TIP3   OH227171   5.027   0.228   0.693  0.0480 -0.2671 -0.0141
 1871TIP3    H127172   5.107   0.242   0.744 -0.7560  1.1312  0.9058
 1871TIP3    H227173   4.984   0.154   0.735 -1.2817  1.7006  2.2830
 1872TIP3   OH227174   5.491   4.996   7.511 -0.2658 -0.0553  0.1462
 1872TIP3    H127175   5.545   5.014   7.588  0.0334 -2.3091  0.5126
 1872TIP3    H227176   5.451   5.081   7.491 -0.3002  0.6406  2.7257
 1873TIP3   OH227177   1.944   4.342   0.721 -0.2369  0.0322 -0.0594
 1873TIP3    H127178   1.905   4.343   0.633 -1.4196 -0.9453  0.4228
 1873TIP3    H227179   1.965   4.250   0.736 -0.6321  0.0876  0.9109
 1874TIP3   OH227180   5.768   0.315   0.137 -0.2141 -0.2871 -0.3877
 1874TIP3    H127181   5.795   0.245   0.196 -0.1519  0.6386  0.7329
 1874TIP3    H227182   5.695   0.357   0.182 -2.8632 -1.9579 -2.7761
 1875TIP3   OH227183   6.133   1.397   1.964 -0.8164  0.2993 -0.4322
 1875TIP3    H127184   6.063   1.428   2.021 -0.8827 -0.8229  0.1347
 1875TIP3    H227185   6.108   1.307   1.943 -0.9824  0.8014 -2.5552
 1876TIP3   OH227186   0.075   3.078   6.810 -0.1335 -0.5809  0.0382
 1876TIP3    H127187   0.042   3.119   6.730 -1.0650  2.0119  1.6485
 1876TIP3    H227188   0.170   3.076   6.798 -0.2470 -0.0762 -1.0585
 1877TIP3   OH227189   5.788   1.376   0.278  0.3166 -0.1002  0.2512
 1877TIP3    H127190   5.753   1.310   0.218  0.8005  0.7428 -1.0094
 1877TIP3    H227191   5.879   1.349   0.293  0.3292 -0.0666  0.2353
 1878TIP3   OH227192   3.016   0.448   8.040  0.4807 -0.3579 -0.3537
 1878TIP3    H127193   3.003   0.533   7.999  0.5878 -0.7087 -1.1199
 1878TIP3    H227194   2.994   0.463   8.132 -0.0191  0.3693 -0.5795
 1879TIP3   OH227195   5.921   3.429   8.208 -0.9312 -0.4091 -0.5399
 1879TIP3    H127196   5.903   3.384   8.126  3.1705 -1.4301 -1.0661
 1879TIP3    H227197   5.984   3.497   8.186  1.0998 -1.3627  1.7891
 1880TIP3   OH227198   2.038   6.750   1.286  0.0542 -0.0567 -0.0370
 1880TIP3    H127199   2.113   6.796   1.324 -0.0609 -0.0927  0.2298
 1880TIP3    H227200   2.053   6.756   1.191  0.7165 -0.5919  0.0208
 1881TIP3   OH227201   6.192   2.813   8.809 -0.2208 -0.0121  0.1826
 1881TIP3    H127202   6.204   2.786   8.718 -0.3839 -1.1082  0.4731
 1881TIP3    H227203   6.126   2.882   8.805 -1.3825 -1.1154 -0.3881
 1882TIP3   OH227204   5.834   5.547   7.261  0.0925 -0.5537 -0.4282
 1882TIP3    H127205   5.855   5.529   7.169 -0.5501  0.6135 -0.8136
 1882TIP3    H227206   5.739   5.557   7.263 -0.0193 -1.5519  0.5605
 1883TIP3   OH227207   2.357   1.171   7.960 -0.0695  0.0441 -0.3663
 1883TIP3    H127208   2.279   1.213   7.923  0.6727  1.7764 -0.0430
 1883TIP3    H227209   2.391   1.234   8.023  1.6839 -0.6197 -0.5989
 1884TIP3   OH227210   3.453   4.772   6.686  0.1515 -0.0301  0.3213
 1884TIP3    H127211   3.362   4.767   6.658  0.8480  0.4863 -2.3196
 1884TIP3    H227212   3.486   4.682   6.677 -0.0122 -0.1654  1.0248
 1885TIP3   OH227213   5.468   1.339   0.660  0.2451 -0.1042  0.5983
 1885TIP3    H127214   5.446   1.430   0.643  1.0216 -0.1766 -1.0570
 1885TIP3    H227215   5.386   1.299   0.688  0.0553  1.2260  2.0355
 1886TIP3   OH227216   0.306   2.341   6.755  0.2630 -0.2963 -0.2908
 1886TIP3    H127217   0.289   2.336   6.661 -1.2387 -0.2959 -0.0379
 1886TIP3    H227218   0.389   2.388   6.762  0.5399 -0.5533 -1.6225
 1887TIP3   OH227219   5.425   5.721   0.693 -0.6868  0.3886 -0.2620
 1887TIP3    H127220   5.480   5.782   0.644  0.2778  0.2467  0.6075
 1887TIP3    H227221   5.452   5.634   0.662 -1.3696  0.3514 -0.7869
 1888TIP3   OH227222   1.530   4.013   6.655  0.1073  0.0232 -0.0556
 1888TIP3    H127223   1.449   4.061   6.636 -0.5550 -0.8935  0.3439
 1888TIP3    H227224   1.598   4.080   6.657 -0.6681  0.8370 -0.2537
 1889TIP3   OH227225   5.059   2.692   7.293 -0.2984 -0.0017  0.3528
 1889TIP3    H127226   5.053   2.788   7.287 -2.4477 -0.0550  1.0304
 1889TIP3    H227227   5.057   2.663   7.202  1.4093  0.5913  0.0749
 1890TIP3   OH227228   5.013   6.234   7.748 -0.4995 -0.4731 -0.8173
 1890TIP3    H127229   5.021   6.161   7.810 -1.2557 -1.4679 -1.8444
 1890TIP3    H227230   5.076   6.214   7.679 -1.7123 -0.9691 -1.8381
 1891TIP3   OH227231   6.440   0.296   7.036  0.1201 -0.4663 -0.7936
 1891TIP3    H127232   6.468   0.341   6.956  0.3451 -1.7491 -1.4605
 1891TIP3    H227233   6.522   0.265   7.076 -0.0126 -0.0900 -0.2046
 1892TIP3   OH227234   4.805   3.703   7.547  0.6395 -0.2439  0.1711
 1892TIP3    H127235   4.891   3.680   7.584  0.1388 -0.0170  1.5480
 1892TIP3    H227236   4.752   3.625   7.558  0.3219  0.0071  0.4580
 1893TIP3   OH227237   0.053   1.438   2.188 -0.0365 -0.0830 -0.6792
 1893TIP3    H127238  -0.027   1.466   2.143  0.0817  0.8257 -0.3377
 1893TIP3    H227239   0.025   1.414   2.276 -0.3232 -2.1846 -1.2718
 1894TIP3   OH227240   3.587   4.810   6.911  0.5063 -0.0057  0.1899
 1894TIP3    H127241   3.526   4.786   6.841  0.2376  0.4934  0.2467
 1894TIP3    H227242   3.670   4.825   6.867  0.8497 -1.6267  0.2228
 1895TIP3   OH227243   4.892   4.816   8.671 -0.3454  0.3010  0.2738
 1895TIP3    H127244   4.964   4.764   8.704 -0.8978 -0.4335  0.3567
 1895TIP3    H227245   4.916   4.836   8.581  0.9321  1.8833  0.9214
 1896TIP3   OH227246   0.294   5.216   7.738  0.1291 -0.2677  0.0524
 1896TIP3    H127247   0.301   5.235   7.645  1.6136 -0.3151  0.1375
 1896TIP3    H227248   0.253   5.294   7.775  1.9521  0.9009 -0.2696
 1897TIP3   OH227249   2.348   6.323   7.399 -0.2326  0.3129  0.0758
 1897TIP3    H127250   2.411   6.367   7.342  1.9646 -2.6289  0.0157
 1897TIP3    H227251   2.289   6.393   7.429  0.9653  2.6244 -2.5725
 1898TIP3   OH227252   1.312   2.688   6.465 -0.3821 -0.5567 -0.1533
 1898TIP3    H127253   1.337   2.680   6.557 -0.1090  0.2149 -0.1516
 1898TIP3    H227254   1.251   2.761   6.462  1.5132  1.1013 -0.9096
 1899TIP3   OH227255   0.742   1.439   8.414 -0.1408  0.7258  0.2225
 1899TIP3    H127256   0.823   1.389   8.402  0.7142  2.3832 -1.2691
 1899TIP3    H227257   0.690   1.385   8.474  1.2669 -1.3010 -0.2653
 1900TIP3   OH227258   2.277   2.777   6.768 -0.1145  0.3535 -0.2432
 1900TIP3    H127259   2.359   2.745   6.732 -0.3872  2.0061 -2.5981
 1900TIP3    H227260   2.209   2.730   6.719 -0.6594 -0.9219  1.6024
 1901TIP3   OH227261   4.246   2.684   8.654  0.8931 -0.5071 -0.4647
 1901TIP3    H127262   4.303   2.609   8.675  0.3921 -0.5714  0.7037
 1901TIP3    H227263   4.246   2.737   8.733  1.5885  0.9862 -1.4249
 1902TIP3   OH227264   3.821   5.822   6.523  0.6452  0.4273  0.1832
 1902TIP3    H127265   3.891   5.879   6.491  0.5319  0.3719 -0.1589
 1902TIP3    H227266   3.861   5.735   6.526  0.9276  0.5776  1.0438
 1903TIP3   OH227267   4.695   1.931   1.210  0.4289 -0.7662  0.7378
 1903TIP3    H127268   4.630   1.934   1.140  1.7720 -1.6274 -0.6197
 1903TIP3    H227269   4.645   1.914   1.289 -1.2881  1.5007  0.2314
 1904TIP3   OH227270   2.371   5.119   1.821  0.4399 -0.0277 -0.2196
 1904TIP3    H127271   2.431   5.193   1.825 -1.6965  1.8638 -1.1816
 1904TIP3    H227272   2.374   5.090   1.730 -1.3722  1.2761 -0.7450
 1905TIP3   OH227273   5.305   5.817   7.893 -0.2624  0.1687  0.2212
 1905TIP3    H127274   5.257   5.781   7.967  1.0139  0.9859  1.5050
 1905TIP3    H227275   5.390   5.774   7.896  0.0178  0.6528 -0.4005
 1906TIP3   OH227276   6.531   6.448   8.582 -0.3807 -0.2010  0.1240
 1906TIP3    H127277   6.562   6.482   8.666  0.2986 -0.5323  0.0132
 1906TIP3    H227278   6.437   6.433   8.595 -0.8192  2.0576  0.0742
 1907TIP3   OH227279   6.353   4.187   8.224 -0.0769  0.1250  0.2018
 1907TIP3    H127280   6.405   4.109   8.241  0.7928  0.4553 -0.8018
 1907TIP3    H227281   6.387   4.253   8.285  1.0280  0.4634 -0.7299
 1908TIP3   OH227282   0.784   6.725   7.154  0.7417 -0.4713  0.2690
 1908TIP3    H127283   0.697   6.741   7.190  0.0590  2.4474 -2.1936
 1908TIP3    H227284   0.841   6.786   7.202  1.0794 -1.0826  0.6509
 1909TIP3   OH227285   3.611   2.131   8.036  0.0523  0.0213 -0.7382
 1909TIP3    H127286   3.593   2.149   8.128  0.1758  1.2369 -0.9388
 1909TIP3    H227287   3.690   2.077   8.038  1.5498  2.0913 -0.1856
 1910TIP3   OH227288   5.847   6.052   1.339 -0.2859  0.5874  0.0407
 1910TIP3    H127289   5.852   6.001   1.420 -0.2941  0.9551  0.2752
 1910TIP3    H227290   5.790   6.126   1.361 -2.1208 -0.4562 -0.9227
 1911TIP3   OH227291   3.068   0.896   8.277  0.2570  0.3295 -0.3632
 1911TIP3    H127292   3.091   0.958   8.207 -0.0482  0.4348 -0.3739
 1911TIP3    H227293   3.078   0.947   8.357  4.6099 -0.8703  0.0955
 1912TIP3   OH227294   1.089   3.685   1.230 -0.0739 -0.1681 -0.6214
 1912TIP3    H127295   1.081   3.599   1.189 -1.2863 -0.1328 -0.4850
 1912TIP3    H227296   1.066   3.747   1.160  3.5706  0.3112 -1.6375
 1913TIP3   OH227297   2.042   3.147   7.306 -0.0530  0.1862 -0.0847
 1913TIP3    H127298   2.078   3.221   7.258 -1.3181 -0.1390 -1.6243
 1913TIP3    H227299   2.030   3.180   7.395 -1.5760  2.2207 -0.9552
 1914TIP3   OH227300   1.603   5.487   8.446 -0.6309  0.1899 -0.3512
 1914TIP3    H127301   1.525   5.494   8.392 -0.1730 -1.3716 -1.2669
 1914TIP3    H227302   1.607   5.395   8.472 -1.2385  0.9619  3.0606
 1915TIP3   OH227303   1.467   1.251   8.488  0.3437 -0.6480  0.6864
 1915TIP3    H127304   1.457   1.195   8.565 -0.4096 -0.6300  0.6143
 1915TIP3    H227305   1.542   1.307   8.508 -1.3680  1.1424  2.5399
 1916TIP3   OH227306   3.542   2.035   7.794 -0.2867 -0.0191 -0.6749
 1916TIP3    H127307   3.613   1.974   7.775 -0.1734 -0.0112 -0.2988
 1916TIP3    H227308   3.560   2.066   7.883 -0.5746  0.2423 -0.7029
 1917TIP3   OH227309   4.950   1.368   8.029 -0.5838  0.1433 -0.0053
 1917TIP3    H127310   4.985   1.400   8.112 -0.7560  0.5117 -0.0715
 1917TIP3    H227311   5.018   1.389   7.965  0.2519 -1.5556  0.2714
 1918TIP3   OH227312   3.659   1.129   8.680  0.0832  0.0698 -0.2231
 1918TIP3    H127313   3.749   1.096   8.680 -0.7268 -2.3479 -0.7028
 1918TIP3    H227314   3.623   1.100   8.596 -2.1326 -2.1399  1.3299
 1919TIP3   OH227315   3.707   0.470   0.613 -0.0676 -0.1495 -0.2613
 1919TIP3    H127316   3.734   0.495   0.701  0.7938  0.1866 -0.6153
 1919TIP3    H227317   3.788   0.448   0.567 -0.5350 -0.6343 -0.8761
 1920TIP3   OH227318   1.188   5.452   8.274 -0.3741  0.0041  0.0992
 1920TIP3    H127319   1.208   5.500   8.355 -0.9355  0.7433 -0.1898
 1920TIP3    H227320   1.274   5.427   8.240 -0.1308 -0.3470  0.9355
 1921TIP3   OH227321   3.280   5.193   0.870 -0.7490 -0.2488  0.4546
 1921TIP3    H127322   3.304   5.102   0.854 -2.1962 -0.4596 -0.7604
 1921TIP3    H227323   3.292   5.204   0.964 -0.3304 -1.6284  0.5903
 1922TIP3   OH227324   1.387   2.953   0.669  0.2468  0.2580  0.1493
 1922TIP3    H127325   1.395   2.876   0.725 -0.1801 -0.2664 -0.4912
 1922TIP3    H227326   1.323   3.009   0.713  0.6082  0.2769  0.6508
 1923TIP3   OH227327   1.950   1.489   0.240 -0.6907 -0.1669  0.0384
 1923TIP3    H127328   1.915   1.568   0.282 -1.6060  1.0909 -2.8304
 1923TIP3    H227329   2.045   1.499   0.246 -0.7979  0.7535  0.4092
 1924TIP3   OH227330   3.395   1.141   0.157 -0.2501  0.2802 -0.9775
 1924TIP3    H127331   3.446   1.208   0.202 -1.7576  1.1563 -0.5061
 1924TIP3    H227332   3.325   1.189   0.113  0.0005 -0.7639 -2.6045
 1925TIP3   OH227333   3.267   5.516   6.752 -0.1598 -0.8653 -0.3592
 1925TIP3    H127334   3.236   5.562   6.674  1.1070  0.2427 -0.2512
 1925TIP3    H227335   3.192   5.463   6.780 -0.4611 -1.7839 -2.6558
 1926TIP3   OH227336   2.290   5.529   2.373  0.1304 -0.3773  0.0577
 1926TIP3    H127337   2.226   5.598   2.390  0.2803 -0.4344  0.8628
 1926TIP3    H227338   2.247   5.473   2.308 -0.8714 -0.7219  0.9949
 1927TIP3   OH227339   1.818   2.692   8.394  0.4291 -0.4450 -0.1643
 1927TIP3    H127340   1.903   2.726   8.423 -0.4252  0.4612  1.4483
 1927TIP3    H227341   1.755   2.734   8.453 -1.0374 -1.9754 -0.5830
 1928TIP3   OH227342   2.380   3.516   1.740  0.4125 -0.0345  0.5973
 1928TIP3    H127343   2.305   3.565   1.774 -0.0768 -1.4936  1.7093
 1928TIP3    H227344   2.394   3.446   1.804  1.5258 -0.9217 -0.5703
 1929TIP3   OH227345   5.918   2.797   1.941 -0.0298 -0.5364 -0.7338
 1929TIP3    H127346   5.969   2.741   1.883  1.8496  0.4220 -0.1219
 1929TIP3    H227347   5.906   2.745   2.021  0.5063 -0.5755 -0.6741
 1930TIP3   OH227348   4.226   2.039   1.281 -0.1483 -0.0579 -0.0045
 1930TIP3    H127349   4.253   2.023   1.372 -1.2980 -0.2462  0.3117
 1930TIP3    H227350   4.178   1.961   1.256 -3.8807  1.7681  0.8009
 1931TIP3   OH227351   0.617   3.201   7.832 -0.0180  0.4217 -0.4720
 1931TIP3    H127352   0.685   3.243   7.885  0.0665 -0.0963 -0.1583
 1931TIP3    H227353   0.634   3.107   7.843  0.0177  0.3037 -1.4359
 1932TIP3   OH227354   3.574   0.255   0.749  0.3029  0.6952  0.2434
 1932TIP3    H127355   3.611   0.316   0.686 -0.5334 -0.5620 -1.5309
 1932TIP3    H227356   3.628   0.177   0.741  0.0107  0.4168  0.8981
 1933TIP3   OH227357   4.389   5.600   1.707 -0.1923 -0.2933  0.2467
 1933TIP3    H127358   4.485   5.599   1.717 -0.0091 -0.3055 -1.2641
 1933TIP3    H227359   4.373   5.556   1.623 -1.4104  1.0641 -0.2817
 1934TIP3   OH227360   1.058   5.789   1.308 -0.8345  0.0767  0.2274
 1934TIP3    H127361   0.969   5.775   1.341 -0.6244 -3.8937 -0.4069
 1934TIP3    H227362   1.045   5.818   1.217 -1.5335 -1.1953 -0.1024
 1935TIP3   OH227363   1.778   4.571   1.246 -0.1720 -0.6791 -0.1240
 1935TIP3    H127364   1.867   4.575   1.282  0.9590 -3.1524 -2.2955
 1935TIP3    H227365   1.730   4.515   1.306  0.5836 -1.6421 -0.4014
 1936TIP3   OH227366   3.358   5.741   6.998 -0.0179  0.3338 -0.1839
 1936TIP3    H127367   3.288   5.729   7.062  0.8872  0.1581  0.7993
 1936TIP3    H227368   3.324   5.701   6.918  0.1131 -2.5000  1.0568
 1937TIP3   OH227369   2.720   1.102   1.548  0.0269 -0.2180 -0.2855
 1937TIP3    H127370   2.735   1.196   1.543  0.4229 -0.3305 -1.5178
 1937TIP3    H227371   2.689   1.077   1.460 -0.2281 -1.2109  0.0666
 1938TIP3   OH227372   1.480   4.723   7.119 -0.1506 -0.3081 -0.1777
 1938TIP3    H127373   1.400   4.695   7.163 -0.7449 -1.3648 -1.8294
 1938TIP3    H227374   1.464   4.815   7.096  0.3763  0.4360  2.1397
 1939TIP3   OH227375   1.576   6.640   8.768  0.7011 -0.0605 -0.4306
 1939TIP3    H127376   1.594   6.640   8.674  0.1731 -0.6274 -0.5410
 1939TIP3    H227377   1.525   6.560   8.782 -1.5778  1.3246 -0.1354
 1940TIP3   OH227378   0.731   4.071   6.274 -0.0072  0.2199  0.0125
 1940TIP3    H127379   0.785   4.116   6.338  0.5413 -0.4555  0.0438
 1940TIP3    H227380   0.781   3.992   6.252 -1.0434 -0.4911  0.1362
 1941TIP3   OH227381   0.392   3.778   7.482  0.0763  0.6088  0.1735
 1941TIP3    H127382   0.487   3.791   7.476 -0.0664  1.0377 -1.8825
 1941TIP3    H227383   0.367   3.741   7.398 -1.5738  0.3309  0.7463
 1942TIP3   OH227384   3.597   1.827   8.090 -0.1224 -0.2984 -0.1253
 1942TIP3    H127385   3.614   1.816   7.997 -1.3818  1.5700 -0.6235
 1942TIP3    H227386   3.642   1.753   8.131 -1.2331 -2.3757 -2.3652
 1943TIP3   OH227387   2.064   1.770   1.096 -0.4893  0.2532  0.3246
 1943TIP3    H127388   2.056   1.781   1.191 -0.1577 -0.4031  0.4341
 1943TIP3    H227389   2.008   1.695   1.075  1.3537 -1.2051  0.3872
 1944TIP3   OH227390   0.549   3.745   8.482 -0.0067 -0.2070  0.1890
 1944TIP3    H127391   0.631   3.704   8.508 -0.8336 -1.7654  0.4550
 1944TIP3    H227392   0.521   3.696   8.405 -1.4353 -0.7254  0.9944
 1945TIP3   OH227393   0.940   5.819   8.493  0.0672  0.0482  0.5974
 1945TIP3    H127394   0.998   5.822   8.417 -2.7317 -3.4652 -2.0277
 1945TIP3    H227395   0.967   5.739   8.540  0.7037  1.3129  2.5080
 1946TIP3   OH227396   3.600   6.553   8.308  0.2512 -0.0372 -0.0583
 1946TIP3    H127397   3.553   6.568   8.390 -0.6603 -1.2598 -0.3349
 1946TIP3    H227398   3.672   6.617   8.310 -0.6148  0.9516  0.9933
 1947TIP3   OH227399   3.068   6.538   7.734 -0.1962  0.5073  0.3439
 1947TIP3    H127400   3.090   6.493   7.816 -1.7675 -2.2826 -0.6345
 1947TIP3    H227401   2.979   6.570   7.747  0.1372  1.5224  0.2501
 1948TIP3   OH227402   5.742   3.630   1.435  0.1900  0.3456  0.4810
 1948TIP3    H127403   5.789   3.709   1.408 -0.9083  0.2450 -2.0152
 1948TIP3    H227404   5.675   3.662   1.495  1.8989  0.7796  2.2750
 1949TIP3   OH227405   5.207   4.465   7.840 -0.4139  0.3922 -0.7339
 1949TIP3    H127406   5.162   4.398   7.891 -0.5943 -1.0211 -2.6052
 1949TIP3    H227407   5.236   4.419   7.761  2.4456  1.7450 -0.6093
 1950TIP3   OH227408   4.670   2.234   8.700 -0.0747  0.5647 -0.3819
 1950TIP3    H127409   4.649   2.323   8.726  0.0252  0.1251  1.3162
 1950TIP3    H227410   4.608   2.214   8.630 -1.0283  1.4921  0.1746
 1951TIP3   OH227411   1.770   1.099   8.684  0.2212 -0.0977  0.2365
 1951TIP3    H127412   1.841   1.035   8.694  0.1066 -0.2355  0.1662
 1951TIP3    H227413   1.714   1.085   8.760  0.5704  0.3925  0.5899
 1952TIP3   OH227414   6.694   3.696   6.676  0.1735 -0.3424 -0.3963
 1952TIP3    H127415   6.625   3.669   6.616  0.7355 -1.3342 -0.6214
 1952TIP3    H227416   6.736   3.614   6.703 -0.8485 -0.0658  2.3455
 1953TIP3   OH227417   6.713   6.669   1.885  0.4049  0.2200  0.1546
 1953TIP3    H127418   6.726   6.661   1.980  0.6339  1.5388  0.2613
 1953TIP3    H227419   6.712   6.764   1.870 -0.8373  0.0472 -1.0053
 1954TIP3   OH227420   3.692   1.355   1.051 -0.3284  0.4232 -0.3815
 1954TIP3    H127421   3.773   1.371   1.099  0.0839 -1.2890 -0.4372
 1954TIP3    H227422   3.625   1.344   1.119 -0.2326  0.4466 -0.2834
 1955TIP3   OH227423   0.223   4.563   6.868 -0.3169  0.1022 -0.1068
 1955TIP3    H127424   0.308   4.599   6.842  0.0500 -0.7334 -0.0787
 1955TIP3    H227425   0.160   4.630   6.840  0.3293  0.6515 -0.2822
 1956TIP3   OH227426   6.146   1.756   1.496 -0.3109 -0.7190  0.1191
 1956TIP3    H127427   6.185   1.843   1.499  0.5163 -1.0980  1.2170
 1956TIP3    H227428   6.067   1.766   1.443  0.4687  0.4062 -0.8771
 1957TIP3   OH227429   1.035   6.271   7.223  0.3563  0.6787  0.1699
 1957TIP3    H127430   0.960   6.221   7.189  0.4315  0.8986 -0.3294
 1957TIP3    H227431   1.008   6.362   7.215  0.7582  0.7680 -0.2160
 1958TIP3   OH227432   0.055   4.662   2.005  0.3615 -0.6355  0.3845
 1958TIP3    H127433   0.064   4.636   2.097 -0.5880 -3.6113 -0.2506
 1958TIP3    H227434   0.130   4.621   1.961  1.7814  2.1734 -0.0109
 1959TIP3   OH227435   3.517   0.176   6.924 -0.4596  0.8040 -0.1239
 1959TIP3    H127436   3.572   0.181   6.847 -0.2149  0.1104  0.0006
 1959TIP3    H227437   3.427   0.179   6.890 -0.4042  3.4803 -0.2307
 1960TIP3   OH227438   3.331   4.837   7.573 -1.2503 -0.3250  0.2821
 1960TIP3    H127439   3.302   4.849   7.663  0.4670  0.8752  0.7166
 1960TIP3    H227440   3.387   4.759   7.576 -1.0454 -0.1789  0.3043
 1961TIP3   OH227441   3.399   3.087   6.247  0.6634 -0.6172  0.0753
 1961TIP3    H127442   3.373   3.023   6.180  0.8621  0.8821 -1.5048
 1961TIP3    H227443   3.434   3.034   6.318 -2.1176 -2.4538  0.2458
 1962TIP3   OH227444   6.700   2.574   0.250  0.3451  0.3224 -0.3393
 1962TIP3    H127445   6.744   2.643   0.300 -0.4112  0.8708 -0.4143
 1962TIP3    H227446   6.670   2.512   0.316  0.3885  0.4345 -0.2149
 1963TIP3   OH227447   3.583   5.239   0.772 -0.0902 -0.4752  0.1653
 1963TIP3    H127448   3.675   5.236   0.746  0.2500 -1.2706  1.4057
 1963TIP3    H227449   3.535   5.215   0.692  0.8180 -0.9611 -0.2460
 1964TIP3   OH227450   5.472   0.325   8.230  0.4389  0.2082  0.7563
 1964TIP3    H127451   5.391   0.352   8.186  0.1732 -1.0383  0.4283
 1964TIP3    H227452   5.535   0.312   8.160  0.1336 -1.3854  0.7278
 1965TIP3   OH227453   4.292   2.198   7.482 -0.5489 -1.0088  0.3774
 1965TIP3    H127454   4.333   2.154   7.556  0.2016  0.5411  0.9397
 1965TIP3    H227455   4.200   2.173   7.487 -0.5475 -0.7817  1.9802
 1966TIP3   OH227456   6.243   4.751   8.808  0.7720  0.0240  0.0855
 1966TIP3    H127457   6.147   4.752   8.809  0.7634  0.7642 -0.8295
 1966TIP3    H227458   6.267   4.704   8.889 -0.3639 -2.0887 -0.7202
 1967TIP3   OH227459   0.246   3.753   7.181 -0.4880  0.5384  0.0098
 1967TIP3    H127460   0.312   3.685   7.194  0.5403  1.4332 -0.2967
 1967TIP3    H227461   0.252   3.774   7.087 -1.7741  0.0835 -0.1845
 1968TIP3   OH227462   5.593   6.228   6.870  0.1096  0.0305 -0.0322
 1968TIP3    H127463   5.662   6.293   6.862  1.4460 -1.2725  0.3652
 1968TIP3    H227464   5.614   6.163   6.803 -0.8385 -0.3004 -0.0203
 1969TIP3   OH227465   0.523   3.676   2.334 -0.2126  0.3984  0.0113
 1969TIP3    H127466   0.431   3.669   2.360 -0.4880  0.1382 -1.0127
 1969TIP3    H227467   0.572   3.639   2.408 -0.9756 -0.2513  0.2014
 1970TIP3   OH227468   1.361   6.139   0.930 -0.6921  0.1887  0.0338
 1970TIP3    H127469   1.277   6.133   0.975 -1.0883 -0.7707 -0.8022
 1970TIP3    H227470   1.399   6.051   0.936  0.5263  0.7480  0.9013
 1971TIP3   OH227471   4.304   1.924   0.686  0.3167 -0.0437  0.5074
 1971TIP3    H127472   4.213   1.955   0.691  0.6770  1.3935 -0.9039
 1971TIP3    H227473   4.305   1.867   0.609 -0.0173 -2.5497  2.2704
 1972TIP3   OH227474   5.493   4.017   6.946 -0.2782  0.5207  0.0552
 1972TIP3    H127475   5.586   3.991   6.947 -0.0633  1.1013 -1.5696
 1972TIP3    H227476   5.493   4.105   6.984 -0.1027  0.6775 -0.3020
 1973TIP3   OH227477   6.033   0.286   7.243 -0.0082  0.0472  0.2468
 1973TIP3    H127478   5.961   0.250   7.191  1.0842  0.3043 -1.5690
 1973TIP3    H227479   6.010   0.378   7.254 -0.9621 -0.3203  1.5686
 1974TIP3   OH227480   4.058   1.020   8.283 -0.1359  0.5441 -0.1311
 1974TIP3    H127481   4.081   1.099   8.234 -0.3717  1.0918  0.6242
 1974TIP3    H227482   4.143   0.981   8.306  0.0462  1.5305  0.9921
 1975TIP3   OH227483   5.199   5.494   0.512 -0.0980  0.5868  0.6899
 1975TIP3    H127484   5.186   5.583   0.479 -0.5422  0.9496  1.7893
 1975TIP3    H227485   5.128   5.481   0.574  0.1007 -0.4579  0.7195
 1976TIP3   OH227486   2.338   1.806   0.682  0.5383  0.4118 -0.1238
 1976TIP3    H127487   2.400   1.734   0.699 -0.6073 -1.2411 -2.5095
 1976TIP3    H227488   2.276   1.800   0.755 -0.5724 -2.2765 -1.1485
 1977TIP3   OH227489   1.019   1.108   6.713 -0.7296 -0.0132 -0.7053
 1977TIP3    H127490   0.963   1.039   6.678  0.0019 -1.0046  0.0076
 1977TIP3    H227491   1.108   1.074   6.703 -0.3509  0.8484 -0.3692
 1978TIP3   OH227492   3.550   5.734   7.739  0.5093  1.3556 -0.5176
 1978TIP3    H127493   3.466   5.777   7.722 -0.3734  1.9509  4.1127
 1978TIP3    H227494   3.527   5.644   7.762  1.2860  1.1274 -0.5995
 1979TIP3   OH227495   2.011   0.478   0.116 -0.3126 -0.2152 -0.4348
 1979TIP3    H127496   1.968   0.428   0.186  0.8252 -0.8543 -0.1695
 1979TIP3    H227497   2.091   0.512   0.156  0.8029 -1.3226 -1.6517
 1980TIP3   OH227498   0.234   2.226   0.603  0.3667 -0.1191 -0.6655
 1980TIP3    H127499   0.163   2.232   0.539 -0.2645 -0.3776 -0.0135
 1980TIP3    H227500   0.198   2.172   0.673  1.1984 -0.2087 -0.2947
 1981TIP3   OH227501   5.134   5.317   6.973 -0.0388 -0.3048 -0.2215
 1981TIP3    H127502   5.191   5.241   6.982  1.1717  0.7042  1.2115
 1981TIP3    H227503   5.183   5.388   7.015 -0.9636  1.3519 -1.7956
 1982TIP3   OH227504   4.346   0.200   0.967  0.4429  0.4214  0.2876
 1982TIP3    H127505   4.326   0.155   1.049 -0.5355  0.5377  0.1130
 1982TIP3    H227506   4.357   0.130   0.903 -1.3849  0.4218 -0.0527
 1983TIP3   OH227507   1.952   1.042   0.227  0.2997 -0.3585 -0.1202
 1983TIP3    H127508   1.963   1.134   0.250  1.7111 -0.1974 -1.2988
 1983TIP3    H227509   1.886   1.009   0.289  0.0000  1.3488  0.5132
 1984TIP3   OH227510   3.789   5.643   0.726  0.0100 -0.3536 -0.6048
 1984TIP3    H127511   3.762   5.555   0.699  0.5164 -1.0204  0.9061
 1984TIP3    H227512   3.787   5.695   0.646 -0.7598 -1.6219 -1.4476
 1985TIP3   OH227513   4.094   5.387   8.804  0.4798 -0.1644  0.3034
 1985TIP3    H127514   4.064   5.408   8.893 -3.7089 -3.8153  0.0965
 1985TIP3    H227515   4.076   5.466   8.753 -1.6524  0.4116  1.8395
 1986TIP3   OH227516   1.499   1.444   8.272 -0.0499  0.8928  0.4187
 1986TIP3    H127517   1.481   1.381   8.342 -0.4759  1.4240  0.7938
 1986TIP3    H227518   1.573   1.495   8.304  1.6495 -0.7295 -0.7597
 1987TIP3   OH227519   2.216   4.896   7.355  0.3678 -0.0436 -0.0923
 1987TIP3    H127520   2.199   4.904   7.262 -0.6490  1.2008  0.1776
 1987TIP3    H227521   2.133   4.917   7.397  1.6061  2.8510  1.1797
 1988TIP3   OH227522   0.300   1.102   0.843  0.4437  0.2280  0.0442
 1988TIP3    H127523   0.248   1.085   0.922 -0.1154  0.0626 -0.3586
 1988TIP3    H227524   0.275   1.033   0.782 -0.3815  1.3213 -0.8999
 1989TIP3   OH227525   6.588   5.869   0.226  0.1175 -0.0464 -0.3933
 1989TIP3    H127526   6.668   5.887   0.176  2.1734 -0.5560  2.3869
 1989TIP3    H227527   6.567   5.952   0.269  0.4689 -0.4252  0.5396
 1990TIP3   OH227528   5.897   5.768   0.504  0.4849  0.3236  0.4794
 1990TIP3    H127529   5.992   5.781   0.510  0.5724 -0.5735  1.1541
 1990TIP3    H227530   5.861   5.821   0.575  0.6935 -1.4172  1.9318
 1991TIP3   OH227531   5.556   5.552   7.229  0.0702  0.7874  0.2098
 1991TIP3    H127532   5.578   5.633   7.181  0.8058 -0.8702 -2.4779
 1991TIP3    H227533   5.465   5.565   7.257 -1.3085  1.1036 -3.7397
 1992TIP3   OH227534   3.846   4.840   7.437  0.1611 -0.2463  0.4182
 1992TIP3    H127535   3.898   4.763   7.461 -0.5867 -0.8618  0.1312
 1992TIP3    H227536   3.795   4.811   7.361  0.6522  0.8806 -0.3760
 1993TIP3   OH227537   5.505   0.512   7.664  0.3558 -0.0835 -0.0203
 1993TIP3    H127538   5.567   0.551   7.726 -0.7803  4.5295 -1.3771
 1993TIP3    H227539   5.431   0.486   7.719  1.4779 -1.1676  1.0556
 1994TIP3   OH227540   1.353   2.241   6.949  0.2578  0.2453 -0.0907
 1994TIP3    H127541   1.280   2.180   6.954  0.9238 -0.5031  1.1574
 1994TIP3    H227542   1.368   2.266   7.040  0.2548  1.9920 -0.5363
 1995TIP3   OH227543   1.852   5.860   7.399 -0.3414 -0.4053  0.5198
 1995TIP3    H127544   1.769   5.850   7.353  0.0587 -0.4797 -0.2005
 1995TIP3    H227545   1.839   5.818   7.483 -1.3735  0.4988  0.8307
 1996TIP3   OH227546   4.060   6.427   0.435 -0.2731 -0.1131  0.1922
 1996TIP3    H127547   4.022   6.401   0.351  0.1108  1.1079 -0.3872
 1996TIP3    H227548   4.016   6.509   0.457  2.0454  1.4545 -0.6005
 1997TIP3   OH227549   6.644   0.032   0.432  0.2739 -0.1846  0.5163
 1997TIP3    H127550   6.614   0.120   0.457  1.0797  0.0907  0.5497
 1997TIP3    H227551   6.611   0.020   0.343  3.6106  1.9162 -1.2238
 1998TIP3   OH227552   5.691   6.345   7.907  0.2127  0.4509 -0.7146
 1998TIP3    H127553   5.744   6.425   7.913 -0.1515  0.5663  1.9827
 1998TIP3    H227554   5.621   6.357   7.971 -0.4126 -1.6529 -0.9209
 1999TIP3   OH227555   6.382   3.729   1.303 -0.2169  0.2380  0.9700
 1999TIP3    H127556   6.344   3.779   1.231  0.9686 -0.3391 -0.0940
 1999TIP3    H227557   6.353   3.639   1.286 -0.5789  0.2255  1.6582
 2000TIP3   OH227558   6.664   3.878   7.538 -1.2499 -0.1585 -0.7676
 2000TIP3    H127559   6.759   3.890   7.546 -0.9852 -0.9766 -2.3365
 2000TIP3    H227560   6.631   3.962   7.507 -1.3504  0.7443  1.5372
 2001TIP3   OH227561   3.262   2.158   7.924  0.2397 -0.2878  0.4989
 2001TIP3    H127562   3.292   2.221   7.989  0.6156  0.0836 -0.0147
 2001TIP3    H227563   3.340   2.107   7.902  0.2579 -0.0393 -0.0545
 2002TIP3   OH227564   4.361   5.893   0.592  0.1188  0.1115  0.4456
 2002TIP3    H127565   4.390   5.811   0.553  2.9567  0.8360  0.7730
 2002TIP3    H227566   4.325   5.868   0.678 -0.5035 -0.8958 -0.0923
 2003TIP3   OH227567   2.595   4.277   0.890 -0.2977 -0.0637 -0.3249
 2003TIP3    H127568   2.566   4.188   0.913 -0.8561  0.2454  0.1942
 2003TIP3    H227569   2.535   4.335   0.937  1.2984  0.6058  0.9644
 2004TIP3   OH227570   2.956   3.390   8.463  0.6511 -0.1660 -0.4915
 2004TIP3    H127571   2.961   3.466   8.406  0.8119 -0.3755 -0.7618
 2004TIP3    H227572   2.941   3.426   8.551  0.0227  0.1373 -0.7209
 2005TIP3   OH227573   6.617   2.269   8.544 -0.3931  0.2935  0.1692
 2005TIP3    H127574   6.696   2.219   8.524 -0.2055  0.8605 -0.5342
 2005TIP3    H227575   6.635   2.357   8.510 -0.6740  0.8818  1.4685
 2006TIP3   OH227576   2.510   3.740   1.419  0.5433 -0.6270  0.2209
 2006TIP3    H127577   2.601   3.770   1.410 -0.0946  1.5126  0.3153
 2006TIP3    H227578   2.461   3.819   1.444 -1.3707 -1.6999  0.0596
 2007TIP3   OH227579   2.405   0.348   6.789  0.0022  0.1400 -0.4645
 2007TIP3    H127580   2.447   0.344   6.875 -1.8530  1.6712  0.5894
 2007TIP3    H227581   2.390   0.441   6.774  0.0517 -0.1159 -2.3744
 2008TIP3   OH227582   4.667   2.065   7.749 -0.3093 -0.0175 -0.3360
 2008TIP3    H127583   4.672   2.080   7.655 -0.0362 -0.2328 -0.3586
 2008TIP3    H227584   4.662   2.152   7.787  0.9029  0.1312 -0.4799
 2009TIP3   OH227585   4.772   6.051   7.322 -0.4861  1.2026 -0.0337
 2009TIP3    H127586   4.856   6.073   7.364 -0.5959  4.6339 -1.2535
 2009TIP3    H227587   4.796   6.031   7.232 -0.9426  2.7572 -0.5341
 2010TIP3   OH227588   2.149   4.371   1.294  0.2125  0.3617 -0.2457
 2010TIP3    H127589   2.233   4.399   1.330  0.0932 -0.4378  0.7034
 2010TIP3    H227590   2.091   4.446   1.309  0.2043  0.1129  1.1379
 2011TIP3   OH227591   1.586   0.524   8.674 -0.0873  0.1911  0.5514
 2011TIP3    H127592   1.584   0.503   8.768 -1.7030  0.6193  0.6448
 2011TIP3    H227593   1.509   0.580   8.661 -0.7954 -1.1113 -1.3230
 2012TIP3   OH227594   5.497   1.649   8.001 -0.1178  0.5570 -0.2192
 2012TIP3    H127595   5.405   1.675   7.997  0.0720  1.6180  1.2326
 2012TIP3    H227596   5.506   1.579   7.937 -1.3481  2.1755 -2.3095
 2013TIP3   OH227597   3.796   2.600   7.474 -0.2243  0.5920  0.4108
 2013TIP3    H127598   3.719   2.574   7.525 -0.0953  0.6801  0.6525
 2013TIP3    H227599   3.853   2.523   7.476  0.6456  1.2243  2.0535
 2014TIP3   OH227600   5.861   0.026   0.866 -0.5361 -0.3305 -0.1894
 2014TIP3    H127601   5.766   0.036   0.870 -0.6008 -0.5663 -1.0618
 2014TIP3    H227602   5.886   0.002   0.956 -1.7161 -3.6793 -0.5926
 2015TIP3   OH227603   2.495   4.295   7.244 -0.6264 -1.0063 -0.2297
 2015TIP3    H127604   2.514   4.358   7.313  1.8133 -0.8160 -0.9749
 2015TIP3    H227605   2.442   4.344   7.181  1.3620  0.4338 -0.8728
 2016TIP3   OH227606   2.037   5.268   7.016  0.1185 -0.1604 -0.0482
 2016TIP3    H127607   1.948   5.233   7.026  0.5687 -0.8990  1.8998
 2016TIP3    H227608   2.039   5.344   7.074  0.5848  0.2359 -0.5703
 2017TIP3   OH227609   1.745   5.870   1.147 -0.0386  0.7770 -0.0312
 2017TIP3    H127610   1.709   5.955   1.170 -0.3297  0.3893  0.9878
 2017TIP3    H227611   1.725   5.859   1.054 -2.0552  0.8301  0.3624
 2018TIP3   OH227612   3.798   3.014   0.897 -0.0990  0.3887 -0.4172
 2018TIP3    H127613   3.710   3.010   0.934 -0.0649  0.4656 -0.3287
 2018TIP3    H227614   3.826   3.104   0.910  0.1480  0.2664 -0.0819
 2019TIP3   OH227615   2.826   1.571   0.423 -0.0480  0.3310  0.3121
 2019TIP3    H127616   2.888   1.561   0.351  1.2463  0.1086  1.4142
 2019TIP3    H227617   2.744   1.534   0.390  0.6752 -0.2867 -0.8380
 2020TIP3   OH227618   6.414   5.418   6.999 -0.1711 -0.2262 -0.3798
 2020TIP3    H127619   6.339   5.465   7.035  0.4627 -0.8813  2.0019
 2020TIP3    H227620   6.382   5.329   6.984  0.0664 -0.4481  0.4211
 2021TIP3   OH227621   1.221   0.358   0.180 -0.8423  0.5357  0.4140
 2021TIP3    H127622   1.175   0.275   0.176 -2.1979  1.2746 -0.0199
 2021TIP3    H227623   1.226   0.386   0.088  0.0422  0.7054  0.5072
 2022TIP3   OH227624   0.996   3.214   0.954  0.5967  0.3322  0.5822
 2022TIP3    H127625   0.908   3.228   0.920  1.3028 -1.0692 -2.1561
 2022TIP3    H227626   0.984   3.156   1.030 -0.7923 -0.9559 -0.5665
 2023TIP3   OH227627   1.597   0.812   8.400 -0.1847 -0.3193  0.3644
 2023TIP3    H127628   1.653   0.747   8.442 -0.3977 -2.8427 -2.7933
 2023TIP3    H227629   1.509   0.776   8.408 -0.5674  0.5327  0.1098
 2024TIP3   OH227630   2.299   3.623   7.006  0.2989  0.2195  0.0720
 2024TIP3    H127631   2.375   3.682   7.004  0.6525 -0.2308  0.1912
 2024TIP3    H227632   2.239   3.659   6.940  0.4554  0.7856  0.2272
 2025TIP3   OH227633   3.828   4.434   6.597 -0.2432 -0.1047  0.3964
 2025TIP3    H127634   3.867   4.420   6.511 -0.6493  2.7028 -0.3377
 2025TIP3    H227635   3.864   4.518   6.626 -1.5791 -0.0786  2.1048
 2026TIP3   OH227636   6.353   2.586   0.393  0.2617 -0.2422 -0.8190
 2026TIP3    H127637   6.309   2.588   0.308 -0.6340  0.9341 -0.3540
 2026TIP3    H227638   6.418   2.516   0.384 -0.9004 -1.2380 -1.9223
 2027TIP3   OH227639   0.842   6.039   7.884  0.1252 -0.0020 -0.2407
 2027TIP3    H127640   0.792   5.957   7.878 -0.0087  0.0898 -0.3879
 2027TIP3    H227641   0.775   6.108   7.877  0.4775  0.1930 -3.1271
 2028TIP3   OH227642   2.118   2.428   6.969 -0.2017 -0.1894 -0.0804
 2028TIP3    H127643   2.119   2.434   6.873 -1.2542  0.0894 -0.0842
 2028TIP3    H227644   2.085   2.339   6.987  1.2450 -0.7252  0.0326
 2029TIP3   OH227645   4.426   6.454   8.425 -0.3437 -0.4694 -0.0845
 2029TIP3    H127646   4.502   6.419   8.378  1.3550  1.8032  0.7660
 2029TIP3    H227647   4.350   6.419   8.379  1.2138 -0.9722 -2.4233
 2030TIP3   OH227648   4.489   6.116   7.504 -0.3594  0.4021  0.5686
 2030TIP3    H127649   4.549   6.110   7.579 -0.7506 -1.1317  0.7956
 2030TIP3    H227650   4.405   6.139   7.542 -0.1876  1.3689  0.3849
 2031TIP3   OH227651   0.674   2.921   7.843 -0.3920 -0.0311  0.1365
 2031TIP3    H127652   0.618   2.907   7.919 -1.7090  2.3990 -0.2703
 2031TIP3    H227653   0.760   2.942   7.880 -0.9123  0.7042  0.9597
 2032TIP3   OH227654   5.477   4.177   8.386 -0.6260 -0.0925  0.3006
 2032TIP3    H127655   5.421   4.242   8.428 -0.2160 -1.3400  2.9983
 2032TIP3    H227656   5.432   4.094   8.399 -0.1753 -0.6271 -1.3042
 2033TIP3   OH227657   1.138   1.430   7.991  0.3429 -0.3807  0.9129
 2033TIP3    H127658   1.104   1.363   7.932  2.7711  1.2931 -2.7509
 2033TIP3    H227659   1.086   1.508   7.971  2.5322  0.7614 -0.7645
 2034TIP3   OH227660   4.953   0.491   0.912 -0.2141  0.1131 -0.2059
 2034TIP3    H127661   5.025   0.534   0.959 -0.3459 -0.0139  0.1221
 2034TIP3    H227662   4.971   0.507   0.820  0.4948 -0.3245 -0.1534
 2035TIP3   OH227663   6.563   3.483   8.089  0.3249  0.6166  0.3729
 2035TIP3    H127664   6.516   3.435   8.022 -0.8030  0.9432  0.8979
 2035TIP3    H227665   6.576   3.420   8.160  1.9488  0.1314 -0.3082
 2036TIP3   OH227666   3.241   2.616   0.967 -0.3018  0.2171 -0.0890
 2036TIP3    H127667   3.332   2.620   0.999 -0.3037 -0.3164 -0.0096
 2036TIP3    H227668   3.188   2.623   1.046 -0.3147 -0.3396 -0.0412
 2037TIP3   OH227669   2.487   4.794   0.532 -0.4860 -0.0264  0.3027
 2037TIP3    H127670   2.545   4.837   0.469 -0.3901 -1.6564 -0.8110
 2037TIP3    H227671   2.400   4.804   0.493 -0.4075 -1.1754 -0.2119
 2038TIP3   OH227672   4.681   6.305   7.210  0.8042  0.2119  0.3366
 2038TIP3    H127673   4.706   6.220   7.247 -1.8564 -1.6756 -1.8023
 2038TIP3    H227674   4.756   6.330   7.156  1.2461 -1.3103  0.1867
 2039TIP3   OH227675   4.890   0.199   8.206  0.0319 -0.2826 -0.1849
 2039TIP3    H127676   4.874   0.232   8.294  0.4450 -0.8673  0.1180
 2039TIP3    H227677   4.894   0.104   8.217 -2.0804 -0.5455 -1.1748
 2040TIP3   OH227678   4.446   1.526   8.024 -0.1648 -0.2302 -0.6623
 2040TIP3    H127679   4.486   1.447   8.060 -1.8219 -0.7677  0.0897
 2040TIP3    H227680   4.443   1.511   7.930  1.0334 -0.3209 -0.7086
 2041TIP3   OH227681   6.058   0.156   0.731 -0.0428  0.1935 -0.2187
 2041TIP3    H127682   6.109   0.154   0.812 -0.5477  1.2025  0.1443
 2041TIP3    H227683   5.978   0.107   0.751  0.0405  0.0432 -0.2543
 2042TIP3   OH227684   6.576   3.385   0.709 -0.2220 -0.0415  0.0958
 2042TIP3    H127685   6.650   3.439   0.679 -1.6111  2.3256  0.6290
 2042TIP3    H227686   6.589   3.378   0.803 -0.2006 -0.4123  0.0653
 2043TIP3   OH227687   3.378   3.575   1.429  0.2642 -0.2349  0.5170
 2043TIP3    H127688   3.396   3.527   1.348 -2.7202  2.4107 -2.0018
 2043TIP3    H227689   3.324   3.516   1.481 -0.7155 -0.7819 -1.0594
 2044TIP3   OH227690   1.972   3.398   1.258  0.5089 -0.3792  0.0284
 2044TIP3    H127691   1.925   3.407   1.341 -0.2185 -0.1309 -0.4022
 2044TIP3    H227692   2.031   3.474   1.256  0.8441 -0.6220  0.5122
 2045TIP3   OH227693   3.956   4.489   0.708  0.1494  0.5260  0.4770
 2045TIP3    H127694   3.945   4.535   0.625 -0.5845 -1.7437 -0.7766
 2045TIP3    H227695   3.883   4.519   0.762 -1.3123 -0.3826 -0.9262
 2046TIP3   OH227696   3.311   3.800   1.319  0.3869 -0.2354 -0.7726
 2046TIP3    H127697   3.220   3.817   1.297 -0.0100  0.7166  1.3617
 2046TIP3    H227698   3.309   3.718   1.369  0.3379  0.9165  1.2084
 2047TIP3   OH227699   4.996   0.941   7.302 -0.1747  0.1857 -0.0761
 2047TIP3    H127700   4.982   1.035   7.298  2.5996  0.7447  1.0130
 2047TIP3    H227701   4.979   0.910   7.213 -1.1962  1.6641 -0.4379
 2048TIP3   OH227702   6.207   6.647   7.316  0.3244 -0.1301 -0.1045
 2048TIP3    H127703   6.145   6.694   7.372 -0.1107 -1.7934  0.8684
 2048TIP3    H227704   6.153   6.599   7.255  0.5908 -1.7220  0.8540
 2049TIP3   OH227705   3.089   5.840   0.616 -0.1560  0.1419 -0.0738
 2049TIP3    H127706   3.178   5.818   0.588  0.3238  3.7964 -1.9812
 2049TIP3    H227707   3.036   5.765   0.588  2.1536 -1.8640  0.5828
 2050TIP3   OH227708   2.940   0.388   0.400  0.4261 -0.2598  0.7136
 2050TIP3    H127709   2.932   0.455   0.468 -0.2976  0.4466 -0.0453
 2050TIP3    H227710   3.026   0.348   0.415  2.0107  2.4934 -0.2903
 2051TIP3   OH227711   3.463   5.156   6.201  0.1317  0.6567 -0.7222
 2051TIP3    H127712   3.521   5.212   6.253  1.9857  1.1037 -3.1013
 2051TIP3    H227713   3.432   5.090   6.264  2.0636  1.2720  1.0006
 2052TIP3   OH227714   3.447   1.960   8.271 -0.1832  0.2394 -0.1627
 2052TIP3    H127715   3.457   2.054   8.285 -0.8334  0.3432 -0.3367
 2052TIP3    H227716   3.515   1.937   8.207  1.1328  0.2428  1.1865
 2053TIP3   OH227717   4.228   4.742   7.075 -0.2627 -0.2236  0.8391
 2053TIP3    H127718   4.139   4.764   7.046 -0.0677  0.1732  0.5230
 2053TIP3    H227719   4.261   4.824   7.112  1.7251  1.2229 -3.4201
 2054TIP3   OH227720   6.176   0.280   0.022  0.0641  0.5311 -0.3340
 2054TIP3    H127721   6.240   0.210   0.036  0.6508  1.0665 -0.2662
 2054TIP3    H227722   6.227   0.351  -0.019 -0.5576  0.8454 -0.5872
 2055TIP3   OH227723   2.757   6.691   1.800 -0.2955 -0.1146  0.2468
 2055TIP3    H127724   2.674   6.732   1.824  0.4318  0.4202  2.0263
 2055TIP3    H227725   2.790   6.745   1.728 -1.5731 -0.5053 -0.6864
 2056TIP3   OH227726   3.488   2.243   7.374  0.6541 -0.2709  0.2401
 2056TIP3    H127727   3.427   2.313   7.350  0.8843 -0.0437  0.3196
 2056TIP3    H227728   3.494   2.190   7.295 -0.2024 -0.7065  0.4501
 2057TIP3   OH227729   0.801   0.769   1.665 -0.1022  1.1930  0.0653
 2057TIP3    H127730   0.775   0.829   1.596  0.2349  1.0281 -0.2088
 2057TIP3    H227731   0.755   0.800   1.743  2.2912  3.6047  0.6643
 2058TIP3   OH227732   1.664   3.238   0.699  0.4656  0.6663  0.2975
 2058TIP3    H127733   1.645   3.221   0.607  0.3829  0.2706  0.3884
 2058TIP3    H227734   1.672   3.152   0.739 -1.3277  0.8007  1.0490
 2059TIP3   OH227735   3.408   2.894   8.500  0.1039  0.7523 -0.3023
 2059TIP3    H127736   3.355   2.907   8.578  0.8327 -0.4405  0.4197
 2059TIP3    H227737   3.359   2.938   8.430 -0.3101  2.2935  0.8954
 2060TIP3   OH227738   3.123   6.687   0.563 -0.4719  0.1864 -0.3830
 2060TIP3    H127739   3.128   6.592   0.552 -1.8983  0.0901 -0.4153
 2060TIP3    H227740   3.188   6.707   0.630  1.4245 -0.5012 -1.9339
 2061TIP3   OH227741   6.658   4.932   7.057  0.0511 -0.1174  0.2537
 2061TIP3    H127742   6.639   4.846   7.018 -1.3206  0.6094 -0.7352
 2061TIP3    H227743   6.693   4.984   6.985  0.2862  0.3611  0.7050
 2062TIP3   OH227744   1.853   1.703   0.356  0.1158 -0.2102 -0.0519
 2062TIP3    H127745   1.773   1.663   0.389  0.2454 -1.7379 -1.4864
 2062TIP3    H227746   1.896   1.738   0.434 -1.8141  0.4468  0.7683
 2063TIP3   OH227747   1.920   5.897   7.111 -0.5114 -0.5420 -0.1591
 2063TIP3    H127748   1.852   5.829   7.111 -0.5687 -0.4864  0.1914
 2063TIP3    H227749   1.974   5.876   7.035 -1.5334  0.0300 -1.0760
 2064TIP3   OH227750   1.466   4.436   7.465 -0.6786 -0.2274  0.0693
 2064TIP3    H127751   1.524   4.370   7.503  1.1351  1.4630  0.3969
 2064TIP3    H227752   1.448   4.496   7.537  0.0678  1.1860 -0.8689
 2065TIP3   OH227753   3.649   2.936   0.462  0.7276  0.5402 -0.3231
 2065TIP3    H127754   3.713   2.965   0.527 -0.6815  0.2894  1.2334
 2065TIP3    H227755   3.589   3.010   0.453  0.4863  0.2937 -0.7901
 2066TIP3   OH227756   2.879   1.861   0.849 -0.2897  0.5092  0.4307
 2066TIP3    H127757   2.854   1.917   0.776 -0.2895 -0.4750 -0.3427
 2066TIP3    H227758   2.884   1.773   0.811 -0.5406 -0.0585  1.6696
 2067TIP3   OH227759   6.283   0.051   0.553 -0.3767 -0.4819 -0.1690
 2067TIP3    H127760   6.240  -0.013   0.496  0.0160  0.1218 -1.1793
 2067TIP3    H227761   6.211   0.089   0.604 -0.6470 -1.5124  0.2412
 2068TIP3   OH227762   5.883   3.235   1.880 -0.0498 -0.1066 -0.0139
 2068TIP3    H127763   5.841   3.231   1.965 -1.5450 -2.9010 -0.7789
 2068TIP3    H227764   5.939   3.157   1.877  1.7663  1.1399 -0.7878
 2069TIP3   OH227765   4.986   1.225   7.211  0.0223 -0.4339  0.7310
 2069TIP3    H127766   4.982   1.278   7.132 -2.4260 -2.4331 -0.6408
 2069TIP3    H227767   4.894   1.218   7.240  0.4208 -2.6288  1.6845
 2070TIP3   OH227768   1.025   4.726   7.109  0.2027  0.0045 -0.3670
 2070TIP3    H127769   1.099   4.749   7.165  0.8083  0.5120 -1.3626
 2070TIP3    H227770   1.023   4.630   7.112  0.4545  0.0095  0.2194
 2071TIP3   OH227771   4.524   6.731   8.361  0.5477 -0.2041 -0.2352
 2071TIP3    H127772   4.614   6.737   8.391  1.0818 -0.6453 -1.6643
 2071TIP3    H227773   4.480   6.675   8.425  1.2909 -0.0106  0.4458
 2072TIP3   OH227774   3.492   0.375   0.340 -0.2611 -0.3272  0.2119
 2072TIP3    H127775   3.478   0.437   0.412  1.0511 -0.6371  0.7741
 2072TIP3    H227776   3.416   0.386   0.283  1.3045  4.0902 -1.4120
 2073TIP3   OH227777   2.652   1.617   7.515 -0.2383 -0.4482  0.1011
 2073TIP3    H127778   2.704   1.693   7.542 -0.8458  0.2976 -0.7889
 2073TIP3    H227779   2.716   1.546   7.510  0.2479 -0.1536  1.4676
 2074TIP3   OH227780   2.011   2.841   8.237 -0.3803 -0.2895  0.1617
 2074TIP3    H127781   1.919   2.856   8.260 -0.2697 -0.8455  1.0536
 2074TIP3    H227782   2.008   2.788   8.157 -0.8455 -0.6242  0.4001
 2075TIP3   OH227783   1.830   2.448   8.669  0.7828 -0.4932  0.1831
 2075TIP3    H127784   1.846   2.370   8.615  2.3182 -0.2025  0.1726
 2075TIP3    H227785   1.745   2.481   8.639  1.6487 -0.2354 -2.2286
 2076TIP3   OH227786   6.371   4.678   1.453  0.2572 -0.1676 -0.5327
 2076TIP3    H127787   6.351   4.622   1.528  1.7661 -1.1841 -0.8518
 2076TIP3    H227788   6.438   4.738   1.485  1.4538 -1.0878 -1.2260
 2077TIP3   OH227789   4.313   6.499   6.989  0.1645  0.0472 -0.0937
 2077TIP3    H127790   4.219   6.516   6.979  0.3535  0.5382 -1.2395
 2077TIP3    H227791   4.337   6.452   6.908  1.3248  1.8522 -0.8476
 2078TIP3   OH227792   2.819   3.934   0.353  0.1556 -0.6860 -0.2265
 2078TIP3    H127793   2.764   4.012   0.360  0.6761 -0.2161 -1.0617
 2078TIP3    H227794   2.905   3.962   0.385  0.2761 -0.9827 -0.2842
 2079TIP3   OH227795   4.004   5.334   7.222  0.0908  0.3191  0.1217
 2079TIP3    H127796   4.005   5.239   7.209 -0.0112  0.1917  1.0063
 2079TIP3    H227797   3.916   5.360   7.195 -0.1839  0.0338  0.7357
 2080TIP3   OH227798   6.535   4.502   7.055 -0.2799 -0.1446 -0.6318
 2080TIP3    H127799   6.491   4.493   6.971  1.7430 -0.3978 -1.7268
 2080TIP3    H227800   6.526   4.594   7.078 -1.5782 -0.2444 -0.6685
 2081TIP3   OH227801   4.983   6.302   1.815 -0.5234  0.4412 -0.9908
 2081TIP3    H127802   5.046   6.240   1.851  0.9528  1.0022 -2.5033
 2081TIP3    H227803   5.004   6.385   1.857 -0.1666  0.6506 -1.5701
 2082TIP3   OH227804   2.021   6.286   8.632  0.5493 -0.2555 -0.2570
 2082TIP3    H127805   1.948   6.225   8.634 -0.1649  0.6069  0.9472
 2082TIP3    H227806   2.048   6.287   8.540 -0.1646 -1.4874 -0.5039
 2083TIP3   OH227807   6.596   2.642   1.929 -0.1202 -0.4137  0.1921
 2083TIP3    H127808   6.597   2.718   1.987 -3.3272 -0.3679  0.3350
 2083TIP3    H227809   6.665   2.585   1.963  0.1808  1.0011  2.0891
 2084TIP3   OH227810   0.039   5.652   1.485  0.2730 -0.3979 -0.3467
 2084TIP3    H127811  -0.053   5.631   1.465 -0.1871  0.8499  0.3090
 2084TIP3    H227812   0.070   5.576   1.534 -0.1013 -1.2647 -1.4010
 2085TIP3   OH227813   4.039   3.671   1.782 -0.2096 -0.4536  0.0047
 2085TIP3    H127814   4.086   3.752   1.802  0.0957 -0.8387  0.9110
 2085TIP3    H227815   3.963   3.699   1.731  0.1588  0.3457 -0.1173
 2086TIP3   OH227816   2.449   2.635   7.523  0.8924 -0.0488 -0.0377
 2086TIP3    H127817   2.380   2.701   7.525  1.6756  0.8108 -0.4864
 2086TIP3    H227818   2.500   2.656   7.445  1.2403 -1.1102 -0.1126
 2087TIP3   OH227819   6.681   0.519   1.454 -0.0365 -0.2067  0.0088
 2087TIP3    H127820   6.739   0.519   1.529 -0.0459  0.9120  0.0347
 2087TIP3    H227821   6.712   0.447   1.399  1.2066  0.2175  0.1408
 2088TIP3   OH227822   2.466   3.359   6.156 -0.0675 -0.1581 -0.5711
 2088TIP3    H127823   2.430   3.296   6.218  0.2319  1.5124  1.3693
 2088TIP3    H227824   2.561   3.353   6.169  0.1168 -0.8819 -2.0146
 2089TIP3   OH227825   5.097   2.169   0.341 -0.2523  0.0302  0.4605
 2089TIP3    H127826   5.146   2.093   0.307 -2.1647 -0.9023 -0.3756
 2089TIP3    H227827   5.036   2.131   0.405 -2.5787  0.4639 -1.3373
 2090TIP3   OH227828   1.907   5.775   2.146  0.6898 -0.0241 -0.0720
 2090TIP3    H127829   1.904   5.869   2.160  2.5294 -0.0396  0.5997
 2090TIP3    H227830   1.853   5.761   2.068 -0.9140  1.3600  0.7202
 2091TIP3   OH227831   4.675   6.429   0.867  0.2545  0.1525  0.1586
 2091TIP3    H127832   4.582   6.433   0.844  0.1362  0.3626  0.6740
 2091TIP3    H227833   4.702   6.521   0.870  0.1754  0.1503  1.2316
 2092TIP3   OH227834   1.517   5.682   0.335 -0.9048 -0.0818 -0.5314
 2092TIP3    H127835   1.606   5.647   0.336 -0.5808  0.7123 -0.9616
 2092TIP3    H227836   1.495   5.694   0.428  0.7451  2.9180 -0.4015
 2093TIP3   OH227837   2.656   2.919   7.000  0.2806  0.0749  0.4281
 2093TIP3    H127838   2.592   2.931   6.930 -0.5185  0.7263  1.2300
 2093TIP3    H227839   2.640   2.993   7.059  0.8390 -0.5313  1.3638
 2094TIP3   OH227840   4.949   0.496   0.647  0.1600  0.2193  0.4163
 2094TIP3    H127841   4.950   0.400   0.646  1.1495  0.2293 -0.5792
 2094TIP3    H227842   5.027   0.522   0.599  1.1587  1.5513  2.5923
 2095TIP3   OH227843   2.450   0.194   7.539  0.0790 -0.3277  0.2790
 2095TIP3    H127844   2.383   0.128   7.524 -0.0810  0.0241 -0.5969
 2095TIP3    H227845   2.533   0.149   7.526  0.0044 -0.6130  0.7594
 2096TIP3   OH227846   2.249   5.093   7.085  0.3949 -0.2105 -0.2195
 2096TIP3    H127847   2.166   5.135   7.063  0.9561 -0.0087 -2.0538
 2096TIP3    H227848   2.313   5.134   7.027  1.5936 -1.1368  0.4086
 2097TIP3   OH227849   1.739   5.697   8.264 -0.2784 -0.1904  0.6364
 2097TIP3    H127850   1.709   5.706   8.174 -0.0510  0.7831  0.6480
 2097TIP3    H227851   1.730   5.604   8.283 -2.0913 -0.1457  0.2223
 2098TIP3   OH227852   5.773   0.736   8.661  0.3511  0.4061  0.0859
 2098TIP3    H127853   5.858   0.767   8.631  0.0054  2.7093  1.2992
 2098TIP3    H227854   5.793   0.678   8.734  0.8979  0.9205  0.3509
 2099TIP3   OH227855   2.038   1.287   7.123  0.4274 -0.0119 -0.1307
 2099TIP3    H127856   2.080   1.201   7.119  1.6904  0.6289 -2.0525
 2099TIP3    H227857   2.042   1.320   7.034  0.5989  2.3405  0.6806
 2100TIP3   OH227858   2.198   5.641   0.782  0.0822 -0.7860  0.2075
 2100TIP3    H127859   2.240   5.681   0.707  0.3005 -0.2618  0.6026
 2100TIP3    H227860   2.196   5.710   0.848 -0.7666 -1.0098  0.4339
 2101TIP3   OH227861   6.779   0.258   7.638  0.1022  0.9626  0.5077
 2101TIP3    H127862   6.703   0.210   7.604 -0.0227  1.1662  0.4968
 2101TIP3    H227863   6.847   0.192   7.646 -0.3096  0.6110  1.2709
 2102TIP3   OH227864   6.082   4.837   7.404  0.4951 -0.2443 -0.4400
 2102TIP3    H127865   6.110   4.928   7.399  0.2988  0.0150  2.2277
 2102TIP3    H227866   6.134   4.792   7.337  3.8798  1.0426  1.0961
 2103TIP3   OH227867   5.593   0.476   0.658  0.4238 -0.3121 -0.0004
 2103TIP3    H127868   5.654   0.407   0.632  0.8269  0.1383 -0.2718
 2103TIP3    H227869   5.562   0.449   0.745  2.0496  0.1286  0.7447
 2104TIP3   OH227870   5.858   6.541   8.732 -0.0331 -1.0553  0.4379
 2104TIP3    H127871   5.898   6.514   8.814  0.5939  1.3372  0.9836
 2104TIP3    H227872   5.764   6.541   8.750 -0.1388 -3.2701  0.2194
 2105TIP3   OH227873   2.835   1.275   0.725  0.5271  0.3003  0.0363
 2105TIP3    H127874   2.838   1.276   0.629  2.0253 -0.5582  0.0501
 2105TIP3    H227875   2.917   1.233   0.751 -0.8437 -1.5369  1.6348
 2106TIP3   OH227876   0.829   1.784   7.424  0.4987 -0.5569  0.8014
 2106TIP3    H127877   0.759   1.841   7.392  2.6619  1.4423 -0.7617
 2106TIP3    H227878   0.880   1.840   7.483  1.2838 -1.6754  1.2201
 2107TIP3   OH227879   2.538   3.623   1.128  0.1967  0.0807  0.1840
 2107TIP3    H127880   2.476   3.665   1.069 -0.3149 -1.7443 -0.6580
 2107TIP3    H227881   2.519   3.661   1.214 -0.4220  1.3145 -0.4805
 2108TIP3   OH227882   3.629   1.039   0.095 -0.0922  0.7842 -0.0997
 2108TIP3    H127883   3.658   1.044   0.004  0.4326 -0.5724 -0.0359
 2108TIP3    H227884   3.538   1.068   0.093 -0.0502  0.8792 -1.0434
 2109TIP3   OH227885   5.496   3.133   0.969  0.8734 -0.1957  0.1189
 2109TIP3    H127886   5.466   3.067   0.907  0.8690 -0.8198  0.7744
 2109TIP3    H227887   5.438   3.122   1.045  0.6895  0.7488  0.1322
 2110TIP3   OH227888   3.310   3.509   0.171 -0.1410 -0.6361 -0.2027
 2110TIP3    H127889   3.238   3.463   0.129 -0.9302  0.3512  0.0245
 2110TIP3    H227890   3.268   3.559   0.241  0.7391  0.1050 -0.1889
 2111TIP3   OH227891   2.672   1.162   8.817 -0.7489  0.3097  0.0759
 2111TIP3    H127892   2.631   1.076   8.812 -0.3549  0.0982  0.4223
 2111TIP3    H227893   2.761   1.149   8.786  0.2357 -0.0479  2.7880
 2112TIP3   OH227894   0.642   0.817   0.145 -0.5094  0.5971 -1.3301
 2112TIP3    H127895   0.633   0.762   0.067  2.3668  0.7168 -1.8686
 2112TIP3    H227896   0.734   0.807   0.170 -1.0252  1.6498  1.2610
 2113TIP3   OH227897   4.064   5.061   7.410 -0.1666 -0.4529  0.5462
 2113TIP3    H127898   4.096   5.067   7.320  0.3026 -1.7595  0.5982
 2113TIP3    H227899   3.981   5.014   7.403 -0.6311  0.3422  0.7002
 2114TIP3   OH227900   0.466   3.793   7.946  0.0739 -0.3788 -0.3724
 2114TIP3    H127901   0.541   3.756   7.900  0.6380  0.3690 -0.0653
 2114TIP3    H227902   0.453   3.879   7.906  1.7265  1.0975  2.0346
 2115TIP3   OH227903   4.239   4.605   0.966  0.3235 -0.1513 -0.3912
 2115TIP3    H127904   4.164   4.664   0.958 -0.3338 -0.9865 -0.5343
 2115TIP3    H227905   4.204   4.519   0.942  0.6591 -1.0476  1.9912
 2116TIP3   OH227906   6.231   0.523   1.644  0.3157 -0.0941 -0.7912
 2116TIP3    H127907   6.300   0.507   1.707 -0.0097 -0.1671 -0.4522
 2116TIP3    H227908   6.267   0.590   1.585 -0.1718  1.6120  0.7671
 2117TIP3   OH227909   2.560   3.237   1.378 -0.3282 -1.0064 -0.0547
 2117TIP3    H127910   2.616   3.255   1.303 -0.1857 -1.0523  0.0408
 2117TIP3    H227911   2.503   3.313   1.385 -2.6621 -2.4145 -2.2923
 2118TIP3   OH227912   3.287   2.473   1.364  0.0148  0.1193 -0.2724
 2118TIP3    H127913   3.360   2.440   1.311  0.3067  0.0366  0.1812
 2118TIP3    H227914   3.218   2.491   1.300 -0.5435 -2.3254 -0.4631
 2119TIP3   OH227915   0.601   2.804   7.604 -0.1919  0.7660 -0.1195
 2119TIP3    H127916   0.507   2.788   7.612 -0.1459  0.0080 -1.0068
 2119TIP3    H227917   0.624   2.849   7.686 -1.3906  1.3465 -0.0740
 2120TIP3   OH227918   3.033   0.743   0.932 -0.0444  0.0736 -1.0898
 2120TIP3    H127919   2.965   0.808   0.913  0.7830  1.2204 -0.2615
 2120TIP3    H227920   3.090   0.744   0.855 -0.0336  0.3366 -1.0789
 2121TIP3   OH227921   3.339   1.445   7.940  0.3780  0.3359  0.4521
 2121TIP3    H127922   3.412   1.400   7.983  1.2055 -1.8150 -2.7763
 2121TIP3    H227923   3.373   1.531   7.917  1.0430  0.2550  1.1001
 2122TIP3   OH227924   0.960   4.598   8.636  0.6091  0.8525 -0.4152
 2122TIP3    H127925   0.902   4.636   8.701 -1.7345 -1.5308 -0.9570
 2122TIP3    H227926   0.979   4.671   8.576 -0.6927  2.0559  0.5673
 2123TIP3   OH227927   0.916   0.304   0.284  0.2677 -0.3183  0.1746
 2123TIP3    H127928   0.915   0.363   0.359 -0.7030 -2.4952  2.0045
 2123TIP3    H227929   0.998   0.256   0.292  0.3786 -0.2349 -0.4362
 2124TIP3   OH227930   2.158   1.675   7.967  0.3230 -0.8342  0.2900
 2124TIP3    H127931   2.190   1.599   7.918  1.0538  1.4180 -3.0262
 2124TIP3    H227932   2.063   1.664   7.969  0.3553 -1.4893 -0.8018
 2125TIP3   OH227933   6.034   2.869   8.052 -0.6710  0.2031  0.6344
 2125TIP3    H127934   6.024   2.774   8.050  1.4421 -0.0781 -1.1356
 2125TIP3    H227935   5.945   2.903   8.039 -1.3464 -1.5348  0.4341
 2126TIP3   OH227936   4.960   3.420   8.556 -0.2312  0.3755 -0.0499
 2126TIP3    H127937   4.954   3.458   8.469 -0.4171  0.4444 -0.0085
 2126TIP3    H227938   4.892   3.353   8.558  0.5016 -0.3989 -0.3356
 2127TIP3   OH227939   1.361   5.551   7.390 -0.0882 -0.3880 -0.3241
 2127TIP3    H127940   1.267   5.569   7.380  0.0061  1.5475  1.6075
 2127TIP3    H227941   1.369   5.512   7.477  0.9800  0.3148 -0.0903
 2128TIP3   OH227942   1.889   0.949   7.268 -0.0798 -0.0060 -0.0556
 2128TIP3    H127943   1.889   0.929   7.362  0.8276  0.4269  0.0510
 2128TIP3    H227944   1.815   1.009   7.256 -0.3882 -0.3048  0.3260
 2129TIP3   OH227945   6.779   5.962   2.042 -0.0919  0.3217 -0.2846
 2129TIP3    H127946   6.814   6.028   2.102 -1.3509  1.5909 -0.9005
 2129TIP3    H227947   6.702   5.927   2.086 -1.2700  1.5581 -1.2766
 2130TIP3   OH227948   2.154   0.761   0.628 -0.4984  0.1838 -0.2341
 2130TIP3    H127949   2.231   0.818   0.632 -0.3887  0.2986 -2.6864
 2130TIP3    H227950   2.190   0.672   0.629 -0.4725  0.1998  0.5675
 2131TIP3   OH227951   1.396   6.100   0.538  0.0803  0.4402 -0.1464
 2131TIP3    H127952   1.461   6.065   0.477  0.9450  0.4927  0.7182
 2131TIP3    H227953   1.312   6.086   0.494  0.4622 -1.8225 -0.2836
 2132TIP3   OH227954   1.336   3.715   7.382  0.3818  0.1636  0.0323
 2132TIP3    H127955   1.342   3.790   7.323  0.7946 -1.3633 -2.0098
 2132TIP3    H227956   1.318   3.641   7.324 -1.6497 -1.1075  2.1353
 2133TIP3   OH227957   1.043   0.246   0.785  0.2395 -0.3636 -0.6033
 2133TIP3    H127958   0.981   0.184   0.745  1.0494  0.1879 -2.8556
 2133TIP3    H227959   1.056   0.212   0.873 -1.3956 -1.8742 -0.8710
 2134TIP3   OH227960   2.893   5.963   1.496 -0.0394 -0.0942  0.1831
 2134TIP3    H127961   2.975   5.966   1.546  1.2065 -0.1770 -1.7301
 2134TIP3    H227962   2.827   5.937   1.560  1.4249 -0.1017  1.7877
 2135TIP3   OH227963   0.233   5.119   0.710  0.0633  0.4542  0.0114
 2135TIP3    H127964   0.143   5.093   0.727  0.2016  0.3570  0.6276
 2135TIP3    H227965   0.255   5.179   0.781  0.6305  0.1123  0.1351
 2136TIP3   OH227966   1.826   2.019   1.756 -0.1293 -0.0999  0.2630
 2136TIP3    H127967   1.916   2.010   1.789 -0.1029  1.9258  0.8966
 2136TIP3    H227968   1.773   1.965   1.814  0.5600 -0.4679  0.5590
 2137TIP3   OH227969   0.285   3.650   1.412  0.0675 -0.0647 -0.5496
 2137TIP3    H127970   0.262   3.588   1.482 -0.5472 -0.1460 -0.8217
 2137TIP3    H227971   0.381   3.645   1.406  0.0759 -0.4730 -0.0970
 2138TIP3   OH227972   2.965   5.268   2.215 -0.5573 -0.0963 -0.4457
 2138TIP3    H127973   2.882   5.223   2.199 -0.7851  0.3318 -0.4783
 2138TIP3    H227974   2.950   5.319   2.295  0.1111 -1.0910  0.3478
 2139TIP3   OH227975   5.562   3.748   1.620  0.3810  0.1764 -0.1545
 2139TIP3    H127976   5.500   3.707   1.680  1.0099 -0.8259 -0.1760
 2139TIP3    H227977   5.520   3.830   1.595 -0.5795 -0.1181  0.4473
 2140TIP3   OH227978   2.397   0.719   7.779  0.0356  0.4116  0.2032
 2140TIP3    H127979   2.338   0.681   7.715 -1.1562  1.2219  0.7962
 2140TIP3    H227980   2.355   0.800   7.807  0.9531  0.5271  1.3641
 2141TIP3   OH227981   6.043   1.745   0.106 -0.1242 -0.3152 -0.6670
 2141TIP3    H127982   5.983   1.811   0.143 -1.1085 -0.6839 -1.5469
 2141TIP3    H227983   6.128   1.767   0.143 -0.5166  1.1648 -0.5642
 2142TIP3   OH227984   2.872   2.020   8.267 -0.0572  0.4420 -0.2140
 2142TIP3    H127985   2.887   1.954   8.334 -0.6590 -0.0167 -0.5250
 2142TIP3    H227986   2.960   2.045   8.238  0.2776  1.4249  1.4742
 2143TIP3   OH227987   3.741   2.833   6.865 -0.0543  0.3987  0.6562
 2143TIP3    H127988   3.667   2.843   6.925  0.2301 -2.0461  1.5410
 2143TIP3    H227989   3.702   2.835   6.778 -1.0086  0.2355  1.0641
 2144TIP3   OH227990   4.608   6.096   0.239 -0.2017  0.2053 -0.9367
 2144TIP3    H127991   4.684   6.123   0.291 -0.5423 -3.4300  1.8327
 2144TIP3    H227992   4.533   6.124   0.291 -0.6126 -1.2109 -0.7418
 2145TIP3   OH227993   1.126   5.863   0.469 -0.7193  0.3477  0.2572
 2145TIP3    H127994   1.104   5.924   0.540 -0.7131 -0.8044  1.2723
 2145TIP3    H227995   1.207   5.822   0.497 -1.5602 -1.3153  0.3976
 2146TIP3   OH227996   2.068   1.450   1.128 -0.5274 -1.1237 -0.1774
 2146TIP3    H127997   2.024   1.369   1.103 -0.7944 -0.6653 -1.2483
 2146TIP3    H227998   2.109   1.481   1.048  0.8112 -0.9498  0.5518
 2147TIP3   OH227999   5.079   0.141   7.148  0.4847 -0.0014 -0.5848
 2147TIP3    H128000   5.172   0.121   7.157  0.3970 -0.0049  0.3443
 2147TIP3    H228001   5.076   0.208   7.079  1.1601 -0.0641 -0.6804
 2148TIP3   OH228002   6.122   3.308   8.387 -0.4958  0.1416  0.7963
 2148TIP3    H128003   6.051   3.338   8.331 -1.9789 -1.2832  1.8137
 2148TIP3    H228004   6.083   3.301   8.474  1.6665  2.0601  2.0363
 2149TIP3   OH228005   1.649   4.627   7.326  0.1209  0.0635  0.1760
 2149TIP3    H128006   1.603   4.662   7.249 -1.4402  1.1160  1.5159
 2149TIP3    H228007   1.600   4.549   7.350 -0.1823  0.4349  0.8100
 2150TIP3   OH228008   0.198   3.217   8.569 -0.1295  0.0611  0.3004
 2150TIP3    H128009   0.209   3.238   8.476 -0.4387 -0.7283  0.0716
 2150TIP3    H228010   0.105   3.231   8.586 -0.3439 -1.0786  0.1384
 2151TIP3   OH228011   5.613   6.782   2.199  0.2033 -0.7384 -0.3928
 2151TIP3    H128012   5.534   6.728   2.197 -0.5827  0.3579 -3.3837
 2151TIP3    H228013   5.587   6.860   2.249 -0.9036 -0.0951 -1.8735
 2152TIP3   OH228014   1.973   2.092   0.478  0.4086  0.1425 -0.2700
 2152TIP3    H128015   1.911   2.156   0.513  1.8755  0.4648  1.9162
 2152TIP3    H228016   1.933   2.062   0.396 -1.3238  2.2729 -0.2837
 2153TIP3   OH228017   2.035   0.798   0.891 -0.7362  0.0488 -0.2295
 2153TIP3    H128018   1.951   0.812   0.848 -0.5595  0.9356 -0.3014
 2153TIP3    H228019   2.095   0.777   0.820 -0.9574 -0.9426 -0.1424
 2154TIP3   OH228020   0.595   2.955   7.197  0.1201 -0.1231 -0.3061
 2154TIP3    H128021   0.525   2.966   7.133 -0.5395 -0.5472  0.3217
 2154TIP3    H228022   0.661   2.902   7.153  2.2716  3.9674 -2.5705
 2155TIP3   OH228023   1.193   4.372   8.760 -0.0630 -0.1087 -0.3403
 2155TIP3    H128024   1.121   4.419   8.719 -2.3147 -2.9026  0.1535
 2155TIP3    H228025   1.171   4.369   8.853  0.1017 -1.9296 -0.3341
 2156TIP3   OH228026   2.961   2.502   7.628 -0.4755  0.2011 -0.3475
 2156TIP3    H128027   3.004   2.503   7.714  1.1493  2.7176 -1.0569
 2156TIP3    H228028   2.956   2.594   7.603 -3.6820 -0.1965 -1.7045
 2157TIP3   OH228029   2.873   6.345   0.642 -0.3037 -1.1263 -0.2595
 2157TIP3    H128030   2.813   6.409   0.680 -0.3096 -1.0191 -0.4525
 2157TIP3    H228031   2.912   6.301   0.718 -0.5745 -1.1488 -0.1334
 2158TIP3   OH228032   6.386   4.322   7.996 -0.2120 -0.3263 -0.2288
 2158TIP3    H128033   6.310   4.380   7.993  0.6537  0.8540  0.1512
 2158TIP3    H228034   6.371   4.268   8.074  0.2983  1.3228  1.0872
 2159TIP3   OH228035   4.252   3.584   8.762  0.1517 -0.0049  0.1071
 2159TIP3    H128036   4.278   3.604   8.672 -0.4573  0.3295 -0.0031
 2159TIP3    H228037   4.320   3.525   8.795  0.7167  0.3749 -0.3628
 2160TIP3   OH228038   5.591   0.002   7.001  0.0725 -0.0066 -0.3524
 2160TIP3    H128039   5.576   0.012   6.907  2.3723 -1.0052 -0.9045
 2160TIP3    H228040   5.610  -0.091   7.012 -1.2574 -0.1284  1.3333
 2161TIP3   OH228041   0.446   6.382   1.819 -0.2672 -0.0088  0.1147
 2161TIP3    H128042   0.451   6.473   1.788 -0.4965  0.2284  0.7514
 2161TIP3    H228043   0.409   6.334   1.745  0.5955  0.2626 -0.5180
 2162TIP3   OH228044   5.064   6.375   1.240 -0.1450 -0.3999  0.2465
 2162TIP3    H128045   5.016   6.449   1.279  1.0350  0.1538  0.7035
 2162TIP3    H228046   5.076   6.401   1.148  1.3577  0.6079  0.6818
 2163TIP3   OH228047   3.389   3.087   7.479  0.2209 -0.1433 -0.4156
 2163TIP3    H128048   3.392   3.004   7.528 -2.7459  1.0630  2.1726
 2163TIP3    H228049   3.368   3.061   7.390 -0.7126 -2.2359  0.3443
 2164TIP3   OH228050   6.502   3.012   1.425  0.0191  0.0725  0.0533
 2164TIP3    H128051   6.591   3.047   1.431  0.2372 -0.5121  0.2646
 2164TIP3    H228052   6.514   2.918   1.415 -0.5628  0.0746 -0.7400
 2165TIP3   OH228053   2.268   4.983   2.082  0.1597  0.1248 -0.4353
 2165TIP3    H128054   2.180   4.992   2.118 -0.4283 -0.8845 -1.5526
 2165TIP3    H228055   2.275   5.055   2.019  0.6305  0.9765  0.5595
 2166TIP3   OH228056   5.759   5.564   8.035 -0.4819 -0.1673  0.1697
 2166TIP3    H128057   5.843   5.595   8.000 -1.2382  0.0909 -1.5261
 2166TIP3    H228058   5.733   5.493   7.976 -0.8113 -1.1874  1.4998
 2167TIP3   OH228059   5.896   5.991   8.582 -0.1615  0.1882 -1.0876
 2167TIP3    H128060   5.833   6.049   8.540 -0.5555 -0.3929 -1.3157
 2167TIP3    H228061   5.842   5.928   8.630  0.2050 -0.8129 -1.9542
 2168TIP3   OH228062   3.745   0.460   0.886  0.0725  0.3574 -0.3626
 2168TIP3    H128063   3.700   0.392   0.936  1.0350 -0.9475 -1.2011
 2168TIP3    H228064   3.816   0.489   0.942 -0.6742  1.1034  0.2234
 2169TIP3   OH228065   1.541   3.878   7.006 -0.4253  0.1950  0.4145
 2169TIP3    H128066   1.565   3.961   6.965  0.7354  0.4981  1.6288
 2169TIP3    H228067   1.605   3.815   6.973  0.6299  0.4787  1.8120
 2170TIP3   OH228068   0.967   2.598   0.466  0.3391  0.3351  0.4687
 2170TIP3    H128069   0.992   2.663   0.532 -0.2226  1.1205 -0.0764
 2170TIP3    H228070   0.886   2.559   0.500 -0.2057  1.0700  0.0319
 2171TIP3   OH228071   5.695   3.727   8.427 -0.0410  0.0237  0.2608
 2171TIP3    H128072   5.704   3.821   8.442  0.3638  0.0324 -0.0047
 2171TIP3    H228073   5.607   3.706   8.456 -0.6358  0.7414 -0.9453
 2172TIP3   OH228074   5.068   1.090   8.017  0.3344 -0.1869  0.2361
 2172TIP3    H128075   5.006   1.030   7.975 -0.5050 -0.4837  1.8174
 2172TIP3    H228076   5.014   1.163   8.049  0.8739 -0.1233  1.0472
 2173TIP3   OH228077   3.656   4.254   1.229  0.3584 -0.2141  0.6125
 2173TIP3    H128078   3.634   4.254   1.322  1.4694  0.5456  0.8970
 2173TIP3    H228079   3.725   4.320   1.221 -1.3850  1.5190 -1.1535
 2174TIP3   OH228080   6.194   6.718   0.901 -0.0310  0.1034  0.5103
 2174TIP3    H128081   6.169   6.684   0.815 -0.3067 -0.1978  0.7073
 2174TIP3    H228082   6.166   6.650   0.963 -0.3850  0.5827  0.8897
 2175TIP3   OH228083   4.095   2.932   2.371 -0.5143 -0.2918 -0.0581
 2175TIP3    H128084   4.104   2.853   2.318  0.8612  0.4253 -0.9499
 2175TIP3    H228085   4.153   2.916   2.446 -0.3538 -0.1975 -0.1612
 2176TIP3   OH228086   5.964   6.258   1.647  0.5572 -0.8681  0.4838
 2176TIP3    H128087   5.913   6.298   1.717  0.2498  0.8704 -0.6663
 2176TIP3    H228088   6.049   6.239   1.686 -0.5047 -2.7010  2.0970
 2177TIP3   OH228089   2.719   6.787   0.269  0.1260 -0.5552 -0.0380
 2177TIP3    H128090   2.639   6.781   0.217 -0.6342 -1.8869  1.1863
 2177TIP3    H228091   2.727   6.880   0.290  1.5311  0.4021 -3.9924
 2178TIP3   OH228092   0.286   3.793   6.872  1.1853  0.1636 -0.3234
 2178TIP3    H128093   0.193   3.816   6.869  0.9369 -0.4734  1.3605
 2178TIP3    H228094   0.327   3.851   6.807 -0.4038  0.2677 -1.2942
 2179TIP3   OH228095   5.923   2.869   1.409 -0.2902  0.8267  0.7210
 2179TIP3    H128096   6.017   2.872   1.391  0.0550  0.9392  2.3461
 2179TIP3    H228097   5.904   2.955   1.448 -0.7249  0.2604  1.8123
 2180TIP3   OH228098   4.972   3.318   7.008 -0.2371 -0.0182  0.4313
 2180TIP3    H128099   4.960   3.223   7.011 -0.3608 -0.0382 -0.5822
 2180TIP3    H228100   4.902   3.350   6.952  1.5152  0.3497 -1.7135
 2181TIP3   OH228101   2.518   5.076   8.531  0.8739  0.2104  0.3339
 2181TIP3    H128102   2.556   5.012   8.470  2.2083  1.0356  0.2613
 2181TIP3    H228103   2.582   5.080   8.603  0.5458  1.0910  0.5777
 2182TIP3   OH228104   3.930   3.129   6.639 -0.3485 -0.3757  0.2233
 2182TIP3    H128105   3.910   3.074   6.715  0.4245  0.2919  0.9284
 2182TIP3    H228106   3.852   3.184   6.629 -0.5541 -0.6347  0.3837
 2183TIP3   OH228107   1.595   5.669   6.837  0.1784 -0.0008  0.0264
 2183TIP3    H128108   1.560   5.613   6.767  0.8912  1.1620 -1.3084
 2183TIP3    H228109   1.685   5.688   6.809  1.0975 -0.9032  2.1399
 2184TIP3   OH228110   1.193   4.792   6.863  0.7161 -0.0280 -0.1370
 2184TIP3    H128111   1.204   4.882   6.832 -1.9132  0.2920 -0.3664
 2184TIP3    H228112   1.159   4.801   6.952  1.9278 -0.8750  0.4534
 2185TIP3   OH228113   5.873   2.842   0.211 -0.2910 -0.7170 -0.0611
 2185TIP3    H128114   5.833   2.839   0.298 -0.9426 -1.1470 -0.3678
 2185TIP3    H228115   5.941   2.774   0.214 -0.4428 -0.8655  0.0496
 2186TIP3   OH228116   2.641   6.434   7.053 -0.1639  0.3389 -0.3479
 2186TIP3    H128117   2.626   6.528   7.041  0.2569  0.3484 -0.8624
 2186TIP3    H228118   2.569   6.391   7.007 -2.0795  0.3928  2.3664
 2187TIP3   OH228119   2.637   0.031   0.948  0.0786 -0.3043  0.3054
 2187TIP3    H128120   2.584  -0.045   0.971  0.1981 -0.7426 -0.7940
 2187TIP3    H228121   2.634   0.087   1.025  0.3116 -1.5988  1.2914
 2188TIP3   OH228122   2.268   1.677   1.609 -0.3374  0.3888 -0.1199
 2188TIP3    H128123   2.255   1.763   1.650  3.2972  1.1426 -0.2595
 2188TIP3    H228124   2.301   1.696   1.522  0.9857 -1.1094  0.0069
 2189TIP3   OH228125   0.169   2.119   1.503  0.2868  0.2125 -0.3118
 2189TIP3    H128126   0.080   2.123   1.538  0.0677 -2.2572 -0.4121
 2189TIP3    H228127   0.225   2.106   1.580  0.1283 -1.9373 -0.4917
 2190TIP3   OH228128   3.005   2.111   0.561  0.6600  0.1841  0.2845
 2190TIP3    H128129   3.043   2.024   0.572  0.2084 -0.0438  0.0651
 2190TIP3    H228130   3.004   2.148   0.649  1.1293  0.0852  0.3346
 2191TIP3   OH228131   6.180   6.292   7.296 -0.0782 -0.0518  0.1944
 2191TIP3    H128132   6.249   6.268   7.358 -1.2758 -1.8456  0.9083
 2191TIP3    H228133   6.099   6.267   7.339 -1.0136 -0.5750 -1.7545
 2192TIP3   OH228134   2.414   6.106   6.433  0.1890 -0.1320  0.1284
 2192TIP3    H128135   2.506   6.112   6.457 -0.3348 -0.2024  2.3528
 2192TIP3    H228136   2.389   6.016   6.455 -0.8926  0.4857  1.5642
 2193TIP3   OH228137   5.783   4.301   1.286  0.3978  0.3503 -0.1566
 2193TIP3    H128138   5.720   4.268   1.222  0.2706  0.6667 -0.1983
 2193TIP3    H228139   5.747   4.385   1.314 -0.2444 -0.4094  1.3510
 2194TIP3   OH228140   3.766   1.718   0.138  0.4617  0.8341 -0.2087
 2194TIP3    H128141   3.729   1.671   0.064 -0.3347  2.3604 -0.8134
 2194TIP3    H228142   3.693   1.769   0.173  1.0849  0.9540  0.9888
 2195TIP3   OH228143   5.181   1.817   8.806  0.6310 -0.4299 -0.1750
 2195TIP3    H128144   5.201   1.890   8.864 -0.4600 -1.7660  2.0062
 2195TIP3    H228145   5.264   1.796   8.764  0.7987  2.6338 -1.6667
 2196TIP3   OH228146   1.988   5.499   0.432  0.4161  0.1301 -0.2145
 2196TIP3    H128147   2.040   5.532   0.506 -0.0679  0.8782 -0.1933
 2196TIP3    H228148   2.048   5.501   0.358  0.5703  0.4794 -0.0812
 2197TIP3   OH228149   0.161   3.026   2.355  0.4858  0.1821 -0.4551
 2197TIP3    H128150   0.111   2.949   2.384 -1.3701  1.0591 -1.1144
 2197TIP3    H228151   0.225   3.041   2.424 -0.9034 -0.3619  1.0112
 2198TIP3   OH228152   1.813   2.681   2.040 -0.0266 -0.4612  0.2130
 2198TIP3    H128153   1.862   2.710   2.117 -0.7436 -0.8671  0.8494
 2198TIP3    H228154   1.803   2.586   2.053  0.4935 -0.6594 -0.7696
 2199TIP3   OH228155   3.703   0.076   1.554 -0.6073 -0.5765  0.2481
 2199TIP3    H128156   3.694   0.045   1.644 -1.7449 -1.7054 -0.2166
 2199TIP3    H228157   3.613   0.082   1.522 -0.2162 -0.2859 -0.8470
 2200TIP3   OH228158   3.300   0.386   8.558  0.1187 -0.3978 -0.0535
 2200TIP3    H128159   3.387   0.351   8.540 -0.3963 -0.7168 -2.2635
 2200TIP3    H228160   3.302   0.474   8.520 -0.7448 -0.7164 -0.8729
 2201TIP3   OH228161   2.854   3.560   1.494 -0.5541 -0.1379 -0.2641
 2201TIP3    H128162   2.801   3.488   1.529 -1.1292  0.4772  0.1661
 2201TIP3    H228163   2.854   3.546   1.399 -1.7035 -0.0228 -0.2958
 2202TIP3   OH228164   3.484   4.968   8.423 -0.8702 -0.4442  0.3013
 2202TIP3    H128165   3.417   4.948   8.357 -0.3849 -0.4187 -0.2105
 2202TIP3    H228166   3.511   5.057   8.404 -1.7824  0.1170  1.4905
 2203TIP3   OH228167   5.935   4.584   8.805  0.3796 -0.1556 -0.1110
 2203TIP3    H128168   5.874   4.637   8.857  0.3982 -0.3958  0.1550
 2203TIP3    H228169   5.894   4.579   8.718  0.4751  0.4637 -0.2004
 2204TIP3   OH228170   3.958   6.324   1.215  0.0081 -0.7060 -0.5977
 2204TIP3    H128171   3.879   6.333   1.161 -0.2292 -0.1900 -0.1843
 2204TIP3    H228172   3.928   6.342   1.304  1.0652  2.4723 -0.7228
 2205TIP3   OH228173   4.526   6.384   1.593 -0.1962  0.2012 -0.2676
 2205TIP3    H128174   4.503   6.476   1.609 -2.7661 -0.4476  0.1688
 2205TIP3    H228175   4.589   6.388   1.521  1.2308  2.3804  0.9693
 2206TIP3   OH228176   6.629   5.231   6.982 -0.2066  0.2900 -0.1068
 2206TIP3    H128177   6.657   5.296   7.047 -1.7070  1.6009 -0.7081
 2206TIP3    H228178   6.538   5.213   7.005  0.4714 -2.5311  0.7343
 2207TIP3   OH228179   0.438   2.445   0.892 -0.2316  0.2270 -0.2854
 2207TIP3    H128180   0.360   2.494   0.919  0.9824  1.1703  1.6779
 2207TIP3    H228181   0.476   2.498   0.821  0.0636  1.1974  0.5769
 2208TIP3   OH228182   2.566   4.485   7.740 -0.9886  0.2303  0.4405
 2208TIP3    H128183   2.475   4.456   7.731 -1.1746  0.3045  1.9324
 2208TIP3    H228184   2.562   4.561   7.797 -0.0951  0.9499 -0.4139
 2209TIP3   OH228185   6.640   2.174   7.451  0.3653 -0.1382 -0.6436
 2209TIP3    H128186   6.597   2.250   7.412  1.5702  1.1419  0.3872
 2209TIP3    H228187   6.577   2.142   7.516 -0.1916 -0.0718 -1.1474
 2210TIP3   OH228188   1.244   3.864   6.949 -0.1144 -0.1934  0.2095
 2210TIP3    H128189   1.207   3.885   6.864 -1.1232  2.9702  1.3029
 2210TIP3    H228190   1.172   3.823   6.997  0.1616 -1.0694 -0.1040
 2211TIP3   OH228191   4.163   2.205   2.849 -0.6144  0.6134  0.4105
 2211TIP3    H128192   4.069   2.215   2.838 -0.5326 -0.2483 -1.3759
 2211TIP3    H228193   4.198   2.207   2.760  0.9123 -0.4228  0.9557
 2212TIP3   OH228194   0.759   2.807   0.591 -0.1583  0.1960 -0.4577
 2212TIP3    H128195   0.819   2.871   0.553  3.9801 -0.9067  3.3746
 2212TIP3    H228196   0.741   2.841   0.679 -0.3160 -2.4035  0.5912
 2213TIP3   OH228197   0.915   6.558   6.704  0.5165 -0.3286  0.0969
 2213TIP3    H128198   0.919   6.462   6.700 -3.3978 -0.6340 -2.0098
 2213TIP3    H228199   0.954   6.587   6.622  1.5569 -0.0779  0.6646
 2214TIP3   OH228200   2.377   6.767   1.317  0.2174 -0.1179  0.4032
 2214TIP3    H128201   2.332   6.721   1.246  0.2692 -0.6113  0.6873
 2214TIP3    H228202   2.465   6.732   1.317  0.1082 -0.4131  0.9647
 2215TIP3   OH228203   3.048   5.902   7.596 -0.6825 -0.3233 -0.2605
 2215TIP3    H128204   3.133   5.866   7.620 -1.2179 -2.0264 -0.7723
 2215TIP3    H228205   3.067   5.964   7.526  0.0778 -1.2383 -0.8892
 2216TIP3   OH228206   6.301   5.407   0.846  0.1318 -0.1918  0.3567
 2216TIP3    H128207   6.257   5.364   0.918  0.9199 -1.1631  0.2722
 2216TIP3    H228208   6.244   5.481   0.824 -1.5698 -1.5037  0.1123
 2217TIP3   OH228209   2.906   3.634   8.305 -0.3093 -0.4422 -0.0204
 2217TIP3    H128210   2.952   3.611   8.225  0.7103 -1.1745  0.7424
 2217TIP3    H228211   2.964   3.695   8.350 -0.0288 -1.3877  0.9561
 2218TIP3   OH228212   2.281   3.397   1.135  0.2550 -0.4534 -0.2916
 2218TIP3    H128213   2.317   3.475   1.176  0.0941 -0.2140 -0.5968
 2218TIP3    H228214   2.219   3.431   1.070  1.5116 -0.7655 -1.7159
 2219TIP3   OH228215   0.097   2.723   8.583 -0.1275 -0.4332 -0.5725
 2219TIP3    H128216   0.053   2.808   8.588  0.9136  0.5370 -4.4393
 2219TIP3    H228217   0.187   2.742   8.610 -0.4029 -0.8919  0.7530
 2220TIP3   OH228218   2.377   6.280   0.561 -0.0437 -0.5302  0.1396
 2220TIP3    H128219   2.460   6.258   0.519 -1.0204 -0.0488 -2.2087
 2220TIP3    H228220   2.395   6.273   0.655  2.1859 -2.0217 -0.3141
 2221TIP3   OH228221   2.867   0.181   7.726  0.2846  0.4869  0.0769
 2221TIP3    H128222   2.937   0.188   7.791 -1.4218  2.5693  1.8620
 2221TIP3    H228223   2.897   0.234   7.653  1.5850 -0.6396 -0.2337
 2222TIP3   OH228224   2.470   0.477   7.429 -0.2432 -0.6474  0.5955
 2222TIP3    H128225   2.379   0.505   7.417  0.3268  0.3668 -2.0727
 2222TIP3    H228226   2.463   0.386   7.457 -2.1117 -1.0032 -0.8253
 2223TIP3   OH228227   2.406   4.328   0.371 -0.0918 -0.5676 -0.6356
 2223TIP3    H128228   2.312   4.340   0.380 -0.4103  0.3078 -3.9100
 2223TIP3    H228229   2.444   4.408   0.408 -0.7141 -0.3570 -0.4330
 2224TIP3   OH228230   3.904   0.639   7.785 -0.1028  0.3074 -0.2531
 2224TIP3    H128231   3.921   0.733   7.787 -0.7357  0.4491 -0.9683
 2224TIP3    H228232   3.845   0.623   7.858  1.5176  0.1301  1.0584
 2225TIP3   OH228233   1.484   2.387   8.099 -0.0234 -0.1307 -0.1582
 2225TIP3    H128234   1.416   2.453   8.109  0.6638  0.9749 -2.2092
 2225TIP3    H228235   1.564   2.430   8.131  0.2225 -0.3465 -0.4701
 2226TIP3   OH228236   4.741   6.693   0.113 -0.2150  0.0699 -0.8218
 2226TIP3    H128237   4.779   6.756   0.174 -1.4915  0.6445 -0.5800
 2226TIP3    H228238   4.710   6.621   0.168  1.7707 -1.0941 -1.1524
 2227TIP3   OH228239   6.746   2.542   2.304  0.4684 -0.1836  0.4340
 2227TIP3    H128240   6.674   2.604   2.293 -0.5523 -1.4455 -0.2720
 2227TIP3    H228241   6.824   2.597   2.310 -0.3663  1.1615 -0.4298
 2228TIP3   OH228242   4.174   0.864   6.512  0.2661  0.0487  0.3301
 2228TIP3    H128243   4.246   0.854   6.450 -0.0765  0.0129 -0.0677
 2228TIP3    H228244   4.106   0.910   6.463  0.1682  0.4375  0.8248
 2229TIP3   OH228245   3.490   4.697   0.990 -0.3948 -0.1822  0.1332
 2229TIP3    H128246   3.417   4.655   1.036  0.2507 -0.2665  1.1027
 2229TIP3    H228247   3.451   4.772   0.945 -0.9933  0.0372  1.0104
 2230TIP3   OH228248   2.011   4.700   1.079 -0.8353 -0.5401 -0.0067
 2230TIP3    H128249   1.973   4.771   1.131  0.1710  0.6740 -0.8684
 2230TIP3    H228250   1.940   4.637   1.070 -2.1186  0.8499 -0.0983
 2231TIP3   OH228251   4.200   2.842   7.479  0.2201 -0.3799 -0.4395
 2231TIP3    H128252   4.247   2.866   7.558  0.7301  0.6293 -1.0327
 2231TIP3    H228253   4.165   2.755   7.497 -0.0855  0.0393  1.0707
 2232TIP3   OH228254   3.714   5.858   0.519 -0.3205 -0.5614  0.1340
 2232TIP3    H128255   3.699   5.941   0.475  2.3271  0.2827  0.6165
 2232TIP3    H228256   3.662   5.863   0.599  1.5820  1.7936  1.3698
 2233TIP3   OH228257   1.071   3.905   1.419 -0.3292  0.3017  0.4202
 2233TIP3    H128258   1.113   3.883   1.336 -1.0222  0.0673  0.1230
 2233TIP3    H228259   1.001   3.966   1.396 -2.4015 -1.9435  0.4017
 2234TIP3   OH228260   2.719   1.847   7.086  0.3137  0.4423  0.0874
 2234TIP3    H128261   2.728   1.890   7.171 -0.1079 -0.7490  0.7451
 2234TIP3    H228262   2.797   1.793   7.079  0.9538  1.4395 -0.8409
 2235TIP3   OH228263   0.072   4.727   8.825 -0.5991  0.3705  0.3857
 2235TIP3    H128264  -0.007   4.774   8.799  0.5930  2.2189 -0.1034
 2235TIP3    H228265   0.140   4.794   8.826  0.9054 -1.1066  1.0989
 2236TIP3   OH228266   5.417   6.436   6.944  0.1889 -0.2261 -0.0872
 2236TIP3    H128267   5.337   6.425   6.995 -0.8218  0.1318 -1.5330
 2236TIP3    H228268   5.464   6.353   6.954  1.8697  1.0115  4.3455
 2237TIP3   OH228269   4.398   3.712   1.547  0.4055  0.2696 -0.1903
 2237TIP3    H128270   4.448   3.655   1.606  1.3405  0.7579 -0.4946
 2237TIP3    H228271   4.396   3.797   1.592 -1.1359 -0.0245  0.3453
 2238TIP3   OH228272   2.921   4.872   8.638 -1.0565 -0.4697 -0.3040
 2238TIP3    H128273   2.927   4.917   8.554 -1.6062 -2.0052 -1.2246
 2238TIP3    H228274   2.893   4.783   8.615  1.0181 -1.6392  1.2723
 2239TIP3   OH228275   2.812   6.625   0.517  0.0153  0.8668  0.1784
 2239TIP3    H128276   2.810   6.687   0.445 -2.7832  3.4360  2.2519
 2239TIP3    H228277   2.858   6.671   0.587 -0.4718 -0.1379  1.1892
 2240TIP3   OH228278   3.403   0.540   6.234 -0.6113 -0.1659 -0.1602
 2240TIP3    H128279   3.441   0.458   6.202 -1.3653 -0.9660  0.9472
 2240TIP3    H228280   3.428   0.605   6.168  1.6299 -0.8916 -0.1058
 2241TIP3   OH228281   1.656   1.309   8.046  0.3677 -0.6705  0.0590
 2241TIP3    H128282   1.692   1.335   8.131 -1.6773 -0.8810  1.0557
 2241TIP3    H228283   1.639   1.392   8.000  1.3078 -0.5510 -0.0909
 2242TIP3   OH228284   0.502   2.199   7.247 -0.1793 -0.0794 -0.1722
 2242TIP3    H128285   0.529   2.197   7.156 -0.9718  1.8114 -0.4954
 2242TIP3    H228286   0.572   2.245   7.293 -0.5091  0.3744 -0.1166
 2243TIP3   OH228287   1.173   3.374   2.094 -0.5504  0.3977 -0.1109
 2243TIP3    H128288   1.098   3.404   2.044 -0.5452 -1.5023 -1.3854
 2243TIP3    H228289   1.248   3.390   2.037  0.0084  1.9859  1.0190
 2244TIP3   OH228290   4.389   4.099   8.842  0.1763 -0.0043 -0.2696
 2244TIP3    H128291   4.364   4.007   8.851 -0.1681  0.1905  0.9893
 2244TIP3    H228292   4.471   4.106   8.890 -0.0633  0.4459  0.0795
 2245TIP3   OH228293   5.343   5.684   7.339  0.4391  0.3527 -0.4274
 2245TIP3    H128294   5.284   5.682   7.263 -0.3988  1.0038  0.1926
 2245TIP3    H228295   5.357   5.777   7.357  0.5513  0.2036  0.2789
 2246TIP3   OH228296   5.971   5.329   8.852  0.4844  0.0842 -0.4568
 2246TIP3    H128297   5.967   5.423   8.870  0.2689 -0.5126  3.3789
 2246TIP3    H228298   6.013   5.292   8.929  0.5251 -3.0362 -1.8420
 2247TIP3   OH228299   5.767   2.535   8.401  0.0801 -0.6540  0.0177
 2247TIP3    H128300   5.785   2.623   8.433 -3.9220  0.4382 -0.2122
 2247TIP3    H228301   5.728   2.490   8.476 -2.0904 -0.6619 -1.0559
 2248TIP3   OH228302   0.194   5.929   0.570  0.3533  0.2064  0.2161
 2248TIP3    H128303   0.104   5.899   0.568  1.0966 -2.1785 -0.4969
 2248TIP3    H228304   0.236   5.887   0.495  2.3296  0.3192  1.1706
 2249TIP3   OH228305   2.556   5.981   1.834 -0.3448  0.1242  0.0053
 2249TIP3    H128306   2.530   5.933   1.912 -0.4763 -0.7336 -0.5568
 2249TIP3    H228307   2.536   6.072   1.855 -0.0916 -0.0454  1.0826
 2250TIP3   OH228308   0.986   1.936   7.139  0.5372  0.3011  0.0585
 2250TIP3    H128309   0.932   1.862   7.113  1.6951 -0.4962 -0.1823
 2250TIP3    H228310   0.936   1.980   7.208 -0.3603 -0.4498 -0.1017
 2251TIP3   OH228311   3.044   0.775   1.600 -0.2692 -0.2641 -0.0632
 2251TIP3    H128312   3.069   0.683   1.601 -0.5253 -0.3333  0.3416
 2251TIP3    H228313   3.045   0.799   1.507  5.1389  0.8514  0.0042
 2252TIP3   OH228314   1.377   1.584   7.410 -0.8572  0.0957  0.1311
 2252TIP3    H128315   1.286   1.598   7.383 -0.7563  1.0266  0.2505
 2252TIP3    H228316   1.392   1.491   7.395 -2.6970 -0.7409  2.6978
 2253TIP3   OH228317   4.638   6.720   8.735 -0.2871 -0.0362  0.5529
 2253TIP3    H128318   4.686   6.689   8.812  0.4195 -0.1617  0.0684
 2253TIP3    H228319   4.696   6.700   8.661 -0.8315  0.3520  0.0156
 2254TIP3   OH228320   2.686   4.808   6.851 -0.4169 -0.0793 -0.1625
 2254TIP3    H128321   2.627   4.734   6.844  1.1291 -1.2947 -0.9427
 2254TIP3    H228322   2.712   4.827   6.761 -0.0443  0.7921  0.1113
 2255TIP3   OH228323   1.023   2.167   1.291 -0.1131  0.2531 -0.0450
 2255TIP3    H128324   0.941   2.204   1.325  0.1973  0.7934  0.1319
 2255TIP3    H228325   1.031   2.205   1.203 -0.2990 -0.1861 -0.2532
 2256TIP3   OH228326   3.086   0.713   0.498  0.1307 -0.3612 -0.1416
 2256TIP3    H128327   3.075   0.619   0.510 -0.9311 -0.1780  0.4577
 2256TIP3    H228328   2.998   0.745   0.481  0.7800  0.2283 -2.7467
 2257TIP3   OH228329   2.167   1.255   0.535 -0.3244 -0.2942  0.7229
 2257TIP3    H128330   2.134   1.192   0.599 -0.2222 -2.9626 -1.6302
 2257TIP3    H228331   2.100   1.256   0.467 -0.0729  1.8443  0.4568
 2258TIP3   OH228332   6.074   4.147   0.934  0.6480  0.1117 -0.3215
 2258TIP3    H128333   6.011   4.076   0.928  0.1308  0.4274  1.0284
 2258TIP3    H228334   6.060   4.185   1.021  2.9088 -0.0030  0.1750
 2259TIP3   OH228335   3.973   5.618   0.935 -0.2452  0.1944 -0.3972
 2259TIP3    H128336   3.914   5.643   0.865 -2.9517  0.7287  1.8875
 2259TIP3    H228337   3.979   5.522   0.929  0.2807  0.2970 -1.8165
 2260TIP3   OH228338   0.384   1.771   7.876 -0.2457  0.5406 -0.2139
 2260TIP3    H128339   0.418   1.743   7.960  1.1713 -0.9934 -1.2520
 2260TIP3    H228340   0.355   1.691   7.833 -2.1564  1.4276 -0.7314
 2261TIP3   OH228341   1.101   2.178   8.769 -0.2117 -0.4721 -0.1844
 2261TIP3    H128342   1.077   2.235   8.841 -0.5094  0.0809 -0.7118
 2261TIP3    H228343   1.187   2.144   8.792 -0.8646 -1.3698  1.0726
 2262TIP3   OH228344   0.067   3.629   1.252  0.0303  0.1508  0.2768
 2262TIP3    H128345   0.138   3.627   1.316 -1.0750 -0.5501  1.5226
 2262TIP3    H228346   0.106   3.595   1.172  1.6677  1.8458  0.2950
 2263TIP3   OH228347   4.666   2.180   1.466  0.5230  0.1626 -0.2947
 2263TIP3    H128348   4.743   2.202   1.519  0.8389 -1.6027  0.0361
 2263TIP3    H228349   4.682   2.223   1.382  0.9677  1.3400  0.3683
 2264TIP3   OH228350   1.849   4.693   8.279  0.2616 -0.5548 -0.4198
 2264TIP3    H128351   1.914   4.704   8.348  0.3869 -1.6722 -0.3407
 2264TIP3    H228352   1.764   4.694   8.324  0.3878 -2.3195 -0.0854
 2265TIP3   OH228353   2.025   2.660   8.637 -0.4059  0.1105  0.2459
 2265TIP3    H128354   2.072   2.632   8.559  0.1616 -1.1684  1.0340
 2265TIP3    H228355   1.972   2.585   8.662  0.7217 -0.1404  2.0737
 2266TIP3   OH228356   6.043   5.542   0.768 -0.0413 -0.0999 -0.3654
 2266TIP3    H128357   5.947   5.538   0.759 -0.2660 -0.6054  1.7193
 2266TIP3    H228358   6.058   5.626   0.812  0.5169  0.1225 -0.9748
 2267TIP3   OH228359   4.233   4.014   8.485 -0.0792 -0.3470 -0.0375
 2267TIP3    H128360   4.178   4.020   8.564  0.0033 -1.0473  0.0785
 2267TIP3    H228361   4.213   3.928   8.449  0.0123 -0.0943 -0.6955
 2268TIP3   OH228362   4.916   2.395   8.230  0.3523  0.0609  0.1477
 2268TIP3    H128363   4.896   2.356   8.315  1.6624  0.4987  0.6823
 2268TIP3    H228364   5.010   2.384   8.220  1.0669  3.9859  0.8526
 2269TIP3   OH228365   1.342   2.571   0.565 -0.1137  0.4239 -0.1369
 2269TIP3    H128366   1.363   2.502   0.502  1.9767 -0.1749  1.1167
 2269TIP3    H228367   1.302   2.526   0.639  1.8624  0.3594  0.9713
 2270TIP3   OH228368   1.728   6.562   8.515 -0.1526  0.3896  0.0217
 2270TIP3    H128369   1.787   6.609   8.573  0.3505  1.1727 -1.0948
 2270TIP3    H228370   1.780   6.543   8.437 -0.8805 -0.4205 -0.2943
 2271TIP3   OH228371   1.993   2.123   0.003  0.3861 -0.0278 -0.1047
 2271TIP3    H128372   2.029   2.210  -0.012 -1.2809  0.3002 -3.2287
 2271TIP3    H228373   2.056   2.063  -0.037  0.7790 -0.1152  0.6407
 2272TIP3   OH228374   2.798   5.351   1.200 -0.0361 -0.3912 -0.3584
 2272TIP3    H128375   2.883   5.384   1.171 -0.2580  1.1839  0.6146
 2272TIP3    H228376   2.740   5.366   1.126  0.1483  0.3197 -0.3694
 2273TIP3   OH228377   1.959   4.046   1.710 -0.1168  0.5500  0.7904
 2273TIP3    H128378   1.944   4.103   1.634  0.2625  2.1765  1.8961
 2273TIP3    H228379   1.876   4.048   1.758  0.0467  0.5444  1.0746
 2274TIP3   OH228380   2.297   5.878   6.486  0.4155 -0.2621 -0.0768
 2274TIP3    H128381   2.206   5.882   6.456  0.5913 -0.9133 -0.7275
 2274TIP3    H228382   2.293   5.903   6.578 -0.2046  1.3086 -0.5065
 2275TIP3   OH228383   4.107   2.143   7.974 -0.4109  0.1926 -0.0388
 2275TIP3    H128384   4.117   2.055   8.011  0.2242  0.2842  0.0257
 2275TIP3    H228385   4.102   2.200   8.050 -1.2971  0.1714 -0.0751
 2276TIP3   OH228386   3.483   1.830   0.981  0.3168  0.1834 -0.0659
 2276TIP3    H128387   3.465   1.840   0.887  1.1223 -0.3171 -0.2827
 2276TIP3    H228388   3.567   1.784   0.985 -1.1943 -2.7862  0.8388
 2277TIP3   OH228389   1.627   0.685   7.241 -0.2021 -0.4126 -0.1866
 2277TIP3    H128390   1.622   0.735   7.160 -0.9534 -0.3239 -0.0992
 2277TIP3    H228391   1.612   0.750   7.310 -0.6595 -0.6650 -0.0414
 2278TIP3   OH228392   3.424   0.436   7.122  0.0423  0.4103  0.4856
 2278TIP3    H128393   3.432   0.466   7.213  0.8704  1.4029  0.0961
 2278TIP3    H228394   3.490   0.367   7.114 -0.5092 -0.1697  0.8210
 2279TIP3   OH228395   1.360   3.131   8.064  0.1443 -0.1810 -0.4573
 2279TIP3    H128396   1.300   3.206   8.061 -0.4780 -0.6586 -0.2090
 2279TIP3    H228397   1.368   3.103   7.973 -0.6296 -0.5911 -0.4078
 2280TIP3   OH228398   1.991   1.776   1.341  0.0882 -0.3596 -0.5668
 2280TIP3    H128399   2.002   1.820   1.426 -0.8942 -1.0130 -0.0832
 2280TIP3    H228400   1.943   1.696   1.361 -1.0392 -0.0510 -1.8649
 2281TIP3   OH228401   3.040   0.187   8.413  1.2673  0.3192  0.1853
 2281TIP3    H128402   3.089   0.269   8.407  0.1304  0.9566 -1.1217
 2281TIP3    H228403   3.079   0.131   8.346  0.9239  0.4437 -0.1255
 2282TIP3   OH228404   4.132   5.304   1.362  0.4120 -0.0965 -0.1002
 2282TIP3    H128405   4.067   5.280   1.296 -0.4050 -1.6475  1.2135
 2282TIP3    H228406   4.216   5.288   1.319 -0.0265  1.2267 -1.5647
 2283TIP3   OH228407   5.983   2.445   7.281 -0.3643 -0.2966 -0.3414
 2283TIP3    H128408   6.017   2.363   7.317 -0.9797 -0.2842  0.2934
 2283TIP3    H228409   6.056   2.482   7.232  0.5642 -0.2098  1.0696
 2284TIP3   OH228410   3.873   1.177   0.151  0.0140 -0.5746  0.5082
 2284TIP3    H128411   3.815   1.124   0.096 -1.0524  0.6823  0.3725
 2284TIP3    H228412   3.886   1.125   0.231  2.2439 -2.7977 -1.1606
 2285TIP3   OH228413   1.041   5.202   8.346 -0.2928 -0.2515 -0.5187
 2285TIP3    H128414   1.071   5.118   8.311  0.8486  0.5595 -1.5607
 2285TIP3    H228415   1.110   5.264   8.324 -0.6317  0.7897  1.1316
 2286TIP3   OH228416   1.194   1.373   0.674 -0.0060 -0.0103 -0.4285
 2286TIP3    H128417   1.131   1.317   0.630  1.1127 -1.4478 -0.2939
 2286TIP3    H228418   1.266   1.314   0.698  0.8505  1.3325  0.4732
 2287TIP3   OH228419   6.173   1.851   7.315  0.1815  0.6120 -0.5719
 2287TIP3    H128420   6.265   1.832   7.297  0.5501  0.9629  0.7918
 2287TIP3    H228421   6.165   1.845   7.410 -1.9950 -2.8944 -0.8044
 2288TIP3   OH228422   6.114   6.030   0.613 -1.1048  0.1462  0.0305
 2288TIP3    H128423   6.099   5.948   0.662  4.1119 -1.4165 -0.3171
 2288TIP3    H228424   6.145   6.001   0.527 -0.2191  2.5427 -0.5284
 2289TIP3   OH228425   3.445   4.689   0.533 -0.1509  0.2022 -0.5836
 2289TIP3    H128426   3.390   4.718   0.605  2.7635  0.4571  1.7100
 2289TIP3    H228427   3.449   4.764   0.473 -0.7098  0.8721  0.2093
 2290TIP3   OH228428   2.096   4.081   0.264 -0.4263  0.0224 -0.1160
 2290TIP3    H128429   2.150   4.059   0.340 -1.0972 -0.2293  0.2882
 2290TIP3    H228430   2.045   4.002   0.246 -0.8351  0.3368 -0.3497
 2291TIP3   OH228431   0.983   2.075   7.876 -0.3199 -0.5255  0.2293
 2291TIP3    H128432   1.066   2.121   7.862 -0.5931 -0.4561 -1.3476
 2291TIP3    H228433   1.007   1.998   7.928  0.6936 -0.3739  0.0119
 2292TIP3   OH228434   3.585   2.204   8.292  0.1942  0.1267 -0.1797
 2292TIP3    H128435   3.599   2.211   8.386 -0.8023  1.5850 -0.1066
 2292TIP3    H228436   3.570   2.294   8.263  0.6445 -0.2792 -1.7655
 2293TIP3   OH228437   0.483   4.409   8.408  0.6370 -0.1124  0.3827
 2293TIP3    H128438   0.456   4.321   8.433 -1.1322  0.4461  0.5592
 2293TIP3    H228439   0.518   4.448   8.488  0.0897 -0.1828  0.6599
 2294TIP3   OH228440   5.719   2.023   1.136 -0.0203 -0.3353 -0.4495
 2294TIP3    H128441   5.735   1.936   1.100 -0.0010 -0.0197 -1.2126
 2294TIP3    H228442   5.626   2.039   1.120  0.3395  0.4861 -1.8979
 2295TIP3   OH228443   0.535   2.376   2.091  0.2694  0.1333  0.4651
 2295TIP3    H128444   0.555   2.283   2.100 -0.9216 -0.6946 -3.4782
 2295TIP3    H228445   0.603   2.410   2.033 -1.1363  0.8184 -0.8622
 2296TIP3   OH228446   5.252   2.997   0.425  0.1689  0.0415 -0.3359
 2296TIP3    H128447   5.260   3.088   0.455 -1.6876  0.1791 -0.1044
 2296TIP3    H228448   5.198   2.954   0.492 -0.9131 -0.6152 -1.5614
 2297TIP3   OH228449   4.233   0.324   0.527  0.3914  0.1591 -0.4979
 2297TIP3    H128450   4.172   0.377   0.475  0.2481  1.7629  1.1855
 2297TIP3    H228451   4.194   0.322   0.614  2.0501  0.0322  0.2737
 2298TIP3   OH228452   5.821   5.552   0.121  0.0389  0.2682 -0.1012
 2298TIP3    H128453   5.834   5.521   0.211 -0.4405 -0.3775 -0.2468
 2298TIP3    H228454   5.899   5.603   0.102  0.8879 -0.8930  0.1315
 2299TIP3   OH228455   3.790   1.312   0.433 -0.2831 -0.1266  0.5481
 2299TIP3    H128456   3.733   1.245   0.396  1.0239 -0.6995 -0.5117
 2299TIP3    H228457   3.737   1.392   0.432 -1.4599 -0.8723  0.7336
 2300TIP3   OH228458   1.002   3.719   0.530  0.6240 -0.2363  0.6009
 2300TIP3    H128459   0.968   3.652   0.590 -0.5778 -1.1393 -1.0273
 2300TIP3    H228460   1.071   3.763   0.581  1.1203 -2.3662  1.9150
 2301TIP3   OH228461   2.915   2.861   1.740 -0.2355  0.0477  0.1748
 2301TIP3    H128462   2.868   2.796   1.793  0.6060 -0.2375  0.5834
 2301TIP3    H228463   2.931   2.933   1.800 -1.9238  1.0456 -0.4970
 2302TIP3   OH228464   1.295   3.961   1.598  0.1270 -0.1916  0.3158
 2302TIP3    H128465   1.324   3.869   1.599  3.0296  0.3578 -4.1145
 2302TIP3    H228466   1.236   3.966   1.523  3.0156  2.0424 -2.0668
 2303TIP3   OH228467   5.607   1.591   6.607 -0.0385 -0.2228  0.0754
 2303TIP3    H128468   5.650   1.668   6.568 -1.0988 -0.7209 -2.2857
 2303TIP3    H228469   5.652   1.517   6.567  2.5287 -1.0606  4.0228
 2304TIP3   OH228470   1.947   4.742   2.145 -0.3275  0.1173  0.2467
 2304TIP3    H128471   1.918   4.826   2.179 -0.7973 -0.1091  0.4105
 2304TIP3    H228472   1.871   4.685   2.153  0.7266 -1.0728  2.6011
 2305TIP3   OH228473   5.923   1.822   7.156 -0.3703 -0.0748 -0.1172
 2305TIP3    H128474   6.005   1.848   7.196  0.6884 -0.0524 -2.1629
 2305TIP3    H228475   5.911   1.731   7.182 -0.5864  0.4064  1.5437
 2306TIP3   OH228476   5.954   2.954   1.095  0.2240 -0.2627 -0.1105
 2306TIP3    H128477   5.976   3.023   1.157 -0.2462 -1.5165  1.5375
 2306TIP3    H228478   6.036   2.908   1.080  0.2490 -0.2459 -0.0266
 2307TIP3   OH228479   3.234   1.411   6.987 -0.0143 -0.3453 -0.2611
 2307TIP3    H128480   3.214   1.385   7.076 -0.1243  0.2121 -0.1222
 2307TIP3    H228481   3.185   1.349   6.932 -2.0528  0.8907  0.0558
 2308TIP3   OH228482   4.467   6.758   0.537 -0.4358 -0.0312 -0.0462
 2308TIP3    H128483   4.536   6.823   0.529 -1.1087  0.4518 -2.9285
 2308TIP3    H228484   4.510   6.674   0.517 -0.7088  0.3383 -2.4274
 2309TIP3   OH228485   2.529   5.350   8.333  0.4061 -0.6655 -0.3130
 2309TIP3    H128486   2.619   5.379   8.351  0.6119 -0.6141 -1.3388
 2309TIP3    H228487   2.474   5.421   8.364  0.6475 -1.0908  1.1890
 2310TIP3   OH228488   4.866   6.165   0.313  0.5811  0.6272 -0.1103
 2310TIP3    H128489   4.905   6.092   0.266  1.5670  0.4810  0.8878
 2310TIP3    H228490   4.924   6.239   0.295  0.1601  0.9187 -0.2822
 2311TIP3   OH228491   1.409   4.021   8.300 -0.1963  0.3055  0.2296
 2311TIP3    H128492   1.471   4.035   8.371  0.1798 -1.1122  0.2123
 2311TIP3    H228493   1.424   4.093   8.240  1.3365  0.0730  0.3024
 2312TIP3   OH228494   4.526   5.839   0.097  0.2780  0.5445  0.2492
 2312TIP3    H128495   4.549   5.928   0.123  1.1098  0.4283 -0.0704
 2312TIP3    H228496   4.604   5.787   0.115 -0.7738 -0.4866  2.1032
 2313TIP3   OH228497   4.678   0.518   8.382 -0.0478 -0.0146  0.6035
 2313TIP3    H128498   4.769   0.540   8.361 -0.2858  0.6313  0.2003
 2313TIP3    H228499   4.652   0.456   8.314 -1.0001  2.5187 -1.5429
 2314TIP3   OH228500   0.257   6.710   1.844 -0.0888  0.0900 -0.1166
 2314TIP3    H128501   0.331   6.677   1.896 -0.9063  1.0542  1.7644
 2314TIP3    H228502   0.295   6.780   1.791  0.6155 -0.3808 -0.2458
 2315TIP3   OH228503   5.555   0.360   0.917 -0.2820 -0.8401  0.1441
 2315TIP3    H128504   5.505   0.282   0.941 -1.0514  0.0798  1.7506
 2315TIP3    H228505   5.614   0.374   0.991 -0.3931  0.2571  0.0409
 2316TIP3   OH228506   3.602   2.604   1.014  0.2551 -0.7023 -0.0219
 2316TIP3    H128507   3.679   2.661   1.010  0.0064 -0.3472  0.1239
 2316TIP3    H228508   3.635   2.517   0.992  0.9505 -0.8058  1.2968
 2317TIP3   OH228509   0.318   6.293   0.291 -0.1161 -0.1804 -0.0294
 2317TIP3    H128510   0.375   6.370   0.292  0.4524 -0.5946  0.5219
 2317TIP3    H228511   0.311   6.267   0.384 -2.2803  0.6414  0.1038
 2318TIP3   OH228512   4.318   3.663   6.684  0.3569  0.7070  0.3941
 2318TIP3    H128513   4.341   3.754   6.705  2.3629  1.0104 -2.5192
 2318TIP3    H228514   4.376   3.611   6.739  0.6645  1.2329  0.5792
 2319TIP3   OH228515   3.641   4.594   1.191  0.3693 -0.5502  0.2306
 2319TIP3    H128516   3.722   4.643   1.208 -0.5217  0.2231  2.5708
 2319TIP3    H228517   3.598   4.643   1.121  0.8103  0.4494  0.6316
 2320TIP3   OH228518   4.169   3.269   7.507 -0.0853  0.3498 -0.0100
 2320TIP3    H128519   4.220   3.204   7.460 -3.0332 -1.9370 -0.3098
 2320TIP3    H228520   4.193   3.257   7.599 -0.3014 -0.9928 -0.1032
 2321TIP3   OH228521   2.742   5.213   7.438  0.2739 -0.0207 -0.0090
 2321TIP3    H128522   2.757   5.148   7.506  1.5899  0.6782  0.3962
 2321TIP3    H228523   2.796   5.287   7.463  0.3013  0.4893 -1.4821
 2322TIP3   OH228524   1.697   2.516   8.195 -0.6063  0.0541 -0.6210
 2322TIP3    H128525   1.759   2.576   8.237  0.2397 -0.9799 -0.3375
 2322TIP3    H228526   1.702   2.436   8.248 -2.5622  0.0947 -0.3034
 2323TIP3   OH228527   5.756   1.145   8.286  0.2187  0.3953  0.5464
 2323TIP3    H128528   5.835   1.175   8.240 -0.7606  1.2613 -0.6431
 2323TIP3    H228529   5.697   1.220   8.283 -0.8882 -0.4426  0.8537
 2324TIP3   OH228530   0.578   1.702   8.361 -0.3007 -0.2906 -0.2067
 2324TIP3    H128531   0.673   1.714   8.357 -0.3624 -0.1020 -1.4134
 2324TIP3    H228532   0.565   1.633   8.427  0.8648 -2.3426 -1.9935
 2325TIP3   OH228533   0.610   2.752   0.381  0.3796 -0.3405 -0.2757
 2325TIP3    H128534   0.648   2.788   0.461 -0.7505 -0.1755  0.1909
 2325TIP3    H228535   0.664   2.789   0.311 -1.2859  3.1708  0.0910
 2326TIP3   OH228536   2.867   4.204   8.750  0.7442 -0.8657 -0.3609
 2326TIP3    H128537   2.914   4.183   8.669 -1.1694  0.5928 -1.9632
 2326TIP3    H228538   2.782   4.237   8.720  0.2746  0.5234  2.2234
 2327TIP3   OH228539   6.226   4.105   8.517  0.7810 -0.1535  0.3062
 2327TIP3    H128540   6.305   4.146   8.551  2.3424 -2.4298 -0.4023
 2327TIP3    H228541   6.185   4.063   8.593  0.9152 -0.0251  0.4499
 2328TIP3   OH228542   6.772   1.019   8.462  0.5186 -0.0959 -0.1532
 2328TIP3    H128543   6.858   0.984   8.486  0.4644 -2.4514 -2.8061
 2328TIP3    H228544   6.713   0.943   8.466 -0.6813  0.6949 -1.6536
 2329TIP3   OH228545   0.738   2.026   1.662  0.1680 -0.3996  0.0042
 2329TIP3    H128546   0.817   2.024   1.717  0.2237 -0.0881 -0.0626
 2329TIP3    H228547   0.675   2.078   1.712  0.5683  0.7949 -0.6792
 2330TIP3   OH228548   3.887   3.802   8.083  0.6945  0.3898  0.0144
 2330TIP3    H128549   3.876   3.738   8.013 -0.0590 -0.7755  1.1642
 2330TIP3    H228550   3.980   3.826   8.079  0.8047 -0.1533 -0.9546
 2331TIP3   OH228551   0.342   4.879   1.044 -0.2483  0.7934 -0.3957
 2331TIP3    H128552   0.432   4.864   1.074  0.0419  0.4393 -1.4305
 2331TIP3    H228553   0.299   4.920   1.120  0.6834  0.6565  0.2291
 2332TIP3   OH228554   3.516   1.745   7.414  0.3507 -0.0311 -0.8865
 2332TIP3    H128555   3.516   1.733   7.319  1.5782 -0.3470 -0.8734
 2332TIP3    H228556   3.555   1.832   7.426  1.5705 -0.5912 -0.6446
 2333TIP3   OH228557   2.591   6.123   1.323 -0.2166 -0.5576  0.1061
 2333TIP3    H128558   2.680   6.145   1.350  0.3611 -2.1492 -0.3566
 2333TIP3    H228559   2.545   6.101   1.404 -0.9823  2.6279  0.6567
 2334TIP3   OH228560   2.266   5.675   7.971  0.1046 -0.1764 -0.3245
 2334TIP3    H128561   2.310   5.595   8.001 -0.5142 -0.2833  0.3474
 2334TIP3    H228562   2.192   5.685   8.032 -1.7256 -0.8726 -2.3016
 2335TIP3   OH228563   4.788   3.038   0.026  0.2114  0.0563  0.5414
 2335TIP3    H128564   4.723   2.991   0.078  0.5216 -0.1027  0.7929
 2335TIP3    H228565   4.868   3.034   0.078  0.3659  0.4509  0.3448
 2336TIP3   OH228566   3.102   5.480   7.383 -0.2085  0.0980  0.2609
 2336TIP3    H128567   3.049   5.518   7.453 -0.9347  2.3513 -1.3869
 2336TIP3    H228568   3.053   5.403   7.355 -1.3361  0.7229  0.4421
 2337TIP3   OH228569   5.032   6.515   8.341 -0.5686  0.6260 -1.2424
 2337TIP3    H128570   4.974   6.562   8.400 -0.4159  0.1101 -0.6794
 2337TIP3    H228571   5.120   6.545   8.364 -0.4410 -0.1743 -0.6491
 2338TIP3   OH228572   1.045   0.165   8.067  0.7837  0.3692 -0.0249
 2338TIP3    H128573   0.995   0.159   8.148  0.0469 -2.2675 -0.5713
 2338TIP3    H228574   0.980   0.183   8.000  0.7360 -1.4394 -0.5164
 2339TIP3   OH228575   1.565   3.326   7.797 -0.9065 -0.6123  0.1447
 2339TIP3    H128576   1.480   3.292   7.770 -0.8091 -0.5513 -0.2518
 2339TIP3    H228577   1.593   3.268   7.868 -0.6532 -1.5014 -0.6538
 2340TIP3   OH228578   6.715   2.536   8.466  0.0735  0.5716  0.3871
 2340TIP3    H128579   6.639   2.586   8.495 -1.3517 -1.1757 -0.2012
 2340TIP3    H228580   6.789   2.576   8.512 -1.4924  0.7645  2.8797
 2341TIP3   OH228581   5.778   4.721   0.138  0.5813  0.8736  0.7953
 2341TIP3    H128582   5.701   4.699   0.191 -0.0368  3.4588  1.0980
 2341TIP3    H228583   5.764   4.812   0.112  2.9910  1.0417 -0.1427
 2342TIP3   OH228584   0.219   3.680   7.675  0.6873  0.3087  0.0540
 2342TIP3    H128585   0.301   3.697   7.628  0.0847  0.7848 -0.8496
 2342TIP3    H228586   0.199   3.589   7.656  1.0923  0.1375  0.4242
 2343TIP3   OH228587   2.136   3.610   1.289 -0.0866 -0.1103 -0.3057
 2343TIP3    H128588   2.210   3.576   1.340  0.1326 -0.8134 -1.0637
 2343TIP3    H228589   2.176   3.656   1.216 -0.3993 -0.2690 -0.5800
 2344TIP3   OH228590   6.735   5.660   1.158 -0.0902  0.1520  0.5193
 2344TIP3    H128591   6.740   5.569   1.185 -0.5443 -0.5622 -1.6004
 2344TIP3    H228592   6.825   5.692   1.162  0.0052 -0.2478  1.7086
 2345TIP3   OH228593   2.624   2.212   8.266  0.3355 -0.1250  0.2706
 2345TIP3    H128594   2.609   2.173   8.353 -0.1445 -0.0148  0.2385
 2345TIP3    H228595   2.719   2.206   8.254  0.1895 -2.1926 -0.1633
 2346TIP3   OH228596   3.074   4.608   7.752 -0.0652  0.1474 -0.2474
 2346TIP3    H128597   3.102   4.516   7.750  1.5443  0.6105 -1.2298
 2346TIP3    H228598   3.000   4.612   7.693  1.6947 -0.0255 -2.5927
 2347TIP3   OH228599   2.178   4.310   8.171 -0.0002  0.2000  0.4739
 2347TIP3    H128600   2.197   4.224   8.210 -2.9618 -0.2232  1.2402
 2347TIP3    H228601   2.191   4.372   8.242 -2.2192 -0.2018  1.3025
 2348TIP3   OH228602   6.343   0.790   7.349  0.4563 -0.1877 -0.2569
 2348TIP3    H128603   6.376   0.706   7.317 -0.3361 -0.2509 -0.9392
 2348TIP3    H228604   6.414   0.852   7.332  0.0957 -0.2313 -2.1293
 2349TIP3   OH228605   3.374   0.049   0.262 -0.1416 -0.7955  0.3001
 2349TIP3    H128606   3.398   0.017   0.349  1.5299  0.4000  0.3251
 2349TIP3    H228607   3.314   0.122   0.280  0.7806 -0.0724  0.5010
 2350TIP3   OH228608   2.252   2.618   7.891 -0.4210 -0.0219  0.0595
 2350TIP3    H128609   2.342   2.608   7.862  0.0212 -0.6100  1.5204
 2350TIP3    H228610   2.204   2.646   7.813  1.0243  0.3704 -0.7261
 2351TIP3   OH228611   2.118   0.146   8.312 -1.2020  0.6848 -0.5119
 2351TIP3    H128612   2.183   0.136   8.243 -1.7116 -0.2535 -0.8739
 2351TIP3    H228613   2.092   0.238   8.308  2.7838  2.1799  2.1069
 2352TIP3   OH228614   1.220   2.414   6.083  0.0419 -1.2877 -0.4087
 2352TIP3    H128615   1.163   2.466   6.140  0.8915 -0.4419 -0.3114
 2352TIP3    H228616   1.183   2.325   6.087 -0.2905 -1.1123  0.9408
 2353TIP3   OH228617   3.185   5.301   7.638  0.5170 -0.0027 -0.0977
 2353TIP3    H128618   3.231   5.349   7.707  1.0641 -0.9835  0.2314
 2353TIP3    H228619   3.109   5.263   7.680  0.0853  0.5630 -0.3582
 2354TIP3   OH228620   6.366   2.886   1.829  0.1686 -0.3419 -0.1511
 2354TIP3    H128621   6.460   2.901   1.824 -0.0364  1.0102 -0.4102
 2354TIP3    H228622   6.340   2.926   1.911 -0.3203  0.1443 -0.5374
 2355TIP3   OH228623   4.386   2.828   0.639 -0.2130  0.0114  0.0592
 2355TIP3    H128624   4.430   2.816   0.554 -1.6911 -1.2151 -0.5856
 2355TIP3    H228625   4.458   2.837   0.702  1.0807 -3.4454 -0.7114
 2356TIP3   OH228626   3.050   4.601   0.900  0.7207 -0.0778  0.0324
 2356TIP3    H128627   3.006   4.670   0.850  0.7662  0.7944  1.1519
 2356TIP3    H228628   2.982   4.535   0.915  0.1678  0.5859  0.5132
 2357TIP3   OH228629   4.981   2.083   6.742 -0.0551 -0.2123  0.2533
 2357TIP3    H128630   4.912   2.055   6.684  0.4337 -1.7453  0.3718
 2357TIP3    H228631   4.940   2.086   6.829 -0.3188  0.2789  0.1151
 2358TIP3   OH228632   0.673   6.658   7.769 -0.3658  0.2243  0.1177
 2358TIP3    H128633   0.581   6.662   7.794  0.0968  1.1279  1.8298
 2358TIP3    H228634   0.713   6.734   7.811  0.8943  0.7319 -1.8585
 2359TIP3   OH228635   0.400   4.166   7.553 -0.4372 -0.1007 -0.6570
 2359TIP3    H128636   0.452   4.228   7.501 -1.3608  0.0827 -1.3722
 2359TIP3    H228637   0.317   4.211   7.569 -0.4045 -0.3984  0.4709
 2360TIP3   OH228638   4.037   1.079   0.556 -1.3088  0.0285 -0.1216
 2360TIP3    H128639   3.974   1.020   0.596 -1.6046 -0.2197 -0.9276
 2360TIP3    H228640   4.033   1.059   0.462 -0.7625  0.7030 -0.3023
 2361TIP3   OH228641   6.773   0.896   1.143 -0.1906  0.1629  0.1214
 2361TIP3    H128642   6.697   0.839   1.135  0.3974 -0.5003 -0.9751
 2361TIP3    H228643   6.772   0.924   1.234  0.3864 -2.9547  1.2430
 2362TIP3   OH228644   3.793   1.440   8.657 -1.2932 -0.2031  0.5862
 2362TIP3    H128645   3.780   1.348   8.637  0.8378 -0.3638 -0.3848
 2362TIP3    H228646   3.784   1.446   8.752 -0.1293 -1.7001  0.8289
 2363TIP3   OH228647   0.463   6.498   0.404 -0.0836  0.2708  0.6090
 2363TIP3    H128648   0.470   6.465   0.494  0.8984 -1.8734 -0.1896
 2363TIP3    H228649   0.552   6.526   0.381 -0.2981  0.6567  0.2258
 2364TIP3   OH228650   4.147   5.387   2.252  0.2216  0.6423  0.4285
 2364TIP3    H128651   4.203   5.353   2.321  0.4759 -0.2620 -0.2008
 2364TIP3    H228652   4.124   5.475   2.281  3.2700  1.7109  0.0046
 2365TIP3   OH228653   1.224   3.760   8.799  0.2204 -0.6349  0.6024
 2365TIP3    H128654   1.307   3.761   8.750  0.3723  1.9055  0.7807
 2365TIP3    H228655   1.245   3.716   8.881  1.7315  0.9043  1.0964
 2366TIP3   OH228656   5.549   0.604   8.321  0.3075  0.0362 -0.2294
 2366TIP3    H128657   5.632   0.634   8.284 -0.6657 -0.2370 -2.7842
 2366TIP3    H228658   5.557   0.508   8.324  0.5194  0.0641  0.7523
 2367TIP3   OH228659   1.160   2.133   6.130  0.1806  0.0171 -0.1888
 2367TIP3    H128660   1.151   2.039   6.122 -0.2878 -0.2148  2.2639
 2367TIP3    H228661   1.162   2.149   6.224 -0.9630  2.5580 -0.5106
 2368TIP3   OH228662   6.523   5.724   1.377  0.4277  0.5829  0.5657
 2368TIP3    H128663   6.492   5.815   1.375  0.5051  0.5979 -0.1257
 2368TIP3    H228664   6.561   5.710   1.290 -1.8439 -0.9155 -0.2480
 2369TIP3   OH228665   0.709   4.405   8.825 -0.2016 -0.2736 -0.1872
 2369TIP3    H128666   0.725   4.312   8.809  2.3816  0.1679 -0.5015
 2369TIP3    H228667   0.635   4.427   8.767 -1.3538 -2.2528  0.4499
 2370TIP3   OH228668   0.595   2.088   8.298  0.4301 -0.4186 -0.1200
 2370TIP3    H128669   0.637   2.034   8.231  0.2122 -0.1027 -0.5132
 2370TIP3    H228670   0.515   2.120   8.257  0.7629  0.5428 -0.0489
 2371TIP3   OH228671   3.097   2.591   0.442  0.4977  0.2835  0.0700
 2371TIP3    H128672   3.140   2.613   0.359 -0.3201  1.5121 -0.0661
 2371TIP3    H228673   3.004   2.595   0.421  0.2850 -1.9168  0.4573
 2372TIP3   OH228674   0.069   4.474   7.823  0.3272  0.1428 -0.5099
 2372TIP3    H128675  -0.007   4.505   7.774 -0.8406 -1.3443  0.2731
 2372TIP3    H228676   0.139   4.536   7.801 -0.5894  0.4821 -2.7132
 2373TIP3   OH228677   0.244   1.888   1.338 -0.3486  0.1424 -0.0284
 2373TIP3    H128678   0.209   1.977   1.348 -0.9752 -0.1432  0.3606
 2373TIP3    H228679   0.334   1.902   1.308 -0.8428  0.8912 -1.2483
 2374TIP3   OH228680   2.063   2.195   7.159 -0.0440  0.5235  0.1083
 2374TIP3    H128681   2.073   2.207   7.254 -2.6178 -0.9841  0.6619
 2374TIP3    H228682   2.136   2.139   7.134  2.3868  3.2572  0.5606
 2375TIP3   OH228683   2.011   0.872   6.463 -0.1064 -0.2874  0.4047
 2375TIP3    H128684   1.939   0.905   6.409 -0.3854 -2.0001 -0.3186
 2375TIP3    H228685   1.981   0.786   6.492  1.6114 -0.9954  0.1575
 2376TIP3   OH228686   6.092   5.345   0.255  0.1751  0.5551 -0.0974
 2376TIP3    H128687   6.045   5.263   0.267 -0.1653  0.7220 -0.2591
 2376TIP3    H228688   6.025   5.413   0.269  0.5726  0.8152  0.5770
 2377TIP3   OH228689   3.915   5.068   7.168 -0.0653 -0.4453  0.3323
 2377TIP3    H128690   3.937   4.976   7.154 -1.3049 -0.6904 -0.1283
 2377TIP3    H228691   3.839   5.083   7.112  0.9564  1.2495 -0.6671
 2378TIP3   OH228692   3.764   5.417   1.846  0.0382 -0.6526  0.4513
 2378TIP3    H128693   3.677   5.407   1.884 -0.1021  1.1357  0.6708
 2378TIP3    H228694   3.823   5.415   1.922 -0.2409  2.9043  0.9065
 2379TIP3   OH228695   2.295   6.139   7.022 -0.1073 -0.0878 -0.0276
 2379TIP3    H128696   2.213   6.175   6.989  0.6645  1.1576 -0.6457
 2379TIP3    H228697   2.268   6.079   7.092 -1.7817 -2.8065 -2.8002
 2380TIP3   OH228698   4.244   5.684   8.238  0.4030  0.1023 -0.4578
 2380TIP3    H128699   4.250   5.780   8.236 -0.0179  0.2390  1.7316
 2380TIP3    H228700   4.170   5.667   8.296  1.1929 -1.5494  0.1006
 2381TIP3   OH228701   5.784   2.057   1.436  0.1645 -0.1529  0.4380
 2381TIP3    H128702   5.721   2.017   1.377  0.8992 -0.1807 -0.3399
 2381TIP3    H228703   5.865   2.061   1.386  0.8412 -0.3016  1.4910
 2382TIP3   OH228704   5.625   3.267   1.149 -0.7153 -0.2921 -0.2362
 2382TIP3    H128705   5.574   3.262   1.068 -1.8414 -0.3918  0.4487
 2382TIP3    H228706   5.585   3.202   1.206  1.4564 -1.7883 -0.3049
 2383TIP3   OH228707   6.323   5.260   7.646 -0.0865 -0.3496 -0.2145
 2383TIP3    H128708   6.313   5.308   7.728  0.0133 -0.0804 -0.3595
 2383TIP3    H228709   6.418   5.255   7.633 -0.0743 -0.9843  0.0321
 2384TIP3   OH228710   0.138   3.196   7.625 -0.3805 -0.2455 -0.1926
 2384TIP3    H128711   0.104   3.113   7.660 -0.2849 -0.3452 -0.3395
 2384TIP3    H228712   0.233   3.185   7.623 -0.2319  0.4154  1.2255
 2385TIP3   OH228713   5.070   6.310   1.506  0.1650 -0.3360 -0.2009
 2385TIP3    H128714   5.143   6.337   1.562  0.6083  2.0451 -1.7638
 2385TIP3    H228715   5.096   6.338   1.418 -2.0943 -0.5402 -0.9931
 2386TIP3   OH228716   3.791   0.456   0.214  0.3343  0.1150  0.2426
 2386TIP3    H128717   3.794   0.374   0.263  2.2743  0.1055  0.1970
 2386TIP3    H228718   3.869   0.454   0.159 -0.7576  1.0094 -1.4338
 2387TIP3   OH228719   0.663   0.146   8.203  0.0449  0.4040  0.2999
 2387TIP3    H128720   0.685   0.055   8.186  0.6113  0.5315  0.3441
 2387TIP3    H228721   0.612   0.173   8.126 -0.3353 -0.0137  0.3990
 2388TIP3   OH228722   5.591   1.822   6.436  0.1182 -0.9417  0.4209
 2388TIP3    H128723   5.655   1.893   6.438  0.5044 -1.2550 -0.4706
 2388TIP3    H228724   5.523   1.852   6.376  0.6374 -1.6014 -0.5273
 2389TIP3   OH228725   1.669   4.605   1.005  0.5389 -0.5895 -0.1516
 2389TIP3    H128726   1.583   4.562   1.005  0.9652 -1.4759  0.5047
 2389TIP3    H228727   1.708   4.580   1.089  2.0582 -1.4428 -1.0692
 2390TIP3   OH228728   0.504   3.505   0.655 -0.3746 -0.5481  0.4094
 2390TIP3    H128729   0.528   3.425   0.701 -0.5073  0.1855  1.8012
 2390TIP3    H228730   0.500   3.572   0.723 -0.3599  0.6301 -0.7062
 2391TIP3   OH228731   4.568   3.189   8.802  0.3013  0.1448 -0.2536
 2391TIP3    H128732   4.602   3.224   8.884 -0.0035  0.4877 -0.2695
 2391TIP3    H228733   4.637   3.131   8.770  0.3550 -0.1173  0.3245
 2392TIP3   OH228734   5.820   4.693   2.050 -0.1125  0.0277 -0.2765
 2392TIP3    H128735   5.749   4.756   2.031  0.5163  0.4637 -1.3003
 2392TIP3    H228736   5.898   4.748   2.059  0.6211 -0.6438 -2.1235
 2393TIP3   OH228737   2.229   5.822   8.305  0.7604  0.1850 -0.0987
 2393TIP3    H128738   2.187   5.906   8.286  0.2776  0.7987  3.0996
 2393TIP3    H228739   2.156   5.761   8.318  1.0016  0.0288  0.5610
 2394TIP3   OH228740   3.712   6.074   7.639 -0.1554  0.1298 -0.2967
 2394TIP3    H128741   3.761   6.035   7.711 -1.7007 -0.6931  0.3656
 2394TIP3    H228742   3.639   6.119   7.681  0.3195  1.8516 -1.2065
 2395TIP3   OH228743   3.417   0.792   7.982 -0.0058  0.5433 -0.1515
 2395TIP3    H128744   3.475   0.804   7.907 -0.3473  1.8508 -0.2334
 2395TIP3    H228745   3.344   0.740   7.948  1.0324 -1.0234 -0.0745
 2396TIP3   OH228746   3.994   0.076   1.568  0.0338 -0.1774 -0.4814
 2396TIP3    H128747   4.045   0.122   1.501 -1.2752 -0.1660 -1.5246
 2396TIP3    H228748   3.903   0.093   1.544 -0.5696  1.6492  2.5491
 2397TIP3   OH228749   2.010   1.335   7.958 -0.6904 -0.0728 -0.5743
 2397TIP3    H128750   2.000   1.313   8.050  0.4984  2.0170  0.1011
 2397TIP3    H228751   1.988   1.428   7.952 -0.2714 -0.0386 -2.3117
 2398TIP3   OH228752   2.256   0.882   7.942 -0.2215  0.8674  0.6281
 2398TIP3    H128753   2.162   0.896   7.928 -0.0639  1.7522  0.4192
 2398TIP3    H228754   2.292   0.970   7.956  0.8524  0.7424 -1.0554
 2399TIP3   OH228755   2.225   0.225   1.632 -0.2680 -0.5522 -0.6706
 2399TIP3    H128756   2.177   0.243   1.551 -1.7224  0.7280  0.4015
 2399TIP3    H228757   2.174   0.158   1.676  0.9049 -1.7619 -1.0981
 2400TIP3   OH228758   5.485   1.477   0.108 -0.1242 -0.0741  0.1606
 2400TIP3    H128759   5.438   1.394   0.100 -0.1471 -0.0674  0.2289
 2400TIP3    H228760   5.575   1.456   0.085 -0.3430  0.1035 -0.9148
 2401TIP3   OH228761   2.434   5.569   0.190 -0.3059 -0.1944  0.2384
 2401TIP3    H128762   2.481   5.631   0.134 -1.3716  0.2040 -0.2587
 2401TIP3    H228763   2.440   5.607   0.278 -1.2611  0.8539 -0.1149
 2402TIP3   OH228764   5.961   4.177   0.175  0.3573 -0.1868  0.0126
 2402TIP3    H128765   5.865   4.179   0.181  0.3634 -0.8909  0.4503
 2402TIP3    H228766   5.987   4.268   0.185 -0.2510 -0.0268  0.2229
 2403TIP3   OH228767   4.479   1.040   8.416  0.3888 -0.6074  0.3769
 2403TIP3    H128768   4.526   0.957   8.407  0.3326 -0.4803 -1.6777
 2403TIP3    H228769   4.392   1.015   8.446  0.4429 -1.2872 -0.0092
 2404TIP3   OH228770   2.968   4.543   1.559  0.0809 -0.2077  0.0184
 2404TIP3    H128771   2.894   4.574   1.611  1.3401  1.2409  1.0220
 2404TIP3    H228772   3.016   4.622   1.535  0.9556 -1.0681 -1.1860
 2405TIP3   OH228773   6.463   6.589   1.132  0.2094 -0.6821 -0.1100
 2405TIP3    H128774   6.400   6.648   1.173 -0.7323 -0.5744 -1.6375
 2405TIP3    H228775   6.415   6.549   1.060  1.0193 -2.8716  0.5034
 2406TIP3   OH228776   3.820   5.071   6.253  0.1731  0.2686 -0.3572
 2406TIP3    H128777   3.758   5.103   6.318 -1.0593  0.2899 -1.5185
 2406TIP3    H228778   3.862   4.996   6.296  0.3678  1.0860  0.9508
 2407TIP3   OH228779   0.314   0.453   7.912  0.0362  0.0162  0.4170
 2407TIP3    H128780   0.245   0.477   7.850  0.4436 -1.5362 -0.7026
 2407TIP3    H228781   0.350   0.537   7.942 -0.8579  0.8156 -0.6741
 2408TIP3   OH228782   6.329   4.628   0.932  0.2394  0.3299 -0.3978
 2408TIP3    H128783   6.261   4.619   0.865 -0.7101  0.4080  0.5291
 2408TIP3    H228784   6.386   4.552   0.918 -1.7257 -1.4775  0.6392
 2409TIP3   OH228785   4.635   4.713   7.392  0.5761 -0.2386 -0.4713
 2409TIP3    H128786   4.562   4.715   7.330  0.5095 -0.1572 -0.3883
 2409TIP3    H228787   4.666   4.803   7.395  0.4845 -0.2142 -0.2701
 2410TIP3   OH228788   0.262   3.406   7.885  0.1369 -0.5174 -0.1813
 2410TIP3    H128789   0.315   3.483   7.866  0.1441 -0.3645  0.4663
 2410TIP3    H228790   0.282   3.346   7.813  2.3164 -1.0458  0.7882
 2411TIP3   OH228791   1.667   3.143   1.096 -0.8033  0.1401  0.1204
 2411TIP3    H128792   1.672   3.126   1.190 -0.3045  0.4482  0.1527
 2411TIP3    H228793   1.587   3.194   1.084 -1.2459 -0.5032  0.2807
 2412TIP3   OH228794   1.043   0.780   7.803 -0.0445  0.3109  0.5314
 2412TIP3    H128795   0.997   0.696   7.804 -0.6515  0.6347  0.3663
 2412TIP3    H228796   1.062   0.796   7.710 -0.1930  0.4939  0.5311
 2413TIP3   OH228797   3.865   2.017   8.003  0.1470 -0.0916 -0.4140
 2413TIP3    H128798   3.939   2.064   7.964  0.2733 -0.3977 -0.5549
 2413TIP3    H228799   3.852   1.942   7.945  1.3505 -1.4384  0.9420
 2414TIP3   OH228800   3.907   0.465   1.094 -0.9480 -0.5062 -0.1654
 2414TIP3    H128801   4.003   0.461   1.101 -0.9200 -0.4230 -0.4609
 2414TIP3    H228802   3.877   0.477   1.183 -0.5798  1.3475 -0.2469
 2415TIP3   OH228803   3.822   6.088   1.371 -0.3206  0.3966  0.5541
 2415TIP3    H128804   3.767   6.011   1.359 -1.2350  1.1068  0.0720
 2415TIP3    H228805   3.895   6.076   1.310 -0.1171 -0.3786  0.9394
 2416TIP3   OH228806   6.650   6.389   0.761 -1.0247 -0.0335 -0.8610
 2416TIP3    H128807   6.728   6.351   0.720 -0.7972 -1.4721  0.7697
 2416TIP3    H228808   6.683   6.435   0.838 -1.7863 -1.0360  0.0995
 2417TIP3   OH228809   6.216   2.833   0.975  0.3341  0.4105  0.1781
 2417TIP3    H128810   6.245   2.755   1.022  0.5494  0.1552 -0.3844
 2417TIP3    H228811   6.210   2.806   0.884 -2.6447  0.1319  0.3487
 2418TIP3   OH228812   6.422   4.691   0.153  0.5144  0.4078  0.1380
 2418TIP3    H128813   6.476   4.768   0.135  0.5639  0.7228  1.5380
 2418TIP3    H228814   6.427   4.680   0.248 -0.4394 -0.6335  0.0855
 2419TIP3   OH228815   6.442   1.918   7.555  0.2839  0.1718  0.2391
 2419TIP3    H128816   6.485   1.834   7.536  0.0380  0.0956  0.0183
 2419TIP3    H228817   6.348   1.899   7.549  0.1999  0.2236  1.1978
 2420TIP3   OH228818   1.824   5.821   6.766  0.1866 -0.1420 -0.4530
 2420TIP3    H128819   1.919   5.826   6.777  0.2061 -0.8067 -0.2736
 2420TIP3    H228820   1.811   5.824   6.671  0.3362  0.6116 -0.4588
 2421TIP3   OH228821   4.515   1.764   7.762  0.4072 -0.4439  0.1583
 2421TIP3    H128822   4.421   1.745   7.757 -0.0023  1.5052 -0.4823
 2421TIP3    H228823   4.539   1.792   7.674  2.1537 -3.0641 -0.2885
 2422TIP3   OH228824   0.421   4.565   1.031 -0.1135  0.7454 -0.0235
 2422TIP3    H128825   0.446   4.655   1.053  0.1927  0.3957  1.1072
 2422TIP3    H228826   0.501   4.527   0.993  0.1367  0.5776  0.6645
 2423TIP3   OH228827   3.295   2.292   1.058  0.1552  0.0160 -0.7206
 2423TIP3    H128828   3.340   2.263   1.138 -0.3482 -2.1315 -1.1350
 2423TIP3    H228829   3.202   2.294   1.082  0.1573  1.3260 -0.7383
 2424TIP3   OH228830   3.916   3.929   0.940 -0.2895 -0.4894 -0.0461
 2424TIP3    H128831   3.885   3.973   1.019  0.6348  0.8356 -0.3981
 2424TIP3    H228832   3.868   3.971   0.868  2.1128  1.5380 -0.5939
 2425TIP3   OH228833   1.917   1.246   6.600 -0.7621 -0.4306 -0.4232
 2425TIP3    H128834   1.928   1.328   6.649  1.4622 -0.3409 -0.9584
 2425TIP3    H228835   1.946   1.268   6.512 -1.5248 -1.4615 -0.9471
 2426TIP3   OH228836   6.229   0.879   6.979 -0.1137  0.2398 -0.4744
 2426TIP3    H128837   6.265   0.798   7.015 -0.3459  0.2226 -0.2760
 2426TIP3    H228838   6.297   0.945   6.994 -0.0717  0.1592 -0.3093
 2427TIP3   OH228839   4.546   3.717   1.302 -0.0092 -0.4642  0.6159
 2427TIP3    H128840   4.491   3.765   1.240  1.4718  0.9069  0.2802
 2427TIP3    H228841   4.529   3.758   1.387 -0.6672 -1.1116  0.8067
 2428TIP3   OH228842   4.916   2.387   6.400 -0.4224  0.1583 -0.1957
 2428TIP3    H128843   4.966   2.308   6.416 -0.9683  0.2650  2.4338
 2428TIP3    H228844   4.836   2.377   6.452 -1.5369  1.4816 -1.5494
 2429TIP3   OH228845   1.831   1.718   6.865  0.7828  0.4974 -0.5343
 2429TIP3    H128846   1.919   1.716   6.828  0.4984  1.1526 -1.2932
 2429TIP3    H228847   1.803   1.627   6.867  1.5973  0.2505  0.0287
 2430TIP3   OH228848   1.053   4.484   8.269 -0.5326  0.0116  0.1965
 2430TIP3    H128849   0.965   4.457   8.296 -1.4617  1.9580 -0.7236
 2430TIP3    H228850   1.107   4.473   8.348 -1.2633 -2.4020  0.4407
 2431TIP3   OH228851   4.417   5.283   8.206 -0.2852  0.3064  0.2912
 2431TIP3    H128852   4.509   5.305   8.192 -0.5995  0.3581 -2.2194
 2431TIP3    H228853   4.369   5.357   8.171 -1.2811 -0.2231  0.5082
 2432TIP3   OH228854   5.153   0.212   6.600 -0.0546 -0.1923  0.0489
 2432TIP3    H128855   5.187   0.285   6.549 -0.5896  0.7544  1.0226
 2432TIP3    H228856   5.230   0.160   6.623  0.4228  0.5251  0.0747
 2433TIP3   OH228857   0.351   2.909   8.534  0.3566  0.0041 -0.5666
 2433TIP3    H128858   0.274   2.927   8.481 -0.3542 -0.5620  0.2440
 2433TIP3    H228859   0.400   2.844   8.484 -0.8520 -1.3388 -0.0689
 2434TIP3   OH228860   6.398   0.285   7.703  0.1841 -0.1843 -0.4848
 2434TIP3    H128861   6.322   0.227   7.705 -1.2408  1.6023 -0.4015
 2434TIP3    H228862   6.455   0.253   7.774 -0.1170 -1.9780 -1.0002
 2435TIP3   OH228863   0.614   3.086   1.008 -0.4692  0.1075  0.1404
 2435TIP3    H128864   0.649   3.165   0.967 -0.0523  0.2665  0.7878
 2435TIP3    H228865   0.538   3.116   1.058  0.0938  0.2282  0.9454
 2436TIP3   OH228866   1.713   2.737   6.731 -0.2269 -0.1041 -0.0730
 2436TIP3    H128867   1.620   2.757   6.744 -0.1348  0.2900 -0.0150
 2436TIP3    H228868   1.757   2.822   6.736  0.0554 -0.2019 -0.8370
 2437TIP3   OH228869   3.160   4.328   7.815  0.0312  0.4468  0.4897
 2437TIP3    H128870   3.224   4.311   7.885 -1.3268  0.0181  1.6820
 2437TIP3    H228871   3.075   4.310   7.856 -0.9016  1.6041 -0.8585
 2438TIP3   OH228872   1.636   4.639   0.578  0.4981 -0.9872  0.1958
 2438TIP3    H128873   1.711   4.617   0.633  1.3332  0.0775 -0.4882
 2438TIP3    H228874   1.568   4.668   0.639  2.1063  2.2491  0.6394
 2439TIP3   OH228875   2.275   5.356   1.511  0.2027 -0.6040 -0.7628
 2439TIP3    H128876   2.218   5.302   1.455 -0.2896  2.0970 -3.0704
 2439TIP3    H228877   2.215   5.404   1.567  0.4792 -0.6121 -0.4587
 2440TIP3   OH228878   1.020   0.841   8.316  0.1609 -0.1493 -0.2640
 2440TIP3    H128879   1.061   0.898   8.380 -1.6276  0.7629  0.1389
 2440TIP3    H228880   1.073   0.851   8.237  1.3266  0.1008  0.5265
 2441TIP3   OH228881   1.692   0.172   0.533 -0.4101 -0.3357 -0.5533
 2441TIP3    H128882   1.781   0.144   0.555  1.4865  3.5926 -2.2923
 2441TIP3    H228883   1.667   0.118   0.458 -0.1485 -2.4042  0.7714
 2442TIP3   OH228884   4.055   0.217   0.006 -0.2172 -0.1350 -0.2759
 2442TIP3    H128885   4.107   0.177   0.075 -2.2480 -1.2445  0.6762
 2442TIP3    H228886   4.059   0.154  -0.066  0.9956  0.5198 -0.8226
 2443TIP3   OH228887   3.787   6.461   7.553  0.6091  0.8366 -0.5013
 2443TIP3    H128888   3.751   6.481   7.467 -0.1664  0.0982 -0.3576
 2443TIP3    H228889   3.718   6.412   7.598  0.7562  1.7354  0.7692
 2444TIP3   OH228890   4.706   5.684   1.712 -0.5404  0.1514 -0.4482
 2444TIP3    H128891   4.794   5.700   1.746 -0.0792 -1.6525 -0.6990
 2444TIP3    H228892   4.698   5.589   1.711 -1.5816  0.2198 -2.7597
 2445TIP3   OH228893   5.166   4.224   0.080 -0.3132 -0.1597 -0.0772
 2445TIP3    H128894   5.133   4.229   0.170 -2.1226 -1.8779 -0.5726
 2445TIP3    H228895   5.214   4.141   0.077  0.5783  0.3558 -0.4689
 2446TIP3   OH228896   0.655   4.120   8.774 -0.3124 -0.1271  0.2571
 2446TIP3    H128897   0.577   4.065   8.765 -0.9291  0.8383 -0.5336
 2446TIP3    H228898   0.652   4.178   8.698  1.5945 -0.5557 -0.1915
 2447TIP3   OH228899   4.002   4.895   2.069 -0.0146 -0.9339  0.5691
 2447TIP3    H128900   4.019   4.927   2.157 -0.5681 -1.3810  0.8493
 2447TIP3    H228901   4.035   4.805   2.069  0.9078 -0.6048  0.0024
 2448TIP3   OH228902   6.395   5.694   0.146 -0.2349  0.2456  0.7324
 2448TIP3    H128903   6.376   5.720   0.056  0.0147  0.3951  0.7213
 2448TIP3    H228904   6.461   5.756   0.175  0.4919 -0.4684  0.6467
 2449TIP3   OH228905   2.903   3.385   6.529 -0.2524 -0.5195  0.5813
 2449TIP3    H128906   2.917   3.465   6.478 -0.5418  0.2304  1.6520
 2449TIP3    H228907   2.934   3.315   6.471 -1.2408  0.2229 -0.9132
 2450TIP3   OH228908   5.951   6.477   1.275 -0.0273 -0.1355 -0.7609
 2450TIP3    H128909   5.872   6.523   1.303 -0.2324 -0.9044 -0.0035
 2450TIP3    H228910   5.923   6.387   1.261  0.4875 -0.1773 -1.6203
 2451TIP3   OH228911   2.847   2.412   2.134  0.4570 -0.0718 -0.0518
 2451TIP3    H128912   2.796   2.346   2.180  1.6852 -1.5310 -0.6975
 2451TIP3    H228913   2.838   2.491   2.188 -0.7324 -0.8433  0.9465
 2452TIP3   OH228914   1.415   5.482   8.800  0.5811 -0.0241  0.1383
 2452TIP3    H128915   1.411   5.435   8.716 -3.3379  2.2561 -1.2400
 2452TIP3    H228916   1.372   5.423   8.862  4.4356 -2.1879  1.0576
 2453TIP3   OH228917   6.764   5.376   1.222 -0.8421 -0.1260 -0.1542
 2453TIP3    H128918   6.704   5.320   1.174  0.7373  0.5444 -3.1599
 2453TIP3    H228919   6.809   5.317   1.283 -1.9070 -1.3296 -0.4934
 2454TIP3   OH228920   0.528   3.822   7.061  0.2568 -0.0206 -0.2533
 2454TIP3    H128921   0.536   3.906   7.107  0.8198 -1.1285  1.8167
 2454TIP3    H228922   0.446   3.829   7.012 -0.9615  0.9271  1.7584
 2455TIP3   OH228923   1.441   4.530   1.732 -0.0243  0.3386 -0.1158
 2455TIP3    H128924   1.416   4.437   1.733 -0.4652  0.4148 -1.4639
 2455TIP3    H228925   1.402   4.566   1.812 -1.0831 -0.3487 -0.2941
 2456TIP3   OH228926   1.282   4.687   6.630  0.2822  0.3131 -0.3318
 2456TIP3    H128927   1.376   4.699   6.644  0.1811  0.9600 -0.2030
 2456TIP3    H228928   1.242   4.710   6.713  0.0626 -0.7987 -0.1111
 2457TIP3   OH228929   6.380   4.781   8.231  0.4474 -0.7774  0.2534
 2457TIP3    H128930   6.333   4.833   8.296 -2.0837 -1.6307 -0.7593
 2457TIP3    H228931   6.347   4.692   8.243  1.0104 -1.2235 -1.2142
 2458TIP3   OH228932   6.089   6.702   8.544  0.1034  0.8602  0.1537
 2458TIP3    H128933   6.068   6.792   8.569 -3.2964  0.7005 -1.6308
 2458TIP3    H228934   6.046   6.648   8.610  2.6853  0.4101  1.6075
 2459TIP3   OH228935   5.784   2.010   6.388  0.2414 -0.2905  0.2705
 2459TIP3    H128936   5.864   2.062   6.398  0.2618 -0.4734  1.0967
 2459TIP3    H228937   5.740   2.048   6.312 -0.1400  1.4538  1.3018
 2460TIP3   OH228938   1.435   5.195   1.243 -0.0762 -0.2930 -0.4414
 2460TIP3    H128939   1.461   5.280   1.280 -1.0711 -1.1293  2.5005
 2460TIP3    H228940   1.454   5.132   1.313 -2.9202 -1.9360 -1.0075
 2461TIP3   OH228941   1.098   2.551   7.223 -0.3202 -0.0952  0.8261
 2461TIP3    H128942   1.132   2.578   7.138 -0.6568 -0.7300  0.4771
 2461TIP3    H228943   1.132   2.462   7.235 -0.6912 -0.2008  1.1170
 2462TIP3   OH228944   3.423   6.512   7.755  0.0595 -0.1572 -0.3788
 2462TIP3    H128945   3.441   6.451   7.683 -0.0568  0.4166 -0.9060
 2462TIP3    H228946   3.329   6.505   7.768  0.1340 -0.5260 -0.0393
 2463TIP3   OH228947   3.516   3.090   6.997 -0.2470 -0.0518 -0.1514
 2463TIP3    H128948   3.471   3.140   7.066  0.1849 -0.0835  0.1595
 2463TIP3    H228949   3.596   3.140   6.980  0.5688 -1.0040  0.6963
 2464TIP3   OH228950   3.401   6.114   8.315  0.0457  0.1450  0.1228
 2464TIP3    H128951   3.496   6.110   8.315  0.1428  1.6479 -0.9120
 2464TIP3    H228952   3.375   6.079   8.400  1.4232 -1.5561 -0.0961
 2465TIP3   OH228953   3.497   1.502   8.211 -0.0880  0.2290 -0.0451
 2465TIP3    H128954   3.521   1.472   8.299  1.8623 -2.2472 -1.2707
 2465TIP3    H228955   3.581   1.510   8.165 -1.0974  0.7436 -1.8803
 2466TIP3   OH228956   5.957   0.162   5.881 -0.2894 -0.5782  0.2212
 2466TIP3    H128957   6.023   0.108   5.923  1.8982  1.1831 -0.7775
 2466TIP3    H228958   5.935   0.116   5.801 -0.2175 -1.1337  0.5174
 2467TIP3   OH228959   0.960   0.120   7.234 -0.4959  0.5119 -0.3332
 2467TIP3    H128960   0.992   0.134   7.145 -1.0131 -0.9277 -0.7823
 2467TIP3    H228961   0.996   0.193   7.284 -0.3252  1.4522 -1.7432
 2468TIP3   OH228962   2.766   3.888   7.653  0.0549  0.3560  0.3054
 2468TIP3    H128963   2.765   3.942   7.574 -2.5361  2.3534  1.5160
 2468TIP3    H228964   2.842   3.919   7.702 -1.0859  2.7801  0.7444
 2469TIP3   OH228965   0.923   6.325   1.543  0.2314 -0.7747  0.0325
 2469TIP3    H128966   0.833   6.298   1.565  0.1537 -0.3555  0.2543
 2469TIP3    H228967   0.972   6.310   1.624  0.3234 -0.8402 -0.0362
 2470TIP3   OH228968   0.588   0.640   8.811  0.0923  0.0698  0.1554
 2470TIP3    H128969   0.606   0.549   8.790 -0.8678  0.5419 -3.3491
 2470TIP3    H228970   0.500   0.639   8.848  0.1277 -0.4425  0.2268
 2471TIP3   OH228971   1.138   0.121   0.260  0.5468 -0.3763  0.0604
 2471TIP3    H128972   1.217   0.134   0.312  0.4908 -1.3972  0.4104
 2471TIP3    H228973   1.124   0.026   0.260  1.3952 -0.6175 -3.0720
 2472TIP3   OH228974   0.551   1.431   0.516 -0.0064  0.0935 -1.0552
 2472TIP3    H128975   0.586   1.508   0.473 -1.3605  1.2436 -0.1935
 2472TIP3    H228976   0.459   1.428   0.489 -0.7108  0.4549  1.1102
 2473TIP3   OH228977   6.594   6.266   2.141  0.5249  0.2175  0.3297
 2473TIP3    H128978   6.673   6.300   2.184  1.7858 -0.1355 -1.5782
 2473TIP3    H228979   6.564   6.339   2.086 -1.4854  0.9169  2.1843
 2474TIP3   OH228980   4.214   2.356   8.400 -0.1850 -0.1013  0.4062
 2474TIP3    H128981   4.145   2.413   8.434  0.9019  1.6465 -0.1785
 2474TIP3    H228982   4.285   2.416   8.376  0.3633 -1.5200 -1.8558
 2475TIP3   OH228983   0.435   2.040   7.776 -0.0831 -0.2745 -0.2182
 2475TIP3    H128984   0.415   1.957   7.820  0.9310 -0.7563 -0.6430
 2475TIP3    H228985   0.450   2.102   7.848 -0.2304 -0.6092  0.1036
 2476TIP3   OH228986   6.182   1.804   6.997 -0.2820  0.4620 -0.2502
 2476TIP3    H128987   6.086   1.799   7.000 -0.2694  0.1793 -0.2933
 2476TIP3    H228988   6.201   1.853   6.917 -0.3732 -0.1306 -0.6415
 2477TIP3   OH228989   0.423   2.657   2.198  0.5365 -0.2934 -0.5696
 2477TIP3    H128990   0.398   2.569   2.228  0.5281  0.7228  2.8402
 2477TIP3    H228991   0.517   2.661   2.212  0.0775  1.4281  3.4793
 2478TIP3   OH228992   3.545   2.495   7.542 -0.0277  0.2340  0.4944
 2478TIP3    H128993   3.482   2.465   7.477 -0.9571  1.3031  0.8755
 2478TIP3    H228994   3.581   2.414   7.579 -1.2378 -0.4058  0.3188
 2479TIP3   OH228995   3.695   1.649   1.001 -0.4111  0.1765  0.3981
 2479TIP3    H128996   3.693   1.554   1.010 -0.1177  0.0115 -1.0240
 2479TIP3    H228997   3.782   1.668   0.966 -1.3227  0.6968 -1.7325
 2480TIP3   OH228998   0.579   4.891   8.166  0.4941  0.1290  0.1710
 2480TIP3    H128999   0.542   4.870   8.252  1.5328  0.6685  0.7734
 2480TIP3    H229000   0.670   4.863   8.172  1.2409  2.3588  0.1116
 2481TIP3   OH229001   0.328   5.442   1.580  0.2028 -0.2885  0.3404
 2481TIP3    H129002   0.326   5.349   1.559  1.6527 -0.2767  0.0722
 2481TIP3    H229003   0.405   5.453   1.635  0.7829  0.9478 -0.6781
 2482TIP3   OH229004   4.166   5.841   7.323 -0.1965 -0.0695 -0.1897
 2482TIP3    H129005   4.124   5.774   7.269  1.3900 -1.7515  0.5535
 2482TIP3    H229006   4.258   5.839   7.296 -0.0670  1.6772  0.0224
 2483TIP3   OH229007   5.216   3.574   0.088  0.2009  0.4756 -0.0978
 2483TIP3    H129008   5.182   3.545   0.004 -2.5215 -0.7140  1.3000
 2483TIP3    H229009   5.145   3.625   0.127 -0.4318 -2.5783  3.2167
 2484TIP3   OH229010   5.574   1.973   0.385  0.0675  0.0796 -0.4438
 2484TIP3    H129011   5.526   2.015   0.313  0.6782 -0.9365 -1.4911
 2484TIP3    H229012   5.584   2.041   0.451 -1.5023  0.7364 -0.8336
 2485TIP3   OH229013   2.217   4.895   0.400 -0.0416  0.3995  0.6893
 2485TIP3    H129014   2.270   4.969   0.371 -2.7313  1.4665 -2.0460
 2485TIP3    H229015   2.191   4.917   0.489 -0.4565  2.5787  0.0726
 2486TIP3   OH229016   4.558   1.226   7.670  0.3931 -0.4350 -0.4172
 2486TIP3    H129017   4.639   1.219   7.621  0.0593 -0.0106 -1.0410
 2486TIP3    H229018   4.489   1.206   7.606  0.0081 -0.8332  0.1095
 2487TIP3   OH229019   5.975   2.985   8.739 -0.3214 -0.5503 -0.2335
 2487TIP3    H129020   5.978   3.070   8.695 -0.5960 -0.2059  0.4090
 2487TIP3    H229021   5.917   2.998   8.814  0.1911 -1.1185  0.2703
 2488TIP3   OH229022   4.690   4.687   0.326  0.8041  0.0959  0.5929
 2488TIP3    H129023   4.613   4.634   0.348  0.7146 -0.2886 -0.5482
 2488TIP3    H229024   4.759   4.623   0.310  1.5777  0.4606  2.2730
 2489TIP3   OH229025   2.673   6.092   6.577 -0.3957  0.8256 -0.5719
 2489TIP3    H129026   2.747   6.106   6.517  0.5023  0.7488  0.4887
 2489TIP3    H229027   2.643   6.180   6.598  0.4622  0.9358  0.2677
 2490TIP3   OH229028   0.738   3.226   1.292 -0.0713 -0.3528  0.2366
 2490TIP3    H129029   0.741   3.301   1.232  0.0387 -1.0175 -0.6210
 2490TIP3    H229030   0.650   3.229   1.329 -0.5810 -0.6049 -0.8914
 2491TIP3   OH229031   2.343   4.801   8.113 -0.3682 -0.0537 -0.2754
 2491TIP3    H129032   2.271   4.864   8.117 -0.6330 -0.3256 -0.6472
 2491TIP3    H229033   2.325   4.750   8.034 -0.2918 -0.7611  0.1665
 2492TIP3   OH229034   0.317   4.481   7.264  0.0619 -0.5208  0.7996
 2492TIP3    H129035   0.326   4.421   7.190  3.5466 -0.0781  0.6751
 2492TIP3    H229036   0.290   4.564   7.225 -0.1661 -0.8103  0.3289
 2493TIP3   OH229037   1.955   2.647   8.013 -0.2038 -0.4686 -0.2997
 2493TIP3    H129038   1.901   2.611   7.943 -0.6424 -1.2848  0.4331
 2493TIP3    H229039   1.935   2.593   8.089  1.5372 -0.7157  0.0450
 2494TIP3   OH229040   1.912   0.647   8.295 -0.0187  0.1966 -0.0731
 2494TIP3    H129041   1.872   0.692   8.221  0.3065  1.0902  0.2797
 2494TIP3    H229042   1.840   0.630   8.355 -0.1198  0.3718 -0.1447
 2495TIP3   OH229043   6.249   0.860   0.474  0.5967 -0.3583  0.6476
 2495TIP3    H129044   6.261   0.888   0.383 -1.9522 -1.0679  0.0027
 2495TIP3    H229045   6.312   0.912   0.524 -1.2319  3.7673 -0.8965
 2496TIP3   OH229046   2.317   6.308   6.675 -0.1302 -0.1467 -0.1690
 2496TIP3    H129047   2.346   6.253   6.602  0.9957  2.7213 -2.0602
 2496TIP3    H229048   2.254   6.253   6.722 -0.4559 -2.4000 -2.9240
 2497TIP3   OH229049   4.265   4.348   0.637  0.1516  0.3821 -0.0673
 2497TIP3    H129050   4.247   4.304   0.720  1.1718  2.0236  1.0916
 2497TIP3    H229051   4.213   4.429   0.641 -0.7647 -0.0736 -1.6171
 2498TIP3   OH229052   0.431   6.374   8.723 -0.3811  0.0133 -0.1973
 2498TIP3    H129053   0.460   6.297   8.771  0.9796  2.0004  2.3850
 2498TIP3    H229054   0.343   6.391   8.756 -0.2898  0.1422 -0.0210
 2499TIP3   OH229055   1.961   6.508   6.837 -0.3443 -0.0084  0.2140
 2499TIP3    H129056   1.938   6.540   6.925 -1.8064  1.5555 -0.6722
 2499TIP3    H229057   2.028   6.569   6.806 -1.4401  0.8343 -0.5789
 2500TIP3   OH229058   2.372   1.101   7.533 -0.7537 -0.4562 -0.1743
 2500TIP3    H129059   2.283   1.071   7.549 -1.0527  1.1098  1.4671
 2500TIP3    H229060   2.425   1.058   7.600 -0.6971  0.4120  0.3498
 2501TIP3   OH229061   0.452   0.754   1.553  0.6642  0.3274 -0.2622
 2501TIP3    H129062   0.451   0.764   1.458 -0.4571 -1.4543 -0.4826
 2501TIP3    H229063   0.379   0.807   1.585 -0.2835 -0.7107 -0.6335
 2502TIP3   OH229064   5.369   1.197   8.042  0.1099  0.7161 -0.1443
 2502TIP3    H129065   5.303   1.138   8.077 -0.5692  0.8989 -1.0783
 2502TIP3    H229066   5.453   1.157   8.066 -0.3382 -0.6147 -0.7211
 2503TIP3   OH229067   2.879   3.061   1.480 -0.0487 -0.1476 -0.1642
 2503TIP3    H129068   2.888   3.005   1.557  0.4202  0.2620  0.0799
 2503TIP3    H229069   2.885   3.150   1.514 -1.4910  0.0806 -0.4597
 2504TIP3   OH229070   4.968   5.491   6.368 -0.0757 -0.1557  0.4277
 2504TIP3    H129071   4.906   5.563   6.353  1.1150  0.6246 -0.9811
 2504TIP3    H229072   5.044   5.533   6.409  0.2356 -0.7893  0.5135
 2505TIP3   OH229073   4.286   1.528   8.692  0.7026 -0.7975  0.1810
 2505TIP3    H129074   4.279   1.601   8.631  1.6196 -0.9675 -0.1502
 2505TIP3    H229075   4.262   1.451   8.641  1.1482 -0.8994  0.1181
 2506TIP3   OH229076   5.853   4.983   0.649  0.0179 -0.8262 -0.3661
 2506TIP3    H129077   5.844   4.932   0.730 -2.6899  1.9033  1.2525
 2506TIP3    H229078   5.777   4.957   0.596 -1.8197  1.8232  0.7929
 2507TIP3   OH229079   0.724   0.832   0.627 -0.0595 -0.0088 -0.2290
 2507TIP3    H129080   0.766   0.868   0.705  0.0268 -0.3626 -0.1067
 2507TIP3    H229081   0.647   0.887   0.613  0.7437  1.0025 -0.7939
 2508TIP3   OH229082   6.596   4.910   6.719 -0.1580  0.0207  0.1333
 2508TIP3    H129083   6.614   4.987   6.664  1.8278  0.7022  1.6127
 2508TIP3    H229084   6.502   4.914   6.736 -0.4876  0.8409 -1.6363
 2509TIP3   OH229085   5.984   0.441   2.430 -0.1849 -0.5823 -0.1392
 2509TIP3    H129086   5.906   0.492   2.454  1.7013  0.7295  4.3163
 2509TIP3    H229087   5.953   0.350   2.427 -2.1286  0.0206 -0.0743
 2510TIP3   OH229088   5.816   0.897   8.028 -0.6563  0.1817 -0.4032
 2510TIP3    H129089   5.856   0.860   7.949 -2.6416 -0.0095 -1.3974
 2510TIP3    H229090   5.795   0.820   8.082  1.4218  0.3521  0.7555
 2511TIP3   OH229091   1.819   4.506   2.034 -0.7372  0.2993  0.0144
 2511TIP3    H129092   1.872   4.463   2.102 -0.8976 -2.1657 -1.3085
 2511TIP3    H229093   1.729   4.488   2.059 -0.7973 -2.4625 -1.8227
 2512TIP3   OH229094   6.633   6.487   0.185  0.0218 -0.0548  0.3067
 2512TIP3    H129095   6.703   6.472   0.249  1.3394  0.1535 -1.0389
 2512TIP3    H229096   6.553   6.461   0.231  0.9545 -0.2327  1.9182
 2513TIP3   OH229097   6.634   1.385   7.114  0.3678  0.0341  0.0155
 2513TIP3    H129098   6.724   1.390   7.146 -0.5695  1.1545  2.7389
 2513TIP3    H229099   6.602   1.301   7.146  0.0888  0.1644  0.0788
 2514TIP3   OH229100   5.158   1.316   8.228 -0.0830  0.2031 -0.2240
 2514TIP3    H129101   5.116   1.244   8.275 -1.0628 -0.0358 -1.3960
 2514TIP3    H229102   5.245   1.283   8.207 -0.1707 -0.2528  0.1082
 2515TIP3   OH229103   4.216   3.257   1.053 -0.4620 -0.1451  0.1817
 2515TIP3    H129104   4.306   3.225   1.061 -0.0386  0.1509 -2.6139
 2515TIP3    H229105   4.215   3.338   1.103  1.2315  0.5245 -0.7979
 2516TIP3   OH229106   1.413   5.706   8.295  0.0289  0.1366 -0.2448
 2516TIP3    H129107   1.481   5.765   8.263  0.3772 -0.3143 -0.3369
 2516TIP3    H229108   1.427   5.624   8.248 -0.0586 -0.2234  0.3384
 2517TIP3   OH229109   3.474   0.845   0.270  0.5014  0.2748  0.5390
 2517TIP3    H129110   3.494   0.889   0.187 -0.9442  0.6474  0.3652
 2517TIP3    H229111   3.378   0.844   0.274  0.5512 -0.1755  1.9814
 2518TIP3   OH229112   4.975   6.607   6.907  0.0050 -0.0166  0.3788
 2518TIP3    H129113   5.036   6.617   6.981  0.5432  0.4047 -0.1173
 2518TIP3    H229114   5.005   6.528   6.863  0.7414  0.6559 -0.3620
 2519TIP3   OH229115   0.632   2.928   8.348 -0.7947  0.1459  0.3161
 2519TIP3    H129116   0.678   2.935   8.431  0.3067  0.5354 -0.3112
 2519TIP3    H229117   0.554   2.983   8.359 -0.7245  0.0946  1.1269
 2520TIP3   OH229118   0.364   0.527   1.145 -0.2467  0.1961 -0.4886
 2520TIP3    H129119   0.275   0.522   1.109 -0.0386 -0.0753 -0.9816
 2520TIP3    H229120   0.399   0.609   1.110 -0.8594  1.1537  1.0390
 2521TIP3   OH229121   4.130   5.642   2.365 -0.2177  0.2048  0.4155
 2521TIP3    H129122   4.080   5.684   2.295  0.2615 -0.7044 -0.5004
 2521TIP3    H229123   4.152   5.713   2.425 -0.4962  1.0398 -0.4504
 2522TIP3   OH229124   2.316   5.278   8.772  0.0683 -0.2351  0.3260
 2522TIP3    H129125   2.389   5.298   8.713  0.5057  1.1558  1.2976
 2522TIP3    H229126   2.245   5.334   8.741 -0.1708 -0.6005  0.2130
 2523TIP3   OH229127   3.656   1.668   8.531  0.2617  0.5159 -0.3889
 2523TIP3    H129128   3.689   1.579   8.544  0.6341  0.8423  1.0867
 2523TIP3    H229129   3.564   1.663   8.556  0.2567  0.5150 -0.4082
 2524TIP3   OH229130   2.605   3.157   7.131  0.5164 -0.8575  0.5702
 2524TIP3    H129131   2.626   3.149   7.224 -0.9145 -0.6306  0.9420
 2524TIP3    H229132   2.683   3.196   7.092  1.5518 -1.9666  1.4770
 2525TIP3   OH229133   1.630   0.635   0.814 -0.3109  0.5363  0.2137
 2525TIP3    H129134   1.676   0.687   0.748 -0.5016  1.5886  0.8961
 2525TIP3    H229135   1.558   0.595   0.766 -0.2655  1.0360 -0.2831
 2526TIP3   OH229136   3.686   2.842   2.115 -0.1513 -0.3587  0.2998
 2526TIP3    H129137   3.752   2.887   2.064 -0.5548  0.0787  0.1565
 2526TIP3    H229138   3.610   2.836   2.057  0.1737 -2.0276 -0.0169
 2527TIP3   OH229139   1.791   5.546   0.668 -0.1796 -0.5087 -0.6028
 2527TIP3    H129140   1.883   5.538   0.694 -0.3596  0.7719  0.5001
 2527TIP3    H229141   1.747   5.474   0.714 -0.1701  0.5829  1.2016
 2528TIP3   OH229142   2.527   3.471   7.330 -0.0452 -0.1949  0.1002
 2528TIP3    H129143   2.584   3.441   7.259  0.8936 -0.3501  0.9143
 2528TIP3    H229144   2.585   3.517   7.391 -0.6780 -0.8424  1.2240
 2529TIP3   OH229145   4.958   6.754   7.363 -0.1047 -0.9820  0.2397
 2529TIP3    H129146   5.023   6.711   7.418 -0.2434 -1.0617  0.3443
 2529TIP3    H229147   4.997   6.838   7.338 -0.5818 -0.3333  1.5897
 2530TIP3   OH229148   0.639   4.557   6.954 -0.6663  0.0444  0.1887
 2530TIP3    H129149   0.569   4.612   6.918  0.0538  0.7089 -0.2110
 2530TIP3    H229150   0.608   4.534   7.042 -0.8834  1.2846  0.4566
 2531TIP3   OH229151   3.461   4.969   6.417 -0.2541 -0.4112  0.2265
 2531TIP3    H129152   3.370   4.967   6.446 -0.7395 -0.9344 -1.2532
 2531TIP3    H229153   3.512   4.969   6.498 -1.5638  0.6831  1.0992
 2532TIP3   OH229154   1.778   3.491   0.416  0.1771  0.1692 -0.0473
 2532TIP3    H129155   1.711   3.425   0.438 -1.1957  1.4799 -0.1208
 2532TIP3    H229156   1.737   3.544   0.347  1.1073  1.2894  0.2336
 2533TIP3   OH229157   1.290   2.709   7.466 -0.2916 -0.2969  0.3275
 2533TIP3    H129158   1.198   2.721   7.440  0.2869  1.9402 -0.9207
 2533TIP3    H229159   1.336   2.694   7.384  0.6243 -0.3558  0.8402
 2534TIP3   OH229160   2.481   1.798   0.024 -0.2099 -0.0379  0.0278
 2534TIP3    H129161   2.400   1.748   0.020 -0.0332 -0.5010  1.5669
 2534TIP3    H229162   2.547   1.735   0.055  0.2778  0.8318  0.8213
 2535TIP3   OH229163   0.463   3.923   8.714  0.2897  0.5358 -0.0652
 2535TIP3    H129164   0.479   3.868   8.637  0.3774 -0.5815  0.7375
 2535TIP3    H229165   0.368   3.933   8.717  0.3301  1.1854 -0.7226
 2536TIP3   OH229166   4.905   1.553   7.263 -0.0537 -0.3779 -0.3774
 2536TIP3    H129167   4.880   1.507   7.343 -0.0965 -1.7479 -1.1310
 2536TIP3    H229168   4.835   1.531   7.200 -0.3961  1.2537 -0.5996
 2537TIP3   OH229169   1.670   3.483   1.790 -0.0148 -0.2569  0.1977
 2537TIP3    H129170   1.672   3.493   1.885 -0.0572  1.4128  0.0653
 2537TIP3    H229171   1.701   3.394   1.774 -0.1471 -0.6149  1.7716
 2538TIP3   OH229172   4.231   1.902   1.958  0.2324 -0.1496  0.1067
 2538TIP3    H129173   4.183   1.819   1.961 -1.4809  0.8390  1.9656
 2538TIP3    H229174   4.241   1.927   2.049 -1.0492  2.6517 -0.4209
 2539TIP3   OH229175   4.874   5.145   6.990  0.2437 -0.5598  0.4789
 2539TIP3    H129176   4.877   5.090   6.912 -0.2514 -1.6244  1.1829
 2539TIP3    H229177   4.885   5.234   6.957 -2.1905 -0.7273 -1.0972
 2540TIP3   OH229178   4.597   4.450   2.307 -0.4032 -0.3657  0.1330
 2540TIP3    H129179   4.666   4.497   2.354  0.7168 -0.4019 -1.3706
 2540TIP3    H229180   4.545   4.407   2.375 -1.3175  2.7597  1.5800
 2541TIP3   OH229181   3.347   1.187   0.462  1.1169  0.4531 -0.1563
 2541TIP3    H129182   3.338   1.115   0.399  0.9357  0.7343 -0.4588
 2541TIP3    H229183   3.318   1.264   0.413  0.6308  0.6194  0.3916
 2542TIP3   OH229184   6.396   5.830   7.947  0.2346 -0.0782  0.7740
 2542TIP3    H129185   6.477   5.829   7.896 -0.5443  0.6885 -0.5663
 2542TIP3    H229186   6.418   5.880   8.026  1.6269 -1.7825  1.5332
 2543TIP3   OH229187   0.340   3.428   0.218  0.4580  0.9753  0.6660
 2543TIP3    H129188   0.248   3.428   0.243 -0.1588  0.7043 -1.4049
 2543TIP3    H229189   0.343   3.477   0.136  1.8489 -0.4886 -0.2362
 2544TIP3   OH229190   4.203   6.225   0.579  0.3788 -0.4608 -0.6334
 2544TIP3    H129191   4.158   6.296   0.534  0.0496  0.3914  0.9814
 2544TIP3    H229192   4.263   6.268   0.640  1.4712 -1.5804 -0.8683
 2545TIP3   OH229193   5.742   4.877   1.472 -0.6253  0.4344 -0.4673
 2545TIP3    H129194   5.745   4.877   1.568 -1.8471 -0.5260 -0.4065
 2545TIP3    H229195   5.730   4.969   1.448  0.5912  0.8069  0.2372
 2546TIP3   OH229196   3.382   3.428   8.281  0.0963 -0.2936  0.3312
 2546TIP3    H129197   3.358   3.450   8.191  1.8672  0.5338  0.0309
 2546TIP3    H229198   3.384   3.512   8.326  3.3089 -0.1412  0.0836
 2547TIP3   OH229199   1.881   1.527   1.294  0.3908 -0.2757  0.2554
 2547TIP3    H129200   1.816   1.471   1.251 -0.5670  0.0129  1.2946
 2547TIP3    H229201   1.963   1.507   1.248 -0.2230 -1.3920 -0.4130
 2548TIP3   OH229202   2.823   2.193   0.383 -0.2469 -0.0573 -0.8207
 2548TIP3    H129203   2.763   2.242   0.439 -0.6240 -1.4071  0.0156
 2548TIP3    H229204   2.890   2.161   0.443  0.9428  0.8393 -1.6336
 2549TIP3   OH229205   2.930   1.423   6.888 -0.0986  0.0032 -0.1219
 2549TIP3    H129206   2.957   1.512   6.868  0.3206  0.1468  1.0201
 2549TIP3    H229207   2.996   1.368   6.844 -0.5924  0.2193 -1.1768
 2550TIP3   OH229208   1.541   6.591   1.708  0.8040  0.3695  0.5699
 2550TIP3    H129209   1.456   6.605   1.751  1.1697  2.1882  0.7639
 2550TIP3    H229210   1.553   6.496   1.710 -0.9788  0.1157  1.0144
 2551TIP3   OH229211   0.679   2.252   8.558  0.1174  0.6557  0.3690
 2551TIP3    H129212   0.609   2.186   8.562  1.5213 -0.8391  1.8243
 2551TIP3    H229213   0.740   2.217   8.492  0.9508  0.3685  1.2678
 2552TIP3   OH229214   0.189   2.096   1.034  0.6629 -0.4519 -0.7061
 2552TIP3    H129215   0.243   2.017   1.042 -0.1003 -0.9309 -0.1173
 2552TIP3    H229216   0.218   2.151   1.107  0.2094 -0.8177 -0.2337
 2553TIP3   OH229217   3.675   0.835   8.508 -0.0048 -0.2512  0.5436
 2553TIP3    H129218   3.653   0.909   8.451  3.2020 -0.0903 -0.6803
 2553TIP3    H229219   3.744   0.868   8.566  0.4289 -1.8471  0.9902
 2554TIP3   OH229220   2.661   4.228   7.744  0.5137 -0.1160 -0.2181
 2554TIP3    H129221   2.636   4.320   7.736 -1.2572 -0.2478  2.5115
 2554TIP3    H229222   2.588   4.180   7.705  1.9178 -0.4388 -2.6238
 2555TIP3   OH229223   6.230   5.504   8.548  0.4404  0.2120  0.3137
 2555TIP3    H129224   6.221   5.451   8.627  1.4079 -0.1393  0.2013
 2555TIP3    H229225   6.180   5.456   8.482  0.0715  0.2290  0.5753
 2556TIP3   OH229226   3.551   2.365   0.882 -0.1354 -0.3272 -0.0484
 2556TIP3    H129227   3.472   2.387   0.930 -0.1583  0.7462 -0.5475
 2556TIP3    H229228   3.545   2.270   0.867 -0.4375 -0.5594  1.4563
 2557TIP3   OH229229   2.891   2.337   8.027 -0.1769 -0.6153  0.3533
 2557TIP3    H129230   2.952   2.382   7.968 -2.4214  0.7382 -1.0570
 2557TIP3    H229231   2.928   2.351   8.115  2.1506 -0.9198 -0.5090
 2558TIP3   OH229232   1.922   6.534   0.125 -0.6231  0.3563 -0.2494
 2558TIP3    H129233   1.879   6.497   0.048 -0.5446 -0.4659  0.0888
 2558TIP3    H229234   1.957   6.618   0.095  0.9332 -0.7206 -1.6317
 2559TIP3   OH229235   4.867   1.035   7.025  0.0037  0.4184 -0.4741
 2559TIP3    H129236   4.956   1.034   6.988 -0.2443 -0.5583 -1.0934
 2559TIP3    H229237   4.812   1.000   6.955 -0.6281 -0.5342  0.4620
 2560TIP3   OH229238   3.437   0.792   7.493 -0.2404  0.6126 -0.1685
 2560TIP3    H129239   3.347   0.809   7.522  0.2795  1.3432  1.1046
 2560TIP3    H229240   3.445   0.839   7.410 -0.9230  0.8273 -0.1179
 2561TIP3   OH229241   0.008   4.063   1.261 -0.6880  0.7226 -0.1403
 2561TIP3    H129242  -0.056   4.001   1.225  0.2563 -0.4571  0.1594
 2561TIP3    H229243   0.001   4.140   1.204 -1.8857  0.3562 -0.5239
 2562TIP3   OH229244   0.541   0.785   0.904 -0.2557 -0.5124  0.3070
 2562TIP3    H129245   0.565   0.692   0.914 -0.6331 -0.5541  0.8625
 2562TIP3    H229246   0.473   0.799   0.970  1.0350  0.6175  1.4535
 2563TIP3   OH229247   2.582   5.900   8.624  0.2744  0.3114 -0.1452
 2563TIP3    H129248   2.576   5.878   8.531 -0.4134 -0.1591 -0.0028
 2563TIP3    H229249   2.547   5.989   8.630  0.1711  0.2834 -0.3187
 2564TIP3   OH229250   5.131   6.717   6.225  0.7607 -0.2518  0.2268
 2564TIP3    H129251   5.071   6.643   6.213  1.0748 -0.4684 -0.0320
 2564TIP3    H229252   5.218   6.679   6.215  0.9009  0.4157 -1.4440
 2565TIP3   OH229253   1.390   1.437   2.058  0.0758  0.1268 -0.4544
 2565TIP3    H129254   1.364   1.475   1.974 -4.4539 -0.5792  0.4096
 2565TIP3    H229255   1.418   1.513   2.110  2.0832  0.6752 -2.1663
 2566TIP3   OH229256   6.694   2.849   0.373 -0.0746  1.0739 -0.1189
 2566TIP3    H129257   6.640   2.831   0.450 -0.6985 -0.6926 -0.8993
 2566TIP3    H229258   6.757   2.915   0.401 -0.9009  1.1609  1.6131
 2567TIP3   OH229259   5.725   0.197   6.829 -0.1218  0.0862 -0.2448
 2567TIP3    H129260   5.698   0.110   6.801  2.1636 -0.9134  0.3687
 2567TIP3    H229261   5.787   0.226   6.762  0.2944  0.5687  0.3361
 2568TIP3   OH229262   5.180   4.485   0.053  0.3173  0.0441  0.2864
 2568TIP3    H129263   5.263   4.485   0.006  0.2459  0.6085  0.1561
 2568TIP3    H229264   5.154   4.393   0.056 -0.9913  0.1631 -3.1215
 2569TIP3   OH229265   5.465   3.365   1.546 -0.1517 -0.1125 -0.4644
 2569TIP3    H129266   5.446   3.458   1.540  2.3069  0.6639  1.8970
 2569TIP3    H229267   5.379   3.324   1.554 -1.2692  1.9889 -0.9375
 2570TIP3   OH229268   2.086   3.396   0.110 -0.2873 -0.3469 -0.2358
 2570TIP3    H129269   2.156   3.440   0.062  0.4076  1.4298  2.1646
 2570TIP3    H229270   2.015   3.386   0.046  0.1886  2.7335 -1.4543
 2571TIP3   OH229271   3.844   0.369   8.752 -0.1881  0.7661  0.0661
 2571TIP3    H129272   3.919   0.320   8.785 -0.7734 -1.2476 -1.3785
 2571TIP3    H229273   3.878   0.416   8.676  0.0412  1.4475  0.5842
 2572TIP3   OH229274   1.016   4.610   0.760 -0.5133 -0.3548 -0.3720
 2572TIP3    H129275   1.104   4.579   0.785 -0.4760 -0.3753 -0.5292
 2572TIP3    H229276   1.028   4.648   0.673 -0.3737  0.9481  0.2019
 2573TIP3   OH229277   3.257   3.204   1.896 -0.3668 -1.1560  0.0442
 2573TIP3    H129278   3.338   3.230   1.941  0.4133 -1.9239 -0.8770
 2573TIP3    H229279   3.263   3.109   1.891 -0.7709 -1.1342 -1.0492
 2574TIP3   OH229280   0.477   3.746   1.843 -0.2987  0.1623 -0.0364
 2574TIP3    H129281   0.478   3.802   1.921 -2.3822 -0.6278  0.6289
 2574TIP3    H229282   0.384   3.733   1.824  0.1617 -0.8505 -1.8025
 2575TIP3   OH229283   6.699   6.575   8.796  0.1254 -0.2769  0.1955
 2575TIP3    H129284   6.660   6.521   8.864  0.5548  1.0788  1.5733
 2575TIP3    H229285   6.753   6.638   8.843 -1.8850  2.6696 -1.1339
 2576TIP3   OH229286   6.357   1.391   8.263  0.3209 -0.1609 -0.4865
 2576TIP3    H129287   6.441   1.409   8.219 -1.0096  0.9099 -2.7958
 2576TIP3    H229288   6.303   1.467   8.243 -0.8168 -0.1641  2.1491
 2577TIP3   OH229289   6.199   0.417   6.842  0.3934 -0.5376  0.6258
 2577TIP3    H129290   6.142   0.433   6.918 -0.7322  0.3895 -0.3671
 2577TIP3    H229291   6.151   0.355   6.788 -0.8718  1.9540 -1.3416
 2578TIP3   OH229292   5.125   1.953   7.432  0.2493 -0.1337  0.1022
 2578TIP3    H129293   5.049   1.966   7.376  0.4670 -0.3173 -0.2402
 2578TIP3    H229294   5.134   1.858   7.439  0.0062 -0.1132  0.7512
 2579TIP3   OH229295   1.788   1.048   1.778  0.2726 -0.5900 -0.4185
 2579TIP3    H129296   1.762   1.052   1.871  0.9952 -2.2725 -0.1201
 2579TIP3    H229297   1.742   1.122   1.738 -0.1831  0.0784  1.2486
 2580TIP3   OH229298   6.529   2.444   0.753 -0.5845 -0.0392  0.4930
 2580TIP3    H129299   6.616   2.483   0.749 -0.8614  0.6834  1.2397
 2580TIP3    H229300   6.504   2.450   0.845 -1.5208 -0.0219  0.2437
 2581TIP3   OH229301   5.484   2.135   8.761  0.3529 -0.5725  0.4292
 2581TIP3    H129302   5.419   2.104   8.697  0.6815 -0.1132 -0.1274
 2581TIP3    H229303   5.565   2.090   8.737  0.7657  0.4811 -0.2108
 2582TIP3   OH229304   3.698   3.386   8.178 -0.4105  0.2238  0.2108
 2582TIP3    H129305   3.625   3.434   8.217  0.2170  0.0343  1.6465
 2582TIP3    H229306   3.667   3.296   8.172 -0.4872  0.2438  0.3102
 2583TIP3   OH229307   2.050   0.807   0.114 -0.0897  0.3328  0.3888
 2583TIP3    H129308   2.015   0.894   0.133 -3.3089 -1.0929  1.7279
 2583TIP3    H229309   1.973   0.753   0.097  1.6821 -2.5133  0.6555
 2584TIP3   OH229310   0.292   6.298   7.665 -0.3796  0.4678  0.2219
 2584TIP3    H129311   0.334   6.272   7.583 -1.2297 -0.8572  0.1723
 2584TIP3    H229312   0.360   6.345   7.713  0.3549  0.6154 -0.9233
 2585TIP3   OH229313   2.372   6.440   8.317 -0.8616 -0.2078  0.2988
 2585TIP3    H129314   2.383   6.477   8.230  0.9834  1.7134  1.2556
 2585TIP3    H229315   2.450   6.468   8.365 -1.2874 -2.1180  2.2797
 2586TIP3   OH229316   1.808   4.747   7.102  0.1083  0.1435 -0.0743
 2586TIP3    H129317   1.866   4.807   7.056 -1.1944  1.1922 -0.3960
 2586TIP3    H229318   1.823   4.766   7.195  0.9735 -0.2965 -0.1056
 2587TIP3   OH229319   1.558   4.371   7.817 -0.0764 -0.1888  0.1813
 2587TIP3    H129320   1.515   4.396   7.899  1.7855 -2.2073  1.8736
 2587TIP3    H229321   1.630   4.433   7.807  0.0118 -0.2638  0.3544
 2588TIP3   OH229322   1.630   3.987   0.110 -0.2418  0.0261 -0.2112
 2588TIP3    H129323   1.577   4.036   0.047 -0.2872  0.1324 -0.0894
 2588TIP3    H229324   1.568   3.929   0.154 -0.4734  1.0045  0.7783
 2589TIP3   OH229325   6.183   5.939   0.357  0.6692 -0.5980  0.5173
 2589TIP3    H129326   6.166   5.938   0.263 -1.7064 -0.7802  0.8877
 2589TIP3    H229327   6.196   5.847   0.380 -2.8952 -1.1575  0.9173
 2590TIP3   OH229328   4.892   6.300   7.016 -0.0827 -0.1407 -0.2547
 2590TIP3    H129329   4.887   6.204   7.023 -2.0292 -0.0450  0.4446
 2590TIP3    H229330   4.885   6.317   6.922 -2.8288 -0.6713 -0.2519
 2591TIP3   OH229331   2.251   1.026   6.532  0.1431 -0.9119 -0.1014
 2591TIP3    H129332   2.303   0.960   6.578  0.8470 -0.2299  0.0869
 2591TIP3    H229333   2.168   0.982   6.514 -0.4702 -0.9622  2.4810
 2592TIP3   OH229334   1.134   4.090   8.622  0.0847 -0.0727  0.5454
 2592TIP3    H129335   1.177   4.165   8.663  1.9566 -0.8665  0.1087
 2592TIP3    H229336   1.060   4.071   8.680  2.3327 -0.8608  3.3537
 2593TIP3   OH229337   6.288   6.348   8.227 -0.1129 -0.0020  0.3646
 2593TIP3    H129338   6.262   6.437   8.248 -0.3427 -0.2890  1.3447
 2593TIP3    H229339   6.284   6.343   8.132 -0.9670  0.7707  0.3531
 2594TIP3   OH229340   0.647   3.059   2.702 -0.1042  0.0944 -0.0708
 2594TIP3    H129341   0.728   3.107   2.718 -0.4281  0.0785  1.8017
 2594TIP3    H229342   0.641   3.053   2.606  1.9948  0.2483 -0.2491
 2595TIP3   OH229343   4.711   1.170   8.605 -0.1602 -0.2573 -0.0502
 2595TIP3    H129344   4.705   1.222   8.525  1.3088  1.2496  0.7552
 2595TIP3    H229345   4.734   1.234   8.673  0.8210 -1.8287  1.1583
 2596TIP3   OH229346   0.126   2.639   6.235 -0.4439  0.0492  0.2008
 2596TIP3    H129347   0.201   2.690   6.266 -1.6028  1.3445  1.0044
 2596TIP3    H229348   0.162   2.583   6.167  0.9536  1.8542 -0.6467
 2597TIP3   OH229349   4.114   3.151   1.819 -0.0151 -0.8089 -0.1300
 2597TIP3    H129350   4.100   3.217   1.752  0.1909 -1.1179 -0.4785
 2597TIP3    H229351   4.095   3.196   1.902  1.2936  0.0245 -0.2577
 2598TIP3   OH229352   2.539   6.682   7.010 -0.1025  0.1667  0.2586
 2598TIP3    H129353   2.472   6.716   7.069 -1.1913  0.3180 -1.0159
 2598TIP3    H229354   2.576   6.759   6.968  0.5071  0.0466  0.5680
 2599TIP3   OH229355   2.854   4.437   1.008  0.3831  0.0947  0.0289
 2599TIP3    H129356   2.881   4.469   1.094 -0.4772 -0.5304  0.5471
 2599TIP3    H229357   2.758   4.443   1.009  0.2680 -1.4498 -0.2707
 2600TIP3   OH229358   2.969   3.601   7.198  0.4530  0.0064 -0.1574
 2600TIP3    H129359   2.883   3.645   7.198  0.5887  0.3233 -1.6804
 2600TIP3    H229360   2.948   3.508   7.207 -0.0741  0.0564 -0.8114
 2601TIP3   OH229361   2.734   1.423   1.233  0.1715  0.9140  0.2721
 2601TIP3    H129362   2.639   1.434   1.226 -0.0081 -0.0711  1.0811
 2601TIP3    H229363   2.751   1.424   1.327  0.8017 -0.1929  0.1798
 2602TIP3   OH229364   4.328   3.126   6.542  0.4535  0.2842  0.0382
 2602TIP3    H129365   4.402   3.186   6.549 -0.3116  1.0770  2.0592
 2602TIP3    H229366   4.358   3.046   6.585  1.0974 -0.4775 -1.7181
 2603TIP3   OH229367   1.853   0.849   7.540 -0.2825 -1.1152  0.0343
 2603TIP3    H129368   1.830   0.785   7.606  0.9311  0.5470  2.2168
 2603TIP3    H229369   1.792   0.922   7.553 -0.0162 -0.7458 -0.6795
 2604TIP3   OH229370   2.652   6.750   1.302 -0.1453 -0.3473 -0.1128
 2604TIP3    H129371   2.694   6.686   1.244  1.9550  1.9580 -1.3131
 2604TIP3    H229372   2.703   6.747   1.383 -1.0323 -1.2351  0.4401
 2605TIP3   OH229373   3.771   3.479   0.685 -0.0549  0.0602  0.0423
 2605TIP3    H129374   3.784   3.554   0.627 -0.6883  0.7730  0.7961
 2605TIP3    H229375   3.687   3.496   0.728  0.0077 -0.8634  0.5669
 2606TIP3   OH229376   4.859   1.057   8.239  0.2532  0.5588 -0.0924
 2606TIP3    H129377   4.864   0.983   8.180 -1.7987  0.2026  0.0827
 2606TIP3    H229378   4.927   1.041   8.305 -0.1231 -1.1662 -0.0741
 2607TIP3   OH229379   1.555   5.016   0.226 -0.3925 -0.9360 -0.2579
 2607TIP3    H129380   1.647   5.014   0.201 -0.3143  1.1448 -0.3153
 2607TIP3    H229381   1.555   5.000   0.320  0.0236 -1.0491 -0.2767
 2608TIP3   OH229382   4.425   3.563   1.822  0.0259 -0.0925  0.1083
 2608TIP3    H129383   4.436   3.523   1.908 -0.7315 -1.6969 -0.5053
 2608TIP3    H229384   4.421   3.657   1.839  2.1506 -0.2045  1.5792
 2609TIP3   OH229385   0.338   2.202   0.339  0.2163 -1.0385  0.2889
 2609TIP3    H129386   0.270   2.220   0.274  0.6885  1.1616  0.3349
 2609TIP3    H229387   0.310   2.249   0.417  1.7570 -0.0933  0.3105
 2610TIP3   OH229388   5.239   5.927   7.650 -0.1747 -0.0348 -0.3415
 2610TIP3    H129389   5.236   5.901   7.743  0.1259 -3.1504 -1.0973
 2610TIP3    H229390   5.233   6.022   7.652 -1.6925 -0.0598  2.8175
 2611TIP3   OH229391   5.587   3.488   0.958  0.0495  0.1359  0.9263
 2611TIP3    H129392   5.646   3.557   0.925  0.8391  0.0671  2.1234
 2611TIP3    H229393   5.626   3.407   0.928 -1.0991  0.1831 -0.8268
 2612TIP3   OH229394   4.482   3.497   6.805 -0.8470 -0.4545 -1.0046
 2612TIP3    H129395   4.487   3.425   6.743 -0.3206 -0.9179 -0.4367
 2612TIP3    H229396   4.556   3.484   6.865 -2.6407 -1.3928  1.1548
 2613TIP3   OH229397   1.792   3.913   8.306  0.4452 -0.3883  0.0148
 2613TIP3    H129398   1.726   3.936   8.372  0.7684  0.0976  0.1765
 2613TIP3    H229399   1.816   3.997   8.266 -1.2940 -0.8566 -2.2397
 2614TIP3   OH229400   1.756   2.530   7.828 -0.2101 -0.3375  0.0928
 2614TIP3    H129401   1.713   2.599   7.879 -1.8542 -1.7153  0.6623
 2614TIP3    H229402   1.694   2.510   7.759  0.7774 -0.4554 -0.7848
 2615TIP3   OH229403   1.811   6.427   6.388  0.2465  0.2780  0.6958
 2615TIP3    H129404   1.716   6.429   6.385  0.2644  1.0692  0.3590
 2615TIP3    H229405   1.838   6.513   6.356  1.0033  0.9888  3.0106
 2616TIP3   OH229406   1.332   2.391   1.582 -0.6557 -0.1849  0.3687
 2616TIP3    H129407   1.401   2.377   1.518  0.4506 -3.5010  2.0203
 2616TIP3    H229408   1.253   2.359   1.540 -0.7070  1.1657 -0.6034
 2617TIP3   OH229409   4.313   5.634   1.368  0.7096  0.5162  0.3400
 2617TIP3    H129410   4.268   5.601   1.290 -1.4963  2.3156  0.7099
 2617TIP3    H229411   4.375   5.566   1.391 -0.1494 -1.0711 -1.6805
 2618TIP3   OH229412   2.743   5.039   1.246 -0.5993 -0.4441 -0.1583
 2618TIP3    H129413   2.704   5.122   1.272  1.4596  0.6451 -0.4117
 2618TIP3    H229414   2.728   4.981   1.321  0.0858  0.8957  1.0614
 2619TIP3   OH229415   6.740   6.449   1.755  0.5752  0.0685  0.5783
 2619TIP3    H129416   6.687   6.384   1.802  1.1164 -0.6644  0.1783
 2619TIP3    H229417   6.729   6.529   1.807  1.2123 -0.7313  2.0197
 2620TIP3   OH229418   2.698   4.994   1.533 -0.2808 -0.1417  0.1944
 2620TIP3    H129419   2.680   5.088   1.526  0.5839  0.0900  0.8903
 2620TIP3    H229420   2.693   4.975   1.627  1.8004 -0.2936  0.3190
 2621TIP3   OH229421   5.255   1.574   1.872 -0.4540  0.4244 -0.3421
 2621TIP3    H129422   5.221   1.488   1.846  0.2597 -0.0565  0.2935
 2621TIP3    H229423   5.187   1.610   1.929 -0.9780  0.5032 -1.0005
 2622TIP3   OH229424   0.518   1.316   7.327  0.2810  0.1107  0.5309
 2622TIP3    H129425   0.445   1.353   7.276  0.8873 -0.5090 -0.8299
 2622TIP3    H229426   0.496   1.337   7.418 -1.3182  0.4213  0.1073
 2623TIP3   OH229427   5.751   2.459   1.799 -0.6334 -0.1623 -0.0694
 2623TIP3    H129428   5.667   2.451   1.754 -1.3787 -1.1111  1.3904
 2623TIP3    H229429   5.745   2.541   1.848  0.0552  0.7127 -1.4030
 2624TIP3   OH229430   5.738   1.747   0.506  0.1753  0.1915  0.0841
 2624TIP3    H129431   5.702   1.658   0.505 -0.6975  0.4624  1.9044
 2624TIP3    H229432   5.667   1.802   0.472  0.3420  0.2946 -0.0987
 2625TIP3   OH229433   1.615   1.964   8.516  0.1663 -0.4868  0.5641
 2625TIP3    H129434   1.683   1.989   8.453  0.2599 -0.9251  0.4905
 2625TIP3    H229435   1.662   1.925   8.589  0.0609  0.0942  0.9451
 2626TIP3   OH229436   0.791   2.187   0.783 -0.4955  0.1867 -0.0774
 2626TIP3    H129437   0.877   2.153   0.808 -0.4582 -1.3935 -2.0230
 2626TIP3    H229438   0.729   2.136   0.835 -0.2968  0.3426  0.3138
 2627TIP3   OH229439   5.655   6.054   0.914  0.0972 -0.5318  0.6469
 2627TIP3    H129440   5.621   6.101   0.837  1.9613 -0.1467  0.0151
 2627TIP3    H229441   5.577   6.034   0.966 -1.2705 -1.1469 -1.5248
 2628TIP3   OH229442   0.925   4.321   8.597  0.2744 -0.2753  0.1046
 2628TIP3    H129443   1.001   4.305   8.541 -0.8881 -1.3784 -1.2369
 2628TIP3    H229444   0.929   4.415   8.617  1.6971 -0.2156 -0.3723
 2629TIP3   OH229445   4.208   2.841   0.021 -0.3111  0.6969  0.1317
 2629TIP3    H129446   4.123   2.799   0.032  0.5439 -0.9071  0.7981
 2629TIP3    H229447   4.206   2.917   0.079 -0.5247 -0.5395  1.7938
 2630TIP3   OH229448   3.982   4.703   1.003  0.4719  0.4737  0.4987
 2630TIP3    H129449   3.971   4.798   1.002 -0.2780  0.4001  0.9723
 2630TIP3    H229450   3.984   4.680   1.096 -0.2707 -0.0696  0.3912
 2631TIP3   OH229451   4.977   3.896   8.302  0.0048  0.6554 -0.1066
 2631TIP3    H129452   5.009   3.978   8.341 -0.0839  0.8253 -0.3933
 2631TIP3    H229453   4.921   3.924   8.230 -2.9087  0.4549  1.8987
 2632TIP3   OH229454   0.598   0.479   1.375 -0.4513 -0.5314  0.1597
 2632TIP3    H129455   0.563   0.569   1.378 -0.5033 -0.5236 -0.5009
 2632TIP3    H229456   0.693   0.491   1.372 -0.4623 -0.4905 -0.0704
 2633TIP3   OH229457   1.524   1.146   0.423 -0.3160  0.3213  0.2339
 2633TIP3    H129458   1.457   1.190   0.371  0.0517  0.3084 -0.2568
 2633TIP3    H229459   1.570   1.090   0.361  1.1639  1.4777  0.2201
 2634TIP3   OH229460   2.313   4.638   1.068 -0.3830 -0.0914 -0.0012
 2634TIP3    H129461   2.222   4.667   1.076  0.4201  2.4526  0.8203
 2634TIP3    H229462   2.324   4.573   1.137 -1.1367  0.8565  1.0483
 2635TIP3   OH229463   0.200   0.792   1.325 -0.1791 -0.2681 -0.0812
 2635TIP3    H129464   0.132   0.752   1.272  0.0288 -0.6321 -0.0734
 2635TIP3    H229465   0.157   0.869   1.364 -0.8270 -0.9390  0.5648
 2636TIP3   OH229466   5.312   6.279   8.323  0.0724 -0.5472  0.4629
 2636TIP3    H129467   5.362   6.198   8.315  0.8615 -0.0461  0.2416
 2636TIP3    H229468   5.355   6.328   8.393 -0.3084 -0.2469  0.4945
 2637TIP3   OH229469   5.452   2.418   8.704  0.4642 -0.3792 -0.2074
 2637TIP3    H129470   5.413   2.346   8.753  2.1715 -2.0641 -1.1722
 2637TIP3    H229471   5.468   2.486   8.770 -0.9457 -0.9556  0.7755
 2638TIP3   OH229472   5.976   1.554   6.762 -0.4885 -0.2195  0.0023
 2638TIP3    H129473   5.912   1.555   6.833 -2.0611  0.4624 -1.3464
 2638TIP3    H229474   5.924   1.551   6.682  1.1336  0.8285 -1.1868
 2639TIP3   OH229475   6.710   0.580   8.218  0.4837  0.0186  0.4093
 2639TIP3    H129476   6.707   0.531   8.136  1.4505  0.6786 -0.0281
 2639TIP3    H229477   6.802   0.580   8.244  0.7072  2.4517 -0.1411
 2640TIP3   OH229478   5.151   1.882   7.070  0.1329  0.0151 -0.1192
 2640TIP3    H129479   5.244   1.891   7.050 -0.1151 -1.1501 -2.0847
 2640TIP3    H229480   5.121   1.811   7.013 -2.0129  0.5376  0.2681
 2641TIP3   OH229481   2.821   2.823   6.192 -0.2330  0.7779  0.2476
 2641TIP3    H129482   2.778   2.738   6.182 -0.6883  0.9017  1.0942
 2641TIP3    H229483   2.768   2.883   6.139  1.1363  0.2340 -1.8852
 2642TIP3   OH229484   4.381   6.797   0.787  0.1141  0.6775 -0.2823
 2642TIP3    H129485   4.341   6.719   0.824 -1.5145  1.6321  0.0431
 2642TIP3    H229486   4.407   6.771   0.698  0.7736 -0.5715  0.2513
 2643TIP3   OH229487   0.046   3.906   7.277 -0.5663  0.0086  0.4378
 2643TIP3    H129488  -0.010   3.879   7.205  1.4007  1.0840 -1.6344
 2643TIP3    H229489   0.130   3.865   7.258  0.2240  0.9912  1.6517
 2644TIP3   OH229490   3.521   3.569   7.525  0.1410  0.0618  0.4834
 2644TIP3    H129491   3.435   3.558   7.486  0.6661  0.3408 -0.8251
 2644TIP3    H229492   3.539   3.486   7.568 -0.2607 -0.4590 -0.3306
 2645TIP3   OH229493   3.736   4.048   1.483 -0.4605 -0.5102 -0.4219
 2645TIP3    H129494   3.679   3.976   1.455 -0.7308 -1.1963  1.7172
 2645TIP3    H229495   3.683   4.096   1.546  0.7337 -0.1598  0.3370
 2646TIP3   OH229496   4.884   5.530   0.319 -0.1026 -0.7808  0.5135
 2646TIP3    H129497   4.973   5.499   0.299  0.2902  1.9122 -2.8175
 2646TIP3    H229498   4.827   5.476   0.265 -0.0989 -0.1389 -0.1393
 2647TIP3   OH229499   3.183   6.269   1.465  0.0277 -0.2299  0.3719
 2647TIP3    H129500   3.165   6.209   1.393  0.7967  0.1663 -0.1655
 2647TIP3    H229501   3.201   6.213   1.540 -0.0012 -0.6551  0.0626
 2648TIP3   OH229502   2.056   0.536   1.430  0.2137 -0.4966 -0.0435
 2648TIP3    H129503   2.072   0.485   1.351 -0.8918 -1.6771  0.4609
 2648TIP3    H229504   1.981   0.591   1.410 -0.8282 -1.6599  0.5282
 2649TIP3   OH229505   1.639   5.952   7.673  0.5742 -0.3929 -0.4319
 2649TIP3    H129506   1.582   5.904   7.613 -1.1515 -0.1551  0.9632
 2649TIP3    H229507   1.646   5.897   7.750  1.0780  0.2382 -0.0103
 2650TIP3   OH229508   3.506   4.382   2.161 -0.0839 -0.0885 -0.0803
 2650TIP3    H129509   3.507   4.380   2.066  6.1982 -2.1651 -0.4304
 2650TIP3    H229510   3.518   4.474   2.184  2.5146  0.0843 -1.7291
 2651TIP3   OH229511   0.317   0.557   0.417 -0.3202  0.0149 -0.5150
 2651TIP3    H129512   0.289   0.599   0.498 -0.4961  1.0290 -1.0884
 2651TIP3    H229513   0.313   0.626   0.351  0.4369 -0.6307 -1.2658
 2652TIP3   OH229514   1.733   6.651   7.107  0.2381 -0.5318  0.4800
 2652TIP3    H129515   1.827   6.656   7.092  0.6229 -0.9768  2.4489
 2652TIP3    H229516   1.715   6.719   7.172 -1.0748  0.5067 -0.9044
 2653TIP3   OH229517   5.510   5.242   6.868 -0.5091 -0.5582 -0.2433
 2653TIP3    H129518   5.556   5.325   6.879 -2.3250  1.0080 -3.1018
 2653TIP3    H229519   5.470   5.225   6.953 -0.7483  1.9897  0.2301
 2654TIP3   OH229520   0.003   1.270   8.246 -0.4137  0.9622 -0.3093
 2654TIP3    H129521   0.072   1.298   8.306  0.1421  0.6233 -0.7890
 2654TIP3    H229522   0.028   1.181   8.220 -0.9978  0.8590 -0.5375
 2655TIP3   OH229523   5.264   5.765   0.388 -0.0104  0.1280  0.2719
 2655TIP3    H129524   5.199   5.802   0.447  1.7073  1.1501  1.6133
 2655TIP3    H229525   5.333   5.831   0.384  1.2299 -1.1579 -0.6311
 2656TIP3   OH229526   1.776   6.649   1.858 -0.0825 -0.6473  0.4539
 2656TIP3    H129527   1.749   6.589   1.927 -0.4674 -1.6349 -0.5321
 2656TIP3    H229528   1.710   6.638   1.789  0.5233  0.0088 -0.2579
 2657TIP3   OH229529   0.064   0.159   1.507  0.6671 -0.1434 -0.3304
 2657TIP3    H129530   0.013   0.082   1.531 -2.4731  1.8192 -0.1384
 2657TIP3    H229531   0.068   0.211   1.587  2.1668  0.2161 -0.6153
 2658TIP3   OH229532   4.339   1.163   7.526 -0.1189 -0.1024 -0.2806
 2658TIP3    H129533   4.408   1.138   7.466  0.0731  0.7616 -0.4290
 2658TIP3    H229534   4.317   1.082   7.573  2.0222 -0.0853  0.8439
 2659TIP3   OH229535   5.137   4.082   8.419 -0.2692 -0.6059  0.2280
 2659TIP3    H129536   5.133   4.063   8.513 -2.3413  1.3062  0.6275
 2659TIP3    H229537   5.207   4.147   8.411 -0.1805 -0.6679  0.4868
 2660TIP3   OH229538   5.576   4.919   6.909  0.0401  0.7031  0.0482
 2660TIP3    H129539   5.594   4.947   6.999 -4.4145 -0.3672  1.5454
 2660TIP3    H229540   5.607   4.828   6.905  2.5403  1.5124 -0.4562
 2661TIP3   OH229541   3.072   2.326   0.307  0.1194  0.0687 -0.4800
 2661TIP3    H129542   3.020   2.368   0.238  0.4772 -1.4812 -1.7677
 2661TIP3    H229543   3.009   2.279   0.360 -0.1257  1.0156  0.0910
 2662TIP3   OH229544   1.680   2.556   7.136  0.1986 -0.3200 -0.0844
 2662TIP3    H129545   1.766   2.522   7.162  0.0006  0.6364  2.0692
 2662TIP3    H229546   1.700   2.628   7.076  0.9567  0.1133  0.6559
 2663TIP3   OH229547   6.339   0.025   8.291 -0.1252  0.0272 -0.1587
 2663TIP3    H129548   6.342   0.060   8.202 -0.5461  1.5683  0.4103
 2663TIP3    H229549   6.281  -0.051   8.285 -1.7608  1.2619 -0.8405
 2664TIP3   OH229550   2.958   5.812   8.531 -0.3691  0.3350 -0.7163
 2664TIP3    H129551   2.953   5.858   8.615 -0.4883 -0.2280 -0.4115
 2664TIP3    H229552   3.001   5.729   8.552  0.1758  0.4520 -1.3273
 2665TIP3   OH229553   2.596   1.347   0.856  0.1302 -0.2549 -0.2009
 2665TIP3    H129554   2.569   1.266   0.897  1.2262 -0.5705 -0.0708
 2665TIP3    H229555   2.674   1.324   0.805  0.1503  0.6041 -0.5932
 2666TIP3   OH229556   3.529   4.868   1.481 -0.1500 -0.1238  0.4554
 2666TIP3    H129557   3.503   4.777   1.471  0.4579 -0.4044  1.2867
 2666TIP3    H229558   3.531   4.903   1.392  0.4452 -1.1665  0.0449
 2667TIP3   OH229559   5.790   3.044   0.064 -0.2705  0.3030 -0.0416
 2667TIP3    H129560   5.784   3.118   0.125  1.0777  1.2737 -1.0421
 2667TIP3    H229561   5.840   2.978   0.111 -2.3438 -0.4256  1.2461
 2668TIP3   OH229562   5.774   1.772   1.024  0.1692  0.2327 -0.1341
 2668TIP3    H129563   5.772   1.721   1.105  1.1677  1.0000  0.4028
 2668TIP3    H229564   5.818   1.716   0.960 -2.3838 -1.1886 -0.7915
 2669TIP3   OH229565   3.374   5.032   7.910  0.0965  0.3154  0.3288
 2669TIP3    H129566   3.445   5.016   7.973  0.1519 -0.6260  0.0446
 2669TIP3    H229567   3.340   4.945   7.890 -0.2441  0.6430 -0.5706
 2670TIP3   OH229568   3.478   2.475   0.031 -0.2864 -0.1489 -0.1856
 2670TIP3    H129569   3.492   2.516  -0.054 -1.3743  1.1440  0.2178
 2670TIP3    H229570   3.528   2.393   0.027  2.8179  1.6346 -0.6692
 2671TIP3   OH229571   5.347   4.969   0.986 -0.1410  0.5078 -0.8204
 2671TIP3    H129572   5.375   4.878   0.991 -0.3093  0.4807 -0.3749
 2671TIP3    H229573   5.329   4.994   1.077  0.6355  1.2112 -0.8377
 2672TIP3   OH229574   1.456   2.424   0.835  0.1343 -0.4801 -0.1876
 2672TIP3    H129575   1.422   2.469   0.912 -2.4680 -2.7354  0.1217
 2672TIP3    H229576   1.546   2.401   0.860  0.6174  2.0350  0.6564
 2673TIP3   OH229577   2.694   0.994   7.567 -0.1004 -0.2425  0.1367
 2673TIP3    H129578   2.651   0.916   7.532 -1.3805  0.8157 -0.7417
 2673TIP3    H229579   2.640   1.021   7.641  0.7128 -0.5498  0.8581
 2674TIP3   OH229580   0.981   6.069   7.508 -0.6256  0.0010  0.7568
 2674TIP3    H129581   0.989   5.999   7.443 -1.9754 -0.6651  1.2755
 2674TIP3    H229582   0.946   6.143   7.459 -0.2788 -0.0367  0.4421
 2675TIP3   OH229583   2.769   3.000   8.259 -0.5648 -0.5063  0.1550
 2675TIP3    H129584   2.818   3.082   8.255  0.7095 -1.2692 -0.2616
 2675TIP3    H229585   2.693   3.016   8.202 -0.9544  0.7558  0.9734
 2676TIP3   OH229586   6.641   6.047   1.816 -0.1765  0.4254  0.2079
 2676TIP3    H129587   6.701   6.015   1.883  0.5393  2.2544  0.5125
 2676TIP3    H229588   6.691   6.042   1.735  0.0605  1.0043  0.3074
 2677TIP3   OH229589   4.312   2.993   2.133 -0.1009 -0.8606  0.5284
 2677TIP3    H129590   4.387   3.050   2.121 -1.4391  0.4477 -3.0888
 2677TIP3    H229591   4.341   2.908   2.101 -0.2549 -0.1735 -1.5961
 2678TIP3   OH229592   3.689   4.613   0.269 -0.1135 -0.2493  0.4279
 2678TIP3    H129593   3.725   4.659   0.345  0.5783 -0.2231  0.0970
 2678TIP3    H229594   3.723   4.523   0.279  1.8947  0.2734 -1.0126
 2679TIP3   OH229595   5.680   1.159   7.723 -0.2551  0.3920 -0.0849
 2679TIP3    H129596   5.603   1.103   7.716  0.5562 -0.6923 -0.5894
 2679TIP3    H229597   5.670   1.222   7.652 -0.4440 -0.0267 -0.4318
 2680TIP3   OH229598   6.061   1.530   8.644  0.0108  0.2794  0.5510
 2680TIP3    H129599   6.122   1.472   8.599  1.6045  2.8040 -0.7579
 2680TIP3    H229600   6.065   1.503   8.736  0.0204 -2.1727 -0.1150
 2681TIP3   OH229601   2.085   0.455   1.769 -0.1019 -0.1959 -0.4827
 2681TIP3    H129602   2.027   0.416   1.834 -0.9967 -0.2905 -1.3065
 2681TIP3    H229603   2.071   0.401   1.690  1.4263 -0.4860 -0.5852
 2682TIP3   OH229604   2.441   5.495   8.100  0.1658  0.2067 -0.7656
 2682TIP3    H129605   2.438   5.523   8.191 -3.3342 -0.2775 -0.5871
 2682TIP3    H229606   2.434   5.400   8.104 -0.5873  0.2221 -1.5305
 2683TIP3   OH229607   5.054   4.856   0.185 -0.0688 -0.1106  0.1644
 2683TIP3    H129608   5.113   4.927   0.211 -0.7791  0.3114  0.6218
 2683TIP3    H229609   4.979   4.900   0.145 -0.3205 -0.6224  0.0660
 2684TIP3   OH229610   4.072   5.005   1.305  0.0420  0.0467 -0.3015
 2684TIP3    H129611   4.165   5.024   1.316 -0.0362  0.4238 -0.2912
 2684TIP3    H229612   4.028   5.059   1.371  0.0166 -2.5003  1.9645
 2685TIP3   OH229613   4.562   0.757   8.256 -0.1535  0.2929  0.1205
 2685TIP3    H129614   4.478   0.713   8.247  0.4703 -0.5142 -2.4308
 2685TIP3    H229615   4.615   0.697   8.309 -0.8397  0.3607  0.9092
 2686TIP3   OH229616   3.523   1.388   8.478 -0.1507 -0.1761 -0.2658
 2686TIP3    H129617   3.487   1.414   8.563 -0.4998  0.0531 -0.4802
 2686TIP3    H229618   3.519   1.293   8.479 -1.5415 -0.1492 -0.5963
 2687TIP3   OH229619   6.421   0.656   7.765  0.0840 -0.0728 -0.4526
 2687TIP3    H129620   6.429   0.750   7.749  1.5869  0.0201  0.6534
 2687TIP3    H229621   6.416   0.649   7.860 -0.9315 -1.0810 -0.5586
 2688TIP3   OH229622   6.081   5.674   7.650 -0.0957 -0.0477  0.0863
 2688TIP3    H129623   6.117   5.590   7.623  0.7927  0.7795 -1.4966
 2688TIP3    H229624   6.022   5.699   7.578 -0.5818  0.5475  0.6734
 2689TIP3   OH229625   1.675   3.002   1.341  0.2043 -0.2433 -0.2387
 2689TIP3    H129626   1.722   2.994   1.424 -0.3976  1.8515  0.3834
 2689TIP3    H229627   1.722   2.945   1.281  0.9400 -1.4615  1.4133
 2690TIP3   OH229628   0.070   3.471   0.117  0.0825  0.3837 -0.3836
 2690TIP3    H129629   0.115   3.517   0.047 -0.3690  1.3150 -0.0820
 2690TIP3    H229630  -0.021   3.499   0.110 -0.0506  0.1500  0.2879
 2691TIP3   OH229631   5.597   2.800   2.689  0.3119  0.6637  0.1316
 2691TIP3    H129632   5.514   2.822   2.646  0.7308  3.0865  0.4254
 2691TIP3    H229633   5.617   2.711   2.659 -2.0207  0.2906 -0.4939
 2692TIP3   OH229634   3.884   0.222   6.921 -1.1245  1.0282 -0.1125
 2692TIP3    H129635   3.862   0.167   6.845  3.0449  1.1434 -1.6456
 2692TIP3    H229636   3.943   0.168   6.973  0.3047  2.7758  0.1747
 2693TIP3   OH229637   3.337   2.327   8.126  0.3590 -0.1552 -0.1564
 2693TIP3    H129638   3.303   2.290   8.208 -1.7784 -1.5193 -1.5349
 2693TIP3    H229639   3.321   2.421   8.134 -1.6778 -0.4845  0.2570
 2694TIP3   OH229640   5.123   0.204   8.482 -0.2926 -0.7197 -0.3929
 2694TIP3    H129641   5.174   0.281   8.508 -1.1092 -0.7096  1.2998
 2694TIP3    H229642   5.173   0.165   8.410 -0.3962  1.9746 -2.0406
 2695TIP3   OH229643   2.048   1.405   8.253 -0.2742  0.0302 -0.3135
 2695TIP3    H129644   2.124   1.463   8.246 -0.3637  0.1688 -0.1439
 2695TIP3    H229645   2.067   1.351   8.330 -0.6237  0.4785  0.0995
 2696TIP3   OH229646   2.892   1.663   1.256  0.7172 -0.5406 -0.0883
 2696TIP3    H129647   2.829   1.593   1.270 -0.2106  0.2330 -0.2479
 2696TIP3    H229648   2.845   1.743   1.283  1.4132  0.1185 -0.7861
 2697TIP3   OH229649   3.008   2.936   0.711 -0.2133 -0.2906 -0.7221
 2697TIP3    H129650   3.052   2.938   0.626 -0.3688 -2.4840 -0.9215
 2697TIP3    H229651   2.915   2.927   0.689 -0.2107 -1.4218 -0.3782
 2698TIP3   OH229652   6.489   0.090   6.697 -0.3046 -0.1157 -0.3887
 2698TIP3    H129653   6.435   0.020   6.658 -1.5721  0.1894  0.7441
 2698TIP3    H229654   6.448   0.171   6.666  3.1091  0.3922 -4.5167
 2699TIP3   OH229655   4.712   3.287   1.298 -0.1704 -0.0712  0.1745
 2699TIP3    H129656   4.651   3.232   1.348 -1.0187  1.2755  0.6956
 2699TIP3    H229657   4.707   3.373   1.341  1.3201  0.3495 -0.4349
 2700TIP3   OH229658   4.427   2.205   8.094  1.0286  0.5302  0.2852
 2700TIP3    H129659   4.382   2.286   8.069  1.9593  1.1461  0.5591
 2700TIP3    H229660   4.461   2.222   8.182 -1.1624 -1.1695  1.5655
 2701TIP3   OH229661   0.104   2.298   8.090  0.2609  0.5579 -0.0760
 2701TIP3    H129662   0.016   2.278   8.122 -0.2001 -0.2501 -1.7763
 2701TIP3    H229663   0.098   2.387   8.057  0.0885  0.5052 -0.1869
 2702TIP3   OH229664   6.277   6.431   0.031  0.3126  0.1560 -0.0948
 2702TIP3    H129665   6.334   6.422   0.107 -0.0689  0.8919  0.2887
 2702TIP3    H229666   6.311   6.507  -0.016  0.7668 -0.5089 -0.8667
 2703TIP3   OH229667   1.451   5.604   6.432 -0.6711  0.6149  0.5188
 2703TIP3    H129668   1.480   5.549   6.504  0.2101  0.6218  0.1799
 2703TIP3    H229669   1.531   5.643   6.397 -0.9160 -0.3344 -1.2404
 2704TIP3   OH229670   4.974   4.450   6.661  0.2323  0.2148 -0.3864
 2704TIP3    H129671   4.991   4.356   6.661 -0.4342  0.0806 -1.1373
 2704TIP3    H229672   5.001   4.480   6.575  0.0495  0.6390 -0.3025
 2705TIP3   OH229673   2.320   3.081   7.815 -0.2060 -0.0604  0.6927
 2705TIP3    H129674   2.278   3.031   7.885 -1.0381  0.3735  0.5182
 2705TIP3    H229675   2.363   3.015   7.761 -0.1843 -0.4630  1.1912
 2706TIP3   OH229676   1.289   2.153   2.253 -0.5913  0.3226  0.2336
 2706TIP3    H129677   1.205   2.114   2.231  0.4703 -1.9829  0.0152
 2706TIP3    H229678   1.295   2.231   2.197 -2.0570 -0.1399 -0.6063
 2707TIP3   OH229679   5.569   3.845   0.292  0.0652  0.3974 -0.8143
 2707TIP3    H129680   5.573   3.810   0.202 -1.7213  1.1503 -1.2411
 2707TIP3    H229681   5.506   3.788   0.336  1.6312 -0.5374  0.2666
 2708TIP3   OH229682   2.758   0.158   7.206 -0.0591  0.0471  0.1990
 2708TIP3    H129683   2.712   0.105   7.272 -0.4257 -1.9741 -1.5753
 2708TIP3    H229684   2.804   0.224   7.258 -3.0610  0.7658  2.2185
 2709TIP3   OH229685   1.124   2.247   1.981 -0.2132 -0.0211  0.0344
 2709TIP3    H129686   1.189   2.315   1.997 -0.4033  0.0642  0.4545
 2709TIP3    H229687   1.050   2.294   1.941 -0.5494  0.1108  0.7980
 2710TIP3   OH229688   4.171   5.959   7.975 -0.2032 -0.0249  0.4890
 2710TIP3    H129689   4.238   5.995   8.033  1.1212 -0.9223 -0.4395
 2710TIP3    H229690   4.135   6.036   7.930  0.7480  0.4008  0.4305
 2711TIP3   OH229691   4.566   1.766   8.467  0.3027  0.4264 -0.7986
 2711TIP3    H129692   4.530   1.801   8.549 -0.9551 -0.7662 -0.8283
 2711TIP3    H229693   4.643   1.715   8.495 -0.5711 -0.6278 -0.2500
 2712TIP3   OH229694   0.214   3.492   1.035 -0.1465  0.0006 -0.3739
 2712TIP3    H129695   0.238   3.399   1.036  0.3602  0.0923 -1.6520
 2712TIP3    H229696   0.283   3.533   0.983  0.4634  1.3561  1.4086
 2713TIP3   OH229697   0.180   5.701   1.047  0.1411  0.4086 -0.1843
 2713TIP3    H129698   0.145   5.623   1.004 -0.0378 -0.0648  0.7917
 2713TIP3    H229699   0.209   5.757   0.975 -2.3523  0.7254 -1.0578
 2714TIP3   OH229700   0.379   2.579   1.912 -0.3150  0.0826  0.3246
 2714TIP3    H129701   0.456   2.527   1.936 -0.1302  1.1782  2.2950
 2714TIP3    H229702   0.352   2.620   1.993 -3.9153 -1.3876  0.0615
 2715TIP3   OH229703   0.466   5.351   2.101 -0.2014 -0.0239  0.2570
 2715TIP3    H129704   0.470   5.256   2.111  0.5705  0.0922  1.1613
 2715TIP3    H229705   0.550   5.382   2.135 -0.9929  1.0825  1.2419
 2716TIP3   OH229706   0.753   5.397   8.219  0.4853  0.5482 -0.1884
 2716TIP3    H129707   0.789   5.485   8.207  0.5404  0.7034  1.0426
 2716TIP3    H229708   0.812   5.355   8.282  0.0750 -0.1409 -0.2531
 2717TIP3   OH229709   3.498   5.513   1.699  0.4883  0.3465  0.4725
 2717TIP3    H129710   3.406   5.498   1.723  0.1875  3.2780  1.5091
 2717TIP3    H229711   3.547   5.489   1.778  0.6168 -0.6315  0.1208
 2718TIP3   OH229712   0.123   5.857   7.087  0.2776  0.3639  0.4044
 2718TIP3    H129713   0.056   5.922   7.105 -1.0479 -1.4291  2.3680
 2718TIP3    H229714   0.076   5.782   7.051  1.4716 -0.2990  0.1508
 2719TIP3   OH229715   0.733   3.835   6.550  0.2144  0.3479  0.5837
 2719TIP3    H129716   0.658   3.894   6.559 -1.1857 -1.1907 -0.2938
 2719TIP3    H229717   0.754   3.839   6.457 -1.0299 -1.7420  0.1474
 2720TIP3   OH229718   0.974   6.232   6.825  0.3960  0.5256 -0.0905
 2720TIP3    H129719   0.913   6.231   6.751  0.6806  0.8000 -0.3310
 2720TIP3    H229720   0.922   6.200   6.899  0.8194 -2.3345 -0.9198
 2721TIP3   OH229721   4.878   4.039   2.385 -0.4401  0.5668  0.4551
 2721TIP3    H129722   4.888   4.070   2.295  0.8329 -2.3111 -0.5063
 2721TIP3    H229723   4.814   3.967   2.379 -2.2333  1.8757  2.3240
 2722TIP3   OH229724   4.565   3.939   8.250  0.3104 -0.4026  0.0992
 2722TIP3    H129725   4.495   4.001   8.231 -0.0167 -0.6206  0.5762
 2722TIP3    H229726   4.573   3.886   8.171 -2.5782 -2.8074  1.1762
 2723TIP3   OH229727   0.447   1.001   7.084  0.1347  0.1905  0.1527
 2723TIP3    H129728   0.410   1.036   7.165  0.3923  2.0864 -0.5051
 2723TIP3    H229729   0.507   0.932   7.113 -0.0727  0.5676  1.5448
 2724TIP3   OH229730   1.359   6.068   7.794 -0.1076 -0.2770  0.3652
 2724TIP3    H129731   1.402   6.006   7.736  0.4122  0.3297  0.0899
 2724TIP3    H229732   1.265   6.054   7.780 -0.0049  0.4113 -1.2468
 2725TIP3   OH229733   5.377   1.066   8.316 -0.1287 -0.3027  0.3088
 2725TIP3    H129734   5.372   0.980   8.359 -0.2794  0.0991  1.1096
 2725TIP3    H229735   5.443   1.054   8.248 -0.5307 -1.2054  0.0532
 2726TIP3   OH229736   2.395   4.082   8.223 -0.4301  0.3239  0.1431
 2726TIP3    H129737   2.411   4.135   8.145  1.3243 -0.1517  0.1462
 2726TIP3    H229738   2.479   4.077   8.268 -0.7228 -1.7322  0.5936
 2727TIP3   OH229739   6.580   0.556   7.219 -0.1533  0.7746  0.5575
 2727TIP3    H129740   6.603   0.643   7.251 -1.1131  0.9557  0.7908
 2727TIP3    H229741   6.664   0.510   7.210  0.3836  1.7990  0.1886
 2728TIP3   OH229742   3.960   4.480   8.390  0.1878 -0.1141 -0.1480
 2728TIP3    H129743   3.881   4.478   8.443 -0.2048 -1.5108 -0.7381
 2728TIP3    H229744   3.978   4.388   8.370  1.7298  0.2031 -0.3685
 2729TIP3   OH229745   4.214   4.724   7.485 -0.2291 -0.1107  0.0583
 2729TIP3    H129746   4.125   4.691   7.471  0.1400 -0.3115 -2.3181
 2729TIP3    H229747   4.223   4.731   7.580 -1.8971 -2.5518  0.4992
 2730TIP3   OH229748   2.636   2.787   7.267 -0.9692  0.0935 -0.1156
 2730TIP3    H129749   2.637   2.838   7.186 -0.5054  1.6367  0.8204
 2730TIP3    H229750   2.600   2.702   7.241 -0.3747  0.3760 -2.0264
 2731TIP3   OH229751   4.616   1.470   1.723 -0.2764 -0.2065  0.5071
 2731TIP3    H129752   4.576   1.537   1.777  1.4448 -0.1784  1.8309
 2731TIP3    H229753   4.640   1.401   1.784  1.6242 -0.2194 -0.1911
 2732TIP3   OH229754   4.416   2.318   1.964  0.0148 -0.4714  0.0338
 2732TIP3    H129755   4.409   2.411   1.941 -0.9350 -0.7349 -0.7836
 2732TIP3    H229756   4.327   2.291   1.982  0.3028 -1.2116  0.3728
 2733TIP3   OH229757   2.326   2.660   8.503  0.2794  0.0490  0.2789
 2733TIP3    H129758   2.259   2.647   8.437 -0.7460  0.5865  1.1830
 2733TIP3    H229759   2.356   2.572   8.526 -0.1634 -0.1961 -0.0850
 2734TIP3   OH229760   2.779   5.601   0.382 -0.3867 -0.5151 -0.1323
 2734TIP3    H129761   2.694   5.606   0.338  0.0134 -0.2864 -0.8887
 2734TIP3    H229762   2.820   5.686   0.365  0.5547 -1.1110 -0.9294
 2735TIP3   OH229763   4.749   0.882   6.585 -0.2779 -0.0635 -0.1907
 2735TIP3    H129764   4.781   0.802   6.542  1.0489  0.0565  0.4934
 2735TIP3    H229765   4.748   0.948   6.516 -0.0449 -0.3394 -0.4638
 2736TIP3   OH229766   4.551   3.919   0.140  0.5304 -0.3473  0.0302
 2736TIP3    H129767   4.476   3.862   0.121  0.9798 -0.5427 -1.1996
 2736TIP3    H229768   4.608   3.866   0.196 -0.3223 -0.1296  1.1353
 2737TIP3   OH229769   0.866   0.054   1.272 -0.1241 -0.9026 -0.1814
 2737TIP3    H129770   0.910  -0.025   1.241 -0.9069 -1.2547 -0.4168
 2737TIP3    H229771   0.849   0.037   1.364 -1.2461 -1.4692 -0.4746
 2738TIP3   OH229772   2.273   5.679   1.179  0.0341  0.3167 -0.3622
 2738TIP3    H129773   2.193   5.660   1.228  0.3202  0.9413  0.3641
 2738TIP3    H229774   2.342   5.677   1.245  0.5386  0.4017 -0.8790
 2739TIP3   OH229775   2.965   6.453   2.533 -0.9288  0.1443  0.1348
 2739TIP3    H129776   2.960   6.367   2.575  0.6191  0.8837  1.9842
 2739TIP3    H229777   3.059   6.467   2.519 -0.9092  2.4777  2.0515
 2740TIP3   OH229778   5.680   5.270   0.757 -0.8320 -0.1957  0.5500
 2740TIP3    H129779   5.635   5.214   0.820 -1.6516  1.1851  1.2502
 2740TIP3    H229780   5.773   5.249   0.769 -0.9808 -0.1238  2.1130
 2741TIP3   OH229781   4.275   3.363   8.298  0.0011 -0.3602  0.3032
 2741TIP3    H129782   4.252   3.323   8.214  0.5960 -0.2746  0.0948
 2741TIP3    H229783   4.348   3.421   8.278  0.1672 -0.3592  0.8853
 2742TIP3   OH229784   0.836   0.069   0.437 -0.4587  0.1629 -0.0789
 2742TIP3    H129785   0.862   0.130   0.367 -0.8699 -0.0258 -0.3956
 2742TIP3    H229786   0.906   0.004   0.439  0.0551  0.7118  0.3508
 2743TIP3   OH229787   0.308   6.485   7.127  0.0560 -0.5353  0.0977
 2743TIP3    H129788   0.231   6.437   7.098  0.1529 -0.4968 -0.2273
 2743TIP3    H229789   0.291   6.505   7.219 -1.0505  0.8940 -0.3774
 2744TIP3   OH229790   5.197   0.521   0.516  0.6269 -0.4019  0.1342
 2744TIP3    H129791   5.214   0.460   0.445 -0.2816 -0.5767  0.0507
 2744TIP3    H229792   5.279   0.568   0.528  0.6271  0.0437 -1.4300
 2745TIP3   OH229793   2.912   6.145   1.975  0.3738  0.6447 -0.7656
 2745TIP3    H129794   2.894   6.054   2.002  0.8780  1.2429  1.9228
 2745TIP3    H229795   2.831   6.192   1.992  1.2395  1.3987  1.7678
 2746TIP3   OH229796   6.798   3.452   6.734  0.1245 -0.3760 -0.2445
 2746TIP3    H129797   6.860   3.400   6.786  0.5444 -0.6267 -0.9797
 2746TIP3    H229798   6.717   3.402   6.735 -0.3475  0.3480  1.4134
 2747TIP3   OH229799   0.199   2.366   6.127  0.4824  0.4275  0.2047
 2747TIP3    H129800   0.116   2.324   6.104 -0.2930  1.2680  1.3755
 2747TIP3    H229801   0.264   2.296   6.122  0.0039  0.0491 -2.1750
 2748TIP3   OH229802   5.886   6.005   1.057  0.0108  0.2366  0.1487
 2748TIP3    H129803   5.802   5.977   1.020 -0.2121 -0.1694  0.9521
 2748TIP3    H229804   5.868   6.020   1.150  0.9168 -0.2205  0.4073
 2749TIP3   OH229805   0.267   3.708   8.117  0.1276 -0.1460  0.7009
 2749TIP3    H129806   0.340   3.729   8.059  1.2999 -1.1159  1.7636
 2749TIP3    H229807   0.192   3.697   8.058  1.2604 -1.0422 -0.6341
 2750TIP3   OH229808   2.350   2.354   7.937 -0.3036  0.1232  0.5736
 2750TIP3    H129809   2.390   2.327   8.019 -0.7689  2.0839  1.4973
 2750TIP3    H229810   2.303   2.435   7.958 -1.4183  0.0491 -1.3572
 2751TIP3   OH229811   5.746   1.437   8.705 -0.0973  0.0159 -0.4083
 2751TIP3    H129812   5.691   1.504   8.664  0.2791  0.7243  0.2388
 2751TIP3    H229813   5.795   1.483   8.772  1.3186 -0.5984 -0.9850
 2752TIP3   OH229814   1.314   6.737   0.110 -0.2001  0.0951 -0.3521
 2752TIP3    H129815   1.383   6.795   0.078  0.8755 -0.6952  0.4272
 2752TIP3    H229816   1.259   6.720   0.034  0.0360  1.3272 -0.8218
 2753TIP3   OH229817   5.324   3.901   1.968 -0.2078 -0.1236 -0.1220
 2753TIP3    H129818   5.318   3.869   2.058 -0.2559  0.4346  0.0759
 2753TIP3    H229819   5.234   3.923   1.944  0.0498  1.7664  0.4571
 2754TIP3   OH229820   6.400   5.145   1.700 -0.4726 -0.7246 -0.8955
 2754TIP3    H129821   6.371   5.055   1.710  0.1043 -0.6903  1.8866
 2754TIP3    H229822   6.495   5.140   1.697 -0.4605 -0.2559 -1.3582
 2755TIP3   OH229823   5.155   3.081   8.752 -0.2429 -0.3776 -0.1019
 2755TIP3    H129824   5.067   3.046   8.761 -0.7118  0.7461 -0.1066
 2755TIP3    H229825   5.204   3.013   8.706 -1.1771 -0.9143 -0.3139
 2756TIP3   OH229826   3.436   4.052   6.298 -0.7966  0.5184 -0.1698
 2756TIP3    H129827   3.400   4.012   6.377  1.1689 -1.4812 -0.2149
 2756TIP3    H229828   3.393   4.006   6.226  0.9822 -1.1733 -0.2187
 2757TIP3   OH229829   0.052   5.416   7.286 -0.3201 -0.5528  0.3037
 2757TIP3    H129830  -0.019   5.443   7.227  0.5823 -1.0083 -1.0161
 2757TIP3    H229831   0.027   5.328   7.315 -0.6573 -0.4143  0.4408
 2758TIP3   OH229832   4.259   3.458   7.940  0.2380 -0.1744 -0.3363
 2758TIP3    H129833   4.205   3.503   7.875  0.7069 -0.1210 -0.6911
 2758TIP3    H229834   4.231   3.495   8.024 -1.3578 -1.2303 -0.3502
 2759TIP3   OH229835   4.744   2.677   0.059 -0.0977  0.2746 -0.1008
 2759TIP3    H129836   4.713   2.725  -0.018 -2.6472 -0.3800  0.4385
 2759TIP3    H229837   4.708   2.725   0.134 -0.4510 -0.9538  0.5490
 2760TIP3   OH229838   0.925   5.685   0.675 -0.0941  0.4150 -0.2281
 2760TIP3    H129839   0.983   5.700   0.600 -0.2285 -0.4678 -0.5137
 2760TIP3    H229840   0.939   5.593   0.698 -1.7208  0.0548 -0.5971
 2761TIP3   OH229841   3.309   4.671   6.431 -0.7808  0.1018 -0.2309
 2761TIP3    H129842   3.293   4.614   6.356  1.0698 -0.6734 -0.1114
 2761TIP3    H229843   3.373   4.735   6.400 -2.1340  1.5908 -0.0831
 2762TIP3   OH229844   4.305   2.214   0.492  0.3329  0.3407  0.1914
 2762TIP3    H129845   4.397   2.209   0.465  0.8527 -0.9098  2.0048
 2762TIP3    H229846   4.283   2.307   0.484  1.5609  0.5716 -0.8427
 2763TIP3   OH229847   1.896   2.980   8.473  0.1561 -0.3389 -0.4272
 2763TIP3    H129848   1.937   3.002   8.556 -1.3815 -1.2961  0.6434
 2763TIP3    H229849   1.924   3.049   8.413 -0.3433  1.5497  1.4194
 2764TIP3   OH229850   0.291   3.980   6.430 -0.4242 -0.0108 -0.7230
 2764TIP3    H129851   0.346   3.979   6.352 -0.3023  1.2339 -0.6623
 2764TIP3    H229852   0.212   3.932   6.404  0.3582 -1.1794 -1.0310
 2765TIP3   OH229853   3.017   1.019   0.478  0.7541 -0.2734 -0.5054
 2765TIP3    H129854   2.998   0.934   0.438  1.8480 -1.3581  1.1141
 2765TIP3    H229855   3.035   1.077   0.404  1.5508 -1.8793 -1.6463
 2766TIP3   OH229856   6.168   3.584   8.140  0.4202  0.1555 -0.1222
 2766TIP3    H129857   6.238   3.565   8.202 -0.3184  0.7370  0.9081
 2766TIP3    H229858   6.139   3.672   8.162 -1.0293 -0.2890 -0.1344
 2767TIP3   OH229859   1.371   3.178   0.364  0.1622  0.1181 -0.0188
 2767TIP3    H129860   1.325   3.161   0.282 -2.2066 -0.9127  1.4143
 2767TIP3    H229861   1.310   3.149   0.432  1.5290  2.0330  2.1662
 2768TIP3   OH229862   2.717   1.508   8.182 -0.5215 -0.5803 -0.4643
 2768TIP3    H129863   2.717   1.603   8.184 -1.0762 -0.5555 -1.0464
 2768TIP3    H229864   2.805   1.483   8.209  0.3728  0.1653 -2.4993
 2769TIP3   OH229865   3.038   0.846   6.998 -0.4020 -0.2230 -0.0396
 2769TIP3    H129866   3.007   0.925   6.955 -0.2064 -0.4267 -0.5627
 2769TIP3    H229867   3.097   0.879   7.066  0.0374  0.0725 -0.5479
 2770TIP3   OH229868   3.338   3.755   1.852  0.2629  0.0289 -0.2528
 2770TIP3    H129869   3.331   3.724   1.942  0.2282  1.8756  0.4199
 2770TIP3    H229870   3.383   3.684   1.805  1.4054 -0.4432  1.4802
 2771TIP3   OH229871   0.056   5.973   7.535  0.1530 -0.4967 -0.0344
 2771TIP3    H129872   0.057   5.986   7.440 -1.2095 -1.3610 -0.1857
 2771TIP3    H229873  -0.020   6.022   7.565  0.6893 -0.0680  0.6600
 2772TIP3   OH229874   0.955   0.247   7.796 -0.4737  0.4620  0.3853
 2772TIP3    H129875   0.929   0.157   7.815 -0.1085  0.5894  1.5888
 2772TIP3    H229876   0.882   0.283   7.745  0.0332 -0.9258 -1.3984
 2773TIP3   OH229877   1.316   6.508   7.492 -0.2297  0.1327 -0.0523
 2773TIP3    H129878   1.307   6.415   7.469 -0.0042  0.5972 -2.1708
 2773TIP3    H229879   1.258   6.553   7.431 -0.3387  1.4120  0.9618
 2774TIP3   OH229880   2.282   1.787   0.948  0.3206  0.2484  0.3712
 2774TIP3    H129881   2.204   1.774   1.001  0.8817  0.6976  1.3399
 2774TIP3    H229882   2.353   1.746   0.999  0.8946  0.8276  0.0537
 2775TIP3   OH229883   1.162   5.723   8.744  0.3935  0.1146  0.6143
 2775TIP3    H129884   1.194   5.812   8.732  1.0737 -0.2200 -0.2681
 2775TIP3    H229885   1.190   5.698   8.832  0.7841  0.5420  0.6117
 2776TIP3   OH229886   3.738   5.344   8.351 -0.4773  0.1924  0.2592
 2776TIP3    H129887   3.819   5.339   8.401 -0.8274  0.3243  0.8456
 2776TIP3    H229888   3.715   5.437   8.351 -0.8973  0.0929  0.5412
 2777TIP3   OH229889   0.094   1.685   8.223  0.5408 -0.0187  0.6608
 2777TIP3    H129890   0.128   1.611   8.174  0.5969  0.7967 -0.5762
 2777TIP3    H229891   0.172   1.734   8.250  0.5331 -0.6522  1.9284
 2778TIP3   OH229892   3.405   6.054   1.189 -0.7568  0.0241 -0.2524
 2778TIP3    H129893   3.408   6.125   1.253 -1.2465 -2.4721  2.7525
 2778TIP3    H229894   3.495   6.048   1.156 -0.5442  1.5495 -0.0187
 2779TIP3   OH229895   6.315   5.698   0.805  0.6730 -0.3738  0.2193
 2779TIP3    H129896   6.389   5.642   0.829  1.0967  0.6749  1.4792
 2779TIP3    H229897   6.320   5.772   0.865 -0.2193  0.7419 -1.0049
 2780TIP3   OH229898   1.730   0.226   0.152  0.1969 -0.4509  0.4495
 2780TIP3    H129899   1.768   0.275   0.225 -1.4748  2.2851 -0.3743
 2780TIP3    H229900   1.806   0.194   0.103  1.3519  0.3183  1.6597
 2781TIP3   OH229901   3.682   3.973   1.810 -0.3299  0.4000  0.7759
 2781TIP3    H129902   3.735   3.933   1.879  1.3019  0.5353 -0.3193
 2781TIP3    H229903   3.736   4.046   1.779 -1.9145  1.5710  0.6891
 2782TIP3   OH229904   5.781   2.988   7.991 -0.2686 -0.2462 -0.4782
 2782TIP3    H129905   5.735   3.027   7.917 -1.4915  0.0127  0.3959
 2782TIP3    H229906   5.722   2.999   8.066  0.2311 -1.9380  0.2214
 2783TIP3   OH229907   6.264   0.139   1.496  0.1111 -0.6327 -0.5127
 2783TIP3    H129908   6.198   0.130   1.564  0.1677 -1.1599 -0.5222
 2783TIP3    H229909   6.315   0.216   1.522 -1.7030  0.9779 -1.5469
 2784TIP3   OH229910   5.204   4.154   6.856 -0.3299 -0.2728  0.5208
 2784TIP3    H129911   5.145   4.163   6.781  1.1336  1.4535 -0.5191
 2784TIP3    H229912   5.270   4.222   6.842  0.4741 -0.4731  2.9628
 2785TIP3   OH229913   4.774   0.635   6.451  0.5988 -0.1248 -0.0507
 2785TIP3    H129914   4.738   0.585   6.524 -0.9575 -0.4513 -0.9987
 2785TIP3    H229915   4.868   0.618   6.454  0.5435 -0.3292  1.7040
 2786TIP3   OH229916   6.801   3.790   8.417  0.3971 -0.0927  0.6143
 2786TIP3    H129917   6.886   3.815   8.382 -0.3387  1.1896 -0.3267
 2786TIP3    H229918   6.753   3.873   8.426 -0.2108 -0.5898  2.6683
 2787TIP3   OH229919   4.986   3.425   2.242 -0.0671 -0.2248 -0.2997
 2787TIP3    H129920   4.964   3.342   2.198 -0.5762  0.9346 -2.3423
 2787TIP3    H229921   4.990   3.489   2.172  1.6354  1.2711  1.0791
 2788TIP3   OH229922   2.920   4.433   1.285 -0.5005 -0.1331 -0.3276
 2788TIP3    H129923   2.835   4.394   1.305  0.1964 -1.8890 -0.6252
 2788TIP3    H229924   2.946   4.477   1.365 -1.8504  0.7851 -0.3572
 2789TIP3   OH229925   2.149   0.235   8.797 -0.9370 -0.0850 -0.6818
 2789TIP3    H129926   2.180   0.325   8.800 -2.4822  0.6316 -3.5198
 2789TIP3    H229927   2.210   0.190   8.739  0.5348 -1.3057  1.6180
 2790TIP3   OH229928   6.131   0.181   1.004 -0.1485  0.4193 -0.3130
 2790TIP3    H129929   6.145   0.087   1.008  0.5035  0.5090 -0.3692
 2790TIP3    H229930   6.068   0.199   1.073  0.2721  0.0396  0.1852
 2791TIP3   OH229931   5.588   4.238   7.063 -0.4780 -0.2741  0.0389
 2791TIP3    H129932   5.551   4.260   7.148 -0.0848 -1.8144  0.6385
 2791TIP3    H229933   5.607   4.322   7.023 -2.3055  0.5317  0.7196
 2792TIP3   OH229934   2.481   3.985   7.336  0.4164 -0.4003 -0.4183
 2792TIP3    H129935   2.572   3.990   7.365  0.4601 -0.0260 -0.6110
 2792TIP3    H229936   2.463   4.070   7.298 -0.6330  0.2510  1.3939
 2793TIP3   OH229937   0.307   5.684   2.368 -0.3541  0.1952  0.5247
 2793TIP3    H129938   0.255   5.764   2.366 -0.5880  0.0729  1.3419
 2793TIP3    H229939   0.389   5.710   2.409  0.1329  0.3246 -0.5070
 2794TIP3   OH229940   5.857   5.197   8.023  0.6514 -0.0449  0.1767
 2794TIP3    H129941   5.925   5.263   8.041 -1.0395  1.6940  0.4991
 2794TIP3    H229942   5.813   5.184   8.107  0.3355 -0.8704 -0.1050
 2795TIP3   OH229943   0.331   5.063   7.001  0.0485 -0.0136 -0.0173
 2795TIP3    H129944   0.252   5.054   6.947  0.4480  1.2950 -0.8770
 2795TIP3    H229945   0.380   5.134   6.959  0.6080  0.7263  1.7988
 2796TIP3   OH229946   2.691   0.078   6.895  0.0242  0.0576  0.2124
 2796TIP3    H129947   2.652   0.139   6.958  0.4681  1.1321 -0.5269
 2796TIP3    H229948   2.760   0.033   6.944 -1.8280 -1.6203  1.4463
 2797TIP3   OH229949   1.212   1.756   6.834  0.4049  0.0829  0.5597
 2797TIP3    H129950   1.122   1.784   6.821  0.1813 -1.1515 -0.8105
 2797TIP3    H229951   1.224   1.757   6.929 -1.4509 -0.8661  0.8659
 2798TIP3   OH229952   4.802   3.453   2.534 -0.5376  0.0530 -0.0780
 2798TIP3    H129953   4.746   3.389   2.578  1.7438 -2.0677 -0.0690
 2798TIP3    H229954   4.745   3.495   2.470 -2.2372 -1.6422  0.2387
 2799TIP3   OH229955   5.602   6.546   7.101  0.2197 -0.4278 -0.1829
 2799TIP3    H129956   5.567   6.586   7.181 -0.0219  0.3593 -0.6715
 2799TIP3    H229957   5.527   6.504   7.059 -0.5351  2.3607 -1.8980
 2800TIP3   OH229958   5.134   4.495   0.611  0.0383  0.1698 -0.6799
 2800TIP3    H129959   5.046   4.475   0.579  0.3691 -1.8291 -0.4658
 2800TIP3    H229960   5.170   4.557   0.548 -2.0000  2.1461 -0.0223
 2801TIP3   OH229961   4.378   0.350   7.376 -0.2605 -0.1671  0.0578
 2801TIP3    H129962   4.303   0.331   7.320  0.8057  1.2031 -1.9536
 2801TIP3    H229963   4.453   0.318   7.327  0.6784  0.6912  0.8899
 2802TIP3   OH229964   6.173   5.226   0.597  0.0636  0.1403  0.3235
 2802TIP3    H129965   6.102   5.227   0.533 -0.1358  0.2951  0.5458
 2802TIP3    H229966   6.207   5.315   0.596  0.8863 -0.1701 -0.4776
 2803TIP3   OH229967   6.345   3.810   1.996 -0.1021  0.0504 -0.4482
 2803TIP3    H129968   6.405   3.737   2.012  1.6319  0.9694 -2.3526
 2803TIP3    H229969   6.344   3.820   1.901 -2.8063  0.5257 -0.4407
 2804TIP3   OH229970   2.074   6.281   1.348 -0.4499  0.6435 -0.0032
 2804TIP3    H129971   2.144   6.346   1.355  1.8888 -1.5418 -1.8170
 2804TIP3    H229972   2.075   6.237   1.433  0.8520  0.2007 -0.2291
 2805TIP3   OH229973   6.775   4.155   0.567 -0.4647 -0.7590 -0.0249
 2805TIP3    H129974   6.865   4.134   0.590 -0.1794 -0.1177 -0.5339
 2805TIP3    H229975   6.774   4.250   0.556 -0.7493 -0.9427 -1.9144
 2806TIP3   OH229976   4.999   1.622   1.048 -0.3378 -0.3684 -0.1965
 2806TIP3    H129977   5.022   1.676   0.972 -1.6268  0.5924  0.0686
 2806TIP3    H229978   5.075   1.565   1.060 -0.1466 -0.6450 -2.2940
 2807TIP3   OH229979   0.425   5.494   0.315  0.0503 -0.6013 -0.2476
 2807TIP3    H129980   0.397   5.406   0.341  0.5337 -0.0362  2.5156
 2807TIP3    H229981   0.518   5.485   0.295 -0.0535 -0.8481 -0.6101
 2808TIP3   OH229982   0.492   1.359   8.275 -0.1141 -0.0779  0.2718
 2808TIP3    H129983   0.483   1.299   8.349 -0.0063 -0.8625 -0.3406
 2808TIP3    H229984   0.574   1.405   8.292  0.5836 -1.1759  0.0148
 2809TIP3   OH229985   4.923   6.306   0.971 -0.5211  0.3028 -0.2109
 2809TIP3    H129986   4.900   6.214   0.986  0.5588 -0.1619 -1.2256
 2809TIP3    H229987   4.842   6.346   0.941 -1.3916  0.0657  1.6668
 2810TIP3   OH229988   1.849   1.251   6.287 -0.4317  0.0494  0.3546
 2810TIP3    H129989   1.938   1.282   6.302  0.8267 -2.3414 -1.4007
 2810TIP3    H229990   1.805   1.324   6.244  1.0616  0.8779  0.1708
 2811TIP3   OH229991   1.319   1.271   0.256  0.8274  0.1152 -0.3056
 2811TIP3    H129992   1.365   1.305   0.180  1.1042  0.6756  0.0974
 2811TIP3    H229993   1.251   1.214   0.221 -0.4825  2.0551 -1.0982
 2812TIP3   OH229994   3.232   2.740   0.621 -0.0019  0.2626 -0.6345
 2812TIP3    H129995   3.309   2.685   0.637  0.1467  0.6104 -0.1488
 2812TIP3    H229996   3.194   2.705   0.540  0.5877 -0.0021 -0.8025
 2813TIP3   OH229997   0.702   0.235   7.132 -0.2115  0.6336  0.4570
 2813TIP3    H129998   0.706   0.215   7.226  0.7208  1.3218  0.5726
 2813TIP3    H229999   0.765   0.176   7.092 -1.1312 -0.1690  0.1566
 2814TIP3   OH230000   3.220   2.678   7.177  0.0753  0.6149 -0.0156
 2814TIP3    H130001   3.194   2.686   7.269  0.5033 -1.5489  0.3484
 2814TIP3    H230002   3.315   2.684   7.179  0.1724 -0.6319 -0.1305
 2815TIP3   OH230003   0.703   5.721   1.950 -0.6747  0.1884  0.2873
 2815TIP3    H130004   0.645   5.790   1.982 -1.4110 -0.2057 -0.1781
 2815TIP3    H230005   0.784   5.733   1.999 -0.0653  2.6274 -1.1583
 2816TIP3   OH230006   6.002   5.749   7.373 -0.0414  0.2418 -0.2408
 2816TIP3    H130007   6.090   5.741   7.335  1.2177 -0.9735  2.6197
 2816TIP3    H230008   5.950   5.684   7.327  1.0466 -0.2845 -0.7692
 2817TIP3   OH230009   1.445   1.116   7.878  0.6645 -0.0490  0.1483
 2817TIP3    H130010   1.509   1.148   7.941  1.2004  0.8441 -0.8217
 2817TIP3    H230011   1.494   1.105   7.797 -0.3314  0.2765 -0.5173
 2818TIP3   OH230012   3.818   2.542   6.856 -0.0209 -0.1982 -0.2091
 2818TIP3    H130013   3.822   2.634   6.880 -0.0173 -0.4306  0.7133
 2818TIP3    H230014   3.734   2.532   6.812  0.1669  0.3302 -0.6992
 2819TIP3   OH230015   3.501   3.303   7.163  0.0745 -0.2680  0.0032
 2819TIP3    H130016   3.492   3.396   7.144 -0.5304 -0.0104  1.4041
 2819TIP3    H230017   3.596   3.289   7.169  0.1631  0.2954 -0.0139
 2820TIP3   OH230018   6.442   3.013   0.191 -0.3648  0.3146 -0.2211
 2820TIP3    H130019   6.383   3.080   0.226  0.8564  1.9426 -1.1424
 2820TIP3    H230020   6.427   2.936   0.246 -0.5691  1.8771  2.0041
 2821TIP3   OH230021   5.943   6.186   6.963 -0.1097 -0.1259  0.0500
 2821TIP3    H130022   5.895   6.225   7.037 -1.5126 -1.0695 -0.3211
 2821TIP3    H230023   5.940   6.092   6.980  0.0230 -0.3155 -0.9259
 2822TIP3   OH230024   3.515   1.303   1.893 -0.3384 -0.3370 -0.0754
 2822TIP3    H130025   3.447   1.263   1.947 -0.2843 -0.2260  0.0747
 2822TIP3    H230026   3.467   1.361   1.833 -0.5268 -1.4506 -1.0471
 2823TIP3   OH230027   2.853   2.910   0.421 -0.0751 -0.8855  0.4959
 2823TIP3    H130028   2.935   2.958   0.408 -0.8192  0.2077 -0.3564
 2823TIP3    H230029   2.806   2.920   0.338 -0.6008 -2.4571  0.5703
 2824TIP3   OH230030   1.919   3.911   8.643 -0.0125 -0.2170  0.6459
 2824TIP3    H130031   1.900   3.908   8.737  2.1737 -2.0007  1.1211
 2824TIP3    H230032   1.921   4.004   8.622  2.1744  0.3962  3.0567
 2825TIP3   OH230033   0.999   6.538   7.171  0.1040 -0.8199  0.2352
 2825TIP3    H130034   0.920   6.591   7.165  0.0814 -0.8408  0.3408
 2825TIP3    H230035   1.063   6.594   7.215  0.3929 -0.5239 -0.5375
 2826TIP3   OH230036   4.243   1.715   1.577 -0.3165  0.2821 -0.3055
 2826TIP3    H130037   4.230   1.665   1.496 -0.5718 -0.2078  0.0305
 2826TIP3    H230038   4.232   1.651   1.647 -3.2381  1.2215  0.2694
 2827TIP3   OH230039   3.232   2.980   8.333  0.7264 -0.6629 -0.3236
 2827TIP3    H130040   3.209   3.070   8.358  1.1543 -0.3765 -0.9333
 2827TIP3    H230041   3.233   2.981   8.238  1.6515 -1.0739 -0.3299
 2828TIP3   OH230042   0.624   6.170   6.766 -0.8023 -0.1698 -0.0435
 2828TIP3    H130043   0.550   6.230   6.772 -1.4161 -1.0123  1.2173
 2828TIP3    H230044   0.594   6.098   6.711 -1.0469 -0.6492  0.6940
 2829TIP3   OH230045   3.799   4.381   0.177 -0.0371  0.0915  0.6772
 2829TIP3    H130046   3.759   4.365   0.263  0.2224  0.8851  0.9592
 2829TIP3    H230047   3.758   4.317   0.119  0.7830 -1.3783  1.6756
 2830TIP3   OH230048   0.687   1.226   0.687 -0.2517  0.7015 -0.7540
 2830TIP3    H130049   0.645   1.299   0.641 -0.3120  1.1631  0.0026
 2830TIP3    H230050   0.652   1.232   0.776  1.5621  1.2332 -0.0372
 2831TIP3   OH230051   1.663   0.346   1.316  0.3504  0.3065  0.8463
 2831TIP3    H130052   1.575   0.322   1.287  0.1386  0.6197  1.2199
 2831TIP3    H230053   1.660   0.337   1.411  1.6445 -2.8632  0.7361
 2832TIP3   OH230054   3.884   2.326   8.633 -0.1744  0.2315  0.0603
 2832TIP3    H130055   3.902   2.380   8.711  0.8823 -0.6301  0.4412
 2832TIP3    H230056   3.938   2.248   8.645 -0.3437 -0.1260 -1.3288
 2833TIP3   OH230057   1.753   3.129   0.162  0.0723  0.0266  0.2989
 2833TIP3    H130058   1.840   3.142   0.201 -0.6616  0.0703  1.9945
 2833TIP3    H230059   1.737   3.035   0.171  1.3826 -0.6898 -3.2963
 2834TIP3   OH230060   2.081   2.525   8.410 -0.0816 -0.1372  0.9829
 2834TIP3    H130061   2.073   2.522   8.315 -1.9261 -0.7150  1.1125
 2834TIP3    H230062   2.039   2.445   8.440 -0.1815  0.3851  2.3114
 2835TIP3   OH230063   2.959   6.642   0.237  0.0201  0.0290 -0.4834
 2835TIP3    H130064   2.887   6.699   0.210 -0.2670 -0.5633 -0.9753
 2835TIP3    H230065   3.022   6.648   0.164  2.0649  3.1284  1.2794
 2836TIP3   OH230066   1.620   4.240   7.567  0.5208 -0.5148 -0.4030
 2836TIP3    H130067   1.624   4.146   7.583 -0.3716 -0.7599 -1.4325
 2836TIP3    H230068   1.612   4.279   7.654 -0.6084 -1.4991 -0.0259
 2837TIP3   OH230069   6.561   2.441   7.401 -0.2233  0.2280  0.5262
 2837TIP3    H130070   6.527   2.465   7.487 -0.0866  2.8080 -0.0630
 2837TIP3    H230071   6.645   2.486   7.395  1.5022 -2.7596  0.3441
 2838TIP3   OH230072   0.725   6.236   1.876 -0.2310  0.3322 -0.3270
 2838TIP3    H130073   0.717   6.259   1.784 -1.7437  1.6477  0.0906
 2838TIP3    H230074   0.782   6.304   1.913 -0.7591  0.6261 -0.0363
 2839TIP3   OH230075   3.924   0.261   0.573  0.4231  0.1794  0.3798
 2839TIP3    H130076   3.971   0.285   0.653  1.1159  0.0360  0.0220
 2839TIP3    H230077   3.957   0.322   0.507 -0.4865  0.6005  0.3040
 2840TIP3   OH230078   2.093   0.934   8.323 -0.1781  0.2663 -0.9035
 2840TIP3    H130079   1.999   0.920   8.323  0.0541 -1.5473  0.0342
 2840TIP3    H230080   2.104   1.023   8.358 -1.4809 -0.2183  0.8962
 2841TIP3   OH230081   5.565   5.877   6.804  0.4169  0.2536  0.7113
 2841TIP3    H130082   5.563   5.927   6.722 -0.8701 -0.7921  0.0457
 2841TIP3    H230083   5.652   5.893   6.840  1.2595  0.2628 -1.1769
 2842TIP3   OH230084   5.038   3.379   1.799  0.3684 -0.1399  0.0910
 2842TIP3    H130085   4.991   3.336   1.871 -0.9421 -0.2974 -0.8212
 2842TIP3    H230086   5.057   3.467   1.833 -1.6854  0.3614  0.1018
 2843TIP3   OH230087   1.059   3.376   0.349  0.1892 -0.3409 -0.5672
 2843TIP3    H130088   1.097   3.449   0.300  0.1789 -0.0327 -0.1305
 2843TIP3    H230089   0.965   3.382   0.331  0.1384  0.0131 -0.2023
 2844TIP3   OH230090   3.086   1.568   1.444 -0.1825  0.2495  0.0420
 2844TIP3    H130091   3.135   1.649   1.459 -0.9943  0.5190  1.4134
 2844TIP3    H230092   3.016   1.593   1.383  0.9683 -0.0058 -1.4540
 2845TIP3   OH230093   6.425   6.291   1.214 -0.6927 -0.1390  0.5468
 2845TIP3    H130094   6.422   6.219   1.151  1.1830 -1.3421  1.7209
 2845TIP3    H230095   6.350   6.276   1.272 -2.2347  0.7928 -1.1228
 2846TIP3   OH230096   0.221   5.625   8.650  0.2429  0.0945  0.1760
 2846TIP3    H130097   0.140   5.633   8.600  1.4342 -0.3999 -2.0100
 2846TIP3    H230098   0.281   5.686   8.607  1.6768 -1.2035  0.2579
 2847TIP3   OH230099   5.690   3.773   7.547 -0.3937  0.6914  0.5988
 2847TIP3    H130100   5.654   3.767   7.458 -1.3626  1.0213  0.9638
 2847TIP3    H230101   5.784   3.784   7.533 -0.4660  0.1984 -0.3752
 2848TIP3   OH230102   4.296   1.916   2.245 -0.4275 -0.1101  0.4051
 2848TIP3    H130103   4.326   2.005   2.264 -1.6507  0.2277  0.8213
 2848TIP3    H230104   4.237   1.894   2.317 -0.4833 -1.1011  0.0794
 2849TIP3   OH230105   0.699   4.098   6.951 -0.3991 -0.2775 -0.4361
 2849TIP3    H130106   0.740   4.032   6.895 -1.0863 -0.4235 -0.7697
 2849TIP3    H230107   0.717   4.181   6.907  0.6053 -0.2113  0.0665
 2850TIP3   OH230108   5.111   5.901   6.740 -0.7552 -0.0413 -0.6360
 2850TIP3    H130109   5.098   5.874   6.649  0.0655  1.2054 -1.1569
 2850TIP3    H230110   5.108   5.997   6.737 -1.4900  0.0034  0.7848
 2851TIP3   OH230111   2.103   2.634   6.568 -0.2975  0.0844 -0.7841
 2851TIP3    H130112   2.089   2.545   6.536 -0.2979  0.3268 -1.4808
 2851TIP3    H230113   2.089   2.690   6.491  4.3338  0.4170 -1.6793
 2852TIP3   OH230114   4.462   3.205   6.894  0.3951 -0.0712 -0.4763
 2852TIP3    H130115   4.518   3.258   6.951  0.8047 -1.0139  0.0053
 2852TIP3    H230116   4.502   3.211   6.808  1.4544 -1.0481 -0.0599
 2853TIP3   OH230117   0.131   3.552   8.456  0.5801  0.2175 -0.1936
 2853TIP3    H130118   0.110   3.472   8.408  0.1845 -0.1964  0.6532
 2853TIP3    H230119   0.084   3.621   8.408 -0.7317 -0.3422  0.2267
 2854TIP3   OH230120   0.505   0.098   1.999 -0.6771 -0.2833 -0.1842
 2854TIP3    H130121   0.571   0.041   1.961 -0.1959  0.6144 -0.7461
 2854TIP3    H230122   0.466   0.047   2.069 -0.2165 -1.2632 -0.6297
 2855TIP3   OH230123   1.174   0.408   7.876  0.2317  0.4696 -0.3335
 2855TIP3    H130124   1.080   0.401   7.856 -0.0110  1.6193  0.3063
 2855TIP3    H230125   1.202   0.318   7.891 -0.6785  0.0650 -0.9413
 2856TIP3   OH230126   6.496   1.845   1.345  0.2327 -0.1170  0.0805
 2856TIP3    H130127   6.556   1.869   1.415  1.9302  2.4010 -2.0582
 2856TIP3    H230128   6.548   1.791   1.286 -0.0914  0.6061 -0.8988
 2857TIP3   OH230129   2.909   1.248   8.031  0.4275  0.2983 -0.0709
 2857TIP3    H130130   2.974   1.234   7.961 -0.2445  2.2532 -1.1730
 2857TIP3    H230131   2.824   1.243   7.986 -0.0537  0.9049  0.7492
 2858TIP3   OH230132   3.655   2.941   0.151  0.2745 -0.1681 -0.3755
 2858TIP3    H130133   3.682   2.932   0.242  1.3712 -0.0993 -0.6824
 2858TIP3    H230134   3.733   2.971   0.105 -0.4336  0.4287 -1.2359
 2859TIP3   OH230135   1.009   1.343   7.445  0.5902  0.0392 -0.0379
 2859TIP3    H130136   0.946   1.358   7.374 -0.2251  0.9019  0.8523
 2859TIP3    H230137   0.959   1.302   7.514  1.6868 -2.0880 -0.4293
 2860TIP3   OH230138   1.843   5.494   6.918  0.2994  0.0763 -0.5397
 2860TIP3    H130139   1.860   5.403   6.892  0.4478 -0.8990  2.5798
 2860TIP3    H230140   1.930   5.530   6.939  0.0464  0.2551  0.2190
 2861TIP3   OH230141   3.239   5.118   7.160 -0.5558 -0.0096  0.2402
 2861TIP3    H130142   3.271   5.165   7.237  0.3253  1.0222 -0.7239
 2861TIP3    H230143   3.295   5.041   7.154  0.0910  0.4735  0.0155
 2862TIP3   OH230144   2.706   0.184   8.769  0.3860 -0.2492  0.0324
 2862TIP3    H130145   2.661   0.259   8.731  0.4534 -1.0243 -1.6346
 2862TIP3    H230146   2.780   0.223   8.818 -1.7284  1.0112  2.4920
 2863TIP3   OH230147   4.143   2.298   0.731  0.0160  0.3419  0.3780
 2863TIP3    H130148   4.229   2.326   0.761 -0.9558  3.6369  0.5226
 2863TIP3    H230149   4.141   2.321   0.638 -0.1669 -1.2282 -0.0224
 2864TIP3   OH230150   0.410   3.183   7.602  0.0721 -0.8165  0.1975
 2864TIP3    H130151   0.408   3.106   7.545  0.1115  0.5298 -1.6750
 2864TIP3    H230152   0.478   3.162   7.667  3.5546 -0.5956 -3.0037
 2865TIP3   OH230153   2.474   4.538   6.184 -0.1471  0.3793  0.0820
 2865TIP3    H130154   2.444   4.561   6.272  0.0738  2.0226 -0.2432
 2865TIP3    H230155   2.480   4.443   6.185 -2.0727  0.2162  1.2182
 2866TIP3   OH230156   0.690   3.330   7.504 -0.3695 -0.1795 -0.3813
 2866TIP3    H130157   0.621   3.324   7.569  0.2279  1.4081  0.4592
 2866TIP3    H230158   0.659   3.277   7.430 -1.3835 -1.4107  0.8836
 2867TIP3   OH230159   1.607   5.396   7.004 -0.3036  0.1703 -0.4488
 2867TIP3    H130160   1.580   5.342   6.929 -1.3040 -0.0475  0.0573
 2867TIP3    H230161   1.691   5.433   6.977 -0.2661 -0.5369 -1.3637
 2868TIP3   OH230162   5.989   3.636   1.082 -0.0035 -0.0141 -0.2719
 2868TIP3    H130163   5.956   3.558   1.128  2.0330 -0.3855  0.6868
 2868TIP3    H230164   5.968   3.620   0.990 -0.8700 -1.0197  0.0780
 2869TIP3   OH230165   1.380   1.973   6.787 -0.3409 -0.6054  0.2092
 2869TIP3    H130166   1.358   1.881   6.775 -0.7473 -0.6170  0.9766
 2869TIP3    H230167   1.313   2.007   6.847 -0.9781  0.5215 -1.0947
 2870TIP3   OH230168   6.696   0.916   8.797 -0.0844 -0.2146 -0.3604
 2870TIP3    H130169   6.736   0.835   8.766 -0.1594 -0.0335 -0.9362
 2870TIP3    H230170   6.614   0.923   8.748 -0.0082  0.2836 -0.4213
 2871TIP3   OH230171   0.112   5.191   1.376  0.0720 -0.2259  0.0302
 2871TIP3    H130172   0.191   5.204   1.428  0.8084 -1.6695 -0.6461
 2871TIP3    H230173   0.080   5.104   1.403 -0.3284 -0.3748 -0.8849
 2872TIP3   OH230174   5.871   1.987   0.417 -0.0242 -0.2197 -0.3962
 2872TIP3    H130175   5.778   2.007   0.403  0.1243  1.2938  0.5637
 2872TIP3    H230176   5.871   1.918   0.484 -0.4840 -1.5150 -1.7002
 2873TIP3   OH230177   4.406   4.590   7.974  0.7968  0.8345 -0.4562
 2873TIP3    H130178   4.463   4.516   7.994 -0.5324 -0.5710 -1.5669
 2873TIP3    H230179   4.428   4.657   8.039  2.0210 -0.5505  0.6081
 2874TIP3   OH230180   3.800   5.153   1.455 -0.3955 -0.0927 -0.6366
 2874TIP3    H130181   3.847   5.103   1.520 -0.8975  0.3665  0.0938
 2874TIP3    H230182   3.739   5.208   1.505 -0.9567  0.0986 -1.4931
 2875TIP3   OH230183   4.428   3.605   0.247 -0.3684  0.5194 -0.0483
 2875TIP3    H130184   4.516   3.624   0.213  0.0877  2.0225  1.7966
 2875TIP3    H230185   4.371   3.613   0.171  0.7391  2.4734 -0.7500
 2876TIP3   OH230186   5.429   2.129   0.651 -0.4098  0.0443  0.2557
 2876TIP3    H130187   5.392   2.162   0.569  0.7777  0.7910 -0.0094
 2876TIP3    H230188   5.365   2.154   0.718 -0.2313  1.6818 -0.1283
 2877TIP3   OH230189   2.595   5.876   1.172  0.1031 -0.4962  0.9541
 2877TIP3    H130190   2.576   5.958   1.218  1.7574 -0.5085  1.7284
 2877TIP3    H230191   2.564   5.808   1.232 -0.8697 -0.4739  0.5021
 2878TIP3   OH230192   4.213   4.159   8.244  0.0550 -0.3165  0.5768
 2878TIP3    H130193   4.190   4.251   8.260 -0.6585 -0.5935  1.1683
 2878TIP3    H230194   4.227   4.122   8.331 -1.8095 -1.3212  0.4898
 2879TIP3   OH230195   1.278   6.308   1.248  0.3818 -0.2808 -0.5399
 2879TIP3    H130196   1.321   6.225   1.269 -0.5994 -0.7883 -0.4787
 2879TIP3    H230197   1.317   6.371   1.308  0.2347 -0.9682  0.3069
 2880TIP3   OH230198   4.847   0.086   1.199  0.1137 -0.4404 -0.5226
 2880TIP3    H130199   4.853   0.070   1.294 -2.2911  1.0505 -0.0257
 2880TIP3    H230200   4.880   0.175   1.187  0.4485 -0.6403 -1.1047
 2881TIP3   OH230201   1.082   0.289   1.154  0.2212  0.5740 -0.1305
 2881TIP3    H130202   1.127   0.267   1.072  1.0250  0.8351  0.2320
 2881TIP3    H230203   1.143   0.263   1.222 -0.4380  0.3788  0.3918
 2882TIP3   OH230204   5.982   4.439   7.769 -0.0641  0.0029 -0.3840
 2882TIP3    H130205   5.966   4.358   7.816  2.6633 -0.3681  0.0580
 2882TIP3    H230206   5.973   4.508   7.835 -1.5727  0.0303 -0.5838
 2883TIP3   OH230207   5.125   5.039   6.194  0.1979 -0.3698 -0.2897
 2883TIP3    H130208   5.046   5.004   6.235  0.6565 -1.6807 -0.4880
 2883TIP3    H230209   5.144   5.118   6.244 -0.9010 -0.3466  0.1349
 2884TIP3   OH230210   3.313   5.035   8.195 -0.4345 -0.4565 -0.4623
 2884TIP3    H130211   3.388   4.991   8.157 -0.0270 -0.5914  0.4587
 2884TIP3    H230212   3.337   5.128   8.195  0.1828 -0.5937  0.7489
 2885TIP3   OH230213   1.063   0.323   2.102  0.3677  0.6347  0.5244
 2885TIP3    H130214   0.994   0.317   2.168 -1.0022 -0.6659 -0.9269
 2885TIP3    H230215   1.074   0.417   2.087 -1.2671  0.8636  0.6220
 2886TIP3   OH230216   1.479   2.250   1.122  0.3525  0.7586  0.3659
 2886TIP3    H130217   1.450   2.339   1.140 -2.5523  0.1113 -0.6451
 2886TIP3    H230218   1.420   2.218   1.054  1.7353 -1.7292  0.2066
 2887TIP3   OH230219   5.782   0.640   8.186  0.1678 -0.1245 -0.2898
 2887TIP3    H130220   5.861   0.660   8.237 -0.0608 -1.0942  0.4660
 2887TIP3    H230221   5.812   0.638   8.095  0.6230  1.4261 -0.2079
 2888TIP3   OH230222   4.977   2.494   7.030 -0.1049  0.0205  0.1451
 2888TIP3    H130223   4.894   2.450   7.008 -0.2000  0.8503 -1.2587
 2888TIP3    H230224   5.030   2.425   7.069 -1.6472 -0.4002  1.6414
 2889TIP3   OH230225   6.680   1.411   0.494  0.7410  0.2875 -0.0092
 2889TIP3    H130226   6.611   1.348   0.476  0.7111  0.5967 -1.0348
 2889TIP3    H230227   6.758   1.358   0.507  0.7053  0.0286 -0.7991
 2890TIP3   OH230228   1.382   6.795   0.869  0.6067 -0.0384  0.6392
 2890TIP3    H130229   1.384   6.723   0.806  0.1591  0.0859  0.4797
 2890TIP3    H230230   1.443   6.860   0.834  0.2452  0.0961  0.2516
 2891TIP3   OH230231   1.127   2.547   0.876 -0.2405 -0.1508 -0.0810
 2891TIP3    H130232   1.064   2.526   0.944  0.5327 -1.9458  0.1495
 2891TIP3    H230233   1.125   2.472   0.817  0.6835  0.3807 -0.8284
 2892TIP3   OH230234   1.659   6.799   7.808 -0.1248 -0.1532 -0.2711
 2892TIP3    H130235   1.605   6.802   7.729 -1.2958  0.4147  0.5266
 2892TIP3    H230236   1.729   6.861   7.791 -1.0047  0.8250 -0.4361
 2893TIP3   OH230237   0.201   2.346   1.888  0.2755  0.0112 -0.4848
 2893TIP3    H130238   0.215   2.440   1.898 -0.3748 -0.0881  2.3393
 2893TIP3    H230239   0.187   2.315   1.978 -0.1689 -2.6851 -1.4067
 2894TIP3   OH230240   5.220   4.848   6.906 -0.1580  0.1409 -0.1458
 2894TIP3    H130241   5.244   4.940   6.916  1.0551 -0.3504  2.1024
 2894TIP3    H230242   5.133   4.842   6.947  0.6312 -0.0365  1.5919
 2895TIP3   OH230243   3.684   1.640   0.691  0.2750  0.3175  0.4795
 2895TIP3    H130244   3.735   1.630   0.611 -0.2830  1.2752 -0.0126
 2895TIP3    H230245   3.687   1.554   0.733  2.4939  0.4057  0.6004
 2896TIP3   OH230246   2.131   1.032   7.167  0.2846  0.0265  0.3139
 2896TIP3    H130247   2.190   0.962   7.195  1.0105 -0.1940 -1.6172
 2896TIP3    H230248   2.048   1.012   7.210 -0.4236 -3.7504 -2.3357
 2897TIP3   OH230249   6.154   2.882   7.729  0.0260 -0.2393  0.0036
 2897TIP3    H130250   6.233   2.916   7.687  1.1718 -2.2195  0.4884
 2897TIP3    H230251   6.169   2.892   7.822  0.4135 -2.0518  0.1638
 2898TIP3   OH230252   6.468   1.866   1.828  0.1249  0.6515 -0.3152
 2898TIP3    H130253   6.512   1.878   1.745  0.5966 -0.5590 -0.2619
 2898TIP3    H230254   6.502   1.783   1.862  1.0170  1.7984  1.7660
 2899TIP3   OH230255   2.696   1.690   8.509  0.3873 -0.1745 -0.0293
 2899TIP3    H130256   2.770   1.715   8.453  0.6272  0.4798  0.5577
 2899TIP3    H230257   2.693   1.595   8.505  1.3039 -0.2122 -0.0173
 2900TIP3   OH230258   3.925   2.721   0.064  0.2971 -0.2348 -0.5235
 2900TIP3    H130259   3.839   2.683   0.081 -0.0927  0.3395 -1.1887
 2900TIP3    H230260   3.908   2.811   0.038  1.2217  0.5238  1.2643
 2901TIP3   OH230261   2.080   5.533   2.019  0.0883 -0.2187 -0.6434
 2901TIP3    H130262   2.064   5.617   2.061 -1.4046 -1.2770  1.0628
 2901TIP3    H230263   2.173   5.515   2.036 -0.4077 -0.5547  2.2489
 2902TIP3   OH230264   4.642   6.021   1.215  0.2849  0.1803 -0.1160
 2902TIP3    H130265   4.609   5.962   1.283 -0.3366 -0.4847 -0.9633
 2902TIP3    H230266   4.572   6.085   1.203  0.1248 -0.0699 -0.5482
 2903TIP3   OH230267   6.416   0.769   0.157 -0.5215  0.3525  0.3081
 2903TIP3    H130268   6.510   0.789   0.158 -0.2037 -1.0273  1.5761
 2903TIP3    H230269   6.374   0.851   0.181  0.3108  1.1658 -0.9218
 2904TIP3   OH230270   0.868   5.381   1.620  0.1517 -0.2661 -0.1972
 2904TIP3    H130271   0.877   5.289   1.644 -1.5304 -0.1595  1.0460
 2904TIP3    H230272   0.892   5.429   1.699 -1.5028  0.2414  0.0341
 2905TIP3   OH230273   4.507   5.890   1.686 -0.2155 -0.1578  0.0731
 2905TIP3    H130274   4.555   5.811   1.711 -0.5807 -0.3388  0.2224
 2905TIP3    H230275   4.467   5.920   1.768  1.6828  1.4355  0.4843
 2906TIP3   OH230276   5.438   2.115   1.357  0.2867  0.1718  0.6866
 2906TIP3    H130277   5.355   2.113   1.405  0.2706 -1.4239  0.6629
 2906TIP3    H230278   5.464   2.206   1.358 -1.1987  0.6254  1.1785
 2907TIP3   OH230279   3.635   5.038   6.680  0.3048  0.1334  0.2375
 2907TIP3    H130280   3.682   4.963   6.643 -1.3970 -0.2392 -1.3151
 2907TIP3    H230281   3.555   5.000   6.715 -0.9141  1.2768 -1.2149
 2908TIP3   OH230282   4.374   5.453   0.828  0.4301 -0.3150  0.0805
 2908TIP3    H130283   4.355   5.378   0.772  1.8748 -1.2584  0.7878
 2908TIP3    H230284   4.304   5.515   0.810  0.5393 -0.8049 -2.3604
 2909TIP3   OH230285   0.398   4.047   7.810  0.2398 -0.1211 -0.0332
 2909TIP3    H130286   0.400   4.139   7.837  0.0824  0.2905 -1.3614
 2909TIP3    H230287   0.403   4.050   7.715 -2.2581 -1.3815 -0.2755
 2910TIP3   OH230288   1.800   5.755   1.860 -0.3631 -0.7558  0.1281
 2910TIP3    H130289   1.786   5.662   1.839  0.3061 -0.4059 -2.2451
 2910TIP3    H230290   1.882   5.777   1.815 -0.6422  1.0639  0.4323
 2911TIP3   OH230291   6.172   4.735   6.703  0.0127 -0.2515 -0.6376
 2911TIP3    H130292   6.151   4.655   6.752  0.2581  0.3924  0.5616
 2911TIP3    H230293   6.226   4.786   6.763 -0.5616  1.0485 -1.1800
 2912TIP3   OH230294   1.089   1.896   7.605 -1.0917 -0.5167  0.2582
 2912TIP3    H130295   1.133   1.820   7.644  0.5963  0.5355  0.4834
 2912TIP3    H230296   1.153   1.931   7.543 -0.9632  1.9347  1.6507
 2913TIP3   OH230297   1.006   6.596   0.648 -0.5863  0.4155  0.0654
 2913TIP3    H130298   0.997   6.633   0.736 -4.2645  1.0652 -0.4092
 2913TIP3    H230299   0.985   6.503   0.659 -2.4042  0.7564 -0.2359
 2914TIP3   OH230300   3.915   5.533   7.390  0.3711  0.2069 -0.2552
 2914TIP3    H130301   3.900   5.438   7.382  0.3100  0.1588  0.4282
 2914TIP3    H230302   3.837   5.566   7.434  0.5167  0.5400 -0.2443
 2915TIP3   OH230303   0.068   2.192   8.479  0.2077 -0.0229 -0.0904
 2915TIP3    H130304   0.057   2.190   8.384  0.9884  0.3326 -0.2007
 2915TIP3    H230305   0.131   2.263   8.494  1.2760 -1.0866  0.5707
 2916TIP3   OH230306   5.134   4.367   7.436 -0.6245  0.3081 -0.0140
 2916TIP3    H130307   5.214   4.331   7.473 -1.3254  1.2131  2.5377
 2916TIP3    H230308   5.156   4.385   7.344  1.5282 -1.0268  0.1806
 2917TIP3   OH230309   2.424   2.003   7.734 -0.0081 -0.1605  0.0783
 2917TIP3    H130310   2.359   2.070   7.753  0.6167  0.0560  1.6077
 2917TIP3    H230311   2.440   1.960   7.818  2.0063 -0.0282 -0.1897
 2918TIP3   OH230312   2.284   2.603   1.623 -0.2922 -0.1731 -0.2885
 2918TIP3    H130313   2.199   2.637   1.593  0.1275  0.9797 -0.2237
 2918TIP3    H230314   2.293   2.636   1.712  0.9010  1.0262 -0.8260
 2919TIP3   OH230315   0.014   5.328   0.726 -0.7309  0.2315  0.0675
 2919TIP3    H130316  -0.028   5.259   0.674 -0.7649  1.5836 -1.7986
 2919TIP3    H230317   0.047   5.390   0.661  2.1355  0.4127  1.5702
 2920TIP3   OH230318   4.961   4.766   0.647  0.4949  0.0836 -0.1824
 2920TIP3    H130319   4.929   4.704   0.713 -3.2585  1.7759 -0.1529
 2920TIP3    H230320   4.957   4.717   0.565  1.6898 -0.9378  0.3402
 2921TIP3   OH230321   5.324   3.437   0.927 -0.3535 -0.0167 -0.0440
 2921TIP3    H130322   5.413   3.469   0.940  0.0250 -0.2338 -1.8024
 2921TIP3    H230323   5.268   3.500   0.973  0.5693  1.3619 -0.7552
 2922TIP3   OH230324   0.894   2.615   1.147  0.7436  0.5555  0.0722
 2922TIP3    H130325   0.850   2.568   1.076  0.3146  1.6323 -0.4042
 2922TIP3    H230326   0.981   2.575   1.152  0.9429  0.7419 -1.3729
 2923TIP3   OH230327   5.849   2.140   8.082 -0.4173 -0.7246  0.0189
 2923TIP3    H130328   5.918   2.200   8.111  0.4797 -1.6211 -0.1984
 2923TIP3    H230329   5.864   2.130   7.987 -2.3148  0.9063 -0.5181
 2924TIP3   OH230330   3.120   5.607   0.933 -0.1598 -0.4905  0.0107
 2924TIP3    H130331   3.046   5.586   0.877 -0.2896 -1.7447  0.6162
 2924TIP3    H230332   3.081   5.638   1.015  0.0016 -0.1002 -0.0589
 2925TIP3   OH230333   3.959   1.536   0.861  0.1207 -0.3485 -0.2276
 2925TIP3    H130334   3.976   1.517   0.768 -0.7845  2.4413 -1.0849
 2925TIP3    H230335   4.006   1.618   0.878 -1.2947  0.2286  1.1847
 2926TIP3   OH230336   1.807   4.579   0.334 -0.2383  0.2454  0.1529
 2926TIP3    H130337   1.871   4.648   0.350 -1.3089  1.2334  0.2846
 2926TIP3    H230338   1.723   4.617   0.359 -0.7569 -1.4530  1.2393
 2927TIP3   OH230339   2.511   6.021   0.498  0.3035 -0.5104  0.3466
 2927TIP3    H130340   2.583   6.074   0.463 -0.2447 -1.4106 -2.3391
 2927TIP3    H230341   2.437   6.039   0.440 -0.9940 -1.3666  1.6577
 2928TIP3   OH230342   5.664   2.692   1.923 -0.2421  0.1680 -0.0645
 2928TIP3    H130343   5.743   2.737   1.953 -0.3811  0.3918 -0.0340
 2928TIP3    H230344   5.592   2.744   1.958 -0.4233 -0.8747  1.1908
 2929TIP3   OH230345   5.381   3.619   1.760  0.7341  0.5066  0.1074
 2929TIP3    H130346   5.342   3.618   1.847 -0.8711  1.1356 -0.5581
 2929TIP3    H230347   5.308   3.641   1.701  1.8413  0.4413 -1.3565
 2930TIP3   OH230348   0.368   1.468   6.490 -0.6130  0.1280  0.0792
 2930TIP3    H130349   0.382   1.456   6.584  0.3126 -3.3630 -0.3713
 2930TIP3    H230350   0.351   1.562   6.481 -1.7316  0.4733  3.8118
 2931TIP3   OH230351   3.135   0.533   7.372  0.1916  0.5754 -0.0764
 2931TIP3    H130352   3.059   0.589   7.384 -0.0749  0.2367 -0.1648
 2931TIP3    H230353   3.165   0.515   7.461 -0.3476  0.0145  0.0004
 2932TIP3   OH230354   1.911   1.974   7.493  0.1947  0.5145 -0.2403
 2932TIP3    H130355   1.919   1.924   7.574 -0.0402  0.3725 -0.3049
 2932TIP3    H230356   2.001   1.996   7.470  0.1772  2.8790  1.4844
 2933TIP3   OH230357   4.295   6.517   7.426 -0.5181 -0.4076  0.3691
 2933TIP3    H130358   4.214   6.468   7.445 -0.5276 -0.0374  1.3319
 2933TIP3    H230359   4.342   6.461   7.364 -0.4869 -1.7083  1.5047
 2934TIP3   OH230360   1.429   6.393   8.720  0.2615 -0.1695 -0.2817
 2934TIP3    H130361   1.421   6.316   8.776 -0.6456 -0.9210 -1.4041
 2934TIP3    H230362   1.366   6.379   8.650 -0.0199  1.6734 -0.4485
 2935TIP3   OH230363   2.108   6.060   0.633  0.2889  0.1590  0.0507
 2935TIP3    H130364   2.180   6.104   0.588 -2.0493  1.6824 -2.5014
 2935TIP3    H230365   2.098   5.977   0.588 -0.4600  0.6008 -0.6202
 2936TIP3   OH230366   2.294   1.529   6.926 -0.3977  0.9028 -0.2339
 2936TIP3    H130367   2.343   1.491   6.853 -0.8932  0.0112 -0.1272
 2936TIP3    H230368   2.358   1.577   6.977  0.2748  0.1567 -0.3587
 2937TIP3   OH230369   4.387   5.271   1.235  0.0487 -0.7753 -0.0873
 2937TIP3    H130370   4.479   5.280   1.262  0.4721 -1.7186 -1.1450
 2937TIP3    H230371   4.359   5.187   1.273 -0.7581  0.0502  1.2140
 2938TIP3   OH230372   3.766   5.841   0.926 -0.7221 -0.2299  0.2123
 2938TIP3    H130373   3.859   5.858   0.913 -0.8816  0.6931  0.2619
 2938TIP3    H230374   3.745   5.773   0.861 -0.3073  0.4807 -0.6865
 2939TIP3   OH230375   1.126   2.473   7.821  0.4097  0.2827  0.4632
 2939TIP3    H130376   1.153   2.498   7.733  0.6855  0.2011  0.5214
 2939TIP3    H230377   1.045   2.521   7.836  1.2477  1.6686  0.8174
 2940TIP3   OH230378   5.647   1.780   7.664 -0.5914 -0.0967  0.3013
 2940TIP3    H130379   5.657   1.811   7.574 -0.8727 -0.2516  0.2149
 2940TIP3    H230380   5.593   1.847   7.706  1.9220  1.5414  1.1864
 2941TIP3   OH230381   5.435   0.899   8.818 -0.6643 -0.3488  0.3978
 2941TIP3    H130382   5.488   0.823   8.791 -1.6416 -1.1837  0.7420
 2941TIP3    H230383   5.389   0.924   8.738  0.3727  0.5122  0.0446
 2942TIP3   OH230384   3.158   3.721   0.866  0.9212 -0.3351 -0.2906
 2942TIP3    H130385   3.113   3.791   0.913 -0.5536 -1.0028 -0.6544
 2942TIP3    H230386   3.225   3.689   0.928 -1.4459 -1.7160  1.7646
 2943TIP3   OH230387   4.955   4.537   7.575 -0.4878  1.1226  0.3077
 2943TIP3    H130388   5.010   4.489   7.513 -0.4982 -0.1622  1.2418
 2943TIP3    H230389   5.002   4.619   7.590  0.5582  0.5796  0.1388
 2944TIP3   OH230390   1.061   6.396   6.358  0.2136 -0.3605  0.1178
 2944TIP3    H130391   1.143   6.350   6.339 -0.0330 -1.3507  1.3229
 2944TIP3    H230392   0.995   6.327   6.360 -1.0572  0.6315 -2.7794
 2945TIP3   OH230393   4.216   0.181   8.485 -0.0649  0.0883 -0.2150
 2945TIP3    H130394   4.255   0.265   8.511 -0.0268  0.1777 -0.5530
 2945TIP3    H230395   4.216   0.129   8.565  2.1075 -0.4632 -0.4944
 2946TIP3   OH230396   4.510   6.630   7.613 -0.6115  0.3801  0.6039
 2946TIP3    H130397   4.512   6.571   7.688  0.2956  0.2575  0.4978
 2946TIP3    H230398   4.516   6.572   7.537  1.0793  0.6148  0.5145
 2947TIP3   OH230399   0.486   0.847   8.388 -0.2301 -0.3506 -0.0972
 2947TIP3    H130400   0.488   0.860   8.482  1.1035 -2.0313  0.1490
 2947TIP3    H230401   0.533   0.923   8.352 -0.7718  0.3124  0.5690
 2948TIP3   OH230402   3.807   2.001   7.181  0.7685 -0.3465 -0.4947
 2948TIP3    H130403   3.818   1.906   7.173  1.6194 -0.5058  1.7162
 2948TIP3    H230404   3.783   2.014   7.273 -3.9944  1.2606 -1.6532
 2949TIP3   OH230405   1.359   2.788   1.462  0.1816 -0.4197 -0.4340
 2949TIP3    H130406   1.272   2.762   1.430  0.0945 -2.6491  1.3256
 2949TIP3    H230407   1.386   2.859   1.404 -0.7265 -2.8673 -4.2058
 2950TIP3   OH230408   6.173   4.972   8.336  0.3788 -0.3966 -0.1717
 2950TIP3    H130409   6.104   4.956   8.400  1.1787 -1.0443  0.5592
 2950TIP3    H230410   6.232   5.033   8.380  0.7252 -0.5251 -0.4556
 2951TIP3   OH230411   0.286   0.850   8.206 -0.1980  0.1274 -0.3759
 2951TIP3    H130412   0.371   0.824   8.243 -1.1082 -2.5316  0.0535
 2951TIP3    H230413   0.287   0.816   8.117 -1.0174 -0.4345 -0.1796
 2952TIP3   OH230414   4.192   2.843   8.264  0.3461 -0.4546 -0.9390
 2952TIP3    H130415   4.285   2.866   8.257  0.6758 -1.4754 -0.2350
 2952TIP3    H230416   4.167   2.871   8.352 -0.2473  0.5738 -1.4260
 2953TIP3   OH230417   0.829   0.975   8.147 -0.3929  0.4869  0.4466
 2953TIP3    H130418   0.850   0.883   8.166 -3.1117 -0.3033  0.0936
 2953TIP3    H230419   0.872   0.992   8.063 -0.0557 -0.5531  0.3904
 2954TIP3   OH230420   2.287   3.358   7.672  0.5623  0.0154 -0.1795
 2954TIP3    H130421   2.375   3.389   7.691  1.3186 -1.2480 -1.4674
 2954TIP3    H230422   2.299   3.268   7.641 -1.3105 -0.7266  1.0350
 2955TIP3   OH230423   1.451   6.364   0.151  0.4394 -0.2002  0.0071
 2955TIP3    H130424   1.452   6.289   0.091 -0.0506  0.3990 -0.7697
 2955TIP3    H230425   1.367   6.407   0.134  1.7003  1.9155 -1.3169
 2956TIP3   OH230426   4.219   4.258   7.352  0.2614 -0.0909 -0.0479
 2956TIP3    H130427   4.138   4.208   7.336  0.5096 -1.1359  1.7052
 2956TIP3    H230428   4.281   4.224   7.287 -0.2165 -0.5225 -0.2872
 2957TIP3   OH230429   0.620   0.221   2.247  0.2824 -0.3436 -0.0216
 2957TIP3    H130430   0.675   0.286   2.291 -0.2634  1.0034 -1.2678
 2957TIP3    H230431   0.545   0.270   2.216 -0.0637 -1.5393 -1.1660
 2958TIP3   OH230432   1.625   2.927   0.326 -1.0381  0.2937 -0.3078
 2958TIP3    H130433   1.529   2.933   0.330 -1.1174 -0.9740  0.1187
 2958TIP3    H230434   1.649   2.876   0.403 -0.1127 -0.3417 -1.0008
 2959TIP3   OH230435   1.275   3.588   8.005 -0.0205 -0.1585 -0.0692
 2959TIP3    H130436   1.370   3.589   8.001 -0.0632 -0.4943 -2.5306
 2959TIP3    H230437   1.247   3.651   7.938 -1.5038 -1.3703 -0.6443
 2960TIP3   OH230438   4.667   0.250   1.410  0.1049 -0.3360 -0.7349
 2960TIP3    H130439   4.596   0.185   1.408 -0.3457  0.1288 -0.3465
 2960TIP3    H230440   4.746   0.201   1.388 -0.0751 -1.2281  0.4827
 2961TIP3   OH230441   2.247   2.164   8.630  0.4551  0.1341 -0.3825
 2961TIP3    H130442   2.277   2.110   8.556  1.4476  0.1024  0.0251
 2961TIP3    H230443   2.226   2.101   8.699  2.4000  0.2514  0.3806
 2962TIP3   OH230444   4.435   6.223   8.645 -0.1931  0.0832 -0.3267
 2962TIP3    H130445   4.511   6.209   8.702  0.4179  1.9476 -0.5897
 2962TIP3    H230446   4.449   6.311   8.609 -1.6625 -0.1895 -1.6639
 2963TIP3   OH230447   5.266   0.895   6.100 -0.5269  0.1518 -0.5086
 2963TIP3    H130448   5.333   0.928   6.160 -0.5893 -0.0713 -0.3150
 2963TIP3    H230449   5.308   0.823   6.054 -0.7450 -0.2185 -0.1331
 2964TIP3   OH230450   2.798   6.725   8.841  0.6083  0.4355 -0.0554
 2964TIP3    H130451   2.853   6.745   8.765 -0.2212  2.0762 -0.2620
 2964TIP3    H230452   2.713   6.764   8.820  0.4308  1.1276  1.7953
 2965TIP3   OH230453   5.075   2.966   0.168  0.1588 -0.4459  0.4405
 2965TIP3    H130454   5.123   3.005   0.242  0.7763  1.0913 -0.7190
 2965TIP3    H230455   5.046   2.881   0.201 -0.7390  0.7179  2.9243
 2966TIP3   OH230456   3.019   4.616   8.254  0.3029  0.5062  0.2773
 2966TIP3    H130457   3.037   4.587   8.343  1.3082 -2.2882 -0.7002
 2966TIP3    H230458   3.105   4.620   8.212 -0.0571  2.7278 -0.3703
 2967TIP3   OH230459   0.672   6.673   8.710 -0.0007 -0.0531  0.4297
 2967TIP3    H130460   0.694   6.588   8.748  1.0786  0.7076  1.6132
 2967TIP3    H230461   0.757   6.716   8.698 -0.5978  1.6857  1.9386
 2968TIP3   OH230462   1.162   2.745   1.266 -0.4116 -0.7778 -0.2888
 2968TIP3    H130463   1.206   2.802   1.203 -1.3852 -1.1175 -1.2933
 2968TIP3    H230464   1.175   2.657   1.232 -0.6818 -0.9895  0.1522
 2969TIP3   OH230465   1.356   3.492   0.314  0.2979  0.6087  0.1952
 2969TIP3    H130466   1.355   3.521   0.222 -0.2694 -0.2445 -0.0752
 2969TIP3    H230467   1.328   3.401   0.311 -0.4515  0.7866  1.3043
 2970TIP3   OH230468   3.329   2.055   1.559 -0.0127 -0.1841 -0.5126
 2970TIP3    H130469   3.315   2.026   1.649  1.8630  0.5846  0.0827
 2970TIP3    H230470   3.382   1.986   1.519  0.3218  0.1170 -0.5948
 2971TIP3   OH230471   1.105   2.983   7.075  0.3156  0.1660  0.2026
 2971TIP3    H130472   1.026   3.034   7.063 -0.4343 -1.4670 -2.9234
 2971TIP3    H230473   1.116   2.976   7.170 -1.3181  3.2398  0.7341
 2972TIP3   OH230474   5.237   4.018   8.067  0.0746  0.2249 -0.2364
 2972TIP3    H130475   5.230   3.998   8.160  0.4613 -0.4012 -0.3336
 2972TIP3    H230476   5.331   4.022   8.050  0.0070  0.4708 -0.5681
 2973TIP3   OH230477   0.686   5.790   1.072  0.1564 -0.1933  0.2548
 2973TIP3    H130478   0.675   5.728   1.000 -0.6426 -0.0120  0.2176
 2973TIP3    H230479   0.781   5.802   1.078  0.3409 -1.5922  0.4222
 2974TIP3   OH230480   6.759   1.061   0.572 -0.1718  0.5966 -0.4467
 2974TIP3    H130481   6.770   1.019   0.487 -0.9908 -0.4046 -0.0794
 2974TIP3    H230482   6.816   1.137   0.568  0.6452 -0.0352 -1.4839
 2975TIP3   OH230483   3.245   4.198   6.906 -0.2565 -0.2776  0.0294
 2975TIP3    H130484   3.338   4.175   6.896 -0.1848  0.0505 -0.0652
 2975TIP3    H230485   3.203   4.162   6.828  0.0262  0.8163 -0.6354
 2976TIP3   OH230486   6.374   6.063   1.071  0.5017 -0.0968 -0.0818
 2976TIP3    H130487   6.382   6.057   0.976  2.3677 -0.2737  0.0406
 2976TIP3    H230488   6.330   5.982   1.096  1.6085 -0.9295 -0.6843
 2977TIP3   OH230489   6.215   4.859   0.494 -0.1281  0.4147  0.4446
 2977TIP3    H130490   6.189   4.908   0.572  0.7089  1.9082 -0.1737
 2977TIP3    H230491   6.310   4.850   0.503 -0.2665 -1.1796  0.5644
 2978TIP3   OH230492   2.269   1.028   0.918  0.5460 -1.2781 -0.1255
 2978TIP3    H130493   2.267   0.988   1.005 -0.6239 -1.8490 -0.3857
 2978TIP3    H230494   2.361   1.051   0.904  0.3211  2.2775  2.7625
 2979TIP3   OH230495   4.132   4.496   8.037  0.5794  0.1041 -0.0735
 2979TIP3    H130496   4.205   4.553   8.016  0.2605  1.2550  1.7356
 2979TIP3    H230497   4.131   4.431   7.967  1.5091  1.7796 -1.7293
 2980TIP3   OH230498   5.203   5.494   8.761 -0.4310 -0.4706  0.5259
 2980TIP3    H130499   5.238   5.526   8.843 -0.3507 -1.4936  0.9077
 2980TIP3    H230500   5.251   5.413   8.744 -2.1694 -1.6321  0.7899
 2981TIP3   OH230501   1.021   5.572   6.305 -0.8351 -0.2173 -0.1467
 2981TIP3    H130502   0.937   5.608   6.276 -1.5372 -0.9674  0.8848
 2981TIP3    H230503   1.005   5.544   6.395  1.0114  1.1940  0.7016
 2982TIP3   OH230504   5.840   5.341   8.631 -0.1336  0.1540  0.0898
 2982TIP3    H130505   5.920   5.346   8.579 -0.1603  1.8910  0.1280
 2982TIP3    H230506   5.870   5.339   8.722 -0.1187 -0.8507  0.0691
 2983TIP3   OH230507   4.447   0.493   8.179 -0.3029 -0.1197 -0.1265
 2983TIP3    H130508   4.396   0.489   8.098 -2.7763 -0.2919  1.3407
 2983TIP3    H230509   4.525   0.441   8.161 -0.6938  0.0009 -2.4309
 2984TIP3   OH230510   5.311   1.373   6.912 -0.2781 -0.3627 -0.5110
 2984TIP3    H130511   5.385   1.313   6.915 -0.2150 -0.2672 -0.0554
 2984TIP3    H230512   5.291   1.383   6.819 -1.9387 -3.1050 -0.5347
 2985TIP3   OH230513   5.784   0.257   1.540  0.0540 -0.3608 -0.3705
 2985TIP3    H130514   5.751   0.243   1.629 -1.7516 -0.9240 -1.0850
 2985TIP3    H230515   5.874   0.287   1.553 -0.4513  0.4994  1.6757
 2986TIP3   OH230516   4.979   2.033   1.989  0.1136  0.1434 -0.0240
 2986TIP3    H130517   4.934   1.969   1.934  0.3185  0.5051 -0.6240
 2986TIP3    H230518   4.926   2.038   2.068  0.6936 -1.6170  0.5454
 2987TIP3   OH230519   6.027   4.395   0.684  0.3808 -0.2492  0.1314
 2987TIP3    H130520   6.076   4.419   0.606 -0.8991 -0.1881 -0.6738
 2987TIP3    H230521   5.981   4.314   0.660 -1.1055  0.5004  0.3314
 2988TIP3   OH230522   1.299   5.759   0.691  0.0540 -0.1633 -0.3298
 2988TIP3    H130523   1.273   5.667   0.694  0.2595 -0.3011 -1.8970
 2988TIP3    H230524   1.394   5.757   0.695  0.1634 -0.1679 -2.0938
 2989TIP3   OH230525   3.776   0.272   1.907  0.5203  0.0441  0.1021
 2989TIP3    H130526   3.845   0.206   1.914  1.1061  0.5914 -0.3710
 2989TIP3    H230527   3.787   0.328   1.984  1.6866  1.1226 -0.8059
 2990TIP3   OH230528   5.650   3.043   8.532  0.6148  0.5170  0.1186
 2990TIP3    H130529   5.713   3.116   8.534  0.2590  0.8170  0.6053
 2990TIP3    H230530   5.579   3.071   8.590 -0.4435  0.6183 -1.1823
 2991TIP3   OH230531   4.421   4.199   1.322 -0.2850  0.5601  0.8322
 2991TIP3    H130532   4.439   4.117   1.278 -2.1072 -2.0231  4.3755
 2991TIP3    H230533   4.369   4.250   1.259 -1.6624 -2.2777 -0.5017
 2992TIP3   OH230534   6.003   1.453   1.422 -0.4719 -0.0105  0.7203
 2992TIP3    H130535   5.967   1.420   1.504 -0.2927  0.5699  1.0344
 2992TIP3    H230536   6.061   1.524   1.447 -0.6850  0.4084  0.0706
 2993TIP3   OH230537   4.680   1.310   0.460 -0.0690  0.7695  0.1024
 2993TIP3    H130538   4.715   1.224   0.479  2.1524  1.7113  0.5732
 2993TIP3    H230539   4.623   1.297   0.384  0.5723 -1.0136 -0.1101
 2994TIP3   OH230540   4.348   5.781   7.729  0.0606  0.2088  0.2875
 2994TIP3    H130541   4.314   5.870   7.718 -2.1676 -0.4767  1.0968
 2994TIP3    H230542   4.400   5.765   7.650  0.5305  2.2200  0.1466
 2995TIP3   OH230543   5.614   1.202   8.728  0.2321 -0.0632  0.3033
 2995TIP3    H130544   5.636   1.132   8.667 -1.0118  0.4841 -0.8380
 2995TIP3    H230545   5.649   1.282   8.688 -0.1551  0.2362  0.5449
 2996TIP3   OH230546   0.559   5.348   1.389  0.3600 -0.0737 -0.3880
 2996TIP3    H130547   0.546   5.399   1.469 -1.3363 -0.4855 -0.3697
 2996TIP3    H230548   0.648   5.313   1.398  0.6043  0.7664  0.7960
 2997TIP3   OH230549   6.442   4.314   8.443 -0.0888  0.1693  0.4425
 2997TIP3    H130550   6.518   4.372   8.440  0.0456 -0.0350 -0.0955
 2997TIP3    H230551   6.397   4.339   8.524  0.8497 -0.0879  1.0573
 2998TIP3   OH230552   4.943   3.711   6.736  0.4641 -0.2990  0.4692
 2998TIP3    H130553   5.036   3.706   6.713  0.1585 -2.4129 -0.5584
 2998TIP3    H230554   4.919   3.802   6.716  1.7934 -0.2985 -1.4934
 2999TIP3   OH230555   6.639   2.990   1.882  0.1635  0.0734 -0.4990
 2999TIP3    H130556   6.714   2.960   1.831 -0.0032 -1.3567  0.0585
 2999TIP3    H230557   6.650   2.949   1.968 -0.7883  0.5547 -0.1369
 3000TIP3   OH230558   5.985   5.861   1.536  0.2616 -0.3470 -0.4518
 3000TIP3    H130559   6.079   5.876   1.541  0.3124 -0.7994  0.1211
 3000TIP3    H230560   5.971   5.816   1.453  0.4457  0.4206 -0.9039
 3001TIP3   OH230561   1.140   6.639   8.482 -0.0118  0.2745 -0.4713
 3001TIP3    H130562   1.044   6.642   8.485 -0.0401 -0.3609 -0.5347
 3001TIP3    H230563   1.168   6.701   8.550 -0.4672  0.4834 -0.4701
 3002TIP3   OH230564   3.115   3.205   1.651 -0.5162 -0.1127 -0.8552
 3002TIP3    H130565   3.147   3.137   1.592 -0.6105 -1.4458  0.5461
 3002TIP3    H230566   3.175   3.200   1.726 -0.1502  1.7939 -0.9795
 3003TIP3   OH230567   3.477   2.781   7.947  0.6068  0.3629 -0.7143
 3003TIP3    H130568   3.420   2.729   7.889 -0.4956  0.2845  0.3877
 3003TIP3    H230569   3.547   2.720   7.971  0.1177 -0.1623 -0.5831
 3004TIP3   OH230570   0.550   0.879   8.645 -0.6880 -0.1848 -0.7327
 3004TIP3    H130571   0.644   0.899   8.647 -0.4599 -1.1949 -0.0783
 3004TIP3    H230572   0.544   0.793   8.686 -2.0055  0.2325 -0.0016
 3005TIP3   OH230573   3.749   1.765   6.961 -0.2898  0.7342 -0.0219
 3005TIP3    H130574   3.828   1.815   6.940  0.5162 -0.4120  0.2148
 3005TIP3    H230575   3.777   1.674   6.961 -1.6616  0.2874 -0.1098
 3006TIP3   OH230576   3.067   4.094   7.941 -0.3864 -0.3255  0.3251
 3006TIP3    H130577   3.133   4.024   7.938  1.4471  1.3353 -0.5692
 3006TIP3    H230578   3.032   4.098   7.852  0.9173  1.0981 -0.1604
 3007TIP3   OH230579   3.270   3.589   7.422 -0.6161  0.0515  0.0271
 3007TIP3    H130580   3.277   3.674   7.377 -2.0966  0.6393  0.8438
 3007TIP3    H230581   3.250   3.527   7.352 -0.7980  0.5966 -0.4156
 3008TIP3   OH230582   5.629   6.205   1.351 -0.1416 -0.2163 -0.4060
 3008TIP3    H130583   5.671   6.257   1.420 -0.2244  0.2294 -0.6850
 3008TIP3    H230584   5.640   6.258   1.271 -2.4953  0.6349 -0.2388
 3009TIP3   OH230585   2.611   3.242   8.612 -0.5494  0.7235  0.4290
 3009TIP3    H130586   2.538   3.180   8.615 -1.5490  1.8500  0.1653
 3009TIP3    H230587   2.606   3.291   8.694 -0.2143  0.9521  0.3182
 3010TIP3   OH230588   0.500   2.311   0.642  0.2908  0.0161  0.7238
 3010TIP3    H130589   0.496   2.331   0.736  0.1468  0.1729  0.6866
 3010TIP3    H230590   0.410   2.289   0.619  0.3521 -0.1542  0.6505
 3011TIP3   OH230591   2.611   4.062   1.870  0.2343 -0.0097 -0.4197
 3011TIP3    H130592   2.608   4.023   1.957  2.4178  1.7396  0.5168
 3011TIP3    H230593   2.703   4.082   1.855 -0.1312  0.0999 -2.9964
 3012TIP3   OH230594   6.693   4.879   8.171 -0.2146 -0.0930  0.2665
 3012TIP3    H130595   6.763   4.818   8.145 -0.0387 -0.0598  0.6538
 3012TIP3    H230596   6.621   4.860   8.110 -0.1343 -0.6390  0.3369
 3013TIP3   OH230597   2.646   3.456   8.820 -0.1272  0.3806 -0.1982
 3013TIP3    H130598   2.606   3.527   8.770 -2.7875  0.0078  1.1911
 3013TIP3    H230599   2.626   3.477   8.911  0.1714 -1.4752  0.3475
 3014TIP3   OH230600   3.666   4.180   6.221 -0.2749 -0.5955  0.3119
 3014TIP3    H130601   3.725   4.108   6.198 -0.0812 -0.5855  0.7641
 3014TIP3    H230602   3.587   4.136   6.253  1.0386 -0.7048  3.7924
 3015TIP3   OH230603   3.102   1.851   1.030 -0.1401 -0.2106  0.2048
 3015TIP3    H130604   3.011   1.848   0.999 -0.9659  0.7513  2.3865
 3015TIP3    H230605   3.144   1.917   0.975 -0.0094 -2.2896 -2.4498
 3016TIP3   OH230606   0.560   1.709   0.353 -0.0465  0.4840  0.0168
 3016TIP3    H130607   0.551   1.799   0.320  1.6033  0.8803  0.5288
 3016TIP3    H230608   0.652   1.702   0.376 -0.2093 -1.2833  0.2271
 3017TIP3   OH230609   0.772   1.370   1.958 -0.3502  0.1687 -0.3453
 3017TIP3    H130610   0.863   1.364   1.928 -0.9366  2.0860 -2.8351
 3017TIP3    H230611   0.775   1.433   2.031  0.3642 -0.0741 -0.1561
 3018TIP3   OH230612   0.238   3.023   0.199  0.2058  0.1530 -0.0739
 3018TIP3    H130613   0.312   3.019   0.260 -0.5500 -1.6589  0.7984
 3018TIP3    H230614   0.184   3.095   0.231  1.0088  0.7576 -0.0476
 3019TIP3   OH230615   2.788   5.625   2.341  0.1954  0.3329 -0.3861
 3019TIP3    H130616   2.867   5.625   2.288  1.0201  1.0712  0.7905
 3019TIP3    H230617   2.758   5.534   2.340  0.2813  0.2967 -1.9278
 3020TIP3   OH230618   2.592   3.655   8.597  0.2288  0.0509  0.5033
 3020TIP3    H130619   2.497   3.654   8.605  0.2925  1.0034  1.7002
 3020TIP3    H230620   2.609   3.652   8.503 -0.9655 -0.6529  0.2997
 3021TIP3   OH230621   2.066   2.392   6.462  0.4640  0.2903  0.6325
 3021TIP3    H130622   2.153   2.374   6.427  0.6567  0.4627  1.0188
 3021TIP3    H230623   2.007   2.340   6.407  0.7843  0.3567  0.2159
 3022TIP3   OH230624   3.171   1.911   7.003 -0.1854 -0.0522  0.4718
 3022TIP3    H130625   3.102   1.957   7.050 -1.0411 -1.8151  1.0231
 3022TIP3    H230626   3.140   1.907   6.912  0.1280  0.8275  0.3089
 3023TIP3   OH230627   3.164   6.753   7.592 -0.0882  0.1497 -0.1804
 3023TIP3    H130628   3.112   6.688   7.639  1.1328  0.0108  1.0400
 3023TIP3    H230629   3.206   6.704   7.521 -0.4497 -0.0418 -0.2656
 3024TIP3   OH230630   2.856   1.273   8.295 -0.3085 -0.1328 -0.3416
 3024TIP3    H130631   2.889   1.256   8.207  0.1044 -0.6667 -0.0884
 3024TIP3    H230632   2.769   1.235   8.296 -0.9256  1.2045 -0.9876
 3025TIP3   OH230633   3.339   4.101   0.585 -0.0477 -0.5138  0.3962
 3025TIP3    H130634   3.324   4.159   0.660  1.6116  1.5577 -0.7653
 3025TIP3    H230635   3.333   4.158   0.509  0.6795 -2.0862 -0.8943
 3026TIP3   OH230636   4.879   0.337   2.339  0.3097 -0.0320  0.0637
 3026TIP3    H130637   4.934   0.271   2.381 -1.6629 -1.2521  0.8672
 3026TIP3    H230638   4.851   0.394   2.411  0.2680  0.4032 -0.2936
 3027TIP3   OH230639   0.684   3.744   1.655 -0.5641  0.1636  0.4813
 3027TIP3    H130640   0.743   3.681   1.696  0.4004  0.8972  0.2669
 3027TIP3    H230641   0.609   3.750   1.714 -0.5881 -1.0471  0.5881
 3028TIP3   OH230642   5.889   1.754   1.377 -0.1237 -0.3866 -0.3660
 3028TIP3    H130643   5.888   1.850   1.369  1.1310 -0.3415 -0.1536
 3028TIP3    H230644   5.825   1.725   1.312 -0.5146  0.5941 -0.4446
 3029TIP3   OH230645   6.063   5.867   0.900 -0.0672  0.6904 -0.3838
 3029TIP3    H130646   6.123   5.818   0.956 -1.2753 -1.0686 -0.5072
 3029TIP3    H230647   6.001   5.908   0.961 -0.8059 -0.4255 -0.3502
 3030TIP3   OH230648   4.878   4.985   0.037 -0.0403  0.3206 -0.2717
 3030TIP3    H130649   4.817   5.057   0.019 -0.9121 -0.5093 -0.7134
 3030TIP3    H230650   4.875   4.931  -0.042 -0.5728 -1.0095  0.6273
 3031TIP3   OH230651   5.150   5.713   0.736  0.3020 -0.1131 -0.7298
 3031TIP3    H130652   5.245   5.714   0.749  0.2062  2.1596  0.2377
 3031TIP3    H230653   5.132   5.794   0.688 -0.9571 -1.6006 -2.9937
 3032TIP3   OH230654   3.832   4.256   0.960  0.6264  0.1358  0.4677
 3032TIP3    H130655   3.820   4.203   0.881  2.4917  0.9038 -0.3922
 3032TIP3    H230656   3.747   4.298   0.973  0.0344 -0.6599 -0.6490
 3033TIP3   OH230657   1.246   4.867   8.227  0.5265 -0.1434  0.1523
 3033TIP3    H130658   1.281   4.856   8.315 -0.1032 -0.5485  0.3594
 3033TIP3    H230659   1.308   4.821   8.171 -0.0816 -1.5890  0.6069
 3034TIP3   OH230660   0.135   5.778   7.799 -0.3471  0.1145 -0.1884
 3034TIP3    H130661   0.079   5.834   7.745  2.4515  1.8439 -1.5298
 3034TIP3    H230662   0.115   5.805   7.889 -0.4371  1.9902 -0.7118
 3035TIP3   OH230663   1.991   2.584   0.911  0.3623 -0.0221  0.3471
 3035TIP3    H130664   1.928   2.602   0.841  1.7964  1.0159 -0.7246
 3035TIP3    H230665   1.936   2.568   0.988 -1.2862 -1.9300 -1.1039
 3036TIP3   OH230666   4.965   5.655   1.280  0.9546 -0.0554  0.3536
 3036TIP3    H130667   4.901   5.722   1.302  0.0139 -0.5199 -0.8940
 3036TIP3    H230668   4.921   5.599   1.216  2.0390 -1.3332  0.6854
 3037TIP3   OH230669   6.085   5.674   1.300 -0.6322 -0.3040 -0.0537
 3037TIP3    H130670   5.993   5.662   1.277 -0.9112 -2.1274  1.7416
 3037TIP3    H230671   6.114   5.589   1.331  1.8972  0.0476 -1.1698
 3038TIP3   OH230672   3.697   3.907   7.189  1.5136 -0.2615  0.1813
 3038TIP3    H130673   3.772   3.922   7.132  0.6722  0.2678 -0.8250
 3038TIP3    H230674   3.696   3.984   7.247  2.1357 -0.6040  0.6558
 3039TIP3   OH230675   5.315   6.537   0.803  0.8186 -0.3180 -0.3574
 3039TIP3    H130676   5.367   6.524   0.723 -1.4800 -1.8316 -1.7495
 3039TIP3    H230677   5.345   6.468   0.862  1.1657 -0.4617 -0.6902
 3040TIP3   OH230678   3.689   0.157   8.188 -0.0981 -0.4400 -0.1959
 3040TIP3    H130679   3.721   0.132   8.102  1.1796  0.8391 -0.1312
 3040TIP3    H230680   3.663   0.249   8.178  2.4909  0.5596  1.3528
 3041TIP3   OH230681   5.015   5.781   8.009  0.1827  0.2782  0.2826
 3041TIP3    H130682   4.962   5.755   8.084 -0.1331  0.7343  0.2239
 3041TIP3    H230683   4.986   5.723   7.938  1.1639 -0.8075  0.7478
 3042TIP3   OH230684   2.779   1.370   7.477 -0.4119  0.5525 -0.5731
 3042TIP3    H130685   2.864   1.382   7.434  0.0756  1.1763  0.5302
 3042TIP3    H230686   2.789   1.290   7.529 -0.6196  0.4449 -0.6937
 3043TIP3   OH230687   0.942   5.530   8.544 -0.3491  0.1441  0.5195
 3043TIP3    H130688   0.978   5.514   8.632 -0.8967  0.0112  0.7195
 3043TIP3    H230689   1.016   5.513   8.485 -0.2100 -0.6328  0.9000
 3044TIP3   OH230690   6.196   3.416   0.141 -0.1646  0.1182  0.3539
 3044TIP3    H130691   6.202   3.484   0.075 -0.1834 -0.5643 -0.3628
 3044TIP3    H230692   6.146   3.346   0.100  0.4037 -0.5977  0.8441
 3045TIP3   OH230693   5.237   6.447   8.837  0.1806 -0.6940 -0.6061
 3045TIP3    H130694   5.149   6.484   8.834 -0.1427 -1.3016  0.7101
 3045TIP3    H230695   5.241   6.401   8.920  2.9253  2.1627  1.0406
 3046TIP3   OH230696   4.864   3.173   8.453  0.0006 -0.3792 -0.0297
 3046TIP3    H130697   4.915   3.097   8.482 -0.2878 -0.3018  0.7075
 3046TIP3    H230698   4.776   3.139   8.438  0.2703 -0.5276 -1.3761
 3047TIP3   OH230699   6.304   2.471   2.127  0.5564 -0.4610 -0.1736
 3047TIP3    H130700   6.323   2.559   2.160  2.4818 -1.2156  0.8382
 3047TIP3    H230701   6.350   2.412   2.186 -1.0075 -2.2110 -0.6030
 3048TIP3   OH230702   2.151   5.515   1.701 -0.2516  0.2764 -0.2607
 3048TIP3    H130703   2.238   5.502   1.740 -0.2749  0.7409 -0.0503
 3048TIP3    H230704   2.110   5.582   1.756 -0.7847 -0.0216 -0.2943
 3049TIP3   OH230705   0.267   0.451   7.338 -0.1588  0.0469 -0.3971
 3049TIP3    H130706   0.286   0.358   7.324 -1.5078 -0.3604  0.3449
 3049TIP3    H230707   0.352   0.491   7.352  0.3491 -1.3017  0.5498
 3050TIP3   OH230708   0.777   6.337   0.952  0.0075  0.5181  0.4176
 3050TIP3    H130709   0.710   6.304   0.893  1.7195  0.2917 -1.5293
 3050TIP3    H230710   0.784   6.270   1.020  0.6273 -1.2400 -1.2731
 3051TIP3   OH230711   1.213   4.073   1.803 -0.5166 -0.2191 -0.1704
 3051TIP3    H130712   1.237   4.052   1.713 -0.9102 -2.5501  0.2120
 3051TIP3    H230713   1.240   3.996   1.853 -0.2408  1.0499  1.7385
 3052TIP3   OH230714   6.298   6.631   7.884  0.0304  0.5836  0.2576
 3052TIP3    H130715   6.391   6.648   7.899  0.0915  1.5335 -1.0558
 3052TIP3    H230716   6.263   6.713   7.850 -1.2566  0.1895  0.5680
 3053TIP3   OH230717   1.383   4.795   1.981 -0.0882 -0.1261  0.3816
 3053TIP3    H130718   1.341   4.710   1.970 -0.4059 -0.3540  2.9549
 3053TIP3    H230719   1.476   4.774   1.995 -0.2130 -0.0935  1.3097
 3054TIP3   OH230720   4.396   4.244   0.271  0.1858  0.3059  0.1101
 3054TIP3    H130721   4.378   4.273   0.182  0.9846  1.2815  0.2389
 3054TIP3    H230722   4.310   4.228   0.309 -0.1431 -1.0475 -1.1111
 3055TIP3   OH230723   4.271   6.528   0.859 -0.4834 -0.3359  0.0978
 3055TIP3    H130724   4.280   6.508   0.953 -0.6182 -0.8320  0.0064
 3055TIP3    H230725   4.318   6.458   0.815 -2.3343 -1.3896 -0.2823
 3056TIP3   OH230726   5.628   5.319   7.619 -0.4711 -0.2103 -0.3672
 3056TIP3    H130727   5.668   5.260   7.684 -0.7477  1.3564  1.3062
 3056TIP3    H230728   5.699   5.378   7.594 -0.6276 -0.1738 -0.7218
 3057TIP3   OH230729   3.864   3.624   8.509  0.0444 -0.5748 -0.1400
 3057TIP3    H130730   3.896   3.535   8.491  0.1401 -0.2667 -1.6004
 3057TIP3    H230731   3.830   3.654   8.425 -2.7827 -0.3308  1.0029
 3058TIP3   OH230732   2.933   4.804   6.983 -0.3274  0.0457  0.4445
 3058TIP3    H130733   2.851   4.803   6.933 -0.3602  1.7555  0.3882
 3058TIP3    H230734   2.907   4.835   7.070  0.0755 -0.6686  0.8268
 3059TIP3   OH230735   5.915   2.419   2.278 -0.1959 -0.2279  0.0444
 3059TIP3    H130736   5.990   2.427   2.337  2.2549 -1.4574 -2.6512
 3059TIP3    H230737   5.883   2.329   2.293 -0.9930  0.1886  0.9635
 3060TIP3   OH230738   1.664   1.429   8.514 -0.2378 -0.1953  0.4322
 3060TIP3    H130739   1.727   1.437   8.442  0.9599 -1.6068  1.2676
 3060TIP3    H230740   1.705   1.368   8.575 -1.1116  1.1596  2.4649
 3061TIP3   OH230741   0.007   2.931   8.743  0.0926  0.1878  0.4373
 3061TIP3    H130742  -0.026   2.870   8.809  0.4348 -1.2252 -0.6427
 3061TIP3    H230743   0.090   2.963   8.778  1.4855 -2.3714 -0.2525
 3062TIP3   OH230744   5.197   0.876   1.043  0.0683  0.0893 -0.2229
 3062TIP3    H130745   5.204   0.781   1.054 -0.4766  0.1084  0.3738
 3062TIP3    H230746   5.253   0.912   1.112  1.2335  0.2047 -1.2105
 3063TIP3   OH230747   4.046   5.757   7.805 -0.3469 -0.0461  0.1842
 3063TIP3    H130748   4.080   5.745   7.716 -0.8233  2.2021 -0.3599
 3063TIP3    H230749   4.125   5.761   7.860 -0.0231 -0.8612 -0.2085
 3064TIP3   OH230750   5.565   4.057   1.892  0.1673 -0.3706  0.7473
 3064TIP3    H130751   5.482   4.025   1.930  0.1718  0.3470  1.3882
 3064TIP3    H230752   5.632   4.029   1.955  0.5206 -1.6146 -0.1460
 3065TIP3   OH230753   3.953   6.042   1.107  0.3491 -0.1367  0.3416
 3065TIP3    H130754   3.953   6.135   1.084  0.3264 -0.3927 -0.7216
 3065TIP3    H230755   3.974   5.997   1.025 -2.3799 -1.2465  0.1619
 3066TIP3   OH230756   6.368   5.099   8.445 -0.0771  0.1466 -0.3774
 3066TIP3    H130757   6.413   5.180   8.423  0.7949 -0.2106  0.0254
 3066TIP3    H230758   6.383   5.088   8.539  1.1405 -1.2354 -0.6780
 3067TIP3   OH230759   3.760   1.513   2.249 -0.2785  0.1485  0.8021
 3067TIP3    H130760   3.708   1.589   2.226 -0.4370 -0.4852 -1.0650
 3067TIP3    H230761   3.849   1.547   2.261 -0.4592  0.7097  0.5477
 3068TIP3   OH230762   3.087   1.158   0.690  0.1380 -0.2259 -0.6879
 3068TIP3    H130763   3.178   1.144   0.716  0.0709 -1.4929 -1.0842
 3068TIP3    H230764   3.080   1.119   0.603 -0.7678 -0.1033 -0.6786
 3069TIP3   OH230765   3.245   5.423   1.769  0.0741  0.3545  0.2372
 3069TIP3    H130766   3.232   5.390   1.858  0.5077  2.0615  0.9852
 3069TIP3    H230767   3.159   5.418   1.728  0.0572 -1.3110  0.4145
 3070TIP3   OH230768   0.835   0.226   6.830 -0.0063 -0.2081  0.0085
 3070TIP3    H130769   0.864   0.246   6.741  0.7611 -0.3502  0.2227
 3070TIP3    H230770   0.781   0.147   6.821  0.2822 -0.3720 -0.2958
 3071TIP3   OH230771   0.908   5.517   1.079  0.2962  0.2472  0.3740
 3071TIP3    H130772   0.935   5.514   1.170  0.9744 -3.1124  0.2059
 3071TIP3    H230773   0.823   5.473   1.078  1.4192 -2.1338 -0.7945
 3072TIP3   OH230774   3.002   5.570   0.529  0.7792  0.3007  0.0859
 3072TIP3    H130775   2.966   5.572   0.617  0.4990  1.3637 -0.0367
 3072TIP3    H230776   2.927   5.585   0.472  1.0511  0.2279 -0.2987
 3073TIP3   OH230777   3.397   5.313   8.248  0.1616 -0.0060  0.0690
 3073TIP3    H130778   3.346   5.367   8.308  0.8679  1.3235 -0.4857
 3073TIP3    H230779   3.485   5.351   8.251  0.9367 -1.7188  0.3685
 3074TIP3   OH230780   5.645   4.263   8.175 -0.0191  0.3379 -0.5886
 3074TIP3    H130781   5.671   4.177   8.144  1.2954  0.3418  0.4221
 3074TIP3    H230782   5.568   4.247   8.230  0.0779 -0.1646 -0.5987
 3075TIP3   OH230783   4.692   4.431   0.069  0.7152  0.4519  0.2252
 3075TIP3    H130784   4.599   4.407   0.071  0.8985 -0.2388  0.6836
 3075TIP3    H230785   4.698   4.497  -0.000  0.0041 -0.0324 -0.3155
 3076TIP3   OH230786   5.900   5.517   0.402 -0.5053  0.9355 -0.2948
 3076TIP3    H130787   5.849   5.466   0.464  0.3475  1.2938  0.7213
 3076TIP3    H230788   5.922   5.598   0.449  1.1271  0.7225 -0.6371
 3077TIP3   OH230789   4.284   0.741   6.840  0.0833 -0.3580  0.1739
 3077TIP3    H130790   4.189   0.747   6.846 -0.0703  2.4765 -2.3231
 3077TIP3    H230791   4.314   0.732   6.931 -2.5132 -1.5274  1.0041
 3078TIP3   OH230792   5.583   3.228   2.161 -0.6777  0.5431 -0.1433
 3078TIP3    H130793   5.671   3.266   2.156 -1.3384  2.0562 -1.7979
 3078TIP3    H230794   5.568   3.213   2.254  0.6123  2.1029  0.3727
 3079TIP3   OH230795   5.626   1.648   7.347 -0.4000  0.1601 -0.1827
 3079TIP3    H130796   5.578   1.729   7.328 -0.8719  0.2539  1.2640
 3079TIP3    H230797   5.676   1.630   7.267 -1.6394  0.9148 -1.1656
 3080TIP3   OH230798   4.392   5.256   7.105  0.2393  0.0560  0.1785
 3080TIP3    H130799   4.410   5.340   7.062 -0.0607 -1.5490 -3.4869
 3080TIP3    H230800   4.477   5.225   7.135  0.6811  0.7596 -0.3230
 3081TIP3   OH230801   1.079   3.271   7.795 -0.2207  0.0831 -0.2927
 3081TIP3    H130802   1.042   3.343   7.743 -2.9547 -0.8116  0.2592
 3081TIP3    H230803   1.079   3.304   7.885  0.5585  0.1351 -0.3068
 3082TIP3   OH230804   5.138   4.715   7.217 -0.2608 -0.2672  0.4644
 3082TIP3    H130805   5.103   4.802   7.236 -0.6069 -0.8771  3.0486
 3082TIP3    H230806   5.061   4.658   7.214  0.1174 -0.9055  1.7665
 3083TIP3   OH230807   5.836   4.407   2.098 -0.2154 -0.0081  0.1995
 3083TIP3    H130808   5.794   4.493   2.088 -0.9329 -0.5495 -2.3091
 3083TIP3    H230809   5.929   4.423   2.083 -0.6796  0.0166 -3.5909
 3084TIP3   OH230810   2.351   1.740   0.369 -0.3774 -0.1773  0.8618
 3084TIP3    H130811   2.298   1.796   0.312 -1.1146 -1.4158  0.2887
 3084TIP3    H230812   2.317   1.755   0.457 -0.1973  0.6698  0.7964
 3085TIP3   OH230813   5.640   4.873   8.417  0.4650 -0.0817  0.4034
 3085TIP3    H130814   5.609   4.786   8.442 -0.4878 -0.9154 -3.1394
 3085TIP3    H230815   5.735   4.864   8.414  0.3432 -2.0425 -2.6131
 3086TIP3   OH230816   3.876   3.913   0.248 -0.1752  0.3423 -0.2874
 3086TIP3    H130817   3.862   3.936   0.156 -0.6516 -1.3783 -0.6718
 3086TIP3    H230818   3.807   3.961   0.295  0.3808  1.6351 -0.7396
 3087TIP3   OH230819   0.013   1.046   1.375  0.0276  0.4215  0.0603
 3087TIP3    H130820  -0.042   1.073   1.448 -0.0113  0.5175 -0.0037
 3087TIP3    H230821   0.064   1.124   1.353  1.1725 -0.0332  0.9907
 3088TIP3   OH230822   5.841   2.788   8.537 -0.4266  0.4837  0.0475
 3088TIP3    H130823   5.781   2.861   8.523 -2.9389 -1.2669  0.9450
 3088TIP3    H230824   5.914   2.825   8.585 -1.5247  2.4428  0.2901
 3089TIP3   OH230825   1.654   3.381   6.377  0.3358 -0.0436  0.0015
 3089TIP3    H130826   1.565   3.414   6.363  0.7351  0.5536 -1.3498
 3089TIP3    H230827   1.645   3.286   6.376 -0.4350  0.0052  1.0273
 3090TIP3   OH230828   1.438   0.179   7.266 -0.2697 -0.0294 -0.1776
 3090TIP3    H130829   1.457   0.273   7.268 -2.0538  0.3586  0.6517
 3090TIP3    H230830   1.361   0.171   7.210  0.6418 -1.1920 -1.3184
 3091TIP3   OH230831   5.041   4.533   6.909 -0.2002  0.2525  0.4660
 3091TIP3    H130832   5.019   4.512   6.818  2.5418  2.2140 -0.7976
 3091TIP3    H230833   5.037   4.628   6.913  0.9537  0.2733  2.0543
 3092TIP3   OH230834   4.497   1.557   1.490 -0.4740 -0.0895 -0.4858
 3092TIP3    H130835   4.415   1.517   1.462 -1.6092  0.4668  1.7955
 3092TIP3    H230836   4.530   1.499   1.558 -0.8991  1.4720  1.1459
 3093TIP3   OH230837   5.841   5.863   6.949 -0.2850 -0.1374 -0.2478
 3093TIP3    H130838   5.850   5.883   6.856  0.9242  1.6494  0.1938
 3093TIP3    H230839   5.902   5.790   6.964  0.6016  0.5179 -0.5974
 3094TIP3   OH230840   6.777   3.119   8.082 -0.1126  0.1316  0.2726
 3094TIP3    H130841   6.779   3.214   8.099 -0.7865  0.2203 -0.0894
 3094TIP3    H230842   6.806   3.111   7.991 -3.4659  0.3600 -0.9540
 3095TIP3   OH230843   6.482   2.570   7.951 -0.6582 -0.6400 -0.4623
 3095TIP3    H130844   6.484   2.576   8.047  0.7820 -0.1007 -0.5019
 3095TIP3    H230845   6.411   2.510   7.932  0.2052 -2.2001  1.0176
 3096TIP3   OH230846   1.528   5.857   8.691  0.1741 -0.1845  0.6190
 3096TIP3    H130847   1.503   5.826   8.778  2.0656  4.0455  2.9621
 3096TIP3    H230848   1.615   5.821   8.677  0.0885 -0.4216  0.6836
 3097TIP3   OH230849   1.712   2.249   8.370 -0.6522 -0.6155 -0.3341
 3097TIP3    H130850   1.745   2.175   8.320  0.7172 -0.1945 -0.0978
 3097TIP3    H230851   1.782   2.268   8.433 -2.0408 -0.7252  1.3090
 3098TIP3   OH230852   0.241   4.793   0.787 -0.0761  0.4386  0.1697
 3098TIP3    H130853   0.234   4.711   0.836  0.0613  0.2355 -0.1439
 3098TIP3    H230854   0.290   4.851   0.845  2.4700 -0.6401 -0.7349
 3099TIP3   OH230855   5.293   1.766   2.124 -0.0748 -0.2797  0.2373
 3099TIP3    H130856   5.312   1.847   2.075  0.8969 -3.1730 -4.9851
 3099TIP3    H230857   5.204   1.743   2.098 -0.0425 -1.2589  0.9716
 3100TIP3   OH230858   1.353   6.736   2.098  0.0305  0.5101 -0.1300
 3100TIP3    H130859   1.369   6.650   2.059 -3.0913 -0.3162  0.1097
 3100TIP3    H230860   1.289   6.777   2.039 -0.6123  1.4864  1.1957
 3101TIP3   OH230861   5.407   1.189   1.239 -0.2341 -0.0041  0.7808
 3101TIP3    H130862   5.487   1.236   1.263 -0.8291  1.4272  0.0685
 3101TIP3    H230863   5.438   1.106   1.202  1.0918  1.4197 -1.5652
 3102TIP3   OH230864   6.616   2.242   7.964  0.6958 -0.1552  0.1792
 3102TIP3    H130865   6.529   2.211   7.988  1.1993 -1.4633  0.4105
 3102TIP3    H230866   6.600   2.317   7.906 -0.5639  1.1134  2.0523
 3103TIP3   OH230867   1.380   6.238   7.264  0.3209  0.1379  0.7116
 3103TIP3    H130868   1.445   6.266   7.328  1.6048 -1.8254  0.3528
 3103TIP3    H230869   1.355   6.150   7.292 -0.7405  0.1125 -0.2551
 3104TIP3   OH230870   4.706   5.403   0.173 -0.0583  0.1054 -0.5268
 3104TIP3    H130871   4.630   5.423   0.120 -0.2195 -1.4098 -0.9282
 3104TIP3    H230872   4.704   5.307   0.183 -0.3928  0.3209  2.7143
 3105TIP3   OH230873   4.602   6.699   6.052  0.1385 -0.3626  0.1040
 3105TIP3    H130874   4.546   6.776   6.039 -0.3804 -1.0331 -1.9299
 3105TIP3    H230875   4.682   6.719   6.005 -0.0867 -1.1269 -0.6302
 3106TIP3   OH230876   4.487   1.070   6.484  0.5267  0.1759  0.2179
 3106TIP3    H130877   4.467   1.005   6.552  2.9092 -0.3285  0.5425
 3106TIP3    H230878   4.567   1.037   6.443 -0.4346  0.8292 -2.4199
 3107TIP3   OH230879   4.126   0.973   0.947 -0.2500  0.0565  0.0543
 3107TIP3    H130880   4.136   0.879   0.958  2.5011  0.2098 -0.2804
 3107TIP3    H230881   4.035   0.985   0.920 -0.5683 -2.5311 -0.2802
 3108TIP3   OH230882   2.629   1.787   2.534 -0.5953 -0.2780  0.1964
 3108TIP3    H130883   2.568   1.861   2.540 -0.9309 -0.6503  1.7462
 3108TIP3    H230884   2.631   1.766   2.440  0.4928  2.4803 -0.5155
 3109TIP3   OH230885   0.362   0.818   6.150  0.1457 -0.6244 -1.0065
 3109TIP3    H130886   0.305   0.894   6.140  0.2602 -0.3869  0.0348
 3109TIP3    H230887   0.447   0.855   6.174 -0.0667 -1.0913  0.6231
 3110TIP3   OH230888   6.784   0.242   8.079  0.8350  0.3586 -0.1017
 3110TIP3    H130889   6.731   0.221   8.155  1.1134 -1.0354 -0.2772
 3110TIP3    H230890   6.742   0.320   8.042 -0.0438  0.3095  0.7474
 3111TIP3   OH230891   2.330   0.999   1.188 -0.1129 -0.5981 -0.3927
 3111TIP3    H130892   2.263   1.031   1.249 -0.0095  0.7568 -0.9764
 3111TIP3    H230893   2.388   0.945   1.243 -1.7080 -1.8919  0.1049
 3112TIP3   OH230894   2.684   4.058   1.164  0.3151 -0.1918  0.0993
 3112TIP3    H130895   2.768   4.070   1.118  0.1253  0.3314 -0.1225
 3112TIP3    H230896   2.619   4.058   1.094  0.1046 -0.3077  0.2976
 3113TIP3   OH230897   1.566   1.651   1.257  0.5414 -0.3014 -0.0626
 3113TIP3    H130898   1.647   1.699   1.239 -0.3358  0.6597 -1.5811
 3113TIP3    H230899   1.561   1.585   1.188  0.7544 -1.3509  0.8945
 3114TIP3   OH230900   5.433   1.466   7.450  0.1784 -0.0177  0.2598
 3114TIP3    H130901   5.479   1.538   7.407 -0.4921 -0.0459 -0.5238
 3114TIP3    H230902   5.346   1.501   7.471 -0.4640 -0.8407 -0.9150
 3115TIP3   OH230903   3.607   5.838   7.068 -0.2786  0.1904  0.2333
 3115TIP3    H130904   3.515   5.822   7.049 -0.3889  0.7094  0.3164
 3115TIP3    H230905   3.622   5.928   7.039  1.0442 -0.8780 -2.9424
 3116TIP3   OH230906   4.876   0.793   7.607 -0.1989 -0.6096  0.0479
 3116TIP3    H130907   4.917   0.710   7.630  1.8526  0.4508  0.4952
 3116TIP3    H230908   4.812   0.808   7.676  0.3273 -1.2133  0.6859
 3117TIP3   OH230909   5.970   1.025   7.433 -0.2481 -0.3766 -0.5838
 3117TIP3    H130910   5.996   0.947   7.385 -1.9225 -1.2242 -0.1858
 3117TIP3    H230911   5.981   1.002   7.525 -2.5743 -0.9196 -0.3654
 3118TIP3   OH230912   0.180   6.405   0.029 -0.2800  0.2957 -0.0363
 3118TIP3    H130913   0.144   6.345   0.094  1.4840  1.0246  1.7110
 3118TIP3    H230914   0.133   6.488   0.044 -2.0051 -0.2828 -1.7858
 3119TIP3   OH230915   4.076   5.023   0.987 -0.0026 -0.2482 -0.3568
 3119TIP3    H130916   4.073   5.016   1.082 -1.7630  2.0426 -0.1649
 3119TIP3    H230917   4.158   5.068   0.968  0.0272 -0.0894  0.1436
 3120TIP3   OH230918   2.668   5.667   1.548  0.4883  0.5758  0.0171
 3120TIP3    H130919   2.743   5.609   1.533  0.6079  0.2710  1.5389
 3120TIP3    H230920   2.680   5.697   1.639 -1.0273  0.8332  0.1517
 3121TIP3   OH230921   2.851   1.942   8.615  0.2683 -0.2089 -0.0663
 3121TIP3    H130922   2.861   1.878   8.545 -2.0679 -0.8890  0.1559
 3121TIP3    H230923   2.910   1.911   8.684  0.3176 -1.2359 -0.5524
 3122TIP3   OH230924   5.029   6.200   2.082  0.1818  0.6646  0.2759
 3122TIP3    H130925   5.006   6.285   2.120 -1.5131  0.7427 -0.8558
 3122TIP3    H230926   4.948   6.167   2.045  1.5824  0.2933 -2.7161
 3123TIP3   OH230927   1.994   5.083   7.718 -0.4461  0.5653  0.7297
 3123TIP3    H130928   2.068   5.025   7.735 -0.4339 -0.0663 -1.1864
 3123TIP3    H230929   2.003   5.154   7.782  2.3889  1.0113 -0.0344
 3124TIP3   OH230930   4.244   6.327   8.226 -0.1542  0.3396 -0.3817
 3124TIP3    H130931   4.275   6.277   8.151  0.9463  0.6044 -0.1100
 3124TIP3    H230932   4.173   6.382   8.191  0.4382  0.5562 -1.2554
 3125TIP3   OH230933   0.378   5.974   8.279 -0.5292 -0.1873  0.5749
 3125TIP3    H130934   0.378   5.984   8.183  0.3551 -0.2622  0.5584
 3125TIP3    H230935   0.470   5.972   8.302 -0.7420 -0.1879  1.4376
 3126TIP3   OH230936   4.496   3.963   1.626  0.1172 -0.4748 -0.1825
 3126TIP3    H130937   4.508   3.953   1.720 -0.9444 -0.9480 -0.0877
 3126TIP3    H230938   4.438   4.039   1.617  1.5973  0.6693 -0.5531
 3127TIP3   OH230939   5.899   1.969   7.836  0.6860  0.3076 -0.1903
 3127TIP3    H130940   5.808   1.989   7.816  0.9351  2.0793  0.2911
 3127TIP3    H230941   5.924   1.903   7.771 -0.4655  0.9960 -1.3690
 3128TIP3   OH230942   2.506   1.154   1.034  0.0656  0.4294 -0.3243
 3128TIP3    H130943   2.440   1.101   1.079 -1.8728  2.0545 -1.0724
 3128TIP3    H230944   2.589   1.128   1.073 -0.9372 -2.0808  0.3242
 3129TIP3   OH230945   4.018   3.763   8.763  0.2998 -0.3087  0.2566
 3129TIP3    H130946   4.082   3.703   8.802 -1.0473 -0.0701  3.0304
 3129TIP3    H230947   3.950   3.706   8.727  1.6573 -0.5383 -2.2143
 3130TIP3   OH230948   5.343   0.841   1.294 -0.6538  0.3882 -0.0947
 3130TIP3    H130949   5.428   0.878   1.319 -0.8990  1.7616 -1.1968
 3130TIP3    H230950   5.279   0.888   1.347 -0.6564 -2.2539  2.4859
 3131TIP3   OH230951   3.819   3.039   0.628 -0.1820  0.2787 -1.0149
 3131TIP3    H130952   3.879   3.114   0.629  2.1835 -1.4748 -1.8714
 3131TIP3    H230953   3.803   3.021   0.721 -0.3104  1.4361 -0.7883
 3132TIP3   OH230954   0.594   5.265   7.641  0.4084  0.1903  0.2649
 3132TIP3    H130955   0.567   5.202   7.573 -0.5214  0.4467  0.3823
 3132TIP3    H230956   0.542   5.343   7.623  0.2918  0.3289  1.1633
 3133TIP3   OH230957   6.360   6.431   6.822  0.2032 -0.5393 -0.5006
 3133TIP3    H130958   6.314   6.391   6.896 -0.9498 -1.4319 -1.6329
 3133TIP3    H230959   6.445   6.388   6.821 -0.0319 -1.0280 -0.1023
 3134TIP3   OH230960   0.735   2.307   1.125 -0.4487  0.1800  0.5360
 3134TIP3    H130961   0.700   2.355   1.200  1.1026  2.8961 -0.3366
 3134TIP3    H230962   0.658   2.271   1.081 -1.6769  1.5287  1.4954
 3135TIP3   OH230963   3.478   0.844   0.813  0.4786 -0.0041  0.3122
 3135TIP3    H130964   3.414   0.913   0.828 -3.2160 -2.4262 -2.4270
 3135TIP3    H230965   3.503   0.854   0.722  0.3096 -1.8239  0.0231
 3136TIP3   OH230966   3.880   6.641   0.837  0.1926  0.3482 -0.0439
 3136TIP3    H130967   3.941   6.597   0.896 -0.9368  1.0571  1.7312
 3136TIP3    H230968   3.799   6.649   0.887 -0.7018  1.3568 -1.5604
 3137TIP3   OH230969   6.374   4.201   0.180  0.5700  0.1099  0.2547
 3137TIP3    H130970   6.358   4.250   0.260 -0.7240 -0.5327  0.4119
 3137TIP3    H230971   6.359   4.263   0.109  0.7285  0.4083  0.4812
 3138TIP3   OH230972   0.315   2.810   0.519 -0.2278  0.1184 -0.2040
 3138TIP3    H130973   0.359   2.743   0.467 -1.2518  0.2219 -1.2652
 3138TIP3    H230974   0.223   2.803   0.493 -0.6976  0.5245  1.2437
 3139TIP3   OH230975   4.933   2.979   1.722 -0.1294  0.2435  0.2098
 3139TIP3    H130976   4.896   2.893   1.700  0.6471 -0.1588  0.4300
 3139TIP3    H230977   4.876   3.042   1.678 -0.6441 -0.3920 -0.0475
 3140TIP3   OH230978   2.473   0.527   8.349  0.1243 -0.6481 -0.9825
 3140TIP3    H130979   2.420   0.593   8.305 -0.7345 -0.0873  0.7997
 3140TIP3    H230980   2.521   0.576   8.416 -0.3579 -1.7696  0.2250
 3141TIP3   OH230981   2.306   1.987   8.422  0.0310  0.6681 -0.9677
 3141TIP3    H130982   2.298   1.907   8.474 -1.2660  1.0752 -0.4904
 3141TIP3    H230983   2.376   1.969   8.360  0.1669 -0.6152 -0.4666
 3142TIP3   OH230984   3.919   2.049   1.172  0.5825  0.6271 -0.0826
 3142TIP3    H130985   3.906   2.057   1.077 -0.4920 -0.8037 -0.0959
 3142TIP3    H230986   3.938   2.138   1.201 -1.4987  1.5547 -1.2914
 3143TIP3   OH230987   4.672   0.049   7.581 -1.0406  1.1629 -0.4700
 3143TIP3    H130988   4.596   0.002   7.615 -0.5564  0.6109 -0.1342
 3143TIP3    H230989   4.678   0.021   7.489 -1.2869  1.2700 -0.5191
 3144TIP3   OH230990   5.581   0.177   7.277 -0.0658  0.6322  0.1864
 3144TIP3    H130991   5.647   0.174   7.208  1.5339  0.2017  1.6561
 3144TIP3    H230992   5.596   0.261   7.321  0.7430 -0.2221  1.6307
 3145TIP3   OH230993   3.235   4.282   8.229  0.4873 -0.4313  0.5746
 3145TIP3    H130994   3.144   4.254   8.239  0.6248 -0.9936  0.3097
 3145TIP3    H230995   3.261   4.249   8.143  1.3090 -1.3465  1.1494
 3146TIP3   OH230996   5.576   6.676   7.346 -0.4353  0.2879 -0.1818
 3146TIP3    H130997   5.581   6.767   7.317 -1.9420  0.7549  0.9111
 3146TIP3    H230998   5.650   6.665   7.405 -0.7888  1.0973  0.4180
 3147TIP3   OH230999   3.205   0.100   1.349 -0.7315 -0.0983  0.1539
 3147TIP3    H131000   3.199   0.005   1.347 -0.4293 -0.1016 -1.0987
 3147TIP3    H231001   3.127   0.128   1.397 -2.6265 -0.8330 -2.3049
 3148TIP3   OH231002   2.834   0.209   1.323  0.1722 -0.2919 -0.1926
 3148TIP3    H131003   2.864   0.127   1.283 -2.5612 -1.4018 -0.1992
 3148TIP3    H231004   2.892   0.222   1.398  0.1430 -2.7473  0.3362
 3149TIP3   OH231005   5.071   6.705   8.653  0.0777 -0.5979 -0.1391
 3149TIP3    H131006   5.147   6.687   8.598 -0.4266  0.2328 -1.1467
 3149TIP3    H231007   5.006   6.640   8.626  0.1667 -0.8119  0.1665
 3150TIP3   OH231008   0.822   2.646   7.624 -0.5304 -0.3581 -0.1308
 3150TIP3    H131009   0.836   2.584   7.553  0.2706  0.8097 -1.0432
 3150TIP3    H231010   0.736   2.684   7.606 -1.8608 -2.4462  1.4574
 3151TIP3   OH231011   1.980   2.390   8.203  0.0813 -0.4200  0.0229
 3151TIP3    H131012   2.031   2.324   8.251  2.1291  0.0957 -1.2849
 3151TIP3    H231013   1.937   2.341   8.133 -0.8621 -0.7829  0.8311
 3152TIP3   OH231014   6.781   4.496   1.723  0.5249 -0.3917 -0.1514
 3152TIP3    H131015   6.693   4.501   1.759  0.4122 -1.6742 -0.2081
 3152TIP3    H231016   6.769   4.481   1.630  0.8224  0.7688 -0.3992
 3153TIP3   OH231017   1.687   0.394   8.209 -0.0161 -0.5280  0.0082
 3153TIP3    H131018   1.640   0.368   8.287  0.7513  0.3965  0.8052
 3153TIP3    H231019   1.629   0.455   8.164  1.0487  2.0935  1.9473
 3154TIP3   OH231020   2.202   3.290   1.945 -0.6591 -0.1834 -0.2066
 3154TIP3    H131021   2.150   3.369   1.960 -0.5859 -0.3205  0.8935
 3154TIP3    H231022   2.292   3.322   1.942 -0.6325 -0.2174  0.1978
 3155TIP3   OH231023   2.214   2.123   2.418 -0.4090  0.2730 -0.0458
 3155TIP3    H131024   2.156   2.081   2.355 -0.5354  0.0960  0.1876
 3155TIP3    H231025   2.180   2.213   2.424 -2.0725 -0.3845  1.7270
 3156TIP3   OH231026   4.376   0.771   7.082  0.3237 -0.2571  0.2806
 3156TIP3    H131027   4.469   0.769   7.061  0.3128  2.1840 -0.3189
 3156TIP3    H231028   4.364   0.702   7.148  3.0146  0.8406  2.0665
 3157TIP3   OH231029   4.568   2.877   1.476  0.1872  0.3637 -0.3233
 3157TIP3    H131030   4.531   2.930   1.406 -1.6002 -0.3964 -0.0200
 3157TIP3    H231031   4.601   2.799   1.432 -0.0103  0.3450 -0.4419
 3158TIP3   OH231032   4.752   3.995   1.191  0.2018 -0.6697  0.0120
 3158TIP3    H131033   4.663   4.012   1.160  0.3861  0.0843 -0.1333
 3158TIP3    H231034   4.743   3.981   1.285 -0.1217 -1.0434 -0.0720
 3159TIP3   OH231035   6.134   3.046   7.147 -0.4386 -0.2299 -0.1259
 3159TIP3    H131036   6.199   3.057   7.217  0.9945  1.4932 -1.6118
 3159TIP3    H231037   6.068   3.112   7.165  0.8915  1.5213 -1.3240
 3160TIP3   OH231038   5.626   2.661   0.728  0.5227  0.4042 -0.0751
 3160TIP3    H131039   5.575   2.687   0.652  0.1401  0.0532  0.0600
 3160TIP3    H231040   5.612   2.731   0.792  1.3520  1.0181 -0.5518
 3161TIP3   OH231041   1.737   1.869   1.417 -0.0440 -0.3459 -0.3827
 3161TIP3    H131042   1.741   1.792   1.474 -1.6168 -0.2297 -0.0931
 3161TIP3    H231043   1.765   1.836   1.331  0.3659 -0.9765 -0.0146
 3162TIP3   OH231044   4.683   6.593   8.164 -0.0744  0.1921  0.1631
 3162TIP3    H131045   4.677   6.680   8.125 -3.0726  0.4686  0.9743
 3162TIP3    H231046   4.700   6.610   8.257  3.7706 -0.3613 -0.2610
 3163TIP3   OH231047   4.417   1.984   1.774  0.1031  0.3887 -0.2236
 3163TIP3    H131048   4.463   1.902   1.756  0.5993  0.3685  1.0324
 3163TIP3    H231049   4.344   1.958   1.831 -1.9638  0.3145 -2.7545
 3164TIP3   OH231050   1.685   3.665   6.485  0.2763  0.2636 -0.1927
 3164TIP3    H131051   1.750   3.716   6.438 -0.5391 -1.1661 -3.1338
 3164TIP3    H231052   1.689   3.578   6.445 -2.4258 -0.2747  0.4816
 3165TIP3   OH231053   5.147   6.306   0.563 -0.4652  0.4450  0.2839
 3165TIP3    H131054   5.084   6.234   0.557  0.3296 -0.2006 -0.3905
 3165TIP3    H231055   5.113   6.361   0.634 -1.0381 -0.6318  0.8603
 3166TIP3   OH231056   2.923   6.386   7.547 -0.6566 -0.7964 -0.8975
 3166TIP3    H131057   2.925   6.354   7.637 -1.5644  0.5965 -0.3410
 3166TIP3    H231058   3.015   6.405   7.526 -0.4812 -0.7278 -0.1085
 3167TIP3   OH231059   0.726   1.266   2.303 -0.2469  0.4513 -0.2274
 3167TIP3    H131060   0.808   1.233   2.338 -0.4664  0.5861  0.4427
 3167TIP3    H231061   0.737   1.361   2.301 -1.2032  0.6985  2.1543
 3168TIP3   OH231062   3.021   3.514   8.723  0.2813  0.1776 -0.1896
 3168TIP3    H131063   3.065   3.440   8.765 -1.0214 -0.6275 -0.1959
 3168TIP3    H231064   3.092   3.565   8.685  1.1327 -1.8914 -1.5444
 3169TIP3   OH231065   1.449   4.682   7.670 -0.4199 -0.0873 -0.0106
 3169TIP3    H131066   1.496   4.760   7.700  0.6292 -0.4056 -0.7966
 3169TIP3    H231067   1.360   4.694   7.704  0.0274  0.8748  0.8819
 3170TIP3   OH231068   3.607   2.564   1.599 -0.5800 -0.5506 -0.0292
 3170TIP3    H131069   3.534   2.612   1.561 -1.2564 -0.9529  0.7440
 3170TIP3    H231070   3.567   2.492   1.648  0.3518 -1.1136 -0.0449
 3171TIP3   OH231071   1.016   3.639   6.877  0.3386  0.0643 -0.2002
 3171TIP3    H131072   0.974   3.700   6.938  0.7987 -0.7165  0.9448
 3171TIP3    H231073   0.943   3.596   6.832 -0.0161  0.5238 -0.0724
 3172TIP3   OH231074   0.991   0.916   0.802 -0.3414 -0.1614  0.6188
 3172TIP3    H131075   0.931   0.990   0.801  0.0373  0.1481  0.3156
 3172TIP3    H231076   0.959   0.859   0.871 -0.5600  0.3513  0.9421
 3173TIP3   OH231077   2.022   5.972   6.408  0.2951 -0.2135 -0.2538
 3173TIP3    H131078   1.933   5.961   6.443  0.0473  0.7357 -0.5723
 3173TIP3    H231079   2.013   6.035   6.337  0.8568 -1.8285 -1.8395
 3174TIP3   OH231080   2.784   0.008   8.321 -0.4123  0.4629 -0.0597
 3174TIP3    H131081   2.695   0.043   8.319 -0.2489  0.9874  0.9522
 3174TIP3    H231082   2.840   0.085   8.309 -0.0952  0.0335 -1.4540
 3175TIP3   OH231083   4.038   2.890   1.786 -0.3590  0.0876  0.5638
 3175TIP3    H131084   4.106   2.957   1.776 -0.6492  0.3822  0.5498
 3175TIP3    H231085   4.021   2.887   1.881 -0.5954  0.2868  0.5294
 3176TIP3   OH231086   1.126   6.610   6.547 -0.1855 -0.0620  0.3548
 3176TIP3    H131087   1.220   6.602   6.530 -0.2311 -0.5124  0.3173
 3176TIP3    H231088   1.085   6.550   6.485 -0.4559 -0.3949  0.8478
 3177TIP3   OH231089   2.521   2.046   2.323 -0.0743  0.4095 -0.6347
 3177TIP3    H131090   2.492   2.032   2.413 -0.7854  2.9229 -0.4052
 3177TIP3    H231091   2.458   1.998   2.270 -1.8008  1.7682  0.0903
 3178TIP3   OH231092   6.488   6.536   2.055 -0.5592 -0.1083 -1.0365
 3178TIP3    H131093   6.467   6.595   1.983  0.6324 -1.0286 -2.1812
 3178TIP3    H231094   6.574   6.564   2.085 -1.0395  0.2652  0.0804
 3179TIP3   OH231095   2.282   0.085   0.173  0.1275 -0.2691 -0.4298
 3179TIP3    H131096   2.370   0.057   0.150  0.7692  0.6598  0.7748
 3179TIP3    H231097   2.252   0.136   0.097  0.3572 -1.1346 -1.1129
 3180TIP3   OH231098   4.980   0.062   0.947  0.0898  0.0406  0.3692
 3180TIP3    H131099   4.979  -0.011   0.885  0.0340  0.1598  0.2289
 3180TIP3    H231100   4.950   0.024   1.029 -0.9290  0.1296  0.0453
 3181TIP3   OH231101   1.566   1.888   0.720  0.0227  0.6669 -0.6102
 3181TIP3    H131102   1.548   1.895   0.814 -0.7370 -2.0288 -0.4941
 3181TIP3    H231103   1.496   1.939   0.679 -0.5422  0.5976  0.2316
 3182TIP3   OH231104   2.998   2.596   7.061  0.0560 -0.0837 -0.0104
 3182TIP3    H131105   2.975   2.674   7.011  0.6637 -0.2764 -0.6092
 3182TIP3    H231106   3.088   2.611   7.090  0.0166 -0.3608  0.2698
 3183TIP3   OH231107   3.475   2.611   0.679  0.2673  0.0582 -0.0112
 3183TIP3    H131108   3.541   2.655   0.732  1.0590  0.4784 -1.3137
 3183TIP3    H231109   3.476   2.520   0.711  1.8707 -0.0726 -0.3712
 3184TIP3   OH231110   3.088   5.251   0.686  0.4866  0.1081 -0.1241
 3184TIP3    H131111   3.162   5.213   0.732  2.1796 -2.1882 -4.2288
 3184TIP3    H231112   3.022   5.182   0.686  0.6324 -0.0508 -1.2941
 3185TIP3   OH231113   6.609   1.474   1.411 -0.2264  0.1398  0.3983
 3185TIP3    H131114   6.584   1.409   1.345  3.0672 -1.3260  0.3816
 3185TIP3    H231115   6.596   1.558   1.368  0.5033 -0.7195 -1.6684
 3186TIP3   OH231116   2.260   3.860   7.222 -0.4284 -0.5786  0.1194
 3186TIP3    H131117   2.207   3.803   7.278  1.9103 -2.8922  0.1934
 3186TIP3    H231118   2.320   3.903   7.283 -0.0510 -0.5448 -0.2735
 3187TIP3   OH231119   1.948   5.565   1.492  0.5193 -0.0228 -0.3224
 3187TIP3    H131120   1.930   5.636   1.430  0.7172 -0.0519 -0.4124
 3187TIP3    H231121   1.976   5.609   1.572  0.5817  0.0019 -0.3583
 3188TIP3   OH231122   0.795   2.250   7.817  0.0022  0.5044  0.2706
 3188TIP3    H131123   0.816   2.336   7.853 -0.9803 -0.0825  2.4137
 3188TIP3    H231124   0.856   2.190   7.859  0.9699  0.1557 -1.5338
 3189TIP3   OH231125   1.169   3.376   6.189  0.4561 -0.4005 -0.1519
 3189TIP3    H131126   1.155   3.290   6.228 -0.1516  1.0591  3.1915
 3189TIP3    H231127   1.092   3.390   6.134 -0.1054 -1.4404  0.3385
 3190TIP3   OH231128   6.122   4.057   7.155  0.3869 -0.1823 -0.5357
 3190TIP3    H131129   6.047   4.115   7.142  0.3824 -0.4958 -2.0001
 3190TIP3    H231130   6.089   3.969   7.137  0.6203 -0.5746  0.8073
 3191TIP3   OH231131   1.972   2.880   8.794 -0.0255 -0.7019  0.1050
 3191TIP3    H131132   2.039   2.903   8.858  0.3874 -0.5796 -0.3625
 3191TIP3    H231133   2.010   2.807   8.744 -0.5005 -1.0530  0.2504
 3192TIP3   OH231134   0.164   4.778   6.492  0.1676  0.0077  0.1156
 3192TIP3    H131135   0.068   4.775   6.494 -0.0464  3.1984 -0.8571
 3192TIP3    H231136   0.188   4.818   6.576  0.6795 -0.7804  0.3540
 3193TIP3   OH231137   4.096   3.006   1.038  0.2083 -0.1577  0.0304
 3193TIP3    H131138   4.057   3.023   0.953  1.6586 -1.2663 -0.9045
 3193TIP3    H231139   4.136   3.090   1.064 -1.6911  0.6656  0.4761
 3194TIP3   OH231140   4.780   4.322   7.382 -0.1844  0.1769  0.2917
 3194TIP3    H131141   4.841   4.260   7.341 -0.3167 -0.4482  1.0203
 3194TIP3    H231142   4.837   4.387   7.424 -0.0022 -0.4008  0.9626
 3195TIP3   OH231143   3.257   4.684   0.721 -0.8230  0.1956 -0.1659
 3195TIP3    H131144   3.187   4.691   0.656 -1.2266 -1.6605  0.0300
 3195TIP3    H231145   3.212   4.659   0.802 -0.0208 -0.3293  0.1299
 3196TIP3   OH231146   0.112   5.876   2.358  0.0216  0.3829 -0.3076
 3196TIP3    H131147   0.029   5.827   2.364  0.2081  0.1618  0.7291
 3196TIP3    H231148   0.089   5.957   2.314 -0.9408  0.6922  0.7042
 3197TIP3   OH231149   4.510   3.512   8.260  0.4152 -0.0442  0.2999
 3197TIP3    H131150   4.457   3.574   8.209  1.9465  1.0246 -0.0426
 3197TIP3    H231151   4.594   3.510   8.215  0.7818 -1.5200  0.9888
 3198TIP3   OH231152   0.861   6.792   7.465  0.2711 -0.0706 -0.1083
 3198TIP3    H131153   0.829   6.880   7.446  1.7292  0.3317 -0.8248
 3198TIP3    H231154   0.913   6.801   7.545  0.7657 -0.1918 -0.4124
 3199TIP3   OH231155   1.646   6.059   0.695  0.0675 -0.2976 -0.2906
 3199TIP3    H131156   1.558   6.096   0.700  0.3846  0.7504 -1.7772
 3199TIP3    H231157   1.677   6.059   0.786 -0.8175  1.0015  0.0458
 3200TIP3   OH231158   5.983   3.899   1.135  0.6907 -0.2480 -0.4311
 3200TIP3    H131159   5.897   3.927   1.104  0.4707 -0.8333 -0.3697
 3200TIP3    H231160   5.980   3.803   1.128  1.4641 -0.2510 -0.7710
 3201TIP3   OH231161   4.600   2.548   7.925 -0.0297 -0.2638 -0.0018
 3201TIP3    H131162   4.506   2.561   7.915  0.1526  0.2341 -1.1728
 3201TIP3    H231163   4.631   2.628   7.968  0.0791  0.2261 -0.9877
 3202TIP3   OH231164   3.394   1.682   8.600 -0.2484  0.9364  0.1028
 3202TIP3    H131165   3.369   1.772   8.575 -3.3778  0.0840 -0.3153
 3202TIP3    H231166   3.350   1.627   8.536  0.8602 -0.9687  0.9033
 3203TIP3   OH231167   3.622   6.134   7.117  0.5337  0.2095  0.1356
 3203TIP3    H131168   3.609   6.115   7.024 -1.8654 -2.2178  0.8464
 3203TIP3    H231169   3.606   6.228   7.126 -1.0946  0.1391 -1.6256
 3204TIP3   OH231170   0.382   2.318   8.841 -0.3874 -0.3537 -0.4757
 3204TIP3    H131171   0.363   2.290   8.931 -1.4676 -2.0500 -1.2033
 3204TIP3    H231172   0.450   2.385   8.852 -1.9141  0.9960  1.7594
 3205TIP3   OH231173   2.475   2.348   6.833  0.1211  0.5115 -0.1976
 3205TIP3    H131174   2.464   2.371   6.740  0.1289 -0.7489 -0.5362
 3205TIP3    H231175   2.567   2.364   6.851  0.4660 -0.6375 -0.8429
 3206TIP3   OH231176   3.094   3.321   0.078  0.3839  0.6540  0.1332
 3206TIP3    H131177   3.159   3.253   0.061 -0.3088 -0.4192  1.4845
 3206TIP3    H231178   3.010   3.277   0.064 -0.1017  2.0339 -1.6626
 3207TIP3   OH231179   1.235   5.574   7.694 -0.1594 -0.1498  0.0570
 3207TIP3    H131180   1.276   5.650   7.735 -0.9214  0.6943 -0.6945
 3207TIP3    H231181   1.268   5.499   7.744  2.1643  0.4825 -0.4220
 3208TIP3   OH231182   0.616   2.874   8.088  0.3095  0.0510 -0.0528
 3208TIP3    H131183   0.529   2.834   8.085  0.6457 -0.6730 -0.5106
 3208TIP3    H231184   0.617   2.923   8.170 -0.3029 -0.4409  0.2578
 3209TIP3   OH231185   2.213   2.499   7.366 -0.0628  0.3482  0.4040
 3209TIP3    H131186   2.294   2.450   7.358 -0.1664  0.1505  0.5395
 3209TIP3    H231187   2.186   2.518   7.276 -0.6334 -0.8586  0.3003
 3210TIP3   OH231188   3.528   5.172   7.022  0.1210  0.2489  0.1243
 3210TIP3    H131189   3.470   5.217   7.084  0.5888 -0.9292  1.4864
 3210TIP3    H231190   3.487   5.086   7.009  0.4200  0.2151 -0.6191
 3211TIP3   OH231191   4.707   5.286   0.599 -0.1715  0.3563 -0.0721
 3211TIP3    H131192   4.747   5.268   0.514 -0.4146  0.6354 -0.2486
 3211TIP3    H231193   4.715   5.381   0.609 -0.8594  0.4288 -0.1473
 3212TIP3   OH231194   2.321   1.919   2.099 -0.0765  1.1154  0.1138
 3212TIP3    H131195   2.272   1.865   2.160  0.5608  1.5863  1.0695
 3212TIP3    H231196   2.259   1.987   2.071 -1.5601 -1.1832 -2.7143
 3213TIP3   OH231197   1.807   4.036   1.391  0.3954 -0.1679  0.5366
 3213TIP3    H131198   1.726   4.067   1.433  0.1371 -0.3389  0.1725
 3213TIP3    H231199   1.777   3.984   1.317  0.7993 -1.8319  1.4885
 3214TIP3   OH231200   0.237   0.870   7.551  1.0125 -0.2755 -0.1135
 3214TIP3    H131201   0.291   0.929   7.604 -1.3858 -0.0443  2.2819
 3214TIP3    H231202   0.262   0.782   7.580  1.1203 -0.2382 -0.0907
 3215TIP3   OH231203   1.113   0.516   7.240  0.3287  0.2425  0.5646
 3215TIP3    H131204   1.145   0.457   7.172  1.0200  0.4115  0.7297
 3215TIP3    H231205   1.193   0.555   7.276 -0.1395  1.8984 -0.1084
 3216TIP3   OH231206   3.710   5.856   6.284  0.6340  0.1449  0.4570
 3216TIP3    H131207   3.733   5.817   6.369  0.6495  0.6344  0.6798
 3216TIP3    H231208   3.709   5.782   6.223 -1.7768 -0.6365  1.3224
 3217TIP3   OH231209   4.681   0.504   0.795 -0.3368  0.6442 -0.3850
 3217TIP3    H131210   4.769   0.506   0.758 -0.0282  0.2534  0.3151
 3217TIP3    H231211   4.624   0.526   0.722  0.4673  2.9340 -0.4240
 3218TIP3   OH231212   0.999   2.867   0.977  0.2791  0.4788  0.0515
 3218TIP3    H131213   1.024   2.923   0.904  2.2924 -1.6546 -1.0490
 3218TIP3    H231214   0.963   2.788   0.936  1.3985 -0.7421  1.2940
 3219TIP3   OH231215   6.579   2.813   2.139 -0.4666  0.4579 -0.7375
 3219TIP3    H131216   6.500   2.760   2.151 -1.2713  1.4368 -1.5581
 3219TIP3    H231217   6.597   2.849   2.226 -0.6205 -0.1570 -0.4423
 3220TIP3   OH231218   0.140   3.326   6.936  0.1052 -0.4880  0.5154
 3220TIP3    H131219   0.079   3.252   6.937  0.9363 -1.1945  0.0571
 3220TIP3    H231220   0.123   3.372   7.018 -0.4758 -1.1444  0.7745
 3221TIP3   OH231221   0.234   0.149   0.975  0.0824 -0.1742 -0.2458
 3221TIP3    H131222   0.160   0.209   0.967  0.5378  0.2087 -1.7225
 3221TIP3    H231223   0.251   0.145   1.069  0.3465  2.3548 -0.1427
 3222TIP3   OH231224   3.203   5.749   7.983  0.1232  0.2641 -0.1225
 3222TIP3    H131225   3.164   5.709   8.061  0.0972  0.1812 -0.1787
 3222TIP3    H231226   3.297   5.754   8.004  0.0296  0.8281  0.1735
 3223TIP3   OH231227   5.800   3.917   6.940  0.8365  0.0272  0.3608
 3223TIP3    H131228   5.862   3.909   6.867 -0.0771  2.4035 -0.7734
 3223TIP3    H231229   5.771   3.827   6.957  1.4647 -0.6648 -1.8793
 3224TIP3   OH231230   3.050   6.769   8.021  0.1646  0.4418  0.3027
 3224TIP3    H131231   3.033   6.846   7.966  0.9735 -1.2636 -2.5622
 3224TIP3    H231232   3.127   6.793   8.073  1.1999  1.2103 -1.4770
 3225TIP3   OH231233   1.226   3.418   2.382  0.1292  0.0891  0.2225
 3225TIP3    H131234   1.209   3.383   2.294  1.1699  0.2422 -0.0505
 3225TIP3    H231235   1.173   3.497   2.387 -2.1598 -1.3748  0.7941
 3226TIP3   OH231236   2.898   4.042   7.132 -0.6045  0.0289 -0.2264
 3226TIP3    H131237   2.947   4.119   7.106 -1.2060  0.5297  0.0902
 3226TIP3    H231238   2.806   4.067   7.121 -0.9195  0.3502  2.5216
 3227TIP3   OH231239   5.928   4.499   6.868  0.3736 -1.0902 -0.3853
 3227TIP3    H131240   6.019   4.473   6.858  0.4955 -1.1726  0.8311
 3227TIP3    H231241   5.890   4.487   6.781  1.8583  0.3613 -1.2835
 3228TIP3   OH231242   6.376   0.704   8.317  0.5620 -0.2224  0.6801
 3228TIP3    H131243   6.282   0.722   8.312  0.7987  1.0925  0.6776
 3228TIP3    H231244   6.408   0.723   8.229  1.0652  0.8101  1.0778
 3229TIP3   OH231245   4.896   2.636   8.009  0.2446 -0.1535  0.1016
 3229TIP3    H131246   4.888   2.588   7.927  1.0367 -0.3790  0.1523
 3229TIP3    H231247   4.898   2.567   8.076  1.8079 -0.0901  0.1458
 3230TIP3   OH231248   2.747   2.718   0.863  0.6513 -0.3353  0.2646
 3230TIP3    H131249   2.828   2.683   0.825  0.9459 -2.4741  2.5106
 3230TIP3    H231250   2.679   2.657   0.835  0.6360 -1.0935  1.7896
 3231TIP3   OH231251   4.924   6.159   0.591  0.7217 -0.6645  0.9539
 3231TIP3    H131252   4.890   6.173   0.503  1.2390  1.7441  1.0728
 3231TIP3    H231253   4.850   6.174   0.649  1.3108  2.3114  1.0912
 3232TIP3   OH231254   5.008   6.053   7.451 -0.0671 -0.5164 -0.8193
 3232TIP3    H131255   5.070   6.120   7.423 -0.9003  1.1041  1.0301
 3232TIP3    H231256   5.063   5.976   7.469  1.2096  0.3912 -0.7128
 3233TIP3   OH231257   0.471   1.787   1.250  0.0288  0.0078  0.0200
 3233TIP3    H131258   0.435   1.702   1.275 -0.8054 -0.0680 -1.3365
 3233TIP3    H231259   0.551   1.796   1.302  0.0013 -1.4944  0.3619
 3234TIP3   OH231260   2.935   2.180   8.773  0.3353 -0.3557  0.5923
 3234TIP3    H131261   2.896   2.197   8.688 -1.8275  1.1135  1.7910
 3234TIP3    H231262   2.986   2.099   8.760  0.4000  0.0312 -2.1334
 3235TIP3   OH231263   4.661   3.491   2.332  0.0983 -0.7535  0.4573
 3235TIP3    H131264   4.683   3.539   2.252 -0.5620  0.3049  0.8841
 3235TIP3    H231265   4.591   3.432   2.306  0.2336 -0.7760  0.1392
 3236TIP3   OH231266   0.595   0.181   7.410 -0.3523  0.7615  0.0282
 3236TIP3    H131267   0.596   0.113   7.478  0.5242 -0.1557 -0.8537
 3236TIP3    H231268   0.628   0.259   7.454 -1.8408  0.7621  1.1888
 3237TIP3   OH231269   0.583   1.288   6.243  0.1957 -0.4369 -0.7092
 3237TIP3    H131270   0.630   1.270   6.324  1.0674 -0.9562 -1.3054
 3237TIP3    H231271   0.580   1.383   6.237  1.4527 -0.3791 -0.7884
 3238TIP3   OH231272   2.765   6.553   7.801  0.0989 -0.0218  0.3687
 3238TIP3    H131273   2.772   6.581   7.893 -1.0021  0.6861  0.2508
 3238TIP3    H231274   2.728   6.465   7.805 -2.9237  1.1498  0.5522
 3239TIP3   OH231275   2.396   3.427   8.227  0.0693 -0.1319 -0.1266
 3239TIP3    H131276   2.337   3.500   8.209  1.0544  0.5806 -0.5784
 3239TIP3    H231277   2.391   3.373   8.148  1.1592  0.7529 -0.8503
 3240TIP3   OH231278   2.352   4.329   0.086 -0.5805 -0.5901  0.5629
 3240TIP3    H131279   2.319   4.366   0.168  1.4623 -1.9634  2.1296
 3240TIP3    H231280   2.325   4.237   0.089 -2.3067 -0.2130 -1.4052
 3241TIP3   OH231281   4.264   3.299   0.451 -0.1342  0.5246  0.2172
 3241TIP3    H131282   4.257   3.393   0.432 -1.0347  0.8186  1.7951
 3241TIP3    H231283   4.335   3.268   0.394  0.9512  2.3880  0.4712
 3242TIP3   OH231284   4.274   4.864   6.536 -0.6978  1.2214  0.8021
 3242TIP3    H131285   4.315   4.782   6.562 -1.6940 -0.4679 -2.4772
 3242TIP3    H231286   4.189   4.864   6.578 -0.5594  0.7316  1.0786
 3243TIP3   OH231287   0.986   2.319   0.410 -0.2297 -0.0531  0.0857
 3243TIP3    H131288   1.009   2.411   0.414  0.6941 -0.2506 -0.5108
 3243TIP3    H231289   0.894   2.316   0.438 -1.2048  1.4082 -2.5993
 3244TIP3   OH231290   2.685   6.531   7.498 -0.5151  0.1826  0.5981
 3244TIP3    H131291   2.685   6.600   7.565 -1.7432  1.2890 -0.4658
 3244TIP3    H231292   2.761   6.477   7.519  1.2438  2.5406  0.8189
 3245TIP3   OH231293   1.035   2.338   0.143  0.5389  0.1314  0.2647
 3245TIP3    H131294   1.023   2.344   0.238 -0.9973 -0.4312  0.1388
 3245TIP3    H231295   0.991   2.416   0.108  0.2333 -0.1622 -0.0246
 3246TIP3   OH231296   4.081   2.603   8.206  0.3966 -0.1965 -0.0170
 3246TIP3    H131297   4.134   2.679   8.228 -0.6709  0.6892 -0.4212
 3246TIP3    H231298   4.039   2.578   8.288  1.3658 -0.8592  0.2900
 3247TIP3   OH231299   1.269   6.463   1.994 -0.1739  0.0658  0.6026
 3247TIP3    H131300   1.204   6.415   2.045  0.7888 -0.9276  0.9230
 3247TIP3    H231301   1.349   6.411   2.001  0.7261  1.3741  0.4059
 3248TIP3   OH231302   4.520   3.001   7.171 -0.1546  0.1045 -0.3190
 3248TIP3    H131303   4.448   2.943   7.145 -1.0827  1.2773 -0.4159
 3248TIP3    H231304   4.537   3.054   7.093 -0.6089  1.2575  0.3552
 3249TIP3   OH231305   4.256   2.082   7.164 -0.2911 -0.0468 -0.3529
 3249TIP3    H131306   4.350   2.099   7.155 -0.6648  1.8203 -1.3048
 3249TIP3    H231307   4.250   1.990   7.188  1.8331  0.1417  1.0925
 3250TIP3   OH231308   4.254   5.857   6.911  0.4932  0.1032 -0.2590
 3250TIP3    H131309   4.339   5.821   6.884  0.1981  0.9810 -2.6073
 3250TIP3    H231310   4.199   5.852   6.833 -1.1120  1.0700  0.7288
 3251TIP3   OH231311   0.022   0.057   8.380 -0.2986  0.7751 -0.1467
 3251TIP3    H131312  -0.018  -0.026   8.403 -0.3840  0.8747  0.0683
 3251TIP3    H231313   0.010   0.112   8.457 -0.3069  1.0098 -0.3116
 3252TIP3   OH231314   5.003   0.316   7.377 -0.2587  0.3425  0.3116
 3252TIP3    H131315   4.930   0.374   7.356  0.0851  0.2480 -1.2174
 3252TIP3    H231316   5.030   0.279   7.293  2.8919  1.9776  0.4565
 3253TIP3   OH231317   1.783   4.449   0.110 -0.7322 -0.6719 -0.1320
 3253TIP3    H131318   1.762   4.491   0.193 -1.5870 -1.9894  0.3422
 3253TIP3    H231319   1.700   4.412   0.080 -0.0548 -1.8041 -0.6468
 3254TIP3   OH231320   0.408   6.662   0.763  0.2378 -0.3607  0.3476
 3254TIP3    H131321   0.422   6.571   0.737  0.0813 -0.8960  2.0579
 3254TIP3    H231322   0.462   6.674   0.841 -0.7223  0.6375  0.8927
 3255TIP3   OH231323   1.457   5.181   7.908 -0.2336  0.1209 -0.0299
 3255TIP3    H131324   1.385   5.117   7.908  0.7820 -1.0613 -0.2946
 3255TIP3    H231325   1.508   5.161   7.986 -0.2323  1.0192  0.2118
 3256TIP3   OH231326   1.540   1.749   2.332 -0.5071 -0.0670  0.4347
 3256TIP3    H131327   1.459   1.732   2.284 -0.6231  1.9231 -0.1645
 3256TIP3    H231328   1.610   1.726   2.270 -0.6483  0.8606 -0.0829
 3257TIP3   OH231329   3.883   1.996   7.644  0.4194 -0.2539 -0.1866
 3257TIP3    H131330   3.920   1.949   7.570  0.3164 -0.2687 -0.2280
 3257TIP3    H231331   3.831   1.931   7.691  2.4564 -0.9150  1.3095
 3258TIP3   OH231332   3.624   4.231   6.551  0.4595 -0.2576  0.2779
 3258TIP3    H131333   3.712   4.266   6.560  0.4534  0.2154 -1.2243
 3258TIP3    H231334   3.585   4.283   6.480 -0.4842 -1.4846 -0.1305
 3259TIP3   OH231335   4.888   6.026   6.471  0.3861  0.3214 -0.2542
 3259TIP3    H131336   4.942   6.103   6.454  0.3000  0.6085  0.7509
 3259TIP3    H231337   4.948   5.952   6.464  1.3375  0.7293  2.4116
 3260TIP3   OH231338   2.710   5.077   6.953 -0.1360 -0.0015  0.4942
 3260TIP3    H131339   2.661   5.111   7.028 -3.0740  1.1197 -1.7039
 3260TIP3    H231340   2.672   4.991   6.937 -0.6326  0.3790 -0.5109
 3261TIP3   OH231341   1.760   4.434   8.550  0.3027 -0.0714 -0.1583
 3261TIP3    H131342   1.825   4.364   8.537  3.1636  2.2780  0.5314
 3261TIP3    H231343   1.750   4.472   8.463 -0.3022 -0.4967 -0.2850
 3262TIP3   OH231344   2.226   3.855   8.020  0.0725 -0.8176 -0.4051
 3262TIP3    H131345   2.163   3.896   8.079 -0.4371 -1.0170 -0.8042
 3262TIP3    H231346   2.182   3.853   7.935  1.0769  0.1487 -0.9840
 3263TIP3   OH231347   5.716   0.868   0.584 -0.4011 -0.2960 -0.3431
 3263TIP3    H131348   5.659   0.890   0.659 -0.4162  3.3871 -1.2120
 3263TIP3    H231349   5.792   0.825   0.624 -0.3550  1.6240  1.9085
 3264TIP3   OH231350   2.947   4.069   1.309 -0.2379  0.0425 -0.0156
 3264TIP3    H131351   2.973   4.093   1.398 -0.0582 -0.2659  0.0144
 3264TIP3    H231352   2.871   4.124   1.291 -0.5483 -0.2183  0.4950
 3265TIP3   OH231353   1.685   2.832   7.319  0.4112 -0.4375  0.3378
 3265TIP3    H131354   1.695   2.877   7.402  2.2591 -1.1634  0.5418
 3265TIP3    H231355   1.711   2.897   7.253 -0.1492 -0.1635  0.3803
 3266TIP3   OH231356   3.983   5.294   7.530 -0.2913 -0.0010 -0.0775
 3266TIP3    H131357   4.075   5.320   7.529 -0.6033  1.1611 -0.2503
 3266TIP3    H231358   3.985   5.200   7.516  0.8778 -0.0126  0.0417
 3267TIP3   OH231359   4.372   0.769   8.685 -0.3661 -0.0652 -0.6715
 3267TIP3    H131360   4.437   0.837   8.701 -0.6822  0.4869 -1.6341
 3267TIP3    H231361   4.423   0.693   8.658 -0.0588  0.0607 -0.4491
 3268TIP3   OH231362   0.846   0.073   0.722  0.0466 -0.0209  0.3257
 3268TIP3    H131363   0.813   0.055   0.634 -0.8873 -0.5656  0.7859
 3268TIP3    H231364   0.812   0.003   0.776  0.8910  0.1277  1.0752
 3269TIP3   OH231365   3.071   1.841   1.511  0.2433 -0.4638 -0.2919
 3269TIP3    H131366   3.048   1.934   1.516 -0.3003 -0.5931 -0.2473
 3269TIP3    H231367   3.110   1.830   1.424 -0.8971 -0.4367 -0.8287
 3270TIP3   OH231368   0.755   5.164   7.052  0.2153  0.0983 -0.0966
 3270TIP3    H131369   0.809   5.175   6.973 -0.4393 -0.2288 -0.6019
 3270TIP3    H231370   0.752   5.069   7.065  3.9187  0.1516  2.8947
 3271TIP3   OH231371   5.981   2.027   1.005 -0.4251 -0.1392 -0.1925
 3271TIP3    H131372   5.887   2.018   1.023 -0.7576  1.7126 -0.8509
 3271TIP3    H231373   5.989   2.007   0.911 -0.7147  2.8582 -0.9358
 3272TIP3   OH231374   5.457   4.417   0.568 -0.0722 -0.0022  0.1862
 3272TIP3    H131375   5.367   4.414   0.602 -0.1378  0.8707  0.1130
 3272TIP3    H231376   5.499   4.340   0.605 -0.9960 -0.7018 -0.1867
 3273TIP3   OH231377   3.237   4.075   8.443 -0.1237 -0.0669 -0.5076
 3273TIP3    H131378   3.306   4.141   8.445  0.9727 -1.2039  0.7116
 3273TIP3    H231379   3.156   4.125   8.432  0.7490  1.4110 -0.4051
 3274TIP3   OH231380   6.172   0.425   0.507  0.4426  0.6978 -0.5467
 3274TIP3    H131381   6.233   0.464   0.445  0.5627 -0.3837 -1.1356
 3274TIP3    H231382   6.103   0.388   0.452  0.2173  0.2900  0.0009
 3275TIP3   OH231383   5.578   3.165   0.380 -0.1514  0.2780 -0.9718
 3275TIP3    H131384   5.526   3.235   0.419  0.7247  0.1633  0.5087
 3275TIP3    H231385   5.515   3.108   0.337 -1.1976  0.4337  0.3030
 3276TIP3   OH231386   4.068   3.554   8.215  0.4454  0.1327 -0.6174
 3276TIP3    H131387   4.063   3.459   8.226  0.0249  0.2246  0.1147
 3276TIP3    H231388   4.003   3.574   8.148 -1.1581  0.1127  0.8266
 3277TIP3   OH231389   4.750   3.521   8.134 -0.5082  0.8212 -0.0526
 3277TIP3    H131390   4.818   3.473   8.182 -1.8427 -1.3093 -0.1620
 3277TIP3    H231391   4.799   3.574   8.071  1.1329  1.2708  1.4952
 3278TIP3   OH231392   3.079   3.201   0.871  0.3256 -0.0302 -0.0501
 3278TIP3    H131393   3.088   3.142   0.946 -0.0248 -0.3439 -0.2464
 3278TIP3    H231394   3.141   3.271   0.887 -0.6228  0.5721  1.1689
 3279TIP3   OH231395   6.374   3.501   2.041  0.2615  0.1699 -0.1214
 3279TIP3    H131396   6.449   3.472   2.092 -0.6741  1.4954  2.1870
 3279TIP3    H231397   6.315   3.425   2.039  0.6373 -0.1332  0.1779
 3280TIP3   OH231398   3.082   3.856   8.372 -0.5806 -0.0635  0.1544
 3280TIP3    H131399   3.135   3.930   8.343  1.0428 -1.5368 -0.8493
 3280TIP3    H231400   3.113   3.837   8.460 -0.7692  0.2399  0.2876
 3281TIP3   OH231401   4.726   2.986   6.736  0.4031  0.4812 -0.2732
 3281TIP3    H131402   4.639   2.978   6.697  0.6119 -1.9021 -0.4034
 3281TIP3    H231403   4.785   2.997   6.661  0.3848  0.0898 -0.3503
 3282TIP3   OH231404   6.267   5.516   0.394  0.4227 -0.2160 -0.1929
 3282TIP3    H131405   6.359   5.518   0.420  0.1102 -1.0676  1.0646
 3282TIP3    H231406   6.262   5.443   0.332  0.5371 -0.3851 -0.0054
 3283TIP3   OH231407   4.759   3.705   8.388  0.0255  0.3244 -0.2454
 3283TIP3    H131408   4.711   3.769   8.336  1.1230  1.5480  0.2213
 3283TIP3    H231409   4.843   3.695   8.343 -0.0418 -0.6507 -0.1891
 3284TIP3   OH231410   1.438   4.408   1.416 -0.7401 -0.0662 -0.0859
 3284TIP3    H131411   1.401   4.438   1.333  0.0370 -1.1608 -0.8663
 3284TIP3    H231412   1.532   4.411   1.403 -0.6199 -0.9699  0.4807
 3285TIP3   OH231413   2.092   1.526   1.747  0.1444  0.7275  0.6308
 3285TIP3    H131414   2.128   1.554   1.663  0.5167 -0.0859  0.5072
 3285TIP3    H231415   2.167   1.527   1.807 -0.2180  1.7845  1.0871
 3286TIP3   OH231416   4.322   6.066   1.409 -0.6468 -0.0544  0.2495
 3286TIP3    H131417   4.245   6.025   1.370 -0.4042  0.8464 -1.2474
 3286TIP3    H231418   4.380   5.993   1.429 -0.2515 -0.5276 -2.3001
 3287TIP3   OH231419   2.097   0.404   1.212 -0.0243  0.0123 -0.1056
 3287TIP3    H131420   2.023   0.408   1.150 -0.5931 -0.2253  0.5426
 3287TIP3    H231421   2.113   0.311   1.225 -0.1534  0.0539  0.3812
 3288TIP3   OH231422   6.727   2.905   6.962 -0.4424 -0.1188 -0.0612
 3288TIP3    H131423   6.756   2.971   6.899 -1.4771  0.1961 -0.2421
 3288TIP3    H231424   6.753   2.940   7.047 -0.9282  0.5093 -0.1607
 3289TIP3   OH231425   0.713   0.277   1.967  0.4510  0.4269 -0.3144
 3289TIP3    H131426   0.689   0.353   2.021  0.4778 -0.0654  0.4014
 3289TIP3    H231427   0.639   0.218   1.975  0.4041  0.3993 -0.9255
 3290TIP3   OH231428   0.690   2.537   1.646  0.6017 -0.1764  0.6368
 3290TIP3    H131429   0.700   2.520   1.739  0.6733 -0.0849  0.6461
 3290TIP3    H231430   0.650   2.458   1.611  1.2444 -0.5063  0.6237
 3291TIP3   OH231431   6.054   4.357   8.447  0.5959 -0.8182  0.1827
 3291TIP3    H131432   6.035   4.330   8.357 -0.6062  0.9015 -0.1252
 3291TIP3    H231433   6.075   4.276   8.492 -0.4377 -1.9300 -1.2455
 3292TIP3   OH231434   1.852   6.140   2.194  0.0316  0.1685 -0.1626
 3292TIP3    H131435   1.757   6.144   2.203  0.1760 -0.9678  3.1387
 3292TIP3    H231436   1.882   6.230   2.203 -0.6647  0.3444  0.4518
 3293TIP3   OH231437   4.958   5.386   2.076  0.3226  0.1729  0.0435
 3293TIP3    H131438   4.873   5.428   2.064  0.2788 -0.0208 -0.3315
 3293TIP3    H231439   5.011   5.452   2.120 -0.7769 -0.5553  2.6627
 3294TIP3   OH231440   0.966   0.884   7.073  0.2010 -0.0152 -0.3295
 3294TIP3    H131441   0.912   0.814   7.108  0.1844 -0.7660 -1.7936
 3294TIP3    H231442   0.908   0.933   7.015  0.7391  0.0019 -0.8562
 3295TIP3   OH231443   1.134   1.859   6.149  0.6039  0.5064 -0.3221
 3295TIP3    H131444   1.223   1.848   6.183  1.3865  0.9863 -2.0747
 3295TIP3    H231445   1.125   1.791   6.083 -1.1405 -0.8658  1.2061
 3296TIP3   OH231446   0.858   3.751   0.087 -0.3182 -0.0818 -0.2617
 3296TIP3    H131447   0.777   3.728   0.133 -0.1619  0.1195  0.1176
 3296TIP3    H231448   0.927   3.728   0.149 -0.1675  2.8166  0.8017
 3297TIP3   OH231449   2.088   5.571   6.920 -0.3001  0.4662  0.2307
 3297TIP3    H131450   2.123   5.575   6.831 -0.4741  0.7799  0.1756
 3297TIP3    H231451   2.114   5.655   6.960  1.9860 -0.6464  1.3093
 3298TIP3   OH231452   1.282   0.697   1.639 -0.7059  0.4348  0.1423
 3298TIP3    H131453   1.275   0.697   1.734 -2.3033  0.2101  0.0357
 3298TIP3    H231454   1.273   0.790   1.615  2.9090  1.0074  0.3534
 3299TIP3   OH231455   5.808   5.995   7.229 -0.3500  0.6045 -0.7820
 3299TIP3    H131456   5.812   5.936   7.154  1.1539  1.4013 -1.3777
 3299TIP3    H231457   5.738   6.056   7.208 -0.8751 -0.0220 -0.8782
 3300TIP3   OH231458   4.688   2.412   0.124  0.4414 -0.1380  0.3751
 3300TIP3    H131459   4.707   2.504   0.103  0.5300 -0.0156  0.9550
 3300TIP3    H231460   4.593   2.408   0.132  0.4772  0.0265  0.8894
 3301TIP3   OH231461   1.864   0.995   6.968 -0.0971  0.1828 -0.0728
 3301TIP3    H131462   1.800   1.021   6.902 -0.4460 -1.4637 -0.4406
 3301TIP3    H231463   1.823   1.018   7.051 -0.4043  0.7252 -0.3696
 3302TIP3   OH231464   1.303   4.695   6.136 -0.7103 -0.1698 -0.0258
 3302TIP3    H131465   1.346   4.743   6.066 -1.3955  0.7863  0.1892
 3302TIP3    H231466   1.250   4.629   6.091  0.6839 -1.1544 -0.3001
 3303TIP3   OH231467   2.732   0.825   8.251 -1.2553 -0.1077  0.1422
 3303TIP3    H131468   2.777   0.743   8.272 -2.9893 -0.6533  2.1115
 3303TIP3    H231469   2.770   0.889   8.311 -1.9207 -0.1992  0.6824
 3304TIP3   OH231470   5.687   2.232   8.291 -0.0109 -0.3781  0.3158
 3304TIP3    H131471   5.694   2.164   8.224 -1.5409  1.2627 -1.6598
 3304TIP3    H231472   5.777   2.247   8.320  0.5868 -1.7686 -0.7311
 3305TIP3   OH231473   4.049   6.125   8.229  0.1271 -0.1022  0.9156
 3305TIP3    H131474   4.101   6.205   8.230 -0.7366  0.4857  0.0147
 3305TIP3    H231475   4.032   6.108   8.137  0.9291 -1.7615  1.0249
 3306TIP3   OH231476   6.496   1.615   7.514 -0.2629 -0.0961  0.1465
 3306TIP3    H131477   6.476   1.570   7.432 -0.6534  1.4159 -0.6479
 3306TIP3    H231478   6.456   1.561   7.582 -0.9345 -0.8035 -0.7803
 3307TIP3   OH231479   6.602   1.983   2.405  0.1187 -0.5920 -0.2385
 3307TIP3    H131480   6.679   2.039   2.404 -0.0999 -0.1616  2.0133
 3307TIP3    H231481   6.570   1.988   2.495 -3.1910  0.1303 -1.3175
 3308TIP3   OH231482   5.852   1.565   0.054  0.3166  0.1750 -0.0037
 3308TIP3    H131483   5.920   1.630   0.076  1.7436 -1.2575  0.0295
 3308TIP3    H231484   5.848   1.509   0.132  1.3653 -1.5904 -1.1376
 3309TIP3   OH231485   0.271   4.255   0.804  0.0513  0.2934  0.2788
 3309TIP3    H131486   0.349   4.293   0.763  0.4283 -1.3252 -0.6067
 3309TIP3    H231487   0.305   4.192   0.867 -0.4020 -2.3163 -1.8914
 3310TIP3   OH231488   2.003   5.489   7.255 -0.2852 -0.5389 -0.5814
 3310TIP3    H131489   1.909   5.477   7.246 -0.5341 -0.2990  1.2411
 3310TIP3    H231490   2.014   5.583   7.271  0.2568 -0.5860 -0.6482
 3311TIP3   OH231491   3.251   1.384   1.162  0.8687 -0.0742  0.0977
 3311TIP3    H131492   3.245   1.464   1.111  2.1152  0.9742  1.4753
 3311TIP3    H231493   3.163   1.369   1.196  0.2110 -0.3537 -1.6537
 3312TIP3   OH231494   1.704   2.298   7.007  0.0867  0.2927 -0.1894
 3312TIP3    H131495   1.625   2.294   6.954 -0.1080  0.6125  0.0739
 3312TIP3    H231496   1.703   2.385   7.046  0.3107  0.1213  0.2094
 3313TIP3   OH231497   2.408   5.058   6.805 -0.4355 -0.2433 -0.2087
 3313TIP3    H131498   2.341   4.990   6.815 -0.0367 -0.3795  2.1570
 3313TIP3    H231499   2.362   5.139   6.826 -0.2404 -0.1409 -0.1822
 3314TIP3   OH231500   6.096   1.252   0.859 -0.1556  0.7912  0.6044
 3314TIP3    H131501   6.060   1.340   0.847  0.6653  0.9565 -0.8374
 3314TIP3    H231502   6.029   1.194   0.825 -0.6219  0.8482  1.3903
 3315TIP3   OH231503   2.862   2.812   8.420  0.8141 -0.0013  0.2615
 3315TIP3    H131504   2.833   2.734   8.374  0.3253  0.0245  0.5204
 3315TIP3    H231505   2.812   2.883   8.381  0.2463 -0.0039  0.9569
 3316TIP3   OH231506   2.173   3.588   8.159  0.2958 -0.5248  0.0931
 3316TIP3    H131507   2.156   3.680   8.178 -0.0745 -0.5957  0.1217
 3316TIP3    H231508   2.190   3.585   8.065  1.8448 -0.2145  0.3405
 3317TIP3   OH231509   0.200   1.458   1.047 -0.3704 -0.1145 -0.6434
 3317TIP3    H131510   0.275   1.474   0.990 -0.9837 -0.5338 -1.5990
 3317TIP3    H231511   0.159   1.379   1.011 -0.9601 -0.2016  0.1860
 3318TIP3   OH231512   1.836   4.352   6.902  0.1644  0.6527 -0.5524
 3318TIP3    H131513   1.911   4.412   6.901  1.5052 -0.9285  0.4683
 3318TIP3    H231514   1.763   4.406   6.934  0.8503  2.2032 -1.4780
 3319TIP3   OH231515   3.693   2.630   8.048  0.3960 -0.0255 -0.2000
 3319TIP3    H131516   3.742   2.712   8.042 -0.9247  0.8135  0.0640
 3319TIP3    H231517   3.761   2.563   8.056  1.5092  1.1473  0.8831
 3320TIP3   OH231518   0.356   6.616   8.238  0.0126  0.4787  0.2785
 3320TIP3    H131519   0.418   6.687   8.222  1.1039 -0.2738  1.0776
 3320TIP3    H231520   0.337   6.621   8.332  0.0899 -0.2794  0.3393
 3321TIP3   OH231521   4.858   6.662   1.719  0.5610 -0.8578  0.0427
 3321TIP3    H131522   4.791   6.716   1.759  0.1039 -1.5595  0.2456
 3321TIP3    H231523   4.941   6.694   1.754  0.2140 -1.0298  1.0372
 3322TIP3   OH231524   5.692   3.819   7.807 -0.7148 -0.0212 -0.1173
 3322TIP3    H131525   5.675   3.811   7.713 -1.4201 -1.3172  0.0993
 3322TIP3    H231526   5.771   3.873   7.812 -1.0845  0.6932 -1.4144
 3323TIP3   OH231527   1.785   4.264   7.199  0.0586 -0.2674  0.0289
 3323TIP3    H131528   1.841   4.337   7.173 -1.8092  2.7213  3.4915
 3323TIP3    H231529   1.840   4.212   7.257  0.7496 -0.3816 -0.7113
 3324TIP3   OH231530   0.177   6.680   1.171 -0.0720 -0.0866  0.3939
 3324TIP3    H131531   0.087   6.713   1.168 -0.7476 -1.9060 -1.7025
 3324TIP3    H231532   0.192   6.643   1.084  2.8081  0.3412  0.6245
 3325TIP3   OH231533   6.778   0.459   0.514  0.2413 -0.4276 -0.4141
 3325TIP3    H131534   6.725   0.410   0.577 -1.2101  0.3794 -0.9724
 3325TIP3    H231535   6.832   0.393   0.471  0.3162 -1.1596  0.7610
 3326TIP3   OH231536   2.380   0.960   0.621 -0.0394  0.0325  0.5726
 3326TIP3    H131537   2.441   0.948   0.694  1.3375 -0.2811 -0.5634
 3326TIP3    H231538   2.411   1.039   0.577 -1.9654  1.2743  1.3225
 3327TIP3   OH231539   5.515   1.815   0.831 -0.2167  0.0360  0.2960
 3327TIP3    H131540   5.590   1.783   0.880 -1.7319 -1.4047  1.7932
 3327TIP3    H231541   5.470   1.874   0.890 -1.1002 -0.3354  0.0205
 3328TIP3   OH231542   5.654   3.977   0.996 -0.6021 -0.1642  0.3167
 3328TIP3    H131543   5.647   3.999   0.903  1.1940 -0.6524  0.0371
 3328TIP3    H231544   5.585   3.913   1.011  0.2529 -1.5065 -1.1545
 3329TIP3   OH231545   1.383   3.894   8.018 -0.4210  0.2356  0.0672
 3329TIP3    H131546   1.312   3.920   8.076  1.2988  2.1067  1.4833
 3329TIP3    H231547   1.425   3.821   8.063 -0.6858 -0.0559 -0.1551
 3330TIP3   OH231548   0.518   6.759   6.464  0.0510 -0.0877 -0.1818
 3330TIP3    H131549   0.607   6.735   6.439  1.1147  1.2381  2.0187
 3330TIP3    H231550   0.478   6.678   6.494  2.0825 -0.1249  2.9473
 3331TIP3   OH231551   6.760   5.101   8.022 -0.0231 -0.8619  0.1081
 3331TIP3    H131552   6.831   5.161   8.045  0.0924 -1.2802  0.8511
 3331TIP3    H231553   6.744   5.051   8.101  0.3768 -2.3319 -0.6927
 3332TIP3   OH231554   3.631   0.907   2.032  0.0258 -0.2845 -0.4254
 3332TIP3    H131555   3.689   0.964   1.981 -0.8792  1.6909  0.6381
 3332TIP3    H231556   3.685   0.877   2.105  1.2608 -2.9460 -2.2903
 3333TIP3   OH231557   4.490   4.573   1.103 -0.0862  0.2550 -0.6022
 3333TIP3    H131558   4.401   4.561   1.070 -0.9185 -0.7156  1.8103
 3333TIP3    H231559   4.482   4.565   1.198  2.9936 -3.0204 -0.4119
 3334TIP3   OH231560   0.008   0.122   0.208  0.2734 -0.4472 -0.2296
 3334TIP3    H131561   0.022   0.190   0.143 -0.4689 -1.0657 -1.0518
 3334TIP3    H231562   0.069   0.144   0.279  1.3624  0.0355 -1.2771
 3335TIP3   OH231563   3.156   6.468   0.727  0.3645  0.4127 -0.8231
 3335TIP3    H131564   3.104   6.389   0.740  0.2426  0.6872  0.4836
 3335TIP3    H231565   3.142   6.520   0.806  1.9486  0.8956 -0.8238
 3336TIP3   OH231566   2.879   4.224   0.454 -0.3566 -0.5041  0.2149
 3336TIP3    H131567   2.911   4.312   0.435  1.1203 -1.1939 -0.6324
 3336TIP3    H231568   2.928   4.197   0.532  1.1910 -1.5319 -1.0413
 3337TIP3   OH231569   1.573   1.695   7.052 -0.2771  0.9107 -0.0267
 3337TIP3    H131570   1.599   1.690   6.960  1.2092  1.3065  0.3503
 3337TIP3    H231571   1.487   1.652   7.055  0.6961 -1.2367 -1.1877
 3338TIP3   OH231572   1.262   2.644   7.010 -0.0744  0.3116 -0.0792
 3338TIP3    H131573   1.324   2.681   7.072 -1.7534 -0.4634  2.1657
 3338TIP3    H231574   1.208   2.718   6.983 -2.4880 -0.0476  3.2757
 3339TIP3   OH231575   5.447   1.836   7.226  0.6787  0.0139 -0.2264
 3339TIP3    H131576   5.443   1.741   7.213  2.3697 -0.1483  0.2362
 3339TIP3    H231577   5.435   1.872   7.138 -2.5152 -0.4522 -0.1185
 3340TIP3   OH231578   0.336   3.437   7.530 -0.1761  0.0729  0.1784
 3340TIP3    H131579   0.356   3.347   7.554  1.3877  0.3018 -0.1888
 3340TIP3    H231580   0.378   3.490   7.598  0.3096  0.5783 -0.5166
 3341TIP3   OH231581   6.197   3.928   7.464 -0.6056 -0.0185  0.1613
 3341TIP3    H131582   6.214   3.952   7.373  0.1597 -1.2022 -0.0383
 3341TIP3    H231583   6.200   4.010   7.513  0.7070  0.4382 -0.6413
 3342TIP3   OH231584   1.866   5.303   7.832  0.0424 -0.4787 -0.6897
 3342TIP3    H131585   1.804   5.373   7.814 -0.4902 -0.2836  1.6101
 3342TIP3    H231586   1.870   5.253   7.751 -0.3064  1.6101 -2.0691
 3343TIP3   OH231587   6.016   4.946   7.951 -0.1020 -0.7176 -0.4944
 3343TIP3    H131588   6.110   4.959   7.937  0.1567 -2.2010 -0.3119
 3343TIP3    H231589   5.978   5.033   7.943  1.1512 -0.2486 -1.6041
 3344TIP3   OH231590   5.780   2.826   7.205  0.6998 -0.1871  0.1648
 3344TIP3    H131591   5.775   2.752   7.266  0.3771  0.0010  0.3649
 3344TIP3    H231592   5.860   2.809   7.155  0.4429 -0.8612 -0.0334
 3345TIP3   OH231593   3.766   5.434   8.023  0.4972 -0.2091  0.0593
 3345TIP3    H131594   3.767   5.512   7.967  0.5798 -1.1109 -1.2484
 3345TIP3    H231595   3.690   5.446   8.079 -0.3771  0.1342 -1.1557
 3346TIP3   OH231596   1.786   4.983   2.043 -0.3539  0.9004 -0.2644
 3346TIP3    H131597   1.714   5.044   2.024 -1.3729 -0.1433  0.1112
 3346TIP3    H231598   1.745   4.897   2.043  1.2122  0.1194 -1.5411
 3347TIP3   OH231599   1.396   2.774   8.533 -0.1826  0.1075  0.6232
 3347TIP3    H131600   1.350   2.846   8.576 -2.1099 -0.0496 -1.0079
 3347TIP3    H231601   1.480   2.812   8.507 -1.1221  1.7850 -0.1494
 3348TIP3   OH231602   2.388   2.341   8.223 -0.4132 -0.1412  0.4923
 3348TIP3    H131603   2.477   2.316   8.246 -0.2915  1.2610  1.7283
 3348TIP3    H231604   2.346   2.362   8.307 -2.0831 -1.2690 -0.0141
 3349TIP3   OH231605   0.223   2.847   2.776  0.6179  0.6032 -0.5698
 3349TIP3    H131606   0.154   2.847   2.843  0.3206  1.3329 -0.8666
 3349TIP3    H231607   0.270   2.929   2.791  1.6405 -0.0402 -0.1570
 3350TIP3   OH231608   3.726   2.999   7.776 -0.2398 -0.1033 -0.2154
 3350TIP3    H131609   3.683   3.005   7.691 -0.1205 -0.9811 -0.3488
 3350TIP3    H231610   3.675   3.056   7.834  0.0131  0.9456 -1.0030
 3351TIP3   OH231611   6.609   6.490   1.374  0.0425 -0.7415  0.0785
 3351TIP3    H131612   6.624   6.404   1.412  1.5414 -0.4862  0.1071
 3351TIP3    H231613   6.530   6.479   1.321 -2.1586 -1.1374  3.1125
 3352TIP3   OH231614   6.442   6.059   0.798  0.1668  0.3436  1.0559
 3352TIP3    H131615   6.381   6.126   0.768  0.4095 -0.6279 -1.9113
 3352TIP3    H231616   6.524   6.106   0.812  0.2127  0.7936 -0.5434
 3353TIP3   OH231617   1.734   3.707   8.578  0.6512  0.1650 -0.4432
 3353TIP3    H131618   1.800   3.776   8.567  1.0141  0.3752  2.3827
 3353TIP3    H231619   1.653   3.754   8.596  0.8418 -0.0998  1.2186
 3354TIP3   OH231620   0.856   3.118   1.652 -0.1240  0.5579 -0.3689
 3354TIP3    H131621   0.787   3.177   1.682 -1.3782 -1.3718  0.7818
 3354TIP3    H231622   0.937   3.169   1.661 -1.2882  2.7476 -1.3635
 3355TIP3   OH231623   4.339   1.058   1.186 -0.1495 -0.2314  0.5598
 3355TIP3    H131624   4.395   1.131   1.161  0.0178 -0.9142 -1.1683
 3355TIP3    H231625   4.272   1.054   1.118  0.6308 -2.4982 -0.1794
 3356TIP3   OH231626   0.658   4.332   1.366  0.1112 -0.6407  0.3006
 3356TIP3    H131627   0.605   4.382   1.429 -0.8459 -1.2300 -0.0079
 3356TIP3    H231628   0.743   4.323   1.409 -0.0458  0.2672  0.8502
 3357TIP3   OH231629   0.593   0.765   7.897  0.1443  0.3240  0.0067
 3357TIP3    H131630   0.660   0.749   7.964  0.1535  1.8749  0.4017
 3357TIP3    H231631   0.631   0.732   7.816  0.9876  0.3025  0.4054
 3358TIP3   OH231632   5.078   5.687   8.380 -0.1247 -0.1452 -0.1956
 3358TIP3    H131633   5.055   5.679   8.473 -2.1869  0.2749 -0.6043
 3358TIP3    H231634   5.068   5.781   8.361  0.0568 -0.2633 -0.8922
 3359TIP3   OH231635   5.605   6.368   8.854  0.3063  0.3396  0.5044
 3359TIP3    H131636   5.611   6.274   8.839 -2.2254  0.3108 -0.8472
 3359TIP3    H231637   5.541   6.377   8.925  2.0512  1.0285  2.0776
 3360TIP3   OH231638   3.415   6.422   1.082 -0.1023 -0.6676  0.2884
 3360TIP3    H131639   3.446   6.396   1.169 -0.1572  2.1855  1.2794
 3360TIP3    H231640   3.328   6.383   1.075  0.2480 -1.6465  1.1331
 3361TIP3   OH231641   0.782   1.529   0.255 -0.6546 -0.2727 -0.2036
 3361TIP3    H131642   0.714   1.498   0.195  0.8465 -2.3414 -0.9727
 3361TIP3    H231643   0.796   1.620   0.232 -1.2548 -0.5818 -1.8928
 3362TIP3   OH231644   6.475   5.619   1.904  0.2253 -0.1461  0.0911
 3362TIP3    H131645   6.416   5.575   1.965  1.3961 -1.1952  0.5160
 3362TIP3    H231646   6.555   5.634   1.956  0.6951  0.3195 -0.7517
 3363TIP3   OH231647   4.668   1.705   8.029  0.4625  0.6862 -0.0030
 3363TIP3    H131648   4.728   1.673   8.097  1.3019 -0.9861 -1.4513
 3363TIP3    H231649   4.586   1.656   8.045  0.2114  1.2747  0.5752
 3364TIP3   OH231650   2.994   5.248   7.045 -0.8713 -0.0942 -0.4383
 3364TIP3    H131651   3.073   5.203   7.076 -0.9528  0.0521 -0.0119
 3364TIP3    H231652   2.988   5.225   6.952 -0.8358 -0.8548 -0.2601
 3365TIP3   OH231653   2.285   0.710   8.268  0.4429  0.2081  1.0665
 3365TIP3    H131654   2.330   0.716   8.184  1.0079  0.4013  1.3774
 3365TIP3    H231655   2.208   0.766   8.258  0.3680  0.0264  0.5941
 3366TIP3   OH231656   5.255   1.760   8.210  0.4549 -0.0433 -0.1492
 3366TIP3    H131657   5.246   1.753   8.305 -1.6991 -0.8367 -0.3501
 3366TIP3    H231658   5.242   1.852   8.191 -1.0529 -0.1533  0.2107
 3367TIP3   OH231659   1.901   0.294   1.617  0.0947  0.3918 -0.2433
 3367TIP3    H131660   1.831   0.358   1.602  0.2353  0.6084  0.0194
 3367TIP3    H231661   1.867   0.239   1.688 -0.2684 -0.1867 -0.8557
 3368TIP3   OH231662   0.572   0.125   7.685  0.0389 -0.4783 -0.1392
 3368TIP3    H131663   0.488   0.168   7.702  0.6471  0.7373 -0.1005
 3368TIP3    H231664   0.631   0.196   7.658  1.3837 -1.0975  1.0243
 3369TIP3   OH231665   3.272   2.278   8.377  0.0358 -0.5171 -0.4938
 3369TIP3    H131666   3.299   2.195   8.416  1.5023 -0.2806 -0.9324
 3369TIP3    H231667   3.245   2.331   8.451  0.2672 -0.9721 -0.0765
 3370TIP3   OH231668   0.350   6.563   8.524  0.6764 -0.7143  0.2793
 3370TIP3    H131669   0.310   6.620   8.590  0.8124 -0.4227  0.1092
 3370TIP3    H231670   0.403   6.501   8.575  1.1626 -0.1900  0.4170
 3371TIP3   OH231671   0.208   1.414   8.390  0.3415 -0.8670 -0.3805
 3371TIP3    H131672   0.141   1.477   8.363  1.1960  0.6146  0.7778
 3371TIP3    H231673   0.290   1.454   8.362  0.9816 -0.9039  1.3427
 3372TIP3   OH231674   0.866   1.790   0.184  0.9048 -0.0134  0.1910
 3372TIP3    H131675   0.878   1.859   0.119 -1.3412 -0.4692 -0.8168
 3372TIP3    H231676   0.832   1.835   0.261 -1.1349  0.0141 -0.6675
 3373TIP3   OH231677   0.270   2.840   7.076  0.0599 -0.2612 -0.1681
 3373TIP3    H131678   0.238   2.772   7.135  1.6338  1.0316  2.3202
 3373TIP3    H231679   0.228   2.920   7.107  1.2149  0.5167 -0.5634
 3374TIP3   OH231680   3.408   6.175   1.649 -0.3315  0.1698 -0.2431
 3374TIP3    H131681   3.483   6.189   1.706  0.1335 -2.4746 -0.0569
 3374TIP3    H231682   3.399   6.080   1.645 -1.0728  0.2493 -3.6389
 3375TIP3   OH231683   4.344   3.020   1.841 -0.0936 -0.4093  0.6877
 3375TIP3    H131684   4.260   3.059   1.864  0.8788  1.4101  1.3632
 3375TIP3    H231685   4.365   2.963   1.915 -2.6144 -4.3759 -1.3124
 3376TIP3   OH231686   3.330   5.455   7.809  0.1789 -0.4297  0.1403
 3376TIP3    H131687   3.321   5.507   7.888  0.8259  1.6863 -1.1013
 3376TIP3    H231688   3.423   5.433   7.804  0.4498  0.8325 -0.8188
 3377TIP3   OH231689   2.931   5.975   6.610  0.0051 -0.5871  0.0280
 3377TIP3    H131690   2.895   5.890   6.636 -1.6318  0.3471  0.9591
 3377TIP3    H231691   2.961   5.962   6.520  2.2840 -2.8560  1.0029
 3378TIP3   OH231692   0.778   6.517   6.943  0.1101  0.1566 -0.0030
 3378TIP3    H131693   0.756   6.591   7.001 -1.0493  0.2491 -0.5429
 3378TIP3    H231694   0.805   6.558   6.861  0.7974 -0.0037  0.1311
 3379TIP3   OH231695   0.692   1.078   8.413  0.2540 -0.1281  0.2141
 3379TIP3    H131696   0.725   1.045   8.497  0.5989 -0.5897 -0.0973
 3379TIP3    H231697   0.758   1.049   8.349 -0.3094 -0.2912 -0.2959
 3380TIP3   OH231698   6.570   5.676   6.530  0.9718  0.3186  0.2052
 3380TIP3    H131699   6.547   5.730   6.605 -0.9726  0.6564 -0.5902
 3380TIP3    H231700   6.533   5.590   6.550  2.8123 -0.3998  0.8098
 3381TIP3   OH231701   2.332   0.188   6.534  0.3611 -0.1219 -0.9922
 3381TIP3    H131702   2.333   0.106   6.582 -0.3969  0.1134 -0.5604
 3381TIP3    H231703   2.352   0.255   6.600 -0.1335  0.1470 -1.1104
 3382TIP3   OH231704   3.316   4.164   1.365 -0.5310  0.5000 -0.0663
 3382TIP3    H131705   3.407   4.162   1.395 -0.0513  0.7994 -1.4383
 3382TIP3    H231706   3.266   4.129   1.439  0.5321  1.6088  1.2367
 3383TIP3   OH231707   2.308   5.998   6.772 -0.3697 -0.7382 -0.4296
 3383TIP3    H131708   2.318   6.080   6.821 -0.6346  0.7156 -2.6318
 3383TIP3    H231709   2.395   5.960   6.771  0.1201  0.3483 -0.6810
 3384TIP3   OH231710   6.098   3.434   6.734  0.1384  0.3434 -0.6920
 3384TIP3    H131711   6.047   3.446   6.654 -0.0119 -0.6213 -0.7515
 3384TIP3    H231712   6.038   3.390   6.794  1.0743 -1.3507 -0.9632
 3385TIP3   OH231713   2.051   3.314   7.818 -0.1694  0.2165  0.2677
 3385TIP3    H131714   2.137   3.317   7.776 -0.3195  0.0441 -0.0628
 3385TIP3    H231715   2.044   3.396   7.866  0.5157 -0.1264  0.9760
 3386TIP3   OH231716   2.227   2.168   0.619 -0.6501 -0.6930  0.1639
 3386TIP3    H131717   2.283   2.107   0.570 -0.6609 -0.4701 -0.1237
 3386TIP3    H231718   2.139   2.154   0.583 -0.3042  1.1619 -1.5873
 3387TIP3   OH231719   5.267   2.780   0.922  0.2961 -0.4278  0.4727
 3387TIP3    H131720   5.207   2.725   0.872 -1.2612 -0.0946  1.8847
 3387TIP3    H231721   5.335   2.719   0.953  0.5662 -0.8607 -0.9086
 3388TIP3   OH231722   3.231   0.912   0.329  0.4929  0.3606  0.6161
 3388TIP3    H131723   3.182   0.855   0.389 -1.2810  1.5378  0.3587
 3388TIP3    H231724   3.166   0.974   0.296  2.0700  1.6777 -0.1757
 3389TIP3   OH231725   1.513   4.017   0.452  0.2005  0.0746 -0.1144
 3389TIP3    H131726   1.524   4.054   0.540  2.0319 -0.9321  0.1429
 3389TIP3    H231727   1.565   4.075   0.396  0.4008 -0.2431 -0.2555
 3390TIP3   OH231728   3.479   3.571   7.108  0.2167 -0.4458  0.3419
 3390TIP3    H131729   3.526   3.589   7.190  2.9476 -0.9488 -0.9922
 3390TIP3    H231730   3.435   3.653   7.087  2.7508  1.0255  0.3360
 3391TIP3   OH231731   4.646   4.946   7.813 -0.6385  0.5688 -0.1021
 3391TIP3    H131732   4.584   4.945   7.887 -0.4043  1.2948  0.1167
 3391TIP3    H231733   4.598   4.987   7.742 -1.2416 -1.1369 -0.7202
 3392TIP3   OH231734   0.425   1.437   0.855 -0.2323  0.3699  0.1801
 3392TIP3    H131735   0.505   1.483   0.829  0.0061 -0.1575 -0.0426
 3392TIP3    H231736   0.356   1.480   0.805  0.2010 -0.5396 -1.2727
 3393TIP3   OH231737   0.620   1.569   6.242  0.2389 -0.0521 -0.4361
 3393TIP3    H131738   0.621   1.624   6.320 -0.5656 -0.5530 -0.0630
 3393TIP3    H231739   0.593   1.628   6.172 -2.8186 -0.3736  0.3259
 3394TIP3   OH231740   2.731   2.394   6.935 -0.3746 -0.3413  0.7357
 3394TIP3    H131741   2.757   2.307   6.964 -0.6295  0.1412  2.6113
 3394TIP3    H231742   2.738   2.448   7.014 -0.6178  1.2486 -0.2770
 3395TIP3   OH231743   2.369   2.456   8.792  1.0825 -0.4017 -0.4502
 3395TIP3    H131744   2.278   2.437   8.815  1.9396 -3.4040  0.9069
 3395TIP3    H231745   2.378   2.550   8.807 -1.2198 -0.4105  1.5692
 3396TIP3   OH231746   4.716   4.712   1.003 -0.1340  0.5096  0.2232
 3396TIP3    H131747   4.728   4.644   0.937  0.4867  0.8392 -0.0086
 3396TIP3    H231748   4.658   4.672   1.068 -0.4013  0.0367 -0.3047
 3397TIP3   OH231749   3.132   2.420   0.789 -0.0336  0.3401  0.9019
 3397TIP3    H131750   3.186   2.396   0.714 -0.9841 -1.7856  0.8092
 3397TIP3    H231751   3.189   2.473   0.845  1.3248  0.2407 -0.3376
 3398TIP3   OH231752   4.479   4.488   0.375  0.4962 -0.1723 -0.1683
 3398TIP3    H131753   4.481   4.413   0.315  0.1148  1.9430 -3.0277
 3398TIP3    H231754   4.389   4.520   0.370  0.1734 -0.4151  2.3690
 3399TIP3   OH231755   1.607   2.113   6.137  0.2492  0.1338  0.2454
 3399TIP3    H131756   1.535   2.059   6.104  0.0470 -0.3314  1.4167
 3399TIP3    H231757   1.684   2.082   6.089  0.2371 -1.5873  1.2862
 3400TIP3   OH231758   2.539   0.117   8.269  0.4125  0.5474  0.0414
 3400TIP3    H131759   2.520   0.174   8.344  0.6640 -0.5771  0.9770
 3400TIP3    H231760   2.457   0.115   8.220 -1.2527 -2.1456  2.6222
 3401TIP3   OH231761   2.197   6.311   1.918 -0.9530  0.1509 -0.2330
 3401TIP3    H131762   2.128   6.245   1.927 -1.4012  0.5725 -0.5525
 3401TIP3    H231763   2.236   6.317   2.005 -2.4576  1.1523  0.4121
 3402TIP3   OH231764   2.982   4.120   8.196 -0.1908 -0.4911  0.1867
 3402TIP3    H131765   2.937   4.198   8.163  0.1781 -0.8913 -1.3384
 3402TIP3    H231766   3.002   4.069   8.118  2.2525 -0.6917  0.8740
 3403TIP3   OH231767   5.038   0.762   7.049  0.2627  0.0502 -0.1119
 3403TIP3    H131768   5.026   0.728   6.961 -0.1395 -0.3663  0.0951
 3403TIP3    H231769   5.131   0.753   7.066  0.2310 -0.5401 -0.2311
 3404TIP3   OH231770   0.978   1.291   1.061 -0.5355 -0.1543  0.4296
 3404TIP3    H131771   0.952   1.332   1.144 -1.3721 -0.8166  0.5122
 3404TIP3    H231772   0.920   1.332   0.996 -0.1724  0.0557  0.2378
 3405TIP3   OH231773   6.604   5.209   1.065  0.2262 -0.0706 -0.6088
 3405TIP3    H131774   6.578   5.283   1.010 -0.6823 -1.1648 -1.7089
 3405TIP3    H231775   6.534   5.144   1.053  1.7362 -1.7442 -0.9392
 3406TIP3   OH231776   4.587   6.474   0.180  0.2587  0.0764 -0.0052
 3406TIP3    H131777   4.501   6.514   0.173  0.3483  0.0230 -2.9252
 3406TIP3    H231778   4.597   6.425   0.098  3.1639  0.3302  0.0922
 3407TIP3   OH231779   1.232   4.072   1.210 -0.4206  0.2543  0.1548
 3407TIP3    H131780   1.295   4.008   1.178 -0.1663  0.5925 -0.0290
 3407TIP3    H231781   1.170   4.082   1.138 -1.5241 -1.1445  0.8643
 3408TIP3   OH231782   3.473   4.053   7.108 -0.6428  0.3858 -0.5031
 3408TIP3    H131783   3.536   3.983   7.120 -1.0293  0.3034  1.4360
 3408TIP3    H231784   3.431   4.063   7.194 -1.0468  2.5605 -0.8801
 3409TIP3   OH231785   6.102   2.171   7.661 -0.0305  0.0471 -0.0517
 3409TIP3    H131786   6.166   2.241   7.657  3.0839 -2.3903  2.0480
 3409TIP3    H231787   6.065   2.177   7.749 -1.2048  0.1496 -0.5266
 3410TIP3   OH231788   0.951   1.941   1.842  0.2664  0.0953  0.0954
 3410TIP3    H131789   0.965   1.847   1.827 -0.6536 -0.2107  1.0179
 3410TIP3    H231790   0.916   1.946   1.931 -1.8873  1.0996 -0.7579
 3411TIP3   OH231791   4.369   3.128   7.410 -0.2983  0.1660 -0.3641
 3411TIP3    H131792   4.403   3.058   7.353 -0.8348  0.7610 -1.4472
 3411TIP3    H231793   4.400   3.209   7.369  0.9452  0.5756  1.2923
 3412TIP3   OH231794   5.351   4.290   7.672  0.1541  0.2144  0.0722
 3412TIP3    H131795   5.378   4.200   7.651  0.7769  0.3864  0.1247
 3412TIP3    H231796   5.424   4.326   7.722 -0.7473  0.2477  1.4014
 3413TIP3   OH231797   2.451   2.979   0.382 -0.1878 -0.3951 -0.7366
 3413TIP3    H131798   2.367   3.019   0.361 -0.7685 -1.8193 -1.2746
 3413TIP3    H231799   2.429   2.901   0.433  0.6867 -1.4057 -1.8178
 3414TIP3   OH231800   6.450   1.854   8.577 -0.1646 -0.9338 -0.4519
 3414TIP3    H131801   6.443   1.762   8.551  0.3049 -1.7908  2.1317
 3414TIP3    H231802   6.371   1.870   8.629  0.8561 -0.6242  1.0587
 3415TIP3   OH231803   2.191   1.729   6.531  0.1852  0.0340 -0.0167
 3415TIP3    H131804   2.170   1.729   6.438  1.1052 -0.1573 -0.2377
 3415TIP3    H231805   2.262   1.665   6.540 -0.4614 -0.5626  0.9562
 3416TIP3   OH231806   2.899   6.112   1.082 -0.2749  0.2301  0.2169
 3416TIP3    H131807   2.977   6.106   1.138 -1.5370 -0.5402  1.9606
 3416TIP3    H231808   2.914   6.046   1.014  1.0098  0.7487 -0.0331
 3417TIP3   OH231809   4.387   1.802   8.674 -0.0765  0.0186  0.4220
 3417TIP3    H131810   4.349   1.888   8.659 -0.6188 -0.3330 -0.2674
 3417TIP3    H231811   4.360   1.778   8.763 -1.4398 -0.2076 -0.0368
 3418TIP3   OH231812   5.796   5.072   1.059 -0.0833 -0.0219  0.2498
 3418TIP3    H131813   5.871   5.044   1.112 -0.4256 -0.4226  0.5320
 3418TIP3    H231814   5.728   5.093   1.124 -0.1159  0.6382  0.0083
 3419TIP3   OH231815   5.439   2.731   1.224 -0.8281  0.3333  0.1305
 3419TIP3    H131816   5.431   2.725   1.319 -1.4795 -0.8010  0.0247
 3419TIP3    H231817   5.525   2.771   1.210 -0.1021 -0.7805  1.1874
 3420TIP3   OH231818   1.481   1.518   1.487  0.1004 -0.2876  0.4342
 3420TIP3    H131819   1.514   1.563   1.410  2.0336 -1.1790  0.6696
 3420TIP3    H231820   1.518   1.567   1.561 -1.8860  0.6756  0.8575
 3421TIP3   OH231821   4.902   3.927   0.519  0.3829 -0.4245 -0.0650
 3421TIP3    H131822   4.839   3.860   0.547 -0.1921  0.8440  1.9831
 3421TIP3    H231823   4.985   3.881   0.512 -0.7537 -2.3102 -3.5570
 3422TIP3   OH231824   0.497   0.406   0.625 -0.2122 -0.1462 -0.0803
 3422TIP3    H131825   0.424   0.383   0.683 -0.3951 -1.7138 -0.8877
 3422TIP3    H231826   0.531   0.322   0.594  1.1361  0.5961 -0.7232
 3423TIP3   OH231827   0.136   4.226   8.387 -0.0825 -0.0477  0.0505
 3423TIP3    H131828   0.067   4.260   8.444 -1.0085  1.3314 -1.7838
 3423TIP3    H231829   0.217   4.261   8.425 -0.5897  0.2179  0.9345
 3424TIP3   OH231830   1.953   3.158   1.122  0.1722 -0.0816 -0.3908
 3424TIP3    H131831   1.865   3.146   1.086  0.1403 -1.6567  0.1772
 3424TIP3    H231832   1.948   3.241   1.170 -0.6349  0.4823 -1.4271
 3425TIP3   OH231833   2.062   3.134   8.046  0.4478  0.2764 -0.1586
 3425TIP3    H131834   2.050   3.204   7.982 -0.6379  1.0150  0.7967
 3425TIP3    H231835   2.028   3.056   8.002 -1.0428  0.9273 -0.2374
 3426TIP3   OH231836   0.076   1.698   1.073 -0.0306 -0.3491 -0.2444
 3426TIP3    H131837   0.138   1.767   1.095 -1.5613  1.1361 -0.3732
 3426TIP3    H231838   0.128   1.618   1.071  1.4105  0.4665  1.9882
 3427TIP3   OH231839   5.163   1.032   1.383  0.0282 -0.4704  0.2103
 3427TIP3    H131840   5.087   1.000   1.334  0.3877 -1.4553  0.2709
 3427TIP3    H231841   5.153   1.127   1.384 -1.5586 -0.6107  0.7710
 3428TIP3   OH231842   1.508   4.984   6.826 -0.0765  0.2749 -0.0384
 3428TIP3    H131843   1.565   5.045   6.778  0.6587 -0.8596 -0.6521
 3428TIP3    H231844   1.524   5.004   6.918  0.8010  0.4472 -0.2148
 3429TIP3   OH231845   3.643   5.219   6.456 -0.2403  0.3408 -0.1009
 3429TIP3    H131846   3.664   5.196   6.547  1.3359  0.0653 -0.5147
 3429TIP3    H231847   3.548   5.207   6.450 -0.2014 -0.8494  1.1711
 3430TIP3   OH231848   3.965   3.979   8.498 -0.5067  0.3193  0.8817
 3430TIP3    H131849   4.019   3.901   8.493  0.9746  1.3497  0.1417
 3430TIP3    H231850   3.875   3.946   8.495  0.0530 -1.3992  1.6105
 3431TIP3   OH231851   2.610   6.787   7.373 -0.4280  0.1815  0.3576
 3431TIP3    H131852   2.524   6.775   7.333 -0.9026  1.5504  0.9511
 3431TIP3    H231853   2.618   6.714   7.434 -1.9852  1.0596  1.6906
 3432TIP3   OH231854   6.734   5.872   0.574 -0.1602 -0.5540 -0.1433
 3432TIP3    H131855   6.650   5.883   0.529 -0.7514 -0.5140  0.9330
 3432TIP3    H231856   6.711   5.840   0.661  0.9165 -0.0955  0.3338
 3433TIP3   OH231857   3.188   6.409   7.974 -0.1463  0.0898  0.4422
 3433TIP3    H131858   3.247   6.475   8.011  0.6032  0.2916 -1.0488
 3433TIP3    H231859   3.202   6.332   8.029  1.6156  0.1050  0.0896
 3434TIP3   OH231860   0.783   0.906   7.521  0.5863  0.2631  0.5827
 3434TIP3    H131861   0.722   0.965   7.478 -0.6355 -2.4001 -1.6311
 3434TIP3    H231862   0.870   0.939   7.496  0.0151  2.1103  0.9213
 3435TIP3   OH231863   0.199   6.029   2.829 -0.3902 -0.0213  0.7054
 3435TIP3    H131864   0.109   6.038   2.860 -0.8823 -0.8468 -0.3946
 3435TIP3    H231865   0.237   6.117   2.839 -1.2911  0.3209  1.2301
 3436TIP3   OH231866   1.067   3.249   1.730  0.3602  1.0413 -0.3540
 3436TIP3    H131867   1.159   3.243   1.757  0.5658 -0.9251 -1.3289
 3436TIP3    H231868   1.025   3.302   1.798  1.5021 -0.9241  2.0250
 3437TIP3   OH231869   4.428   5.480   6.940  0.0506  0.6676 -0.1353
 3437TIP3    H131870   4.418   5.573   6.959 -2.2256  1.0879 -2.7635
 3437TIP3    H231871   4.344   5.454   6.902  0.6681 -2.4422  0.3559
 3438TIP3   OH231872   3.720   5.901   7.419  0.2099  0.6778  0.2834
 3438TIP3    H131873   3.692   5.957   7.491  1.6946 -1.3564  2.5475
 3438TIP3    H231874   3.640   5.854   7.393  0.1241 -0.4102  2.3597
 3439TIP3   OH231875   5.323   2.774   0.285 -0.2307  0.6859 -0.1838
 3439TIP3    H131876   5.288   2.847   0.337 -0.6324  0.8061 -0.6185
 3439TIP3    H231877   5.379   2.816   0.220 -0.4739  0.6028 -0.4438
 3440TIP3   OH231878   1.953   5.159   0.191  0.5332 -0.5853 -0.1545
 3440TIP3    H131879   1.918   5.244   0.167 -0.8348 -0.4080  2.1634
 3440TIP3    H231880   2.006   5.176   0.270 -2.4878 -2.1791  2.4578
 3441TIP3   OH231881   4.919   0.973   1.280  0.1720 -0.1396 -0.2250
 3441TIP3    H131882   4.898   0.980   1.186  0.0789  1.1624 -0.1284
 3441TIP3    H231883   4.854   0.911   1.314  1.6850 -2.5389 -1.4138
 3442TIP3   OH231884   0.692   3.624   6.737  0.1577 -0.2533 -0.0409
 3442TIP3    H131885   0.725   3.671   6.661 -1.1506  0.8392  0.0366
 3442TIP3    H231886   0.679   3.691   6.804 -0.0755 -0.9871  0.6723
 3443TIP3   OH231887   0.498   5.982   1.035 -0.2775 -0.2064  0.5688
 3443TIP3    H131888   0.431   5.967   1.102  0.6736  1.2343  1.9344
 3443TIP3    H231889   0.577   5.941   1.070  0.5525  1.6462  0.9925
 3444TIP3   OH231890   3.810   0.286   7.788 -0.6598  0.0439 -0.1725
 3444TIP3    H131891   3.839   0.215   7.845  0.5136  1.6932  1.3881
 3444TIP3    H231892   3.891   0.324   7.753 -1.2865  0.2637 -1.4749
 3445TIP3   OH231893   6.284   2.090   1.790  0.0058  0.1719 -0.5895
 3445TIP3    H131894   6.243   2.150   1.853 -1.1988 -0.5794 -0.6361
 3445TIP3    H231895   6.342   2.036   1.843 -0.0774  0.3451 -0.3185
 3446TIP3   OH231896   5.569   2.832   7.052  0.4706  0.0850  0.2609
 3446TIP3    H131897   5.604   2.756   7.008  2.6732  1.3782 -0.3517
 3446TIP3    H231898   5.633   2.853   7.119  0.8573  2.4094 -0.7424
 3447TIP3   OH231899   2.403   3.544   0.811  0.3994  0.2784 -0.3530
 3447TIP3    H131900   2.425   3.459   0.848 -2.3260 -1.3534 -2.1419
 3447TIP3    H231901   2.315   3.563   0.844  0.2790  1.5654 -1.3203
 3448TIP3   OH231902   6.257   3.171   0.325 -0.0266 -0.0660  0.5673
 3448TIP3    H131903   6.249   3.248   0.268  1.6143 -0.2221  0.0898
 3448TIP3    H231904   6.170   3.161   0.363 -0.0257  2.6886  1.5234
 3449TIP3   OH231905   3.580   5.269   1.563  0.0221 -0.1524 -0.0526
 3449TIP3    H131906   3.552   5.342   1.618 -3.5411 -1.8542  0.6582
 3449TIP3    H231907   3.567   5.300   1.473  0.0334  0.5838  0.1917
 3450TIP3   OH231908   0.240   0.232   8.297  0.2529 -0.3570  0.2039
 3450TIP3    H131909   0.174   0.177   8.339  0.5934 -0.5236  0.5238
 3450TIP3    H231910   0.314   0.233   8.358 -0.1137  1.2527  0.6867
 3451TIP3   OH231911   2.636   1.408   0.076 -0.1301 -0.4133  0.6927
 3451TIP3    H131912   2.721   1.445   0.055 -1.4712  1.6054 -1.8109
 3451TIP3    H231913   2.637   1.320   0.039  0.5715 -0.0596 -0.1551
 3452TIP3   OH231914   6.793   5.490   0.483 -0.4632  0.1352  0.4879
 3452TIP3    H131915   6.883   5.460   0.469 -1.1253 -2.5023  1.1857
 3452TIP3    H231916   6.758   5.503   0.395  0.3176  0.2573  0.1871
 3453TIP3   OH231917   3.819   4.644   1.452  0.5907  0.3017 -0.3618
 3453TIP3    H131918   3.725   4.662   1.446  0.8523  1.7615 -0.3667
 3453TIP3    H231919   3.834   4.629   1.545 -0.0087 -2.2706 -0.6053
 3454TIP3   OH231920   0.162   6.128   1.396  0.8071 -0.3731  0.2650
 3454TIP3    H131921   0.256   6.113   1.394  0.4994 -2.7321 -1.7787
 3454TIP3    H231922   0.132   6.106   1.307 -1.7872 -0.6202  1.1093
 3455TIP3   OH231923   1.263   6.632   1.770 -0.6639 -0.1637  0.1630
 3455TIP3    H131924   1.176   6.669   1.760  0.0236  1.3880 -0.4452
 3455TIP3    H231925   1.256   6.575   1.846 -1.8160  1.2137  1.1437
 3456TIP3   OH231926   6.242   2.132   6.926 -0.1973  0.0048  0.0880
 3456TIP3    H131927   6.272   2.219   6.902 -1.1886  0.6733  1.1984
 3456TIP3    H231928   6.263   2.123   7.018 -0.2253 -0.8832  0.0185
 3457TIP3   OH231929   1.872   2.964   0.477  0.4563 -0.6086 -0.9601
 3457TIP3    H131930   1.805   2.976   0.544  2.0513 -0.3147  0.6588
 3457TIP3    H231931   1.850   3.028   0.410 -0.4395  0.0290 -0.0919
 3458TIP3   OH231932   3.034   3.812   0.189 -0.3904 -0.4337  0.3049
 3458TIP3    H131933   2.989   3.729   0.171 -0.0838 -0.8349  1.3270
 3458TIP3    H231934   2.964   3.871   0.218 -0.5744 -0.4068 -0.1911
 3459TIP3   OH231935   5.529   5.044   0.794  0.1283  0.5335 -0.0935
 3459TIP3    H131936   5.453   5.027   0.850  0.0294 -1.1634 -0.6747
 3459TIP3    H231937   5.494   5.043   0.705  0.5465  1.6200 -0.2897
 3460TIP3   OH231938   3.970   5.331   1.121  0.0892  0.2416  0.0074
 3460TIP3    H131939   3.959   5.425   1.129 -0.7381  0.3207 -1.5394
 3460TIP3    H231940   4.024   5.320   1.042  1.9817 -0.5507  1.3198
 3461TIP3   OH231941   2.508   3.487   6.835  0.1794  0.1836  0.5036
 3461TIP3    H131942   2.421   3.461   6.864 -0.3790  1.4309 -0.0050
 3461TIP3    H231943   2.497   3.576   6.802  1.4588  0.0250 -0.4202
 3462TIP3   OH231944   0.869   0.977   1.144 -0.7709  0.5180  0.2131
 3462TIP3    H131945   0.813   0.979   1.066  1.5990  0.2390 -1.6073
 3462TIP3    H231946   0.955   1.004   1.112  0.0590  1.5243  3.0001
 3463TIP3   OH231947   0.161   0.441   0.175  0.2811  0.2920  0.9484
 3463TIP3    H131948   0.197   0.468   0.259 -1.6695  0.7624  1.6869
 3463TIP3    H231949   0.217   0.482   0.110  1.2388  0.7200  2.0275
 3464TIP3   OH231950   2.447   1.778   7.040 -0.3236  0.7039 -0.6753
 3464TIP3    H131951   2.406   1.851   6.993  0.4013  1.7761  0.3107
 3464TIP3    H231952   2.537   1.807   7.057  0.0873 -0.5600 -0.5503
 3465TIP3   OH231953   2.222   1.498   2.245  0.1696  0.4037 -0.3177
 3465TIP3    H131954   2.152   1.557   2.269  0.3516 -0.0942  1.6166
 3465TIP3    H231955   2.286   1.505   2.316  1.0565 -0.7409 -0.9477
 3466TIP3   OH231956   3.380   1.283   6.409  0.2030  0.5992  0.4008
 3466TIP3    H131957   3.395   1.299   6.316  0.4323  3.6460  0.8397
 3466TIP3    H231958   3.313   1.347   6.433  2.3002  2.0381  2.8922
 3467TIP3   OH231959   3.312   6.598   1.841 -0.0330 -0.4548  0.2245
 3467TIP3    H131960   3.236   6.655   1.828  0.2148 -0.6077 -2.2715
 3467TIP3    H231961   3.277   6.524   1.891 -1.2445  0.0387  0.1603
 3468TIP3   OH231962   5.459   6.265   7.254 -0.0551 -0.3449  0.5987
 3468TIP3    H131963   5.527   6.260   7.321 -1.6162 -0.1609  2.2560
 3468TIP3    H231964   5.427   6.355   7.259 -1.0912 -0.7000  0.5352
 3469TIP3   OH231965   5.558   6.019   8.795 -0.3786  0.1541  0.5687
 3469TIP3    H131966   5.517   5.996   8.878 -1.6264 -0.6139 -0.2318
 3469TIP3    H231967   5.608   5.941   8.770 -1.2682 -0.2165 -0.1333
 3470TIP3   OH231968   6.493   1.401   7.955 -0.6197  0.5247 -0.1603
 3470TIP3    H131969   6.571   1.421   8.008  0.5076  0.6061 -1.7778
 3470TIP3    H231970   6.465   1.315   7.986  0.2613  0.3868  0.3096
 3471TIP3   OH231971   1.217   6.396   7.742  0.4173  0.5568 -0.0951
 3471TIP3    H131972   1.134   6.443   7.751  0.5609  0.7329  0.4104
 3471TIP3    H231973   1.220   6.368   7.651 -0.4660  0.0376  0.0297
 3472TIP3   OH231974   2.376   1.010   8.376 -0.3630  0.1457 -0.5314
 3472TIP3    H131975   2.345   1.057   8.454 -1.9415  0.2327 -1.1793
 3472TIP3    H231976   2.310   0.943   8.360 -0.2164  0.3072 -1.9735
 3473TIP3   OH231977   4.478   4.014   1.116  0.0518  0.5451  0.2197
 3473TIP3    H131978   4.425   3.935   1.107  0.4524  0.0886  1.6067
 3473TIP3    H231979   4.428   4.082   1.071  0.1647 -0.6588 -1.8792
 3474TIP3   OH231980   3.832   5.162   0.884  0.2762  0.0423  0.0303
 3474TIP3    H131981   3.909   5.114   0.917 -0.4684 -1.4262 -0.2716
 3474TIP3    H231982   3.768   5.093   0.865 -1.0027  1.2137 -0.0319
 3475TIP3   OH231983   4.113   5.664   7.539  0.8730  0.3587  0.3373
 3475TIP3    H131984   4.110   5.739   7.480 -1.8351  0.7376  0.8073
 3475TIP3    H231985   4.061   5.596   7.494  0.2300  0.0610  1.4740
 3476TIP3   OH231986   1.443   6.634   0.362  0.0012  0.7444  0.3559
 3476TIP3    H131987   1.488   6.718   0.356 -0.8214  1.1147 -1.0715
 3476TIP3    H231988   1.364   6.645   0.309  0.3561 -1.2231 -0.6829
 3477TIP3   OH231989   3.928   2.265   0.510 -0.4575 -0.4088 -0.2371
 3477TIP3    H131990   3.918   2.340   0.452 -1.0827  0.6346  1.1513
 3477TIP3    H231991   3.858   2.274   0.574  1.1732 -0.5557  1.6765
 3478TIP3   OH231992   3.893   6.630   1.449 -0.3538  0.0414 -0.4242
 3478TIP3    H131993   3.908   6.669   1.535  0.6405 -1.3368  0.0739
 3478TIP3    H231994   3.798   6.618   1.445 -0.6846  2.3820 -0.5948
 3479TIP3   OH231995   3.722   4.836   7.193 -0.6309  0.0798  0.3027
 3479TIP3    H131996   3.655   4.886   7.241 -0.0630  1.8762 -0.6732
 3479TIP3    H231997   3.690   4.834   7.103 -0.0261 -0.2349  0.0905
 3480TIP3   OH231998   0.544   3.921   1.372 -0.6371  0.4264  0.0833
 3480TIP3    H131999   0.566   3.926   1.279  1.2461 -0.1778  0.4501
 3480TIP3    H232000   0.491   3.999   1.388 -3.3218 -0.7984 -2.0071
 3481TIP3   OH232001   1.752   5.354   1.195 -0.2999  0.2943 -0.1721
 3481TIP3    H132002   1.757   5.279   1.253  0.8740  0.8564  0.5044
 3481TIP3    H232003   1.675   5.402   1.223 -1.2789 -0.8268 -0.8558
 3482TIP3   OH232004   6.175   2.639   1.461 -0.0858 -0.3389  0.3364
 3482TIP3    H132005   6.244   2.701   1.442 -0.0570 -1.2994 -3.5830
 3482TIP3    H232006   6.211   2.554   1.436 -1.8766 -1.1708  0.3636
 3483TIP3   OH232007   2.711   6.512   0.785  0.7359 -0.6293  0.0047
 3483TIP3    H132008   2.707   6.554   0.699  1.5611 -1.2360 -0.3359
 3483TIP3    H232009   2.619   6.500   0.810  0.4790 -1.3172 -1.2189
 3484TIP3   OH232010   5.145   4.097   6.056  0.2015  0.3369  0.3565
 3484TIP3    H132011   5.063   4.147   6.058 -0.0694 -0.0845  0.0902
 3484TIP3    H232012   5.193   4.133   5.981  0.7431  1.3160  1.1532
 3485TIP3   OH232013   0.672   4.949   0.869  0.1036  0.0455 -0.4264
 3485TIP3    H132014   0.613   5.018   0.839 -0.0447  0.0815 -0.0593
 3485TIP3    H232015   0.732   4.935   0.796 -0.8598 -0.5586 -1.1310
 3486TIP3   OH232016   1.619   4.895   0.489 -0.4243 -0.1424 -0.8673
 3486TIP3    H132017   1.625   4.806   0.525  0.2136  0.2905  0.1705
 3486TIP3    H232018   1.600   4.950   0.565  1.2009  0.8426 -1.1186
 3487TIP3   OH232019   2.166   4.090   8.384 -0.2987 -0.4917 -0.5374
 3487TIP3    H132020   2.194   4.107   8.473 -2.8749  1.0791  0.0897
 3487TIP3    H232021   2.247   4.075   8.335  1.2411 -0.4116  1.8420
 3488TIP3   OH232022   0.024   6.634   7.930 -0.1686  0.7325 -0.1847
 3488TIP3    H132023  -0.007   6.649   8.019 -1.5421  0.3817 -0.5816
 3488TIP3    H232024   0.008   6.717   7.885 -0.6071  0.5380 -0.3994
 3489TIP3   OH232025   2.310   1.898   1.758  0.2399  0.3007 -0.1631
 3489TIP3    H132026   2.265   1.942   1.831 -1.0091 -0.7506 -0.2696
 3489TIP3    H232027   2.387   1.858   1.798 -0.2854 -0.0339  0.5354
 3490TIP3   OH232028   5.698   5.016   6.628 -0.3314 -0.4196 -0.2007
 3490TIP3    H132029   5.709   4.933   6.581 -1.8446 -0.4275 -0.5924
 3490TIP3    H232030   5.752   5.078   6.579  0.8402 -1.1626  0.1089
 3491TIP3   OH232031   0.121   1.268   0.633  0.0987 -0.1975 -0.0416
 3491TIP3    H132032   0.142   1.361   0.625 -1.5406  0.1518 -0.8039
 3491TIP3    H232033   0.130   1.250   0.727 -2.5174  1.5685  0.6684
 3492TIP3   OH232034   1.830   3.386   0.997  0.1757 -0.3686  0.0509
 3492TIP3    H132035   1.882   3.315   0.958  0.2501 -1.2163  1.6110
 3492TIP3    H232036   1.785   3.426   0.922  0.8055 -1.4976 -0.9762
 3493TIP3   OH232037   0.234   5.381   7.084 -0.3873  0.5541 -0.2627
 3493TIP3    H132038   0.193   5.390   7.170  0.9495 -0.5214  0.5495
 3493TIP3    H232039   0.175   5.425   7.024 -1.5153  1.0793  1.1670
 3494TIP3   OH232040   5.016   0.506   6.392 -0.0307 -0.1942  0.2794
 3494TIP3    H132041   5.103   0.475   6.416 -0.2708 -0.0472  1.4081
 3494TIP3    H232042   4.959   0.429   6.406 -0.1875 -0.0887  0.2292
 3495TIP3   OH232043   6.711   0.111   1.042 -0.0507  0.1374 -0.8334
 3495TIP3    H132044   6.621   0.102   1.009 -0.9894  0.7982  1.3433
 3495TIP3    H232045   6.722   0.036   1.100 -0.3044  1.5599  1.1512
 3496TIP3   OH232046   4.036   3.684   1.028  0.2781 -0.2767  0.2337
 3496TIP3    H132047   3.993   3.764   0.999  2.1421  0.4325 -0.7262
 3496TIP3    H232048   3.964   3.628   1.059 -1.0098  1.9945  1.6173
 3497TIP3   OH232049   5.271   0.119   6.334 -0.6118  0.4641 -0.7657
 3497TIP3    H132050   5.234   0.037   6.301 -0.2203  0.7207 -1.9178
 3497TIP3    H232051   5.214   0.187   6.298  0.0959  0.7810 -1.3072
 3498TIP3   OH232052   4.881   2.077   7.007  0.2592  0.0837  0.0942
 3498TIP3    H132053   4.788   2.057   6.996  0.4246 -1.2340  0.8848
 3498TIP3    H232054   4.904   2.041   7.092  2.0237 -1.7792 -1.0651
 3499TIP3   OH232055   4.989   0.969   8.795 -0.2078  0.5646  0.2236
 3499TIP3    H132056   5.021   0.897   8.849 -1.4308  0.5181  0.9283
 3499TIP3    H232057   4.919   0.930   8.743  0.4191  0.8061 -0.8344
 3500TIP3   OH232058   3.490   4.614   7.564 -0.4787  0.0719 -0.0765
 3500TIP3    H132059   3.456   4.527   7.544  1.7209 -0.9006  0.1663
 3500TIP3    H232060   3.574   4.598   7.607  0.7410  2.3011 -1.4101
 3501TIP3   OH232061   5.303   0.835   8.441  0.0062  0.3512 -0.1750
 3501TIP3    H132062   5.378   0.784   8.472  0.5182  0.0910 -1.7353
 3501TIP3    H232063   5.259   0.864   8.521  1.8279  0.6046  0.8053
 3502TIP3   OH232064   3.444   4.022   8.157  0.6029 -0.0966 -0.2650
 3502TIP3    H132065   3.517   3.975   8.116  0.2415 -0.0259 -0.9924
 3502TIP3    H232066   3.374   3.958   8.161  0.3193  0.1915 -0.6552
 3503TIP3   OH232067   5.489   1.371   1.775 -0.4139  0.0577  0.4703
 3503TIP3    H132068   5.395   1.357   1.767 -0.5070  1.4239 -1.3922
 3503TIP3    H232069   5.498   1.465   1.792  0.6146 -0.0465  0.5690
 3504TIP3   OH232070   4.386   0.981   6.723  0.8354 -0.7655  0.1040
 3504TIP3    H132071   4.310   1.015   6.674  0.7502 -0.3365  0.5306
 3504TIP3    H232072   4.364   0.889   6.739  0.9043 -0.9400 -0.7376
 3505TIP3   OH232073   2.966   1.711   7.582  0.5111  0.8607 -0.0996
 3505TIP3    H132074   2.992   1.642   7.642 -1.6374 -0.6186 -0.7778
 3505TIP3    H232075   2.966   1.791   7.635  0.9277 -0.0109  1.2377
 3506TIP3   OH232076   5.155   5.405   0.236 -0.1681 -0.3784 -0.2061
 3506TIP3    H132077   5.175   5.388   0.328  1.0245  0.3117 -0.3151
 3506TIP3    H232078   5.095   5.334   0.211 -3.0845  1.1141  1.9075
 3507TIP3   OH232079   5.439   0.332   1.590  0.0039  0.3397 -0.5578
 3507TIP3    H132080   5.377   0.290   1.650 -0.1902  0.9498 -0.3265
 3507TIP3    H232081   5.518   0.344   1.642 -0.7616  2.6109  0.2243
 3508TIP3   OH232082   4.796   1.675   1.207 -0.5193 -0.4143 -0.0683
 3508TIP3    H132083   4.758   1.762   1.197 -1.0522 -0.5763  0.5346
 3508TIP3    H232084   4.863   1.670   1.138 -0.6838  0.3592 -0.2878
 3509TIP3   OH232085   5.692   4.131   0.236  0.0940 -0.3648 -0.0598
 3509TIP3    H132086   5.660   4.204   0.289 -1.1527 -0.2515 -0.9270
 3509TIP3    H232087   5.667   4.053   0.285 -0.0787 -0.2403  0.0517
 3510TIP3   OH232088   0.110   1.225   6.463  0.1125 -0.5499 -0.3861
 3510TIP3    H132089   0.134   1.316   6.483  1.2294 -0.5312 -1.6752
 3510TIP3    H232090   0.036   1.233   6.402  0.5958 -0.4771 -0.9736
 3511TIP3   OH232091   4.497   4.217   6.669  0.4503  0.7597  0.3187
 3511TIP3    H132092   4.501   4.312   6.674 -0.2501  0.7865  0.5204
 3511TIP3    H232093   4.547   4.187   6.745 -0.9827  1.0092  1.3996
 3512TIP3   OH232094   2.681   5.421   2.046 -0.5401 -0.2600  0.2988
 3512TIP3    H132095   2.624   5.454   2.115 -1.8933 -2.4464  0.3304
 3512TIP3    H232096   2.723   5.344   2.083  1.2543  0.3859 -0.2789
 3513TIP3   OH232097   4.106   5.192   8.247  0.8259 -0.1969 -0.3093
 3513TIP3    H132098   4.144   5.273   8.213 -1.3124  1.1588  0.3041
 3513TIP3    H232099   4.023   5.183   8.200  0.5419 -1.4624  0.3951
 3514TIP3   OH232100   1.239   0.395   8.779 -0.1782 -0.5841 -0.4320
 3514TIP3    H132101   1.265   0.334   8.710 -0.6170  0.2805 -1.3985
 3514TIP3    H232102   1.212   0.474   8.732  0.5962  0.4539  0.7803
 3515TIP3   OH232103   4.245   4.624   8.610 -0.9385  0.0779 -0.0115
 3515TIP3    H132104   4.294   4.551   8.572  0.3974  0.9685 -0.0584
 3515TIP3    H232105   4.284   4.637   8.696  0.5757  2.3058 -0.9594
 3516TIP3   OH232106   6.209   5.605   2.402  0.1782 -0.4443  0.1905
 3516TIP3    H132107   6.278   5.668   2.383 -0.7482  0.2959 -0.8790
 3516TIP3    H232108   6.210   5.545   2.327 -0.1850 -0.5564  0.2698
 3517TIP3   OH232109   1.472   0.470   7.348 -0.5147  0.0328  0.4345
 3517TIP3    H132110   1.555   0.516   7.335 -0.2564 -0.9710 -2.0661
 3517TIP3    H232111   1.406   0.538   7.336 -0.0910  0.2262 -1.0999
 3518TIP3   OH232112   6.660   0.469   2.132  0.1881  0.3919  0.3767
 3518TIP3    H132113   6.608   0.547   2.151 -0.9614 -0.2309 -0.1152
 3518TIP3    H232114   6.598   0.397   2.138  1.5577 -0.6954  2.4151
 3519TIP3   OH232115   2.218   3.151   1.061 -0.0223  0.4302 -0.0482
 3519TIP3    H132116   2.122   3.148   1.059 -0.0109  0.1722 -0.3181
 3519TIP3    H232117   2.239   3.241   1.084 -0.3363  0.3689  0.4905
 3520TIP3   OH232118   0.719   1.597   8.677  0.0728 -0.4069  0.2601
 3520TIP3    H132119   0.667   1.571   8.601 -0.1251 -0.4490  0.4101
 3520TIP3    H232120   0.809   1.603   8.644 -0.4883  4.1240 -1.1986
 3521TIP3   OH232121   3.421   1.981   8.636  0.8974  0.0876 -0.3541
 3521TIP3    H132122   3.428   2.001   8.729  0.5740 -1.0541 -0.0680
 3521TIP3    H232123   3.512   1.975   8.606  1.0790 -1.9039  0.4485
 3522TIP3   OH232124   6.442   2.507   1.543 -0.2139 -0.3973  0.5865
 3522TIP3    H132125   6.536   2.498   1.559 -0.3948 -0.8500  1.4765
 3522TIP3    H232126   6.409   2.553   1.620 -0.5796  0.6574 -0.1848
 3523TIP3   OH232127   0.051   2.400   7.454  0.2707  0.3721  0.4098
 3523TIP3    H132128  -0.018   2.333   7.453  0.1033  0.4817  2.2753
 3523TIP3    H232129   0.125   2.358   7.408 -0.4642 -0.3605 -0.1446
 3524TIP3   OH232130   0.263   0.072   0.673  0.3089 -0.3294  0.5445
 3524TIP3    H132131   0.304  -0.014   0.667  1.4264  0.2772 -1.1839
 3524TIP3    H232132   0.248   0.085   0.766 -0.6434 -2.7167  0.8051
 3525TIP3   OH232133   1.569   3.217   8.542 -1.0009  0.3977 -0.3819
 3525TIP3    H132134   1.556   3.197   8.635  0.2543  2.1894  0.2392
 3525TIP3    H232135   1.635   3.286   8.542 -1.7988  1.2426 -2.5559
 3526TIP3   OH232136   6.659   0.439   7.949 -0.6046 -0.5671  0.4919
 3526TIP3    H132137   6.566   0.425   7.963 -0.8678  1.6762  1.3628
 3526TIP3    H232138   6.665   0.525   7.908  1.0501 -1.1057 -0.5312
 3527TIP3   OH232139   0.940   0.256   1.763  0.0228 -0.1133 -0.3238
 3527TIP3    H132140   0.891   0.282   1.841  2.8463  0.0353  1.5325
 3527TIP3    H232141   0.916   0.322   1.697 -2.0056  0.0861  0.5308
 3528TIP3   OH232142   5.347   1.236   0.064  0.3044  0.2266 -0.2964
 3528TIP3    H132143   5.412   1.205   0.002 -0.0724  0.9119 -1.0546
 3528TIP3    H232144   5.317   1.157   0.109  1.5516 -0.1111 -0.0152
 3529TIP3   OH232145   0.400   4.662   0.574 -0.2651  0.8050  0.0809
 3529TIP3    H132146   0.357   4.717   0.639  1.1621  1.3709  0.5799
 3529TIP3    H232147   0.492   4.686   0.579  0.2124 -0.7622 -0.5716
 3530TIP3   OH232148   3.283   1.785   8.103  0.0981  0.3181  0.0483
 3530TIP3    H132149   3.359   1.787   8.161  0.9963 -0.2604 -1.0629
 3530TIP3    H232150   3.318   1.755   8.019 -0.8805  2.4425 -1.2047
 3531TIP3   OH232151   6.373   4.739   6.954 -0.1342  0.5219  0.4513
 3531TIP3    H132152   6.362   4.810   6.890 -1.9771  0.1586  0.3002
 3531TIP3    H232153   6.385   4.661   6.900  0.8623  0.5612  0.6050
 3532TIP3   OH232154   3.330   2.865   6.892  0.9338  0.0626  0.8124
 3532TIP3    H132155   3.344   2.840   6.801  1.7823  0.2447  0.8927
 3532TIP3    H232156   3.378   2.947   6.903 -0.7077  1.0549  0.9246
 3533TIP3   OH232157   2.576   3.912   7.089 -0.6271 -0.2073  0.0178
 3533TIP3    H132158   2.518   3.924   7.164  0.7845  0.4928  1.0477
 3533TIP3    H232159   2.602   4.000   7.064  0.2287 -0.5155 -0.2193
 3534TIP3   OH232160   0.568   1.009   6.259  0.1603  0.2731  0.1498
 3534TIP3    H132161   0.580   1.102   6.238 -0.2754  0.7902  2.0064
 3534TIP3    H232162   0.611   0.999   6.344  0.4809 -1.3135 -0.1790
 3535TIP3   OH232163   2.052   0.030   7.812  0.0762 -0.2773  1.1614
 3535TIP3    H132164   2.102   0.104   7.779  0.5444 -0.6346  1.0631
 3535TIP3    H232165   1.982   0.070   7.864 -0.0705  0.2541  0.5688
 3536TIP3   OH232166   2.754   5.227   7.846  0.7183  0.1186 -0.0703
 3536TIP3    H132167   2.715   5.199   7.929  1.2982  1.1256  0.5696
 3536TIP3    H232168   2.705   5.179   7.779 -1.2389  0.9121  0.7165
 3537TIP3   OH232169   2.510   3.545   0.554  0.3896  0.1652  0.1375
 3537TIP3    H132170   2.600   3.513   0.549  0.8824  1.4263  0.5456
 3537TIP3    H232171   2.491   3.551   0.648  0.1946  0.7180  0.0702
 3538TIP3   OH232172   5.854   5.208   6.479  0.6163  0.2307 -0.1441
 3538TIP3    H132173   5.778   5.265   6.466 -0.6262 -1.2993 -0.0295
 3538TIP3    H232174   5.902   5.213   6.397 -1.5761 -1.4477 -1.6673
 3539TIP3   OH232175   1.245   5.000   0.090 -0.0728 -0.1751  0.0282
 3539TIP3    H132176   1.167   4.998   0.146  0.3974 -1.9263  0.6601
 3539TIP3    H232177   1.295   5.074   0.122 -1.8039  1.5111 -0.9073
 3540TIP3   OH232178   0.861   1.485   6.116  0.6972 -0.0133  0.2951
 3540TIP3    H132179   0.768   1.505   6.131  0.6865  0.2631 -0.1265
 3540TIP3    H232180   0.869   1.393   6.141 -0.2681 -0.8059 -2.0017
 3541TIP3   OH232181   5.462   0.549   8.849 -0.1599  0.0134 -0.5066
 3541TIP3    H132182   5.459   0.454   8.845 -3.1557  0.0192 -0.6526
 3541TIP3    H232183   5.489   0.576   8.761 -1.0789 -0.6987 -1.0182
 3542TIP3   OH232184   0.589   2.248   7.639 -0.6059 -0.5412  0.2941
 3542TIP3    H132185   0.660   2.257   7.703 -1.0845  0.7572  0.6870
 3542TIP3    H232186   0.531   2.181   7.677 -0.8930  0.2217  1.2640
 3543TIP3   OH232187   2.796   1.885   7.341  0.7310  0.7373  0.4515
 3543TIP3    H132188   2.862   1.822   7.369 -0.3617 -0.7896 -0.2525
 3543TIP3    H232189   2.751   1.911   7.421  0.6612 -0.0038  0.6525
 3544TIP3   OH232190   5.735   5.312   8.236 -0.3259 -0.9253  0.1393
 3544TIP3    H132191   5.732   5.395   8.188 -0.5603 -1.2010 -0.3367
 3544TIP3    H232192   5.663   5.319   8.299  0.8727  0.0116  1.4341
 3545TIP3   OH232193   1.830   4.382   8.055  0.7762 -0.3935 -0.2518
 3545TIP3    H132194   1.890   4.453   8.030 -0.2811  0.5081 -0.2788
 3545TIP3    H232195   1.752   4.398   8.002  0.4265 -1.4416 -0.0625
 3546TIP3   OH232196   0.678   2.879   1.215  0.6712 -0.1458  0.1719
 3546TIP3    H132197   0.608   2.824   1.179 -1.0485  1.0255  1.5376
 3546TIP3    H232198   0.672   2.960   1.165 -0.0879  0.5704  1.3890
 3547TIP3   OH232199   1.774   0.249   2.129  0.1979 -0.6474  0.5471
 3547TIP3    H132200   1.684   0.216   2.130 -1.4489  3.2502  1.9077
 3547TIP3    H232201   1.813   0.215   2.209 -1.1905  0.0852  1.5886
 3548TIP3   OH232202   4.580   2.291   7.849 -0.8517 -0.3684 -0.8733
 3548TIP3    H132203   4.591   2.384   7.871  0.2444 -0.6513 -0.1649
 3548TIP3    H232204   4.551   2.250   7.931 -0.0493 -0.8642 -0.8298
 3549TIP3   OH232205   0.072   1.972   7.556  0.5475 -0.1384  0.0065
 3549TIP3    H132206   0.041   2.016   7.635 -0.7736  1.8014 -1.5070
 3549TIP3    H232207   0.074   2.041   7.489 -0.1012 -2.0450 -2.1116
 3550TIP3   OH232208   3.193   1.673   6.528 -0.0399 -0.5972  0.0617
 3550TIP3    H132209   3.176   1.749   6.472 -1.4253 -1.0479 -0.1691
 3550TIP3    H232210   3.184   1.598   6.469  1.2162 -0.9701  0.3113
 3551TIP3   OH232211   2.303   3.284   8.015  0.1779 -0.1042 -0.4669
 3551TIP3    H132212   2.297   3.272   7.920  3.1542 -0.9396 -0.6406
 3551TIP3    H232213   2.256   3.209   8.051 -0.4200 -0.1336 -1.2720
 3552TIP3   OH232214   4.743   0.417   7.406  0.3480  0.0513 -0.2040
 3552TIP3    H132215   4.753   0.501   7.360  1.9789  0.6495  1.1346
 3552TIP3    H232216   4.706   0.358   7.340 -1.1751  1.8831 -1.0803
 3553TIP3   OH232217   5.129   4.098   8.702 -0.1290  0.5952 -0.2970
 3553TIP3    H132218   5.051   4.041   8.706  0.0090  0.4775  1.9528
 3553TIP3    H232219   5.120   4.156   8.778  0.4691  2.6711 -1.7290
 3554TIP3   OH232220   6.506   6.790   6.966  0.0177  0.2763 -0.1573
 3554TIP3    H132221   6.585   6.754   6.925  0.8589  1.1052  0.6472
 3554TIP3    H232222   6.482   6.865   6.911  1.2826  1.5314  0.9097
 3555TIP3   OH232223   4.350   2.358   7.251 -0.3115  0.1990 -0.1262
 3555TIP3    H132224   4.332   2.307   7.330 -0.9092  0.7055  0.0709
 3555TIP3    H232225   4.410   2.303   7.200  0.1026 -0.1205  0.6889
 3556TIP3   OH232226   3.342   0.481   0.878 -0.0256  0.4560 -0.2211
 3556TIP3    H132227   3.309   0.527   0.801  0.7647 -0.4598 -1.1288
 3556TIP3    H232228   3.314   0.535   0.952 -0.3526  1.6203 -1.1722
 3557TIP3   OH232229   1.918   0.030   0.540  0.0280  0.1899 -0.3226
 3557TIP3    H132230   1.938  -0.012   0.456  1.9706  0.7227 -0.1559
 3557TIP3    H232231   1.967  -0.020   0.605  1.0171  1.6219  0.0891
 3558TIP3   OH232232   0.866   1.185   1.311  0.3912 -0.1927  0.0988
 3558TIP3    H132233   0.843   1.132   1.234  2.1222  0.0797 -0.6637
 3558TIP3    H232234   0.958   1.165   1.327  0.2542  0.3211  1.6761
 3559TIP3   OH232235   0.882   1.960   2.377 -0.4234 -0.4982  0.1998
 3559TIP3    H132236   0.795   1.969   2.337 -0.2100  0.0105 -0.1552
 3559TIP3    H232237   0.940   2.012   2.321  0.2711 -1.5083 -0.0608
 3560TIP3   OH232238   1.175   3.933   0.726 -0.1031  0.3972  0.0057
 3560TIP3    H132239   1.203   3.997   0.660  0.1741  0.8986  0.5971
 3560TIP3    H232240   1.168   3.984   0.807  1.5134 -0.5918  0.8167
 3561TIP3   OH232241   5.911   4.938   7.106 -0.2493 -0.2354 -0.4699
 3561TIP3    H132242   5.991   4.886   7.095  0.6351  0.9227  0.2144
 3561TIP3    H232243   5.891   4.932   7.200  1.1565  2.3681  0.1076
 3562TIP3   OH232244   6.246   0.906   7.887 -0.0993  0.9065  0.5973
 3562TIP3    H132245   6.201   0.912   7.971 -0.7425  1.6157  0.2137
 3562TIP3    H232246   6.176   0.890   7.824  0.0831  2.6108 -0.0891
 3563TIP3   OH232247   5.934   5.276   7.319  0.7412 -0.4011 -0.1139
 3563TIP3    H132248   5.929   5.355   7.265  1.7206 -0.2710 -0.0287
 3563TIP3    H232249   5.873   5.215   7.277  0.4280  0.1881 -0.5303
 3564TIP3   OH232250   2.497   3.757   6.842 -0.1722 -0.2419  0.3711
 3564TIP3    H132251   2.553   3.810   6.899 -0.4641 -0.4944  0.9011
 3564TIP3    H232252   2.448   3.821   6.791  0.8439 -0.0195 -0.3463
 3565TIP3   OH232253   2.945   5.061   8.078 -0.3762 -0.4312 -0.4281
 3565TIP3    H132254   2.849   5.059   8.086 -0.3067 -2.1094  0.6541
 3565TIP3    H232255   2.970   4.969   8.069  1.1292  0.0036 -0.9981
 3566TIP3   OH232256   5.843   2.111   7.563 -0.1699  0.2882 -0.6333
 3566TIP3    H132257   5.851   2.034   7.507  0.0728  0.0946 -0.3342
 3566TIP3    H232258   5.932   2.144   7.573 -0.0627 -0.2851  0.4745
 3567TIP3   OH232259   1.508   6.785   7.561  0.7569  0.1878 -0.0250
 3567TIP3    H132260   1.594   6.785   7.519  0.2841 -1.9683 -1.0991
 3567TIP3    H232261   1.463   6.860   7.521  0.5961 -1.3357 -2.9117
 3568TIP3   OH232262   1.809   3.073   7.189  0.9645  0.3635  0.6529
 3568TIP3    H132263   1.747   3.124   7.242  0.9626  0.1572  0.8500
 3568TIP3    H232264   1.895   3.096   7.225  1.0576  1.1490 -0.0429
 3569TIP3   OH232265   3.674   2.101   1.925  0.2864 -0.0362 -0.0269
 3569TIP3    H132266   3.599   2.143   1.883 -1.1434 -0.7162  1.7325
 3569TIP3    H232267   3.653   2.008   1.924  0.9499 -0.2092  0.7716
 3570TIP3   OH232268   3.943   2.909   1.239 -0.4574 -0.2787  0.1501
 3570TIP3    H132269   3.887   2.986   1.243 -0.6314 -0.4411  1.1901
 3570TIP3    H232270   4.009   2.930   1.173 -0.3500  0.8618  0.5951
 3571TIP3   OH232271   6.315   6.142   8.845 -0.7730  0.2444 -0.0336
 3571TIP3    H132272   6.331   6.235   8.864  0.8027  0.8423 -3.4383
 3571TIP3    H232273   6.402   6.107   8.825 -1.4151 -1.8733  0.7092
 3572TIP3   OH232274   5.773   3.358   7.424 -0.9158 -0.2909  0.0639
 3572TIP3    H132275   5.769   3.263   7.417 -0.4521 -0.2240 -1.2434
 3572TIP3    H232276   5.859   3.376   7.461 -0.3775 -0.3270 -1.1323
 3573TIP3   OH232277   1.576   1.194   1.430  0.0785 -0.1825  0.6013
 3573TIP3    H132278   1.607   1.155   1.348 -0.1046 -0.2394  0.5603
 3573TIP3    H232279   1.491   1.231   1.409 -0.7066 -1.6007  1.1442
 3574TIP3   OH232280   6.477   3.740   7.289 -0.9883 -0.7486 -0.1521
 3574TIP3    H132281   6.521   3.708   7.368 -0.7101 -0.9862 -0.4018
 3574TIP3    H232282   6.528   3.817   7.263 -0.6103 -1.1248 -0.5400
 3575TIP3   OH232283   5.391   6.026   0.494  0.3653 -0.7615 -0.6673
 3575TIP3    H132284   5.474   6.070   0.477  0.6234 -1.3913 -1.0788
 3575TIP3    H232285   5.325   6.093   0.478  0.8457  0.8777  3.1573
 3576TIP3   OH232286   5.202   1.231   8.552  0.0482  0.1464 -0.2224
 3576TIP3    H132287   5.273   1.283   8.514  2.1801 -0.2745  2.7534
 3576TIP3    H232288   5.162   1.289   8.617 -1.2076 -0.1946 -0.6722
 3577TIP3   OH232289   3.218   1.079   1.349  0.0772  0.1924  1.0712
 3577TIP3    H132290   3.244   1.106   1.261 -3.2717 -0.1507 -0.1782
 3577TIP3    H232291   3.253   0.991   1.359  1.9066  0.8575  0.8080
 3578TIP3   OH232292   5.213   4.956   7.944  0.2948  0.3519  0.5593
 3578TIP3    H132293   5.178   4.872   7.972 -0.5811 -0.5089 -2.6870
 3578TIP3    H232294   5.136   5.007   7.919  0.8596  1.9298  1.8632
 3579TIP3   OH232295   6.733   5.592   0.231 -0.2050  0.1213  0.0027
 3579TIP3    H132296   6.818   5.626   0.202  0.3113 -0.6784  0.5536
 3579TIP3    H232297   6.684   5.671   0.256  0.6952  0.5394  0.5242
 3580TIP3   OH232298   4.731   0.855   8.846 -0.2210 -0.1366  0.6399
 3580TIP3    H132299   4.649   0.900   8.825 -0.1790 -1.2791 -2.5907
 3580TIP3    H232300   4.706   0.764   8.858  0.4185 -0.2549  1.1185
 3581TIP3   OH232301   4.141   2.427   6.734 -0.0879 -0.0426 -0.2589
 3581TIP3    H132302   4.170   2.393   6.650  2.0205 -1.5570  0.9951
 3581TIP3    H232303   4.204   2.496   6.756 -0.2454 -0.0810  0.3502
 3582TIP3   OH232304   1.640   0.138   8.571 -0.4983 -0.2702  0.1710
 3582TIP3    H132305   1.600   0.125   8.656  1.8563 -0.3698  1.3454
 3582TIP3    H232306   1.732   0.159   8.590 -0.1422  0.8371 -2.2937
 3583TIP3   OH232307   2.057   1.904   1.578 -0.3223  0.3968 -0.2583
 3583TIP3    H132308   2.141   1.946   1.594 -1.0618  1.5960  0.5519
 3583TIP3    H232309   2.035   1.861   1.661 -0.7692  0.5500 -0.2958
 3584TIP3   OH232310   2.079   1.057   0.704 -0.4767 -0.0732 -0.3144
 3584TIP3    H132311   2.126   1.035   0.784 -1.8196  1.0528  0.8363
 3584TIP3    H232312   2.094   0.982   0.646  1.8296 -0.2138  0.3654
 3585TIP3   OH232313   5.541   4.631   1.769 -0.2900  0.1969 -0.5406
 3585TIP3    H132314   5.462   4.669   1.808 -0.3967 -0.9256  0.4020
 3585TIP3    H232315   5.512   4.597   1.684 -0.2814  1.7985 -1.2131
 3586TIP3   OH232316   0.315   4.989   1.340 -0.3867  0.2859 -0.4391
 3586TIP3    H132317   0.307   5.041   1.419 -0.0837  0.0870 -0.2752
 3586TIP3    H232318   0.396   5.020   1.299 -0.0335 -0.2713 -0.1773
 3587TIP3   OH232319   6.019   4.161   8.761  0.3656  0.2514  0.4880
 3587TIP3    H132320   5.928   4.137   8.743  0.4536 -1.3300  1.9887
 3587TIP3    H232321   6.021   4.180   8.855  1.6795 -0.2195  0.5749
 3588TIP3   OH232322   3.551   3.051   1.345  0.2561  0.1526 -0.1398
 3588TIP3    H132323   3.590   3.009   1.421  1.1932 -1.3489 -1.3818
 3588TIP3    H232324   3.606   3.128   1.330 -0.5271  1.0196  1.2364
 3589TIP3   OH232325   6.656   6.156   7.702  0.6234 -0.2320 -0.0629
 3589TIP3    H132326   6.577   6.208   7.719  1.3347  0.8614 -0.0347
 3589TIP3    H232327   6.728   6.213   7.728  1.4600 -0.9076 -0.8482
 3590TIP3   OH232328   1.075   3.682   0.283 -0.1497  0.6968 -0.3307
 3590TIP3    H132329   1.153   3.738   0.287 -0.7836  1.5292  2.3712
 3590TIP3    H232330   1.040   3.682   0.372 -2.3076 -1.0328 -1.0715
 3591TIP3   OH232331   3.231   2.927   8.716 -0.6100 -0.3562  0.1830
 3591TIP3    H132332   3.223   3.004   8.772  0.3246  0.6798 -1.0498
 3591TIP3    H232333   3.143   2.911   8.682 -0.8254  0.1013  0.5387
 3592TIP3   OH232334   4.931   3.060   6.917  0.3437 -0.4795  0.0118
 3592TIP3    H132335   4.849   3.030   6.877 -1.0514  1.6308  1.0972
 3592TIP3    H232336   4.969   3.120   6.852 -0.1885  0.3115  0.4062
 3593TIP3   OH232337   6.408   0.016   8.548 -0.1382 -0.3824  0.1751
 3593TIP3    H132338   6.368   0.008   8.461 -0.4296 -1.1129  0.3650
 3593TIP3    H232339   6.496   0.051   8.532  0.0310 -1.0907 -0.4658
 3594TIP3   OH232340   6.425   5.295   7.311  0.1015  0.6164 -0.1312
 3594TIP3    H132341   6.428   5.357   7.384  0.3753  2.3078 -1.5000
 3594TIP3    H232342   6.378   5.342   7.242 -0.0944 -0.9058 -1.0726
 3595TIP3   OH232343   2.743   3.126   6.681 -0.1589 -0.0373 -0.1102
 3595TIP3    H132344   2.656   3.089   6.695 -1.0208  1.6459 -0.7500
 3595TIP3    H232345   2.766   3.167   6.765 -0.2672  0.0795 -0.1378
 3596TIP3   OH232346   3.212   5.645   2.361 -0.0932 -0.7164  0.1766
 3596TIP3    H132347   3.301   5.612   2.377  0.5548 -0.0048 -1.6602
 3596TIP3    H232348   3.217   5.738   2.384  0.0463 -0.3737 -1.1123
 3597TIP3   OH232349   0.101   6.686   0.105 -0.4588  0.2470 -0.0927
 3597TIP3    H132350   0.066   6.769   0.139 -0.8073  0.5758 -1.2338
 3597TIP3    H232351   0.193   6.686   0.132  0.4596  2.5299 -2.7412
 3598TIP3   OH232352   2.730   2.403   7.774  0.5171 -0.2642  0.1050
 3598TIP3    H132353   2.803   2.433   7.720  0.7614 -1.6431 -0.3510
 3598TIP3    H232354   2.769   2.386   7.860  0.6617 -0.6614 -0.0396
 3599TIP3   OH232355   1.085   1.161   7.159  0.6182 -0.1541  0.2949
 3599TIP3    H132356   1.027   1.238   7.152 -0.5171 -0.9709  0.3738
 3599TIP3    H232357   1.044   1.095   7.102  2.0821 -0.4236 -0.5039
 3600TIP3   OH232358   3.430   3.120   0.775 -0.3495  0.2210 -0.5474
 3600TIP3    H132359   3.364   3.076   0.829  0.8925  0.2207  1.0210
 3600TIP3    H232360   3.500   3.142   0.836  1.3234 -0.1820 -2.2398
 3601TIP3   OH232361   3.936   6.605   1.719  0.2285 -0.1809  0.5699
 3601TIP3    H132362   3.855   6.619   1.767  0.2143  1.4619  0.1371
 3601TIP3    H232363   3.937   6.512   1.698 -0.5459 -0.6115  2.3275
 3602TIP3   OH232364   1.126   0.114   6.514  0.2159 -0.6907  0.1552
 3602TIP3    H132365   1.087   0.030   6.538  0.1582 -1.1183 -1.3500
 3602TIP3    H232366   1.165   0.099   6.428  0.0820  0.8597 -0.2104
 3603TIP3   OH232367   6.064   3.021   1.937 -0.3361 -0.0726 -0.4130
 3603TIP3    H132368   6.146   3.008   1.984 -0.1050  1.1383 -0.4403
 3603TIP3    H232369   6.018   2.938   1.945  1.3326 -1.1314 -1.2883
 3604TIP3   OH232370   4.187   3.224   6.922 -0.1510  0.2450 -0.1808
 3604TIP3    H132371   4.275   3.232   6.886 -0.2145  1.5421 -0.0855
 3604TIP3    H232372   4.142   3.165   6.862  1.0919 -1.3671  0.3893
 3605TIP3   OH232373   1.436   2.561   0.264  0.4168 -0.1305  0.2876
 3605TIP3    H132374   1.368   2.543   0.199  1.1597 -0.1974 -0.4841
 3605TIP3    H232375   1.481   2.478   0.275  0.7165  0.0439  0.3898
 3606TIP3   OH232376   1.849   6.373   1.204  0.2028 -0.2194 -0.2001
 3606TIP3    H132377   1.830   6.456   1.247  0.4196  0.7691 -1.9282
 3606TIP3    H232378   1.940   6.353   1.229 -0.5267 -1.1150  1.9841
 3607TIP3   OH232379   2.387   1.717   8.640 -0.0522  0.8303 -0.4447
 3607TIP3    H132380   2.415   1.713   8.548 -1.2788  1.6136 -0.8727
 3607TIP3    H232381   2.462   1.756   8.685  0.5063  0.5837 -1.1249
 3608TIP3   OH232382   2.996   5.577   2.185  0.2017 -0.1198 -0.0545
 3608TIP3    H132383   3.025   5.541   2.101  1.9573 -0.3526  0.6059
 3608TIP3    H232384   3.077   5.610   2.225 -1.0681  3.2892  0.0110
 3609TIP3   OH232385   1.809   3.687   8.152  0.0772  0.3895  0.3833
 3609TIP3    H132386   1.769   3.737   8.224  0.2127  1.0749 -0.0136
 3609TIP3    H232387   1.853   3.614   8.195  1.4663  1.6356  1.1454
 3610TIP3   OH232388   2.183   3.693   6.464 -0.5860 -0.0870  0.4271
 3610TIP3    H132389   2.153   3.732   6.382 -0.7139 -2.9129 -0.9955
 3610TIP3    H232390   2.135   3.610   6.471  1.6326 -1.3661  1.7870
 3611TIP3   OH232391   0.265   4.198   8.162 -0.0498 -0.3499  0.2108
 3611TIP3    H132392   0.211   4.141   8.106  0.2818  0.5298 -1.0600
 3611TIP3    H232393   0.233   4.182   8.250 -0.8773 -1.4976 -0.2632
 3612TIP3   OH232394   1.079   5.047   0.524 -0.0768  0.1993  0.2245
 3612TIP3    H132395   1.029   5.053   0.442 -0.4655 -0.2924  0.4123
 3612TIP3    H232396   1.142   5.119   0.520 -0.2100  0.2869 -0.4258
 3613TIP3   OH232397   5.261   4.042   1.180 -0.2321 -0.3065  0.0745
 3613TIP3    H132398   5.233   4.126   1.145  1.3063 -0.8064 -2.6604
 3613TIP3    H232399   5.179   3.994   1.196 -1.0744  1.0756  0.0638
 3614TIP3   OH232400   4.453   3.261   1.749  0.1256  0.1549  0.2135
 3614TIP3    H132401   4.405   3.183   1.778  0.3728 -0.2574 -0.4497
 3614TIP3    H232402   4.387   3.330   1.747 -0.5358 -0.4770 -0.9994
 3615TIP3   OH232403   2.396   0.382   8.110  0.0969 -0.4754 -0.9365
 3615TIP3    H132404   2.466   0.436   8.147  1.4268 -0.8211 -2.8181
 3615TIP3    H232405   2.315   0.429   8.134  1.1480  1.9503 -1.7987
 3616TIP3   OH232406   4.328   5.256   8.774 -0.2562 -0.2889  0.3724
 3616TIP3    H132407   4.338   5.244   8.680  1.0724  1.5276  0.2173
 3616TIP3    H232408   4.236   5.282   8.786 -0.7412 -1.6347 -0.2447
 3617TIP3   OH232409   4.538   0.438   7.815  0.1340  0.3883 -0.3260
 3617TIP3    H132410   4.632   0.459   7.820  0.1991  0.0130  0.1899
 3617TIP3    H232411   4.529   0.361   7.871 -0.9598  2.0656  1.9809
 3618TIP3   OH232412   1.190   2.436   7.511 -0.1258  0.1108 -0.3151
 3618TIP3    H132413   1.198   2.527   7.483 -0.1548  0.3362  0.3836
 3618TIP3    H232414   1.280   2.406   7.522 -0.0852  0.8004  1.7361
 3619TIP3   OH232415   4.491   6.252   6.345  0.1246  0.5210  0.0866
 3619TIP3    H132416   4.431   6.284   6.413 -0.6588 -0.3302 -0.1768
 3619TIP3    H232417   4.471   6.306   6.269 -0.0575  0.4763  0.1016
 3620TIP3   OH232418   0.123   4.081   0.255  0.8592 -1.1570 -0.1900
 3620TIP3    H132419   0.180   4.090   0.179  0.6005  2.1004 -0.1236
 3620TIP3    H232420   0.178   4.102   0.330  0.6253 -2.3962  0.3530
 3621TIP3   OH232421   5.776   5.253   0.461 -0.1422 -0.1844 -0.3793
 3621TIP3    H132422   5.797   5.186   0.396  0.6781 -0.2563 -0.0517
 3621TIP3    H232423   5.746   5.204   0.537 -1.4798 -0.0844 -0.8214
 3622TIP3   OH232424   4.711   3.433   7.783  0.0474  0.7852 -0.6135
 3622TIP3    H132425   4.682   3.411   7.695 -1.0991  0.8389 -0.2668
 3622TIP3    H232426   4.805   3.445   7.775 -0.0511  0.8593 -1.8419
 3623TIP3   OH232427   3.952   5.857   8.652  0.0901 -0.7382  0.0118
 3623TIP3    H132428   4.041   5.875   8.623  0.1248 -1.4832 -0.3776
 3623TIP3    H232429   3.898   5.921   8.605 -0.0001 -2.6823 -2.7552
 3624TIP3   OH232430   3.163   4.823   7.382 -0.2647  0.1624  0.1321
 3624TIP3    H132431   3.219   4.821   7.460  2.0958 -1.3016 -1.4527
 3624TIP3    H232432   3.150   4.917   7.365  0.3691  0.5227  1.4843
 3625TIP3   OH232433   3.133   2.925   0.196  0.2612 -0.8097  0.0500
 3625TIP3    H132434   3.228   2.912   0.202  0.2690 -0.9162 -0.3086
 3625TIP3    H232435   3.108   2.953   0.284  0.7226 -0.1491 -0.0178
 3626TIP3   OH232436   3.699   0.739   7.380  0.0662 -0.3736  0.2675
 3626TIP3    H132437   3.626   0.740   7.442 -1.2947  1.4898 -1.2051
 3626TIP3    H232438   3.770   0.784   7.425 -0.7200  0.4846  0.6865
 3627TIP3   OH232439   1.167   4.350   0.178 -0.1643  0.0495 -0.1679
 3627TIP3    H132440   1.091   4.312   0.223 -0.8810 -0.1510 -1.5084
 3627TIP3    H232441   1.233   4.281   0.180 -1.3454 -1.2392 -2.3104
 3628TIP3   OH232442   3.736   2.708   1.315 -0.2325 -0.1683  0.7123
 3628TIP3    H132443   3.804   2.767   1.282  0.2220 -0.3810  1.2649
 3628TIP3    H232444   3.777   2.621   1.315 -0.8861 -0.5026 -0.0737
 3629TIP3   OH232445   6.781   3.257   7.380  0.0116 -0.4310 -0.2260
 3629TIP3    H132446   6.827   3.233   7.460 -0.9325 -0.6882  0.2578
 3629TIP3    H232447   6.702   3.203   7.380  0.2497 -0.8264 -1.6050
 3630TIP3   OH232448   2.022   1.375   6.846  0.1010  0.0998  0.4849
 3630TIP3    H132449   2.071   1.457   6.842  0.3748 -0.0854 -0.0471
 3630TIP3    H232450   1.930   1.402   6.853  0.1674  0.4546 -0.0145
 3631TIP3   OH232451   6.180   2.104   2.401 -0.5308  0.2778 -0.0862
 3631TIP3    H132452   6.097   2.139   2.369 -0.6468 -0.4859 -0.6450
 3631TIP3    H232453   6.201   2.032   2.341  0.9387  0.9531 -0.4234
 3632TIP3   OH232454   2.417   1.800   1.400  0.1491  1.0204  0.2501
 3632TIP3    H132455   2.481   1.751   1.348 -0.8257 -0.0873  0.0354
 3632TIP3    H232456   2.417   1.888   1.362  1.1632  0.8983 -0.0711
 3633TIP3   OH232457   4.095   6.582   1.266  0.1224 -0.5121  0.4603
 3633TIP3    H132458   4.020   6.625   1.307 -0.5570  1.0591 -2.1858
 3633TIP3    H232459   4.061   6.499   1.233 -0.5177  0.1591 -0.6539
 3634TIP3   OH232460   3.367   4.061   6.608 -0.2135 -0.1350 -0.0783
 3634TIP3    H132461   3.330   4.131   6.554 -1.5745 -0.7503  0.0136
 3634TIP3    H232462   3.297   3.996   6.614 -0.0295 -0.1977  2.2468
 3635TIP3   OH232463   4.714   6.363   8.522 -0.4505 -0.0571 -0.2282
 3635TIP3    H132464   4.745   6.454   8.523  0.5711 -0.3646 -1.0581
 3635TIP3    H232465   4.667   6.355   8.439 -0.6043 -0.2683 -0.1218
 3636TIP3   OH232466   1.960   3.178   8.296  0.0678 -0.6207 -0.0105
 3636TIP3    H132467   1.875   3.219   8.277 -0.1268  0.3445  2.6322
 3636TIP3    H232468   1.987   3.141   8.211 -3.2084 -1.4660 -0.8553
 3637TIP3   OH232469   1.536   1.945   7.238 -0.0161  0.5891 -0.2021
 3637TIP3    H132470   1.534   1.868   7.181  1.2843 -1.4835  2.3158
 3637TIP3    H232471   1.445   1.959   7.263 -0.2117 -0.5119 -0.2517
 3638TIP3   OH232472   4.153   6.646   7.192  0.5580  0.3720 -0.5143
 3638TIP3    H132473   4.222   6.696   7.148  0.6910  1.8122  1.2432
 3638TIP3    H232474   4.197   6.570   7.229  0.9850  0.6984 -0.3541
 3639TIP3   OH232475   3.871   1.422   7.185 -0.2105 -0.0985 -0.1331
 3639TIP3    H132476   3.938   1.354   7.177  0.3022  0.2790  0.7638
 3639TIP3    H232477   3.842   1.417   7.276 -0.6170  0.4677 -0.2262
 3640TIP3   OH232478   1.445   1.850   0.963  0.1279  0.4555  0.3053
 3640TIP3    H132479   1.441   1.756   0.950  1.1514  0.5096 -0.4850
 3640TIP3    H232480   1.418   1.863   1.054  0.9783 -0.6945  0.7425
 3641TIP3   OH232481   6.801   2.545   7.994  0.1271  0.2667 -0.3863
 3641TIP3    H132482   6.714   2.549   8.035  0.0346  1.5699 -0.6623
 3641TIP3    H232483   6.860   2.583   8.059  0.6153 -1.1417  0.0358
 3642TIP3   OH232484   5.279   2.595   7.437 -0.0517 -0.2818 -0.3388
 3642TIP3    H132485   5.221   2.658   7.395 -1.0060 -0.0777  1.2105
 3642TIP3    H232486   5.222   2.522   7.462  0.9756 -1.6275 -1.7850
 3643TIP3   OH232487   2.523   1.859   1.915 -0.2004  0.4400 -0.0685
 3643TIP3    H132488   2.464   1.861   1.991  0.6514 -0.1519  0.6309
 3643TIP3    H232489   2.610   1.877   1.952  0.4829 -1.4811 -0.6207
 3644TIP3   OH232490   6.256   3.150   0.736  0.4346 -0.4790 -0.2760
 3644TIP3    H132491   6.249   3.244   0.720  2.8289 -0.0521  0.7752
 3644TIP3    H232492   6.263   3.142   0.831  1.8824 -1.5272 -0.4297
 3645TIP3   OH232493   5.980   1.247   0.474 -0.4372  0.2190 -0.0389
 3645TIP3    H132494   5.931   1.166   0.459  1.4061 -1.3429  1.7051
 3645TIP3    H232495   5.937   1.287   0.550  0.2652 -0.6342  0.8554
 3646TIP3   OH232496   0.253   5.134   7.272  0.3822  0.0259 -0.2987
 3646TIP3    H132497   0.211   5.170   7.194  0.5121 -1.6351 -1.1933
 3646TIP3    H232498   0.342   5.111   7.243  0.5577 -0.2423  0.4366
 3647TIP3   OH232499   3.943   6.140   7.488  0.6145  0.1474  0.4195
 3647TIP3    H132500   3.888   6.083   7.541 -0.5845 -0.4854 -1.3879
 3647TIP3    H232501   3.957   6.218   7.542 -1.0394 -0.2176  1.4376
 3648TIP3   OH232502   6.574   2.064   0.291 -0.7244  0.6242  0.2821
 3648TIP3    H132503   6.656   2.056   0.340 -0.3162  0.9157 -0.3399
 3648TIP3    H232504   6.595   2.031   0.204 -1.2374  0.8264  0.0780
 3649TIP3   OH232505   3.389   3.121   2.269 -0.1438  0.6822 -0.6377
 3649TIP3    H132506   3.481   3.138   2.251  0.5104 -0.6093  1.1352
 3649TIP3    H232507   3.372   3.036   2.227  0.7054 -1.1165  2.3596
 3650TIP3   OH232508   5.525   3.069   6.719  0.5411 -0.0807  0.2268
 3650TIP3    H132509   5.470   3.099   6.647 -0.0634 -0.5831  0.4670
 3650TIP3    H232510   5.465   3.060   6.793  0.8994 -0.8564  0.4344
 3651TIP3   OH232511   2.682   2.197   7.325  0.6747 -0.1776 -0.3280
 3651TIP3    H132512   2.754   2.259   7.312  0.4634  0.1611  0.1030
 3651TIP3    H232513   2.659   2.206   7.418  1.2384 -1.5482 -0.0274
 3652TIP3   OH232514   4.801   0.280   7.656 -0.1950 -0.2005 -0.1660
 3652TIP3    H132515   4.767   0.330   7.581 -0.3908 -0.9548 -0.5942
 3652TIP3    H232516   4.781   0.189   7.634  1.1926 -0.5731  0.0576
 3653TIP3   OH232517   4.531   6.059   8.411 -0.2095  0.1245  0.0434
 3653TIP3    H132518   4.615   6.023   8.441  0.3598  0.6561 -0.8564
 3653TIP3    H232519   4.506   6.121   8.480 -0.4119 -0.8010  0.8319
 3654TIP3   OH232520   4.900   2.932   0.681  0.8719 -0.3044 -0.9015
 3654TIP3    H132521   4.984   2.919   0.725  0.3215 -0.1503  0.2458
 3654TIP3    H232522   4.839   2.951   0.752 -0.6716 -2.9018 -1.3907
 3655TIP3   OH232523   3.710   1.564   1.300 -0.5271  0.0367 -0.7680
 3655TIP3    H132524   3.618   1.552   1.325 -0.5900  0.8083 -0.5741
 3655TIP3    H232525   3.713   1.653   1.263  0.3648  0.5233  0.3858
 3656TIP3   OH232526   6.330   2.771   7.442  0.1478 -0.1683  0.7579
 3656TIP3    H132527   6.322   2.819   7.524 -0.4349  3.0736 -1.0282
 3656TIP3    H232528   6.243   2.735   7.427 -0.2287  0.7219  0.7467
 3657TIP3   OH232529   2.459   1.471   1.234 -0.0455  0.7214 -0.0343
 3657TIP3    H132530   2.436   1.436   1.148 -2.3340  0.7420  0.5159
 3657TIP3    H232531   2.397   1.430   1.294  0.7791  1.5635  1.4494
 3658TIP3   OH232532   1.002   4.974   7.523  0.0475 -0.0053  0.0697
 3658TIP3    H132533   1.054   5.026   7.584 -2.4004  0.8396  1.6020
 3658TIP3    H232534   0.958   4.910   7.579 -1.1179 -0.1946 -1.0230
 3659TIP3   OH232535   1.910   3.877   7.528  0.6282  0.3942  0.0126
 3659TIP3    H132536   1.887   3.840   7.443  1.6501  1.0793 -0.5962
 3659TIP3    H232537   2.005   3.889   7.523  1.1232 -1.9446  2.2178
 3660TIP3   OH232538   0.025   5.730   6.734  0.0037  0.3763 -0.0693
 3660TIP3    H132539  -0.057   5.681   6.726  0.2138 -0.1644  0.9461
 3660TIP3    H232540   0.092   5.671   6.700 -0.2303  1.5877 -2.8751
 3661TIP3   OH232541   3.298   2.918   0.925 -0.3026  0.0298 -0.5907
 3661TIP3    H132542   3.240   2.952   0.993  0.5827  3.2384 -1.2524
 3661TIP3    H232543   3.384   2.911   0.968 -0.6595 -2.6691 -0.1729
 3662TIP3   OH232544   3.419   1.082   8.475 -0.4980  0.8234  0.2426
 3662TIP3    H132545   3.381   1.075   8.387 -2.2715  3.3824  0.7074
 3662TIP3    H232546   3.347   1.059   8.534  0.1368  0.9429  1.0808
 3663TIP3   OH232547   1.640   0.003   7.317 -0.2270  0.3517 -0.8940
 3663TIP3    H132548   1.563   0.059   7.322 -0.7040 -0.3652  3.2361
 3663TIP3    H232549   1.714   0.064   7.317 -0.7682  1.2481  2.4645
 3664TIP3   OH232550   3.198   4.343   1.223 -0.3178 -0.6395  0.5451
 3664TIP3    H132551   3.109   4.364   1.251 -0.4362 -1.6117  0.9626
 3664TIP3    H232552   3.231   4.284   1.291  1.0135  0.4903  0.9154
 3665TIP3   OH232553   4.018   5.690   6.921 -0.0056  0.5255 -0.1266
 3665TIP3    H132554   3.954   5.670   6.989 -1.6262  0.2719 -1.6491
 3665TIP3    H232555   4.093   5.727   6.968 -1.1704  0.6060  1.7509
 3666TIP3   OH232556   6.032   6.756   7.504  0.2416 -0.1160 -0.6877
 3666TIP3    H132557   6.103   6.788   7.560 -0.9452  0.2707  0.6502
 3666TIP3    H232558   5.961   6.735   7.565 -0.7246 -0.6874 -1.9720
 3667TIP3   OH232559   6.137   1.803   8.627  0.5176  0.3850 -0.3715
 3667TIP3    H132560   6.078   1.846   8.564  0.7558 -0.1851 -0.9962
 3667TIP3    H232561   6.105   1.713   8.631 -0.6647  0.8286  1.7530
 3668TIP3   OH232562   1.924   6.000   7.823 -1.0113 -0.6486 -0.2926
 3668TIP3    H132563   1.836   5.967   7.844 -1.1906  0.8100  1.5014
 3668TIP3    H232564   1.931   6.082   7.872  1.1799 -0.4648 -0.8168
 3669TIP3   OH232565   0.382   4.039   0.961 -0.8020  0.3015 -0.0120
 3669TIP3    H132566   0.452   4.099   0.988 -0.6255  0.1727 -0.1743
 3669TIP3    H232567   0.367   3.983   1.037  0.1769 -0.5140 -0.3938
 3670TIP3   OH232568   0.492   3.508   7.761  0.6009  0.2462 -0.3930
 3670TIP3    H132569   0.544   3.445   7.810  0.2416  0.0508 -0.2610
 3670TIP3    H232570   0.532   3.593   7.782 -0.3793  0.3387  1.3658
 3671TIP3   OH232571   1.713   4.658   8.706  0.6169 -0.0856 -0.0100
 3671TIP3    H132572   1.729   4.572   8.667  0.1139  0.5706 -1.7277
 3671TIP3    H232573   1.624   4.653   8.739  0.8806 -0.4905  0.6588
 3672TIP3   OH232574   4.340   4.497   1.772  0.0189 -0.4422  0.1696
 3672TIP3    H132575   4.389   4.469   1.695 -0.2293 -0.5451  0.0461
 3672TIP3    H232576   4.259   4.535   1.736 -1.4684 -3.1082  0.4399
 3673TIP3   OH232577   0.735   4.877   1.516  0.2035 -0.4058  0.2625
 3673TIP3    H132578   0.794   4.815   1.560  0.9121  0.3706  0.4197
 3673TIP3    H232579   0.726   4.950   1.577  1.0549  0.6050 -0.7696
 3674TIP3   OH232580   5.066   0.752   0.788  0.0697  0.0176  0.0886
 3674TIP3    H132581   4.986   0.801   0.768  0.8689  1.0250 -0.7888
 3674TIP3    H232582   5.081   0.768   0.881  0.5715  1.9234 -0.2746
 3675TIP3   OH232583   1.994   3.248   0.815  0.9414 -0.2198 -0.0420
 3675TIP3    H132584   2.034   3.312   0.757  1.0588  0.3089  0.6057
 3675TIP3    H232585   2.044   3.168   0.799  0.3786 -0.3380 -1.3195
 3676TIP3   OH232586   1.110   1.924   8.626  0.2527  0.3039 -0.4463
 3676TIP3    H132587   1.135   2.015   8.642  2.0610  0.2785 -2.5859
 3676TIP3    H232588   1.136   1.908   8.535 -1.3225 -1.9545 -0.5861
 3677TIP3   OH232589   0.338   5.980   7.985  0.4344 -0.1857  0.5486
 3677TIP3    H132590   0.380   5.897   7.960  1.9052  0.2073  1.5973
 3677TIP3    H232591   0.275   5.997   7.915  2.2087 -0.6805 -1.2373
 3678TIP3   OH232592   5.097   0.997   7.550 -0.2032  0.1844  0.3646
 3678TIP3    H132593   5.144   0.935   7.606  0.6409  0.5855  0.1166
 3678TIP3    H232594   5.058   0.943   7.482  1.9594  0.0291 -0.8584
 3679TIP3   OH232595   3.513   0.290   6.174 -0.2843  0.2783  0.2036
 3679TIP3    H132596   3.570   0.229   6.127 -1.6918 -0.7951 -0.1610
 3679TIP3    H232597   3.508   0.254   6.263 -0.0688  0.6077  0.3514
 3680TIP3   OH232598   2.937   3.391   7.826  0.6555  0.1638 -0.2195
 3680TIP3    H132599   2.869   3.351   7.880  0.5223  1.4763  0.6235
 3680TIP3    H232600   3.017   3.382   7.877  0.2903  2.6733  0.9517
 3681TIP3   OH232601   3.533   0.328   7.762 -0.4987 -0.1233  0.2143
 3681TIP3    H132602   3.621   0.293   7.776 -0.7822 -2.4357 -2.6962
 3681TIP3    H232603   3.545   0.423   7.757  1.4673 -0.2309  1.7376
 3682TIP3   OH232604   2.899   3.590   0.130  0.2219  0.5730  0.0182
 3682TIP3    H132605   2.894   3.554   0.042 -4.4531 -0.1049  0.2884
 3682TIP3    H232606   2.923   3.515   0.185 -1.3856 -0.1973 -0.2771
 3683TIP3   OH232607   0.065   0.580   1.162 -0.1071 -0.1049  0.3023
 3683TIP3    H132608  -0.017   0.531   1.156 -1.0093  1.2175  1.1659
 3683TIP3    H232609   0.088   0.600   1.071 -0.9561 -0.1416  0.0701
 3684TIP3   OH232610   2.471   4.685   7.033 -0.3214  0.2600 -0.0458
 3684TIP3    H132611   2.546   4.708   7.088 -0.4920 -1.5646  1.0361
 3684TIP3    H232612   2.395   4.710   7.085 -0.4744 -0.6484  0.1847
 3685TIP3   OH232613   2.498   2.593   2.241  0.3405  0.5083  0.1360
 3685TIP3    H132614   2.424   2.621   2.187  0.2939  0.1213 -0.0066
 3685TIP3    H232615   2.465   2.517   2.289  0.8654 -0.1176 -0.4711
 3686TIP3   OH232616   5.154   3.611   1.066 -0.5897  0.2572  0.3872
 3686TIP3    H132617   5.134   3.623   1.159 -3.3088  0.7222 -0.1762
 3686TIP3    H232618   5.079   3.563   1.031 -0.7030  1.9977 -1.9863
 3687TIP3   OH232619   0.853   0.392   2.284  0.1355 -0.6808 -0.4854
 3687TIP3    H132620   0.897   0.459   2.337  0.9311  0.5073 -2.5286
 3687TIP3    H232621   0.786   0.440   2.235  1.0509 -1.2047 -2.3631
 3688TIP3   OH232622   6.315   5.016   1.437  0.1471  0.8580  0.5506
 3688TIP3    H132623   6.386   5.038   1.376 -0.2310  4.6143  1.2084
 3688TIP3    H232624   6.359   4.975   1.511  0.8767 -1.7398 -1.1994
 3689TIP3   OH232625   2.331   5.945   0.068  0.3929 -0.0868 -0.0911
 3689TIP3    H132626   2.420   5.926   0.038  0.5433 -0.6676  0.7075
 3689TIP3    H232627   2.291   5.990  -0.006  1.7004  1.2209 -0.0489
 3690TIP3   OH232628   5.907   5.133   0.242  0.2202 -0.4194  0.0327
 3690TIP3    H132629   5.863   5.112   0.160 -2.5665 -0.7692  1.4903
 3690TIP3    H232630   5.938   5.048   0.275  0.4571 -0.4146 -0.1749
 3691TIP3   OH232631   3.454   4.048   8.839  0.0668 -0.1313 -0.1012
 3691TIP3    H132632   3.370   4.003   8.830  0.1710 -0.2148 -0.7236
 3691TIP3    H232633   3.512   3.983   8.878 -0.2442  0.0360  0.6461
 3692TIP3   OH232634   1.974   1.719   7.325  0.3808 -0.0790 -0.1794
 3692TIP3    H132635   1.946   1.657   7.392  0.8049  1.1608  1.2150
 3692TIP3    H232636   2.017   1.665   7.259 -1.5510 -1.5380 -0.3414
 3693TIP3   OH232637   4.182   2.350   0.246 -0.2450  0.0055  0.3316
 3693TIP3    H132638   4.088   2.368   0.248 -0.4148 -0.5384 -1.2910
 3693TIP3    H232639   4.202   2.316   0.333 -2.0138 -2.0656  0.0063
 3694TIP3   OH232640   5.800   4.982   0.014  0.3087 -0.8183 -0.1024
 3694TIP3    H132641   5.880   4.939  -0.015  0.0969 -0.3269 -1.4824
 3694TIP3    H232642   5.745   4.987  -0.065 -0.5668 -0.0297  0.5307
 3695TIP3   OH232643   2.286   0.045   6.934 -0.7066  0.5260  0.4839
 3695TIP3    H132644   2.197   0.079   6.920 -1.5567 -2.5066 -2.7479
 3695TIP3    H232645   2.320   0.029   6.846  1.4952 -2.0408  1.6666
 3696TIP3   OH232646   0.756   0.154   1.063  0.3561  0.0567  0.1352
 3696TIP3    H132647   0.805   0.121   1.137  0.6369 -0.3212 -0.2165
 3696TIP3    H232648   0.818   0.210   1.016  0.3386 -0.1251 -0.1053
 3697TIP3   OH232649   4.531   3.202   0.814  0.5127  0.9003 -0.4660
 3697TIP3    H132650   4.439   3.208   0.789  0.1816 -0.0695  0.4693
 3697TIP3    H232651   4.577   3.189   0.731 -0.2817  0.4235 -0.8467
 3698TIP3   OH232652   1.629   5.793   1.477 -0.0422 -0.3719  0.0079
 3698TIP3    H132653   1.592   5.791   1.389  3.1690  1.3918 -1.5976
 3698TIP3    H232654   1.594   5.873   1.516  0.1418 -0.0236 -0.5280
 3699TIP3   OH232655   5.866   6.282   6.438  0.2631 -0.4456 -0.2279
 3699TIP3    H132656   5.909   6.204   6.473 -1.1980 -0.8342  0.8334
 3699TIP3    H232657   5.937   6.338   6.407  1.4151 -1.6522  0.1500
 3700TIP3   OH232658   3.759   4.979   7.655  0.0474  0.9902  0.7251
 3700TIP3    H132659   3.705   5.057   7.645 -2.0031 -0.3532  0.7646
 3700TIP3    H232660   3.762   4.941   7.567 -1.4110 -0.3862  1.2368
 3701TIP3   OH232661   6.401   0.378   1.794 -0.3267 -0.5871 -0.0168
 3701TIP3    H132662   6.392   0.302   1.852  0.8632  0.1293  1.1663
 3701TIP3    H232663   6.472   0.429   1.833  0.7633 -0.2281 -2.2984
 3702TIP3   OH232664   6.000   3.160   0.476  0.7578 -0.7356 -0.0750
 3702TIP3    H132665   5.951   3.096   0.527 -1.5864 -0.0106 -1.2757
 3702TIP3    H232666   6.011   3.235   0.535 -0.7242 -0.4260 -0.1687
 3703TIP3   OH232667   3.130   5.318   0.421  0.8018  0.1698 -0.3335
 3703TIP3    H132668   3.116   5.248   0.485  0.1039 -0.4448 -1.1356
 3703TIP3    H232669   3.094   5.396   0.462  1.3768  0.0260  0.4786
 3704TIP3   OH232670   4.511   1.523   0.526 -0.2456  0.0318 -0.1370
 3704TIP3    H132671   4.424   1.483   0.531 -0.4655  0.4621 -0.4293
 3704TIP3    H232672   4.571   1.449   0.521 -0.6702 -0.2692 -1.0880
 3705TIP3   OH232673   2.973   5.709   2.528 -0.1673 -0.2683 -0.1832
 3705TIP3    H132674   3.003   5.744   2.444 -0.0738  0.7465  0.2508
 3705TIP3    H232675   2.886   5.674   2.509  0.4108 -1.3162 -0.9922
 3706TIP3   OH232676   6.744   5.767   7.292  0.5532  0.2914 -0.0191
 3706TIP3    H132677   6.749   5.857   7.261  0.0682  0.0418 -0.8793
 3706TIP3    H232678   6.828   5.728   7.266  1.5700  0.9746  2.0534
 3707TIP3   OH232679   5.326   3.346   0.409 -0.1761  0.5751 -0.4969
 3707TIP3    H132680   5.283   3.375   0.490 -0.7018 -1.9464  0.2518
 3707TIP3    H232681   5.253   3.329   0.349  0.1077  0.9988 -0.9573
 3708TIP3   OH232682   1.448   0.201   0.682  0.2778  0.0926 -0.0341
 3708TIP3    H132683   1.524   0.189   0.625 -0.6710  0.0693 -1.3451
 3708TIP3    H232684   1.388   0.254   0.630 -1.8781 -2.4267 -0.2983
 3709TIP3   OH232685   0.736   0.998   0.905 -0.3767 -0.0331 -0.2423
 3709TIP3    H132686   0.684   1.078   0.896 -1.7130 -0.9014 -0.4627
 3709TIP3    H232687   0.672   0.928   0.911  0.7801 -1.1688 -0.6757
 3710TIP3   OH232688   2.444   4.990   1.343 -0.4898  0.1241  0.2201
 3710TIP3    H132689   2.464   5.084   1.341 -1.4728  0.4282  2.2723
 3710TIP3    H232690   2.386   4.979   1.418  0.2468 -2.2650  0.5291
 3711TIP3   OH232691   3.222   1.100   7.633  0.4215 -0.0276 -0.4707
 3711TIP3    H132692   3.287   1.136   7.572  1.5365  0.3436  0.8904
 3711TIP3    H232693   3.219   1.007   7.612  1.7398 -0.1370 -0.2933
 3712TIP3   OH232694   0.469   4.416   0.668 -0.4100 -0.0770  0.3298
 3712TIP3    H132695   0.516   4.455   0.742 -0.5200 -0.4925  0.6198
 3712TIP3    H232696   0.420   4.489   0.630 -1.0306 -0.0276  1.1892
 3713TIP3   OH232697   4.693   0.389   8.109 -1.2179  0.0179  0.2455
 3713TIP3    H132698   4.690   0.305   8.064  0.4485  0.6408 -1.1640
 3713TIP3    H232699   4.782   0.421   8.093 -1.8047  2.0413  0.7450
 3714TIP3   OH232700   0.240   6.630   6.703 -0.2947  0.7385  0.4883
 3714TIP3    H132701   0.297   6.557   6.680  0.6090  1.6482 -0.2434
 3714TIP3    H232702   0.221   6.618   6.796 -1.1451 -1.0689  0.1214
 3715TIP3   OH232703   1.000   3.038   7.350  0.6054 -0.7339  0.0655
 3715TIP3    H132704   1.020   2.968   7.413 -0.4186 -0.0600  1.1810
 3715TIP3    H232705   0.905   3.042   7.347  0.6422 -0.2490 -0.9879
 3716TIP3   OH232706   2.911   1.551   0.763  0.3665  0.0666  0.4783
 3716TIP3    H132707   2.826   1.556   0.808  0.7270  1.2308  1.0501
 3716TIP3    H232708   2.928   1.457   0.756  0.1879 -0.1751  2.5786
 3717TIP3   OH232709   1.973   2.052   1.108  0.1627 -0.0282  0.1197
 3717TIP3    H132710   1.881   2.062   1.081  0.5160  0.1345 -1.1074
 3717TIP3    H232711   1.979   1.961   1.138 -0.2373 -0.2714 -0.5125
 3718TIP3   OH232712   4.602   2.920   1.745  0.1167 -0.3422  0.2333
 3718TIP3    H132713   4.590   2.927   1.650  0.0487  0.2070  0.2749
 3718TIP3    H232714   4.513   2.925   1.780  0.1225 -0.8076  0.3113
 3719TIP3   OH232715   3.645   4.405   6.942  0.4690  0.3293 -0.2875
 3719TIP3    H132716   3.618   4.462   6.870 -0.6034 -0.3861 -0.4737
 3719TIP3    H232717   3.631   4.459   7.021 -1.0883  0.1501 -0.4193
 3720TIP3   OH232718   0.924   0.320   6.586  0.3105  0.6364  0.0553
 3720TIP3    H132719   0.978   0.248   6.552 -1.5996 -0.5313 -0.6441
 3720TIP3    H232720   0.939   0.392   6.524 -0.4515 -0.3443 -1.3486
 3721TIP3   OH232721   3.398   3.517   0.520  0.4304  0.1076  0.2530
 3721TIP3    H132722   3.335   3.581   0.483  0.1207 -0.0844  0.4426
 3721TIP3    H232723   3.483   3.545   0.486 -0.0093 -1.0021 -1.9553
 3722TIP3   OH232724   1.667   2.465   1.762 -0.3388 -0.4416 -0.0284
 3722TIP3    H132725   1.758   2.486   1.784 -1.1248  1.2900  1.7551
 3722TIP3    H232726   1.615   2.503   1.832 -2.3256 -3.8624  0.5898
 3723TIP3   OH232727   2.422   5.458   0.840  0.0629 -0.6463 -0.0073
 3723TIP3    H132728   2.384   5.375   0.811  0.3891 -0.7756 -0.0694
 3723TIP3    H232729   2.347   5.513   0.859 -0.1736 -1.2455  0.8806
 3724TIP3   OH232730   2.832   5.412   8.631  0.2187 -0.3349 -0.0580
 3724TIP3    H132731   2.753   5.391   8.682  0.4348 -0.0632  0.3960
 3724TIP3    H232732   2.799   5.464   8.557 -0.1296 -0.9629 -0.3556
 3725TIP3   OH232733   3.129   3.375   1.310  0.0757 -0.3381 -0.0332
 3725TIP3    H132734   3.127   3.438   1.382  1.0359  0.1315 -0.3977
 3725TIP3    H232735   3.174   3.299   1.347 -0.0627 -0.3674  0.0746
 3726TIP3   OH232736   0.115   1.488   6.786 -0.0793  0.4820 -0.0639
 3726TIP3    H132737   0.040   1.429   6.782  0.1982  0.1356 -0.3322
 3726TIP3    H232738   0.093   1.558   6.724 -0.1534  0.3462 -0.1941
 3727TIP3   OH232739   2.691   2.991   0.210 -0.0668 -0.2361 -0.9378
 3727TIP3    H132740   2.694   3.086   0.201  0.9859 -0.1144  0.3591
 3727TIP3    H232741   2.610   2.974   0.258 -0.7347 -0.0917 -1.9901
 3728TIP3   OH232742   6.171   1.886   2.598 -0.3058 -0.4179 -0.3206
 3728TIP3    H132743   6.127   1.819   2.545 -0.3908 -0.5905 -0.0325
 3728TIP3    H232744   6.173   1.963   2.542  0.8204 -0.9850 -1.0966
 3729TIP3   OH232745   0.114   6.679   6.942 -0.0234 -0.0168  0.1371
 3729TIP3    H132746   0.055   6.637   7.004 -2.8424 -0.2529 -2.4946
 3729TIP3    H232747   0.058   6.737   6.890  2.6622  2.2508 -0.4845
 3730TIP3   OH232748   4.784   4.987   1.592  0.6631 -0.6068 -0.0460
 3730TIP3    H132749   4.731   4.912   1.617  1.1664 -1.2510 -0.8250
 3730TIP3    H232750   4.795   5.038   1.672 -1.2193 -0.3773  0.0963
 3731TIP3   OH232751   6.542   3.963   0.254 -0.6995 -0.5151 -0.4785
 3731TIP3    H132752   6.500   3.882   0.227 -0.5107 -0.0570 -2.2841
 3731TIP3    H232753   6.472   4.028   0.252 -1.1800 -0.8154  2.3283
 3732TIP3   OH232754   1.666   6.755   1.543  0.0948  0.0434 -0.1059
 3732TIP3    H132755   1.684   6.832   1.597  2.5907 -1.2470  1.0895
 3732TIP3    H232756   1.606   6.703   1.596 -0.0586  0.2877 -0.0389
 3733TIP3   OH232757   5.165   3.084   7.253  0.0349 -0.6098 -0.2210
 3733TIP3    H132758   5.168   3.172   7.214 -2.5349 -0.3898 -0.0401
 3733TIP3    H232759   5.257   3.063   7.268  0.8699  1.1848 -2.1557
 3734TIP3   OH232760   3.079   5.577   7.037  0.3828  0.0161  0.8514
 3734TIP3    H132761   3.014   5.641   7.009  0.8908  0.6386  1.0633
 3734TIP3    H232762   3.029   5.497   7.055 -0.0098 -0.2816 -1.3687
 3735TIP3   OH232763   3.919   0.347   6.648  0.0020  0.1490  0.1583
 3735TIP3    H132764   3.977   0.271   6.645 -1.7374 -1.2469 -1.6625
 3735TIP3    H232765   3.930   0.388   6.562 -1.8325 -0.3530 -0.3743
 3736TIP3   OH232766   3.674   0.063   2.472 -0.5226 -0.1321 -0.0930
 3736TIP3    H132767   3.674   0.084   2.378  1.1137 -1.0240 -0.3161
 3736TIP3    H232768   3.703   0.144   2.514 -2.7533  0.7802 -0.1796
 3737TIP3   OH232769   4.072   5.638   7.190 -0.3108  0.6238 -0.3295
 3737TIP3    H132770   4.035   5.587   7.262  1.2455  1.5310  1.1911
 3737TIP3    H232771   4.140   5.582   7.152  0.2509  0.9178  0.2393
 3738TIP3   OH232772   3.141   3.571   7.673 -0.1021 -0.4486  0.4824
 3738TIP3    H132773   3.066   3.511   7.679 -1.9332  1.5875 -0.6883
 3738TIP3    H232774   3.165   3.569   7.580  0.3193  0.0597  0.5795
 3739TIP3   OH232775   3.513   5.659   1.962 -0.7252  0.7042  0.0574
 3739TIP3    H132776   3.442   5.697   1.912 -0.8173 -0.8401 -1.0516
 3739TIP3    H232777   3.483   5.570   1.982  1.3474 -0.4494 -1.5435
 3740TIP3   OH232778   2.168   3.039   6.567  0.3844 -0.3546  0.4088
 3740TIP3    H132779   2.156   3.030   6.662  0.1206  0.7854  0.4938
 3740TIP3    H232780   2.171   3.133   6.552 -0.8551 -0.4883 -0.8795
 3741TIP3   OH232781   3.874   2.114   0.849 -0.1893 -0.0326 -0.4309
 3741TIP3    H132782   3.957   2.090   0.808 -0.0279 -2.8161  1.2591
 3741TIP3    H232783   3.808   2.067   0.799 -0.7077  1.4350 -1.1884
 3742TIP3   OH232784   4.610   2.076   6.925  0.1265  0.1423  0.1787
 3742TIP3    H132785   4.589   2.166   6.902 -0.6012  0.3646  1.5836
 3742TIP3    H232786   4.567   2.023   6.857  0.5527  0.8381 -0.6493
 3743TIP3   OH232787   3.399   3.339   0.960 -0.1333  0.3640 -0.3320
 3743TIP3    H132788   3.442   3.403   0.903  0.5909 -0.5089 -0.7734
 3743TIP3    H232789   3.317   3.382   0.986  0.0324  1.2057 -1.1516
 3744TIP3   OH232790   3.206   0.204   0.788 -0.5103 -0.4034  0.3655
 3744TIP3    H132791   3.237   0.113   0.782 -0.0334 -0.3652  1.9830
 3744TIP3    H232792   3.111   0.196   0.793 -0.4477 -0.8586  1.0052
 3745TIP3   OH232793   6.044   2.988   6.706  0.5201  0.3145  0.1159
 3745TIP3    H132794   6.023   2.897   6.684  0.1170  0.2557  0.7156
 3745TIP3    H232795   5.959   3.031   6.708  0.4660  0.1731  2.1819
 3746TIP3   OH232796   1.946   2.478   1.774  0.6025 -0.5287 -0.0595
 3746TIP3    H132797   1.996   2.551   1.811 -0.9806  0.6973 -0.1948
 3746TIP3    H232798   1.998   2.401   1.792  0.8715  0.2355  2.9650
 3747TIP3   OH232799   2.399   5.533   7.264  0.4014 -0.2979  0.4030
 3747TIP3    H132800   2.330   5.582   7.218 -1.3421 -2.0837  0.9605
 3747TIP3    H232801   2.365   5.520   7.352  0.7702 -2.4512  0.2871
 3748TIP3   OH232802   6.152   4.768   7.099  0.1343 -0.3894  0.0381
 3748TIP3    H132803   6.240   4.770   7.061 -0.1252  1.9881 -0.5927
 3748TIP3    H232804   6.134   4.675   7.113  1.7109 -1.1221 -2.2661
 3749TIP3   OH232805   0.554   5.716   7.408  0.3700 -0.8045  0.2255
 3749TIP3    H132806   0.462   5.729   7.383 -0.1963 -0.4816  2.2328
 3749TIP3    H232807   0.588   5.805   7.417  0.7272 -0.9184 -0.0096
 3750TIP3   OH232808   5.988   0.935   7.694  0.4420 -0.2754 -0.0620
 3750TIP3    H132809   5.977   0.842   7.715  0.3840 -0.4726 -0.9275
 3750TIP3    H232810   5.958   0.981   7.772  0.2234 -0.9811  0.2779
 3751TIP3   OH232811   3.608   4.137   8.341 -0.4554  0.0164  0.2943
 3751TIP3    H132812   3.561   4.202   8.393 -1.4708 -0.6725  0.2676
 3751TIP3    H232813   3.547   4.112   8.272  0.2897 -0.2426 -0.2872
 3752TIP3   OH232814   1.723   4.148   1.833 -0.2786 -0.5426  0.1521
 3752TIP3    H132815   1.690   4.231   1.797 -0.6059 -0.6825  0.1236
 3752TIP3    H232816   1.644   4.097   1.852 -0.1123 -0.4683  1.0921
 3753TIP3   OH232817   1.254   0.112   7.900  0.0712  0.3329  0.0927
 3753TIP3    H132818   1.266   0.019   7.918 -0.2689  0.1237 -0.7041
 3753TIP3    H232819   1.180   0.138   7.955 -1.0441 -0.3251 -1.0384
 3754TIP3   OH232820   1.318   4.943   7.937 -0.0903  0.2919 -0.2276
 3754TIP3    H132821   1.263   4.899   7.871  1.5226 -0.5819 -1.0654
 3754TIP3    H232822   1.408   4.921   7.911  0.6276 -0.0343  2.2461
 3755TIP3   OH232823   4.463   0.239   0.157 -0.0482  0.0797 -0.1420
 3755TIP3    H132824   4.537   0.202   0.109  0.0750  0.0302  0.0870
 3755TIP3    H232825   4.403   0.165   0.168 -0.1413  0.1242 -0.3441
 3756TIP3   OH232826   6.231   4.105   7.700  0.1673 -0.2784  0.7693
 3756TIP3    H132827   6.271   4.032   7.748  0.5722 -0.3324  0.3535
 3756TIP3    H232828   6.304   4.161   7.675 -0.1003  0.0450  0.7039
 3757TIP3   OH232829   5.181   5.411   7.344 -0.1060 -0.0894  0.1638
 3757TIP3    H132830   5.186   5.500   7.378  1.4871 -0.1596  0.1636
 3757TIP3    H232831   5.164   5.421   7.250  0.6872  0.2320  0.0538
 3758TIP3   OH232832   5.758   4.878   0.896 -0.2374 -0.0884 -0.4792
 3758TIP3    H132833   5.672   4.905   0.863  0.1397  0.0133 -1.4294
 3758TIP3    H232834   5.785   4.949   0.953 -1.1496 -0.5188  0.5280
 3759TIP3   OH232835   1.402   5.687   1.288  0.5788  0.9666 -0.1838
 3759TIP3    H132836   1.352   5.725   1.215  0.1390  0.8794  0.0644
 3759TIP3    H232837   1.368   5.733   1.365 -0.1723 -0.1403  0.1571
 3760TIP3   OH232838   4.647   0.157   6.763  0.0878  0.5438 -0.2990
 3760TIP3    H132839   4.586   0.094   6.802 -1.2767  1.6371 -0.5945
 3760TIP3    H232840   4.729   0.108   6.753  0.0135 -0.3087  2.2982
 3761TIP3   OH232841   2.665   1.902   7.604  0.0266  0.1911 -0.6049
 3761TIP3    H132842   2.604   1.903   7.678 -0.0560 -0.5210 -0.6577
 3761TIP3    H232843   2.729   1.970   7.625 -0.7729  0.9281 -0.5420
 3762TIP3   OH232844   3.236   0.677   0.746  0.6705 -0.0871 -0.1261
 3762TIP3    H132845   3.294   0.750   0.766 -1.5076  1.5179  0.7928
 3762TIP3    H232846   3.214   0.689   0.654  0.2132  0.5286  0.0560
 3763TIP3   OH232847   4.955   0.371   6.706  0.1679  0.2731  0.4590
 3763TIP3    H132848   4.903   0.351   6.628  0.3202 -1.1667  0.6897
 3763TIP3    H232849   5.039   0.327   6.691  0.4126  0.4834  1.1626
 3764TIP3   OH232850   5.648   4.682   7.172  0.0938 -0.3720 -0.2685
 3764TIP3    H132851   5.649   4.696   7.077 -0.1834 -0.6670 -0.3160
 3764TIP3    H232852   5.557   4.661   7.193  0.4162 -1.7845 -0.1614
 3765TIP3   OH232853   1.479   3.492   0.906 -0.2862  0.1059 -1.2332
 3765TIP3    H132854   1.557   3.501   0.851 -0.7822 -1.3594 -2.2476
 3765TIP3    H232855   1.500   3.419   0.965  0.4805  2.0397  1.0368
 3766TIP3   OH232856   6.547   4.028   2.133 -0.9449 -0.3044 -0.3420
 3766TIP3    H132857   6.568   3.935   2.126  0.0244 -0.1572  0.4969
 3766TIP3    H232858   6.452   4.030   2.143 -1.2914 -1.0510 -2.8684
 3767TIP3   OH232859   5.849   0.487   7.316  0.0385  0.3540 -0.0516
 3767TIP3    H132860   5.837   0.578   7.287 -2.2676  0.4841  1.0838
 3767TIP3    H232861   5.844   0.491   7.411  2.2348 -0.7203  0.1489
 3768TIP3   OH232862   1.096   2.260   6.481  0.0931  0.0687  0.5524
 3768TIP3    H132863   1.079   2.353   6.499  0.6143  0.5092 -1.1126
 3768TIP3    H232864   1.067   2.215   6.561 -0.6742  1.5991  1.1796
 3769TIP3   OH232865   4.522   5.059   7.598  0.1573 -0.3216 -0.3413
 3769TIP3    H132866   4.526   5.154   7.601  0.1666 -0.3526  1.3880
 3769TIP3    H232867   4.430   5.038   7.616  0.0410 -0.6418 -1.2425
 3770TIP3   OH232868   2.820   2.480   1.482 -0.5246 -0.3341 -0.0930
 3770TIP3    H132869   2.778   2.416   1.540  1.5312 -1.1035  0.6428
 3770TIP3    H232870   2.776   2.468   1.398 -3.1791  0.3940  1.0893
 3771TIP3   OH232871   0.011   4.783   6.242  0.2100  0.3538  0.1391
 3771TIP3    H132872   0.080   4.849   6.244 -0.8831  1.6276 -1.4002
 3771TIP3    H232873  -0.033   4.792   6.326 -0.8396  2.7112 -0.5739
 3772TIP3   OH232874   5.766   5.933   1.689 -0.5401 -0.2612 -0.0801
 3772TIP3    H132875   5.712   5.853   1.688  0.9250 -1.2868 -0.2792
 3772TIP3    H232876   5.848   5.907   1.647 -0.5603  1.7706 -1.4924
 3773TIP3   OH232877   4.772   3.964   7.774  0.4902 -0.2137 -0.0043
 3773TIP3    H132878   4.762   4.050   7.733 -0.4354 -0.2743  0.0557
 3773TIP3    H232879   4.720   3.905   7.719  1.2993 -0.7779 -0.1686
 3774TIP3   OH232880   4.600   3.113   8.435  0.3159  0.8393  0.2342
 3774TIP3    H132881   4.533   3.044   8.434  0.8457  0.3181 -0.6681
 3774TIP3    H232882   4.561   3.184   8.487 -0.2023 -0.1610  1.2532
 3775TIP3   OH232883   4.791   1.583   8.241  0.7672 -0.5698  0.2535
 3775TIP3    H132884   4.884   1.569   8.262  0.3715 -1.6103  1.3774
 3775TIP3    H232885   4.746   1.509   8.281 -0.6831  0.4964  0.6491
 3776TIP3   OH232886   5.592   0.976   0.831  0.2118 -0.0051 -0.1998
 3776TIP3    H132887   5.600   0.897   0.885  0.4597 -1.3539 -2.1180
 3776TIP3    H232888   5.506   0.968   0.789 -0.2154  1.2996  0.3802
 3777TIP3   OH232889   6.019   5.679   7.931 -0.3011  0.4713 -0.5458
 3777TIP3    H132890   6.056   5.766   7.947 -0.8258  0.8112 -1.1227
 3777TIP3    H232891   6.021   5.669   7.836 -0.3062 -0.1207 -0.4876
 3778TIP3   OH232892   3.906   4.171   1.787 -0.3820  0.3926 -0.5071
 3778TIP3    H132893   3.949   4.170   1.872 -2.5372  0.0681  0.6375
 3778TIP3    H232894   3.977   4.185   1.724  1.2781  0.4564  1.3096
 3779TIP3   OH232895   5.112   5.836   6.442 -0.8906 -0.2264 -0.1653
 3779TIP3    H132896   5.130   5.742   6.446 -0.2729 -0.1088 -0.1228
 3779TIP3    H232897   5.134   5.861   6.352 -1.0614 -0.1253 -0.1789
 3780TIP3   OH232898   4.299   4.074   7.674  0.1519  0.1466 -0.2756
 3780TIP3    H132899   4.312   4.058   7.767 -1.9693 -0.3537 -0.0116
 3780TIP3    H232900   4.332   3.995   7.631 -0.5609 -0.4331  0.2148
 3781TIP3   OH232901   4.872   4.541   8.515  0.5526  0.1365 -0.4145
 3781TIP3    H132902   4.911   4.548   8.428 -0.5408 -1.6105 -1.0986
 3781TIP3    H232903   4.943   4.509   8.571  0.8644 -0.1904 -0.9877
 3782TIP3   OH232904   0.241   1.780   2.213 -0.0568 -0.0981 -0.3898
 3782TIP3    H132905   0.178   1.843   2.179 -0.5706  0.2850  1.1785
 3782TIP3    H232906   0.223   1.776   2.307  1.7706 -0.5223 -0.0026
 3783TIP3   OH232907   4.108   3.542   7.497 -0.4602  0.4081  0.3103
 3783TIP3    H132908   4.161   3.462   7.501 -2.0136 -1.0119 -3.1316
 3783TIP3    H232909   4.146   3.592   7.425 -1.0332  1.5938  0.8152
 3784TIP3   OH232910   3.947   4.563   7.141 -0.1042  0.3633  0.0977
 3784TIP3    H132911   3.982   4.560   7.230 -0.5316  0.0033  0.2607
 3784TIP3    H232912   3.852   4.561   7.153 -0.3823  4.3063 -0.1833
 3785TIP3   OH232913   2.088   2.860   1.294 -0.2815 -0.2131  0.6924
 3785TIP3    H132914   2.098   2.942   1.342 -0.3100  0.0222  0.2971
 3785TIP3    H232915   2.092   2.793   1.362 -1.2937  0.1691  1.1563
 3786TIP3   OH232916   1.060   2.780   8.256 -0.3430 -0.0111 -0.1876
 3786TIP3    H132917   1.008   2.850   8.295  0.6745  0.3199  0.6358
 3786TIP3    H232918   1.146   2.819   8.241  1.2301 -1.7972  3.1145
 3787TIP3   OH232919   4.466   2.951   2.412 -0.1769  0.5390 -0.1249
 3787TIP3    H132920   4.400   2.912   2.469  0.0537 -0.1123 -0.2925
 3787TIP3    H232921   4.425   2.952   2.325  0.6472 -1.5670 -0.6174
 3788TIP3   OH232922   1.286   5.284   0.140 -0.7962  0.2313 -0.0473
 3788TIP3    H132923   1.338   5.301   0.218 -0.5225  2.9586 -0.7334
 3788TIP3    H232924   1.195   5.296   0.168 -0.9014 -1.3632  0.3986
 3789TIP3   OH232925   1.114   1.590   6.091 -0.6643  0.1618 -0.3708
 3789TIP3    H132926   1.155   1.505   6.107 -0.5463  0.4837  1.2250
 3789TIP3    H232927   1.021   1.570   6.078 -0.7679 -0.1760  0.7462
 3790TIP3   OH232928   6.278   3.074   8.642 -0.2657 -0.1484  0.6133
 3790TIP3    H132929   6.349   3.127   8.605  0.1652 -1.2901 -0.2788
 3790TIP3    H232930   6.237   3.033   8.565  0.2346 -2.0916  1.3292
 3791TIP3   OH232931   2.986   4.448   0.343 -0.1505  0.4244  0.1551
 3791TIP3    H132932   2.988   4.373   0.283 -0.3463 -0.9357  1.8031
 3791TIP3    H232933   2.899   4.487   0.328 -0.0127  0.4027 -0.7770
 3792TIP3   OH232934   0.391   1.425   1.579 -0.2135  0.2940  0.3298
 3792TIP3    H132935   0.449   1.395   1.650 -0.0607  0.0239  0.0905
 3792TIP3    H232936   0.363   1.345   1.535 -0.5566  0.4404  0.2720
 3793TIP3   OH232937   0.930   2.684   1.614  0.1713 -0.1211 -0.0584
 3793TIP3    H132938   0.887   2.716   1.693 -0.3219  2.0276 -1.1264
 3793TIP3    H232939   0.874   2.613   1.583 -1.1489  0.8350  0.0585
 3794TIP3   OH232940   4.403   2.600   1.763  0.1929  0.2135  0.0663
 3794TIP3    H132941   4.371   2.688   1.744  2.8271  1.1231 -0.5579
 3794TIP3    H232942   4.337   2.542   1.725 -1.1250  1.9160 -0.3537
 3795TIP3   OH232943   0.761   6.778   1.887 -0.5201  0.5909 -0.0306
 3795TIP3    H132944   0.766   6.762   1.792  1.5066 -0.5210  0.2086
 3795TIP3    H232945   0.696   6.716   1.918  0.8078 -1.0533 -0.3681
 3796TIP3   OH232946   2.404   6.174   0.828 -0.6869 -0.3073 -0.2616
 3796TIP3    H132947   2.330   6.150   0.884 -0.6405  1.7401  0.7657
 3796TIP3    H232948   2.480   6.170   0.886 -0.6253  1.7644 -0.1149
 3797TIP3   OH232949   1.529   2.054   1.351  0.0273 -0.2484  0.3194
 3797TIP3    H132950   1.615   2.035   1.387  0.4145  2.6281  1.2083
 3797TIP3    H232951   1.547   2.104   1.271 -0.8281 -0.8802 -0.2830
 3798TIP3   OH232952   1.268   2.338   7.258  0.3224  0.1504 -0.0675
 3798TIP3    H132953   1.244   2.288   7.336  2.4451 -1.9289 -0.5970
 3798TIP3    H232954   1.364   2.344   7.262  0.3490  1.5272 -1.6247
 3799TIP3   OH232955   4.549   3.183   1.482 -0.3342 -0.6300 -0.1187
 3799TIP3    H132956   4.499   3.231   1.549 -1.7946 -0.1712 -1.4826
 3799TIP3    H232957   4.482   3.136   1.432  0.8129 -1.6801 -0.7096
 3800TIP3   OH232958   1.635   4.163   6.969 -0.5444 -0.1129 -0.4907
 3800TIP3    H132959   1.709   4.210   6.930  0.0581 -0.4872  0.1770
 3800TIP3    H232960   1.644   4.179   7.063 -0.6957 -1.0512 -0.3156
 3801TIP3   OH232961   2.796   0.708   1.459  0.9307 -0.2368  0.2105
 3801TIP3    H132962   2.847   0.627   1.450  2.7051  0.8268  0.1114
 3801TIP3    H232963   2.830   0.765   1.389 -0.7660  0.3790 -0.1672
 3802TIP3   OH232964   1.889   3.902   0.156 -0.2673 -0.8185 -0.6213
 3802TIP3    H132965   1.805   3.922   0.115 -1.2047 -0.2344  1.4428
 3802TIP3    H232966   1.870   3.830   0.216  0.6388 -0.5517  0.0114
 3803TIP3   OH232967   3.003   3.020   1.941  0.1329  0.2290  0.4782
 3803TIP3    H132968   3.078   2.975   1.903  1.4928  2.0574  0.8452
 3803TIP3    H232969   3.004   2.996   2.034  0.7962  0.9190  0.6546
 3804TIP3   OH232970   6.001   3.097   7.637  0.4122  0.2466  0.0964
 3804TIP3    H132971   6.003   3.038   7.712 -1.5645 -0.6925 -0.5216
 3804TIP3    H232972   6.030   3.043   7.563  0.2086  0.5221 -0.1888
 3805TIP3   OH232973   0.530   6.287   1.208 -0.5649 -0.6418 -0.4154
 3805TIP3    H132974   0.439   6.314   1.220  0.3750  2.7175  0.2734
 3805TIP3    H232975   0.540   6.279   1.113 -0.9741  1.7882 -0.7381
 3806TIP3   OH232976   1.914   0.686   0.501 -0.0443  0.1718 -0.1352
 3806TIP3    H132977   2.008   0.706   0.501  0.0958 -0.3293 -1.9150
 3806TIP3    H232978   1.880   0.725   0.421 -1.3198  0.1179  0.3500
 3807TIP3   OH232979   6.341   2.222   0.105  0.2942  0.0370 -0.8425
 3807TIP3    H132980   6.334   2.271   0.022  0.3360 -1.0775 -1.5238
 3807TIP3    H232981   6.412   2.159   0.090 -0.5399 -1.0339 -0.4175
 3808TIP3   OH232982   1.911   0.032   8.857  0.1076 -0.0579 -0.5180
 3808TIP3    H132983   1.911   0.107   8.797  0.3553 -0.8454 -1.5392
 3808TIP3    H232984   1.947  -0.040   8.805 -0.1936 -0.9099  0.4188
 3809TIP3   OH232985   3.820   1.719   6.483 -0.1068 -0.3993 -0.0592
 3809TIP3    H132986   3.855   1.785   6.423 -0.2450 -1.1045 -0.9314
 3809TIP3    H232987   3.896   1.690   6.534 -0.1256  0.7376  0.6452
 3810TIP3   OH232988   6.321   2.204   8.542 -0.2639  0.1821  0.1515
 3810TIP3    H132989   6.414   2.185   8.537 -0.2503  0.4923 -1.0016
 3810TIP3    H232990   6.314   2.275   8.605  0.0618 -1.0945  1.6889
 3811TIP3   OH232991   3.191   0.605   6.890  0.0434 -0.5541 -0.1538
 3811TIP3    H132992   3.185   0.569   6.801  0.2968  0.6557 -0.6830
 3811TIP3    H232993   3.143   0.688   6.885  0.1285 -0.4339  0.8284
 3812TIP3   OH232994   3.378   5.358   0.529 -0.4510 -0.0216 -0.3491
 3812TIP3    H132995   3.376   5.411   0.608 -0.4506 -0.3707 -0.1125
 3812TIP3    H232996   3.289   5.361   0.495 -0.1668  1.1611 -1.0315
 3813TIP3   OH232997   1.256   0.766   0.886 -0.2406 -0.1576  0.1536
 3813TIP3    H132998   1.173   0.807   0.858 -0.9848 -1.3615  0.5275
 3813TIP3    H232999   1.232   0.713   0.961  0.5134 -1.9104 -0.7865
 3814TIP3   OH233000   5.198   1.353   0.684  0.5571 -0.3364 -0.3737
 3814TIP3    H133001   5.126   1.408   0.716  1.9531  0.5442  1.4407
 3814TIP3    H233002   5.241   1.407   0.618  1.4241  0.5000  0.8167
 3815TIP3   OH233003   6.646   5.634   7.594  0.3597  0.3364 -0.1071
 3815TIP3    H133004   6.734   5.629   7.554 -0.1724  1.2729 -1.4610
 3815TIP3    H233005   6.597   5.692   7.536 -0.6261  1.3428  1.6694
 3816TIP3   OH233006   4.428   1.720   1.821  0.2896 -0.4277 -0.9283
 3816TIP3    H133007   4.349   1.676   1.789  0.8219 -0.3470 -2.4046
 3816TIP3    H233008   4.421   1.715   1.916 -0.6234 -1.9833 -1.0429
 3817TIP3   OH233009   6.663   3.349   0.393 -0.1252 -0.1009  0.2575
 3817TIP3    H133010   6.668   3.409   0.467  0.8603  0.5288 -0.2923
 3817TIP3    H233011   6.611   3.275   0.425  0.1632  0.2223  1.5230
 3818TIP3   OH233012   4.638   4.746   1.667  0.2358  0.5801 -0.4797
 3818TIP3    H133013   4.601   4.681   1.607 -2.1188  0.4021  1.0178
 3818TIP3    H233014   4.614   4.714   1.755  1.0169  2.3079  0.4182
 3819TIP3   OH233015   4.225   5.029   8.557 -0.1834 -0.3371 -0.2465
 3819TIP3    H133016   4.184   4.951   8.594  0.1659  0.2137  1.3770
 3819TIP3    H233017   4.312   4.999   8.528 -0.4525 -0.7720 -0.6127
 3820TIP3   OH233018   6.597   4.993   2.010 -0.0399 -0.0358 -0.8824
 3820TIP3    H133019   6.687   5.015   2.033 -0.2400  0.0400 -0.1576
 3820TIP3    H233020   6.548   5.075   2.024 -0.5016 -0.4941  0.2569
 3821TIP3   OH233021   2.416   5.505   8.669  0.3769 -0.3948 -1.0098
 3821TIP3    H133022   2.335   5.476   8.628 -0.6776  0.4090  0.4334
 3821TIP3    H233023   2.421   5.599   8.649  0.0754 -0.0863  0.2821
 3822TIP3   OH233024   3.618   3.597   0.397 -0.2989 -0.0634  0.5534
 3822TIP3    H133025   3.695   3.637   0.437  1.7000 -2.4122 -0.7262
 3822TIP3    H233026   3.603   3.647   0.317 -1.1712  1.4278  1.6089
 3823TIP3   OH233027   5.981   1.792   8.335 -0.1100 -0.5404  0.1316
 3823TIP3    H133028   6.019   1.876   8.358 -2.7576  0.3952  1.4019
 3823TIP3    H233029   5.940   1.806   8.250 -2.5372  0.2472  1.3373
 3824TIP3   OH233030   0.239   4.715   7.856 -0.6279  0.8003 -0.0026
 3824TIP3    H133031   0.214   4.732   7.947 -0.7055  0.4527  0.0440
 3824TIP3    H233032   0.208   4.792   7.808 -0.4558  1.0517  0.2873
 3825TIP3   OH233033   5.248   6.327   7.961 -0.0159  0.4381  0.4619
 3825TIP3    H133034   5.155   6.313   7.947 -0.2316  1.2534  1.0451
 3825TIP3    H233035   5.282   6.241   7.987 -0.8160  0.3700  1.3270
 3826TIP3   OH233036   4.079   3.620   7.748 -0.2809  0.1383  0.2115
 3826TIP3    H133037   4.110   3.624   7.658 -0.7418  1.6226  0.0993
 3826TIP3    H233038   3.985   3.603   7.741 -0.6462  1.9025  0.3151
 3827TIP3   OH233039   4.942   0.181   8.761  0.2919 -0.1359  0.5354
 3827TIP3    H133040   4.992   0.262   8.773 -0.0232  0.1518 -0.0598
 3827TIP3    H233041   4.896   0.169   8.845 -0.8116  1.1039  0.1479
 3828TIP3   OH233042   0.138   3.024   7.811 -0.0480  0.5299 -0.4051
 3828TIP3    H133043   0.209   3.056   7.868  0.6387  1.5643 -1.7660
 3828TIP3    H233044   0.172   2.944   7.772  0.3787  0.9917 -1.0074
 3829TIP3   OH233045   2.632   3.043   6.265 -0.3262  0.0701  0.4943
 3829TIP3    H133046   2.551   3.091   6.278 -0.8368 -0.8358  0.7590
 3829TIP3    H233047   2.681   3.095   6.201 -1.2380  0.4782  0.1134
 3830TIP3   OH233048   3.439   6.266   1.346  0.0106  0.1216 -0.1840
 3830TIP3    H133049   3.504   6.259   1.416  0.5817  2.0936 -0.4452
 3830TIP3    H233050   3.370   6.320   1.383  0.2941  1.1352 -1.0975
 3831TIP3   OH233051   0.596   5.193   0.736  0.3158 -0.1478  0.1019
 3831TIP3    H133052   0.677   5.224   0.776  0.4483  2.6130 -2.0208
 3831TIP3    H233053   0.527   5.240   0.783  0.1225 -0.4642  0.1409
 3832TIP3   OH233054   6.359   2.616   1.784  0.0480  0.0440 -0.3384
 3832TIP3    H133055   6.405   2.604   1.867  1.7024 -0.0285 -1.2260
 3832TIP3    H233056   6.357   2.711   1.772 -3.2629  0.3175  1.3799
 3833TIP3   OH233057   4.060   0.024   8.671  0.3890  0.1543 -0.3543
 3833TIP3    H133058   4.095  -0.041   8.611 -1.1467  0.1118 -1.2532
 3833TIP3    H233059   3.974  -0.011   8.696  0.4210  0.8436  0.7807
 3834TIP3   OH233060   4.826   4.986   1.225 -0.2426 -0.0820 -0.2135
 3834TIP3    H133061   4.833   4.963   1.132  0.7402 -0.9893  0.0639
 3834TIP3    H233062   4.872   4.916   1.271 -1.4975 -0.1416  1.0456
 3835TIP3   OH233063   1.946   4.768   1.581  0.0386 -0.1924 -0.0558
 3835TIP3    H133064   1.982   4.854   1.600 -1.2944  0.6802 -1.2522
 3835TIP3    H233065   1.865   4.764   1.631  0.7131 -1.3161  1.0157
 3836TIP3   OH233066   5.456   5.088   7.891 -0.5479 -0.1869  0.2062
 3836TIP3    H133067   5.416   5.174   7.879 -0.1473 -0.3468 -3.1379
 3836TIP3    H233068   5.383   5.030   7.912 -1.3624  0.3847 -0.9450
 3837TIP3   OH233069   5.577   4.558   6.643 -0.5070 -0.4509 -0.3553
 3837TIP3    H133070   5.511   4.513   6.591  1.8217 -2.4294 -1.7979
 3837TIP3    H233071   5.649   4.496   6.650  0.4576  0.8064  2.8958
 3838TIP3   OH233072   6.740   1.738   0.594 -0.3784  0.0560 -0.5915
 3838TIP3    H133073   6.663   1.681   0.586 -0.2976 -0.1509  0.0276
 3838TIP3    H233074   6.809   1.680   0.628 -0.3887  0.5875  0.3718
 3839TIP3   OH233075   1.425   0.933   1.817  0.4172  0.2713  0.5304
 3839TIP3    H133076   1.445   1.023   1.840  0.3572  0.1363  1.1139
 3839TIP3    H233077   1.459   0.881   1.889 -2.1321  0.0373  1.6781
 3840TIP3   OH233078   0.878   0.557   7.838 -0.3161  0.5646 -0.3464
 3840TIP3    H133079   0.889   0.462   7.840 -0.2234  0.5692 -0.5923
 3840TIP3    H233080   0.806   0.572   7.777 -1.0024  0.5975  0.4419
 3841TIP3   OH233081   3.987   6.054   0.624  0.0930  0.4186  0.2885
 3841TIP3    H133082   4.001   5.976   0.570  0.7413  1.8222 -1.6760
 3841TIP3    H233083   4.059   6.112   0.602 -1.8331  2.6895 -0.4135
 3842TIP3   OH233084   0.754   5.310   8.577 -0.1424 -0.1880 -0.3351
 3842TIP3    H133085   0.827   5.260   8.614  0.6769 -1.1962 -3.0374
 3842TIP3    H233086   0.796   5.388   8.540 -1.0909  1.3857  1.7530
 3843TIP3   OH233087   4.713   3.095   2.450  0.0112  0.7085 -1.0053
 3843TIP3    H133088   4.676   3.171   2.494  0.0293  0.8672 -1.2631
 3843TIP3    H233089   4.637   3.040   2.430  0.1685 -0.3462  1.0324
 3844TIP3   OH233090   6.631   5.873   7.774 -0.4440 -0.2042 -0.0420
 3844TIP3    H133091   6.657   5.963   7.755  1.1440 -0.1135  2.1216
 3844TIP3    H233092   6.625   5.831   7.688 -1.1329  1.9129 -1.0898
 3845TIP3   OH233093   0.041   6.595   0.392 -0.0900 -0.1088  0.0935
 3845TIP3    H133094   0.103   6.667   0.378  0.0810 -0.5879 -1.8780
 3845TIP3    H233095  -0.043   6.639   0.405  0.0219  0.4901 -1.0545
 3846TIP3   OH233096   5.911   3.123   1.518  0.7163 -0.4076 -0.9098
 3846TIP3    H133097   5.842   3.189   1.514 -1.2186 -2.3210 -0.8870
 3846TIP3    H233098   5.951   3.136   1.603  0.9032  1.1856 -1.1975
 3847TIP3   OH233099   0.406   6.391   6.753 -0.0310 -0.4334  0.2098
 3847TIP3    H133100   0.430   6.422   6.665 -2.1345 -0.4741 -0.4346
 3847TIP3    H233101   0.420   6.468   6.809 -0.7834  0.3013 -0.5700
 3848TIP3   OH233102   3.990   3.828   7.455 -0.3255  0.4686 -0.3175
 3848TIP3    H133103   4.041   3.799   7.379  0.7857  1.3587  0.0693
 3848TIP3    H233104   3.915   3.768   7.458  0.8628 -1.0853 -0.6962
 3849TIP3   OH233105   1.757   2.941   1.588 -0.1339  0.4230  0.3320
 3849TIP3    H133106   1.681   2.886   1.610 -0.3676  0.6942  0.2154
 3849TIP3    H233107   1.829   2.904   1.639 -0.0104 -0.7108 -0.6309
 3850TIP3   OH233108   0.221   2.585   7.553  0.3444 -0.1257 -0.0458
 3850TIP3    H133109   0.150   2.524   7.531 -0.0944  0.6647 -0.8531
 3850TIP3    H233110   0.300   2.541   7.522 -0.0730  0.1477 -1.5771
 3851TIP3   OH233111   3.097   0.516   1.701 -0.3171 -0.5887  0.5154
 3851TIP3    H133112   3.043   0.444   1.669  2.3210 -1.5394 -2.2901
 3851TIP3    H233113   3.184   0.477   1.712  0.6326  1.6284  1.3167
 3852TIP3   OH233114   2.208   1.500   0.267 -0.7404  0.3621  0.1406
 3852TIP3    H133115   2.254   1.547   0.336  0.1493 -0.5891  0.2228
 3852TIP3    H233116   2.266   1.507   0.191 -1.9303  1.8275 -0.7034
 3853TIP3   OH233117   3.940   2.121   2.038  0.6564 -0.4190  0.1135
 3853TIP3    H133118   3.871   2.136   1.974 -0.1019 -0.9606  0.7869
 3853TIP3    H233119   3.894   2.092   2.117  1.6595 -0.9672  0.5142
 3854TIP3   OH233120   1.343   6.085   1.808  0.1488 -0.1265  1.5966
 3854TIP3    H133121   1.388   6.147   1.866  0.9751 -0.1328  0.9848
 3854TIP3    H233122   1.342   6.129   1.723  1.9822 -1.4879  0.8223
 3855TIP3   OH233123   4.274   0.580   0.679  0.3573  0.1453  0.2665
 3855TIP3    H133124   4.289   0.486   0.691  1.2521  0.0837 -1.1884
 3855TIP3    H233125   4.208   0.602   0.746  0.0829 -1.5138  0.5860
 3856TIP3   OH233126   3.714   5.669   1.560 -0.6537 -0.0482 -0.5127
 3856TIP3    H133127   3.792   5.616   1.544  0.7182  1.4958  0.6989
 3856TIP3    H233128   3.654   5.610   1.607  0.9982 -0.4160  1.2108
 3857TIP3   OH233129   3.461   4.634   0.135  0.0482  0.1529  0.1498
 3857TIP3    H133130   3.434   4.598   0.219 -2.0569  0.2886 -0.4130
 3857TIP3    H233131   3.555   4.648   0.144 -0.0915  0.0150  2.4136
 3858TIP3   OH233132   6.256   4.526   8.323  0.4332 -0.6262  0.0360
 3858TIP3    H133133   6.342   4.486   8.329  0.4514 -0.5979 -0.0278
 3858TIP3    H233134   6.215   4.511   8.408  0.6119 -0.3893  0.1666
 3859TIP3   OH233135   6.232   5.754   1.105  0.0478  0.5237  0.3743
 3859TIP3    H133136   6.313   5.703   1.110 -2.3448 -3.8288 -0.1858
 3859TIP3    H233137   6.181   5.726   1.181 -1.6941  1.7377 -0.2695
 3860TIP3   OH233138   4.439   3.068   8.010 -0.1877  0.0881  0.2694
 3860TIP3    H133139   4.362   3.077   8.067 -1.0927 -0.5911 -0.8020
 3860TIP3    H233140   4.509   3.114   8.056  0.2876 -3.7975  4.0348
 3861TIP3   OH233141   6.477   3.773   0.972 -0.1324 -0.2088  0.2612
 3861TIP3    H133142   6.532   3.719   1.029 -0.6748  1.0513  2.0459
 3861TIP3    H233143   6.517   3.860   0.975 -1.4940  0.4385  0.6373
 3862TIP3   OH233144   2.536   2.060   7.124  0.1470 -0.3429 -0.2676
 3862TIP3    H133145   2.595   2.099   7.188 -0.3951  0.4012 -0.2080
 3862TIP3    H233146   2.590   2.047   7.047  0.8109 -1.2712  0.3420
 3863TIP3   OH233147   0.961   2.419   8.136 -0.0541  0.7490 -0.0951
 3863TIP3    H133148   0.936   2.439   8.046 -0.6582 -1.7936 -0.5705
 3863TIP3    H233149   0.889   2.453   8.189 -1.3664 -0.6918 -0.8922
 3864TIP3   OH233150   5.450   0.298   8.770 -0.9136  0.1429  0.0887
 3864TIP3    H133151   5.480   0.226   8.715  0.4152 -0.1074  1.0738
 3864TIP3    H233152   5.427   0.257   8.853  0.5441  0.8967  0.9110
 3865TIP3   OH233153   3.270   5.057   6.852  0.0526  0.2495 -0.3357
 3865TIP3    H133154   3.279   4.962   6.849 -0.9518  0.0424  1.7579
 3865TIP3    H233155   3.180   5.072   6.883  1.2473  1.7786  2.7892
 3866TIP3   OH233156   2.151   3.573   7.886  0.1685 -0.1865 -0.1216
 3866TIP3    H133157   2.189   3.567   7.799 -0.7992  0.4717 -0.6134
 3866TIP3    H233158   2.064   3.610   7.872 -0.1439 -0.3908  1.0910
 3867TIP3   OH233159   6.083   3.690   7.727  0.3758 -0.4967  0.1598
 3867TIP3    H133160   6.133   3.665   7.649  0.6548 -1.3577  0.5996
 3867TIP3    H233161   6.070   3.608   7.775 -0.1359 -0.0424  0.8231
 3868TIP3   OH233162   1.754   4.218   0.875 -0.4590 -0.2525 -0.1857
 3868TIP3    H133163   1.812   4.293   0.860 -0.9400  0.0107 -0.7770
 3868TIP3    H233164   1.813   4.142   0.871 -0.0242  0.0637  0.0605
 3869TIP3   OH233165   6.452   5.878   0.584  0.2280 -0.2487  0.1347
 3869TIP3    H133166   6.376   5.822   0.565  0.0128  0.1469 -0.1810
 3869TIP3    H233167   6.421   5.937   0.654 -0.0789  0.5613 -0.6625
 3870TIP3   OH233168   0.677   2.948   1.542  0.1585  0.6170 -0.2052
 3870TIP3    H133169   0.700   2.866   1.500  0.5220 -1.0544  2.9133
 3870TIP3    H233170   0.760   2.983   1.574 -0.0743  1.8602 -0.9225
 3871TIP3   OH233171   0.940   0.606   8.439 -0.2762  0.0936  0.5936
 3871TIP3    H133172   0.847   0.605   8.418 -1.1200  2.1942  3.6636
 3871TIP3    H233173   0.975   0.678   8.386 -0.9918  0.9909  1.2900
 3872TIP3   OH233174   2.170   2.883   0.136  0.1080 -0.0286  0.0838
 3872TIP3    H133175   2.215   2.967   0.127 -1.7920  0.8036 -3.4009
 3872TIP3    H233176   2.233   2.818   0.103  0.6612  0.3632  0.3496
 3873TIP3   OH233177   4.075   2.702   7.078  0.3089 -0.2048 -0.2364
 3873TIP3    H133178   4.136   2.772   7.102  0.4394 -0.1594 -0.6826
 3873TIP3    H233179   3.990   2.745   7.075  0.2936 -0.2095  0.1325
 3874TIP3   OH233180   2.299   2.865   6.390  0.0139 -0.1400 -0.0860
 3874TIP3    H133181   2.255   2.944   6.422  0.4376 -0.5312  1.5763
 3874TIP3    H233182   2.228   2.803   6.373 -0.2618  0.2843 -0.4993
 3875TIP3   OH233183   1.534   5.431   1.353 -0.4778  0.2424 -0.1872
 3875TIP3    H133184   1.582   5.442   1.435  1.7376  0.8989 -1.4773
 3875TIP3    H233185   1.482   5.511   1.345 -0.2670  0.4337  0.3102
 3876TIP3   OH233186   0.518   0.156   7.975  0.5471 -0.1253  0.6015
 3876TIP3    H133187   0.426   0.160   7.999 -0.2609  0.4227 -2.2239
 3876TIP3    H233188   0.528   0.220   7.904  3.4732  0.9560  1.8246
 3877TIP3   OH233189   5.386   3.696   0.418  0.2312 -0.2512  0.2248
 3877TIP3    H133190   5.456   3.668   0.477  1.4631 -0.6911 -1.3736
 3877TIP3    H233191   5.357   3.616   0.375 -3.4911 -0.6591  2.9682
 3878TIP3   OH233192   6.179   1.141   8.263  0.0206  0.2569  0.5829
 3878TIP3    H133193   6.244   1.206   8.237  1.2513 -0.6827  1.2158
 3878TIP3    H233194   6.097   1.190   8.267  0.8112  1.6486  0.5430
 3879TIP3   OH233195   5.113   1.814   6.345 -0.3322 -0.0229 -0.2397
 3879TIP3    H133196   5.154   1.730   6.324  0.0970 -0.0299  0.5765
 3879TIP3    H233197   5.170   1.852   6.412 -0.5001  0.9411 -0.6279
 3880TIP3   OH233198   5.186   1.357   1.306 -0.3182 -0.5854 -0.4651
 3880TIP3    H133199   5.163   1.397   1.222  0.3170  0.9822  0.0835
 3880TIP3    H233200   5.273   1.320   1.291  0.1588  0.4279 -0.2798
 3881TIP3   OH233201   0.520   3.076   1.737 -0.0038  0.1720 -0.0874
 3881TIP3    H133202   0.540   3.007   1.801  1.5253  0.3686 -0.3114
 3881TIP3    H233203   0.562   3.045   1.656  0.3493  1.1713 -0.2942
 3882TIP3   OH233204   2.551   5.809   0.020  0.1135  0.3837  0.5749
 3882TIP3    H133205   2.608   5.864   0.075  0.7381  0.0456  0.2686
 3882TIP3    H233206   2.561   5.845  -0.068  0.5455 -0.2458  0.3692
 3883TIP3   OH233207   2.365   0.133   7.843 -0.0753  0.0324  0.0061
 3883TIP3    H133208   2.333   0.042   7.843  1.9562 -0.7311  0.1832
 3883TIP3    H233209   2.407   0.144   7.758 -0.7075  0.9949 -0.2023
 3884TIP3   OH233210   3.345   2.102   7.568  0.5796 -0.2060 -0.8870
 3884TIP3    H133211   3.399   2.146   7.502  0.0501  1.1116 -0.4834
 3884TIP3    H233212   3.409   2.065   7.630  1.0580  0.4321 -0.9777
 3885TIP3   OH233213   2.437   6.607   2.650 -0.3712  0.2664 -0.7413
 3885TIP3    H133214   2.446   6.600   2.745 -3.0364  0.3760 -0.4158
 3885TIP3    H233215   2.494   6.680   2.626  0.7706 -0.1085  0.6641
 3886TIP3   OH233216   5.227   0.580   6.930  0.2958 -0.7573 -0.6495
 3886TIP3    H133217   5.235   0.583   6.835 -0.2301  0.9655 -0.6731
 3886TIP3    H233218   5.316   0.566   6.961  0.5749 -0.6123 -1.3712
 3887TIP3   OH233219   0.740   3.451   1.109  0.3813 -0.6305 -0.2661
 3887TIP3    H133220   0.662   3.498   1.140  1.3246  0.4798  0.5515
 3887TIP3    H233221   0.734   3.455   1.014 -0.4622 -0.3818 -0.2108
 3888TIP3   OH233222   6.072   4.716   1.761  0.7724 -0.4016  0.1952
 3888TIP3    H133223   6.098   4.691   1.672  1.9377 -1.0166  0.6751
 3888TIP3    H233224   5.977   4.706   1.762  0.9446 -2.5884 -0.3479
 3889TIP3   OH233225   2.644   6.769   7.980 -0.2581 -0.0968  0.4064
 3889TIP3    H133226   2.640   6.863   7.999  1.6639  0.0012  0.4875
 3889TIP3    H233227   2.695   6.732   8.053 -1.0607 -1.2247  0.4142
 3890TIP3   OH233228   2.903   0.654   7.134 -0.4355 -0.3335  0.3097
 3890TIP3    H133229   2.926   0.731   7.082  0.5489 -0.6661  0.2238
 3890TIP3    H233230   2.981   0.599   7.130 -0.9431 -1.1062  0.7918
 3891TIP3   OH233231   1.927   3.841   6.910  0.0937 -0.2474 -0.0462
 3891TIP3    H133232   1.944   3.795   6.828 -1.3280 -0.4846 -0.2306
 3891TIP3    H233233   1.916   3.772   6.975 -0.3001 -0.1155  0.0292
 3892TIP3   OH233234   4.001   3.803   6.862  0.5267  0.4113  0.1035
 3892TIP3    H133235   3.916   3.760   6.849  0.4957  0.0958  1.1805
 3892TIP3    H233236   4.063   3.730   6.868  0.9756  0.6606 -1.2318
 3893TIP3   OH233237   5.143   2.230   1.901  0.1991  0.0534 -0.1042
 3893TIP3    H133238   5.133   2.310   1.952  0.0793 -0.2085  0.2868
 3893TIP3    H233239   5.072   2.173   1.931 -0.4742  0.2593 -1.2658
 3894TIP3   OH233240   4.112   6.065   7.046  0.2260 -0.2335 -0.3566
 3894TIP3    H133241   4.162   5.990   7.013 -1.7530 -1.2928 -1.1182
 3894TIP3    H233242   4.054   6.088   6.974 -0.1115  1.2342  0.3461
 3895TIP3   OH233243   6.708   2.358   0.035  0.4916 -0.0491  0.3962
 3895TIP3    H133244   6.785   2.406   0.005  0.0619  0.3951 -0.0156
 3895TIP3    H233245   6.663   2.419   0.094  0.3834 -0.2567  0.5309
 3896TIP3   OH233246   5.880   0.284   8.303  0.0477  0.6225  0.2207
 3896TIP3    H133247   5.955   0.314   8.354  2.2239 -0.6435 -1.9958
 3896TIP3    H233248   5.877   0.189   8.318 -1.4251  0.6977  0.5847
 3897TIP3   OH233249   3.413   6.168   7.810 -0.5028  0.3998 -0.1592
 3897TIP3    H133250   3.336   6.143   7.860  0.6298 -2.5273  0.3552
 3897TIP3    H233251   3.480   6.186   7.875  0.2595 -0.8764 -0.5470
 3898TIP3   OH233252   6.571   3.248   8.212  0.3297 -0.1647 -0.3877
 3898TIP3    H133253   6.622   3.176   8.173  1.8995 -0.9080  2.6904
 3898TIP3    H233254   6.485   3.210   8.228 -0.2739  0.0910 -2.7570
 3899TIP3   OH233255   2.322   2.860   8.076 -0.3054  0.1209 -0.2490
 3899TIP3    H133256   2.416   2.875   8.064 -0.5318  2.5356  0.4263
 3899TIP3    H233257   2.317   2.784   8.134  1.2453  0.1111 -0.0885
 3900TIP3   OH233258   3.680   4.403   8.247  0.0313 -0.1789  0.2818
 3900TIP3    H133259   3.669   4.377   8.339 -0.8266  0.8392  0.4825
 3900TIP3    H233260   3.774   4.390   8.230 -0.0323 -1.6398  0.8861
 3901TIP3   OH233261   4.187   5.640   0.762 -0.6679 -0.3575  0.8287
 3901TIP3    H133262   4.141   5.675   0.687  1.0160 -0.0063 -0.0852
 3901TIP3    H233263   4.128   5.654   0.836 -1.4738  1.2287 -0.0841
 3902TIP3   OH233264   1.406   4.260   8.163  0.1833 -0.3512 -0.5306
 3902TIP3    H133265   1.313   4.266   8.185  0.4716 -0.5513  0.8091
 3902TIP3    H233266   1.425   4.343   8.118 -0.2270  0.5283  0.8533
 3903TIP3   OH233267   5.727   5.837   7.834  0.3943  0.0784  0.2536
 3903TIP3    H133268   5.649   5.781   7.843  0.7442 -0.2030  1.8524
 3903TIP3    H233269   5.759   5.847   7.924  1.4030  1.3504 -0.2288
 3904TIP3   OH233270   6.392   4.917   7.577  0.3877  0.1734 -0.0137
 3904TIP3    H133271   6.428   4.829   7.566 -0.7486 -0.0851 -2.1660
 3904TIP3    H233272   6.343   4.913   7.660 -0.7169 -1.6496 -0.6923
 3905TIP3   OH233273   5.681   4.563   1.116  0.1655 -0.4717  0.4310
 3905TIP3    H133274   5.718   4.503   1.052  2.0299  0.9315  0.1126
 3905TIP3    H233275   5.755   4.615   1.147 -1.5227  2.7033 -0.4053
 3906TIP3   OH233276   2.579   4.693   2.248 -0.1126  0.2183  0.2262
 3906TIP3    H133277   2.651   4.686   2.310 -0.5881  0.5290  0.8250
 3906TIP3    H233278   2.571   4.605   2.211 -0.8448 -0.4096  1.7825
 3907TIP3   OH233279   6.733   0.692   7.911  0.1317  0.4272 -0.5486
 3907TIP3    H133280   6.736   0.760   7.844 -1.6079  0.3589 -0.7424
 3907TIP3    H233281   6.769   0.733   7.989  1.6703  0.6821 -1.3416
 3908TIP3   OH233282   6.620   2.664   6.917 -0.8136  0.7894  0.3233
 3908TIP3    H133283   6.580   2.669   6.830 -2.9145  0.8050  1.2296
 3908TIP3    H233284   6.645   2.754   6.937  0.3277  0.6764 -0.5248
 3909TIP3   OH233285   5.259   6.046   2.050 -0.1051 -0.3597 -0.3890
 3909TIP3    H133286   5.188   6.101   2.082 -1.5990 -1.2143 -2.0382
 3909TIP3    H233287   5.222   6.000   1.975  0.9185 -3.8804  1.0284
 3910TIP3   OH233288   0.795   4.536   7.233  0.1034 -0.1155 -0.2216
 3910TIP3    H133289   0.719   4.593   7.222 -0.2244 -0.4015  0.4917
 3910TIP3    H233290   0.759   4.448   7.227  0.1241 -0.2756  1.5751
 3911TIP3   OH233291   2.748   4.890   7.865  0.1524 -0.0765 -0.6154
 3911TIP3    H133292   2.690   4.902   7.940 -0.3556 -0.3674 -0.9498
 3911TIP3    H233293   2.832   4.865   7.902  0.1271  0.5824 -0.1092
 3912TIP3   OH233294   1.184   1.318   6.043  0.4170  0.4788 -0.1654
 3912TIP3    H133295   1.101   1.271   6.050  1.1955 -0.8729  0.4768
 3912TIP3    H233296   1.248   1.260   6.085  1.4970  1.9969  0.3730
 3913TIP3   OH233297   0.804   6.274   7.396 -0.0340 -0.5125  0.2182
 3913TIP3    H133298   0.820   6.365   7.422  0.1305 -0.4771 -0.0089
 3913TIP3    H233299   0.781   6.279   7.303  1.7375 -0.8761 -0.2665
 3914TIP3   OH233300   2.958   1.405   1.027  0.3185  0.2074 -0.4078
 3914TIP3    H133301   2.889   1.471   1.020  1.4520  1.5853  0.6481
 3914TIP3    H233302   3.038   1.456   1.045  1.5187 -1.3547 -1.0682
 3915TIP3   OH233303   4.066   2.133   6.612 -0.6574 -0.2156  0.4705
 3915TIP3    H133304   4.136   2.072   6.637 -0.8272 -0.6921 -0.1955
 3915TIP3    H233305   4.113   2.211   6.581 -0.4116 -0.6559 -0.2819
 3916TIP3   OH233306   6.292   4.439   0.047 -0.5273 -0.4004  0.1540
 3916TIP3    H133307   6.316   4.527   0.075 -2.5776  0.9751 -1.9985
 3916TIP3    H233308   6.213   4.419   0.096 -0.8750 -0.4037 -0.3959
 3917TIP3   OH233309   0.367   6.240   1.622 -0.1054  0.3785  0.0306
 3917TIP3    H133310   0.343   6.321   1.577 -1.7381  0.4588  0.9447
 3917TIP3    H233311   0.373   6.174   1.553 -0.4323  0.9395 -0.5396
 3918TIP3   OH233312   2.741   1.169   1.189  0.2392 -0.0119  0.4554
 3918TIP3    H133313   2.813   1.163   1.127 -2.0372 -1.1770 -2.2784
 3918TIP3    H233314   2.728   1.262   1.203  0.9748  0.2605 -0.6059
 3919TIP3   OH233315   5.335   2.680   2.111 -0.8244  0.6418 -0.5899
 3919TIP3    H133316   5.350   2.687   2.017 -0.2923  0.2584 -0.5361
 3919TIP3    H233317   5.255   2.629   2.120 -0.7752  0.5258 -0.8286
 3920TIP3   OH233318   5.317   5.953   7.374  0.1654 -0.0203  0.3369
 3920TIP3    H133319   5.387   6.017   7.388 -1.0256  1.7642 -1.2123
 3920TIP3    H233320   5.283   5.935   7.462  1.4236  0.4320  0.9372
 3921TIP3   OH233321   5.620   3.419   2.373 -0.0306  0.1127  0.2365
 3921TIP3    H133322   5.715   3.419   2.369 -0.0170 -1.6643 -0.3990
 3921TIP3    H233323   5.593   3.480   2.304  0.6500  0.0130 -0.1220
 3922TIP3   OH233324   0.199   2.313   6.444 -0.3480 -0.1801  0.3074
 3922TIP3    H133325   0.121   2.260   6.461 -0.7280  0.5246  0.8427
 3922TIP3    H233326   0.225   2.290   6.355 -0.7705 -0.9200  0.3647
 3923TIP3   OH233327   4.875   0.148   0.154  0.3306  0.0219  0.3535
 3923TIP3    H133328   4.784   0.173   0.140  0.3376  0.3733  0.9009
 3923TIP3    H233329   4.898   0.188   0.238  0.5062 -1.4158  1.0034
 3924TIP3   OH233330   2.067   2.889   7.654 -0.5243 -0.0592 -0.1744
 3924TIP3    H133331   2.110   2.967   7.619 -0.6492 -0.4687 -1.2926
 3924TIP3    H233332   2.082   2.893   7.748  0.5645  0.6488 -0.3578
 3925TIP3   OH233333   3.723   4.173   0.019 -0.0800  0.5054 -0.3749
 3925TIP3    H133334   3.690   4.101  -0.036  0.7626  1.5484 -2.3473
 3925TIP3    H233335   3.810   4.193  -0.017  0.9019  0.6986  1.9209
 3926TIP3   OH233336   1.381   3.540   8.375  0.4155 -0.1165 -0.5106
 3926TIP3    H133337   1.289   3.567   8.380  0.8486  1.7998 -1.7150
 3926TIP3    H233338   1.378   3.447   8.355 -1.2303 -0.4298  0.9202
 3927TIP3   OH233339   6.300   3.154   8.251  0.3737  0.1793  0.4890
 3927TIP3    H133340   6.302   3.089   8.322 -0.8555 -0.4949 -0.0664
 3927TIP3    H233341   6.241   3.222   8.282  0.2641  0.1511  0.3433
 3928TIP3   OH233342   5.902   2.668   0.814  0.0763 -0.4171  0.3002
 3928TIP3    H133343   5.885   2.647   0.906 -1.2918  0.0570  0.1626
 3928TIP3    H233344   5.819   2.651   0.769  0.8375 -1.0551 -0.9387
 3929TIP3   OH233345   5.067   6.211   8.187 -0.5791 -0.0154 -0.5288
 3929TIP3    H133346   5.150   6.235   8.228 -0.9828  0.8382 -0.1838
 3929TIP3    H233347   5.002   6.264   8.233 -1.5839 -2.0752  0.5674
 3930TIP3   OH233348   5.453   4.957   8.247  0.3965  0.2940  0.6524
 3930TIP3    H133349   5.478   4.926   8.161 -0.7429 -1.7783  0.9855
 3930TIP3    H233350   5.533   4.951   8.300  0.5512 -0.7923  0.3231
 3931TIP3   OH233351   0.219   5.486   2.201 -0.0430 -0.3227  0.1311
 3931TIP3    H133352   0.298   5.435   2.216 -0.4061 -1.0134 -0.2972
 3931TIP3    H233353   0.237   5.570   2.244  0.5965 -0.7601  0.7414
 3932TIP3   OH233354   3.505   1.495   7.001 -0.0528 -0.1329 -0.1295
 3932TIP3    H133355   3.545   1.416   7.040  0.0921 -1.1207 -2.1775
 3932TIP3    H233356   3.420   1.465   6.969  0.8272 -0.0365 -2.7639
 3933TIP3   OH233357   2.377   4.538   1.330  0.3900 -0.4924  0.1509
 3933TIP3    H133358   2.325   4.602   1.378  0.7094 -1.0373  1.2573
 3933TIP3    H233359   2.467   4.554   1.357  0.7686  0.1306 -1.3847
 3934TIP3   OH233360   0.585   6.004   7.142 -0.2145 -0.4591  0.2814
 3934TIP3    H133361   0.643   6.064   7.095  0.1418  0.0442  1.3317
 3934TIP3    H233362   0.525   5.971   7.076 -0.3687  1.0037 -0.3349
 3935TIP3   OH233363   4.894   2.174   7.302  0.1766 -0.6465  0.3206
 3935TIP3    H133364   4.863   2.264   7.303  0.4759 -0.5364  1.5315
 3935TIP3    H233365   4.974   2.176   7.249  0.0247 -0.2649  0.1034
 3936TIP3   OH233366   2.133   0.343   2.206 -0.1741 -0.3847 -0.2359
 3936TIP3    H133367   2.207   0.311   2.258  0.8971  1.7488 -0.3474
 3936TIP3    H233368   2.084   0.400   2.265 -0.4365  0.0129 -0.8230
 3937TIP3   OH233369   2.441   5.726   0.629 -0.1862 -0.4151  0.5394
 3937TIP3    H133370   2.458   5.799   0.689  0.1286 -0.4070  0.4422
 3937TIP3    H233371   2.490   5.653   0.667  0.2540 -0.3355  0.1369
 3938TIP3   OH233372   2.707   2.241   1.652  0.0952 -0.6966 -0.0665
 3938TIP3    H133373   2.640   2.201   1.597 -0.0259 -0.0811 -0.3773
 3938TIP3    H233374   2.777   2.176   1.656 -0.1282 -0.9689 -0.4993
 3939TIP3   OH233375   4.697   3.765   1.835  0.0108  0.0137  0.0813
 3939TIP3    H133376   4.747   3.831   1.883  0.2406 -0.2342  0.1841
 3939TIP3    H233377   4.606   3.786   1.853  0.0503  0.8613 -0.6298
 3940TIP3   OH233378   6.368   4.945   8.677  0.3741 -0.4367 -0.2535
 3940TIP3    H133379   6.296   5.006   8.659 -1.4828 -2.7755 -1.4366
 3940TIP3    H233380   6.324   4.866   8.708  2.6967 -1.0740  1.7264
 3941TIP3   OH233381   4.287   1.972   1.525 -0.1440  0.1502 -0.0079
 3941TIP3    H133382   4.264   1.880   1.540 -1.0500  0.3597 -0.0497
 3941TIP3    H233383   4.318   2.003   1.610  1.4795 -0.5453 -0.3113
 3942TIP3   OH233384   2.717   1.023   0.577  0.8586  0.0037 -0.3390
 3942TIP3    H133385   2.658   1.090   0.614 -1.7648 -2.0694 -0.4185
 3942TIP3    H233386   2.757   0.983   0.654 -0.4263 -0.7289 -0.0228
 3943TIP3   OH233387   3.138   4.585   6.620 -0.0545 -0.1881 -0.0580
 3943TIP3    H133388   3.211   4.602   6.561 -0.1451  0.8492  0.1143
 3943TIP3    H233389   3.063   4.631   6.581 -0.9277 -2.1501 -0.8339
 3944TIP3   OH233390   4.143   2.290   1.970  0.1681  0.1230 -0.3726
 3944TIP3    H133391   4.076   2.225   1.990 -0.5799  0.7116 -0.9397
 3944TIP3    H233392   4.125   2.363   2.030  1.8886 -0.7252  1.3110
 3945TIP3   OH233393   2.656   0.226   2.159  0.6819  0.1105  1.0014
 3945TIP3    H133394   2.743   0.188   2.169 -0.4011 -2.4849  1.4712
 3945TIP3    H233395   2.597   0.150   2.157 -1.6520  1.7968  1.6324
 3946TIP3   OH233396   1.807   3.425   1.476 -0.2870  0.1878 -0.7202
 3946TIP3    H133397   1.726   3.393   1.516 -0.5130 -0.6534 -1.7943
 3946TIP3    H233398   1.808   3.518   1.495 -0.7875 -0.0300  0.5263
 3947TIP3   OH233399   2.922   4.495   6.788 -0.1354  0.4913  0.2571
 3947TIP3    H133400   3.003   4.465   6.748  0.8514  0.5332  2.1276
 3947TIP3    H233401   2.943   4.580   6.826 -1.3919  1.0388 -0.1865
 3948TIP3   OH233402   1.786   1.237   7.760  0.5393  0.0972 -0.3180
 3948TIP3    H133403   1.868   1.204   7.797  1.1655  2.1259  0.2488
 3948TIP3    H233404   1.770   1.319   7.807 -2.9815 -1.2130  1.0918
 3949TIP3   OH233405   0.226   6.563   2.454  0.4225  0.5166  0.3310
 3949TIP3    H133406   0.215   6.470   2.436 -1.4982  0.6647  0.5750
 3949TIP3    H233407   0.314   6.569   2.492  1.0467 -1.0068 -0.7290
 3950TIP3   OH233408   4.505   3.992   7.876  0.3272 -0.1126 -0.5003
 3950TIP3    H133409   4.505   3.961   7.967 -1.1553  0.9241 -0.1094
 3950TIP3    H233410   4.590   4.034   7.865  0.4449 -0.0711  0.4891
 3951TIP3   OH233411   4.640   6.109   8.840  0.4681  0.6607  0.0649
 3951TIP3    H133412   4.698   6.033   8.833 -1.2312 -0.5943 -1.4558
 3951TIP3    H233413   4.619   6.115   8.933 -0.9187 -2.0397  0.0295
 3952TIP3   OH233414   3.673   0.646   7.985  0.0198  0.2960 -0.5392
 3952TIP3    H133415   3.579   0.656   7.973 -0.1583  2.1190  1.7625
 3952TIP3    H233416   3.703   0.732   8.015  2.1933 -0.5919  0.0313
 3953TIP3   OH233417   0.347   5.147   1.583 -0.0553  0.2877 -0.7589
 3953TIP3    H133418   0.310   5.160   1.670 -2.1100 -1.3142 -1.3064
 3953TIP3    H233419   0.428   5.097   1.599 -1.0220 -1.0591  0.2091
 3954TIP3   OH233420   1.975   5.006   7.422 -0.4130 -0.3764  0.3942
 3954TIP3    H133421   1.959   5.039   7.510 -0.7132  2.2160 -0.5443
 3954TIP3    H233422   2.032   5.072   7.382 -1.6209 -0.5991 -1.8456
 3955TIP3   OH233423   2.720   6.055   2.441 -0.0988 -0.1195 -0.9906
 3955TIP3    H133424   2.763   6.129   2.484 -0.8262  0.1882 -0.7905
 3955TIP3    H233425   2.675   6.009   2.512  2.5542 -2.3835 -0.5616
 3956TIP3   OH233426   2.139   6.163   0.925  0.1575  0.1996  0.1256
 3956TIP3    H133427   2.072   6.153   0.993  0.7338 -0.6138  0.6073
 3956TIP3    H233428   2.104   6.115   0.850  0.0844 -0.0107  0.2911
 3957TIP3   OH233429   3.452   1.754   0.723 -0.1516 -0.0105  0.2696
 3957TIP3    H133430   3.445   1.783   0.632  1.3006  0.0396  0.1541
 3957TIP3    H233431   3.529   1.699   0.725  1.0206  1.5675  1.8449
 3958TIP3   OH233432   4.298   2.268   6.931  0.1732  0.1150 -0.2050
 3958TIP3    H133433   4.282   2.202   6.999 -1.1314  2.1055  1.5583
 3958TIP3    H233434   4.238   2.340   6.953  0.5482  1.3440 -2.8206
 3959TIP3   OH233435   3.750   4.418   8.547 -0.1398 -0.2138 -0.0758
 3959TIP3    H133436   3.708   4.461   8.622  0.5571 -1.7995  1.2953
 3959TIP3    H233437   3.810   4.355   8.586 -0.4082 -1.7527 -1.9729
 3960TIP3   OH233438   4.568   1.579   0.881 -0.0371  0.3606 -0.0141
 3960TIP3    H133439   4.489   1.593   0.829 -0.0749  0.3803  0.0479
 3960TIP3    H233440   4.535   1.560   0.969  0.0204  0.1256 -0.0436
 3961TIP3   OH233441   5.620   2.561   2.582 -0.1606  0.1113 -0.7978
 3961TIP3    H133442   5.660   2.474   2.579  0.6674  0.4546 -0.0900
 3961TIP3    H233443   5.528   2.546   2.563 -0.2438 -1.0788  0.4249
 3962TIP3   OH233444   1.145   4.197   7.646 -0.1402  0.8544  0.1392
 3962TIP3    H133445   1.087   4.143   7.700 -0.1997  0.1328 -0.6062
 3962TIP3    H233446   1.227   4.148   7.644 -0.2335  0.7172 -0.6547
 3963TIP3   OH233447   0.504   0.233   8.405  0.4017  0.5789 -0.7405
 3963TIP3    H133448   0.520   0.158   8.462 -1.4592 -1.6689 -2.9360
 3963TIP3    H233449   0.557   0.215   8.327 -1.0433  0.8307 -1.8256
 3964TIP3   OH233450   5.150   6.605   0.204  0.0919 -0.4022 -0.0874
 3964TIP3    H133451   5.151   6.684   0.150 -0.0942  0.7524  1.5156
 3964TIP3    H233452   5.239   6.571   0.197  0.8123  1.1603  0.8300
 3965TIP3   OH233453   0.269   1.297   6.189  0.3761 -0.6186 -0.0744
 3965TIP3    H133454   0.224   1.339   6.262  0.3893 -1.0273  0.1663
 3965TIP3    H233455   0.362   1.306   6.209  0.3655 -1.9355  0.6435
 3966TIP3   OH233456   0.399   4.157   1.404  0.0215  0.6014 -0.0636
 3966TIP3    H133457   0.442   4.221   1.461  0.4144 -0.1070  0.4602
 3966TIP3    H233458   0.315   4.141   1.446  0.9217 -1.0780  1.2424
 3967TIP3   OH233459   3.074   6.585   2.244  0.1387 -0.0641 -0.4024
 3967TIP3    H133460   3.047   6.494   2.255 -3.3210  0.8362 -0.2211
 3967TIP3    H233461   2.996   6.629   2.211  1.2374  3.1247  0.8741
 3968TIP3   OH233462   1.421   0.247   6.913  0.0646 -0.3292  0.5772
 3968TIP3    H133463   1.393   0.265   6.824 -1.9820  1.5325  1.4845
 3968TIP3    H233464   1.508   0.209   6.904 -0.2798 -0.6661 -2.1968
 3969TIP3   OH233465   0.655   2.040   0.968 -0.3973  0.6625  0.1978
 3969TIP3    H133466   0.580   2.093   0.998 -0.1777  0.1265  1.8235
 3969TIP3    H233467   0.685   1.996   1.047  1.4557  0.6158 -0.4980
 3970TIP3   OH233468   0.811   6.574   1.700  0.1274 -0.4723 -0.4176
 3970TIP3    H133469   0.824   6.556   1.793  1.3199 -2.1537 -0.8570
 3970TIP3    H233470   0.845   6.497   1.656  2.3575  1.4830 -2.4015
 3971TIP3   OH233471   6.343   6.039   2.268  0.0003  0.2472  0.1024
 3971TIP3    H133472   6.337   5.947   2.291  0.9023 -0.0655 -0.8200
 3971TIP3    H233473   6.383   6.081   2.344 -1.2333  0.0496  0.8777
 3972TIP3   OH233474   5.645   2.071   7.760 -0.0387 -0.6826 -0.2304
 3972TIP3    H133475   5.702   2.097   7.688 -0.8342 -1.2316 -1.0866
 3972TIP3    H233476   5.559   2.105   7.737 -0.5689 -1.8988 -0.1639
 3973TIP3   OH233477   6.115   2.445   2.444  0.1939 -0.4979 -0.3191
 3973TIP3    H133478   6.156   2.526   2.473 -0.9398  0.1808 -0.5399
 3973TIP3    H233479   6.187   2.383   2.437  1.4835  1.0680 -2.2926
 3974TIP3   OH233480   4.975   1.433   1.733 -0.3137  0.6524 -0.2227
 3974TIP3    H133481   4.915   1.469   1.798 -1.1788  1.1941 -1.2866
 3974TIP3    H233482   5.042   1.388   1.784 -1.4827  0.2527  1.0013
 3975TIP3   OH233483   5.086   4.707   8.002 -0.0063 -0.3538  0.1813
 3975TIP3    H133484   5.025   4.683   7.932  1.2464  2.9467 -2.3318
 3975TIP3    H233485   5.163   4.653   7.986  0.3835  0.5708 -1.3105
 3976TIP3   OH233486   1.808   0.825   0.716 -0.7801 -0.0979  0.5650
 3976TIP3    H133487   1.783   0.912   0.685  0.8500  0.7756  1.5258
 3976TIP3    H233488   1.846   0.783   0.639  1.1586  1.2015  0.7336
 3977TIP3   OH233489   5.303   2.022   7.898 -0.2701 -0.2054  0.4230
 3977TIP3    H133490   5.312   2.086   7.827  0.0019 -2.4754 -1.7330
 3977TIP3    H233491   5.374   2.043   7.959 -0.9812  2.2887  0.4956
 3978TIP3   OH233492   1.878   5.956   1.520  0.1828  0.2127  0.6446
 3978TIP3    H133493   1.794   5.923   1.490  0.4335  0.1050  0.0512
 3978TIP3    H233494   1.856   6.025   1.583 -0.3679  1.3214 -0.7199
 3979TIP3   OH233495   3.889   1.815   1.883  0.4555  0.0731  0.2281
 3979TIP3    H133496   3.894   1.833   1.977 -1.7262  1.1396  0.2016
 3979TIP3    H233497   3.842   1.732   1.877 -0.9906  0.8757  0.0772
 3980TIP3   OH233498   4.224   4.938   0.241  0.5617  0.1669  0.7116
 3980TIP3    H133499   4.138   4.981   0.234 -0.1733 -0.8543  2.5217
 3980TIP3    H233500   4.280   5.004   0.282  1.0016  1.2262 -1.4757
 3981TIP3   OH233501   1.724   1.096   7.526  0.1267 -0.0279 -0.4003
 3981TIP3    H133502   1.750   1.151   7.452  0.4366  0.6856  0.2221
 3981TIP3    H233503   1.725   1.156   7.601 -1.1535 -0.5053  0.0154
 3982TIP3   OH233504   1.629   3.157   8.010  0.7131 -0.6524 -0.3151
 3982TIP3    H133505   1.547   3.157   8.059  0.6835 -0.0071 -0.3617
 3982TIP3    H233506   1.629   3.073   7.964 -0.3976 -0.2421 -1.1008
 3983TIP3   OH233507   1.634   1.053   7.158 -0.3842 -0.6883 -0.0312
 3983TIP3    H133508   1.601   0.982   7.103 -1.3093 -1.5494  1.5567
 3983TIP3    H233509   1.556   1.088   7.201  0.1037  1.0834 -0.5205
 3984TIP3   OH233510   5.463   2.786   1.486  0.4508  0.2812 -0.7901
 3984TIP3    H133511   5.393   2.849   1.505  0.0349 -0.9543  2.4424
 3984TIP3    H233512   5.543   2.834   1.505  0.1174 -0.1466  2.3151
 3985TIP3   OH233513   2.689   2.497   6.509 -0.3569 -0.5598 -0.3636
 3985TIP3    H133514   2.759   2.559   6.490  0.6091 -1.8773 -1.2729
 3985TIP3    H233515   2.678   2.448   6.428 -0.8004 -1.8513  0.4499
 3986TIP3   OH233516   0.308   3.750   0.962 -0.0060 -0.1018  0.3562
 3986TIP3    H133517   0.252   3.770   0.887 -0.9541  0.5856  1.2211
 3986TIP3    H233518   0.268   3.796   1.036  1.5746  0.2327  1.0649
 3987TIP3   OH233519   1.200   1.011   0.143 -0.0268  0.4985  0.0829
 3987TIP3    H133520   1.198   1.053   0.057 -0.4029 -2.2773 -1.3802
 3987TIP3    H233521   1.114   1.032   0.181 -1.5770 -1.4796 -2.0173
 3988TIP3   OH233522   4.476   0.852   1.031 -0.3572 -0.6675  0.5558
 3988TIP3    H133523   4.487   0.943   1.059  0.3060 -1.1537  1.9943
 3988TIP3    H233524   4.561   0.829   0.994 -0.6046 -0.6269 -0.0341
 3989TIP3   OH233525   6.311   2.218   0.689 -0.8787 -0.1743 -0.0746
 3989TIP3    H133526   6.330   2.290   0.630  1.1054  1.0208  1.8790
 3989TIP3    H233527   6.275   2.149   0.632  0.1977  1.1488 -2.5034
 3990TIP3   OH233528   6.411   1.579   8.741  0.7927 -0.1656 -0.9821
 3990TIP3    H133529   6.333   1.534   8.774  2.6967 -2.5252  0.6427
 3990TIP3    H233530   6.432   1.644   8.808  0.9449 -0.4300 -0.7720
 3991TIP3   OH233531   2.543   3.430   7.765 -0.2824  0.2645 -0.6046
 3991TIP3    H133532   2.570   3.424   7.856 -2.6123  0.8822  0.2084
 3991TIP3    H233533   2.602   3.494   7.726 -0.8505  1.9684  1.1765
 3992TIP3   OH233534   2.289   6.520   0.693  0.3736 -0.1379  0.1938
 3992TIP3    H133535   2.218   6.483   0.746  0.3726  0.9571  0.9954
 3992TIP3    H233536   2.315   6.449   0.635 -2.1622 -0.2265 -0.9599
 3993TIP3   OH233537   2.392   5.715   6.838 -0.5118  0.2454  0.3600
 3993TIP3    H133538   2.427   5.794   6.796 -0.4566  1.1715  2.0565
 3993TIP3    H233539   2.412   5.727   6.931 -0.3106 -1.8947  0.6353
 3994TIP3   OH233540   4.928   0.244   0.406  0.2785 -0.0979 -0.0778
 3994TIP3    H133541   5.023   0.241   0.415  0.1861 -1.0111  0.7596
 3994TIP3    H233542   4.894   0.210   0.489 -0.8048  1.2005  0.0446
 3995TIP3   OH233543   4.569   5.251   0.881 -0.3325 -0.2232  0.0751
 3995TIP3    H133544   4.662   5.264   0.902 -0.8974 -0.5950  3.3644
 3995TIP3    H233545   4.548   5.325   0.823  2.0407 -0.3328 -1.0748
 3996TIP3   OH233546   1.973   5.761   1.261 -0.0849  0.3322 -0.5890
 3996TIP3    H133547   1.908   5.791   1.197 -0.0324  0.6755 -0.4856
 3996TIP3    H233548   1.985   5.836   1.319  0.2723  0.2087 -0.5010
 3997TIP3   OH233549   1.008   0.834   8.822 -0.1593 -0.0121 -0.0537
 3997TIP3    H133550   0.993   0.834   8.916 -1.9226 -2.0565 -0.2624
 3997TIP3    H233551   1.099   0.864   8.812  0.2972 -0.4208  2.3354
 3998TIP3   OH233552   5.285   0.136   1.482  0.0230 -0.3833 -0.4331
 3998TIP3    H133553   5.283   0.120   1.576 -1.7247  3.8739  0.4491
 3998TIP3    H233554   5.363   0.189   1.468 -0.2555 -0.1654 -1.2410
 3999TIP3   OH233555   1.221   0.299   7.091 -0.8609  0.7267 -0.0739
 3999TIP3    H133556   1.287   0.320   7.025 -0.9980  1.8801  0.1420
 3999TIP3    H233557   1.163   0.236   7.047  2.2254 -3.1253  0.8080
 4000TIP3   OH233558   4.238   0.041   1.222  0.3406 -0.1578 -0.1717
 4000TIP3    H133559   4.185  -0.039   1.227 -0.5427  0.5124  2.2198
 4000TIP3    H233560   4.326   0.012   1.247 -0.5603  0.0004  3.8006
 4001TIP3   OH233561   1.770   6.303   0.280  0.1858  0.3058  0.4743
 4001TIP3    H133562   1.796   6.224   0.329  1.0336 -0.4742 -1.1585
 4001TIP3    H233563   1.853   6.346   0.258 -0.1494  0.4826 -0.4952
 4002TIP3   OH233564   1.242   0.002   1.376 -0.2231 -0.2322 -0.6795
 4002TIP3    H133565   1.201  -0.083   1.387 -0.7179 -0.0510 -1.0858
 4002TIP3    H233566   1.174   0.065   1.401  0.0661  0.0508 -0.5909
 4003TIP3   OH233567   0.380   2.994   6.825  0.3148 -0.0505  0.2402
 4003TIP3    H133568   0.398   2.942   6.902  1.1041 -0.4569 -0.2050
 4003TIP3    H233569   0.466   3.008   6.784 -0.1711 -0.6014 -1.0347
 4004TIP3   OH233570   4.958   2.380   1.026  0.4597  0.1593  0.4696
 4004TIP3    H133571   4.970   2.285   1.025  1.7025  0.2331 -2.5630
 4004TIP3    H233572   5.029   2.414   0.972 -1.2540  2.5995 -0.4521
 4005TIP3   OH233573   4.370   2.197   2.330 -0.1490  0.2433 -0.4771
 4005TIP3    H133574   4.356   2.232   2.242  1.5821  0.1035 -0.8299
 4005TIP3    H233575   4.414   2.267   2.377  0.0104 -0.1211 -0.0751
 4006TIP3   OH233576   3.168   5.201   7.965  0.4119  0.1289 -0.3782
 4006TIP3    H133577   3.244   5.143   7.968  0.3200 -0.2358 -2.9733
 4006TIP3    H233578   3.107   5.164   8.030  2.2280  0.2238  1.4898
 4007TIP3   OH233579   3.664   0.369   6.774 -0.2345 -0.8287 -0.0346
 4007TIP3    H133580   3.757   0.373   6.751 -0.4882 -1.5735 -1.2381
 4007TIP3    H233581   3.655   0.431   6.846  1.4294 -1.6261  0.9233
 4008TIP3   OH233582   6.629   3.571   0.131  0.6640  0.6881  0.7103
 4008TIP3    H133583   6.548   3.598   0.174 -0.7318 -0.6481 -0.9134
 4008TIP3    H233584   6.641   3.635   0.060 -0.5846 -0.6846 -0.8059
 4009TIP3   OH233585   2.947   5.961   8.764  0.4171 -0.7141  0.1779
 4009TIP3    H133586   2.985   5.923   8.843  0.3494  0.0642  0.5956
 4009TIP3    H233587   2.919   6.049   8.791 -1.1188 -1.0276 -0.2673
 4010TIP3   OH233588   5.347   3.499   2.656  0.5574  0.6549 -0.1731
 4010TIP3    H133589   5.256   3.516   2.632  0.3250 -0.8439 -0.4423
 4010TIP3    H233590   5.375   3.579   2.701 -0.7814  1.2628 -0.3655
 4011TIP3   OH233591   6.255   3.635   8.835  0.4903 -0.4409  0.8045
 4011TIP3    H133592   6.185   3.619   8.771 -0.3564 -1.1960  1.8718
 4011TIP3    H233593   6.336   3.629   8.784 -0.2033  0.2939 -0.4352
 4012TIP3   OH233594   0.572   6.393   7.719 -0.1582 -0.0385 -0.3108
 4012TIP3    H133595   0.586   6.378   7.626 -1.8192  1.8884 -0.9682
 4012TIP3    H233596   0.619   6.474   7.738  0.5969 -0.6831  0.6797
 4013TIP3   OH233597   2.095   5.418   8.618 -0.1534 -0.0720  0.2082
 4013TIP3    H133598   2.023   5.361   8.592 -1.1451  0.9442  0.6741
 4013TIP3    H233599   2.077   5.501   8.573 -0.8524  1.1034  2.5162
 4014TIP3   OH233600   1.695   6.031   1.877  0.7614  0.1874  0.2455
 4014TIP3    H133601   1.657   6.037   1.965 -0.9625 -0.4049 -0.4030
 4014TIP3    H233602   1.756   5.957   1.883  0.5867  0.0852  0.9215
 4015TIP3   OH233603   5.363   6.502   7.758  0.7674 -0.1223 -0.5272
 4015TIP3    H133604   5.354   6.444   7.834  2.3873  1.3049  0.8335
 4015TIP3    H233605   5.288   6.561   7.764 -1.1336 -2.1465 -2.1520
 4016TIP3   OH233606   6.226   3.481   1.668  0.1762 -0.3830  0.4048
 4016TIP3    H133607   6.182   3.498   1.752 -0.9475  1.3086 -0.4669
 4016TIP3    H233608   6.174   3.412   1.627 -1.3031  1.0719 -0.2825
 4017TIP3   OH233609   0.929   5.881   7.295 -0.1165  0.2575 -0.1124
 4017TIP3    H133610   0.837   5.883   7.321 -0.3738  0.8700 -1.0284
 4017TIP3    H233611   0.931   5.925   7.210  1.1836  1.2535  0.3939
 4018TIP3   OH233612   1.698   5.011   7.365  0.4833 -0.0124 -0.2229
 4018TIP3    H133613   1.794   5.001   7.369  0.4201 -0.4583  0.3306
 4018TIP3    H233614   1.674   5.046   7.450 -0.0707 -2.1015  0.5582
 4019TIP3   OH233615   1.720   0.962   1.505 -0.1889 -0.1160 -0.1504
 4019TIP3    H133616   1.771   0.988   1.582 -1.5711  0.6516  0.5601
 4019TIP3    H233617   1.648   1.024   1.503 -2.0974 -2.1758 -0.0443
 4020TIP3   OH233618   2.088   1.719   6.814  0.0904  0.6495  0.0843
 4020TIP3    H133619   2.167   1.682   6.855 -0.4257 -1.5899 -0.8377
 4020TIP3    H233620   2.114   1.734   6.723 -0.2377  0.9338  0.0382
 4021TIP3   OH233621   0.428   0.730   6.930  0.0503  0.1653 -0.0060
 4021TIP3    H133622   0.435   0.736   7.026  4.5074 -1.8483  0.0755
 4021TIP3    H233623   0.463   0.813   6.898  0.7563 -0.0367  0.2085
 4022TIP3   OH233624   0.133   6.066   7.795  0.7804 -0.1096 -0.0449
 4022TIP3    H133625   0.104   6.041   7.707  1.2259 -1.1374  0.0915
 4022TIP3    H233626   0.160   6.157   7.785 -3.2054  1.2745  0.0112
 4023TIP3   OH233627   0.625   1.707   7.137 -0.0748  0.4082 -0.7127
 4023TIP3    H133628   0.549   1.748   7.178 -0.2603 -0.5768 -0.0295
 4023TIP3    H233629   0.666   1.777   7.085 -0.6418  1.3151  0.0368
 4024TIP3   OH233630   0.589   1.977   7.402  0.4208 -0.0148  0.2093
 4024TIP3    H133631   0.510   1.952   7.448  1.1382 -0.0116  1.4773
 4024TIP3    H233632   0.561   2.047   7.343 -0.7048 -0.7143 -0.1099
 4025TIP3   OH233633   0.029   4.630   7.550 -0.3666  0.1256 -0.1189
 4025TIP3    H133634  -0.065   4.627   7.568 -0.0962  1.3288  1.9554
 4025TIP3    H233635   0.045   4.722   7.528  0.4639  0.1708  0.6346
 4026TIP3   OH233636   1.835   1.616   0.934 -0.5371 -0.6052 -0.1316
 4026TIP3    H133637   1.773   1.544   0.921 -0.2266 -1.0390  0.7484
 4026TIP3    H233638   1.885   1.619   0.852 -0.9161 -1.0236 -0.3835
 4027TIP3   OH233639   5.690   0.371   8.483  0.3718  0.4852  0.3086
 4027TIP3    H133640   5.735   0.360   8.399 -0.4725  2.1631 -0.4103
 4027TIP3    H233641   5.755   0.344   8.549  0.9081 -1.2699 -0.8650
 4028TIP3   OH233642   2.583   1.740   2.277  0.4034  0.5371  0.2845
 4028TIP3    H133643   2.567   1.817   2.222 -1.9450  0.8036  1.2412
 4028TIP3    H233644   2.598   1.669   2.214  0.7787  1.3899 -0.6283
 4029TIP3   OH233645   5.352   2.224   8.405  0.2967  0.3572  0.0430
 4029TIP3    H133646   5.318   2.196   8.490  0.3201 -0.5102 -0.2222
 4029TIP3    H233647   5.446   2.210   8.411  0.2725  0.0742 -0.1967
 4030TIP3   OH233648   5.278   5.548   8.191  0.0473 -0.0450  0.4853
 4030TIP3    H133649   5.219   5.477   8.167 -2.0902  1.8117 -0.1668
 4030TIP3    H233650   5.235   5.591   8.265  2.1018 -0.3177  1.9322
 4031TIP3   OH233651   2.497   0.040   1.853 -0.4979 -0.4816 -0.2621
 4031TIP3    H133652   2.516   0.133   1.860  1.0270 -0.6422 -1.5624
 4031TIP3    H233653   2.465   0.029   1.763 -1.4432 -1.1003  0.1359
 4032TIP3   OH233654   1.044   0.841   1.501 -0.3796 -0.0743  0.4359
 4032TIP3    H133655   1.068   0.764   1.448 -3.0391 -1.5058  1.1394
 4032TIP3    H233656   0.955   0.822   1.531 -2.2361  4.3724 -1.3849
 4033TIP3   OH233657   3.852   1.503   1.905 -0.5559 -0.2721  0.5174
 4033TIP3    H133658   3.834   1.413   1.934  3.3489 -1.3133  0.2178
 4033TIP3    H233659   3.920   1.535   1.964  0.6156  1.1697 -1.4723
 4034TIP3   OH233660   2.399   0.703   1.893 -0.0499  0.2309 -0.2042
 4034TIP3    H133661   2.462   0.672   1.959 -0.4213  1.0977  0.5757
 4034TIP3    H233662   2.359   0.622   1.860 -0.4030 -0.2025  1.1905
 4035TIP3   OH233663   0.685   4.007   7.824 -0.2938 -0.2687  0.6824
 4035TIP3    H133664   0.650   4.069   7.760 -1.6240 -1.0026  0.6735
 4035TIP3    H233665   0.780   4.008   7.808 -0.6920 -1.8359 -2.6575
 4036TIP3   OH233666   3.972   5.048   1.653  0.0922 -0.4910 -0.2110
 4036TIP3    H133667   3.977   4.956   1.626 -2.1962 -0.6527 -0.2927
 4036TIP3    H233668   3.957   5.044   1.748 -0.6952 -0.2414 -0.3186
 4037TIP3   OH233669   6.725   6.261   1.147  0.2775 -0.5302  0.2331
 4037TIP3    H133670   6.643   6.285   1.191 -0.2531  0.9972 -1.4232
 4037TIP3    H233671   6.747   6.338   1.095  2.4602 -1.1518  0.1616
 4038TIP3   OH233672   3.602   2.187   7.124  0.3970 -0.3205  0.1307
 4038TIP3    H133673   3.670   2.121   7.137  2.8956  2.1153  0.4069
 4038TIP3    H233674   3.645   2.270   7.146 -1.9109  1.6464 -2.1285
 4039TIP3   OH233675   1.195   5.484   1.320  0.2157 -0.7229  0.5697
 4039TIP3    H133676   1.182   5.578   1.313  0.3883 -0.7826 -0.9005
 4039TIP3    H233677   1.260   5.464   1.253 -0.3158 -1.9803  0.4029
 4040TIP3   OH233678   2.567   4.202   8.764 -0.2820  0.4972 -0.2306
 4040TIP3    H133679   2.543   4.166   8.850 -0.6242 -0.9702 -0.9196
 4040TIP3    H233680   2.560   4.128   8.704  4.2303  0.3120 -0.8610
 4041TIP3   OH233681   5.242   5.036   0.321 -0.3363 -0.6607 -0.0338
 4041TIP3    H133682   5.303   4.976   0.365  1.4736  1.3577  0.3865
 4041TIP3    H233683   5.290   5.070   0.246 -1.8634 -0.8236 -1.1396
 4042TIP3   OH233684   1.841   3.340   0.026  0.0068  0.0676  0.0074
 4042TIP3    H133685   1.832   3.253   0.063 -0.6252  0.4341  0.7555
 4042TIP3    H233686   1.773   3.345  -0.041 -0.9017  0.4413  0.9172
 4043TIP3   OH233687   0.313   1.357   7.138 -0.3326  0.0256 -0.5938
 4043TIP3    H133688   0.257   1.295   7.091 -0.0260 -1.4317  0.8633
 4043TIP3    H233689   0.370   1.393   7.070 -0.2576 -1.5888 -1.4486
 4044TIP3   OH233690   3.438   3.215   8.443  0.3742 -0.0102 -0.4767
 4044TIP3    H133691   3.410   3.285   8.383 -0.8509 -1.4636 -1.6997
 4044TIP3    H233692   3.358   3.191   8.490  0.8760 -0.3087  0.2361
 4045TIP3   OH233693   0.606   2.503   8.556  0.5051  0.2521 -0.2760
 4045TIP3    H133694   0.572   2.528   8.642 -1.2011  1.1710 -1.1490
 4045TIP3    H233695   0.670   2.435   8.574 -0.5037 -0.2594  1.6503
 4046TIP3   OH233696   4.814   4.056   8.155  0.0443 -0.0646  0.3763
 4046TIP3    H133697   4.725   4.048   8.189  0.0485 -1.0173  0.2136
 4046TIP3    H233698   4.803   4.051   8.060  0.3625 -1.6114  0.3882
 4047TIP3   OH233699   3.912   2.396   0.909 -0.1275  0.3222  0.4416
 4047TIP3    H133700   3.994   2.386   0.861  0.3210  1.2425  0.9827
 4047TIP3    H233701   3.855   2.328   0.874  1.5948 -1.8708  1.6545
 4048TIP3   OH233702   1.434   1.225   0.774 -0.5924  0.1630  0.2630
 4048TIP3    H133703   1.420   1.219   0.868 -1.0919 -2.1784  0.1130
 4048TIP3    H233704   1.392   1.147   0.739  1.1567  0.0085 -1.7094
 4049TIP3   OH233705   4.555   2.974   0.191  0.3964  0.5084 -0.0193
 4049TIP3    H133706   4.505   2.929   0.260  1.6146  0.7923  1.0855
 4049TIP3    H233707   4.509   3.057   0.178 -1.6640 -0.8073 -1.8117
 4050TIP3   OH233708   4.093   0.744   7.527  0.0579  0.1382 -0.4458
 4050TIP3    H133709   4.066   0.683   7.458  0.0300 -0.7226  0.3142
 4050TIP3    H233710   4.020   0.806   7.533 -0.6569 -0.7131 -0.1115
 4051TIP3   OH233711   2.688   0.242   0.325 -0.5511  0.5279 -0.1520
 4051TIP3    H133712   2.765   0.299   0.313 -1.5438  1.4610 -2.9594
 4051TIP3    H233713   2.613   0.302   0.321 -1.5073 -0.4269  2.0698
 4052TIP3   OH233714   1.717   2.516   7.507 -0.4777 -0.2380  0.4906
 4052TIP3    H133715   1.798   2.504   7.458 -0.2077 -0.1065  0.8979
 4052TIP3    H233716   1.679   2.596   7.472  0.0478  0.2181  0.9457
 4053TIP3   OH233717   0.147   0.762   8.411  0.1690  0.1769 -0.0965
 4053TIP3    H133718   0.150   0.839   8.468 -3.3536 -0.4230  1.1502
 4053TIP3    H233719   0.172   0.796   8.325 -1.8761  2.9297  0.2553
 4054TIP3   OH233720   2.907   0.981   7.348 -0.3007  0.2259 -0.2596
 4054TIP3    H133721   2.823   1.000   7.391 -0.5116  1.5514 -1.1745
 4054TIP3    H233722   2.921   1.056   7.289  1.1766 -0.3269 -0.6585
 4055TIP3   OH233723   5.340   1.703   6.541 -0.0086  0.6195 -0.8803
 4055TIP3    H133724   5.434   1.721   6.544 -0.0108  0.5255  1.6660
 4055TIP3    H233725   5.300   1.782   6.577 -0.8825  0.4332 -1.4166
 4056TIP3   OH233726   2.153   4.874   8.723 -0.2283  0.4174 -0.5169
 4056TIP3    H133727   2.189   4.875   8.812 -1.0658 -1.3579 -0.1029
 4056TIP3    H233728   2.058   4.876   8.735 -0.3346  1.0098 -1.4105
 4057TIP3   OH233729   0.341   0.730   7.981 -0.0143 -0.6634  0.1283
 4057TIP3    H133730   0.424   0.741   7.935  0.3133 -2.2843  0.2693
 4057TIP3    H233731   0.277   0.771   7.923  0.7607 -0.1991 -0.4273
 4058TIP3   OH233732   3.837   3.777   1.637  0.6385  0.0823 -0.1991
 4058TIP3    H133733   3.813   3.869   1.648  0.6999 -0.0628  1.4552
 4058TIP3    H233734   3.753   3.731   1.640  0.7247 -0.0384  0.7978
 4059TIP3   OH233735   4.387   2.933   8.538  0.3677  0.5285 -0.6987
 4059TIP3    H133736   4.297   2.925   8.571  0.3881  1.0548 -0.5096
 4059TIP3    H233737   4.413   2.843   8.518 -1.2773  0.5796 -3.6906
 4060TIP3   OH233738   6.370   5.084   0.997 -0.2026 -0.5392  0.3963
 4060TIP3    H133739   6.371   5.096   0.902  0.5067 -1.6595  0.2516
 4060TIP3    H233740   6.331   4.998   1.010 -0.2780 -0.3996  1.1232
 4061TIP3   OH233741   2.908   2.079   0.154 -0.0091 -0.2565 -0.4635
 4061TIP3    H133742   2.871   2.128   0.227  2.9514  2.2361 -0.4254
 4061TIP3    H233743   2.881   2.126   0.076 -0.4343 -0.9785 -0.7650
 4062TIP3   OH233744   2.816   3.672   6.848  0.5283  0.8599  0.1937
 4062TIP3    H133745   2.908   3.699   6.847  0.3229  1.5990  0.0423
 4062TIP3    H233746   2.769   3.751   6.819 -0.0900  0.2690 -0.4418
 4063TIP3   OH233747   1.900   6.404   1.689 -0.0971  0.3892  0.6778
 4063TIP3    H133748   1.974   6.352   1.659 -0.9625  0.2073 -1.3067
 4063TIP3    H233749   1.915   6.491   1.652 -0.9076  0.3123  0.1288
 4064TIP3   OH233750   5.653   3.096   7.767  0.3191 -0.1175 -0.4681
 4064TIP3    H133751   5.658   3.053   7.682 -0.7162 -0.6158 -0.2924
 4064TIP3    H233752   5.621   3.184   7.748 -2.8284 -1.1109 -0.4058
 4065TIP3   OH233753   1.852   4.144   8.165  0.5149  0.0830  0.1007
 4065TIP3    H133754   1.888   4.209   8.106 -0.5468  1.2001  0.6419
 4065TIP3    H233755   1.805   4.083   8.107  1.0438  0.1008 -0.3556
 4066TIP3   OH233756   4.995   2.042   8.189 -0.1584  0.6997 -0.7112
 4066TIP3    H133757   5.041   2.110   8.238 -1.0893  0.2463  0.8780
 4066TIP3    H233758   5.065   1.990   8.149  0.8352 -0.3477  2.1361
 4067TIP3   OH233759   1.067   1.574   7.592 -0.3932  0.1147  0.3833
 4067TIP3    H133760   1.145   1.624   7.567 -0.7465  0.3847 -0.2079
 4067TIP3    H233761   1.070   1.496   7.536 -0.3609 -0.0436  0.6071
 4068TIP3   OH233762   3.335   4.870   2.291  0.3816 -0.0686  0.3036
 4068TIP3    H133763   3.337   4.932   2.364  0.3590  3.0448 -2.1185
 4068TIP3    H233764   3.269   4.907   2.231 -0.6324 -3.2515 -0.7152
 4069TIP3   OH233765   1.291   6.660   8.250  0.6965  0.0358  0.0802
 4069TIP3    H133766   1.243   6.653   8.332 -1.6156  1.2604 -1.0671
 4069TIP3    H233767   1.364   6.718   8.271 -0.3521  1.0535  1.1138
 4070TIP3   OH233768   0.251   3.061   1.789 -0.2418  0.0405  0.2057
 4070TIP3    H133769   0.341   3.033   1.774 -0.7109 -2.2962  1.3421
 4070TIP3    H233770   0.216   3.076   1.701  1.0297  0.2670 -0.2850
 4071TIP3   OH233771   0.817   5.681   8.818  1.1281 -0.5643  0.0536
 4071TIP3    H133772   0.843   5.772   8.832 -0.5362 -0.1949  1.0583
 4071TIP3    H233773   0.883   5.630   8.865  1.1732  0.2315  0.8935
 4072TIP3   OH233774   4.233   1.896   6.674 -0.6349 -0.6038 -0.6959
 4072TIP3    H133775   4.258   1.830   6.609  0.4163 -0.8568 -0.0585
 4072TIP3    H233776   4.316   1.937   6.699 -0.9751 -0.8003  0.7891
 4073TIP3   OH233777   5.130   1.287   7.843 -0.2424 -0.2567 -0.4890
 4073TIP3    H133778   5.097   1.219   7.784  1.9527 -1.1395 -0.7874
 4073TIP3    H233779   5.184   1.240   7.907  0.5327  1.0866 -0.1062
 4074TIP3   OH233780   2.665   6.026   0.813  0.0962  0.1949 -0.0901
 4074TIP3    H133781   2.757   6.013   0.788  0.4039  0.7425  0.7216
 4074TIP3    H233782   2.623   6.058   0.734  0.6839  0.2802 -0.3765
 4075TIP3   OH233783   3.928   3.296   0.568 -0.0852 -0.7469 -0.0078
 4075TIP3    H133784   4.017   3.332   0.572  0.4826 -2.0768  0.0278
 4075TIP3    H233785   3.879   3.345   0.634  0.0599  1.4059 -1.3991
 4076TIP3   OH233786   1.393   3.194   1.047  0.3355  0.5227  0.1875
 4076TIP3    H133787   1.370   3.104   1.072  0.3009  0.2885 -0.6604
 4076TIP3    H233788   1.338   3.212   0.971 -0.1801  1.5240  0.7764
 4077TIP3   OH233789   0.774   1.626   7.643 -0.1821  0.5344  0.3171
 4077TIP3    H133790   0.705   1.644   7.579 -1.6158 -0.7654  1.4369
 4077TIP3    H233791   0.853   1.664   7.604 -0.8501 -0.7568 -2.5380
 4078TIP3   OH233792   1.100   6.557   1.385  0.5795 -0.5025  0.2369
 4078TIP3    H133793   1.149   6.507   1.319  0.8896 -0.4096  0.3914
 4078TIP3    H233794   1.037   6.495   1.420 -0.9455 -0.0286 -1.5203
 4079TIP3   OH233795   4.860   1.140   7.617 -0.0333 -0.5001  0.0057
 4079TIP3    H133796   4.902   1.061   7.584  0.9826  0.1055 -0.1860
 4079TIP3    H233797   4.885   1.209   7.556 -2.5065 -0.3478 -0.9692
 4080TIP3   OH233798   3.257   2.607   8.098 -0.1512 -0.4696 -0.3894
 4080TIP3    H133799   3.323   2.675   8.085  1.5546 -2.1440 -0.9190
 4080TIP3    H233800   3.196   2.644   8.162  1.2269  1.1938  0.0238
 4081TIP3   OH233801   2.017   2.366   1.483 -1.0918 -0.3975  0.1350
 4081TIP3    H133802   1.956   2.293   1.468 -2.0298  0.2060  0.9008
 4081TIP3    H233803   2.010   2.384   1.577  0.4524 -0.4546  0.2951
 4082TIP3   OH233804   5.683   1.418   8.283  0.3559  0.5029  0.1153
 4082TIP3    H133805   5.764   1.441   8.329  0.6968 -1.4892  0.5699
 4082TIP3    H233806   5.701   1.442   8.191  1.6536 -0.3465  0.1178
 4083TIP3   OH233807   2.977   1.004   2.195 -0.6002 -0.4319 -0.1364
 4083TIP3    H133808   2.998   0.914   2.172  0.7303  0.0147 -0.7445
 4083TIP3    H233809   2.881   1.006   2.199 -0.6797 -1.6513 -1.0183
 4084TIP3   OH233810   2.436   3.044   1.241  0.0756  0.0940  0.8038
 4084TIP3    H133811   2.466   3.104   1.309  0.7751 -1.6761  2.1605
 4084TIP3    H233812   2.502   2.975   1.240 -1.1165 -1.0894 -0.0820
 4085TIP3   OH233813   1.979   6.472   2.474  0.0426 -0.6476 -0.5820
 4085TIP3    H133814   2.049   6.469   2.538 -0.3614  1.3670  0.0465
 4085TIP3    H233815   1.924   6.397   2.494  0.0350 -0.1834  1.3461
 4086TIP3   OH233816   0.558   1.260   8.531 -0.2132  0.4438  0.0345
 4086TIP3    H133817   0.582   1.183   8.480  1.4100  1.6961 -1.2205
 4086TIP3    H233818   0.572   1.234   8.622  0.4757 -0.6882 -0.3712
 4087TIP3   OH233819   4.029   0.482   0.424  0.0101  0.0779  0.0197
 4087TIP3    H133820   4.021   0.488   0.329  1.1471  0.5704 -0.0586
 4087TIP3    H233821   4.009   0.570   0.456  1.7264  0.4916  0.0488
 4088TIP3   OH233822   2.046   0.727   7.794  0.5155  0.4740 -0.4861
 4088TIP3    H133823   2.109   0.669   7.838 -1.1846 -0.4106  0.8960
 4088TIP3    H233824   2.097   0.768   7.724  2.4052 -0.8416  0.0267
 4089TIP3   OH233825   0.093   6.518   8.242  0.2831  1.0216  0.9439
 4089TIP3    H133826   0.117   6.477   8.325  0.3267 -0.8774  0.0433
 4089TIP3    H233827   0.176   6.547   8.205  0.6589 -0.7245  0.2958
 4090TIP3   OH233828   2.737   0.619   1.143 -0.6797  0.2655  0.4074
 4090TIP3    H133829   2.776   0.704   1.163  1.2032 -0.2162 -1.0306
 4090TIP3    H233830   2.644   0.638   1.132 -0.4295  1.9706  0.9694
 4091TIP3   OH233831   0.976   5.910   1.630  0.4964  0.0351 -0.4431
 4091TIP3    H133832   0.919   5.835   1.649  1.5961 -0.7069  0.0134
 4091TIP3    H233833   0.985   5.955   1.714  0.3970  0.2994 -0.5711
 4092TIP3   OH233834   5.661   2.013   7.194  0.3082 -0.3816 -0.2426
 4092TIP3    H133835   5.651   2.103   7.224  0.1428 -0.8121  1.0521
 4092TIP3    H233836   5.593   1.964   7.241  0.6911 -1.2528 -0.5767
 4093TIP3   OH233837   4.307   4.197   6.480  0.3282  0.2352 -0.0775
 4093TIP3    H133838   4.371   4.194   6.551 -1.1586  0.0539  1.3455
 4093TIP3    H233839   4.304   4.289   6.454  1.7267  0.1110 -0.7450
 4094TIP3   OH233840   0.963   4.370   0.541 -0.7618  0.0295  0.3455
 4094TIP3    H133841   0.916   4.369   0.458  1.0612  1.7797 -0.7933
 4094TIP3    H233842   0.956   4.461   0.571  0.5255 -0.0373  0.9201
 4095TIP3   OH233843   6.431   5.202   2.051 -0.2360  0.4448  0.3379
 4095TIP3    H133844   6.484   5.242   1.982  0.0696  2.6834  1.7692
 4095TIP3    H233845   6.341   5.211   2.021 -0.0320  0.1539 -0.3711
 4096TIP3   OH233846   6.295   1.836   7.894 -0.0147  0.0639  0.6024
 4096TIP3    H133847   6.223   1.780   7.924  0.1669 -1.2162 -1.1902
 4096TIP3    H233848   6.373   1.796   7.932  0.1946 -1.4302 -1.2856
 4097TIP3   OH233849   0.259   3.419   0.522 -0.6806  0.6680  0.3424
 4097TIP3    H133850   0.213   3.503   0.517  0.7607  1.5834  1.7324
 4097TIP3    H233851   0.346   3.440   0.556  0.5713 -1.0973 -1.5297
 4098TIP3   OH233852   0.531   0.289   1.067  0.3065 -0.8668 -0.4616
 4098TIP3    H133853   0.619   0.254   1.081  0.7616 -0.3109 -1.8025
 4098TIP3    H233854   0.501   0.250   0.985  0.9360  1.9374 -2.1775
 4099TIP3   OH233855   0.951   1.898   0.893 -0.0785 -0.0000 -0.4522
 4099TIP3    H133856   0.866   1.876   0.931 -1.4770 -0.1869 -3.4070
 4099TIP3    H233857   1.002   1.817   0.901 -1.1720 -0.7752 -1.0799
 4100TIP3   OH233858   6.102   4.731   0.236 -0.2968 -0.1371  0.2267
 4100TIP3    H133859   6.177   4.780   0.270 -0.1165  0.3026 -0.7639
 4100TIP3    H233860   6.026   4.783   0.261 -0.1319  0.4573 -0.4666
 4101TIP3   OH233861   6.625   3.930   7.103  0.0382 -0.5137 -0.5810
 4101TIP3    H133862   6.613   3.992   7.175 -0.2762  0.6866 -1.6217
 4101TIP3    H233863   6.649   3.985   7.029 -2.7821 -1.2730 -2.2256
 4102TIP3   OH233864   1.085   1.644   0.978 -0.5288 -0.0467 -0.5163
 4102TIP3    H133865   1.140   1.662   0.902 -0.8023  0.2403 -0.6439
 4102TIP3    H233866   1.019   1.583   0.946 -1.5488  1.2079 -0.8962
 4103TIP3   OH233867   4.027   6.468   8.157 -0.4419  0.0413  0.2121
 4103TIP3    H133868   3.998   6.536   8.218  0.7952  1.8013 -1.0779
 4103TIP3    H233869   3.979   6.487   8.076 -1.5858 -1.8815  0.3742
 4104TIP3   OH233870   0.801   2.237   1.467  0.1177  0.1210 -0.2905
 4104TIP3    H133871   0.802   2.158   1.521  1.3894 -0.7580 -1.5222
 4104TIP3    H233872   0.726   2.287   1.500  0.1099 -0.9301  1.4381
 4105TIP3   OH233873   5.087   6.093   1.198 -0.0782  0.0260 -0.1690
 4105TIP3    H133874   5.104   6.186   1.187 -1.1996  0.1548 -0.9324
 4105TIP3    H233875   5.170   6.057   1.231  0.8352  1.0340 -1.3003
 4106TIP3   OH233876   5.787   6.582   7.939  0.2268  0.1162  0.2021
 4106TIP3    H133877   5.820   6.641   7.871  0.5780 -0.6528 -0.3010
 4106TIP3    H233878   5.778   6.638   8.017  0.4459  0.8543 -0.2959
 4107TIP3   OH233879   6.001   5.378   8.346  0.0523  0.5385  0.9613
 4107TIP3    H133880   6.016   5.468   8.319  1.0939  0.4796  1.3062
 4107TIP3    H233881   5.923   5.351   8.297 -0.8548  1.9202  1.5949
 4108TIP3   OH233882   2.583   4.127   0.444  0.3799 -0.2476  0.1998
 4108TIP3    H133883   2.658   4.186   0.449 -0.5166  0.7994  2.2248
 4108TIP3    H233884   2.508   4.184   0.430 -0.2000 -1.1701 -0.5602
 4109TIP3   OH233885   6.568   6.354   7.098 -0.3789  0.1797 -0.1551
 4109TIP3    H133886   6.522   6.438   7.098  1.3577  1.1887 -0.5113
 4109TIP3    H233887   6.591   6.340   7.006 -0.3180 -0.4863 -0.0383
 4110TIP3   OH233888   4.507   5.861   1.411 -0.7413  0.2188  0.2898
 4110TIP3    H133889   4.449   5.787   1.395 -0.7775  0.5228 -1.0400
 4110TIP3    H233890   4.526   5.856   1.505  0.2224 -2.1772  0.0434
 4111TIP3   OH233891   1.650   3.264   7.293 -0.2125  0.3215 -0.3741
 4111TIP3    H133892   1.657   3.329   7.223 -0.1265 -0.7468 -1.3924
 4111TIP3    H233893   1.557   3.264   7.316 -0.2110  0.8115 -0.3634
 4112TIP3   OH233894   6.551   6.298   1.846 -0.6038  0.4205  0.1672
 4112TIP3    H133895   6.565   6.207   1.818  0.5710  0.4421  0.6762
 4112TIP3    H233896   6.475   6.293   1.904 -0.3209 -0.2910  0.4862
 4113TIP3   OH233897   0.952   6.014   1.919 -0.0473 -0.0834 -0.0504
 4113TIP3    H133898   0.881   6.079   1.916 -0.6939 -0.7790  0.0570
 4113TIP3    H233899   0.934   5.962   1.997  1.8863  1.1691  1.3139
 4114TIP3   OH233900   5.496   5.329   8.068 -0.0921 -0.4971 -0.1391
 4114TIP3    H133901   5.490   5.234   8.074  0.4355 -0.5517 -0.4283
 4114TIP3    H233902   5.444   5.351   7.991 -1.0613 -0.4470  0.5074
 4115TIP3   OH233903   5.523   2.333   1.641 -0.1512  0.4095 -0.0827
 4115TIP3    H133904   5.582   2.352   1.568  1.1498  0.7057  0.9988
 4115TIP3    H233905   5.464   2.408   1.645  1.7400  1.9393  1.0411
 4116TIP3   OH233906   1.113   0.517   8.119  0.0933  0.2341 -0.5534
 4116TIP3    H133907   1.106   0.611   8.105  3.9300  0.7835  0.0868
 4116TIP3    H233908   1.167   0.486   8.046  0.2506 -1.1776  0.1217
 4117TIP3   OH233909   6.736   2.502   6.349  0.1569 -0.3465 -0.6108
 4117TIP3    H133910   6.817   2.521   6.302 -1.0275 -0.4957 -2.8325
 4117TIP3    H233911   6.704   2.588   6.377  1.0967 -0.2971  0.4138
 4118TIP3   OH233912   6.283   4.352   8.648  0.0504  0.2284  0.0296
 4118TIP3    H133913   6.310   4.382   8.735 -0.1493 -0.0219  0.1798
 4118TIP3    H233914   6.207   4.296   8.665  0.1825 -0.0448 -0.2852
 4119TIP3   OH233915   3.205   1.541   8.473 -0.2610  0.6636 -0.2516
 4119TIP3    H133916   3.219   1.499   8.388 -2.7572 -1.0006  0.0602
 4119TIP3    H233917   3.128   1.498   8.509 -0.7015  2.9578  1.8379
 4120TIP3   OH233918   5.375   4.848   6.313  0.0781 -0.8967 -0.1756
 4120TIP3    H133919   5.353   4.819   6.224  0.5815 -0.3461 -0.4802
 4120TIP3    H233920   5.356   4.941   6.313  1.8203 -0.5080 -0.2791
 4121TIP3   OH233921   4.668   4.242   7.069 -1.4207  0.0808  0.1870
 4121TIP3    H133922   4.710   4.270   6.988 -1.5199  1.5666  0.6100
 4121TIP3    H233923   4.715   4.163   7.095  0.0617  0.8081 -0.1773
 4122TIP3   OH233924   2.168   2.038   5.861  0.0072  0.2887 -0.1097
 4122TIP3    H133925   2.181   2.131   5.840 -2.4370  0.6623 -0.2345
 4122TIP3    H233926   2.185   2.033   5.955  0.1550  0.8717 -0.0971
 4123TIP3   OH233927   3.217   2.966   7.224 -0.1943 -0.1790 -0.0089
 4123TIP3    H133928   3.124   2.943   7.227 -0.0425 -0.7279  0.8768
 4123TIP3    H233929   3.246   2.937   7.138 -0.8327 -0.0763 -0.2619
 4124TIP3   OH233930   4.794   1.181   1.817  0.2785 -0.1528  0.2808
 4124TIP3    H133931   4.888   1.189   1.828  0.3479  0.2848 -0.5527
 4124TIP3    H233932   4.773   1.094   1.851  1.0226 -0.3716  0.1952
 4125TIP3   OH233933   4.032   2.712   0.641  0.2261  0.3990 -0.0278
 4125TIP3    H133934   4.050   2.781   0.577 -1.4642  0.9070 -0.0033
 4125TIP3    H233935   3.947   2.677   0.615  0.5789 -0.9810  0.5869
 4126TIP3   OH233936   4.979   6.068   7.951 -0.4706 -0.2986  0.1734
 4126TIP3    H133937   4.975   5.973   7.962 -3.3811 -0.2799  0.1093
 4126TIP3    H233938   4.998   6.101   8.039 -0.5662 -0.9096  0.4324
 4127TIP3   OH233939   6.223   0.604   1.148 -0.1275 -0.4373  0.3456
 4127TIP3    H133940   6.266   0.525   1.181 -0.0273  0.1326  1.6718
 4127TIP3    H233941   6.217   0.591   1.054  0.1630 -1.8877  0.4990
 4128TIP3   OH233942   3.339   2.299   0.230  0.0496 -0.5516  0.5046
 4128TIP3    H133943   3.255   2.341   0.250  1.0799  1.7376  0.3622
 4128TIP3    H233944   3.402   2.371   0.230  1.5502 -1.7027 -2.3442
 4129TIP3   OH233945   3.778   5.360   7.069 -0.5008  0.0836  0.4377
 4129TIP3    H133946   3.711   5.291   7.068  1.2702 -1.7260 -0.1087
 4129TIP3    H233947   3.729   5.441   7.058 -2.5174 -1.2467 -1.2248
 4130TIP3   OH233948   0.226   2.255   1.272 -0.4676  0.2610 -0.5625
 4130TIP3    H133949   0.193   2.343   1.289 -0.1841  0.2082  0.3071
 4130TIP3    H233950   0.228   2.213   1.358  3.1125  0.7014 -0.2477
 4131TIP3   OH233951   0.147   3.250   0.343  0.1558  0.0712 -0.2891
 4131TIP3    H133952   0.070   3.299   0.312  0.4806  0.9104  0.2124
 4131TIP3    H233953   0.185   3.305   0.411  0.8503 -0.6328 -0.0933
 4132TIP3   OH233954   5.216   3.325   7.113 -0.2918 -0.8035 -0.1578
 4132TIP3    H133955   5.144   3.321   7.050  0.3953 -0.4802 -0.9868
 4132TIP3    H233956   5.295   3.332   7.059  0.1871  1.5259  0.7370
 4133TIP3   OH233957   1.817   2.787   1.223  0.0562  0.1494 -0.2683
 4133TIP3    H133958   1.907   2.806   1.251  0.1673  0.0862 -0.5816
 4133TIP3    H233959   1.813   2.692   1.217 -0.1163  0.1373  0.0216
 4134TIP3   OH233960   0.922   3.082   0.186 -0.0240  0.2089  0.5349
 4134TIP3    H133961   0.871   3.163   0.192  0.1580  0.4434 -0.8419
 4134TIP3    H233962   0.893   3.030   0.261 -1.6384  0.6983  0.2865
 4135TIP3   OH233963   2.118   5.738   2.347 -0.0982 -0.4061  0.4272
 4135TIP3    H133964   2.030   5.729   2.313  0.2813 -0.7108 -0.4942
 4135TIP3    H233965   2.147   5.824   2.316 -0.2089 -0.1389  1.0561
 4136TIP3   OH233966   4.664   0.791   7.074 -0.0093  0.7163 -0.4110
 4136TIP3    H133967   4.709   0.837   7.145  0.5413 -0.3957 -0.0179
 4136TIP3    H233968   4.677   0.846   6.997  2.6904  0.0801 -0.4821
 4137TIP3   OH233969   1.614   3.379   2.041 -0.0292 -0.2813 -0.1656
 4137TIP3    H133970   1.700   3.338   2.043 -0.2924 -0.8458  1.9979
 4137TIP3    H233971   1.559   3.324   2.096 -1.1621  1.3661  0.4592
 4138TIP3   OH233972   6.628   3.613   1.129  0.0166  0.3816  0.2430
 4138TIP3    H133973   6.688   3.624   1.203 -0.8918 -0.6091  1.1631
 4138TIP3    H233974   6.545   3.587   1.169 -0.5613  0.0402 -1.1212
 4139TIP3   OH233975   3.630   4.233   7.965  0.5046  0.6404  0.0865
 4139TIP3    H133976   3.644   4.296   8.036 -0.4460  0.9218  0.0374
 4139TIP3    H233977   3.709   4.178   7.966  0.5085  0.6419  1.3566
 4140TIP3   OH233978   1.785   5.153   6.812  0.2437 -0.6533  0.7199
 4140TIP3    H133979   1.696   5.177   6.839 -1.0522 -0.6174 -2.9721
 4140TIP3    H233980   1.788   5.057   6.820 -0.6437 -0.7876 -0.3455
 4141TIP3   OH233981   2.720   1.433   8.499 -0.1040 -1.0570  0.1288
 4141TIP3    H133982   2.784   1.411   8.567  0.6467  0.7841  0.0887
 4141TIP3    H233983   2.753   1.390   8.420  1.6259  0.5090 -0.0829
 4142TIP3   OH233984   6.489   1.249   1.238  0.0286 -0.2183  0.4314
 4142TIP3    H133985   6.414   1.287   1.192  0.0346  0.0299  0.6201
 4142TIP3    H233986   6.476   1.155   1.233 -0.3286 -0.1759  0.5130
 4143TIP3   OH233987   3.170   2.419   8.597 -0.0204 -0.2649 -0.0761
 4143TIP3    H133988   3.079   2.391   8.601 -0.3433  0.5720 -1.2133
 4143TIP3    H233989   3.210   2.379   8.675 -1.5640  0.1804  0.9994
 4144TIP3   OH233990   4.785   1.381   7.491 -0.0576 -0.0485  0.0311
 4144TIP3    H133991   4.824   1.419   7.570 -0.1283  0.0132  0.0371
 4144TIP3    H233992   4.706   1.434   7.476  0.7984  0.9981 -1.0015
 4145TIP3   OH233993   0.964   3.881   7.000 -0.3330  0.0350  0.0606
 4145TIP3    H133994   0.928   3.907   6.915  1.5303  0.5476 -0.6328
 4145TIP3    H233995   1.002   3.961   7.036  2.2078 -0.8362 -0.4105
 4146TIP3   OH233996   6.626   5.483   7.165 -0.0635 -0.0526  0.5659
 4146TIP3    H133997   6.555   5.457   7.107 -0.4175  0.8010  0.5998
 4146TIP3    H233998   6.615   5.578   7.175 -0.0604 -0.1931  2.1027
 4147TIP3   OH233999   2.710   4.286   7.456  0.5739 -0.0010 -0.1078
 4147TIP3    H134000   2.661   4.368   7.458  0.9104  0.4412 -3.6992
 4147TIP3    H234001   2.797   4.309   7.488  0.9479  1.3407 -1.9707
 4148TIP3   OH234002   6.067   0.802   1.826 -0.2615  0.7555 -0.3541
 4148TIP3    H134003   6.050   0.844   1.742  0.3080  1.2053 -0.2490
 4148TIP3    H234004   5.986   0.814   1.876 -0.9804 -0.3996 -1.1864
 4149TIP3   OH234005   6.608   2.394   6.782 -0.3070 -0.1971  0.1938
 4149TIP3    H134006   6.657   2.317   6.809  0.8356  0.1785 -0.7611
 4149TIP3    H234007   6.605   2.450   6.860 -0.9994 -1.1119  0.8385
 4150TIP3   OH234008   2.966   2.027   7.140 -0.0507 -0.1823 -0.2427
 4150TIP3    H134009   3.025   2.057   7.209 -0.6080 -0.9407  0.5908
 4150TIP3    H234010   2.886   2.001   7.186 -1.1003  0.9485 -1.3612
 4151TIP3   OH234011   5.019   4.523   8.271 -0.6361  0.1104 -0.2011
 4151TIP3    H134012   5.025   4.427   8.267  0.4474  0.2221 -2.0923
 4151TIP3    H234013   4.938   4.544   8.225 -0.2944  0.1603 -0.7808
 4152TIP3   OH234014   3.295   0.482   6.466  0.2836 -0.1615  0.0144
 4152TIP3    H134015   3.329   0.507   6.380  0.9666  0.7817  0.5359
 4152TIP3    H234016   3.291   0.386   6.464 -0.3077 -0.1235 -1.2758
 4153TIP3   OH234017   1.199   3.396   1.387  0.8064  0.0713 -0.3257
 4153TIP3    H134018   1.293   3.384   1.373  1.0519  0.9581  0.4500
 4153TIP3    H234019   1.161   3.386   1.300  1.5194 -1.1496 -0.5140
 4154TIP3   OH234020   3.890   6.471   7.923 -0.3017  0.3455  1.0942
 4154TIP3    H134021   3.915   6.537   7.859  0.8017 -1.9680 -1.0139
 4154TIP3    H234022   3.802   6.444   7.897  0.1394 -0.5852  0.5468
 4155TIP3   OH234023   0.731   3.939   8.233  0.3776  0.0249 -0.4039
 4155TIP3    H134024   0.674   4.009   8.201 -0.8515 -0.1345  1.2914
 4155TIP3    H234025   0.816   3.981   8.246  0.4499  0.4851 -2.1128
 4156TIP3   OH234026   1.243   2.081   1.485 -0.5781 -0.8442  0.0433
 4156TIP3    H134027   1.183   2.104   1.414 -2.5111 -1.3876  1.3978
 4156TIP3    H234028   1.330   2.084   1.446 -1.2014  2.5299 -1.4255
 4157TIP3   OH234029   3.582   3.750   0.170 -0.2727 -0.0564  0.1368
 4157TIP3    H134030   3.517   3.714   0.109 -0.8041 -0.6421  1.0240
 4157TIP3    H234031   3.625   3.820   0.121 -1.0295 -0.1881 -0.7377
 4158TIP3   OH234032   3.932   1.915   8.258  0.0510 -0.1769  0.4706
 4158TIP3    H134033   3.905   1.969   8.183 -0.1710 -0.8107  0.0843
 4158TIP3    H234034   3.882   1.834   8.248 -0.9437  0.2195  2.0198
 4159TIP3   OH234035   4.124   0.753   8.637  0.1736  0.1343  0.6997
 4159TIP3    H134036   4.062   0.820   8.665  1.5908  2.1310 -0.6063
 4159TIP3    H234037   4.210   0.793   8.648  1.1912 -2.0302  1.1850
 4160TIP3   OH234038   0.591   0.587   1.714 -0.2925 -0.2272 -0.1068
 4160TIP3    H134039   0.569   0.667   1.666  1.3831 -0.0561 -0.6593
 4160TIP3    H234040   0.510   0.536   1.713 -1.3074  1.3086 -0.0176
 4161TIP3   OH234041   2.352   1.219   1.728  0.3137  0.1916 -0.1303
 4161TIP3    H134042   2.400   1.210   1.646  1.6673  2.9131  0.2621
 4161TIP3    H234043   2.338   1.313   1.737 -0.2842 -0.0836  2.5070
 4162TIP3   OH234044   4.420   0.149   6.355 -0.1987 -0.7164  0.0094
 4162TIP3    H134045   4.477   0.226   6.351 -0.6309 -0.3378  0.7220
 4162TIP3    H234046   4.470   0.083   6.402 -0.5214 -0.2040  1.1106
 4163TIP3   OH234047   0.386   1.858   7.204  0.0372  0.0746  0.3872
 4163TIP3    H134048   0.311   1.896   7.250 -0.4309 -1.1115  0.6465
 4163TIP3    H234049   0.347   1.799   7.140  0.7442 -0.2806  0.2787
 4164TIP3   OH234050   1.069   6.105   8.040  0.0489 -0.1577  0.1705
 4164TIP3    H134051   0.998   6.076   7.983 -0.0667 -0.8492  0.6620
 4164TIP3    H234052   1.134   6.036   8.035  1.2708  1.0243 -1.2400
 4165TIP3   OH234053   4.612   4.523   0.609 -0.6717  0.6131 -0.0700
 4165TIP3    H134054   4.576   4.483   0.529 -0.7516  0.7651 -0.1115
 4165TIP3    H234055   4.592   4.617   0.599 -0.4842  0.6623  0.0248
 4166TIP3   OH234056   2.219   2.648   7.111  0.1723 -0.2016  0.2262
 4166TIP3    H134057   2.185   2.728   7.070 -0.1005  0.2902  1.3531
 4166TIP3    H234058   2.188   2.577   7.055  2.7484  0.5621 -2.4183
 4167TIP3   OH234059   6.720   6.047   7.030 -0.3259  0.2364  0.5038
 4167TIP3    H134060   6.634   6.035   6.989  0.1496 -0.3412 -0.3637
 4167TIP3    H234061   6.782   6.020   6.963  0.5044 -0.2713  1.4498
 4168TIP3   OH234062   2.725   6.086   7.936  0.1168 -0.3860  0.4133
 4168TIP3    H134063   2.669   6.024   7.983  0.3113 -0.5226  0.4656
 4168TIP3    H234064   2.761   6.142   8.005  0.0614 -0.3086  0.3809
 4169TIP3   OH234065   3.223   2.961   1.513  0.3671  0.7044  0.3763
 4169TIP3    H134066   3.192   2.905   1.442 -1.4772 -0.8295  2.2592
 4169TIP3    H234067   3.293   2.910   1.555  0.3834  0.9131  0.6033
 4170TIP3   OH234068   1.548   3.525   1.552  0.7739 -0.2226  0.1668
 4170TIP3    H134069   1.468   3.578   1.543  2.1376  1.7099 -1.5882
 4170TIP3    H234070   1.577   3.542   1.642 -0.2735 -0.2034  0.5196
 4171TIP3   OH234071   6.078   2.960   7.428  0.1951 -0.0858 -0.2256
 4171TIP3    H134072   6.168   2.973   7.398  0.0631  0.5675 -0.3654
 4171TIP3    H234073   6.055   2.872   7.398  0.1666  0.4253 -1.8145
 4172TIP3   OH234074   3.875   5.956   6.887  0.2183 -0.6464  0.7878
 4172TIP3    H134075   3.917   5.883   6.843 -0.4182 -0.9079  0.6051
 4172TIP3    H234076   3.897   5.945   6.980  1.4176 -0.1906  0.5841
 4173TIP3   OH234077   6.282   1.392   0.552  0.0881 -0.4327  0.3182
 4173TIP3    H134078   6.219   1.321   0.547  0.5637 -0.7963 -1.0057
 4173TIP3    H234079   6.235   1.468   0.517  1.2755 -1.4458 -4.2246
 4174TIP3   OH234080   1.870   6.138   6.840 -0.3734  0.0862 -0.1044
 4174TIP3    H134081   1.820   6.062   6.869  0.9984 -1.3063 -1.2234
 4174TIP3    H234082   1.814   6.180   6.775 -1.0239 -0.1141  0.3093
 4175TIP3   OH234083   5.831   1.859   7.421  0.0433  0.2352 -0.5850
 4175TIP3    H134084   5.820   1.880   7.328  1.6240  0.1043 -0.8214
 4175TIP3    H234085   5.872   1.772   7.421 -1.8059 -0.7156  0.2953
 4176TIP3   OH234086   5.636   3.470   7.880 -0.7455 -0.6070  0.4834
 4176TIP3    H134087   5.624   3.467   7.785 -1.5196  3.3115  0.2982
 4176TIP3    H234088   5.724   3.503   7.892 -1.7610  2.1639  0.9254
 4177TIP3   OH234089   6.575   3.944   1.177 -0.1163 -0.2036  0.5397
 4177TIP3    H134090   6.602   3.961   1.087 -0.0071  1.1716  0.8102
 4177TIP3    H234091   6.480   3.945   1.175 -0.1238  0.9185  0.6018
 4178TIP3   OH234092   4.286   6.547   0.215 -0.1236  0.0938 -0.3845
 4178TIP3    H134093   4.255   6.483   0.151 -0.9351 -0.7841  0.8486
 4178TIP3    H234094   4.215   6.552   0.280  0.8242  0.6933  0.6343
 4179TIP3   OH234095   2.704   0.611   6.880  0.4197  0.5281 -0.3990
 4179TIP3    H134096   2.634   0.671   6.854  1.1721  0.9496 -1.5428
 4179TIP3    H234097   2.726   0.564   6.799 -0.8553 -2.1143  0.6386
 4180TIP3   OH234098   2.478   4.201   1.339 -0.5329 -0.5574  0.3163
 4180TIP3    H134099   2.531   4.241   1.408 -0.1244 -0.1277 -0.2375
 4180TIP3    H234100   2.540   4.152   1.285 -0.7156 -0.2117 -0.2235
 4181TIP3   OH234101   1.115   2.817   6.649  0.2188  0.5629 -0.6578
 4181TIP3    H134102   1.058   2.843   6.721  3.1983  0.4473  1.9251
 4181TIP3    H234103   1.146   2.900   6.612 -0.6135  0.6169 -1.2634
 4182TIP3   OH234104   5.582   5.325   0.277 -0.3232 -0.2887  0.0914
 4182TIP3    H134105   5.520   5.372   0.334 -0.3812  0.2677 -0.4237
 4182TIP3    H234106   5.658   5.309   0.333 -0.8784 -0.8944  0.7053
 4183TIP3   OH234107   1.858   1.268   0.052  0.5925  0.1951  0.1926
 4183TIP3    H134108   1.762   1.266   0.058  0.2714  0.0147 -3.1038
 4183TIP3    H234109   1.883   1.349   0.096 -1.4628  1.9613 -1.6437
 4184TIP3   OH234110   5.947   1.526   1.153 -0.1851 -0.0025  0.0103
 4184TIP3    H134111   5.975   1.616   1.138  1.3496 -0.4565 -0.0311
 4184TIP3    H234112   5.969   1.508   1.244  1.0035 -0.8093 -0.4078
 4185TIP3   OH234113   0.367   6.479   1.494 -0.0970 -0.0404 -0.0011
 4185TIP3    H134114   0.396   6.562   1.457 -0.3078 -0.1265 -0.3598
 4185TIP3    H234115   0.293   6.503   1.550  1.0779  0.2798  1.4919
 4186TIP3   OH234116   3.002   6.193   2.572  0.2564 -0.0610 -0.5389
 4186TIP3    H134117   3.016   6.110   2.618  0.4962  0.6154  0.6361
 4186TIP3    H234118   3.082   6.206   2.521  1.0195  0.3366  0.7077
 4187TIP3   OH234119   4.715   6.168   0.792  0.1153 -0.1431 -0.2113
 4187TIP3    H134120   4.753   6.122   0.867 -0.3228  0.0739  0.1453
 4187TIP3    H234121   4.685   6.252   0.828 -0.8493 -0.3794 -0.4552
 4188TIP3   OH234122   2.415   5.291   7.541  0.5622  0.2571 -0.6247
 4188TIP3    H134123   2.345   5.229   7.561  0.4392  0.8410  0.8958
 4188TIP3    H234124   2.370   5.373   7.520  0.7413  0.0118 -2.0623
 4189TIP3   OH234125   2.657   1.242   7.218  0.3481  0.3732 -0.4884
 4189TIP3    H134126   2.664   1.150   7.244 -3.7613 -0.7313 -2.4166
 4189TIP3    H234127   2.672   1.241   7.123  1.6380  1.9855 -0.3396
 4190TIP3   OH234128   2.514   2.200   8.726 -0.1331 -0.2260  0.9434
 4190TIP3    H134129   2.553   2.288   8.732 -0.5952  0.1993 -1.2615
 4190TIP3    H234130   2.420   2.217   8.715 -0.0017 -0.7990 -1.8706
 4191TIP3   OH234131   4.042   2.085   8.694 -0.1886 -0.0354 -0.3110
 4191TIP3    H134132   4.097   2.055   8.767  2.1386 -0.1870 -1.9914
 4191TIP3    H234133   4.044   2.012   8.632  1.1090  1.4424 -2.1421
 4192TIP3   OH234134   5.515   2.540   0.418  0.2139  0.3098  0.1622
 4192TIP3    H134135   5.544   2.559   0.329  1.8479  3.4736  1.2330
 4192TIP3    H234136   5.594   2.549   0.472 -1.1155  0.6541  2.1818
 4193TIP3   OH234137   4.879   2.203   0.081  0.0145 -0.1406  0.4701
 4193TIP3    H134138   4.955   2.260   0.069  0.0440 -0.3651 -0.4659
 4193TIP3    H234139   4.804   2.263   0.084  0.4367  0.6381  6.1201
 4194TIP3   OH234140   1.545   2.329   0.360 -0.7001  1.0181  0.0981
 4194TIP3    H134141   1.528   2.308   0.451  0.6730  0.7873  0.3159
 4194TIP3    H234142   1.562   2.244   0.318  0.1111  1.2534 -0.0547
 4195TIP3   OH234143   4.031   3.121   8.764 -0.4777  0.4023  0.3564
 4195TIP3    H134144   4.043   3.215   8.775 -1.0612  0.6288 -0.8122
 4195TIP3    H234145   4.119   3.084   8.769 -0.0841  1.1775 -0.5944
 4196TIP3   OH234146   4.018   0.866   6.897 -0.3566  0.4460  0.1096
 4196TIP3    H134147   4.078   0.914   6.954 -1.7291  1.2619  0.9130
 4196TIP3    H234148   3.948   0.837   6.955 -1.4423  0.7113 -1.0263
 4197TIP3   OH234149   2.367   3.547   8.606  0.8942 -0.3646 -0.4637
 4197TIP3    H134150   2.357   3.455   8.580  1.2852  0.3124 -3.3717
 4197TIP3    H234151   2.280   3.585   8.593  0.1945 -0.6766  2.7062
 4198TIP3   OH234152   3.545   5.159   1.034  0.1673 -0.5402  0.3657
 4198TIP3    H134153   3.626   5.153   1.085 -0.2363 -1.3455  0.9419
 4198TIP3    H234154   3.574   5.152   0.943  0.7345 -0.9664  0.5711
 4199TIP3   OH234155   2.235   4.687   2.189  0.3191 -0.0240  0.2136
 4199TIP3    H134156   2.229   4.596   2.218  0.4979  0.1465  0.7945
 4199TIP3    H234157   2.146   4.708   2.160  0.5214 -0.7263 -0.9959
 4200TIP3   OH234158   2.542   0.703   1.572 -0.2853  0.0867 -0.0193
 4200TIP3    H134159   2.628   0.700   1.530 -1.2729  0.6952 -2.2344
 4200TIP3    H234160   2.514   0.612   1.576  0.5877 -0.1499  1.0446
 4201TIP3   OH234161   6.139   4.676   0.755 -0.0988  0.3609  0.2946
 4201TIP3    H134162   6.082   4.600   0.740  0.9502 -0.3095 -0.4953
 4201TIP3    H234163   6.113   4.740   0.689  2.0928 -1.1800 -2.2921
 4202TIP3   OH234164   4.350   2.914   7.807 -0.8140 -0.5593  0.3362
 4202TIP3    H134165   4.387   2.960   7.731  0.5555 -0.5290  0.9816
 4202TIP3    H234166   4.403   2.945   7.881 -0.2667 -2.6574  0.8851
 4203TIP3   OH234167   5.523   6.722   7.810 -1.0699 -0.0040  0.0735
 4203TIP3    H134168   5.472   6.644   7.789  0.5835 -1.2905  0.6056
 4203TIP3    H234169   5.613   6.690   7.822 -0.3671  1.9534  0.5065
 4204TIP3   OH234170   2.067   0.284   7.529  0.9429 -0.1435  0.5204
 4204TIP3    H134171   2.136   0.217   7.528  0.9197 -0.1674  0.1172
 4204TIP3    H234172   2.087   0.339   7.453  1.7026  1.0766  1.5870
 4205TIP3   OH234173   2.470   2.580   0.263 -0.1414 -0.0205  0.0544
 4205TIP3    H134174   2.442   2.489   0.253  0.9199 -0.4620  0.8838
 4205TIP3    H234175   2.463   2.617   0.175 -1.6962 -0.5494 -0.0845
 4206TIP3   OH234176   6.802   3.808   0.255  0.1966  0.2436  0.1694
 4206TIP3    H134177   6.738   3.743   0.229  0.1229 -1.2132  3.4667
 4206TIP3    H234178   6.754   3.891   0.252 -0.9210 -0.4004 -0.3064
 4207TIP3   OH234179   3.566   2.676   0.406  0.5523 -0.0516  0.1384
 4207TIP3    H134180   3.608   2.761   0.416 -2.7980  1.9173 -0.9319
 4207TIP3    H234181   3.527   2.658   0.491  0.8940 -0.3062  0.2417
 4208TIP3   OH234182   4.766   6.544   1.971 -0.2409  0.2915 -0.2433
 4208TIP3    H134183   4.737   6.628   1.936 -2.0470 -0.7634 -1.4193
 4208TIP3    H234184   4.806   6.500   1.896  0.6716  0.0515  0.3620
 4209TIP3   OH234185   2.303   3.059   7.493  0.7311 -0.1256 -0.1373
 4209TIP3    H134186   2.264   2.980   7.455 -0.1747  1.0695 -1.8381
 4209TIP3    H234187   2.359   3.026   7.563  1.1755 -2.3651 -1.4224
 4210TIP3   OH234188   1.724   6.525   7.766  0.0735 -0.2878 -0.0852
 4210TIP3    H134189   1.730   6.616   7.795  0.9539 -0.2884 -0.2284
 4210TIP3    H234190   1.632   6.512   7.745  0.2543  1.2167 -2.1246
 4211TIP3   OH234191   6.244   2.937   8.395 -0.0064  0.0834  0.8906
 4211TIP3    H134192   6.178   2.875   8.428 -0.1647 -0.1757  0.0976
 4211TIP3    H234193   6.289   2.889   8.325 -1.9851  1.7641 -1.6980
 4212TIP3   OH234194   6.406   3.688   8.594  0.2922  0.1173  0.4116
 4212TIP3    H134195   6.465   3.637   8.539  0.1223  2.1216 -1.7739
 4212TIP3    H234196   6.455   3.769   8.612 -1.0499  1.0333  0.0998
 4213TIP3   OH234197   4.417   4.418   8.213  0.2971  0.4211 -0.2213
 4213TIP3    H134198   4.371   4.485   8.162 -2.3278 -1.6237 -0.8039
 4213TIP3    H234199   4.366   4.412   8.294  1.2454 -0.0179  0.3512
 4214TIP3   OH234200   5.413   1.609   1.168 -0.1492  0.5130  0.3083
 4214TIP3    H134201   5.366   1.690   1.148 -0.8282  0.0142 -0.1605
 4214TIP3    H234202   5.401   1.554   1.090  1.0054  0.2741  0.2824
 4215TIP3   OH234203   2.312   5.240   8.035  0.2254  0.1506  0.4057
 4215TIP3    H134204   2.326   5.199   7.949  1.1099  0.8408  0.2008
 4215TIP3    H234205   2.357   5.182   8.097  0.7552  0.3594  0.2228
 4216TIP3   OH234206   1.759   1.477   6.785 -0.5413 -0.3800 -0.2701
 4216TIP3    H134207   1.698   1.409   6.815 -2.2704  1.0583 -0.4262
 4216TIP3    H234208   1.739   1.488   6.692 -0.5134  0.5765 -0.1661
 4217TIP3   OH234209   3.653   0.619   6.910 -0.2731  0.3686 -0.2253
 4217TIP3    H134210   3.691   0.674   6.841  0.4801  0.1717  0.0172
 4217TIP3    H234211   3.729   0.589   6.960 -0.4190 -2.6146 -1.5959
 4218TIP3   OH234212   5.091   1.792   0.859  0.1198 -0.3759 -0.3528
 4218TIP3    H134213   5.031   1.865   0.843  0.2394  0.0905  1.1940
 4218TIP3    H234214   5.125   1.769   0.773 -0.5418  0.8606 -0.9596
 4219TIP3   OH234215   5.218   5.255   1.229 -0.4431 -0.0767  0.5855
 4219TIP3    H134216   5.236   5.163   1.249 -0.2945  0.0204  0.9220
 4219TIP3    H234217   5.122   5.261   1.227 -0.4577 -0.1923  0.8126
 4220TIP3   OH234218   1.524   2.012   7.565 -0.3231 -0.0265 -0.2186
 4220TIP3    H134219   1.545   1.923   7.593 -0.2667 -0.6170 -1.9738
 4220TIP3    H234220   1.606   2.061   7.579  0.1362 -0.6450 -0.6648
 4221TIP3   OH234221   5.674   2.301   0.400  0.0426 -0.8223 -0.1710
 4221TIP3    H134222   5.658   2.392   0.374  0.0047 -0.8753 -0.3351
 4221TIP3    H234223   5.737   2.268   0.336  2.6351  0.0456  1.7411
 4222TIP3   OH234224   1.166   6.738   6.832 -0.2703  0.4087  0.2558
 4222TIP3    H134225   1.114   6.678   6.887  0.8049 -0.7594  0.0509
 4222TIP3    H234226   1.143   6.713   6.743  0.2492  0.2384  0.1687
 4223TIP3   OH234227   5.427   1.944   6.967 -0.0268  0.3888  0.1963
 4223TIP3    H134228   5.465   1.957   6.880 -1.9002  2.8599 -0.3717
 4223TIP3    H234229   5.407   2.033   6.998 -0.8808 -0.5138  2.4794
 4224TIP3   OH234230   0.022   5.419   6.599  0.2414  0.3864  0.1953
 4224TIP3    H134231   0.095   5.449   6.654  2.5570 -1.2733 -1.7515
 4224TIP3    H234232   0.064   5.389   6.518 -2.4865 -1.8604 -0.5367
 4225TIP3   OH234233   2.801   5.605   1.878 -0.1348 -0.1698  0.2692
 4225TIP3    H134234   2.771   5.529   1.929 -0.9647  0.1256  0.2475
 4225TIP3    H234235   2.855   5.568   1.809  1.1505 -0.5698  1.4417
 4226TIP3   OH234236   5.878   3.888   1.514 -0.1001  0.0452 -0.2841
 4226TIP3    H134237   5.908   3.880   1.605 -2.4726 -1.1681  0.4808
 4226TIP3    H234238   5.959   3.900   1.464  1.3839 -0.1856  1.8696
 4227TIP3   OH234239   0.432   3.866   2.079 -0.5149 -0.5535  0.2124
 4227TIP3    H134240   0.347   3.892   2.115  0.5707  1.3152  1.5488
 4227TIP3    H234241   0.470   3.810   2.146  0.0656  0.1192  0.4541
 4228TIP3   OH234242   0.685   5.996   7.392 -0.2497  0.1824  0.1537
 4228TIP3    H134243   0.623   6.011   7.321 -1.7708  0.4128  1.4683
 4228TIP3    H234244   0.742   6.073   7.390 -0.0436  0.0180 -1.0166
 4229TIP3   OH234245   5.265   3.433   8.429  0.6380  0.0043 -0.3720
 4229TIP3    H134246   5.299   3.345   8.411  1.8090  0.7268 -1.9791
 4229TIP3    H234247   5.187   3.418   8.482  0.7007 -2.0138 -0.7588
 4230TIP3   OH234248   4.234   6.283   1.549  0.0753  0.1631 -0.0767
 4230TIP3    H134249   4.230   6.228   1.471 -0.0374 -2.7103  1.7758
 4230TIP3    H234250   4.322   6.321   1.547  0.1718 -0.0791 -1.4244
 4231TIP3   OH234251   3.016   1.471   2.249 -0.0322 -0.0351 -0.5589
 4231TIP3    H134252   3.008   1.420   2.168 -0.7044 -0.3249 -0.3112
 4231TIP3    H234253   2.977   1.416   2.316  1.6681 -0.3574  0.2288
 4232TIP3   OH234254   6.172   1.497   7.119  0.0979 -0.5046 -0.3917
 4232TIP3    H134255   6.087   1.542   7.121  1.4560  2.4298 -2.2013
 4232TIP3    H234256   6.174   1.455   7.033  0.6338 -0.1673 -0.5490
 4233TIP3   OH234257   0.373   3.534   8.342 -0.4763  0.3824 -0.1924
 4233TIP3    H134258   0.352   3.571   8.256 -0.6977  0.0630 -0.2756
 4233TIP3    H234259   0.288   3.529   8.386 -0.7743 -1.8847 -0.9034
 4234TIP3   OH234260   6.608   1.778   0.079 -0.4410 -0.0306  0.2544
 4234TIP3    H134261   6.647   1.699   0.116 -0.8569 -0.1114  0.5203
 4234TIP3    H234262   6.680   1.841   0.076 -0.4554  0.0741  1.4736
 4235TIP3   OH234263   6.097   5.977   7.209 -0.2532  0.3129  0.2818
 4235TIP3    H134264   6.097   5.953   7.116  0.0702 -0.3190  0.4368
 4235TIP3    H234265   6.161   6.048   7.215  0.5445 -0.3782  0.1863
 4236TIP3   OH234266   1.351   0.219   6.645  0.0993 -0.3717  0.6769
 4236TIP3    H134267   1.265   0.197   6.608 -0.4638  0.8871  1.2128
 4236TIP3    H234268   1.403   0.139   6.634 -0.6507 -0.6595 -1.0737
 4237TIP3   OH234269   1.412   1.174   7.274 -0.4725  0.3770  0.0332
 4237TIP3    H134270   1.357   1.102   7.243  1.2967 -0.4984 -1.1999
 4237TIP3    H234271   1.387   1.185   7.366 -1.4045 -1.2049  0.0044
 4238TIP3   OH234272   2.310   3.499   0.009 -0.3498 -0.2247 -0.0434
 4238TIP3    H134273   2.340   3.536  -0.074  0.6629 -0.1090  0.3577
 4238TIP3    H234274   2.388   3.460   0.048 -0.5422  0.7164  1.3690
 4239TIP3   OH234275   1.721   3.972   7.684 -0.3800  0.7767 -0.4306
 4239TIP3    H134276   1.710   3.883   7.718 -2.4180  1.3069  0.4181
 4239TIP3    H234277   1.797   3.966   7.626  0.8113 -1.0467  1.1871
 4240TIP3   OH234278   3.600   2.284   1.462 -0.5154 -0.0052 -0.7094
 4240TIP3    H134279   3.637   2.371   1.446  0.1032  0.1453  1.2780
 4240TIP3    H234280   3.599   2.243   1.376  0.6325  1.4106 -1.4600
 4241TIP3   OH234281   0.535   0.507   7.430  0.1038 -0.5380  0.1494
 4241TIP3    H134282   0.606   0.475   7.485  0.6961  2.3164  1.2022
 4241TIP3    H234283   0.561   0.485   7.341  1.8383 -0.4066  0.5950
 4242TIP3   OH234284   0.840   3.843   8.547  0.6284 -0.4003 -0.3004
 4242TIP3    H134285   0.778   3.848   8.475  1.5012  1.2637 -0.9955
 4242TIP3    H234286   0.849   3.749   8.565 -0.2024 -0.7996 -1.8158
 4243TIP3   OH234287   5.495   2.784   0.532  0.0182  0.2083 -0.4525
 4243TIP3    H134288   5.433   2.738   0.476  0.5715  1.5614 -2.2819
 4243TIP3    H234289   5.448   2.863   0.560  0.4151  0.5564 -0.7363
 4244TIP3   OH234290   5.215   2.394   0.928  0.0667 -0.3836 -0.1955
 4244TIP3    H134291   5.211   2.408   0.833  0.3796  0.3109 -0.1105
 4244TIP3    H234292   5.298   2.433   0.955  1.8386 -3.7628 -0.1557
 4245TIP3   OH234293   6.599   5.339   1.889 -0.2765  0.1350 -0.3318
 4245TIP3    H134294   6.689   5.339   1.857 -0.0642  0.3398  0.2494
 4245TIP3    H234295   6.551   5.393   1.827  0.2303  0.9611 -0.0209
 4246TIP3   OH234296   2.932   3.318   7.336 -0.2656  0.3888  0.3553
 4246TIP3    H134297   2.914   3.387   7.400  0.0923 -1.3268  2.4378
 4246TIP3    H234298   3.024   3.328   7.315 -0.4035  1.0180  0.0520
 4247TIP3   OH234299   6.095   5.398   7.532 -0.4658 -0.1025  0.0680
 4247TIP3    H134300   6.050   5.326   7.488 -2.1841  1.5449 -0.9917
 4247TIP3    H234301   6.180   5.362   7.555 -0.1132 -1.6178 -3.0627
 4248TIP3   OH234302   4.475   6.796   6.574  0.0138  0.0706 -0.0185
 4248TIP3    H134303   4.430   6.713   6.589 -1.3159  0.7634 -0.0710
 4248TIP3    H234304   4.426   6.860   6.625 -0.5300  1.2740 -1.9468
 4249TIP3   OH234305   1.768   5.512   8.662 -1.0764  0.0726 -0.3612
 4249TIP3    H134306   1.731   5.440   8.713 -1.4196  0.0420 -0.6505
 4249TIP3    H234307   1.735   5.498   8.573 -0.2369 -0.0522 -0.6691
 4250TIP3   OH234308   6.662   5.167   1.578 -0.3982 -0.1038 -0.1998
 4250TIP3    H134309   6.723   5.125   1.639  1.8308  0.8002 -1.6658
 4250TIP3    H234310   6.654   5.104   1.506 -1.0723 -0.1138 -0.1266
 4251TIP3   OH234311   2.622   6.342   8.161 -0.1053 -0.1034  0.0556
 4251TIP3    H134312   2.584   6.415   8.112  0.8692  0.6807  0.4314
 4251TIP3    H234313   2.637   6.377   8.249  1.5015 -0.3589 -0.0874
 4252TIP3   OH234314   5.061   0.942   0.529 -0.1161 -0.1191  0.1007
 4252TIP3    H134315   5.008   0.935   0.449 -0.7759 -2.5470  0.6430
 4252TIP3    H234316   5.048   0.857   0.573  1.5092  0.5369  1.9830
 4253TIP3   OH234317   0.756   2.937   7.434  0.2568 -0.0191 -0.5833
 4253TIP3    H134318   0.710   2.916   7.353 -0.3240 -0.7585 -0.0673
 4253TIP3    H234319   0.695   2.914   7.504 -0.1614  2.7380  0.0609
 4254TIP3   OH234320   4.669   4.106   0.301 -0.2980  0.3621 -0.0465
 4254TIP3    H134321   4.593   4.158   0.330  0.5661  1.4364  0.3691
 4254TIP3    H234322   4.639   4.063   0.222 -1.2128  1.1259 -0.1396
 4255TIP3   OH234323   0.394   2.339   8.513 -0.1697  0.2094 -0.2014
 4255TIP3    H134324   0.420   2.247   8.513  0.6885  0.3960 -2.1440
 4255TIP3    H234325   0.474   2.387   8.536 -0.3703  0.5128 -0.1272
 4256TIP3   OH234326   5.071   4.489   0.871 -0.0076 -0.2894  0.0849
 4256TIP3    H134327   5.092   4.398   0.893 -0.0070 -0.2580  0.2187
 4256TIP3    H234328   5.090   4.497   0.778 -0.7244 -0.6334 -0.0982
 4257TIP3   OH234329   0.611   6.036   0.306  0.1252  0.2092  0.1804
 4257TIP3    H134330   0.540   6.086   0.265 -1.1052 -2.0420 -0.6080
 4257TIP3    H234331   0.613   5.954   0.258  1.6075 -0.7930  1.8435
 4258TIP3   OH234332   3.832   2.794   8.516  0.2976  0.0210 -0.2729
 4258TIP3    H134333   3.790   2.760   8.437 -0.7174  0.9311 -0.1327
 4258TIP3    H234334   3.780   2.758   8.588  0.7603 -0.1833 -0.0371
 4259TIP3   OH234335   1.165   1.053   8.454 -0.2479 -0.1077  0.1950
 4259TIP3    H134336   1.114   1.128   8.484 -0.5206  0.8066 -2.3681
 4259TIP3    H234337   1.228   1.089   8.392  1.0867 -1.7279  0.5314
 4260TIP3   OH234338   1.826   4.843   6.487 -0.0061  0.7328 -0.0436
 4260TIP3    H134339   1.809   4.840   6.393  3.2340 -0.5255 -0.7301
 4260TIP3    H234340   1.806   4.754   6.518  1.7761  0.2352 -0.2141
 4261TIP3   OH234341   1.895   5.194   6.144 -0.3946 -0.1072 -0.7022
 4261TIP3    H134342   1.827   5.253   6.175 -1.2031 -0.4918 -1.6897
 4261TIP3    H234343   1.916   5.139   6.219 -0.2498  0.8506 -0.0237
 4262TIP3   OH234344   2.211   0.708   7.574  0.2597  0.1766  0.2099
 4262TIP3    H134345   2.199   0.653   7.497 -0.6310 -0.7072  0.9557
 4262TIP3    H234346   2.189   0.796   7.544 -0.9806 -0.3023 -0.3348
 4263TIP3   OH234347   5.628   5.504   6.960 -0.0654 -0.3402  0.1325
 4263TIP3    H134348   5.707   5.453   6.979 -1.2039 -2.3168 -0.1911
 4263TIP3    H234349   5.582   5.510   7.044 -1.0729 -1.9647 -0.2494
 4264TIP3   OH234350   6.224   3.583   7.472  0.5142 -0.3288 -0.1121
 4264TIP3    H134351   6.162   3.526   7.426 -1.0286  1.0355  0.1858
 4264TIP3    H234352   6.260   3.639   7.404  0.7537 -0.5261 -0.1490
 4265TIP3   OH234353   1.156   1.081   1.077  0.3037  0.2108 -0.3746
 4265TIP3    H134354   1.088   1.144   1.053  0.1449 -0.0834 -0.7027
 4265TIP3    H234355   1.238   1.122   1.050  0.2609  0.5604  0.0082
 4266TIP3   OH234356   0.301   1.791   8.372 -0.1593  0.0890  0.1145
 4266TIP3    H134357   0.394   1.780   8.354 -0.1404  0.6684 -0.1419
 4266TIP3    H234358   0.295   1.787   8.468 -0.0425 -1.2250  0.0876
 4267TIP3   OH234359   1.402   6.044   7.059 -0.3018 -0.2190  0.3926
 4267TIP3    H134360   1.384   6.110   7.126 -0.9621 -0.3357  0.3370
 4267TIP3    H234361   1.497   6.031   7.062 -0.2980 -0.0452  1.1368
 4268TIP3   OH234362   3.831   3.050   1.681 -0.1072  0.6465 -0.5265
 4268TIP3    H134363   3.763   2.999   1.635 -0.7502  1.0691 -0.0679
 4268TIP3    H234364   3.892   2.985   1.714 -0.1596  0.2705 -1.1526
 4269TIP3   OH234365   5.345   5.115   6.357 -0.1837  0.2685 -0.4921
 4269TIP3    H134366   5.407   5.134   6.427 -0.8688 -2.1976  0.9066
 4269TIP3    H234367   5.318   5.201   6.324 -1.5887  1.7465  3.8448
 4270TIP3   OH234368   5.953   1.543   7.463  0.8912 -0.1000  0.8679
 4270TIP3    H134369   5.939   1.488   7.386  1.6972 -0.4763  0.9705
 4270TIP3    H234370   5.927   1.488   7.537 -1.0851  0.6986  0.8194
 4271TIP3   OH234371   3.626   6.391   7.920 -0.1473  0.4344  0.1856
 4271TIP3    H134372   3.563   6.428   7.858 -1.6379 -1.2095  0.6372
 4271TIP3    H234373   3.582   6.397   8.005 -0.9763 -3.1926  0.1684
 4272TIP3   OH234374   6.401   0.599   8.566  0.0844 -0.0529  0.5580
 4272TIP3    H134375   6.378   0.598   8.473  2.5866  1.1973 -0.1730
 4272TIP3    H234376   6.412   0.692   8.587  3.0640 -0.4195  1.0516
 4273TIP3   OH234377   1.010   2.909   8.806 -0.1128 -0.5068 -0.1832
 4273TIP3    H134378   1.095   2.866   8.805  0.7208  1.0445 -1.0931
 4273TIP3    H234379   1.015   2.971   8.879 -0.4566 -0.3906 -0.2533
 4274TIP3   OH234380   1.960   6.207   8.008  0.3682  0.0112  0.3125
 4274TIP3    H134381   1.977   6.165   8.092  1.2653  0.2435  0.2484
 4274TIP3    H234382   1.903   6.281   8.029 -2.8156 -2.2061  0.2298
 4275TIP3   OH234383   3.173   0.480   8.309  0.4993 -0.1448  0.3971
 4275TIP3    H134384   3.196   0.568   8.280  0.1961 -0.4129 -0.7089
 4275TIP3    H234385   3.248   0.426   8.285  0.5446 -0.2456  0.7628
 4276TIP3   OH234386   5.715   6.512   8.252  0.2131  0.2408 -0.0763
 4276TIP3    H134387   5.779   6.508   8.181  1.5075 -1.4380  1.0762
 4276TIP3    H234388   5.724   6.427   8.296 -0.8455  1.0542  1.8153
 4277TIP3   OH234389   2.388   5.084   0.296  0.8009 -0.2988 -0.2965
 4277TIP3    H134390   2.480   5.063   0.315  0.5733 -0.1918  1.0131
 4277TIP3    H234391   2.391   5.163   0.243  1.4229  1.9082  2.7598
 4278TIP3   OH234392   1.316   5.795   1.045  0.4702 -0.4043  0.6131
 4278TIP3    H134393   1.268   5.878   1.043  3.2659  1.3661 -1.4875
 4278TIP3    H234394   1.256   5.732   1.005 -0.6273  1.3581 -0.6882
 4279TIP3   OH234395   5.656   5.808   8.584 -0.8646  0.5518  0.2112
 4279TIP3    H134396   5.570   5.807   8.541  0.1554 -0.0809 -1.9411
 4279TIP3    H234397   5.675   5.716   8.602  0.0561  0.5004 -0.8832
 4280TIP3   OH234398   2.048   0.205   1.401 -0.4115  0.0107  0.0611
 4280TIP3    H134399   2.003   0.144   1.343 -0.0535 -0.2845  0.0941
 4280TIP3    H234400   1.980   0.235   1.462 -1.0458  1.1158 -1.1417
 4281TIP3   OH234401   6.621   0.471   7.543  0.0197 -0.2081 -1.0290
 4281TIP3    H134402   6.691   0.444   7.602 -0.7713  0.1713  0.1181
 4281TIP3    H234403   6.662   0.473   7.456  1.5041  0.3325 -0.3442
 4282TIP3   OH234404   3.125   3.265   6.988  0.2619  0.0084 -0.4939
 4282TIP3    H134405   3.132   3.170   6.972  2.3236  0.2467 -1.2864
 4282TIP3    H234406   3.053   3.293   6.931 -2.3775 -1.4340  1.8548
 4283TIP3   OH234407   1.289   2.473   6.799 -0.3037  0.4524  0.1147
 4283TIP3    H134408   1.258   2.533   6.867 -1.3627 -0.0571  0.1003
 4283TIP3    H234409   1.325   2.399   6.847  1.2632  1.1964  0.1367
 4284TIP3   OH234410   4.049   6.545   8.847 -0.1004 -0.6295 -0.7077
 4284TIP3    H134411   4.076   6.557   8.756 -0.5009  0.9306 -0.6552
 4284TIP3    H234412   4.127   6.566   8.899 -0.4926  0.7937 -0.6495
 4285TIP3   OH234413   4.189   4.929   7.890  0.0449  0.3619  0.0701
 4285TIP3    H134414   4.199   4.945   7.984 -0.9166  3.1059 -0.2287
 4285TIP3    H234415   4.096   4.912   7.878  0.0079  0.9549 -0.5054
 4286TIP3   OH234416   2.773   3.931   8.121  0.7125 -0.4716  0.1219
 4286TIP3    H134417   2.735   3.896   8.202  2.8590 -2.5881  0.2947
 4286TIP3    H234418   2.794   4.022   8.142  0.0757 -0.6157  1.4986
 4287TIP3   OH234419   5.747   1.884   6.934  0.4337 -0.4164 -0.5921
 4287TIP3    H134420   5.772   1.863   7.025  0.1026 -2.4198 -0.9130
 4287TIP3    H234421   5.655   1.861   6.929  0.0356  1.1924 -1.0487
 4288TIP3   OH234422   5.967   3.851   8.698  0.4145  0.0347 -0.5029
 4288TIP3    H134423   6.015   3.871   8.618  0.6838  0.0750 -0.3326
 4288TIP3    H234424   5.895   3.914   8.699  1.9336  1.8371  0.6294
 4289TIP3   OH234425   6.583   1.517   2.095 -0.2202 -0.3938 -0.0601
 4289TIP3    H134426   6.599   1.600   2.142 -0.9730 -1.1441  1.5891
 4289TIP3    H234427   6.502   1.484   2.132  0.0389 -1.8530 -0.7514
 4290TIP3   OH234428   5.615   4.654   6.906 -0.8585 -0.1074  0.0453
 4290TIP3    H134429   5.538   4.601   6.925 -1.7103  1.5072  1.3463
 4290TIP3    H234430   5.634   4.637   6.813 -1.5296 -2.0599  0.2369
 4291TIP3   OH234431   5.832   6.473   0.659 -0.2732  0.2586  0.4337
 4291TIP3    H134432   5.750   6.478   0.609 -1.1290 -1.0488  1.6421
 4291TIP3    H234433   5.804   6.474   0.750  1.2260  1.9636  0.9281
 4292TIP3   OH234434   1.113   5.488   7.295  0.1811  0.6726 -0.0042
 4292TIP3    H134435   1.110   5.556   7.227 -1.3949  0.4825 -0.1743
 4292TIP3    H234436   1.050   5.422   7.265  0.9527 -0.3970  0.6526
 4293TIP3   OH234437   1.925   5.789   0.646  0.2580 -0.2313  0.2099
 4293TIP3    H134438   1.892   5.704   0.675  1.5920 -1.2631 -1.1338
 4293TIP3    H234439   1.945   5.836   0.727  0.4393 -1.5987  0.9901
 4294TIP3   OH234440   4.279   5.259   6.405  0.0641 -0.4971  0.2913
 4294TIP3    H134441   4.242   5.303   6.482 -1.0859 -0.3151 -0.3466
 4294TIP3    H234442   4.236   5.301   6.331  1.7812 -0.0693 -0.5184
 4295TIP3   OH234443   0.788   6.715   8.144  0.0608  0.0032  0.2525
 4295TIP3    H134444   0.774   6.659   8.221 -2.3282 -0.9619 -0.7970
 4295TIP3    H234445   0.847   6.664   8.088 -0.3902 -0.5171  0.2449
 4296TIP3   OH234446   5.172   0.604   1.074  0.2670  0.4131 -0.1891
 4296TIP3    H134447   5.189   0.575   1.164  0.4689 -0.4328 -0.4903
 4296TIP3    H234448   5.258   0.606   1.033 -0.0182 -1.4089 -0.9934
 4297TIP3   OH234449   4.025   0.622   7.256 -0.2688 -0.6531 -0.3572
 4297TIP3    H134450   4.013   0.635   7.161  1.2315  1.7056 -0.3055
 4297TIP3    H234451   4.117   0.596   7.265 -0.5402 -1.3811  0.4406
 4298TIP3   OH234452   4.910   2.503   7.779  0.1839  0.0783  0.1526
 4298TIP3    H134453   4.911   2.408   7.768 -2.4315 -0.1812  1.2754
 4298TIP3    H234454   4.853   2.534   7.709  0.1971  0.7043  0.4199
 4299TIP3   OH234455   1.812   6.445   8.030 -0.4086 -0.0537  0.7439
 4299TIP3    H134456   1.826   6.531   8.070  0.5864 -0.1165  0.5404
 4299TIP3    H234457   1.795   6.464   7.938  0.6295 -0.1217  0.5332
 4300TIP3   OH234458   0.540   1.352   1.829  0.1583 -0.3006  0.0115
 4300TIP3    H134459   0.623   1.358   1.876 -0.0303 -1.1113  0.4795
 4300TIP3    H234460   0.482   1.306   1.890 -0.5758  0.0836 -0.3849
 4301TIP3   OH234461   1.978   1.703   6.256 -0.4622 -0.1703  0.8333
 4301TIP3    H134462   2.011   1.708   6.167  1.6781 -2.4683  1.3824
 4301TIP3    H234463   1.958   1.793   6.280  0.9505  0.7495 -1.2209
 4302TIP3   OH234464   6.364   1.996   2.762 -0.3559 -0.7152  0.1482
 4302TIP3    H134465   6.361   2.080   2.716 -1.8683  0.8041  2.7754
 4302TIP3    H234466   6.275   1.963   2.757 -0.3941 -0.8288  1.3915
 4303TIP3   OH234467   5.481   4.479   1.522  0.2206  0.4072  0.2411
 4303TIP3    H134468   5.462   4.416   1.452  0.0111 -0.3486  0.9617
 4303TIP3    H234469   5.395   4.509   1.551  0.2315 -0.3817  1.1444
 4304TIP3   OH234470   1.143   3.202   0.528  0.7815 -0.8159 -0.2339
 4304TIP3    H134471   1.096   3.256   0.465  0.7700  1.3509  1.4958
 4304TIP3    H234472   1.205   3.262   0.570 -0.4203 -1.6101  3.0217
 4305TIP3   OH234473   4.565   5.820   0.916 -0.1433  0.1819 -0.1083
 4305TIP3    H134474   4.623   5.886   0.955  1.2909 -0.8996 -0.3123
 4305TIP3    H234475   4.617   5.782   0.845 -2.0520  0.9015 -2.0007
 4306TIP3   OH234476   1.385   1.731   7.795  0.5477 -0.2016 -0.0196
 4306TIP3    H134477   1.382   1.654   7.852 -0.1643  0.3879  0.7655
 4306TIP3    H234478   1.448   1.708   7.727  1.0341 -1.1213  0.7182
 4307TIP3   OH234479   2.504   4.608   6.775  0.2190  0.7071 -0.4914
 4307TIP3    H134480   2.419   4.612   6.731 -0.5875 -1.1432  0.7789
 4307TIP3    H234481   2.483   4.613   6.868  1.2795 -1.7440 -0.0548
 4308TIP3   OH234482   0.204   4.658   0.382 -0.2039 -0.2755  0.1482
 4308TIP3    H134483   0.280   4.660   0.441  0.2579  0.9796 -0.4552
 4308TIP3    H234484   0.189   4.565   0.367 -0.1086 -0.6178  1.9468
 4309TIP3   OH234485   1.738   2.982   6.938 -0.1541 -0.5046  0.1720
 4309TIP3    H134486   1.769   3.028   7.016 -1.2429 -0.1654  0.4193
 4309TIP3    H234487   1.741   2.889   6.963  1.3802 -0.5640 -0.0925
 4310TIP3   OH234488   2.684   2.315   0.170 -0.5584  0.4331 -0.1477
 4310TIP3    H134489   2.695   2.273   0.256 -0.3420 -3.0405 -1.7067
 4310TIP3    H234490   2.594   2.296   0.145 -0.0872 -0.1826 -1.4413
 4311TIP3   OH234491   4.934   3.257   0.325 -0.1858 -0.3588  0.1506
 4311TIP3    H134492   4.883   3.329   0.363 -1.7279 -1.0932 -0.4238
 4311TIP3    H234493   4.886   3.178   0.349  1.4419 -1.2277  0.7224
 4312TIP3   OH234494   1.163   1.915   8.358  0.5095  0.7347 -0.0566
 4312TIP3    H134495   1.167   1.849   8.289 -1.9275 -1.2712  1.5258
 4312TIP3    H234496   1.094   1.975   8.330  0.9727  1.1575 -0.3096
 4313TIP3   OH234497   2.723   2.712   2.177  0.4734 -0.9798  0.7275
 4313TIP3    H134498   2.652   2.669   2.226  0.8039 -2.0319  0.3082
 4313TIP3    H234499   2.700   2.805   2.179 -0.1505 -1.1334  1.8420
 4314TIP3   OH234500   1.005   5.367   0.310 -0.0379  0.1171 -0.0000
 4314TIP3    H134501   0.936   5.375   0.375 -1.0913 -0.3928 -1.0135
 4314TIP3    H234502   0.999   5.276   0.280 -0.8549  0.8204 -2.1445
 4315TIP3   OH234503   6.756   4.257   0.922 -0.4409  0.2123 -0.2405
 4315TIP3    H134504   6.794   4.298   1.001 -0.4650 -0.8409  0.3292
 4315TIP3    H234505   6.819   4.278   0.853 -1.0468  2.2492 -0.2497
 4316TIP3   OH234506   1.574   4.707   0.205 -0.2739  0.8468 -0.2664
 4316TIP3    H134507   1.644   4.754   0.160  1.2925 -0.9724  0.1344
 4316TIP3    H234508   1.494   4.754   0.180  1.2022  4.3685  1.0598
 4317TIP3   OH234509   4.950   3.897   7.448  0.5394 -0.0586  0.0259
 4317TIP3    H134510   4.879   3.847   7.487  0.1790 -0.2782 -0.8971
 4317TIP3    H234511   5.030   3.860   7.487  0.3521 -2.0763 -1.4052
 4318TIP3   OH234512   5.328   0.881   0.756  0.1802 -0.7981 -0.4586
 4318TIP3    H134513   5.279   0.840   0.827 -0.3902  1.7617  0.7557
 4318TIP3    H234514   5.268   0.948   0.721  2.1048  1.2676 -0.0696
 4319TIP3   OH234515   4.536   0.456   8.752 -0.3746 -0.0729 -0.3587
 4319TIP3    H134516   4.602   0.524   8.744 -0.9390  0.6339  0.7185
 4319TIP3    H234517   4.515   0.453   8.846 -1.5433 -0.5843 -0.6165
 4320TIP3   OH234518   3.996   1.052   6.695 -0.0400 -0.3657  0.2479
 4320TIP3    H134519   4.048   1.001   6.634 -0.8417 -0.1886 -0.6108
 4320TIP3    H234520   4.019   1.017   6.781  2.9947  1.0553  0.1440
 4321TIP3   OH234521   1.638   0.688   0.342  0.1071  0.3238 -0.0263
 4321TIP3    H134522   1.663   0.597   0.356  0.2813  0.4594  0.6011
 4321TIP3    H234523   1.548   0.684   0.310 -0.1271 -0.0457  0.6616
 4322TIP3   OH234524   1.779   0.619   8.533  0.1129  0.1167 -1.1696
 4322TIP3    H134525   1.722   0.619   8.609  1.4833  1.5754 -0.0721
 4322TIP3    H234526   1.854   0.567   8.559  0.8051  1.0045 -1.3152
 4323TIP3   OH234527   5.562   2.800   6.665 -0.1804 -0.2484  0.0445
 4323TIP3    H134528   5.556   2.895   6.672 -1.6208 -0.2654 -0.4953
 4323TIP3    H234529   5.649   2.784   6.628 -0.1826  0.9079 -0.5144
 4324TIP3   OH234530   2.419   4.389   6.938  0.1540  0.2578  0.2517
 4324TIP3    H134531   2.410   4.305   6.894 -0.7579 -0.3003  1.4377
 4324TIP3    H234532   2.512   4.409   6.935  0.4724 -1.1300  0.5194
 4325TIP3   OH234533   3.589   1.868   0.308 -0.1058  0.3980  0.0183
 4325TIP3    H134534   3.643   1.907   0.377  1.4781  0.3309 -1.1271
 4325TIP3    H234535   3.499   1.888   0.334  0.5221  1.9526  1.1651
 4326TIP3   OH234536   4.047   1.592   7.560  0.0207  0.1040 -0.0390
 4326TIP3    H134537   3.973   1.638   7.521 -0.1949 -0.1872  0.0229
 4326TIP3    H234538   4.040   1.503   7.528 -0.2798 -0.1951  0.8153
 4327TIP3   OH234539   5.713   3.446   8.395  0.2706 -0.1421  0.4700
 4327TIP3    H134540   5.782   3.430   8.331 -0.8164  1.3568 -1.1633
 4327TIP3    H234541   5.719   3.539   8.414 -0.6235 -0.2061  1.1341
 4328TIP3   OH234542   3.051   1.670   8.025  0.3403 -0.0134 -0.3800
 4328TIP3    H134543   3.080   1.622   7.947 -0.0920  0.1471 -0.6464
 4328TIP3    H234544   3.130   1.712   8.058  0.7116 -0.8633 -0.1753
 4329TIP3   OH234545   5.709   2.400   1.436 -0.3186 -0.2890 -0.7908
 4329TIP3    H134546   5.758   2.347   1.373 -0.5673 -0.2146 -1.0486
 4329TIP3    H234547   5.769   2.471   1.460 -0.2801 -0.2296 -1.0601
 4330TIP3   OH234548   3.664   6.788   7.632 -0.4128 -0.0589  0.0153
 4330TIP3    H134549   3.576   6.784   7.596 -0.7831  0.7227  0.7874
 4330TIP3    H234550   3.709   6.855   7.581  0.6490 -2.2709 -2.1876
 4331TIP3   OH234551   5.409   4.571   1.171 -0.2705 -0.6985 -0.3242
 4331TIP3    H134552   5.499   4.593   1.145 -0.7008  0.9695 -0.5512
 4331TIP3    H234553   5.417   4.488   1.218  1.2704 -1.0041 -1.0490
 4332TIP3   OH234554   1.234   0.957   8.712 -0.4597 -0.0585 -0.0829
 4332TIP3    H134555   1.210   0.975   8.621  1.2943 -0.6192 -0.6943
 4332TIP3    H234556   1.305   1.018   8.731  0.5913 -1.3129  0.1978
 4333TIP3   OH234557   3.828   5.569   2.200 -0.6239  0.0309 -0.3177
 4333TIP3    H134558   3.785   5.574   2.285 -1.1701  0.8030 -0.6238
 4333TIP3    H234559   3.865   5.657   2.187 -0.3615 -0.1456 -0.7845
 4334TIP3   OH234560   4.057   0.475   0.130  0.0320  0.3281 -0.1357
 4334TIP3    H134561   4.137   0.526   0.118  0.4119 -0.2879 -0.2688
 4334TIP3    H234562   4.069   0.398   0.075 -0.7759  0.3637 -0.3684
 4335TIP3   OH234563   0.422   6.633   6.942 -0.7235  0.1468 -0.8838
 4335TIP3    H134564   0.381   6.588   7.015 -0.4800 -0.1624 -0.9378
 4335TIP3    H234565   0.450   6.717   6.979 -0.8533  0.1069 -0.6943
 4336TIP3   OH234566   6.451   0.773   8.073  0.1564  0.1773  0.2449
 4336TIP3    H134567   6.529   0.827   8.081 -0.1362  0.7439 -0.5124
 4336TIP3    H234568   6.387   0.830   8.030 -1.5765  0.6168  3.1903
 4337TIP3   OH234569   3.120   4.317   1.595 -0.0080 -0.2969 -0.0738
 4337TIP3    H134570   3.074   4.398   1.618 -0.0399 -0.2937 -0.1505
 4337TIP3    H234571   3.213   4.340   1.603  0.0416  0.2974 -1.9292
 4338TIP3   OH234572   0.915   3.997   8.739  0.1767 -0.2909 -0.0273
 4338TIP3    H134573   0.902   3.928   8.675  1.7296 -1.3732  0.7621
 4338TIP3    H234574   0.827   4.026   8.762 -0.4227  1.0317 -3.5081
 4339TIP3   OH234575   4.130   1.674   0.028  0.0040 -0.1839  0.7863
 4339TIP3    H134576   4.058   1.680  -0.035  0.0782 -2.8101  0.3097
 4339TIP3    H234577   4.173   1.590   0.007  3.8570  1.6481  0.3928
 4340TIP3   OH234578   3.646   2.265   8.823 -0.5279  0.4795 -0.3640
 4340TIP3    H134579   3.734   2.297   8.807 -0.3139  0.0246 -0.1075
 4340TIP3    H234580   3.614   2.238   8.737  0.5054 -1.6781 -0.1366
 4341TIP3   OH234581   0.129   0.822   0.394 -0.2120  0.1454 -0.3636
 4341TIP3    H134582   0.155   0.903   0.436  0.7555  0.0014 -0.6542
 4341TIP3    H234583   0.196   0.807   0.326 -0.4927 -0.7664 -0.4617
 4342TIP3   OH234584   1.163   4.801   6.395  0.1028  0.3592 -0.3387
 4342TIP3    H134585   1.192   4.721   6.440 -2.1305  0.4304  1.3517
 4342TIP3    H234586   1.217   4.803   6.315 -0.1644 -3.1815 -0.7895
 4343TIP3   OH234587   5.367   6.080   7.983 -0.2978  0.0343  0.0703
 4343TIP3    H134588   5.329   5.997   7.952 -0.8046  0.0936  0.5062
 4343TIP3    H234589   5.411   6.057   8.064  1.2578 -0.1714 -0.7950
 4344TIP3   OH234590   1.626   4.031   7.368  0.2159  0.8382  0.3103
 4344TIP3    H134591   1.630   4.122   7.396  1.9153  0.8735  0.0604
 4344TIP3    H234592   1.554   3.994   7.418 -2.8001  3.0659 -2.0262
 4345TIP3   OH234593   6.589   4.632   8.353  0.3995  0.1443 -0.2728
 4345TIP3    H134594   6.556   4.714   8.314  2.0216  0.2746 -1.4742
 4345TIP3    H234595   6.590   4.570   8.280  2.5247  0.0932 -0.2701
 4346TIP3   OH234596   4.832   3.618   1.185 -0.5748 -0.5023  0.0554
 4346TIP3    H134597   4.740   3.640   1.171  0.1646  1.9669 -1.6160
 4346TIP3    H234598   4.873   3.701   1.208  1.3753 -1.3954 -0.0310
 4347TIP3   OH234599   5.247   5.342   6.246  0.2542  0.2013  0.5731
 4347TIP3    H134600   5.190   5.404   6.292  0.0913 -0.4359  1.2579
 4347TIP3    H234601   5.325   5.393   6.224 -1.2339  1.5998 -1.9772
 4348TIP3   OH234602   4.261   0.725   7.757 -0.2159  0.4374 -0.0369
 4348TIP3    H134603   4.195   0.721   7.827 -2.1877  0.4519 -1.7827
 4348TIP3    H234604   4.212   0.706   7.677  2.0910 -0.3409 -1.3697
 4349TIP3   OH234605   0.342   5.064   7.952 -0.6793 -0.3313 -0.0209
 4349TIP3    H134606   0.340   5.133   7.886 -1.2538 -0.6442 -0.3355
 4349TIP3    H234607   0.265   5.081   8.006 -0.2642 -0.1319  0.5189
 4350TIP3   OH234608   5.804   1.522   8.047 -0.2252 -0.2470 -0.4389
 4350TIP3    H134609   5.748   1.526   7.970 -0.2736  0.5712 -0.3725
 4350TIP3    H234610   5.835   1.612   8.059  1.3167 -0.7091 -0.6380
 4351TIP3   OH234611   1.357   0.043   1.624 -0.6061 -0.0982  0.2018
 4351TIP3    H134612   1.297   0.040   1.549 -2.6697  1.9223  1.6720
 4351TIP3    H234613   1.349  -0.043   1.665  0.8660 -1.4039 -1.9936
 4352TIP3   OH234614   1.472   4.337   8.558 -0.2924  0.0244 -0.2565
 4352TIP3    H134615   1.527   4.343   8.480 -0.1541  1.0437 -0.0905
 4352TIP3    H234616   1.463   4.427   8.588  1.1574 -0.4720  1.9407
 4353TIP3   OH234617   3.422   4.702   7.275 -0.7923 -0.1928  0.0847
 4353TIP3    H134618   3.433   4.610   7.299 -0.1222 -0.0402  0.3855
 4353TIP3    H234619   3.327   4.713   7.267 -0.8998 -0.8280  0.3674
 4354TIP3   OH234620   4.643   5.186   7.140  0.0694  0.2780  0.1784
 4354TIP3    H134621   4.690   5.176   7.223 -0.0377  0.2868  0.2397
 4354TIP3    H234622   4.709   5.169   7.073  0.2458  0.6499  0.2603
 4355TIP3   OH234623   5.923   1.669   6.495  0.1049  0.2692 -1.0212
 4355TIP3    H134624   5.876   1.746   6.526  0.0013 -1.3704  3.7480
 4355TIP3    H234625   6.011   1.702   6.473 -0.1337  1.8814  0.2548
 4356TIP3   OH234626   4.284   6.078   0.375 -0.1452  0.5480 -0.1296
 4356TIP3    H134627   4.225   6.129   0.429 -0.1931  0.6918 -0.3190
 4356TIP3    H234628   4.336   6.027   0.437 -0.3552  0.5435  0.0421
 4357TIP3   OH234629   2.149   2.411   1.264  0.5102 -0.0953 -0.5040
 4357TIP3    H134630   2.093   2.376   1.333 -1.1278  2.0206 -0.6471
 4357TIP3    H234631   2.223   2.449   1.311 -0.1604  0.5638  0.0505
 4358TIP3   OH234632   2.251   5.948   1.558  0.4853  0.1936  0.8210
 4358TIP3    H134633   2.344   5.968   1.569  0.6382 -0.4783  0.7657
 4358TIP3    H234634   2.233   5.968   1.466  0.6431  0.0457  0.7590
 4359TIP3   OH234635   5.224   4.937   8.398 -0.0299 -0.3449  0.1558
 4359TIP3    H134636   5.310   4.921   8.359  0.6605 -2.2152  2.2576
 4359TIP3    H234637   5.230   4.900   8.486 -2.9603 -0.4054  0.4292
 4360TIP3   OH234638   6.632   0.782   8.389 -0.0687  0.4680 -0.1551
 4360TIP3    H134639   6.687   0.732   8.329  0.9348  2.4640 -0.9936
 4360TIP3    H234640   6.543   0.765   8.359  0.3214  0.1559 -1.1909
 4361TIP3   OH234641   4.545   4.276   8.041 -0.3301  0.2904 -0.6047
 4361TIP3    H134642   4.626   4.327   8.038 -0.6648  0.9085  0.3317
 4361TIP3    H234643   4.493   4.319   8.108 -1.1907 -0.4722 -0.7728
 4362TIP3   OH234644   6.370   6.652   6.645  0.3416 -0.3267 -0.0866
 4362TIP3    H134645   6.308   6.583   6.670  0.2461  0.7550  3.0497
 4362TIP3    H234646   6.456   6.617   6.670  0.2653  0.7111  1.8012
 4363TIP3   OH234647   2.764   3.172   1.793  0.6086  0.1071 -0.4037
 4363TIP3    H134648   2.702   3.174   1.866  1.6148  1.2722  0.4570
 4363TIP3    H234649   2.846   3.143   1.832  0.7622 -0.9085 -1.4273
 4364TIP3   OH234650   0.402   2.907   0.857 -0.6823 -0.0764 -0.3494
 4364TIP3    H134651   0.403   2.936   0.949 -0.6229 -0.2500 -0.2939
 4364TIP3    H234652   0.312   2.879   0.841 -0.9764  1.0392 -0.6928
 4365TIP3   OH234653   6.174   2.525   7.110  0.1137 -0.2220 -0.5381
 4365TIP3    H134654   6.142   2.512   7.021 -1.2608  0.5221 -0.1805
 4365TIP3    H234655   6.261   2.563   7.099 -0.7487  1.5952 -1.6158
 4366TIP3   OH234656   6.217   5.775   2.104 -0.3814  0.0913 -0.4743
 4366TIP3    H134657   6.283   5.829   2.061 -1.1743  0.6558 -1.0178
 4366TIP3    H234658   6.246   5.685   2.087 -0.9394  0.2665 -2.7166
 4367TIP3   OH234659   4.907   1.981   6.301 -0.0748 -0.4582  0.8312
 4367TIP3    H134660   4.950   1.896   6.306  0.1240 -0.3631  0.7798
 4367TIP3    H234661   4.978   2.042   6.277 -0.4649 -0.4800 -0.4276
 4368TIP3   OH234662   5.368   3.833   7.379  0.0186  0.1405  0.1214
 4368TIP3    H134663   5.370   3.928   7.364 -2.3020  0.0370 -1.2639
 4368TIP3    H234664   5.459   3.805   7.371  0.5527  2.0348 -1.0087
 4369TIP3   OH234665   5.429   3.635   7.686 -0.4160  0.2582 -0.1086
 4369TIP3    H134666   5.414   3.665   7.776 -1.7132 -0.3600 -0.0854
 4369TIP3    H234667   5.523   3.617   7.682 -0.2206  0.9750  0.9040
 4370TIP3   OH234668   1.534   4.169   1.077  0.6182  0.0724 -0.2972
 4370TIP3    H134669   1.520   4.075   1.093 -2.3946  0.3175 -0.8855
 4370TIP3    H234670   1.601   4.172   1.009  0.2928 -1.7124 -0.7529
 4371TIP3   OH234671   1.185   6.287   0.391  0.2863  0.7536  0.1704
 4371TIP3    H134672   1.225   6.289   0.304  4.1408  0.9255  1.7466
 4371TIP3    H234673   1.188   6.378   0.421 -0.5827  0.6278  0.6882
 4372TIP3   OH234674   6.430   3.734   0.188 -0.1115 -0.0162  0.1777
 4372TIP3    H134675   6.414   3.713   0.280 -3.1025 -1.9441 -0.6202
 4372TIP3    H234676   6.344   3.722   0.146  1.1693  0.6581 -2.9043
 4373TIP3   OH234677   5.402   6.003   0.996 -0.0705 -0.5336  0.5420
 4373TIP3    H134678   5.319   5.993   0.948 -0.0458  1.1984  0.0771
 4373TIP3    H234679   5.380   5.979   1.086 -0.8048 -1.1336  0.2200
 4374TIP3   OH234680   3.464   3.448   1.214 -0.3465 -0.2309 -0.4076
 4374TIP3    H134681   3.480   3.396   1.135 -2.0648 -1.1587 -0.1903
 4374TIP3    H234682   3.519   3.407   1.281 -1.2722 -1.4500 -0.3724
 4375TIP3   OH234683   0.185   4.463   8.807 -0.2807 -0.2034  0.6041
 4375TIP3    H134684   0.131   4.539   8.828  0.5592  1.5034 -2.6310
 4375TIP3    H234685   0.235   4.446   8.886 -1.4276  1.8166  1.8554
 4376TIP3   OH234686   4.669   0.137   0.597  0.5929 -0.0750 -0.3889
 4376TIP3    H134687   4.698   0.180   0.677  0.3541 -0.8087  0.0999
 4376TIP3    H234688   4.641   0.209   0.540  1.2644  0.4875 -0.0239
 4377TIP3   OH234689   5.216   3.202   0.817 -0.4109  0.2804 -0.0945
 4377TIP3    H134690   5.284   3.262   0.849 -0.1896  0.6079 -1.1342
 4377TIP3    H234691   5.258   3.116   0.816 -0.2910  0.3362  0.1002
 4378TIP3   OH234692   0.178   6.497   1.694 -1.1242  0.1654 -0.0843
 4378TIP3    H134693   0.087   6.472   1.702 -0.9278 -0.7998 -0.7179
 4378TIP3    H234694   0.195   6.552   1.771 -2.1008 -0.0275  0.2814
 4379TIP3   OH234695   4.711   6.726   7.268 -0.0123  0.2967 -0.2823
 4379TIP3    H134696   4.803   6.730   7.295 -0.5135 -2.0476  2.0852
 4379TIP3    H234697   4.713   6.681   7.184  1.0127  0.6611 -0.4715
 4380TIP3   OH234698   1.549   0.088   8.842 -0.3871  0.0930 -0.3700
 4380TIP3    H134699   1.561  -0.007   8.843 -1.2943 -0.0344 -0.4179
 4380TIP3    H234700   1.616   0.121   8.902 -0.7061 -0.6674  0.4346
 4381TIP3   OH234701   3.844   0.787   1.765 -0.6922  0.3023 -0.2820
 4381TIP3    H134702   3.856   0.724   1.694 -1.6646  0.4010 -0.5560
 4381TIP3    H234703   3.885   0.867   1.734  1.4872 -0.4309  0.4903
 4382TIP3   OH234704   6.093   6.517   0.680 -0.1579  0.2878 -0.5109
 4382TIP3    H134705   5.998   6.514   0.687 -0.1181  1.1632  0.6960
 4382TIP3    H234706   6.119   6.425   0.670 -1.1734  0.1244 -1.9500
 4383TIP3   OH234707   5.704   5.127   7.796 -0.3022 -0.0052 -0.2987
 4383TIP3    H134708   5.621   5.100   7.836  0.1058 -0.0951  0.5105
 4383TIP3    H234709   5.758   5.154   7.870 -0.0175  1.1800 -0.9142
 4384TIP3   OH234710   3.444   5.077   0.546  0.6326  0.2904 -0.6075
 4384TIP3    H134711   3.405   5.164   0.538  0.8543  0.4289 -0.2377
 4384TIP3    H234712   3.469   5.052   0.457  0.8597  0.7431 -0.6716
 4385TIP3   OH234713   2.159   5.758   7.653 -0.7726 -0.0317  0.0548
 4385TIP3    H134714   2.210   5.803   7.720  0.4731  0.8092 -1.3924
 4385TIP3    H234715   2.093   5.821   7.626 -1.1570 -0.3020  0.3578
 4386TIP3   OH234716   2.363   1.166   7.074 -0.0739  0.3773 -0.4004
 4386TIP3    H134717   2.400   1.189   7.159  0.3743 -0.0137 -0.4864
 4386TIP3    H234718   2.280   1.124   7.094 -0.9414  2.0907 -0.2382
 4387TIP3   OH234719   4.605   0.227   7.241 -0.2539 -0.4257  0.7042
 4387TIP3    H134720   4.580   0.138   7.264 -0.1952 -0.1926  1.7128
 4387TIP3    H234721   4.667   0.217   7.168 -0.8703 -1.1570  0.2698
 4388TIP3   OH234722   6.604   1.875   6.880  0.0308 -0.0523 -0.3409
 4388TIP3    H134723   6.509   1.870   6.865 -0.0902  1.3552 -0.1916
 4388TIP3    H234724   6.643   1.880   6.793 -0.2105  1.6140 -0.3807
 4389TIP3   OH234725   2.072   2.946   0.798 -0.0291  0.1593  0.1834
 4389TIP3    H134726   1.989   2.919   0.837  0.8796 -2.1504  0.6367
 4389TIP3    H234727   2.139   2.914   0.859  1.2365  1.5599 -0.4033
 4390TIP3   OH234728   1.646   2.941   0.648  0.3174 -0.2834  0.4677
 4390TIP3    H134729   1.638   2.847   0.667  1.3784 -0.2836  0.9984
 4390TIP3    H234730   1.556   2.974   0.652  0.0917 -0.9670  2.0257
 4391TIP3   OH234731   6.183   6.604   8.143  0.1407 -0.5555 -0.6191
 4391TIP3    H134732   6.227   6.644   8.068  1.6632  0.8113  0.9365
 4391TIP3    H234733   6.094   6.587   8.112 -0.2365  2.8598 -1.8185
 4392TIP3   OH234734   3.432   6.609   2.243  0.4232 -0.6678 -0.1449
 4392TIP3    H134735   3.446   6.675   2.175  0.0608  0.5029  0.8850
 4392TIP3    H234736   3.378   6.543   2.201  1.0861 -0.4990 -1.3032
 4393TIP3   OH234737   5.548   0.035   1.758  0.2461  0.1183  0.4614
 4393TIP3    H134738   5.607   0.108   1.776 -0.5244  0.4296  1.8508
 4393TIP3    H234739   5.463   0.076   1.740  0.0730 -0.3925  0.0788
 4394TIP3   OH234740   1.996   3.532   1.745  0.4371 -0.1151 -0.1244
 4394TIP3    H134741   1.972   3.454   1.695 -1.8439 -0.2634  1.0576
 4394TIP3    H234742   2.011   3.499   1.833 -1.5871  0.8211  0.6396
 4395TIP3   OH234743   6.397   1.134   7.974  0.2105  0.0640 -0.1999
 4395TIP3    H134744   6.482   1.110   7.938 -0.5387 -1.6834 -0.9112
 4395TIP3    H234745   6.347   1.052   7.975 -1.9093  1.2729 -1.0098
 4396TIP3   OH234746   3.229   6.409   7.508  0.0516 -0.2978  0.6824
 4396TIP3    H134747   3.185   6.459   7.577 -0.5721  0.7448 -0.4142
 4396TIP3    H234748   3.204   6.454   7.427  2.2535 -0.3229 -0.0989
 4397TIP3   OH234749   5.556   4.856   1.277  0.2594  0.8208  0.6149
 4397TIP3    H134750   5.600   4.809   1.206 -0.2476 -1.1600  1.5263
 4397TIP3    H234751   5.626   4.876   1.339  0.2222 -0.5269  1.1258
 4398TIP3   OH234752   1.803   0.722   8.038  0.1441 -0.4354 -0.6056
 4398TIP3    H134753   1.711   0.698   8.048 -0.6839  2.5697  0.0938
 4398TIP3    H234754   1.836   0.663   7.970 -1.7447 -2.8562  0.4432
 4399TIP3   OH234755   1.170   6.680   7.351  0.7452  0.7479 -0.5364
 4399TIP3    H134756   1.197   6.757   7.401  1.3745  0.8445 -1.0159
 4399TIP3    H234757   1.075   6.687   7.345  0.5399  0.2693  1.3957
 4400TIP3   OH234758   3.525   3.145   7.956  0.4808  1.0160  0.2425
 4400TIP3    H134759   3.446   3.105   7.921  1.3692 -0.8184  0.2393
 4400TIP3    H234760   3.557   3.083   8.021  1.5229  2.0755  0.7854
 4401TIP3   OH234761   0.156   0.887   7.846  0.4044  0.1194 -0.6138
 4401TIP3    H134762   0.208   0.967   7.857  1.3471 -0.4283 -0.9830
 4401TIP3    H234763   0.159   0.869   7.752  0.6845 -0.6625 -0.4627
 4402TIP3   OH234764   4.052   3.083   6.385  0.4694 -0.1642 -0.4558
 4402TIP3    H134765   4.127   3.104   6.440  0.7572  1.0395 -1.2586
 4402TIP3    H234766   3.977   3.080   6.445  1.1695 -1.7084  0.4007
 4403TIP3   OH234767   4.076   5.752   0.495  0.3253 -0.0394  0.1173
 4403TIP3    H134768   4.069   5.656   0.489 -1.3052  0.0739 -0.3870
 4403TIP3    H234769   4.124   5.778   0.416  1.9812 -0.5071  0.9209
 4404TIP3   OH234770   6.576   5.821   8.708  0.3141  0.2000 -0.2118
 4404TIP3    H134771   6.519   5.868   8.646 -0.5035  0.4643  0.7188
 4404TIP3    H234772   6.518   5.759   8.752  0.6300  0.7546  1.0429
 4405TIP3   OH234773   1.490   5.956   0.319  0.1024 -0.4142  0.4577
 4405TIP3    H134774   1.540   5.998   0.249  1.3274 -0.6870  1.1447
 4405TIP3    H234775   1.520   5.865   0.320 -1.6320 -1.0424 -0.1980
 4406TIP3   OH234776   6.451   3.781   8.126  0.5721  0.3795  0.1443
 4406TIP3    H134777   6.486   3.693   8.139  0.3021  0.1532 -0.6056
 4406TIP3    H234778   6.456   3.822   8.212 -1.1868 -1.0564  1.0006
 4407TIP3   OH234779   5.529   6.739   0.143 -0.1581 -0.1779 -0.1464
 4407TIP3    H134780   5.488   6.669   0.193 -1.0765 -0.2052 -0.8993
 4407TIP3    H234781   5.615   6.705   0.119 -0.8765 -1.3785 -1.1522
 4408TIP3   OH234782   5.229   4.867   0.719 -0.2790  0.3783  0.6522
 4408TIP3    H134783   5.255   4.819   0.798  0.0239 -0.9053 -0.1952
 4408TIP3    H234784   5.134   4.852   0.713 -0.0354 -1.0996 -0.1871
 4409TIP3   OH234785   1.074   6.203   1.769  0.5019  0.0249 -0.1361
 4409TIP3    H134786   1.158   6.169   1.738  1.8451  0.5039  2.7036
 4409TIP3    H234787   1.051   6.146   1.843 -1.2765  0.4319 -0.3316
 4410TIP3   OH234788   6.689   3.311   7.686  0.1602  0.5752 -0.4874
 4410TIP3    H134789   6.655   3.227   7.715  0.3971  0.6132 -0.0865
 4410TIP3    H234790   6.779   3.294   7.660  0.4101  0.8212  0.1982
 4411TIP3   OH234791   4.678   0.837   1.350 -0.8315  0.3115  0.3114
 4411TIP3    H134792   4.669   0.776   1.422  1.6954 -0.4975  0.0148
 4411TIP3    H234793   4.600   0.821   1.295 -3.0043  1.2222  2.9151
 4412TIP3   OH234794   0.196   1.259   1.287 -0.0408  0.4612 -1.0701
 4412TIP3    H134795   0.262   1.232   1.351 -1.4138 -1.7361 -0.4681
 4412TIP3    H234796   0.179   1.351   1.308  0.3545  0.1163  1.0374
 4413TIP3   OH234797   4.920   0.714   1.613  0.4915 -0.0799 -0.2647
 4413TIP3    H134798   4.917   0.808   1.595  1.2728 -0.0918 -0.4977
 4413TIP3    H234799   4.854   0.700   1.680 -0.2828  0.4873 -0.8838
 4414TIP3   OH234800   5.752   5.624   0.779  0.0131  0.8703 -0.1272
 4414TIP3    H134801   5.748   5.716   0.753 -1.4628  0.7135 -0.6075
 4414TIP3    H234802   5.669   5.588   0.747  0.9638 -0.8392 -0.7677
 4415TIP3   OH234803   2.150   0.762   8.580  0.2118 -0.0905 -0.2403
 4415TIP3    H134804   2.074   0.777   8.636  0.0201 -0.7760 -0.3051
 4415TIP3    H234805   2.117   0.772   8.491  0.4663  0.7753 -0.2445
 4416TIP3   OH234806   6.442   5.681   8.452  0.2217 -0.1786 -0.3131
 4416TIP3    H134807   6.450   5.770   8.487  0.3469 -0.1340 -0.4541
 4416TIP3    H234808   6.357   5.651   8.483  0.9906 -0.7273  1.3915
 4417TIP3   OH234809   0.614   0.533   0.907 -0.2432  0.9260  0.8116
 4417TIP3    H134810   0.584   0.467   0.970 -0.7916  0.5745  0.1922
 4417TIP3    H234811   0.697   0.500   0.874 -0.9096  0.1082 -0.1130
 4418TIP3   OH234812   6.283   4.781   7.774  0.1925 -0.1294  0.5285
 4418TIP3    H134813   6.217   4.766   7.842  0.0131  1.1897  0.6738
 4418TIP3    H234814   6.335   4.700   7.772  1.4990  0.5018  3.6402
 4419TIP3   OH234815   5.977   4.939   0.400 -0.4643  0.2561  0.0387
 4419TIP3    H134816   5.916   4.893   0.457 -0.9797  1.0054  0.1061
 4419TIP3    H234817   6.056   4.884   0.399 -0.2440  0.4924  1.9133
 4420TIP3   OH234818   2.083   2.865   7.920 -0.1694 -0.2713 -0.1399
 4420TIP3    H134819   2.071   2.771   7.929  0.5281 -0.4183 -0.7676
 4420TIP3    H234820   2.159   2.886   7.975 -0.0309 -0.1439 -0.3795
 4421TIP3   OH234821   3.192   0.268   0.288  0.2679  0.0679  0.7431
 4421TIP3    H134822   3.220   0.305   0.372  1.8587 -2.0327  1.1953
 4421TIP3    H234823   3.118   0.211   0.310  0.1199  0.1910  0.5717
 4422TIP3   OH234824   3.597   5.425   7.720  0.0174  0.5248  0.5436
 4422TIP3    H134825   3.581   5.411   7.627  1.6684  1.7386  0.0299
 4422TIP3    H234826   3.688   5.398   7.733 -0.2579  0.1579  1.8673
 4423TIP3   OH234827   4.742   0.241   0.852  0.2075 -0.3801 -0.3206
 4423TIP3    H134828   4.804   0.239   0.925  2.1618  0.9605 -1.8488
 4423TIP3    H234829   4.741   0.333   0.824 -3.1341 -0.1532  0.0962
 4424TIP3   OH234830   2.890   0.013   0.861 -0.0264  0.0469 -0.3668
 4424TIP3    H134831   2.893   0.069   0.783 -0.1948 -1.3991 -1.4414
 4424TIP3    H234832   2.807   0.035   0.904  0.0934  0.8847 -0.5509
 4425TIP3   OH234833   4.573   2.531   0.412  0.5595 -0.1004  0.8562
 4425TIP3    H134834   4.554   2.441   0.388 -1.9947  0.7419 -0.6677
 4425TIP3    H234835   4.557   2.535   0.507  0.0503 -1.0847  0.8175
 4426TIP3   OH234836   0.697   5.519   0.291  0.1991  0.1758  0.0435
 4426TIP3    H134837   0.715   5.495   0.382  0.6033 -0.5257 -0.2162
 4426TIP3    H234838   0.747   5.600   0.278  2.0256 -0.9482 -0.2216
 4427TIP3   OH234839   3.692   4.941   0.802  0.2529  0.3311  0.2757
 4427TIP3    H134840   3.599   4.922   0.787 -0.2003  0.8593  2.1267
 4427TIP3    H234841   3.725   4.865   0.849  0.4166  0.6969  0.7640
 4428TIP3   OH234842   1.267   2.922   7.610 -0.6586 -0.1458 -0.3514
 4428TIP3    H134843   1.172   2.910   7.613 -1.0391  2.1086 -1.5720
 4428TIP3    H234844   1.297   2.860   7.544 -1.3926 -0.2088 -0.6299
 4429TIP3   OH234845   0.855   2.041   7.618 -0.9612  0.0251  0.1218
 4429TIP3    H134846   0.922   1.984   7.657 -0.4485  0.7379  0.2908
 4429TIP3    H234847   0.829   2.099   7.690 -2.3302 -0.7270  0.2899
 4430TIP3   OH234848   2.618   2.916   1.031 -0.4559 -0.0424  0.1902
 4430TIP3    H134849   2.646   2.853   0.965  0.4039 -0.3411  0.8308
 4430TIP3    H234850   2.699   2.956   1.062 -0.8645  0.2214  0.9452
 4431TIP3   OH234851   3.533   1.744   7.126 -0.2461 -0.4626  1.0979
 4431TIP3    H134852   3.509   1.659   7.089  0.0644 -1.5846  3.3356
 4431TIP3    H234853   3.612   1.770   7.079 -0.8099 -0.9961 -0.1806
 4432TIP3   OH234854   1.076   5.383   8.756  0.1569 -0.7117 -0.0002
 4432TIP3    H134855   1.076   5.459   8.814 -0.3136 -0.3358 -0.4836
 4432TIP3    H234856   1.012   5.323   8.794 -0.3633 -0.3417 -0.2806
 4433TIP3   OH234857   1.491   1.400   7.140  1.0770  0.3210 -0.3921
 4433TIP3    H134858   1.453   1.329   7.192  0.5873  1.1283  0.3728
 4433TIP3    H234859   1.546   1.448   7.202  0.2838  1.4445 -0.5399
 4434TIP3   OH234860   1.192   5.254   1.488  0.7088  0.3458  0.5245
 4434TIP3    H134861   1.201   5.329   1.429 -1.5262 -0.0331 -0.4060
 4434TIP3    H234862   1.252   5.188   1.454 -0.5473  0.1272 -1.4258
 4435TIP3   OH234863   5.990   2.346   0.460  0.0590 -0.5141  0.4657
 4435TIP3    H134864   5.956   2.283   0.522 -0.2043 -1.3478 -0.4980
 4435TIP3    H234865   6.053   2.297   0.407 -0.4668 -0.1129 -0.5789
 4436TIP3   OH234866   1.307   4.480   0.793  0.2426  0.1710  0.2235
 4436TIP3    H134867   1.311   4.421   0.717 -0.7808  0.7710 -0.3227
 4436TIP3    H234868   1.342   4.428   0.865  1.9595 -0.1693 -0.7986
 4437TIP3   OH234869   3.699   5.113   8.208 -0.0335  0.4696  0.1932
 4437TIP3    H134870   3.792   5.097   8.196  0.1838  2.7048 -1.9048
 4437TIP3    H234871   3.695   5.198   8.251 -1.1500 -0.6600  2.4963
 4438TIP3   OH234872   0.587   4.701   7.255 -0.3538 -0.0420 -0.1499
 4438TIP3    H134873   0.550   4.743   7.178 -1.9850 -1.0431  0.0400
 4438TIP3    H234874   0.541   4.742   7.329 -1.3895 -1.5322  0.0741
 4439TIP3   OH234875   5.093   3.819   0.879 -0.3511  0.0990 -0.1582
 4439TIP3    H134876   5.121   3.758   0.946  0.7115  1.5633  0.8026
 4439TIP3    H234877   5.032   3.878   0.923  0.9981  1.5943 -0.1951
 4440TIP3   OH234878   3.029   4.583   7.446  0.1319 -0.4709 -0.3629
 4440TIP3    H134879   3.069   4.668   7.461  1.5383 -1.2966  0.8312
 4440TIP3    H234880   3.019   4.577   7.351 -0.5036  1.2187 -0.4338
 4441TIP3   OH234881   1.522   4.493   6.242 -0.0053 -0.2604 -0.2568
 4441TIP3    H134882   1.588   4.539   6.294  1.3204 -1.0869 -1.1387
 4441TIP3    H234883   1.440   4.538   6.262  0.9795  1.4895  0.0744
 4442TIP3   OH234884   1.214   6.064   8.403 -0.5346 -0.1086  0.4066
 4442TIP3    H134885   1.310   6.057   8.404 -0.4157  1.1009 -0.2804
 4442TIP3    H234886   1.186   5.988   8.352  0.2598  0.9031 -1.6541
 4443TIP3   OH234887   0.974   4.125   1.060 -0.6013  0.3984  0.1425
 4443TIP3    H134888   0.945   4.118   1.151  0.9710 -0.6849  0.6046
 4443TIP3    H234889   0.978   4.219   1.042  2.2987  0.8321  2.3444
 4444TIP3   OH234890   6.108   4.993   0.727 -0.2182 -0.2402  0.0564
 4444TIP3    H134891   6.029   4.971   0.677 -0.1138  1.2300 -0.8225
 4444TIP3    H234892   6.136   5.078   0.692  0.8058  0.0657  1.5129
 4445TIP3   OH234893   6.488   0.714   0.828 -0.2981  0.1252 -0.6998
 4445TIP3    H134894   6.403   0.754   0.811 -0.8334 -0.6616  0.0414
 4445TIP3    H234895   6.504   0.659   0.751 -0.3530  0.4338 -0.9364
 4446TIP3   OH234896   1.717   4.761   1.725  0.4139  0.0350 -0.0795
 4446TIP3    H134897   1.670   4.692   1.678  1.8153  0.6215 -2.5272
 4446TIP3    H234898   1.652   4.828   1.742 -0.3552 -0.6556 -0.2343
 4447TIP3   OH234899   3.184   6.047   0.422 -0.0389 -0.2310  0.1492
 4447TIP3    H134900   3.279   6.042   0.410  0.0593  1.8019 -0.1395
 4447TIP3    H234901   3.169   6.013   0.510  0.9120 -0.8443  0.0852
 4448TIP3   OH234902   6.315   3.438   0.727  0.5481 -0.2639  0.5496
 4448TIP3    H134903   6.310   3.534   0.722 -0.0070 -0.3250 -0.2782
 4448TIP3    H234904   6.401   3.417   0.690  0.2872 -0.1333 -0.1475
 4449TIP3   OH234905   1.941   2.203   7.988 -0.1634  0.0174 -0.1602
 4449TIP3    H134906   1.960   2.238   7.901  1.5559 -0.4782 -0.0230
 4449TIP3    H234907   2.004   2.132   8.000 -1.2102 -0.7618  0.9970
 4450TIP3   OH234908   3.946   1.504   6.844  0.5606 -0.1163 -0.0232
 4450TIP3    H134909   4.010   1.556   6.796 -0.6425  0.8485 -0.6193
 4450TIP3    H234910   3.906   1.447   6.779 -0.5264  0.6477 -0.0567
 4451TIP3   OH234911   1.942   0.947   7.967 -0.1106  0.5547 -0.1847
 4451TIP3    H134912   1.922   0.982   8.054  1.5965  0.4430  0.2927
 4451TIP3    H234913   1.918   0.855   7.973  2.4254 -0.1265  1.1207
 4452TIP3   OH234914   4.705   4.990   8.222 -0.6452  0.1620  0.5700
 4452TIP3    H134915   4.768   4.958   8.157 -1.3770 -1.6870  0.7137
 4452TIP3    H234916   4.620   4.967   8.186 -1.0580 -1.0956  2.2420
 4453TIP3   OH234917   0.026   1.624   1.663 -0.6957 -0.3225 -0.0127
 4453TIP3    H134918  -0.025   1.611   1.743 -2.8821 -2.1544 -1.5696
 4453TIP3    H234919  -0.021   1.693   1.616  0.3319  0.4320  0.0118
 4454TIP3   OH234920   2.087   3.691   8.497  0.4106  0.5679 -0.2012
 4454TIP3    H134921   2.041   3.747   8.560 -1.5963 -1.0223 -0.1257
 4454TIP3    H234922   2.088   3.741   8.416 -1.0065  0.8929 -0.0445
 4455TIP3   OH234923   4.263   2.454   8.074  0.4490 -0.1521 -0.2486
 4455TIP3    H134924   4.177   2.481   8.104 -0.1089 -2.4185  0.4239
 4455TIP3    H234925   4.276   2.500   7.991 -2.0383 -0.7974 -1.0874
 4456TIP3   OH234926   0.345   2.189   1.711  0.5554  0.4018  0.0621
 4456TIP3    H134927   0.433   2.222   1.693  0.3409  0.6113 -0.6776
 4456TIP3    H234928   0.311   2.247   1.779  0.5674  1.0804 -0.4887
 4457TIP3   OH234929   1.951   5.717   8.628  0.6300 -0.2364 -0.4762
 4457TIP3    H134930   1.889   5.645   8.615 -0.3879  0.4454  0.4696
 4457TIP3    H234931   1.992   5.699   8.712 -0.6402  0.9974  0.4290
 4458TIP3   OH234932   1.887   2.614   0.643  0.6045 -0.0557 -0.3698
 4458TIP3    H134933   1.818   2.661   0.596  0.2107  0.4161  0.6528
 4458TIP3    H234934   1.969   2.648   0.606  0.3108  0.8151 -0.2370
 4459TIP3   OH234935   0.395   1.443   6.764  0.1710 -0.1117  0.0668
 4459TIP3    H134936   0.445   1.457   6.844  1.1791 -1.0108 -0.3896
 4459TIP3    H234937   0.305   1.464   6.788  0.8182  2.2039  0.7309
 4460TIP3   OH234938   4.343   3.416   1.462  0.0698 -0.3086 -0.1841
 4460TIP3    H134939   4.306   3.449   1.543  0.1396 -2.3408  0.7264
 4460TIP3    H234940   4.432   3.453   1.460 -0.7636  1.7874 -0.6574
 4461TIP3   OH234941   5.055   0.705   0.026  0.1960 -0.1340 -0.2890
 4461TIP3    H134942   5.108   0.640   0.072 -0.1867  0.1246  0.5208
 4461TIP3    H234943   5.097   0.713  -0.060  1.0200 -0.4885  0.0695
 4462TIP3   OH234944   5.845   3.100   7.389 -0.4146 -0.1156  0.1725
 4462TIP3    H134945   5.795   3.039   7.443 -0.8617 -2.0239 -2.2118
 4462TIP3    H234946   5.935   3.067   7.393 -0.6739 -1.0904 -1.1966
 4463TIP3   OH234947   3.923   4.211   8.673 -0.0754 -0.1591  0.2488
 4463TIP3    H134948   4.015   4.209   8.699  1.0541  1.9490 -2.9719
 4463TIP3    H234949   3.915   4.142   8.607 -0.6463  0.0524  0.0878
 4464TIP3   OH234950   6.323   2.373   6.821 -0.2550 -0.6610  0.2120
 4464TIP3    H134951   6.407   2.406   6.852  0.8966  0.7419 -3.7795
 4464TIP3    H234952   6.258   2.429   6.862  1.2172  1.9852 -0.8591
 4465TIP3   OH234953   2.464   6.252   0.112 -0.8865 -0.2570  0.1532
 4465TIP3    H134954   2.452   6.215   0.024  3.4451 -1.9975  0.0109
 4465TIP3    H234955   2.414   6.195   0.170 -1.0911 -1.1543 -0.8802
 4466TIP3   OH234956   0.859   2.075   7.342  0.5404 -0.0656 -0.2627
 4466TIP3    H134957   0.897   2.150   7.389  0.3545  0.7964 -1.4296
 4466TIP3    H234958   0.779   2.055   7.391  0.3453  0.8149 -0.1946
 4467TIP3   OH234959   3.500   3.383   8.657 -0.2823  0.3590  0.6248
 4467TIP3    H134960   3.518   3.345   8.571 -1.2239 -0.7064  0.8725
 4467TIP3    H234961   3.520   3.313   8.719 -2.6620 -0.0236  1.0573
 4468TIP3   OH234962   2.001   0.288   1.993  0.0184 -0.3329 -0.3760
 4468TIP3    H134963   2.075   0.323   2.042  0.0383  0.7535 -1.1436
 4468TIP3    H234964   1.933   0.274   2.058  0.2168  0.6011  0.0440
 4469TIP3   OH234965   4.157   3.916   1.604  0.4392 -0.3898  0.0337
 4469TIP3    H134966   4.205   3.995   1.581 -0.6390  0.4898  0.6963
 4469TIP3    H234967   4.177   3.903   1.697 -0.4191 -0.1325  0.2606
 4470TIP3   OH234968   6.175   1.318   6.889  0.3886  0.6791 -0.2019
 4470TIP3    H134969   6.192   1.247   6.828  1.0312 -0.1259  0.8844
 4470TIP3    H234970   6.202   1.397   6.842  0.1014  0.1662 -1.2482
 4471TIP3   OH234971   3.768   1.092   1.907  0.1303  0.3438 -0.1642
 4471TIP3    H134972   3.778   1.176   1.952 -2.2615  0.4021  0.4053
 4471TIP3    H234973   3.778   1.113   1.814  1.7681  0.8103  0.0757
 4472TIP3   OH234974   3.749   1.930   8.647 -0.5575  0.0001  0.0512
 4472TIP3    H134975   3.760   1.848   8.597 -1.2912 -1.1622  1.7063
 4472TIP3    H234976   3.811   1.923   8.719  1.3739  2.2306 -1.2694
 4473TIP3   OH234977   1.393   4.566   8.721 -0.0189  0.3583 -0.8220
 4473TIP3    H134978   1.413   4.625   8.794  0.4911  0.5671 -1.1255
 4473TIP3    H234979   1.327   4.507   8.756  0.2534  0.4253 -0.1694
 4474TIP3   OH234980   4.261   2.351   8.736 -0.0808 -0.1494  0.5129
 4474TIP3    H134981   4.174   2.318   8.756  0.6773 -0.8637  3.0379
 4474TIP3    H234982   4.303   2.280   8.688 -0.2135 -0.6804  1.1707
 4475TIP3   OH234983   2.023   5.506   7.644  0.1193 -0.4108  0.4402
 4475TIP3    H134984   2.091   5.555   7.690 -0.5399  0.8903  0.0597
 4475TIP3    H234985   1.944   5.557   7.655 -0.2170 -0.4212 -1.5231
 4476TIP3   OH234986   3.475   0.561   0.549  0.0377  0.1121 -0.4998
 4476TIP3    H134987   3.474   0.651   0.580  1.0117 -0.0530  0.0484
 4476TIP3    H234988   3.561   0.528   0.574 -0.4307 -1.0773 -0.3944
 4477TIP3   OH234989   3.459   4.593   8.504 -0.1844 -0.3840 -0.1131
 4477TIP3    H134990   3.444   4.649   8.580 -0.1626  0.1988 -0.5326
 4477TIP3    H234991   3.546   4.617   8.473 -0.0195 -0.9206 -0.0741
 4478TIP3   OH234992   4.660   5.715   7.228 -0.3037  0.1281  0.8720
 4478TIP3    H134993   4.720   5.788   7.216 -1.4926  1.1487  0.9916
 4478TIP3    H234994   4.710   5.638   7.200  0.7225  1.0655  0.0452
 4479TIP3   OH234995   1.738   3.313   8.216  0.0704 -0.5676  0.1636
 4479TIP3    H134996   1.775   3.397   8.189 -0.3154 -0.4439  0.0108
 4479TIP3    H234997   1.692   3.281   8.139  0.3711 -1.0117  0.1636
 4480TIP3   OH234998   1.991   5.468   0.862  0.3184  0.0381  0.2084
 4480TIP3    H134999   2.068   5.514   0.829  1.4167 -1.0043  1.1857
 4480TIP3    H235000   1.997   5.476   0.957 -0.9012  0.1002  0.2953
 4481TIP3   OH235001   4.574   2.790   1.078 -0.2891 -0.2814  0.4766
 4481TIP3    H135002   4.523   2.739   1.015 -0.5233  0.5145  0.0062
 4481TIP3    H235003   4.512   2.856   1.110  0.5269  0.9118 -0.3555
 4482TIP3   OH235004   2.965   6.321   2.257  0.2094  0.0681  0.4937
 4482TIP3    H135005   2.915   6.257   2.206  1.7412  0.9100 -2.2451
 4482TIP3    H235006   3.043   6.273   2.285  0.3057  0.1261  0.3286
 4483TIP3   OH235007   4.643   3.368   7.057  0.4041  0.1607  0.4089
 4483TIP3    H135008   4.614   3.459   7.055 -0.5021 -0.0755  1.6324
 4483TIP3    H235009   4.732   3.371   7.090  0.2955  0.5862  0.6605
 4484TIP3   OH235010   6.625   0.311   0.719  0.2461 -0.0488  0.3274
 4484TIP3    H135011   6.549   0.354   0.757  1.3156  0.9432  1.4236
 4484TIP3    H235012   6.589   0.253   0.652 -1.5831 -0.7443  1.8314
 4485TIP3   OH235013   6.632   6.116   0.043 -0.0698  0.0669 -0.0739
 4485TIP3    H135014   6.658   6.168   0.119  0.6776  0.1524 -0.3808
 4485TIP3    H235015   6.714   6.080   0.009 -0.5848 -1.5607  0.2960
 4486TIP3   OH235016   3.006   1.124   7.820  0.1632 -0.8019  0.2689
 4486TIP3    H135017   3.070   1.134   7.750  0.0927  0.9813  0.4267
 4486TIP3    H235018   2.937   1.069   7.781  0.0481  0.2753 -1.1522
 4487TIP3   OH235019   4.169   2.100   0.972  0.2037 -0.2492 -0.2877
 4487TIP3    H135020   4.192   2.137   0.887 -0.6708  2.3267  0.4877
 4487TIP3    H235021   4.212   2.158   1.035 -1.9818  0.0488  1.0460
 4488TIP3   OH235022   4.155   0.347   1.480  0.7740 -0.2960 -0.0493
 4488TIP3    H135023   4.207   0.412   1.433  0.2704  0.3407  0.2470
 4488TIP3    H235024   4.121   0.395   1.556  0.0777 -0.8018 -0.0365
 4489TIP3   OH235025   6.287   5.611   8.111  0.2720  0.3224  0.1390
 4489TIP3    H135026   6.289   5.680   8.044  1.1313 -0.7924 -1.0392
 4489TIP3    H235027   6.372   5.618   8.155  1.0818 -0.9980 -1.1171
 4490TIP3   OH235028   3.490   6.107   8.704  0.0835  0.3272 -0.0507
 4490TIP3    H135029   3.533   6.139   8.624 -1.4344  3.2728  0.1695
 4490TIP3    H235030   3.397   6.118   8.687 -0.2777  0.9410  2.0792
 4491TIP3   OH235031   2.092   1.556   7.157  0.3892  0.3040 -0.2975
 4491TIP3    H135032   2.143   1.559   7.076 -0.9954 -1.1241 -1.2757
 4491TIP3    H235033   2.061   1.466   7.162 -1.2620  0.8935  0.7412
 4492TIP3   OH235034   2.625   1.154   8.334  0.2084  0.1854 -0.1598
 4492TIP3    H135035   2.688   1.094   8.376  0.5060  0.5018 -0.1540
 4492TIP3    H235036   2.540   1.114   8.352  0.4683 -1.0262 -1.3900
 4493TIP3   OH235037   2.972   2.929   8.636 -0.2245 -0.1181  0.3539
 4493TIP3    H135038   2.928   2.885   8.562  2.3005 -1.4992 -0.4699
 4493TIP3    H235039   2.921   2.904   8.713 -2.7938  1.1515 -0.8272
 4494TIP3   OH235040   6.257   6.337   7.950 -0.2541 -0.3057  0.3377
 4494TIP3    H135041   6.174   6.301   7.981 -0.4994  0.9832  1.2760
 4494TIP3    H235042   6.241   6.431   7.943  1.0992 -0.0420  0.4850
 4495TIP3   OH235043   4.965   6.694   0.739  0.1618 -0.4489 -0.0082
 4495TIP3    H135044   4.955   6.601   0.760  0.0764 -0.6222 -0.7804
 4495TIP3    H235045   5.008   6.694   0.654  1.6389  0.2341  0.7012
 4496TIP3   OH235046   0.055   6.346   0.545  0.3088 -0.2667  0.1138
 4496TIP3    H135047   0.077   6.421   0.489 -0.5890  0.7651  1.0977
 4496TIP3    H235048   0.138   6.299   0.556  1.2516  1.4807  0.7699
 4497TIP3   OH235049   2.144   4.796   0.822 -0.1248  0.6068  0.4896
 4497TIP3    H135050   2.108   4.807   0.910 -3.7919 -0.2614 -0.7171
 4497TIP3    H235051   2.163   4.702   0.815  2.7677  1.0408  1.1056
 4498TIP3   OH235052   3.863   5.949   7.823  0.9365  0.0098  0.0074
 4498TIP3    H135053   3.923   5.875   7.831  2.1328  0.9774  0.4411
 4498TIP3    H235054   3.863   5.989   7.910 -2.2829 -1.3332  0.7541
 4499TIP3   OH235055   5.517   6.794   1.416  0.1028  0.0521  0.2105
 4499TIP3    H135056   5.532   6.888   1.409 -0.1699  0.1502  0.8183
 4499TIP3    H235057   5.422   6.785   1.411 -0.0477  0.0384  2.2761
 4500TIP3   OH235058   1.925   1.263   0.386 -0.1071  0.2504  0.4541
 4500TIP3    H135059   1.907   1.340   0.332  0.7943  0.0140 -0.1992
 4500TIP3    H235060   1.864   1.270   0.459 -0.5262  1.2037  0.0215
 4501TIP3   OH235061   4.720   0.845   7.379  0.3263 -0.2513  0.0477
 4501TIP3    H135062   4.740   0.777   7.315  3.1292  1.4643 -1.0861
 4501TIP3    H235063   4.783   0.832   7.449 -0.2950  0.1274  0.6981
 4502TIP3   OH235064   1.771   0.616   1.369  0.3347  0.2261  0.5515
 4502TIP3    H135065   1.711   0.630   1.442 -0.8777  0.7906 -0.5375
 4502TIP3    H235066   1.759   0.524   1.345  1.4099 -0.2311  1.6040
 4503TIP3   OH235067   5.576   1.032   8.121  0.6838 -0.3050 -0.2863
 4503TIP3    H135068   5.659   1.056   8.163  1.5400 -2.5599 -0.5344
 4503TIP3    H235069   5.603   0.980   8.045 -0.9772 -1.6040 -0.0194
 4504TIP3   OH235070   2.802   6.384   0.986  0.1142  0.1209  0.1532
 4504TIP3    H135071   2.775   6.434   0.909  1.1376 -1.4495 -1.3174
 4504TIP3    H235072   2.748   6.305   0.983  0.2030  0.0183  1.0354
 4505TIP3   OH235073   5.756   6.596   7.544  0.3570  0.3555  0.1552
 4505TIP3    H135074   5.830   6.539   7.521  0.8266  1.2731 -0.6652
 4505TIP3    H235075   5.784   6.641   7.623  0.1662 -0.2163  0.5518
 4506TIP3   OH235076   0.069   0.713   0.901  0.7054 -0.1225  0.2561
 4506TIP3    H135077   0.018   0.794   0.911  0.0710 -0.5528  0.5517
 4506TIP3    H235078   0.049   0.683   0.813  0.1242 -0.4971  0.5062
 4507TIP3   OH235079   5.387   6.450   1.187  0.2212  0.5510 -0.1355
 4507TIP3    H135080   5.320   6.512   1.159 -1.5199 -1.6946 -1.2340
 4507TIP3    H235081   5.380   6.448   1.283  0.9185  2.6008  0.0092
 4508TIP3   OH235082   2.179   2.194   1.061  0.2292 -0.0776  0.0565
 4508TIP3    H135083   2.118   2.128   1.094 -0.5886 -0.0611 -1.3445
 4508TIP3    H235084   2.169   2.268   1.121 -0.4248 -0.4356  0.3983
 4509TIP3   OH235085   3.368   2.587   7.743  0.4005 -0.2972  0.1438
 4509TIP3    H135086   3.290   2.537   7.720 -0.4466  1.4602 -1.0255
 4509TIP3    H235087   3.441   2.531   7.718 -0.4898 -1.3134 -0.2720
 4510TIP3   OH235088   1.253   5.166   8.136  0.4612 -0.6659 -0.1644
 4510TIP3    H135089   1.270   5.076   8.106  1.8270 -1.0458  1.5850
 4510TIP3    H235090   1.287   5.168   8.225 -1.4862  0.9986  0.6151
 4511TIP3   OH235091   0.402   3.140   1.186 -0.0507 -0.7064  0.5793
 4511TIP3    H135092   0.385   3.202   1.257 -1.4455  0.9331 -1.0732
 4511TIP3    H235093   0.396   3.192   1.106  1.5173 -2.4607 -0.7932
 4512TIP3   OH235094   3.602   1.197   6.538  0.2235 -0.3444  0.2882
 4512TIP3    H135095   3.539   1.237   6.478  0.9905 -0.0553 -0.3597
 4512TIP3    H235096   3.614   1.261   6.607  1.5792  0.6845 -0.8370
 4513TIP3   OH235097   1.014   6.157   1.365 -0.6045 -0.1683 -0.6601
 4513TIP3    H135098   0.996   6.072   1.405  2.4291 -0.9922 -0.7803
 4513TIP3    H235099   0.979   6.221   1.427 -0.9200 -1.4611  0.5465
 4514TIP3   OH235100   6.069   5.486   1.504 -0.0115 -0.0311  0.2075
 4514TIP3    H135101   6.026   5.412   1.462 -0.0573 -0.2473  0.6317
 4514TIP3    H235102   6.158   5.455   1.523 -1.1492 -1.5203  4.1688
 4515TIP3   OH235103   4.469   5.089   7.968 -0.2517  0.3747 -0.0729
 4515TIP3    H135104   4.400   5.033   7.932  1.2494 -2.2748  0.9444
 4515TIP3    H235105   4.433   5.123   8.049 -0.8336  0.0890 -0.2065
 4516TIP3   OH235106   2.028   1.116   1.641 -0.0596 -0.0080  0.2383
 4516TIP3    H135107   2.089   1.145   1.709 -0.3185  0.2915  0.3450
 4516TIP3    H235108   1.945   1.103   1.687 -0.3868  0.7643 -0.1164
 4517TIP3   OH235109   3.306   4.031   7.366  0.9020 -1.0662  0.2563
 4517TIP3    H135110   3.294   4.097   7.435  1.0303 -1.3965  0.5980
 4517TIP3    H235111   3.219   3.993   7.354  0.0027  1.4739 -2.3401
 4518TIP3   OH235112   3.232   1.815   1.297  0.9576  0.6864  0.1043
 4518TIP3    H135113   3.179   1.809   1.217  0.4686  0.9750  0.4024
 4518TIP3    H235114   3.316   1.848   1.267  0.8411  0.5942 -0.3280
 4519TIP3   OH235115   5.677   5.674   1.626  1.0345  0.2953  0.0298
 4519TIP3    H135116   5.740   5.602   1.620  1.4600  0.6463  0.2033
 4519TIP3    H235117   5.683   5.718   1.542 -1.0054 -1.3041 -1.0214
 4520TIP3   OH235118   2.305   0.817   7.201  0.5403  0.0779 -0.1874
 4520TIP3    H135119   2.260   0.734   7.211  2.3191 -0.8953  0.2769
 4520TIP3    H235120   2.308   0.831   7.106 -0.0119 -0.2492 -0.2538
 4521TIP3   OH235121   3.997   5.611   1.223  0.2994 -0.2532  0.5397
 4521TIP3    H135122   3.998   5.638   1.131 -0.2334 -0.5243  0.4550
 4521TIP3    H235123   4.019   5.691   1.271  1.2737 -0.2645  0.1458
 4522TIP3   OH235124   4.142   4.249   0.411  0.3381 -0.3654  0.2939
 4522TIP3    H135125   4.071   4.200   0.454 -1.0650  0.0429 -1.4642
 4522TIP3    H235126   4.185   4.295   0.483 -2.0003  0.4053  1.3114
 4523TIP3   OH235127   3.046   0.494   8.700  0.0762  0.5032  0.4363
 4523TIP3    H135128   3.091   0.447   8.629  0.0569 -0.5239  1.0780
 4523TIP3    H235129   3.089   0.463   8.780 -0.6537  0.7820  0.9486
 4524TIP3   OH235130   1.631   2.739   0.122  0.3354 -0.2425 -0.2702
 4524TIP3    H135131   1.594   2.667   0.172  2.3610 -0.9309  0.3494
 4524TIP3    H235132   1.639   2.811   0.184  0.5904 -0.2936 -0.2430
 4525TIP3   OH235133   1.757   4.704   7.559 -0.6644 -0.1434  0.3281
 4525TIP3    H135134   1.729   4.661   7.479 -0.4020 -1.1312  0.7540
 4525TIP3    H235135   1.699   4.779   7.568  0.4738  1.0994 -1.7734
 4526TIP3   OH235136   0.442   4.667   6.766  0.1472  0.3418  0.1866
 4526TIP3    H135137   0.449   4.632   6.677  1.6309 -0.0127  0.4051
 4526TIP3    H235138   0.403   4.753   6.756  1.9124  1.0659 -1.0484
 4527TIP3   OH235139   0.530   1.190   0.926 -0.2684 -0.4101 -0.0046
 4527TIP3    H135140   0.448   1.150   0.898 -0.2591 -0.0225 -0.5945
 4527TIP3    H235141   0.512   1.284   0.924  0.5513 -0.2645 -1.2977
 4528TIP3   OH235142   0.810   5.105   8.113 -0.1604  0.0285 -0.2380
 4528TIP3    H135143   0.873   5.074   8.178 -0.8548  0.9422  0.9227
 4528TIP3    H235144   0.842   5.192   8.088 -0.5635  0.1949 -0.1832
 4529TIP3   OH235145   1.903   0.436   0.627  0.5380  0.2560  0.0757
 4529TIP3    H135146   1.877   0.519   0.587 -0.1500 -0.3151 -0.6863
 4529TIP3    H235147   1.995   0.449   0.652  0.8273  0.7951 -1.2162
 4530TIP3   OH235148   3.706   5.156   7.387  0.6632 -0.2414  0.2543
 4530TIP3    H135149   3.637   5.091   7.378 -0.1090  0.5632  0.2380
 4530TIP3    H235150   3.781   5.118   7.341  0.5042 -1.4798  0.9725
 4531TIP3   OH235151   3.855   1.159   7.519  0.2317  0.4543 -0.5734
 4531TIP3    H135152   3.918   1.199   7.579 -0.7620  0.9680  0.1558
 4531TIP3    H235153   3.839   1.225   7.453  1.7399 -0.3057 -1.7839
 4532TIP3   OH235154   0.477   3.369   7.079  0.4629  0.0706 -0.0241
 4532TIP3    H135155   0.565   3.387   7.045  0.3239 -1.6811 -1.4997
 4532TIP3    H235156   0.423   3.358   7.000 -0.6328 -0.8679  0.8264
 4533TIP3   OH235157   4.242   4.295   8.708 -0.8941  0.1950  0.2197
 4533TIP3    H135158   4.256   4.357   8.779  2.5067  0.8056 -0.8172
 4533TIP3    H235159   4.288   4.216   8.736  1.5354  0.8264 -1.6522
 4534TIP3   OH235160   4.990   0.426   8.061  0.1661  0.1937  0.6479
 4534TIP3    H135161   4.977   0.347   8.113 -0.4105 -0.0338  0.1669
 4534TIP3    H235162   5.082   0.450   8.076  0.1953 -0.2595  1.2132
 4535TIP3   OH235163   6.105   3.622   2.184 -0.2406 -0.1364 -0.4623
 4535TIP3    H135164   6.109   3.527   2.197 -1.0209 -0.4500 -2.2164
 4535TIP3    H235165   6.132   3.635   2.093 -1.5733  1.1599 -0.7112
 4536TIP3   OH235166   3.709   5.168   6.000  0.6089 -0.1944 -0.0895
 4536TIP3    H135167   3.755   5.116   6.066  1.1648  1.0641  0.5575
 4536TIP3    H235168   3.618   5.170   6.031  1.0337  1.1447  1.1792
 4537TIP3   OH235169   2.240   4.388   2.169 -0.0424 -0.4318  0.2299
 4537TIP3    H135170   2.303   4.414   2.102 -0.6927 -0.5419 -0.4281
 4537TIP3    H235171   2.223   4.296   2.151 -0.0150 -0.5343  0.7172
 4538TIP3   OH235172   0.069   5.092   6.846  0.2951 -0.8830  0.1376
 4538TIP3    H135173   0.008   5.153   6.888  0.4858 -1.3351  1.0995
 4538TIP3    H235174   0.042   5.091   6.754  1.0896  1.6061 -0.1872
 4539TIP3   OH235175   5.381   6.310   0.954  0.1191 -0.1864  0.3461
 4539TIP3    H135176   5.398   6.217   0.967 -0.4265 -0.4895 -0.9542
 4539TIP3    H235177   5.363   6.344   1.042  0.4059 -1.2806  0.8425
 4540TIP3   OH235178   4.813   3.512   6.864  0.1454  0.1180  0.5439
 4540TIP3    H135179   4.871   3.584   6.841  1.3943 -0.7306  0.9881
 4540TIP3    H235180   4.800   3.465   6.781  0.6691 -0.0954  0.5792
 4541TIP3   OH235181   6.164   0.781   8.853  0.2403 -0.0722  0.2462
 4541TIP3    H135182   6.082   0.790   8.901 -0.1360  3.8937 -0.7971
 4541TIP3    H235183   6.227   0.834   8.903  1.2957 -0.3925 -0.6906
 4542TIP3   OH235184   4.395   2.504   1.225  0.3090  0.1447  0.0649
 4542TIP3    H135185   4.356   2.587   1.196  2.0200  0.8438 -0.3467
 4542TIP3    H235186   4.467   2.489   1.164 -1.0409 -2.6175 -1.0122
 4543TIP3   OH235187   2.334   0.555   1.251 -0.5422 -0.4825 -0.4983
 4543TIP3    H135188   2.285   0.570   1.170 -0.6758 -0.2511 -0.3785
 4543TIP3    H235189   2.274   0.505   1.306 -0.9265  0.4126 -0.0814
 4544TIP3   OH235190   3.533   6.617   6.851 -0.5357 -0.1466 -0.2134
 4544TIP3    H135191   3.602   6.608   6.784 -1.2788 -1.8031 -0.8228
 4544TIP3    H235192   3.481   6.537   6.842 -2.2912  0.8568  0.5314
 4545TIP3   OH235193   5.346   6.012   6.634  0.3580 -0.4747  0.2948
 4545TIP3    H135194   5.363   6.043   6.545  0.9840 -2.7635 -0.4379
 4545TIP3    H235195   5.281   6.073   6.668 -0.4819  0.0249 -2.0192
 4546TIP3   OH235196   4.021   6.120   0.165  0.7609 -0.3705 -0.0566
 4546TIP3    H135197   3.993   6.211   0.175  1.4215 -0.2681  0.9817
 4546TIP3    H235198   4.110   6.126   0.130  0.8215 -0.6148  0.0543
 4547TIP3   OH235199   6.434   4.668   0.480  0.3881 -0.2126  0.1963
 4547TIP3    H135200   6.449   4.591   0.534 -1.5866 -1.2674 -0.6420
 4547TIP3    H235201   6.522   4.702   0.462  1.2902 -1.9510  1.0240
 4548TIP3   OH235202   6.716   4.206   7.521 -0.6430  0.2130 -0.0931
 4548TIP3    H135203   6.749   4.200   7.611 -0.8863  0.7215  0.0365
 4548TIP3    H235204   6.645   4.271   7.526 -1.8502 -1.0348 -0.3056
 4549TIP3   OH235205   6.759   2.198   6.999 -0.5287  0.0934 -0.3373
 4549TIP3    H135206   6.687   2.161   7.050  0.0495  1.7618  1.8255
 4549TIP3    H235207   6.745   2.164   6.910 -3.0809 -0.8418  0.3310
 4550TIP3   OH235208   4.800   4.487   0.854  0.2014 -0.1605  0.1820
 4550TIP3    H135209   4.778   4.451   0.767  0.4800 -2.3548  0.9478
 4550TIP3    H235210   4.894   4.474   0.861  0.1201 -0.3621  0.9439
 4551TIP3   OH235211   4.996   5.284   6.633 -0.6938 -0.1325  0.3671
 4551TIP3    H135212   4.964   5.329   6.554  0.5543 -2.1170 -1.3576
 4551TIP3    H235213   5.089   5.304   6.636 -0.8531  0.5425  1.8427
 4552TIP3   OH235214   0.080   2.573   2.039  0.6541  0.3571 -0.6078
 4552TIP3    H135215   0.058   2.509   2.107  0.0559 -0.0214 -1.1461
 4552TIP3    H235216   0.122   2.645   2.086  0.6816 -0.1119  0.0976
 4553TIP3   OH235217   5.693   5.749   1.069  0.0111  0.2712 -0.7702
 4553TIP3    H135218   5.763   5.691   1.100 -2.0391 -2.0363 -0.0875
 4553TIP3    H235219   5.646   5.696   1.004 -1.7850  1.2621 -0.3362
 4554TIP3   OH235220   1.229   4.504   1.272 -0.1234  0.7111  0.2857
 4554TIP3    H135221   1.176   4.549   1.206  0.3649  3.2305  1.4897
 4554TIP3    H235222   1.185   4.523   1.355  0.1282 -1.0892  0.8753
 4555TIP3   OH235223   4.168   3.761   8.378 -0.0387 -0.0273  0.1077
 4555TIP3    H135224   4.111   3.693   8.343  0.3867 -0.2791 -0.1073
 4555TIP3    H235225   4.211   3.799   8.301 -0.3740  0.5826  0.2126
 4556TIP3   OH235226   4.328   4.185   1.703 -0.4601  0.2928  0.5792
 4556TIP3    H135227   4.254   4.234   1.669  0.7906  1.3546 -0.7827
 4556TIP3    H235228   4.360   4.238   1.776  1.1416  1.8815 -1.1438
 4557TIP3   OH235229   2.787   5.893   1.732 -0.7099  0.2031  0.7545
 4557TIP3    H135230   2.802   5.851   1.817  0.2531  0.9193  0.9569
 4557TIP3    H235231   2.703   5.938   1.742 -0.7214  0.0814  1.2452
 4558TIP3   OH235232   3.842   4.920   0.540  0.1640  0.2800  0.3623
 4558TIP3    H135233   3.926   4.942   0.580  0.8312 -0.4744 -0.5686
 4558TIP3    H235234   3.788   4.889   0.612  0.8104  0.4358  0.9241
 4559TIP3   OH235235   4.525   1.878   6.737 -0.6173  0.0583  0.0123
 4559TIP3    H135236   4.565   1.832   6.811  0.4207  0.9426  0.0341
 4559TIP3    H235237   4.543   1.822   6.662 -0.6793 -0.2973  0.2613
 4560TIP3   OH235238   2.660   5.644   6.379  0.0778  0.3003 -0.2482
 4560TIP3    H135239   2.638   5.630   6.287 -1.5224  2.2003 -0.2162
 4560TIP3    H235240   2.742   5.694   6.377 -1.3828  2.8269 -0.8106
 4561TIP3   OH235241   0.527   1.816   0.039 -0.5516 -0.3903  0.0092
 4561TIP3    H135242   0.583   1.743   0.067 -0.5645 -0.0453  0.9759
 4561TIP3    H235243   0.585   1.874  -0.009 -0.3205 -0.5587  0.0814
 4562TIP3   OH235244   6.151   1.899   7.580 -0.2793  0.6059  0.0808
 4562TIP3    H135245   6.163   1.981   7.627  0.1836  0.4919  0.1674
 4562TIP3    H235246   6.061   1.873   7.600 -0.4048  1.0568  0.1058
 4563TIP3   OH235247   2.237   5.331   2.185 -0.1313 -0.9209 -0.3593
 4563TIP3    H135248   2.176   5.295   2.121  0.3827 -0.4810 -1.1095
 4563TIP3    H235249   2.284   5.255   2.220 -0.4361 -1.1623 -0.4768
 4564TIP3   OH235250   4.481   5.482   8.851 -0.4574  0.0680 -0.8008
 4564TIP3    H135251   4.450   5.539   8.780  0.8404 -0.9297 -2.2169
 4564TIP3    H235252   4.453   5.394   8.826  0.5516 -0.3864 -0.3929
 4565TIP3   OH235253   2.977   5.046   0.110 -0.3452  0.1965 -0.0977
 4565TIP3    H135254   2.903   4.987   0.095 -0.2297 -0.3228  1.2274
 4565TIP3    H235255   2.954   5.092   0.191  0.7898  0.0030  0.3528
 4566TIP3   OH235256   3.934   6.403   0.180  0.3259  0.3568 -0.0212
 4566TIP3    H135257   3.969   6.452   0.106  0.4287  1.0080  0.4541
 4566TIP3    H235258   3.842   6.391   0.159 -0.0936  2.1993  0.6070
 4567TIP3   OH235259   1.057   1.044   7.429 -0.0211  0.5243  0.2792
 4567TIP3    H135260   1.060   1.083   7.341 -1.8128  0.2794  0.0675
 4567TIP3    H235261   1.042   1.118   7.488  0.4009  0.6002  0.2897
 4568TIP3   OH235262   5.473   1.452   0.947 -0.1997  0.0980  0.4026
 4568TIP3    H135263   5.567   1.446   0.926  0.2004  0.6406  1.9277
 4568TIP3    H235264   5.434   1.489   0.868  0.6343 -1.4422 -0.7917
 4569TIP3   OH235265   5.834   1.045   0.369  0.2984  0.0938  0.4225
 4569TIP3    H135266   5.794   0.980   0.427 -0.8748  0.8537  0.4859
 4569TIP3    H235267   5.774   1.052   0.295  0.4563  1.0323  0.3687
 4570TIP3   OH235268   6.166   5.912   8.543 -0.3828 -0.4524  0.0309
 4570TIP3    H135269   6.177   5.980   8.477  0.3276  1.8046  2.2881
 4570TIP3    H235270   6.073   5.914   8.565 -0.1800  0.7039  0.9004
 4571TIP3   OH235271   6.478   3.246   8.570  0.0510 -0.1996  0.4193
 4571TIP3    H135272   6.553   3.209   8.616  0.8910 -0.8560 -1.3726
 4571TIP3    H235273   6.464   3.331   8.613  1.9273  0.0182  0.7232
 4572TIP3   OH235274   0.874   0.969   7.860 -0.0742 -0.1328 -0.2974
 4572TIP3    H135275   0.939   0.903   7.838  0.5643  0.1038  0.8218
 4572TIP3    H235276   0.807   0.960   7.792  1.0674 -0.4303 -1.4217
 4573TIP3   OH235277   4.566   3.713   2.150  0.5721 -0.5968 -0.8319
 4573TIP3    H135278   4.524   3.775   2.091  0.3495  0.6170  0.5491
 4573TIP3    H235279   4.539   3.627   2.118 -0.8828  0.0827 -1.4968
 4574TIP3   OH235280   0.816   4.019   0.228  0.4291  0.4024  0.3394
 4574TIP3    H135281   0.806   3.943   0.170 -2.5168  1.8324 -1.2390
 4574TIP3    H235282   0.816   3.982   0.316 -1.8804 -1.4446 -0.3466
 4575TIP3   OH235283   0.934   6.434   0.258  0.2870  0.1741 -0.2314
 4575TIP3    H135284   1.017   6.414   0.215  0.9624 -1.4369  1.6361
 4575TIP3    H235285   0.904   6.350   0.293 -1.4710  0.9601  0.2731
 4576TIP3   OH235286   5.447   4.457   7.398  0.6001  0.2593 -0.3650
 4576TIP3    H135287   5.399   4.525   7.350 -0.8019  0.2969  0.9742
 4576TIP3    H235288   5.481   4.502   7.475 -0.3744 -0.5188  0.5600
 4577TIP3   OH235289   1.009   5.052   1.460  0.7135  0.0215  0.2189
 4577TIP3    H135290   1.051   4.983   1.511  0.6882 -0.6416 -0.6241
 4577TIP3    H235291   1.062   5.130   1.477  0.1243  0.0822  2.0135
 4578TIP3   OH235292   3.971   3.143   2.264 -0.3276 -0.2102 -0.1569
 4578TIP3    H135293   3.966   3.184   2.350 -1.2686  1.9393 -1.1415
 4578TIP3    H235294   4.022   3.063   2.278 -1.1544 -0.3661  2.5093
 4579TIP3   OH235295   5.680   1.640   1.253  0.2705  0.9286 -0.1234
 4579TIP3    H135296   5.699   1.549   1.275  0.2800  0.6423 -1.2697
 4579TIP3    H235297   5.585   1.643   1.242  0.5370  0.1334 -3.8103
 4580TIP3   OH235298   1.653   4.335   8.312  0.3021 -0.1737  0.9028
 4580TIP3    H135299   1.601   4.364   8.237  0.2534 -3.2239 -0.4009
 4580TIP3    H235300   1.741   4.320   8.276  0.0621 -2.5381  1.1197
 4581TIP3   OH235301   1.384   5.337   0.392 -0.0064 -0.0374 -0.6623
 4581TIP3    H135302   1.375   5.255   0.441 -0.4858  0.5972  0.3526
 4581TIP3    H235303   1.477   5.358   0.398  0.0592 -0.3331 -0.6222
 4582TIP3   OH235304   6.637   6.017   1.098 -0.5260  0.1582  0.1331
 4582TIP3    H135305   6.541   6.017   1.106 -0.4743  0.1813  0.8523
 4582TIP3    H235306   6.663   6.105   1.123 -0.3639  0.3627 -0.7575
 4583TIP3   OH235307   3.070   0.646   0.121  0.5552 -0.3797  0.3453
 4583TIP3    H135308   3.075   0.731   0.077 -0.4212  0.4521  1.7722
 4583TIP3    H235309   2.982   0.615   0.103  0.6255 -0.6891  0.5307
 4584TIP3   OH235310   2.604   4.032   1.603  0.1256  0.7483  0.1446
 4584TIP3    H135311   2.601   4.062   1.694  1.4475  0.6784  0.2291
 4584TIP3    H235312   2.522   3.984   1.590 -0.7530  2.0051  0.8444
 4585TIP3   OH235313   3.435   1.346   8.733 -0.0380  0.1608  0.1206
 4585TIP3    H135314   3.364   1.354   8.798 -0.1562 -0.8102  0.1347
 4585TIP3    H235315   3.456   1.253   8.733  0.2619  0.2190 -0.9315
 4586TIP3   OH235316   0.764   5.139   1.346 -0.0117 -0.0982 -0.0878
 4586TIP3    H135317   0.765   5.073   1.415 -0.9784  1.2909  1.3120
 4586TIP3    H235318   0.856   5.165   1.336  0.4790 -2.0222 -1.0956
 4587TIP3   OH235319   5.272   2.045   8.208 -0.0348 -0.7031  0.0126
 4587TIP3    H135320   5.294   2.104   8.280 -2.3279 -0.2222  0.4129
 4587TIP3    H235321   5.278   2.099   8.130 -0.9673 -0.2178  0.2561
 4588TIP3   OH235322   5.048   5.223   7.457 -0.3551 -0.0867 -0.2954
 4588TIP3    H135323   5.041   5.157   7.388 -2.0509 -0.6623  0.3620
 4588TIP3    H235324   5.092   5.297   7.416 -2.6517  0.1960 -2.4973
 4589TIP3   OH235325   1.288   5.987   8.670 -0.0642 -0.3311 -0.1977
 4589TIP3    H135326   1.379   5.964   8.650 -0.1705 -0.3806 -0.6483
 4589TIP3    H235327   1.262   6.045   8.598  0.1952  1.2107  0.9192
 4590TIP3   OH235328   5.328   0.859   0.434 -0.4727 -0.4955 -0.0558
 4590TIP3    H135329   5.239   0.877   0.462 -0.5917 -1.4736  0.2168
 4590TIP3    H235330   5.352   0.778   0.478  0.2743 -0.6603 -0.7352
 4591TIP3   OH235331   1.645   0.095   6.862  0.1033  0.2917 -0.4393
 4591TIP3    H135332   1.712   0.128   6.920  1.0251  0.2063 -1.4276
 4591TIP3    H235333   1.685   0.095   6.775 -0.7424 -0.9306 -0.8724
 4592TIP3   OH235334   6.218   5.352   1.100  0.3365  0.2214 -0.2602
 4592TIP3    H135335   6.283   5.382   1.163 -1.9188 -0.6024  2.6890
 4592TIP3    H235336   6.233   5.258   1.093  0.7217  0.3460 -1.1534
 4593TIP3   OH235337   6.519   2.925   8.745  0.1504 -0.3028  0.2851
 4593TIP3    H135338   6.557   2.962   8.825  0.6880  1.9828 -0.9447
 4593TIP3    H235339   6.427   2.951   8.748  0.4215  0.7635 -0.3549
 4594TIP3   OH235340   5.434   6.478   8.099 -0.0912 -0.0809 -0.5488
 4594TIP3    H135341   5.352   6.428   8.094 -0.8787  1.1930 -0.8957
 4594TIP3    H235342   5.462   6.469   8.190 -1.6089  0.9351  0.0592
 4595TIP3   OH235343   0.930   6.527   7.986 -0.0166  0.4508 -0.5256
 4595TIP3    H135344   0.923   6.526   7.890  1.2094  0.0144 -0.6252
 4595TIP3    H235345   0.891   6.445   8.014 -0.6765  0.7255 -0.6160
 4596TIP3   OH235346   3.629   1.215   7.724  0.1427  0.1838 -0.9184
 4596TIP3    H135347   3.563   1.228   7.657 -0.9231 -1.5694 -0.2724
 4596TIP3    H235348   3.712   1.208   7.676 -0.5556 -0.7476 -2.0346
 4597TIP3   OH235349   4.613   0.671   8.589  0.0007 -0.0792 -0.0350
 4597TIP3    H135350   4.615   0.620   8.508  0.5930 -0.4062  0.1870
 4597TIP3    H235351   4.676   0.741   8.575 -1.8118  1.4724 -0.8960
 4598TIP3   OH235352   3.489   1.282   1.226 -0.5627 -0.1836  0.4431
 4598TIP3    H135353   3.409   1.333   1.213 -1.6387 -2.1383 -1.0657
 4598TIP3    H235354   3.477   1.239   1.310 -0.0136  1.2945  1.3260
 4599TIP3   OH235355   3.298   5.614   7.535  0.1821 -0.2876  0.0569
 4599TIP3    H135356   3.284   5.530   7.579 -0.4691 -0.9148 -1.2755
 4599TIP3    H235357   3.246   5.608   7.455  1.7318  0.5798 -1.0779
 4600TIP3   OH235358   0.247   4.643   8.318  0.2292 -0.2313  0.0643
 4600TIP3    H135359   0.185   4.642   8.392 -0.5474 -0.0609 -0.5651
 4600TIP3    H235360   0.263   4.550   8.299 -1.0126 -0.3081 -0.7131
 4601TIP3   OH235361   4.077   4.978   0.705 -0.3933  0.0435 -0.2618
 4601TIP3    H135362   4.160   4.935   0.683 -0.0737  0.5810 -0.1334
 4601TIP3    H235363   4.063   4.958   0.797 -0.0216  0.5604 -0.0854
 4602TIP3   OH235364   1.686   3.618   6.791 -0.8512 -0.1134  0.0735
 4602TIP3    H135365   1.776   3.589   6.805 -0.6539  0.1984 -0.5120
 4602TIP3    H235366   1.687   3.656   6.703 -1.6382 -0.4216 -0.0717
 4603TIP3   OH235367   2.328   0.275   7.162 -0.1719 -0.7428  0.3781
 4603TIP3    H135368   2.256   0.258   7.101 -1.8706 -0.9188  2.3587
 4603TIP3    H235369   2.295   0.343   7.220  2.5747  1.8292 -0.7584
 4604TIP3   OH235370   1.018   6.196   2.484 -0.1099 -0.4489 -0.3033
 4604TIP3    H135371   1.000   6.110   2.521 -1.1391 -0.0566  0.1599
 4604TIP3    H235372   0.964   6.256   2.535 -0.4202  0.2997 -1.4572
 4605TIP3   OH235373   3.843   0.188   0.974 -0.0275  0.3102 -0.6117
 4605TIP3    H135374   3.804   0.221   0.893 -0.9630  0.0593 -0.2731
 4605TIP3    H235375   3.861   0.266   1.025 -2.1635  0.3756  0.1548
 4606TIP3   OH235376   4.631   3.776   8.018 -0.4480  0.1539 -0.4648
 4606TIP3    H135377   4.572   3.720   7.968  0.3048 -0.4860 -0.6668
 4606TIP3    H235378   4.715   3.768   7.973 -0.3569  1.6121 -0.6120
 4607TIP3   OH235379   1.941   0.170   0.827 -0.2274  0.0027 -0.0509
 4607TIP3    H135380   1.920   0.083   0.793  0.3143 -0.2421  0.2144
 4607TIP3    H235381   1.857   0.212   0.842 -0.5127 -0.7566  0.5283
 4608TIP3   OH235382   0.507   0.150   6.955  0.3050  0.3038 -0.9441
 4608TIP3    H135383   0.422   0.188   6.977  0.3226  0.5132 -1.2275
 4608TIP3    H235384   0.570   0.198   7.009  0.1331 -0.6349  0.1338
 4609TIP3   OH235385   1.153   4.891   1.616 -0.8974  0.5245  0.1485
 4609TIP3    H135386   1.179   4.953   1.685 -0.7419  0.1062  0.4708
 4609TIP3    H235387   1.235   4.850   1.590 -1.1496 -0.4195  0.7914
 4610TIP3   OH235388   3.314   3.191   1.386 -0.1320 -0.1412 -0.2061
 4610TIP3    H135389   3.406   3.189   1.360  0.0746  1.1832  0.3266
 4610TIP3    H235390   3.302   3.111   1.438  0.9864  0.1704  0.5615
 4611TIP3   OH235391   0.497   4.835   7.026 -0.1490  0.4002  0.2282
 4611TIP3    H135392   0.590   4.825   7.006 -0.2752  0.0891 -0.2355
 4611TIP3    H235393   0.474   4.922   6.993 -0.5115 -0.3584 -1.7039
 4612TIP3   OH235394   3.090   3.692   1.740 -0.0639 -0.2850  0.2060
 4612TIP3    H135395   3.062   3.752   1.671  1.0840  2.6927  2.1298
 4612TIP3    H235396   3.180   3.717   1.760 -0.6802 -0.2011  3.4883
 4613TIP3   OH235397   0.439   5.466   1.187 -0.1740 -0.1379 -0.3868
 4613TIP3    H135398   0.356   5.490   1.228  0.2552  0.9424 -0.0920
 4613TIP3    H235399   0.488   5.421   1.256 -0.8087 -1.5055 -0.8038
 4614TIP3   OH235400   1.399   0.491   7.768 -0.0058 -0.4651 -0.1824
 4614TIP3    H135401   1.313   0.469   7.804 -0.5199 -0.2137 -1.1962
 4614TIP3    H235402   1.384   0.574   7.722  1.9273  2.4670  3.9002
 4615TIP3   OH235403   2.463   2.078   1.272 -0.4710 -0.2373  0.2976
 4615TIP3    H135404   2.456   2.036   1.187 -0.1686 -1.3967  0.8241
 4615TIP3    H235405   2.516   2.156   1.256 -0.3385 -0.4900 -0.5494
 4616TIP3   OH235406   5.155   3.853   0.501 -0.0430  0.4684 -0.2961
 4616TIP3    H135407   5.183   3.761   0.498  0.4086  0.5569  0.6422
 4616TIP3    H235408   5.219   3.899   0.447 -0.0591  0.2838 -0.4759
 4617TIP3   OH235409   5.309   2.001   8.574  0.8420  0.0471 -0.3845
 4617TIP3    H135410   5.241   1.938   8.595  0.0464  0.4723 -1.5819
 4617TIP3    H235411   5.349   1.968   8.494 -0.1097  1.4232 -1.4764
 4618TIP3   OH235412   3.907   0.979   1.529 -0.0763 -0.1473 -0.1456
 4618TIP3    H135413   3.952   1.055   1.493 -0.7057  0.7433  0.8655
 4618TIP3    H235414   3.859   0.942   1.455  0.0534  0.5942 -0.6092
 4619TIP3   OH235415   1.436   5.722   7.189 -0.1851  0.2749  0.0384
 4619TIP3    H135416   1.419   5.667   7.112  1.4123  0.0585 -0.1879
 4619TIP3    H235417   1.410   5.668   7.263 -0.2888 -0.1045 -0.2682
 4620TIP3   OH235418   3.374   3.843   0.643 -0.1167 -0.3789  0.4624
 4620TIP3    H135419   3.412   3.860   0.729 -1.1330  1.3678  0.6147
 4620TIP3    H235420   3.350   3.930   0.610  0.2520 -1.0084 -1.5972
 4621TIP3   OH235421   3.393   4.905   7.082  0.2173  0.9432 -0.1469
 4621TIP3    H135422   3.407   4.841   7.151 -0.8194  1.1634  0.2835
 4621TIP3    H235423   3.456   4.881   7.014 -0.7001 -1.0370 -0.3441
 4622TIP3   OH235424   2.216   1.944   8.756  0.3203 -0.1536  0.1475
 4622TIP3    H135425   2.294   1.898   8.786  0.6479 -0.5922 -1.2932
 4622TIP3    H235426   2.181   1.888   8.686 -2.2529 -0.8256  1.8379
 4623TIP3   OH235427   5.453   5.994   8.249  0.6746  0.5601 -0.4467
 4623TIP3    H135428   5.545   5.976   8.266  0.3820 -0.5762 -0.0334
 4623TIP3    H235429   5.405   5.938   8.309 -0.2962  1.4816 -0.3257
 4624TIP3   OH235430   3.533   6.089   8.081 -0.0540 -0.2553 -0.3315
 4624TIP3    H135431   3.479   6.110   8.157  1.6372 -2.5868  1.6823
 4624TIP3    H235432   3.478   6.030   8.029 -0.0145 -1.5492  1.0099
 4625TIP3   OH235433   1.875   2.465   1.149 -0.2049  0.1956 -0.2329
 4625TIP3    H135434   1.817   2.424   1.213 -0.1103  2.9360  1.7525
 4625TIP3    H235435   1.963   2.452   1.185 -0.0984  1.1603 -0.1179
 4626TIP3   OH235436   2.532   1.524   0.382  0.4762 -0.4046  0.0603
 4626TIP3    H135437   2.527   1.516   0.477 -0.5163 -1.7566 -0.0846
 4626TIP3    H235438   2.472   1.595   0.361  0.8514  0.0381  0.4390
 4627TIP3   OH235439   0.370   5.920   6.986  0.2399 -0.5836 -0.1656
 4627TIP3    H135440   0.276   5.925   7.002  0.2920  0.4732 -0.0691
 4627TIP3    H235441   0.380   5.867   6.907 -0.2144 -3.5382  1.6232
 4628TIP3   OH235442   2.717   1.926   1.100  0.2027  0.4623  0.0972
 4628TIP3    H135443   2.771   1.885   1.033 -0.9163 -1.5503  0.3444
 4628TIP3    H235444   2.697   2.013   1.065  0.6301 -0.0924 -1.6219
 4629TIP3   OH235445   2.511   1.717   1.101  0.3073  0.1555 -0.1128
 4629TIP3    H135446   2.560   1.792   1.135  0.3934  0.0833 -0.0786
 4629TIP3    H235447   2.525   1.648   1.166 -0.5642  0.4047  0.3506
 4630TIP3   OH235448   3.218   4.438   2.073 -0.2461  0.0343  0.3174
 4630TIP3    H135449   3.275   4.423   1.998 -1.1904  0.9077 -0.5982
 4630TIP3    H235450   3.277   4.472   2.141  0.2839  1.3011 -0.7375
 4631TIP3   OH235451   6.735   0.067   6.809 -0.2258 -0.9760  0.3790
 4631TIP3    H135452   6.648   0.068   6.767  0.3005 -1.0717 -0.7651
 4631TIP3    H235453   6.782   0.139   6.768  0.5860 -1.6025  0.1831
 4632TIP3   OH235454   3.410   0.636   2.457  0.0915 -0.1765  0.0198
 4632TIP3    H135455   3.476   0.592   2.403 -0.4637 -2.5324  1.1035
 4632TIP3    H235456   3.459   0.702   2.506  1.0002  0.4025 -1.5840
 4633TIP3   OH235457   3.176   4.611   8.470  0.0303  1.1953  1.0073
 4633TIP3    H135458   3.267   4.597   8.495 -0.2508 -0.6446  1.1388
 4633TIP3    H235459   3.169   4.705   8.456  2.2414  1.2510 -0.1322
 4634TIP3   OH235460   4.363   0.338   6.958 -0.7913  0.6582 -0.3211
 4634TIP3    H135461   4.448   0.379   6.945 -1.4015  1.2816 -2.7188
 4634TIP3    H235462   4.349   0.284   6.880 -3.1875  1.6869 -0.7019
 4635TIP3   OH235463   0.498   0.123   0.258  0.3761 -0.2795  0.6276
 4635TIP3    H135464   0.532   0.068   0.188  0.5809  2.1051 -1.2543
 4635TIP3    H235465   0.522   0.212   0.233 -1.9340  0.9269  2.3335
 4636TIP3   OH235466   1.061   1.885   0.491  0.1947 -0.5562  0.5790
 4636TIP3    H135467   1.143   1.835   0.491  0.6436  0.1585  0.5875
 4636TIP3    H235468   1.085   1.970   0.453 -0.5841 -0.4035  0.4137
 4637TIP3   OH235469   1.879   0.243   7.952  0.1811  0.7647 -0.4621
 4637TIP3    H135470   1.790   0.261   7.921 -0.4257  1.3684  1.4834
 4637TIP3    H235471   1.900   0.317   8.009  0.6351 -0.8991  1.6580
 4638TIP3   OH235472   3.644   5.453   0.535  0.0611  0.2707 -0.4514
 4638TIP3    H135473   3.550   5.436   0.536 -0.3898  2.4749 -1.3020
 4638TIP3    H235474   3.656   5.524   0.472  2.0948  1.0826  0.7411
 4639TIP3   OH235475   0.474   3.989   6.225 -0.1214  0.1399 -0.5318
 4639TIP3    H135476   0.554   4.041   6.221  0.2394 -0.4127 -0.6649
 4639TIP3    H235477   0.501   3.902   6.196 -0.2076 -0.7149  1.7352
 4640TIP3   OH235478   5.798   4.690   1.761  0.2821  0.4178 -0.4885
 4640TIP3    H135479   5.704   4.675   1.752  0.0514  2.3808 -1.9002
 4640TIP3    H235480   5.814   4.686   1.856 -1.1912  0.0202 -0.2358
 4641TIP3   OH235481   4.833   0.505   0.330 -0.0438  0.1438 -0.2185
 4641TIP3    H135482   4.866   0.417   0.345  0.0771  0.4050  1.1635
 4641TIP3    H235483   4.769   0.520   0.400 -1.0020  0.7017 -1.1790
 4642TIP3   OH235484   1.970   3.228   0.277 -0.1106  0.1830 -0.4611
 4642TIP3    H135485   1.998   3.295   0.215  0.9700 -0.3409 -0.5711
 4642TIP3    H235486   1.906   3.271   0.333  0.0080  1.0840 -1.0071
 4643TIP3   OH235487   1.915   0.510   1.002  1.4854 -0.0160 -0.1449
 4643TIP3    H135488   1.878   0.489   0.916  1.8022 -0.8951 -0.0830
 4643TIP3    H235489   1.859   0.578   1.037  0.1070 -1.0897 -0.1935
 4644TIP3   OH235490   2.567   6.394   1.427  0.0400  0.1153 -0.4470
 4644TIP3    H135491   2.624   6.338   1.480 -0.6673 -1.4532 -1.2445
 4644TIP3    H235492   2.622   6.422   1.354 -0.0089 -0.8702 -0.8803
 4645TIP3   OH235493   0.067   2.740   1.632  0.3100  0.1273 -0.2473
 4645TIP3    H135494   0.139   2.793   1.598  0.6658 -0.7528 -0.9377
 4645TIP3    H235495   0.067   2.756   1.726  0.4304  1.3008 -0.4413
 4646TIP3   OH235496   2.971   0.322   7.411  0.2669  0.1689 -0.0918
 4646TIP3    H135497   3.028   0.259   7.366 -0.7970 -0.3380 -0.7912
 4646TIP3    H235498   3.028   0.397   7.430  1.1448 -0.2883 -0.8208
 4647TIP3   OH235499   6.769   2.886   7.557 -0.4696 -0.0518  0.1486
 4647TIP3    H135500   6.703   2.859   7.493 -1.4003 -0.2276  1.1534
 4647TIP3    H235501   6.775   2.813   7.618  0.6803 -0.0401  0.0729
 4648TIP3   OH235502   1.734   3.612   0.171 -0.5965 -0.1551  0.5461
 4648TIP3    H135503   1.786   3.535   0.150 -1.0792 -0.2409 -0.3638
 4648TIP3    H235504   1.661   3.611   0.109 -0.3914  1.2471  0.2358
 4649TIP3   OH235505   1.387   0.401   0.398  0.1146 -0.1281 -0.3114
 4649TIP3    H135506   1.323   0.419   0.329  0.4570 -1.0064 -0.8727
 4649TIP3    H235507   1.343   0.428   0.479 -0.7946 -0.3006 -0.7325
 4650TIP3   OH235508   1.383   1.829   8.752 -0.0947 -0.0676  0.8362
 4650TIP3    H135509   1.431   1.775   8.689  1.4519  1.3721  0.7060
 4650TIP3    H235510   1.295   1.790   8.756  0.8234 -2.3069  0.4599
 4651TIP3   OH235511   0.622   2.144   0.192 -0.1339  0.4784 -0.4033
 4651TIP3    H135512   0.698   2.087   0.201 -0.8482 -0.3633  0.6128
 4651TIP3    H235513   0.616   2.191   0.276 -0.6955  0.5804 -0.4913
 4652TIP3   OH235514   5.464   6.589   1.633 -0.7325 -0.1698 -0.2104
 4652TIP3    H135515   5.495   6.680   1.635 -2.8080  0.5897 -0.2516
 4652TIP3    H235516   5.483   6.556   1.721 -2.7262  1.3486  0.8834
 4653TIP3   OH235517   2.577   0.290   7.042  0.1792  0.2853  0.5081
 4653TIP3    H135518   2.491   0.304   7.081 -0.3406 -0.2307 -0.4096
 4653TIP3    H235519   2.625   0.240   7.108 -0.6467 -0.4971  0.5453
 4654TIP3   OH235520   6.264   1.349   8.506  0.1996 -0.1909 -0.0890
 4654TIP3    H135521   6.313   1.367   8.426  1.0229 -0.2297  0.3895
 4654TIP3    H235522   6.331   1.343   8.574 -0.4647 -0.3939  0.5629
 4655TIP3   OH235523   5.903   1.731   0.749  0.1712 -0.0830  0.2344
 4655TIP3    H135524   5.847   1.725   0.671  0.0142 -0.3401  0.3669
 4655TIP3    H235525   5.919   1.825   0.759  0.7440 -0.0886 -0.5001
 4656TIP3   OH235526   0.450   4.255   1.955 -0.3919 -0.5747 -0.1880
 4656TIP3    H135527   0.371   4.213   1.988 -1.1713 -1.3002 -2.7450
 4656TIP3    H235528   0.450   4.237   1.861  1.8306  1.0345 -0.5963
 4657TIP3   OH235529   5.954   3.281   6.907 -0.8629  0.5564  0.2260
 4657TIP3    H135530   5.903   3.263   6.986 -0.0009 -0.9429  0.4992
 4657TIP3    H235531   5.915   3.225   6.840  0.9195 -1.4146  0.6901
 4658TIP3   OH235532   6.540   6.717   7.635 -0.6231 -0.0931 -0.3659
 4658TIP3    H135533   6.557   6.793   7.579 -0.7635 -1.1733 -1.9568
 4658TIP3    H235534   6.551   6.750   7.724  0.1671  1.5770 -1.0257
 4659TIP3   OH235535   2.846   6.149   8.561  0.0231 -0.0351  0.3468
 4659TIP3    H135536   2.835   6.080   8.626 -0.9840  0.6959  0.9793
 4659TIP3    H235537   2.813   6.112   8.480  0.8619 -0.7958  0.3322
 4660TIP3   OH235538   0.601   6.293   6.397  0.0383  0.0371 -0.3920
 4660TIP3    H135539   0.608   6.199   6.381  2.7182 -0.3808  2.2695
 4660TIP3    H235540   0.668   6.332   6.342  0.0717  0.1806 -0.2529
 4661TIP3   OH235541   5.630   2.802   0.046 -0.1587 -0.0507 -0.3361
 4661TIP3    H135542   5.583   2.872   0.092 -1.1654 -0.3608 -0.8544
 4661TIP3    H235543   5.722   2.819   0.064 -0.4329  0.9318  0.2208
 4662TIP3   OH235544   1.946   3.480   8.258 -0.7606 -0.3651 -0.5659
 4662TIP3    H135545   1.982   3.408   8.310 -2.2102 -0.8705 -0.2294
 4662TIP3    H235546   2.022   3.517   8.214  0.1406 -1.5428 -0.0662
 4663TIP3   OH235547   4.597   3.127   0.559  0.3690  0.3357  0.2743
 4663TIP3    H135548   4.511   3.123   0.516  0.1004  0.7846  0.7691
 4663TIP3    H235549   4.656   3.082   0.498 -0.2508 -0.1348  0.0149
 4664TIP3   OH235550   2.983   6.599   7.352 -0.2808  0.0371  0.0885
 4664TIP3    H135551   2.947   6.653   7.281 -0.1957 -0.9070 -0.6898
 4664TIP3    H235552   2.910   6.543   7.379 -0.2377  0.2112  0.5779
 4665TIP3   OH235553   0.320   0.566   6.214 -0.4437  0.1600 -0.3133
 4665TIP3    H135554   0.338   0.657   6.189  1.0523 -0.2821 -0.9100
 4665TIP3    H235555   0.278   0.573   6.300  0.1175  1.3949 -0.1182
 4666TIP3   OH235556   6.063   5.366   8.043 -0.3597 -0.2620  0.2926
 4666TIP3    H135557   6.115   5.426   8.096 -0.2539 -0.0846 -0.0118
 4666TIP3    H235558   6.111   5.359   7.961  0.3988 -1.8804  0.8305
 4667TIP3   OH235559   6.785   0.420   7.315 -0.0291  0.7237  0.1481
 4667TIP3    H135560   6.759   0.332   7.341 -0.1074 -0.6088 -3.7802
 4667TIP3    H235561   6.880   0.421   7.324  0.0375 -0.0239 -0.4180
 4668TIP3   OH235562   1.695   1.071   8.431  0.3454  0.1071  0.2429
 4668TIP3    H135563   1.723   1.075   8.523 -1.8663  2.3050  0.9171
 4668TIP3    H235564   1.647   0.989   8.425 -1.1379  0.8148  1.6310
 4669TIP3   OH235565   0.986   1.273   8.422 -0.1890 -0.4433 -0.1276
 4669TIP3    H135566   1.053   1.272   8.353 -1.8943  3.5037 -2.1389
 4669TIP3    H235567   1.024   1.327   8.491 -0.7280  0.7039 -0.7028
 4670TIP3   OH235568   3.963   1.659   8.678 -0.0679 -0.0073  0.2350
 4670TIP3    H135569   3.875   1.622   8.679 -0.6479  1.2950  0.1668
 4670TIP3    H235570   4.006   1.617   8.604 -0.7848 -0.3126 -0.0166
 4671TIP3   OH235571   2.307   4.627   0.072  0.2824 -0.1175 -0.4804
 4671TIP3    H135572   2.212   4.621   0.080  0.4174 -2.1719  0.1468
 4671TIP3    H235573   2.334   4.540   0.042  2.0345  0.1753  0.1545
 4672TIP3   OH235574   6.112   1.977   6.617  0.3413 -0.6546  0.4039
 4672TIP3    H135575   6.119   2.055   6.672 -2.1129 -0.4383  0.5353
 4672TIP3    H235576   6.054   1.918   6.666  0.7152 -1.8330 -0.5009
 4673TIP3   OH235577   4.858   0.934   7.941 -0.3576  0.2225  0.1114
 4673TIP3    H135578   4.793   0.996   7.910 -1.6504 -0.5757  1.1341
 4673TIP3    H235579   4.814   0.849   7.939  1.3702 -0.7083 -1.2774
 4674TIP3   OH235580   6.295   5.024   7.205 -0.0310  0.3286  0.6163
 4674TIP3    H135581   6.345   5.064   7.134  0.2441  1.2644  1.3183
 4674TIP3    H235582   6.238   4.961   7.161  3.4750 -2.7073 -0.0465
 4675TIP3   OH235583   1.876   3.289   6.559  0.6803 -0.0417 -0.1786
 4675TIP3    H135584   1.836   3.202   6.552  0.1173  0.1803  0.2491
 4675TIP3    H235585   1.846   3.336   6.482 -0.9549  0.5460  0.7638
 4676TIP3   OH235586   2.421   5.794   7.119  0.2577 -0.5270  0.6638
 4676TIP3    H135587   2.472   5.731   7.170 -0.5632 -0.2732  1.8469
 4676TIP3    H235588   2.411   5.869   7.177 -0.4250 -0.0974  0.0056
 4677TIP3   OH235589   1.886   5.415   8.382  0.5925 -0.0816  0.8175
 4677TIP3    H135590   1.950   5.349   8.355 -0.4641 -1.8571  2.4401
 4677TIP3    H235591   1.802   5.382   8.350  0.2962  1.8194 -0.5910
 4678TIP3   OH235592   0.888   3.434   1.425  0.1705  0.1930  0.3201
 4678TIP3    H135593   0.810   3.483   1.397  1.5764  0.9608 -2.7229
 4678TIP3    H235594   0.872   3.344   1.397 -0.5787 -0.2346  1.9690
 4679TIP3   OH235595   5.585   5.735   0.002  0.5020  0.6165 -0.6046
 4679TIP3    H135596   5.630   5.669   0.055  1.3990  0.9330 -0.9610
 4679TIP3    H235597   5.497   5.700  -0.009 -0.2090  1.2082  2.3491
 4680TIP3   OH235598   6.150   5.134   7.450  0.0755 -0.1353 -0.0244
 4680TIP3    H135599   6.085   5.152   7.382 -0.6296  0.1418  0.7049
 4680TIP3    H235600   6.103   5.147   7.532  1.1139  0.2724  0.5230
 4681TIP3   OH235601   6.203   6.312   7.029 -0.3266 -0.1705 -0.1325
 4681TIP3    H135602   6.129   6.254   7.011  0.1817 -0.8832  0.0478
 4681TIP3    H235603   6.238   6.280   7.112  0.2457  0.1059 -0.2661
 4682TIP3   OH235604   3.650   5.682   1.144  0.5140 -0.2726  0.1916
 4682TIP3    H135605   3.690   5.741   1.080  0.6394 -0.3425  0.2043
 4682TIP3    H235606   3.637   5.600   1.097 -1.0546  0.2097 -0.2719
 4683TIP3   OH235607   6.369   4.373   0.390  0.7272 -1.3128 -0.5253
 4683TIP3    H135608   6.414   4.347   0.470 -1.3127 -0.8252  0.8714
 4683TIP3    H235609   6.419   4.448   0.358  0.5633 -0.3532  1.3332
 4684TIP3   OH235610   0.905   0.174   8.312 -0.0233  0.2344 -0.4791
 4684TIP3    H135611   0.817   0.184   8.277 -0.1420 -0.9208 -0.5361
 4684TIP3    H235612   0.909   0.235   8.386 -1.1589 -0.3174  0.0550
 4685TIP3   OH235613   2.578   2.234   7.591 -0.3274  0.2747  0.4681
 4685TIP3    H135614   2.631   2.278   7.658 -0.2048 -0.3900  0.8126
 4685TIP3    H235615   2.533   2.164   7.638  1.1250 -1.3474 -0.4502
 4686TIP3   OH235616   0.617   2.241   1.802 -0.3793 -0.4702 -0.4023
 4686TIP3    H135617   0.634   2.328   1.839 -2.6225 -0.1203 -0.0934
 4686TIP3    H235618   0.597   2.186   1.877 -1.2561 -0.6820 -0.7887
 4687TIP3   OH235619   0.285   2.550   1.087 -0.8117 -0.2977  0.0046
 4687TIP3    H135620   0.208   2.595   1.051 -1.2927  0.0083  1.3673
 4687TIP3    H235621   0.260   2.527   1.176  0.5991 -0.4089  0.3967
 4688TIP3   OH235622   0.267   2.402   2.220 -0.2242 -0.4977 -0.1293
 4688TIP3    H135623   0.196   2.346   2.191 -0.4214  0.4604 -1.5834
 4688TIP3    H235624   0.346   2.349   2.207 -0.3188 -0.1823 -2.3167
 4689TIP3   OH235625   3.834   3.605   1.369 -0.9117  0.5145  0.6995
 4689TIP3    H135626   3.910   3.653   1.402  0.1313 -1.2305  0.9409
 4689TIP3    H235627   3.810   3.546   1.441 -0.6052 -1.0573 -0.4330
 4690TIP3   OH235628   2.583   0.427   8.699 -0.3930  0.2496  0.1756
 4690TIP3    H135629   2.546   0.464   8.779 -2.0942 -0.4364 -0.2516
 4690TIP3    H235630   2.662   0.479   8.682 -0.2526  0.6838  2.0332
 4691TIP3   OH235631   5.229   4.288   0.345  0.0599  0.4356 -0.0411
 4691TIP3    H135632   5.166   4.260   0.411  1.3674  1.0004  1.5112
 4691TIP3    H235633   5.292   4.216   0.340  0.2856  0.6446 -0.2572
 4692TIP3   OH235634   2.342   4.637   7.389 -0.2894  0.2334  0.0483
 4692TIP3    H135635   2.291   4.717   7.385 -1.6105 -0.5230  1.2004
 4692TIP3    H235636   2.306   4.582   7.319 -0.0859  0.2288 -0.0552
 4693TIP3   OH235637   5.937   5.580   1.708 -0.2701 -0.2267 -0.3168
 4693TIP3    H135638   5.961   5.534   1.627  0.6860 -1.9483  0.8762
 4693TIP3    H235639   6.015   5.631   1.730  0.3280 -1.4962  0.6430
 4694TIP3   OH235640   4.244   5.033   2.124 -0.1885  0.2459  0.3075
 4694TIP3    H135641   4.235   4.997   2.036 -0.7875 -0.7400  0.7542
 4694TIP3    H235642   4.237   4.957   2.182 -0.2175  0.9279  1.2231
 4695TIP3   OH235643   2.472   3.034   6.800 -0.5759 -0.9914  0.1542
 4695TIP3    H135644   2.399   3.002   6.748 -1.0837 -0.3699  0.4685
 4695TIP3    H235645   2.431   3.081   6.873  0.1371 -0.1520  0.0306
 4696TIP3   OH235646   1.342   5.480   7.951 -0.7035 -0.4956 -0.2103
 4696TIP3    H135647   1.270   5.417   7.953 -0.6558 -0.6831 -2.2081
 4696TIP3    H235648   1.300   5.563   7.929 -0.4856 -0.2987  0.1081
 4697TIP3   OH235649   0.487   5.254   6.860  0.8133  0.3962  0.6135
 4697TIP3    H135650   0.460   5.337   6.820 -1.3167  0.0948  1.2793
 4697TIP3    H235651   0.568   5.231   6.815  1.1920  2.5637  0.0446
 4698TIP3   OH235652   0.624   3.505   0.041  0.4514  0.1150 -0.5200
 4698TIP3    H135653   0.548   3.468  -0.004  0.1604  0.0173  0.0496
 4698TIP3    H235654   0.600   3.597   0.056  0.6395  0.2047 -0.7601
 4699TIP3   OH235655   3.495   5.638   6.327 -0.1015 -0.2425  0.4200
 4699TIP3    H135656   3.438   5.686   6.266  0.8036  0.2021 -0.0848
 4699TIP3    H235657   3.572   5.615   6.275  0.2632 -0.6922  1.1457
 4700TIP3   OH235658   4.552   1.998   0.747  0.1574  0.1239  0.4659
 4700TIP3    H135659   4.604   1.920   0.767  0.2491 -0.0017 -0.2370
 4700TIP3    H235660   4.468   1.963   0.717  0.8587  0.2233 -1.7469
 4701TIP3   OH235661   1.748   6.140   0.949  0.1302  0.2313  0.6112
 4701TIP3    H135662   1.676   6.199   0.970 -0.2565 -0.3717  0.9853
 4701TIP3    H235663   1.799   6.187   0.883 -0.4104  0.8031  0.5973
 4702TIP3   OH235664   2.823   5.187   8.391  0.1018 -0.6387  0.2109
 4702TIP3    H135665   2.880   5.261   8.411 -0.2319 -0.1202 -0.6903
 4702TIP3    H235666   2.793   5.156   8.477  0.9858 -0.3284  0.6404
 4703TIP3   OH235667   2.035   4.598   1.365  0.7506  0.1034  0.4980
 4703TIP3    H135668   2.027   4.636   1.452 -0.9486 -2.5355  1.6005
 4703TIP3    H235669   2.094   4.658   1.318  1.2159  1.9384  3.2128
 4704TIP3   OH235670   3.243   3.469   6.839 -0.2562  0.0027 -0.3504
 4704TIP3    H135671   3.204   3.549   6.874 -0.2723  0.5724 -1.6479
 4704TIP3    H235672   3.232   3.405   6.910 -0.4421  1.0658  0.6198
 4705TIP3   OH235673   1.660   4.995   2.369 -0.4527  0.1938  0.5442
 4705TIP3    H135674   1.624   5.083   2.378 -0.8497  0.1417 -0.3592
 4705TIP3    H235675   1.616   4.959   2.292  0.3677 -0.4655  0.3626
 4706TIP3   OH235676   1.764   0.924   0.373  0.6628 -0.0857  0.3670
 4706TIP3    H135677   1.706   0.851   0.352 -0.9238  0.9870  0.8240
 4706TIP3    H235678   1.733   0.956   0.458  2.3823  0.1121  0.9601
 4707TIP3   OH235679   6.243   6.448   8.589 -0.4669 -0.3636  0.1924
 4707TIP3    H135680   6.149   6.430   8.580 -0.2328 -0.5767 -2.3069
 4707TIP3    H235681   6.246   6.540   8.616 -1.3830 -0.1129 -0.4947
 4708TIP3   OH235682   1.001   0.569   0.096 -0.1532 -0.2053  0.4363
 4708TIP3    H135683   0.977   0.483   0.131 -1.0328 -0.8086 -1.5510
 4708TIP3    H235684   1.038   0.551   0.010  2.9475  1.1487  1.3346
 4709TIP3   OH235685   0.312   0.069   6.637 -0.2312  0.1479  0.1587
 4709TIP3    H135686   0.384   0.044   6.578 -1.3195  1.2830 -1.7699
 4709TIP3    H235687   0.278  -0.014   6.670  0.4758 -0.5291 -0.7573
 4710TIP3   OH235688   2.798   6.257   1.510  0.3501  0.6720 -0.3877
 4710TIP3    H135689   2.854   6.180   1.514 -0.0890  0.3278 -0.7650
 4710TIP3    H235690   2.838   6.319   1.571  0.4885 -0.0019  0.2200
 4711TIP3   OH235691   6.541   6.538   7.412  0.1097  0.5266 -0.7258
 4711TIP3    H135692   6.496   6.590   7.344 -0.3617  3.1329  1.3887
 4711TIP3    H235693   6.551   6.599   7.485  1.1099 -1.9737  1.3646
 4712TIP3   OH235694   1.163   4.584   0.315  0.1557  0.1518  0.2630
 4712TIP3    H135695   1.151   4.654   0.252  0.3542  2.9680  3.1079
 4712TIP3    H235696   1.154   4.503   0.264  0.4802  2.1762 -3.2996
 4713TIP3   OH235697   1.828   5.482   8.039  0.0551 -0.3576 -0.1528
 4713TIP3    H135698   1.850   5.427   7.964 -0.2966 -0.4339 -0.2016
 4713TIP3    H235699   1.785   5.559   8.000 -1.4801 -1.0781  0.0614
 4714TIP3   OH235700   3.970   1.552   0.579 -0.8882 -0.0354 -0.5362
 4714TIP3    H135701   4.031   1.621   0.552  0.4134 -0.5256  0.9947
 4714TIP3    H235702   3.985   1.482   0.515  1.1815 -0.6621  0.5503
 4715TIP3   OH235703   1.178   5.166   2.242  0.0565  0.6119 -0.2837
 4715TIP3    H135704   1.263   5.171   2.200  1.1977  2.4160  2.0218
 4715TIP3    H235705   1.196   5.134   2.331 -1.4981  1.8704  0.5393
 4716TIP3   OH235706   3.047   5.580   8.639  0.3836 -0.4122 -0.3756
 4716TIP3    H135707   2.968   5.533   8.663  0.4484 -1.4046 -1.9662
 4716TIP3    H235708   3.106   5.569   8.713 -0.7158 -0.2136  0.5453
 4717TIP3   OH235709   0.223   2.548   0.104 -0.0336  0.1981 -0.0794
 4717TIP3    H135710   0.237   2.503   0.021  1.7085  0.9071 -0.1988
 4717TIP3    H235711   0.282   2.623   0.102 -0.2522  0.4663  1.6310
 4718TIP3   OH235712   5.827   0.625   0.711 -0.3023 -0.1744 -0.5353
 4718TIP3    H135713   5.733   0.640   0.717 -0.4584 -1.3040  0.2635
 4718TIP3    H235714   5.836   0.557   0.644 -0.1678 -0.7775  0.0737
 4719TIP3   OH235715   3.965   4.896   0.011 -0.5943  0.1314  0.2169
 4719TIP3    H135716   3.870   4.888   0.006 -0.7281  1.9952 -1.0367
 4719TIP3    H235717   3.981   4.930   0.099 -1.0753 -0.2894  0.4713
 4720TIP3   OH235718   5.214   2.439   1.423  0.1511  0.2266 -0.1993
 4720TIP3    H135719   5.152   2.481   1.363  0.8304  0.2031 -0.9304
 4720TIP3    H235720   5.294   2.430   1.372 -0.1965 -2.7529 -0.3922
 4721TIP3   OH235721   4.346   0.071   8.730 -0.4649  0.5618  0.4457
 4721TIP3    H135722   4.356  -0.024   8.737  2.3304  0.8334  1.4269
 4721TIP3    H235723   4.295   0.096   8.806 -1.8203 -0.1810 -0.1893
 4722TIP3   OH235724   3.473   5.794   2.213  0.0279 -0.2441 -0.2822
 4722TIP3    H135725   3.482   5.702   2.239 -1.1932  0.0121  1.1648
 4722TIP3    H235726   3.527   5.802   2.135  2.0590 -1.6310  0.8772
 4723TIP3   OH235727   3.463   1.581   0.301  0.0812  0.2087  0.9617
 4723TIP3    H135728   3.383   1.548   0.342 -0.1296  1.6931  1.8212
 4723TIP3    H235729   3.434   1.657   0.250  0.6030 -0.6391 -0.6659
 4724TIP3   OH235730   1.721   2.780   8.721 -0.3953  0.0313 -0.0408
 4724TIP3    H135731   1.666   2.761   8.797  0.7511 -1.8363  0.3933
 4724TIP3    H235732   1.793   2.831   8.756 -0.1341 -0.3908  0.0478
 4725TIP3   OH235733   6.563   4.973   7.337 -0.1581 -0.1958 -0.5916
 4725TIP3    H135734   6.543   4.881   7.323  0.4300 -0.3261 -0.5851
 4725TIP3    H235735   6.602   5.002   7.255  1.9566 -0.5977  0.2104
 4726TIP3   OH235736   2.514   1.352   8.655  0.1345  0.1653 -0.5112
 4726TIP3    H135737   2.590   1.303   8.688  0.1003  1.4708  1.7043
 4726TIP3    H235738   2.551   1.414   8.593  0.5174 -0.8731 -1.3513
 4727TIP3   OH235739   2.765   5.113   8.676 -0.4151 -0.0760 -0.0444
 4727TIP3    H135740   2.746   5.192   8.727 -0.3304 -0.5852  0.7955
 4727TIP3    H235741   2.808   5.054   8.738  0.3899 -0.4203 -0.9110
 4728TIP3   OH235742   0.685   3.724   7.732 -0.8233 -0.3080 -0.0433
 4728TIP3    H135743   0.717   3.722   7.642  0.2885 -0.2155  0.3382
 4728TIP3    H235744   0.695   3.815   7.759  0.1080 -0.5864  0.6004
 4729TIP3   OH235745   2.292   6.448   1.396 -0.6229 -0.2180  0.3362
 4729TIP3    H135746   2.328   6.500   1.324 -1.1328 -0.9378 -0.4613
 4729TIP3    H235747   2.366   6.396   1.427 -0.1922  0.7076  0.9126
 4730TIP3   OH235748   5.848   2.356   7.898  0.0896 -0.4806  0.5086
 4730TIP3    H135749   5.801   2.375   7.979  1.4764  0.6166  1.1152
 4730TIP3    H235750   5.932   2.402   7.908  0.2480 -0.1868 -1.6146
 4731TIP3   OH235751   4.588   4.504   6.999  0.5069  0.3512 -0.3958
 4731TIP3    H135752   4.625   4.480   6.914 -0.2683  0.9488 -0.9165
 4731TIP3    H235753   4.613   4.433   7.057  2.1766  0.5666 -0.7970
 4732TIP3   OH235754   3.384   0.845   6.896  0.5802 -0.0145  0.1359
 4732TIP3    H135755   3.339   0.907   6.839  0.2461  1.0497  1.5166
 4732TIP3    H235756   3.475   0.873   6.896  0.4585  0.4059  0.6299
 4733TIP3   OH235757   2.961   3.449   2.502 -0.4232  0.2206  0.1121
 4733TIP3    H135758   2.920   3.415   2.423  0.9929 -1.8287  0.1977
 4733TIP3    H235759   2.894   3.436   2.570 -0.0541 -2.2954  0.0911
 4734TIP3   OH235760   0.715   1.521   6.569 -0.1836 -0.4796  0.3683
 4734TIP3    H135761   0.716   1.435   6.527  1.5149  0.0072 -0.7142
 4734TIP3    H235762   0.634   1.561   6.541  0.0107 -0.9224 -0.8865
 4735TIP3   OH235763   5.380   4.566   8.019 -0.2966 -0.0391  0.0814
 4735TIP3    H135764   5.304   4.539   7.967  0.2248 -1.4723  0.0289
 4735TIP3    H235765   5.424   4.632   7.965 -0.2482 -0.8744 -0.9163
 4736TIP3   OH235766   2.103   6.411   7.857  0.4466  0.3739  0.0558
 4736TIP3    H135767   2.044   6.408   7.782  1.5173 -0.9223 -0.7612
 4736TIP3    H235768   2.070   6.343   7.916 -0.2396  1.2193  0.6759
 4737TIP3   OH235769   0.976   4.843   8.492 -0.0940 -0.6174  0.4923
 4737TIP3    H135770   0.999   4.898   8.417  0.4839 -1.9576 -0.3517
 4737TIP3    H235771   1.010   4.890   8.568 -1.7434  1.3705  0.0898
 4738TIP3   OH235772   5.645   2.348   7.713 -0.1639  0.0629  0.0813
 4738TIP3    H135773   5.699   2.272   7.734  0.3411  0.1205 -0.9242
 4738TIP3    H235774   5.706   2.422   7.712 -0.3455  0.2122 -0.5544
 4739TIP3   OH235775   1.072   4.608   1.495 -0.5718 -0.3549 -0.1606
 4739TIP3    H135776   1.000   4.609   1.558 -0.0611 -0.0355  0.4262
 4739TIP3    H235777   1.118   4.690   1.509  1.6061 -1.7539  1.4688
 4740TIP3   OH235778   2.141   3.357   0.582 -0.1966  0.1040 -0.0949
 4740TIP3    H135779   2.165   3.264   0.582  0.7074  0.3240  0.6787
 4740TIP3    H235780   2.192   3.395   0.511  0.3219  0.2173  0.3324
 4741TIP3   OH235781   5.624   2.798   7.704 -0.3887 -0.8255  0.7414
 4741TIP3    H135782   5.645   2.779   7.795  0.0693 -1.2713  0.5431
 4741TIP3    H235783   5.578   2.720   7.673 -0.3221 -0.7770  0.5199
 4742TIP3   OH235784   6.590   4.926   0.144 -0.3955 -0.1625 -0.1304
 4742TIP3    H135785   6.646   4.868   0.196 -0.6175 -1.6165 -1.4085
 4742TIP3    H235786   6.650   4.993   0.110 -0.1609  0.5013  1.5035
 4743TIP3   OH235787   5.201   6.612   1.067  0.1887 -0.1421 -0.3854
 4743TIP3    H135788   5.179   6.693   1.114 -1.0476 -0.3009 -0.6538
 4743TIP3    H235789   5.223   6.641   0.979 -2.1621 -0.1934 -1.0705
 4744TIP3   OH235790   0.357   1.427   8.812 -0.0058  0.3789  0.5017
 4744TIP3    H135791   0.278   1.476   8.835 -0.2724  0.2635 -0.1507
 4744TIP3    H235792   0.324   1.348   8.770  0.4256 -0.3153  1.4406
 4745TIP3   OH235793   4.353   1.978   7.628 -0.0949  0.0165 -0.0375
 4745TIP3    H135794   4.428   1.960   7.685  1.9222 -1.7031 -2.9829
 4745TIP3    H235795   4.282   1.927   7.666  1.3076 -1.4875  0.6945
 4746TIP3   OH235796   3.937   5.499   1.457 -0.0051  0.0284  0.0038
 4746TIP3    H135797   3.935   5.552   1.377 -2.4261  0.1459  0.0564
 4746TIP3    H235798   3.998   5.428   1.438  0.1300  0.5392 -1.6156
 4747TIP3   OH235799   1.691   3.507   0.735  0.0790  0.1239  0.1505
 4747TIP3    H135800   1.705   3.544   0.648  2.0805  0.7257  0.6741
 4747TIP3    H235801   1.698   3.413   0.723  0.5341  0.2137 -0.3114
 4748TIP3   OH235802   2.557   5.771   0.372 -0.5695 -0.0310  0.6879
 4748TIP3    H135803   2.561   5.784   0.467  1.2910  1.7880  0.4465
 4748TIP3    H235804   2.552   5.860   0.336 -2.0685 -0.7235 -0.9314
 4749TIP3   OH235805   2.464   6.143   8.717  0.5266 -0.7392 -0.3207
 4749TIP3    H135806   2.520   6.219   8.715 -2.4225  1.6913  0.9033
 4749TIP3    H235807   2.398   6.160   8.650  0.4343 -2.8250 -0.8265
 4750TIP3   OH235808   4.034   1.458   6.301 -0.7920 -0.0584  0.2810
 4750TIP3    H135809   3.944   1.476   6.330 -1.1975 -0.5332 -0.6215
 4750TIP3    H235810   4.044   1.363   6.313 -0.8969 -0.2302 -0.8750
 4751TIP3   OH235811   4.992   0.306   1.209  0.1256  0.6022  0.0690
 4751TIP3    H135812   5.085   0.321   1.223  0.0788  0.0094  1.0599
 4751TIP3    H235813   4.949   0.382   1.249  0.1627  0.7206 -0.1132
 4752TIP3   OH235814   6.312   4.898   1.732 -0.1814  0.4786 -0.0702
 4752TIP3    H135815   6.382   4.843   1.695 -0.8203  0.3983 -1.2090
 4752TIP3    H235816   6.240   4.838   1.748 -0.1483  0.6368  0.6909
 4753TIP3   OH235817   2.428   4.999   8.812 -0.0875  0.3078 -0.3507
 4753TIP3    H135818   2.386   5.081   8.786 -0.5372  0.7947  1.6948
 4753TIP3    H235819   2.359   4.951   8.858  0.1503 -1.2884 -1.6057
 4754TIP3   OH235820   1.676   2.654   0.466 -0.5463 -0.2224 -0.0969
 4754TIP3    H135821   1.600   2.598   0.484 -0.9836  0.7589  1.3298
 4754TIP3    H235822   1.713   2.619   0.386 -1.1972 -2.1245  0.3752
 4755TIP3   OH235823   1.663   2.211   1.615 -0.4611  0.3505 -0.1861
 4755TIP3    H135824   1.667   2.278   1.684  2.2120  0.3336 -0.2051
 4755TIP3    H235825   1.728   2.146   1.641 -0.4654 -0.4219 -1.9747
 4756TIP3   OH235826   2.908   2.341   7.280  0.4174 -0.1289  0.3242
 4756TIP3    H135827   2.967   2.389   7.339 -0.0817  0.7926  0.1050
 4756TIP3    H235828   2.943   2.359   7.192  0.4591 -0.4972  0.2668
 4757TIP3   OH235829   3.700   1.546   8.025  1.0397 -0.5789  0.1979
 4757TIP3    H135830   3.707   1.603   7.948  2.4435 -3.8098 -2.3405
 4757TIP3    H235831   3.786   1.554   8.067  0.4295  0.8435  1.2392
 4758TIP3   OH235832   3.439   3.712   6.364  0.1757 -0.0848  0.2919
 4758TIP3    H135833   3.431   3.617   6.360 -1.8126 -0.2620  4.1157
 4758TIP3    H235834   3.352   3.745   6.342  0.4683  0.7723  0.3838
 4759TIP3   OH235835   6.408   0.988   1.259  0.0189 -0.0871  0.0277
 4759TIP3    H135836   6.426   0.995   1.165  2.0282 -1.5833  0.2360
 4759TIP3    H235837   6.316   0.962   1.263 -0.2627  0.5266 -1.4908
 4760TIP3   OH235838   4.006   3.053   7.157 -0.2838  0.1768  0.0527
 4760TIP3    H135839   4.029   3.143   7.182  1.4753  0.6335 -2.7808
 4760TIP3    H235840   4.090   3.006   7.158 -0.2119 -0.0336 -3.4194
 4761TIP3   OH235841   3.897   2.996   0.086  0.3587 -0.4192  0.0689
 4761TIP3    H135842   3.953   3.019   0.160 -0.8723 -1.1453  1.2629
 4761TIP3    H235843   3.934   3.044   0.012 -0.3112  2.9892  1.7744
 4762TIP3   OH235844   3.230   6.009   8.507 -0.1008  0.0291  0.1354
 4762TIP3    H135845   3.157   6.005   8.570 -1.0581  1.9237 -0.7692
 4762TIP3    H235846   3.189   5.990   8.423  0.7903 -0.4678 -0.1937
 4763TIP3   OH235847   3.316   5.249   7.387  0.1043  0.1955 -0.4138
 4763TIP3    H135848   3.384   5.313   7.409 -0.4069  0.8740 -0.7698
 4763TIP3    H235849   3.255   5.251   7.461  1.3829 -1.7465  0.7834
 4764TIP3   OH235850   2.132   3.835   0.031  0.0274 -0.0896 -0.1880
 4764TIP3    H135851   2.065   3.893   0.068  1.3119  0.1236  1.9354
 4764TIP3    H235852   2.107   3.747   0.059 -0.3004 -0.2394 -0.9110
 4765TIP3   OH235853   0.614   6.044   0.602 -0.0708  0.2149  0.2798
 4765TIP3    H135854   0.612   6.018   0.510 -0.5649  1.9057 -0.2362
 4765TIP3    H235855   0.623   5.962   0.651 -0.6399 -0.7836 -1.2327
 4766TIP3   OH235856   6.663   4.834   8.668 -0.0030 -0.1510  0.3022
 4766TIP3    H135857   6.701   4.895   8.606 -1.2541  1.4994  1.0808
 4766TIP3    H235858   6.578   4.872   8.691  0.1190 -1.0346  2.4987
 4767TIP3   OH235859   0.246   0.977   8.582  0.0045  0.0984 -0.2694
 4767TIP3    H135860   0.288   1.022   8.656  0.3114  1.3852 -1.1931
 4767TIP3    H235861   0.286   1.016   8.504 -0.1355 -1.4063 -1.1296
 4768TIP3   OH235862   5.883   6.712   7.238 -0.5157 -0.0591  0.0271
 4768TIP3    H135863   5.874   6.616   7.237 -2.4637  0.0856  0.4750
 4768TIP3    H235864   5.895   6.734   7.331  2.5014 -0.0110 -0.2888
 4769TIP3   OH235865   0.583   5.380   1.681 -0.8710  0.8699  0.7344
 4769TIP3    H135866   0.674   5.387   1.652 -0.7118 -0.7361  0.7390
 4769TIP3    H235867   0.588   5.377   1.776 -0.7724 -0.5526  0.7121
 4770TIP3   OH235868   4.097   0.621   0.881 -0.2023  0.1200  0.2094
 4770TIP3    H135869   4.013   0.660   0.905 -0.1150  0.3807  0.1039
 4770TIP3    H235870   4.157   0.648   0.951 -0.4784 -1.0943  0.9388
 4771TIP3   OH235871   0.451   1.087   1.982 -0.0901  0.5055 -0.0471
 4771TIP3    H135872   0.390   1.121   2.048  0.4670 -0.6307  1.1066
 4771TIP3    H235873   0.439   0.992   1.987  2.6251  0.1249  1.1234
 4772TIP3   OH235874   2.087   3.619   0.667 -0.0925 -0.0092  0.1709
 4772TIP3    H135875   2.065   3.674   0.592  2.0290  0.4477 -0.1943
 4772TIP3    H235876   2.074   3.529   0.636 -2.3746  0.2116  0.3640
 4773TIP3   OH235877   6.126   1.280   0.210 -0.5528  0.1236 -0.2191
 4773TIP3    H135878   6.104   1.205   0.154 -1.2542 -0.4184  0.7619
 4773TIP3    H235879   6.107   1.251   0.299  1.9738  0.4299  0.5050
 4774TIP3   OH235880   2.566   5.068   7.621 -0.1270  0.4413  0.4543
 4774TIP3    H135881   2.586   4.994   7.564 -3.3033  0.1063 -0.3918
 4774TIP3    H235882   2.538   5.137   7.561 -0.7796  1.0691  1.4635
 4775TIP3   OH235883   6.679   0.420   1.864 -0.5196 -0.1357  0.3275
 4775TIP3    H135884   6.717   0.481   1.801 -0.9220 -0.4722 -0.2376
 4775TIP3    H235885   6.683   0.467   1.948  0.3012  0.1868  0.1155
 4776TIP3   OH235886   5.966   6.217   7.920  0.2739 -0.3747  0.0900
 4776TIP3    H135887   5.873   6.224   7.898 -0.3723 -2.0986  1.9945
 4776TIP3    H235888   5.976   6.267   8.001  0.8199 -0.8988  0.3501
 4777TIP3   OH235889   1.801   4.932   0.164 -0.0473  0.1100 -0.2318
 4777TIP3    H135890   1.824   4.885   0.244  0.0006 -0.8230 -0.7847
 4777TIP3    H235891   1.861   5.007   0.163  2.1722 -1.5825 -0.9857
 4778TIP3   OH235892   5.608   0.406   7.440 -0.3034 -0.5283 -0.3539
 4778TIP3    H135893   5.573   0.429   7.526 -0.3588  0.7577 -0.7022
 4778TIP3    H235894   5.684   0.463   7.429 -0.2397 -0.7514 -1.1086
 4779TIP3   OH235895   1.234   2.832   0.186  0.5076  0.4085 -0.3532
 4779TIP3    H135896   1.218   2.739   0.169 -1.4470 -0.2612  3.8049
 4779TIP3    H235897   1.303   2.832   0.253  1.6044  2.1195 -1.4102
 4780TIP3   OH235898   4.116   0.733   7.995  0.4021 -0.1136  0.5558
 4780TIP3    H135899   4.094   0.640   7.995 -1.6580  0.3003 -0.6747
 4780TIP3    H235900   4.041   0.775   8.038  1.2307  0.9992  0.9743
 4781TIP3   OH235901   5.168   3.252   0.198 -0.1666  0.3033  0.0257
 4781TIP3    H135902   5.085   3.254   0.245  0.7274  2.3029  1.7074
 4781TIP3    H235903   5.147   3.286   0.111 -1.4334 -1.2314 -0.3173
 4782TIP3   OH235904   0.089   5.390   0.057  0.0982 -0.0227  0.2839
 4782TIP3    H135905   0.032   5.464   0.038 -0.4721  0.0884  2.1976
 4782TIP3    H235906   0.085   5.380   0.152  2.0703 -0.9952  0.3252
 4783TIP3   OH235907   5.432   5.322   7.154  0.3356  0.1853  0.2357
 4783TIP3    H135908   5.379   5.400   7.136  0.0975 -0.1543 -0.5552
 4783TIP3    H235909   5.484   5.346   7.231 -0.6763  0.6619  0.7940
 4784TIP3   OH235910   2.921   1.843   6.448  0.2942  0.2589  0.5694
 4784TIP3    H135911   2.985   1.901   6.489 -0.3385 -0.5631  2.8505
 4784TIP3    H235912   2.858   1.902   6.406  1.8999  1.0926 -0.7534
 4785TIP3   OH235913   5.751   2.473   8.136 -0.1780 -0.3944  0.2701
 4785TIP3    H135914   5.761   2.489   8.230  2.1108 -1.5837  0.2978
 4785TIP3    H235915   5.683   2.406   8.130 -1.2033  0.5510  0.9540
 4786TIP3   OH235916   6.667   2.858   2.405  0.4505  0.4820 -0.2119
 4786TIP3    H135917   6.741   2.838   2.464 -0.0931 -1.3391 -0.0876
 4786TIP3    H235918   6.593   2.812   2.444 -0.0427 -0.3553 -2.0258
 4787TIP3   OH235919   3.051   2.384   8.259 -0.7266 -0.1100  0.2494
 4787TIP3    H135920   3.029   2.444   8.330 -1.0067  0.9113 -0.6707
 4787TIP3    H235921   3.137   2.349   8.283 -0.5160  0.7319  0.7490
 4788TIP3   OH235922   1.974   0.133   2.332 -0.6222 -0.1076 -0.0733
 4788TIP3    H135923   2.068   0.116   2.336 -0.6043 -0.4061 -1.3258
 4788TIP3    H235924   1.946   0.132   2.423  0.4662 -0.7238  0.2781
 4789TIP3   OH235925   5.222   4.581   8.438 -1.0399 -0.1323  0.1118
 4789TIP3    H135926   5.272   4.652   8.396 -0.3482 -0.7134 -0.0677
 4789TIP3    H235927   5.149   4.565   8.378 -1.0496  0.2396  0.0172
 4790TIP3   OH235928   4.976   2.054   0.866 -0.4828 -0.8730  0.5423
 4790TIP3    H135929   4.898   2.092   0.826 -0.0668  0.1290  0.6540
 4790TIP3    H235930   4.963   2.066   0.960  0.9364  1.6707  0.4826
 4791TIP3   OH235931   1.378   6.593   1.075  0.6657 -0.3333  0.0686
 4791TIP3    H135932   1.293   6.626   1.105  0.7480 -0.5129  0.5135
 4791TIP3    H235933   1.397   6.643   0.997 -0.9763 -1.9228 -1.4597
 4792TIP3   OH235934   4.074   3.378   8.752  0.2054 -0.0612 -0.5013
 4792TIP3    H135935   4.139   3.443   8.780 -1.0158  0.1904  2.0169
 4792TIP3    H235936   4.022   3.423   8.686 -0.9970  1.8551  1.6150
 4793TIP3   OH235937   5.268   1.424   6.593 -0.0508  0.1331 -0.3148
 4793TIP3    H135938   5.326   1.360   6.551  1.6829  1.8484 -0.7014
 4793TIP3    H235939   5.302   1.509   6.564 -1.9033  1.2465  0.6383
 4794TIP3   OH235940   0.474   4.787   8.384  0.2992  0.1628  0.2228
 4794TIP3    H135941   0.400   4.743   8.341 -0.1035  1.0866 -0.0545
 4794TIP3    H235942   0.451   4.786   8.477  1.3283 -2.1371  0.5233
 4795TIP3   OH235943   0.934   4.550   1.167  0.1064  0.2054 -0.0284
 4795TIP3    H135944   0.923   4.504   1.249  1.6645 -0.6701 -0.2557
 4795TIP3    H235945   0.878   4.627   1.174  0.4469  0.3171  1.9758
 4796TIP3   OH235946   0.358   1.006   7.353  0.8221  0.7322 -0.6231
 4796TIP3    H135947   0.350   0.944   7.425  0.0436  0.3537 -1.0172
 4796TIP3    H235948   0.269   1.012   7.316  0.8941  2.0312 -0.6350
 4797TIP3   OH235949   6.018   4.797   8.513  0.0058 -0.0079  0.6563
 4797TIP3    H135950   5.987   4.786   8.423 -0.7627  0.1040  0.8963
 4797TIP3    H235951   6.064   4.716   8.533 -0.7192 -0.4657  0.5101
 4798TIP3   OH235952   4.543   6.713   6.867  0.2329 -0.1630 -0.0859
 4798TIP3    H135953   4.479   6.751   6.927 -0.6182 -0.2725 -0.9054
 4798TIP3    H235954   4.593   6.651   6.921 -0.5190 -0.2611  0.5046
 4799TIP3   OH235955   2.475   0.727   2.480  0.1856 -0.2029 -0.3502
 4799TIP3    H135956   2.469   0.819   2.506  1.4900 -0.0129 -0.6853
 4799TIP3    H235957   2.387   0.706   2.449 -0.2403  0.8057  0.1113
 4800TIP3   OH235958   0.152   5.562   2.592  0.3335  0.3918  0.0923
 4800TIP3    H135959   0.161   5.651   2.626 -0.6974  0.9713 -1.0891
 4800TIP3    H235960   0.224   5.553   2.529  0.2111  0.5335 -0.0697
 4801TIP3   OH235961   3.852   0.050   7.983 -0.6509 -0.2917 -0.7370
 4801TIP3    H135962   3.932   0.033   8.034 -0.3025  0.9206 -0.8586
 4801TIP3    H235963   3.824  -0.037   7.954  0.5202 -0.7600 -0.5378
 4802TIP3   OH235964   0.600   0.522   0.333  0.1196  0.2220  0.1247
 4802TIP3    H135965   0.510   0.510   0.364  0.4505  1.3216  1.6380
 4802TIP3    H235966   0.648   0.552   0.410  1.7419 -0.0786 -0.7191
 4803TIP3   OH235967   5.703   0.319   8.064  0.1467  0.6353 -1.0509
 4803TIP3    H135968   5.752   0.336   8.145 -0.0648  0.3844 -0.8681
 4803TIP3    H235969   5.757   0.257   8.015 -0.3436 -0.2466 -0.4993
 4804TIP3   OH235970   2.992   5.406   7.870 -0.3519 -0.0095  0.6677
 4804TIP3    H135971   3.074   5.376   7.908 -0.1724  0.3610  0.5859
 4804TIP3    H235972   2.927   5.342   7.897  0.3523 -1.5412 -1.0634
 4805TIP3   OH235973   1.211   3.116   0.146 -0.2283  0.2102 -0.3814
 4805TIP3    H135974   1.251   3.029   0.152 -0.1656  0.3420  1.8850
 4805TIP3    H235975   1.117   3.100   0.154 -0.2741  0.3037 -0.7115
 4806TIP3   OH235976   0.976   5.266   7.184  0.0118  0.0313 -0.8342
 4806TIP3    H135977   0.991   5.174   7.202  0.5998  0.0679 -1.1181
 4806TIP3    H235978   0.881   5.274   7.177 -0.2466 -0.0791  1.6496
 4807TIP3   OH235979   6.247   0.685   1.411  0.4287 -0.6805  0.6101
 4807TIP3    H135980   6.334   0.725   1.400 -0.0768  0.3157  0.1733
 4807TIP3    H235981   6.220   0.662   1.322 -0.7584  1.2027  0.4285
 4808TIP3   OH235982   4.760   6.778   7.945 -0.0429 -0.3760  0.0309
 4808TIP3    H135983   4.840   6.824   7.918 -0.2477 -0.5913 -0.9836
 4808TIP3    H235984   4.766   6.693   7.900 -0.7190 -0.4903  0.1564
 4809TIP3   OH235985   1.182   2.605   8.430 -0.2300 -0.1184 -0.0995
 4809TIP3    H135986   1.243   2.676   8.450  0.3743 -0.6115 -0.1678
 4809TIP3    H235987   1.130   2.638   8.357 -0.3748  0.4923  0.2727
 4810TIP3   OH235988   2.887   4.364   7.844  0.4165 -0.8636  0.5624
 4810TIP3    H135989   2.802   4.325   7.829  0.3821  0.1753 -2.8015
 4810TIP3    H235990   2.870   4.436   7.905 -1.3398 -0.0716 -0.7874
 4811TIP3   OH235991   4.878   6.594   1.309 -0.0075 -0.3710  0.1137
 4811TIP3    H135992   4.942   6.615   1.377  1.7609 -3.8014 -0.2210
 4811TIP3    H235993   4.881   6.668   1.248  2.2828  0.4381  1.1092
 4812TIP3   OH235994   5.600   3.747   7.260 -0.3264 -0.5426 -0.9981
 4812TIP3    H135995   5.658   3.799   7.205  0.5659 -0.7841 -0.3004
 4812TIP3    H235996   5.628   3.656   7.246 -0.3445 -0.6387 -0.4526
 4813TIP3   OH235997   3.915   3.999   7.038 -0.1284 -0.3926 -0.0168
 4813TIP3    H135998   3.944   3.938   6.971 -1.3974  0.1264 -1.1081
 4813TIP3    H235999   3.911   4.084   6.992  1.4498  0.4986  1.4128
 4814TIP3   OH236000   0.312   4.114   0.471  0.7960  0.4089  0.6048
 4814TIP3    H136001   0.398   4.078   0.449 -0.5229 -1.8958 -1.2476
 4814TIP3    H236002   0.284   4.066   0.548 -0.7632 -2.5905 -1.5991
 4815TIP3   OH236003   4.982   3.562   7.388 -0.0203 -0.3596 -0.1900
 4815TIP3    H136004   4.983   3.476   7.431  0.3411 -0.2747 -0.0303
 4815TIP3    H236005   5.051   3.612   7.432  1.6525 -0.8745 -2.1121
 4816TIP3   OH236006   4.289   1.496   7.043  0.1916  0.0054  0.3357
 4816TIP3    H136007   4.278   1.541   6.959 -0.1113 -0.4511  0.1311
 4816TIP3    H236008   4.224   1.426   7.042  1.2828 -1.0519  0.2339
 4817TIP3   OH236009   4.039   2.525   1.604 -0.4742 -0.4299 -0.2573
 4817TIP3    H136010   4.076   2.452   1.655  1.6524  1.9565  1.9126
 4817TIP3    H236011   4.071   2.510   1.515  0.2202 -1.9379  0.1987
 4818TIP3   OH236012   4.693   5.284   6.658 -0.6695 -0.1280  0.1332
 4818TIP3    H136013   4.668   5.365   6.614  0.2511  0.5424  0.7800
 4818TIP3    H236014   4.628   5.220   6.631 -1.3276  0.7916 -0.5169
 4819TIP3   OH236015   3.118   6.802   1.818 -0.7176 -0.7082 -0.6109
 4819TIP3    H136016   3.078   6.832   1.899  1.5135 -0.6316  0.5521
 4819TIP3    H236017   3.110   6.876   1.758  0.2114  0.3920  0.5527
 4820TIP3   OH236018   3.621   0.194   6.527  0.0470 -0.2850 -0.5537
 4820TIP3    H136019   3.665   0.109   6.514 -0.1052 -0.3361 -0.7417
 4820TIP3    H236020   3.672   0.237   6.596  0.9534  0.0356 -1.3947
 4821TIP3   OH236021   4.585   6.485   0.465 -0.8091  0.2454 -0.1576
 4821TIP3    H136022   4.665   6.537   0.471 -1.1745  0.5976  2.8525
 4821TIP3    H236023   4.583   6.456   0.373  0.9153  3.0865 -1.2259
 4822TIP3   OH236024   5.324   2.310   0.459 -0.1159  0.8146 -0.0886
 4822TIP3    H136025   5.270   2.293   0.382  1.9064 -2.0838 -1.0844
 4822TIP3    H236026   5.371   2.390   0.438 -1.3208  1.3554 -0.8027
 4823TIP3   OH236027   2.001   2.003   0.812 -0.5414 -0.0772 -0.5764
 4823TIP3    H136028   2.016   2.096   0.826  1.0505 -0.1781 -1.3358
 4823TIP3    H236029   2.037   1.961   0.890  1.6370 -0.1989 -1.5675
 4824TIP3   OH236030   2.974   1.551   8.260 -1.2301 -0.2328 -0.4991
 4824TIP3    H136031   2.994   1.566   8.168 -0.3194  1.1392 -0.1112
 4824TIP3    H236032   3.047   1.499   8.293  0.5191  2.5351  0.2969
 4825TIP3   OH236033   3.548   5.347   1.279  0.1635  0.0521 -0.4983
 4825TIP3    H136034   3.509   5.286   1.216 -1.0366 -0.9148  1.1255
 4825TIP3    H236035   3.602   5.405   1.225  0.4415 -1.7164 -2.2346
 4826TIP3   OH236036   0.685   1.741   7.875 -0.1899  0.0851  0.1586
 4826TIP3    H136037   0.692   1.725   7.781  1.1001 -0.5255  0.3386
 4826TIP3    H236038   0.594   1.767   7.888 -0.3867  0.1809 -1.2547
 4827TIP3   OH236039   3.891   4.932   7.884 -0.2590 -0.3695  0.2021
 4827TIP3    H136040   3.839   4.940   7.804 -0.7044  0.4203  0.5551
 4827TIP3    H236041   3.885   5.019   7.925  2.7306  0.2952 -0.5831
 4828TIP3   OH236042   3.344   6.742   0.724  0.0856  0.5506  0.2595
 4828TIP3    H136043   3.401   6.688   0.779  0.7194 -0.1274 -1.0204
 4828TIP3    H236044   3.400   6.773   0.653 -1.2001 -0.5671 -1.3248
 4829TIP3   OH236045   6.469   3.016   6.761 -0.1312  0.2361 -0.8223
 4829TIP3    H136046   6.401   2.991   6.824  0.9688 -0.5349  0.1096
 4829TIP3    H236047   6.507   2.933   6.733  1.9856  0.6760  0.4830
 4830TIP3   OH236048   5.869   5.652   1.965 -0.7540 -0.2651  0.1396
 4830TIP3    H136049   5.896   5.623   1.877  2.4072  0.0795  0.8468
 4830TIP3    H236050   5.912   5.590   2.024  0.0064  1.4563  1.4816
 4831TIP3   OH236051   6.752   4.919   7.548 -0.5620  0.7468 -0.3006
 4831TIP3    H136052   6.741   4.900   7.641  0.4980 -1.6542 -0.5698
 4831TIP3    H236053   6.664   4.941   7.517 -1.4781 -1.1584  0.7764
 4832TIP3   OH236054   5.480   5.449   0.019 -0.3077 -0.3903  0.0404
 4832TIP3    H136055   5.411   5.459   0.086 -0.8619 -2.3468 -0.1752
 4832TIP3    H236056   5.547   5.395   0.062  0.4189  0.2758 -0.2439
 4833TIP3   OH236057   3.450   6.567   8.545 -0.6936  0.0803 -0.0516
 4833TIP3    H136058   3.528   6.574   8.601  1.1423  2.6573 -2.6006
 4833TIP3    H236059   3.406   6.488   8.575  2.3102 -0.9163  2.2868
 4834TIP3   OH236060   4.515   5.662   8.066 -0.5451  0.9942  0.4024
 4834TIP3    H136061   4.580   5.718   8.107  0.1448  1.7402 -1.5994
 4834TIP3    H236062   4.448   5.650   8.133  0.1407  2.7810  1.4767
 4835TIP3   OH236063   2.952   5.009   0.421  0.0031 -0.2528 -0.9944
 4835TIP3    H136064   2.911   4.928   0.392  0.0279 -0.7447  0.2960
 4835TIP3    H236065   3.045   4.990   0.426  0.1175  0.1297 -1.5413
 4836TIP3   OH236066   3.416   5.923   0.059 -0.3407  0.4670  0.2837
 4836TIP3    H136067   3.464   5.870  -0.004  1.3089  1.0657  0.9797
 4836TIP3    H236068   3.445   6.013   0.042  0.6644  0.5740  2.2925
 4837TIP3   OH236069   4.824   5.383   7.417 -0.1737  0.7679 -0.1636
 4837TIP3    H136070   4.748   5.365   7.472 -0.0314  0.3597 -0.1021
 4837TIP3    H236071   4.896   5.334   7.456 -0.3259 -0.4884 -1.3721
 4838TIP3   OH236072   5.641   0.048   0.587 -0.5590 -0.0835 -0.0419
 4838TIP3    H136073   5.570   0.008   0.537 -1.1116  0.1510  0.5411
 4838TIP3    H236074   5.617   0.034   0.679 -0.4425  1.0039  0.1661
 4839TIP3   OH236075   2.113   0.252   0.484 -0.0566  0.6625  0.1453
 4839TIP3    H136076   2.137   0.160   0.477  1.5713  0.9748  1.0864
 4839TIP3    H236077   2.051   0.256   0.557  0.3252  0.3932  0.4839
 4840TIP3   OH236078   6.062   4.424   0.996  0.1447 -0.2826  0.7322
 4840TIP3    H136079   6.140   4.441   1.049 -0.5987  1.4019  1.3160
 4840TIP3    H236080   6.098   4.398   0.911  1.3532  0.0340  1.1200
 4841TIP3   OH236081   5.559   4.125   0.587 -0.1164  0.0267 -0.3168
 4841TIP3    H136082   5.580   4.032   0.591 -1.2271 -0.2944 -1.3783
 4841TIP3    H236083   5.617   4.165   0.652 -0.5441 -1.5508  1.1113
 4842TIP3   OH236084   4.538   5.451   7.866  0.1521  0.3156  0.0151
 4842TIP3    H136085   4.444   5.457   7.848  0.0421 -0.2269  0.4053
 4842TIP3    H236086   4.563   5.541   7.887 -0.5389  0.2589  1.1615
 4843TIP3   OH236087   5.659   1.881   1.940  0.1806 -0.1403  0.1489
 4843TIP3    H136088   5.661   1.925   1.854  0.0278  0.0619  0.2476
 4843TIP3    H236089   5.694   1.947   2.000  2.5083 -1.0476 -0.0869
 4844TIP3   OH236090   4.660   2.960   7.868  0.0406 -0.3577  0.0211
 4844TIP3    H136091   4.592   2.975   7.933 -0.0850 -1.3452  0.1400
 4844TIP3    H236092   4.614   2.961   7.784 -0.2402 -1.5562  0.1356
 4845TIP3   OH236093   5.704   2.315   2.551  0.4346  0.2719 -0.1884
 4845TIP3    H136094   5.711   2.305   2.456  0.4428  0.0210 -0.1643
 4845TIP3    H236095   5.764   2.248   2.585  0.1423  0.1010 -0.0040
 4846TIP3   OH236096   0.374   0.703   0.696 -0.0995  0.6309 -0.3611
 4846TIP3    H136097   0.434   0.737   0.762  2.1064 -0.4693 -1.6781
 4846TIP3    H236098   0.394   0.610   0.690 -2.4162  0.0800 -0.4451
 4847TIP3   OH236099   4.624   2.475   1.644 -0.1626 -0.4810 -0.5069
 4847TIP3    H136100   4.572   2.522   1.709 -0.7052 -0.6678 -0.7995
 4847TIP3    H236101   4.586   2.387   1.643  1.4036 -1.2175  0.6811
 4848TIP3   OH236102   2.899   3.726   7.947 -0.9359 -0.0506  0.5001
 4848TIP3    H136103   2.846   3.654   7.981  0.3615 -1.4231 -0.2451
 4848TIP3    H236104   2.886   3.798   8.009 -0.5274 -1.6590  2.5471
 4849TIP3   OH236105   4.468   1.753   2.118  0.1771  0.3305  0.2386
 4849TIP3    H136106   4.463   1.660   2.140  0.2236  0.4580  0.8078
 4849TIP3    H236107   4.402   1.795   2.175  0.9275  0.7826  0.7977
 4850TIP3   OH236108   0.316   5.222   8.859 -0.3386  0.5157  0.0185
 4850TIP3    H136109   0.243   5.271   8.898 -1.3813  0.2500 -1.5137
 4850TIP3    H236110   0.359   5.286   8.801  0.0455  0.3886  0.1572
 4851TIP3   OH236111   1.549   1.823   8.150  0.1349  0.1168 -0.0240
 4851TIP3    H136112   1.627   1.777   8.118 -0.1424 -1.1990  1.1031
 4851TIP3    H236113   1.504   1.852   8.071  0.1820 -1.8151 -0.8036
 4852TIP3   OH236114   5.267   1.825   2.397 -0.4249 -0.1642 -0.5025
 4852TIP3    H136115   5.277   1.914   2.363  0.2085 -0.0956 -0.1428
 4852TIP3    H236116   5.251   1.771   2.319 -2.1218  0.4331 -0.6181
 4853TIP3   OH236117   4.328   1.617   0.772  0.2005  0.2535 -0.1411
 4853TIP3    H136118   4.241   1.650   0.792 -0.0883  0.1633 -1.1644
 4853TIP3    H236119   4.315   1.525   0.751  0.5801  0.1734 -0.0303
 4854TIP3   OH236120   2.305   0.966   2.110 -0.1748  0.1621  0.5805
 4854TIP3    H136121   2.375   0.966   2.175  0.0186 -0.3840  0.3696
 4854TIP3    H236122   2.238   0.909   2.147 -0.4897  0.6331  0.7526
 4855TIP3   OH236123   6.369   0.484   7.384 -0.0432 -0.1758  0.0429
 4855TIP3    H136124   6.348   0.392   7.364 -0.0418  0.2334 -2.1009
 4855TIP3    H236125   6.423   0.512   7.310 -0.1269  1.5939  0.6174
 4856TIP3   OH236126   5.374   0.192   0.701  0.3549 -0.2353 -0.1611
 4856TIP3    H136127   5.418   0.112   0.731  0.1457  0.4823  2.3164
 4856TIP3    H236128   5.347   0.236   0.782 -0.4204  1.8619 -1.4763
 4857TIP3   OH236129   3.926   1.354   6.593 -0.3242 -0.6390  0.4132
 4857TIP3    H136130   3.836   1.383   6.573  0.3541  0.8982 -0.6806
 4857TIP3    H236131   3.950   1.298   6.519  0.2238  0.4493 -0.2628
 4858TIP3   OH236132   6.213   2.113   7.218  0.3492  0.3338  0.2411
 4858TIP3    H136133   6.226   2.023   7.249  1.8438  0.3844 -0.1883
 4858TIP3    H236134   6.118   2.121   7.208  0.1313 -0.9254  1.0834
 4859TIP3   OH236135   2.088   6.645   8.057  0.1664 -0.0860 -0.2107
 4859TIP3    H136136   2.074   6.720   7.999  0.9887  0.4755  0.3113
 4859TIP3    H236137   2.099   6.571   7.997  0.5680  0.4103 -0.7609
 4860TIP3   OH236138   0.372   1.544   1.299 -0.2258  1.0194 -0.2588
 4860TIP3    H136139   0.329   1.482   1.240  0.8902  0.6025 -0.6622
 4860TIP3    H236140   0.303   1.571   1.360 -0.7851 -0.4543 -0.2035
 4861TIP3   OH236141   2.848   3.869   2.240 -0.3659 -0.5829  0.6234
 4861TIP3    H136142   2.888   3.908   2.163  0.8853 -3.2820 -0.2131
 4861TIP3    H236143   2.754   3.863   2.219 -0.2631  0.0672 -0.0323
 4862TIP3   OH236144   4.747   4.325   6.831  0.0786  0.8124 -0.5872
 4862TIP3    H136145   4.834   4.319   6.791  0.2779  0.6009 -0.1243
 4862TIP3    H236146   4.699   4.385   6.774 -0.5059 -1.4844 -2.7475
 4863TIP3   OH236147   3.712   6.306   1.489  0.9986  0.7647  0.0133
 4863TIP3    H136148   3.735   6.231   1.435  1.4407 -0.1524  1.4094
 4863TIP3    H236149   3.792   6.325   1.539 -0.1734 -0.3506  2.5046
 4864TIP3   OH236150   1.205   5.022   1.847  0.3509 -0.3183 -0.7745
 4864TIP3    H136151   1.230   4.949   1.902  2.6419 -0.3284 -1.7393
 4864TIP3    H236152   1.169   5.087   1.908 -1.6791 -2.1373  0.1003
 4865TIP3   OH236153   2.723   4.541   0.301  0.4233 -0.2857  0.0839
 4865TIP3    H136154   2.699   4.486   0.226 -3.9168  1.2058  0.1219
 4865TIP3    H236155   2.655   4.525   0.366 -0.4375  4.0847  0.5598
 4866TIP3   OH236156   5.156   2.882   8.381  0.1382 -0.0561  0.0106
 4866TIP3    H136157   5.132   2.790   8.398  0.0467 -0.4069 -1.8197
 4866TIP3    H236158   5.249   2.887   8.402  0.4781 -0.9433 -1.1790
 4867TIP3   OH236159   1.768   1.528   8.791  0.2378  0.2311 -0.2074
 4867TIP3    H136160   1.752   1.535   8.885 -1.2145 -0.3723 -0.3769
 4867TIP3    H236161   1.811   1.611   8.768 -0.1876  0.7641  0.8300
 4868TIP3   OH236162   2.265   2.565   1.019  0.7485 -0.0665  0.4553
 4868TIP3    H136163   2.241   2.506   1.090  1.7707 -1.4236 -0.2744
 4868TIP3    H236164   2.195   2.556   0.955 -0.0294  0.9428  1.1370
 4869TIP3   OH236165   2.037   6.565   0.377 -0.2620  0.4800 -0.0217
 4869TIP3    H136166   1.998   6.552   0.291  0.8192  0.2617 -0.4995
 4869TIP3    H236167   2.085   6.484   0.394 -1.7036 -0.1310  1.4934
 4870TIP3   OH236168   1.586   1.628   7.598  0.3938  0.2620 -0.2928
 4870TIP3    H136169   1.663   1.645   7.544  1.3218  0.0828  0.9182
 4870TIP3    H236170   1.516   1.612   7.536  0.7083  2.9708 -1.4919
 4871TIP3   OH236171   6.388   5.686   1.618 -0.2285 -0.1575  0.5144
 4871TIP3    H136172   6.428   5.698   1.532  0.4388 -0.4426  0.7835
 4871TIP3    H236173   6.448   5.629   1.665 -1.9828 -2.4027  0.2166
 4872TIP3   OH236174   4.125   1.258   8.147 -0.3138 -0.4455  0.1855
 4872TIP3    H136175   4.110   1.231   8.057 -1.5068 -1.7146  0.7117
 4872TIP3    H236176   4.218   1.244   8.162  0.2612  1.3923 -1.3111
 4873TIP3   OH236177   2.314   0.064   0.686 -0.4588  0.4869 -0.1619
 4873TIP3    H136178   2.286   0.029   0.602 -1.1816  2.0217 -0.5894
 4873TIP3    H236179   2.409   0.068   0.680 -0.4944  0.4131 -0.8185
 4874TIP3   OH236180   6.166   3.254   1.470 -0.4249  0.3028  0.4543
 4874TIP3    H136181   6.207   3.188   1.526 -0.7565 -0.6873 -0.4351
 4874TIP3    H236182   6.095   3.290   1.523 -0.1503  0.0355  1.0044
 4875TIP3   OH236183   0.002   5.997   1.569 -0.0293  0.1732 -0.6412
 4875TIP3    H136184   0.071   6.057   1.543 -0.8855  0.7449 -1.6883
 4875TIP3    H236185  -0.003   5.934   1.497  0.3181 -0.6817  0.0707
 4876TIP3   OH236186   3.687   2.006   7.449 -0.7636 -0.0219  0.3271
 4876TIP3    H136187   3.749   2.009   7.521  0.5931 -0.7894 -0.7528
 4876TIP3    H236188   3.658   2.096   7.438  1.3656  0.6563 -0.1101
 4877TIP3   OH236189   1.026   3.589   8.827  0.0731  0.0204  0.2855
 4877TIP3    H136190   1.092   3.653   8.801 -0.0151 -0.1966 -0.4822
 4877TIP3    H236191   0.953   3.643   8.860 -0.6201  0.4144 -1.7611
 4878TIP3   OH236192   3.768   3.674   6.871  0.2264  0.4611  0.4252
 4878TIP3    H136193   3.690   3.712   6.912 -0.2156 -0.2143  0.2219
 4878TIP3    H236194   3.734   3.603   6.816  0.9919  0.0836  0.4315
 4879TIP3   OH236195   3.907   4.541   7.402  0.1322 -0.0322  0.0728
 4879TIP3    H136196   3.832   4.483   7.391  0.5305 -0.6296  0.4618
 4879TIP3    H236197   3.916   4.551   7.497  0.0686  0.6727  0.0129
 4880TIP3   OH236198   5.256   3.487   0.665  0.8256  0.1112  0.3787
 4880TIP3    H136199   5.344   3.499   0.630  1.5277  0.4376  2.1573
 4880TIP3    H236200   5.269   3.466   0.757 -0.9875  2.7493  1.3638
 4881TIP3   OH236201   3.392   2.991   0.294 -0.2082 -0.2560 -0.0917
 4881TIP3    H136202   3.475   2.961   0.258  1.3191  2.3754  0.9517
 4881TIP3    H236203   3.415   3.065   0.350 -3.1562 -0.1358  1.1557
 4882TIP3   OH236204   0.990   0.785   0.496  0.3276  0.8849  0.4938
 4882TIP3    H136205   0.962   0.816   0.582  0.9576  1.7313  0.4072
 4882TIP3    H236206   1.021   0.864   0.451 -0.2307  0.4917 -0.6048
 4883TIP3   OH236207   2.364   0.909   1.585  0.2361 -0.2938 -0.2000
 4883TIP3    H136208   2.287   0.938   1.537 -1.5443 -0.6935  2.2290
 4883TIP3    H236209   2.349   0.815   1.601  2.0910 -0.8030 -1.1460
 4884TIP3   OH236210   0.811   3.355   0.226  0.8719 -0.5628  0.0567
 4884TIP3    H136211   0.787   3.392   0.141  1.6261  2.0559  0.8964
 4884TIP3    H236212   0.729   3.348   0.274  0.8166  1.0343  0.2256
 4885TIP3   OH236213   5.288   3.739   8.138  0.0648  0.4047 -0.2115
 4885TIP3    H136214   5.325   3.754   8.051  0.2924  0.8299 -0.0454
 4885TIP3    H236215   5.296   3.645   8.151 -1.1369  0.1368 -1.1666
 4886TIP3   OH236216   6.052   0.801   8.586  0.0647 -0.2745  0.2165
 4886TIP3    H136217   6.090   0.887   8.568  0.3937 -0.8591 -2.2530
 4886TIP3    H236218   6.100   0.769   8.662  0.5282  1.3461  0.6570
 4887TIP3   OH236219   2.447   6.476   1.150 -0.2121 -0.3007 -0.1111
 4887TIP3    H136220   2.478   6.403   1.203 -0.2970 -0.4010 -0.1986
 4887TIP3    H236221   2.465   6.450   1.060 -0.5076 -0.3392 -0.1598
 4888TIP3   OH236222   6.467   4.732   1.205 -0.0545  0.1429 -0.2785
 4888TIP3    H136223   6.415   4.764   1.132  0.2278 -0.1289 -0.6006
 4888TIP3    H236224   6.415   4.752   1.283 -0.8776 -0.6007 -0.6278
 4889TIP3   OH236225   4.608   4.806   0.068 -0.5815  0.1458  0.1180
 4889TIP3    H136226   4.670   4.777   0.135  1.7665  0.6478 -1.7089
 4889TIP3    H236227   4.614   4.739  -0.001 -1.2567  0.7688 -0.5698
 4890TIP3   OH236228   3.151   3.183   8.499  0.1366  0.3176  0.3996
 4890TIP3    H136229   3.098   3.262   8.498 -4.5757 -2.4512 -0.0807
 4890TIP3    H236230   3.125   3.137   8.579  0.4310 -2.0071 -0.7376
 4891TIP3   OH236231   0.842   3.520   8.141  0.1337 -0.2322 -0.0864
 4891TIP3    H136232   0.777   3.588   8.158 -0.0739 -0.2291 -0.8482
 4891TIP3    H236233   0.841   3.509   8.046  0.9758 -0.5045 -0.0767
 4892TIP3   OH236234   4.968   3.505   7.797  0.0404  0.0457 -0.1787
 4892TIP3    H136235   5.005   3.454   7.726  0.6284  1.0874 -0.6342
 4892TIP3    H236236   5.012   3.471   7.876  1.5975  0.8739 -0.6427
 4893TIP3   OH236237   2.135   4.301   1.040 -0.4817  0.1953 -0.4053
 4893TIP3    H136238   2.083   4.221   1.049  0.6132 -0.3811  1.1381
 4893TIP3    H236239   2.124   4.347   1.123  1.0312  0.3310 -0.2671
 4894TIP3   OH236240   2.073   4.877   8.031 -0.3210 -0.1460 -0.7720
 4894TIP3    H136241   2.061   4.970   8.008 -1.7572 -0.5587 -1.8122
 4894TIP3    H236242   2.095   4.879   8.124  1.5303  1.3332 -1.1607
 4895TIP3   OH236243   5.516   2.129   8.043  0.2688  0.1730 -0.5723
 4895TIP3    H136244   5.512   2.224   8.027  1.2611  0.4234  0.5043
 4895TIP3    H236245   5.610   2.110   8.047  0.1734 -0.1358  2.9578
 4896TIP3   OH236246   1.775   1.294   1.176 -0.7890  0.2972 -0.0891
 4896TIP3    H136247   1.812   1.240   1.245 -0.8650 -0.2969 -0.5069
 4896TIP3    H236248   1.738   1.232   1.113 -0.5870  0.8162 -0.7399
 4897TIP3   OH236249   3.846   2.842   7.978 -0.6615  0.9363  0.0230
 4897TIP3    H136250   3.812   2.874   7.894  0.1863  0.3152 -0.5756
 4897TIP3    H236251   3.941   2.853   7.971 -0.5138  0.0481  0.5430
 4898TIP3   OH236252   2.530   4.527   0.506 -0.6050 -0.8034 -0.1455
 4898TIP3    H136253   2.560   4.497   0.592  0.4159 -0.4474 -0.3637
 4898TIP3    H236254   2.506   4.618   0.519  0.2014 -0.5480 -0.3725
 4899TIP3   OH236255   2.632   1.561   2.086  0.1837 -0.4420 -0.0433
 4899TIP3    H136256   2.561   1.557   2.022  1.0198  0.9403 -1.1206
 4899TIP3    H236257   2.659   1.470   2.098 -0.0835 -0.7427 -1.5597
 4900TIP3   OH236258   3.179   0.218   7.684 -0.6123 -0.1552  0.0223
 4900TIP3    H136259   3.167   0.216   7.779 -2.2728  0.9438 -0.1293
 4900TIP3    H236260   3.179   0.125   7.658 -0.9186 -0.4407  1.0004
 4901TIP3   OH236261   5.146   2.909   7.035  0.1706  0.3366 -0.0475
 4901TIP3    H136262   5.061   2.931   6.996 -0.4125 -0.1652  0.8898
 4901TIP3    H236263   5.139   2.939   7.125  0.4101 -1.0865  0.4689
 4902TIP3   OH236264   5.258   2.127   0.917  0.4568 -0.3085 -0.3235
 4902TIP3    H136265   5.174   2.084   0.901  0.5316 -0.0777 -1.3893
 4902TIP3    H236266   5.235   2.211   0.957  0.2088 -0.4155 -0.2386
 4903TIP3   OH236267   4.037   0.407   7.723 -0.5167 -0.4106  0.7277
 4903TIP3    H136268   4.120   0.402   7.676 -0.8720 -1.0868  0.1623
 4903TIP3    H236269   4.019   0.501   7.729  0.4575 -0.2442  1.1635
 4904TIP3   OH236270   5.067   0.338   6.961  0.2576 -0.2762 -0.2627
 4904TIP3    H136271   5.115   0.421   6.958  2.3826 -1.4540 -2.5666
 4904TIP3    H236272   5.006   0.343   6.887  0.7922 -0.9348 -0.7686
 4905TIP3   OH236273   5.378   2.569   1.605 -0.3344 -0.1950  1.1206
 4905TIP3    H136274   5.302   2.551   1.550  2.1073 -3.0856 -1.6667
 4905TIP3    H236275   5.410   2.654   1.576  0.1997 -1.1361 -1.2678
 4906TIP3   OH236276   3.671   2.848   1.558  0.3235 -0.3119 -0.3260
 4906TIP3    H136277   3.683   2.768   1.507  1.3908 -0.3767  0.0145
 4906TIP3    H236278   3.584   2.838   1.596 -0.3670 -0.4212 -1.8265
 4907TIP3   OH236279   5.033   5.898   0.538 -0.7166  0.2585 -0.6518
 4907TIP3    H136280   5.031   5.994   0.548  0.1956  0.3703 -1.3997
 4907TIP3    H236281   4.943   5.875   0.516 -0.8206  1.0243 -1.0753
 4908TIP3   OH236282   3.326   2.464   7.369 -0.1028 -0.5763 -0.2854
 4908TIP3    H136283   3.233   2.480   7.386  0.1191  1.0600 -0.4016
 4908TIP3    H236284   3.346   2.519   7.293  0.7876 -1.5068 -0.7482
 4909TIP3   OH236285   2.876   0.181   0.645  0.2229 -0.0101  0.0928
 4909TIP3    H136286   2.920   0.196   0.561 -2.3088  0.1854 -1.3107
 4909TIP3    H236287   2.820   0.258   0.657 -1.8202 -1.4407  0.2878
 4910TIP3   OH236288   1.747   1.816   1.126 -0.5086  0.3716  0.0941
 4910TIP3    H136289   1.717   1.894   1.080  0.1890  0.6514  0.0961
 4910TIP3    H236290   1.788   1.762   1.058  0.3674  0.7072  0.3382
 4911TIP3   OH236291   5.362   0.356   0.327  0.9279  0.1427 -0.1332
 4911TIP3    H136292   5.366   0.280   0.270  0.7095  1.5398 -2.1166
 4911TIP3    H236293   5.450   0.394   0.322  0.9315  0.2443  0.5517
 4912TIP3   OH236294   5.898   1.358   1.644 -0.1840 -0.0627 -0.2720
 4912TIP3    H136295   5.878   1.415   1.718 -0.7446  0.1133 -0.5558
 4912TIP3    H236296   5.871   1.271   1.673  2.3855 -0.5783  0.8907
 4913TIP3   OH236297   3.470   5.647   8.086 -0.2430  0.3568  0.3901
 4913TIP3    H136298   3.511   5.634   8.171 -0.4299  1.1125  0.6027
 4913TIP3    H236299   3.529   5.707   8.040 -0.6738  0.7957  0.3949
 4914TIP3   OH236300   4.302   3.839   0.026 -0.2834 -0.5203 -0.0703
 4914TIP3    H136301   4.242   3.826   0.100 -2.7339 -0.3597 -1.9022
 4914TIP3    H236302   4.293   3.760  -0.026 -0.6523  0.4372 -1.5239
 4915TIP3   OH236303   6.473   2.251   1.094  0.4148  0.6112  0.5976
 4915TIP3    H136304   6.481   2.344   1.071 -1.9897  0.8593  0.5690
 4915TIP3    H236305   6.383   2.241   1.126  0.5589 -1.7541  0.4506
 4916TIP3   OH236306   0.479   4.542   8.161  0.1164  0.1172  0.0364
 4916TIP3    H136307   0.489   4.486   8.238 -0.5054  1.3115  1.0212
 4916TIP3    H236308   0.454   4.627   8.196 -4.4475 -0.2625 -1.6160
 4917TIP3   OH236309   1.430   5.729   0.070 -0.9136 -0.4187 -0.1526
 4917TIP3    H136310   1.434   5.701   0.162  2.6273 -1.7320 -0.5526
 4917TIP3    H236311   1.445   5.649   0.020 -0.3924  0.6460 -1.7569
 4918TIP3   OH236312   4.268   0.045   0.162 -0.4972  0.2090  0.6302
 4918TIP3    H136313   4.270  -0.049   0.142  0.4169  0.2306  0.5742
 4918TIP3    H236314   4.250   0.049   0.256 -0.5409 -0.0173  0.6325
 4919TIP3   OH236315   0.970   3.365   8.680 -0.4065  0.0104  0.4375
 4919TIP3    H136316   1.041   3.301   8.673 -0.5091 -0.4391  2.7630
 4919TIP3    H236317   1.011   3.442   8.721 -1.0559  0.0897  0.9470
 4920TIP3   OH236318   3.130   6.673   0.045  0.0471 -0.3115  0.3576
 4920TIP3    H136319   3.152   6.746  -0.013  0.2706 -0.0102  0.8170
 4920TIP3    H236320   3.215   6.640   0.075 -0.0697 -0.3619  0.6352
 4921TIP3   OH236321   4.846   1.792   7.133 -0.2750 -0.2346 -0.1615
 4921TIP3    H136322   4.863   1.716   7.187 -1.0152 -1.0607 -1.0490
 4921TIP3    H236323   4.925   1.804   7.081 -0.1035 -0.3021  0.0837
 4922TIP3   OH236324   3.964   5.021   0.262  1.0319  0.2990 -0.7493
 4922TIP3    H136325   3.940   5.111   0.284  2.1332  0.5363 -0.4651
 4922TIP3    H236326   3.943   4.970   0.340 -1.2645 -0.0361 -1.5152
 4923TIP3   OH236327   4.300   4.798   0.693  0.6439  0.3073  0.1127
 4923TIP3    H136328   4.350   4.783   0.614 -0.0412  0.3240 -0.3313
 4923TIP3    H236329   4.366   4.817   0.760  1.3161 -1.2483 -0.0800
 4924TIP3   OH236330   2.304   4.641   1.602  0.0336  0.6256 -0.4242
 4924TIP3    H136331   2.287   4.695   1.679  1.8326 -1.9715  1.9725
 4924TIP3    H236332   2.393   4.665   1.576  1.9649 -2.7260  2.3229
 4925TIP3   OH236333   5.264   6.182   0.290  0.4405 -0.4204 -0.0640
 4925TIP3    H136334   5.336   6.245   0.286 -0.0456  0.1144 -0.7895
 4925TIP3    H236335   5.186   6.234   0.268  0.1545 -1.4573 -1.6404
 4926TIP3   OH236336   0.740   1.238   8.755 -0.2453 -0.1694  0.4164
 4926TIP3    H136337   0.748   1.219   8.848  0.1134  0.1783  0.4608
 4926TIP3    H236338   0.694   1.321   8.751 -0.8299 -0.4970  0.2600
 4927TIP3   OH236339   4.079   1.865   8.559 -0.1212  0.2966 -0.2191
 4927TIP3    H136340   4.047   1.822   8.480  1.2970  2.2879 -1.9993
 4927TIP3    H236341   4.044   1.813   8.631 -1.4315 -1.6386 -2.1407
 4928TIP3   OH236342   2.940   2.394   0.069 -0.2180 -0.2814  0.4389
 4928TIP3    H136343   2.844   2.388   0.076 -0.2035 -1.3125  0.0561
 4928TIP3    H236344   2.965   2.313   0.023  0.7542  0.4101 -0.2915
 4929TIP3   OH236345   3.774   3.665   7.564 -0.4934  0.1093  0.3168
 4929TIP3    H136346   3.683   3.642   7.546 -0.5917  2.2988 -2.7717
 4929TIP3    H236347   3.817   3.581   7.583 -3.1470 -0.9278  2.3289
 4930TIP3   OH236348   2.056   6.601   1.545 -0.4178  0.3984  0.0442
 4930TIP3    H136349   2.048   6.640   1.458 -1.9978 -0.0447 -0.0390
 4930TIP3    H236350   2.129   6.540   1.537 -0.6444  0.2437 -1.0190
 4931TIP3   OH236351   3.375   4.398   7.407  0.1839 -0.1847 -0.3876
 4931TIP3    H136352   3.354   4.320   7.458  1.8774 -0.7955 -0.5312
 4931TIP3    H236353   3.330   4.385   7.324  1.9136 -2.0100 -1.1352
 4932TIP3   OH236354   1.237   3.262   8.564 -0.2271 -0.0213  0.1593
 4932TIP3    H136355   1.294   3.254   8.487 -0.0608 -1.3930  0.4005
 4932TIP3    H236356   1.297   3.252   8.638 -0.4862  0.6452  0.4688
 4933TIP3   OH236357   4.276   4.408   1.215 -0.0428 -0.6331 -0.6898
 4933TIP3    H136358   4.225   4.420   1.135 -0.6311  1.2733 -0.0921
 4933TIP3    H236359   4.231   4.462   1.280  1.0649 -1.2453  0.6365
 4934TIP3   OH236360   1.907   4.091   7.867  0.0885 -0.1166  0.3954
 4934TIP3    H136361   1.860   4.108   7.786 -0.2636 -0.9349  0.4133
 4934TIP3    H236362   1.852   4.027   7.914  0.5240 -0.0223  1.0518
 4935TIP3   OH236363   5.901   4.688   7.827 -0.2953 -0.4978  0.4822
 4935TIP3    H136364   5.901   4.740   7.746 -0.7249 -1.3503 -0.0884
 4935TIP3    H236365   5.926   4.750   7.895 -1.0552  0.5128 -0.1311
 4936TIP3   OH236366   3.990   0.670   6.573 -0.2960 -0.7992 -0.0194
 4936TIP3    H136367   4.057   0.737   6.557 -0.3286 -1.2608 -2.4591
 4936TIP3    H236368   3.984   0.621   6.491 -3.7102 -0.7314  0.0407
 4937TIP3   OH236369   3.473   0.189   1.381  0.2369  0.0917 -0.1739
 4937TIP3    H136370   3.381   0.211   1.396  0.4386  1.2492 -0.5390
 4937TIP3    H236371   3.472   0.096   1.358 -0.7792 -0.0385  0.3315
 4938TIP3   OH236372   0.388   2.707   8.053  0.1086 -0.0324 -0.4091
 4938TIP3    H136373   0.371   2.664   7.969 -0.1125 -1.1677  0.2031
 4938TIP3    H236374   0.308   2.693   8.104  0.1323  0.8989 -0.1064
 4939TIP3   OH236375   1.924   3.696   7.780  0.3437  0.0745  0.7924
 4939TIP3    H136376   1.966   3.756   7.718  1.8355 -0.9176  0.7923
 4939TIP3    H236377   1.832   3.697   7.755  0.7432  0.4782 -0.7847
 4940TIP3   OH236378   3.878   4.359   1.389 -0.1177 -0.4276 -0.2375
 4940TIP3    H136379   3.872   4.453   1.374  0.0477 -0.1344  1.3599
 4940TIP3    H236380   3.947   4.329   1.330  1.2869  0.8249  0.7071
 4941TIP3   OH236381   5.170   6.265   7.292  0.3143  0.4076  0.5272
 4941TIP3    H136382   5.158   6.342   7.236  0.6755  0.8511  1.0455
 4941TIP3    H236383   5.261   6.239   7.279  0.2960  0.2879  0.6309
 4942TIP3   OH236384   5.393   4.046   8.684 -0.1966 -0.1861  0.4796
 4942TIP3    H136385   5.303   4.075   8.700  0.2390  1.0764  0.7625
 4942TIP3    H236386   5.440   4.067   8.765 -0.0689 -2.8273  1.1899
 4943TIP3   OH236387   6.144   6.164   1.276 -0.0729  0.2923  0.1057
 4943TIP3    H136388   6.061   6.148   1.321  0.1318  0.9328  0.7299
 4943TIP3    H236389   6.199   6.090   1.300 -0.4164 -0.0625 -0.1975
 4944TIP3   OH236390   1.175   6.372   8.045  0.4030 -0.7231  0.5544
 4944TIP3    H136391   1.100   6.422   8.013  0.2652 -0.4727  1.2505
 4944TIP3    H236392   1.151   6.281   8.031  1.6685 -0.6676 -3.0758
 4945TIP3   OH236393   4.754   1.125   0.077  0.2639 -0.0197  0.3550
 4945TIP3    H136394   4.834   1.163   0.039  1.2013  0.2349  2.4468
 4945TIP3    H236395   4.763   1.031   0.062  1.4305 -0.0885  1.3393
 4946TIP3   OH236396   1.118   5.798   6.648 -0.5736  0.3288  0.0933
 4946TIP3    H136397   1.093   5.706   6.656  1.1553 -0.0674  1.2036
 4946TIP3    H236398   1.052   5.845   6.699 -1.3278 -0.2791 -0.2837
 4947TIP3   OH236399   2.669   5.877   7.010 -0.2089  0.7378  0.5113
 4947TIP3    H136400   2.694   5.950   7.066 -0.1266  0.6384  0.6053
 4947TIP3    H236401   2.578   5.857   7.035 -1.2670  2.6553 -1.4930
 4948TIP3   OH236402   4.945   2.100   1.113 -0.4430  0.0691 -0.5873
 4948TIP3    H136403   4.868   2.066   1.158 -0.3898  0.5435 -0.1323
 4948TIP3    H236404   5.003   2.131   1.183 -0.4043  0.9075 -0.9694
 4949TIP3   OH236405   4.042   2.258   1.326  0.1629  0.5316  0.0858
 4949TIP3    H136406   4.096   2.326   1.366 -1.0436 -0.1357  3.2094
 4949TIP3    H236407   4.103   2.186   1.310  0.8961  1.2254 -0.3184
 4950TIP3   OH236408   4.126   3.441   1.281 -0.0845  0.4665  0.0654
 4950TIP3    H136409   4.200   3.433   1.341  0.9428 -0.1780 -1.2364
 4950TIP3    H236410   4.070   3.508   1.321  0.7136  0.2904  1.5561
 4951TIP3   OH236411   3.725   5.776   8.792 -0.3025 -0.1144  0.3275
 4951TIP3    H136412   3.702   5.829   8.868 -1.2411 -0.8671  0.5836
 4951TIP3    H236413   3.793   5.826   8.748  0.3387  0.2771  1.7162
 4952TIP3   OH236414   2.874   6.275   8.124  0.1397 -0.0412  0.2515
 4952TIP3    H136415   2.782   6.288   8.147  0.1837  0.2963  0.2339
 4952TIP3    H236416   2.915   6.360   8.138  0.2649  0.0577 -0.6395
 4953TIP3   OH236417   3.961   5.102   1.914  0.3110 -0.0997  0.2908
 4953TIP3    H136418   3.961   5.027   1.973  0.9622 -0.0587  0.3533
 4953TIP3    H236419   3.903   5.166   1.956 -2.9152 -1.7426 -1.3284
 4954TIP3   OH236420   6.120   0.462   0.908 -0.1852 -0.0339  0.3216
 4954TIP3    H136421   6.173   0.465   0.828  1.6316  0.5950  1.4684
 4954TIP3    H236422   6.150   0.383   0.954  0.2903  0.7001  1.3109
 4955TIP3   OH236423   1.671   4.735   1.994 -0.5588  0.4994 -0.1721
 4955TIP3    H136424   1.733   4.759   1.924 -0.2784 -0.4099 -0.2555
 4955TIP3    H236425   1.664   4.640   1.987  2.1564 -0.1598  3.1815
 4956TIP3   OH236426   6.759   5.099   0.009  0.4468  0.5839  0.3795
 4956TIP3    H136427   6.769   5.181   0.057 -0.6642  1.6174 -1.0686
 4956TIP3    H236428   6.691   5.116  -0.056  1.0957 -1.0738 -0.8447
 4957TIP3   OH236429   5.438   3.715   8.864  0.3217  0.1190  0.5136
 4957TIP3    H136430   5.373   3.681   8.925  0.6382  0.5143  1.0790
 4957TIP3    H236431   5.445   3.647   8.796  0.8581 -0.8894  1.5516
 4958TIP3   OH236432   4.136   5.906   1.286  0.2941  0.1580 -0.3934
 4958TIP3    H136433   4.182   5.839   1.236  2.1023  1.6981 -0.9518
 4958TIP3    H236434   4.066   5.936   1.228 -0.7601 -1.4117 -0.0021
 4959TIP3   OH236435   3.306   6.025   6.458 -0.4020 -0.3032  0.6605
 4959TIP3    H136436   3.218   6.030   6.422 -1.8592  0.0074  3.9592
 4959TIP3    H236437   3.326   5.931   6.460 -0.4675 -0.3524 -0.4079
 4960TIP3   OH236438   3.758   4.031   2.301 -0.0275 -0.3045  0.1140
 4960TIP3    H136439   3.673   4.063   2.331 -0.1647 -0.7671  0.2121
 4960TIP3    H236440   3.790   3.975   2.372  0.5272  0.1571  0.2398
 4961TIP3   OH236441   2.650   4.925   1.804  0.0136 -0.8589  0.2162
 4961TIP3    H136442   2.575   4.901   1.858  0.5293 -1.1358  0.8216
 4961TIP3    H236443   2.716   4.954   1.867  1.5378 -3.5549 -0.0058
 4962TIP3   OH236444   5.274   5.677   1.979  0.0932  0.7765  0.3019
 4962TIP3    H136445   5.342   5.654   1.916  0.4515  1.3993  0.4501
 4962TIP3    H236446   5.314   5.659   2.064  0.1171  1.2496  0.3940
 4963TIP3   OH236447   1.203   0.113   7.465  0.0368 -0.2674 -0.0818
 4963TIP3    H136448   1.280   0.164   7.492 -0.8684  0.7607  0.6637
 4963TIP3    H236449   1.138   0.179   7.442 -0.3521 -1.1208 -1.5854
 4964TIP3   OH236450   4.107   3.768   0.621 -0.2911  0.3201 -0.2144
 4964TIP3    H136451   4.117   3.739   0.711  0.0526  2.0468  0.3394
 4964TIP3    H236452   4.183   3.823   0.605 -1.2445  1.4531 -0.9674
 4965TIP3   OH236453   2.073   2.810   0.419 -0.0915  0.5465  0.0506
 4965TIP3    H136454   2.008   2.871   0.454  2.0835  2.3247  1.3212
 4965TIP3    H236455   2.082   2.835   0.327 -1.5809 -0.1274 -0.3008
 4966TIP3   OH236456   3.164   5.223   8.548  0.2087 -0.1517 -0.0242
 4966TIP3    H136457   3.123   5.153   8.496  0.2820 -0.6431  0.5701
 4966TIP3    H236458   3.118   5.222   8.631 -0.0492  0.7812 -0.1455
 4967TIP3   OH236459   0.479   5.964   7.658 -0.0780  0.1421  0.1783
 4967TIP3    H136460   0.515   6.022   7.591  2.2956 -0.8221  0.5139
 4967TIP3    H236461   0.488   6.014   7.739 -0.1799  0.1573  0.1809
 4968TIP3   OH236462   5.453   2.045   6.343 -0.5803  0.6570  0.0693
 4968TIP3    H136463   5.399   2.106   6.394 -0.8951  0.7922 -0.4166
 4968TIP3    H236464   5.488   2.099   6.272  0.3286  0.6087  0.4663
 4969TIP3   OH236465   4.915   2.267   0.613  0.1202 -0.5480  0.2922
 4969TIP3    H136466   4.824   2.247   0.638 -0.4972 -0.0811 -1.4886
 4969TIP3    H236467   4.943   2.191   0.562  1.1718 -1.2145  1.7636
 4970TIP3   OH236468   6.414   1.311   0.251  0.3974 -0.2005  0.1476
 4970TIP3    H136469   6.379   1.330   0.338 -0.1501  1.1875 -0.3430
 4970TIP3    H236470   6.339   1.274   0.204  0.4667 -0.1925  0.0319
 4971TIP3   OH236471   5.918   3.983   0.372 -0.4785 -0.2474 -0.1850
 4971TIP3    H136472   5.912   4.005   0.279  0.1664 -0.2292 -0.2246
 4971TIP3    H236473   6.012   3.980   0.390 -0.5999 -0.0399  0.5171
 4972TIP3   OH236474   1.246   5.605   8.514 -0.7550  0.7495 -0.0710
 4972TIP3    H136475   1.239   5.667   8.587 -1.9804  1.6653 -0.9460
 4972TIP3    H236476   1.326   5.631   8.468  0.2085 -0.0352  1.0841
 4973TIP3   OH236477   5.852   1.105   0.843  0.6421  0.1006  0.3822
 4973TIP3    H136478   5.922   1.043   0.824  0.0844  0.0355 -1.7563
 4973TIP3    H236479   5.771   1.056   0.825  0.1044  0.7038  1.0908
 4974TIP3   OH236480   2.880   6.190   0.002 -0.3178  0.2832  0.0656
 4974TIP3    H136481   2.885   6.275  -0.042 -0.6814  0.9106  1.2105
 4974TIP3    H236482   2.902   6.208   0.093  0.4404 -1.0079  0.1517
 4975TIP3   OH236483   6.062   3.174   1.227  0.4716 -0.0663 -0.4245
 4975TIP3    H136484   6.001   3.240   1.192  2.0255  1.2042 -0.8760
 4975TIP3    H236485   6.068   3.194   1.320 -1.9183 -2.0126  0.2458
 4976TIP3   OH236486   6.518   0.615   0.577  0.1101 -0.1579  0.3990
 4976TIP3    H136487   6.457   0.624   0.503 -0.8865  1.9641  1.4028
 4976TIP3    H236488   6.599   0.656   0.547  0.0974 -0.3428  0.1047
 4977TIP3   OH236489   4.228   0.994   7.760 -0.4562  0.3272 -0.7268
 4977TIP3    H136490   4.249   0.901   7.752 -0.3359  0.3226 -0.3811
 4977TIP3    H236491   4.297   1.030   7.815 -1.5103  0.2360  0.7307
 4978TIP3   OH236492   0.077   5.553   6.956 -0.4206 -0.0811  0.3007
 4978TIP3    H136493   0.129   5.587   6.885  1.4975 -2.9152  0.1848
 4978TIP3    H236494  -0.010   5.538   6.918  0.2993 -0.6308 -1.1591
 4979TIP3   OH236495   0.770   4.636   0.077 -0.2633  0.1000  0.4800
 4979TIP3    H136496   0.748   4.554   0.033 -2.5606 -1.5004  4.0752
 4979TIP3    H236497   0.702   4.697   0.048 -1.0721 -0.5918  0.8487
 4980TIP3   OH236498   0.532   4.393   7.439  0.2772 -0.3553 -0.0409
 4980TIP3    H136499   0.625   4.413   7.431  0.7255 -2.4303 -0.6058
 4980TIP3    H236500   0.489   4.457   7.382  1.3187  0.7677  0.3978
 4981TIP3   OH236501   4.299   0.471   8.616 -0.3231 -0.2017 -0.1801
 4981TIP3    H136502   4.375   0.443   8.666 -1.3302 -2.6336  0.1396
 4981TIP3    H236503   4.251   0.529   8.675  1.2657  1.4393 -0.4283
 4982TIP3   OH236504   1.911   4.657   8.012  0.1113 -0.1245  1.0159
 4982TIP3    H136505   1.893   4.656   8.106 -1.8824  2.5653  0.7683
 4982TIP3    H236506   1.975   4.726   8.000  0.1037 -0.2201  0.3671
 4983TIP3   OH236507   5.506   1.938   6.704  0.0168  0.0645  0.3167
 4983TIP3    H136508   5.464   2.023   6.691  0.4225  0.4832  1.6230
 4983TIP3    H236509   5.535   1.912   6.616 -1.7749  0.3719 -0.4220
 4984TIP3   OH236510   0.575   0.779   7.236  0.2411  0.1996 -0.4121
 4984TIP3    H136511   0.606   0.693   7.206 -0.3426 -0.2912  0.3548
 4984TIP3    H236512   0.604   0.785   7.327  0.8268  1.0981 -0.6434
 4985TIP3   OH236513   5.410   0.149   1.068 -0.7158 -0.1610 -0.2130
 4985TIP3    H136514   5.318   0.176   1.063 -1.3360 -2.1758 -0.7557
 4985TIP3    H236515   5.435   0.165   1.159 -1.0295  2.0495 -0.4699
 4986TIP3   OH236516   0.610   4.791   1.087  0.2421  0.1790  0.1303
 4986TIP3    H136517   0.689   4.788   1.141  0.6628  0.6597 -0.4604
 4986TIP3    H236518   0.639   4.826   1.003 -0.1446 -1.7761 -0.8773
 4987TIP3   OH236519   0.902   1.667   0.646  0.3329 -0.5918 -0.9468
 4987TIP3    H136520   0.917   1.748   0.598 -0.4647  1.0575  1.4021
 4987TIP3    H236521   0.985   1.649   0.690  0.0062 -0.0320 -0.0772
 4988TIP3   OH236522   1.601   2.802   1.042  0.0616  0.2986  0.1929
 4988TIP3    H136523   1.631   2.784   0.953  0.5191  0.2190  0.3592
 4988TIP3    H236524   1.681   2.805   1.094 -0.0820  1.8043  0.3591
 4989TIP3   OH236525   1.976   2.993   6.780  0.2128  0.3688  0.0830
 4989TIP3    H136526   1.985   2.902   6.752  0.4851  1.2683 -3.1821
 4989TIP3    H236527   1.907   2.991   6.846 -1.4711 -1.9737 -1.5511
 4990TIP3   OH236528   4.577   3.535   7.423 -0.6154  0.0427 -0.1918
 4990TIP3    H136529   4.494   3.506   7.387 -0.9338  2.0806 -1.2989
 4990TIP3    H236530   4.611   3.460   7.471 -3.4528 -0.6066  0.9596
 4991TIP3   OH236531   2.556   3.768   0.817  0.1454  1.0207 -0.0699
 4991TIP3    H136532   2.491   3.711   0.776 -0.1749  1.1666  0.2328
 4991TIP3    H236533   2.587   3.824   0.745 -0.0760  0.9639 -0.2091
 4992TIP3   OH236534   1.912   2.565   6.778 -0.2893 -0.0292 -0.5777
 4992TIP3    H136535   1.831   2.613   6.764 -1.2500 -1.5003 -0.3013
 4992TIP3    H236536   1.961   2.575   6.696 -1.0576  0.2959 -0.9979
 4993TIP3   OH236537   0.294   6.725   0.320 -0.3233  0.3560 -0.1387
 4993TIP3    H136538   0.349   6.654   0.354 -0.7827  0.2938  0.4844
 4993TIP3    H236539   0.356   6.793   0.293  0.1969 -0.6971 -1.7674
 4994TIP3   OH236540   4.401   3.320   8.562  0.0249  0.0338  0.2697
 4994TIP3    H136541   4.349   3.320   8.482 -2.6091  2.1745  1.7922
 4994TIP3    H236542   4.424   3.412   8.575  0.8055 -0.3395  1.7014
 4995TIP3   OH236543   4.951   5.743   1.850 -0.1003  0.4871  0.3029
 4995TIP3    H136544   4.994   5.758   1.766 -2.4802 -0.5321 -1.2257
 4995TIP3    H236545   5.007   5.679   1.894  0.5382  0.0166 -1.1112
 4996TIP3   OH236546   1.946   2.242   8.509 -0.1809  0.9139 -0.2815
 4996TIP3    H136547   1.928   2.170   8.569  0.9760  2.3924  2.0196
 4996TIP3    H236548   2.011   2.208   8.448 -1.1112 -0.5329 -0.5005
 4997TIP3   OH236549   6.041   2.786   7.166 -0.2863 -0.1906  0.0355
 4997TIP3    H136550   6.089   2.703   7.168 -0.3368 -0.2160  1.7502
 4997TIP3    H236551   6.108   2.852   7.146 -0.0986 -0.5387 -0.5072
 4998TIP3   OH236552   2.339   6.016   7.594 -0.0029  0.3366  0.4696
 4998TIP3    H136553   2.290   6.025   7.676  0.8848 -0.5944  1.1319
 4998TIP3    H236554   2.430   6.010   7.622  0.1888 -1.8409 -0.4194
 4999TIP3   OH236555   0.376   4.833   8.639  0.1403  0.7689  0.5763
 4999TIP3    H136556   0.425   4.810   8.718  2.4711  0.9836 -0.6892
 4999TIP3    H236557   0.293   4.868   8.671  0.7568  0.3084  2.8864
 5000TIP3   OH236558   2.430   4.348   1.119 -0.1850 -0.7484  0.1291
 5000TIP3    H136559   2.334   4.345   1.118 -0.2796  0.6863  1.5794
 5000TIP3    H236560   2.455   4.288   1.189  0.0733 -2.0158 -1.0018
 5001TIP3   OH236561   1.593   3.139   8.822  0.3689 -0.1061  0.8000
 5001TIP3    H136562   1.601   3.053   8.781  3.1012  1.2605 -1.9677
 5001TIP3    H236563   1.646   3.133   8.901 -0.0806 -1.1676  1.0315
 5002TIP3   OH236564   1.335   0.697   8.276 -0.3104  0.4871 -0.2678
 5002TIP3    H136565   1.315   0.609   8.308  3.1564 -0.1942  0.3483
 5002TIP3    H236566   1.257   0.722   8.225 -1.6737 -2.6150  0.0715
 5003TIP3   OH236567   3.160   0.053   7.019 -0.2268 -0.3135  0.6161
 5003TIP3    H136568   3.194  -0.029   6.985  0.3874 -0.3258  1.2330
 5003TIP3    H236569   3.213   0.121   6.977  0.5727 -0.3309  1.5407
 5004TIP3   OH236570   5.482   4.629   7.611 -0.2097  0.2804  0.1888
 5004TIP3    H136571   5.404   4.657   7.659 -0.5768 -0.1258 -0.1657
 5004TIP3    H236572   5.530   4.575   7.674 -0.7569 -0.3634  0.0610
 5005TIP3   OH236573   2.723   0.732   8.624  0.0388  0.1696  0.0986
 5005TIP3    H136574   2.635   0.745   8.589  0.3222  0.7634 -0.4060
 5005TIP3    H236575   2.709   0.710   8.716 -0.6891 -0.9534 -0.2641
 5006TIP3   OH236576   2.476   2.898   7.710  0.2023  0.5715 -0.0059
 5006TIP3    H136577   2.546   2.900   7.644 -0.8232 -1.6843 -1.2945
 5006TIP3    H236578   2.507   2.836   7.776 -0.4031 -0.1844 -0.4131
 5007TIP3   OH236579   3.813   5.645   7.090  0.1638  0.9129  0.0191
 5007TIP3    H136580   3.740   5.706   7.087 -1.4831 -0.7516  2.5435
 5007TIP3    H236581   3.841   5.646   7.182 -0.2732 -2.3838  0.3161
 5008TIP3   OH236582   5.948   0.056   8.029 -0.1865  0.1389 -0.0588
 5008TIP3    H136583   5.952   0.052   8.125 -1.0555 -1.0074 -0.0441
 5008TIP3    H236584   5.986   0.141   8.007  0.5270  0.1920  1.2671
 5009TIP3   OH236585   4.429   4.862   0.952 -0.3274 -1.1482 -0.1935
 5009TIP3    H136586   4.363   4.802   0.986  1.2364 -1.9759  1.5520
 5009TIP3    H236587   4.511   4.814   0.958  0.9420  0.9745  0.9164
 5010TIP3   OH236588   1.478   1.213   1.905  0.2843  0.0437  0.4805
 5010TIP3    H136589   1.551   1.197   1.965  0.7663  0.4756  0.0252
 5010TIP3    H236590   1.437   1.293   1.937  1.2781  0.9633 -0.4228
 5011TIP3   OH236591   4.247   4.953   1.854 -0.0715 -0.0865 -0.7228
 5011TIP3    H136592   4.313   4.887   1.877 -0.2434 -0.0484 -0.0805
 5011TIP3    H236593   4.177   4.903   1.812 -0.0463 -0.2665 -0.5546
 5012TIP3   OH236594   0.340   1.733   8.743  0.2967 -0.3957  0.2338
 5012TIP3    H136595   0.294   1.817   8.742 -1.4516 -1.2951  0.4796
 5012TIP3    H236596   0.420   1.750   8.791 -1.0490  0.6556  2.2357
 5013TIP3   OH236597   1.062   3.429   7.043 -0.2129 -0.2013  0.2730
 5013TIP3    H136598   1.044   3.504   6.986 -0.4053 -0.4002  0.0730
 5013TIP3    H236599   1.088   3.359   6.984 -0.3921 -0.4012  0.4307
 5014TIP3   OH236600   4.005   0.411   2.045  0.0822  0.7022  0.0619
 5014TIP3    H136601   4.017   0.495   2.002  1.6810  0.9195  0.8705
 5014TIP3    H236602   3.915   0.414   2.078  0.4273  2.5167  0.9618
 5015TIP3   OH236603   2.070   4.727   7.568 -0.1674  0.2105 -0.2425
 5015TIP3    H136604   1.979   4.736   7.596 -0.2353 -2.4230  0.5937
 5015TIP3    H236605   2.069   4.654   7.506  1.1745  1.1177 -1.3989
 5016TIP3   OH236606   4.919   6.522   8.856  0.3274 -0.0401  0.3057
 5016TIP3    H136607   4.833   6.482   8.843  0.3160  0.4295 -1.2320
 5016TIP3    H236608   4.901   6.599   8.911 -0.5560  1.0946 -1.4732
 5017TIP3   OH236609   0.431   5.961   8.627  0.1021  0.1419  0.0099
 5017TIP3    H136610   0.513   5.919   8.599  1.6219  2.0590  1.3078
 5017TIP3    H236611   0.399   6.004   8.547  1.6016  1.2131 -0.0766
 5018TIP3   OH236612   1.302   3.645   2.121 -0.3901  0.1688 -0.5068
 5018TIP3    H136613   1.312   3.555   2.089 -1.5948  0.0000 -0.4550
 5018TIP3    H236614   1.235   3.639   2.189 -0.3910  1.0911 -0.4191
 5019TIP3   OH236615   6.411   3.798   7.626 -0.3503  0.7652  0.3074
 5019TIP3    H136616   6.346   3.836   7.566  0.7770  1.7870 -0.3109
 5019TIP3    H236617   6.494   3.839   7.601  0.3536  0.3442  1.8168
 5020TIP3   OH236618   6.397   3.749   0.446 -0.7030  0.7054  0.4150
 5020TIP3    H136619   6.319   3.694   0.455  0.4113 -1.3950 -1.6816
 5020TIP3    H236620   6.399   3.801   0.526 -2.0597 -2.0563  2.4051
 5021TIP3   OH236621   1.837   3.020   6.544 -0.3530 -0.2538 -0.2105
 5021TIP3    H136622   1.858   2.994   6.455 -0.4482  0.0891 -0.3367
 5021TIP3    H236623   1.920   3.015   6.591 -0.4769 -1.3284 -0.0897
 5022TIP3   OH236624   1.675   1.300   1.671  0.3168 -0.5592  0.3603
 5022TIP3    H136625   1.636   1.270   1.589 -0.2005  0.0656  0.3654
 5022TIP3    H236626   1.600   1.318   1.727  0.6362  0.0041  0.6152
 5023TIP3   OH236627   4.895   1.950   0.161 -0.4963  0.2952  0.1199
 5023TIP3    H136628   4.813   1.917   0.126  0.0411 -0.0136 -0.8971
 5023TIP3    H236629   4.894   2.044   0.143 -0.7004  0.3213  0.2691
 5024TIP3   OH236630   3.487   5.541   2.329  0.1176  0.4685  0.3488
 5024TIP3    H136631   3.465   5.448   2.328  0.3680  0.4117 -0.3028
 5024TIP3    H236632   3.578   5.544   2.359  1.0452  0.2718 -2.2114
 5025TIP3   OH236633   0.257   4.367   0.399 -0.3310 -0.4047 -0.4232
 5025TIP3    H136634   0.303   4.309   0.461  0.8976  1.6693  0.7102
 5025TIP3    H236635   0.165   4.352   0.417 -0.0150 -0.8879  0.9358
 5026TIP3   OH236636   4.682   5.838   8.228 -0.6589  0.1165 -0.1408
 5026TIP3    H136637   4.691   5.826   8.322  0.7612 -0.4088 -0.3257
 5026TIP3    H236638   4.747   5.780   8.189 -0.1572  1.4374 -1.3955
 5027TIP3   OH236639   0.707   1.847   1.467 -0.2857  0.0759  0.0947
 5027TIP3    H136640   0.657   1.781   1.515 -2.6535  1.9790  0.4327
 5027TIP3    H236641   0.708   1.923   1.526 -1.6869  1.8671 -2.0290
 5028TIP3   OH236642   3.663   0.380   2.521  0.5733  0.0917 -0.0239
 5028TIP3    H136643   3.729   0.441   2.553  1.0685  0.5802 -1.8480
 5028TIP3    H236644   3.631   0.420   2.440  0.0535 -1.4824 -0.6330
 5029TIP3   OH236645   0.813   6.613   0.871  0.6551 -0.2695  0.1094
 5029TIP3    H136646   0.723   6.636   0.893  0.2602  0.1342 -1.7463
 5029TIP3    H236647   0.816   6.518   0.879  0.1411 -0.2624  0.4349
 5030TIP3   OH236648   2.179   4.847   6.796  0.0532 -0.1726 -0.3979
 5030TIP3    H136649   2.096   4.892   6.781 -0.4505 -0.3564  1.5327
 5030TIP3    H236650   2.197   4.801   6.714  0.2695  2.9433 -2.2420
 5031TIP3   OH236651   6.503   5.319   8.214  0.4148 -0.0156  0.3724
 5031TIP3    H136652   6.412   5.298   8.193  0.4979  1.2620 -1.5418
 5031TIP3    H236653   6.554   5.275   8.146  1.0508  0.8881  0.2470
 5032TIP3   OH236654   0.790   5.780   6.554 -0.0928  0.4467  0.5027
 5032TIP3    H136655   0.830   5.693   6.558 -0.1623  0.4441  1.1944
 5032TIP3    H236656   0.798   5.805   6.462  0.9725  0.1892  0.5035
 5033TIP3   OH236657   4.442   1.063   7.906 -0.6927 -0.0789 -0.0513
 5033TIP3    H136658   4.457   1.141   7.852 -0.3543  1.1343  1.6952
 5033TIP3    H236659   4.519   1.059   7.963 -1.2929 -0.9730  0.7259
 5034TIP3   OH236660   4.781   5.775   0.153 -0.4337  0.0661 -0.3250
 5034TIP3    H136661   4.822   5.850   0.194 -0.4218  0.5123 -1.1309
 5034TIP3    H236662   4.798   5.702   0.212 -1.1407  0.8441  0.8698
 5035TIP3   OH236663   3.109   6.074   1.260 -0.6260  0.1268 -0.0301
 5035TIP3    H136664   3.054   6.041   1.331 -0.5807 -1.8186 -0.8499
 5035TIP3    H236665   3.187   6.019   1.262  0.0725  1.0665 -0.6158
 5036TIP3   OH236666   5.284   0.985   0.173  0.4104 -0.3357 -0.0888
 5036TIP3    H136667   5.303   0.956   0.263  1.0275  0.9099  0.2036
 5036TIP3    H236668   5.341   0.930   0.118  1.1372 -0.1019  0.4051
 5037TIP3   OH236669   0.784   1.557   8.091 -0.0887 -0.4115  0.1153
 5037TIP3    H136670   0.819   1.592   8.173  0.4285 -1.9401  0.5820
 5037TIP3    H236671   0.751   1.634   8.044 -0.2573  0.5147  1.6765
 5038TIP3   OH236672   4.770   2.601   0.957  0.0643  0.2203 -0.1387
 5038TIP3    H136673   4.709   2.630   1.025 -0.6496  0.0285 -0.6951
 5038TIP3    H236674   4.819   2.529   0.998 -0.0829  0.3638  0.2997
 5039TIP3   OH236675   4.850   1.611   7.819  0.6253  0.6845  0.0567
 5039TIP3    H136676   4.793   1.608   7.896  2.2469 -1.3665  1.2714
 5039TIP3    H236677   4.879   1.703   7.815 -2.6976  1.8375 -0.6896
 5040TIP3   OH236678   1.027   2.531   6.530  0.2098 -0.0606 -0.5870
 5040TIP3    H136679   1.078   2.598   6.577  1.8159 -2.3821  1.2462
 5040TIP3    H236680   0.936   2.551   6.553  0.3998  2.5837 -1.7123
 5041TIP3   OH236681   6.052   0.529   7.066 -0.1285 -0.0014  0.3889
 5041TIP3    H136682   6.128   0.578   7.097  0.2540 -0.4725  0.2119
 5041TIP3    H236683   6.008   0.589   7.006  0.4755  0.0419 -0.0220
 5042TIP3   OH236684   1.782   4.935   7.937  0.1439  0.1008 -0.0660
 5042TIP3    H136685   1.850   4.881   7.977 -0.9681 -0.9927  0.4001
 5042TIP3    H236686   1.830   5.009   7.899  1.6126 -0.7536  0.0425
 5043TIP3   OH236687   3.923   5.351   2.071  0.1612  0.1460 -0.6327
 5043TIP3    H136688   4.008   5.348   2.115  0.4032  0.9966 -1.0269
 5043TIP3    H236689   3.873   5.416   2.121 -0.2565 -0.3464 -0.4056
 5044TIP3   OH236690   3.746   6.496   0.657  0.5111  0.3608 -0.2950
 5044TIP3    H136691   3.667   6.513   0.708  0.0021  2.7841 -1.6959
 5044TIP3    H236692   3.813   6.552   0.697  0.7212  0.4973 -0.8275
 5045TIP3   OH236693   5.820   4.473   7.110 -0.0508  0.1380  0.3692
 5045TIP3    H136694   5.773   4.547   7.148  0.3642  0.8447 -0.4594
 5045TIP3    H236695   5.860   4.508   7.031  0.0845 -0.9969 -0.0898
 5046TIP3   OH236696   6.152   2.024   8.391  0.2653  0.5548 -0.1021
 5046TIP3    H136697   6.232   2.014   8.339 -0.7897  0.0621 -1.6994
 5046TIP3    H236698   6.179   2.078   8.466  2.2254 -0.1375 -0.2486
 5047TIP3   OH236699   5.825   0.762   1.420 -0.0538  0.6662  0.5395
 5047TIP3    H136700   5.892   0.729   1.360 -0.6566  1.1313 -0.4206
 5047TIP3    H236701   5.859   0.744   1.508  1.9815  2.1170  0.1250
 5048TIP3   OH236702   2.944   3.543   0.861 -0.3216 -0.4108 -1.2177
 5048TIP3    H136703   2.889   3.535   0.783 -1.0135 -1.2662 -0.6571
 5048TIP3    H236704   3.016   3.600   0.833  0.1390 -1.7049 -2.8650
 5049TIP3   OH236705   2.504   4.217   8.003  0.0665 -0.2292  0.0533
 5049TIP3    H136706   2.458   4.298   7.979  3.3037  1.3633 -1.4615
 5049TIP3    H236707   2.502   4.164   7.924  0.2433 -0.4410  0.1889
 5050TIP3   OH236708   4.480   3.669   0.745 -0.5014  0.3127 -0.0049
 5050TIP3    H136709   4.395   3.638   0.777 -0.6398  0.0329 -0.6146
 5050TIP3    H236710   4.543   3.608   0.782 -0.6075  0.3005  0.1552
 5051TIP3   OH236711   5.070   2.772   1.111 -0.5468  0.0356  0.1730
 5051TIP3    H136712   5.131   2.804   1.046 -0.3605  0.7005  0.6671
 5051TIP3    H236713   5.004   2.841   1.120  0.4469  0.8202  2.0226
 5052TIP3   OH236714   1.226   0.154   1.954 -0.3069  0.1785 -0.3452
 5052TIP3    H136715   1.172   0.216   2.004  0.1234  2.8032 -2.8419
 5052TIP3    H236716   1.178   0.140   1.872  2.0867  1.7344 -2.1805
 5053TIP3   OH236717   3.313   0.601   0.243 -0.0767  0.0352 -0.0731
 5053TIP3    H136718   3.241   0.662   0.229  0.1923 -0.0011 -1.8521
 5053TIP3    H236719   3.376   0.651   0.295 -1.6122 -0.1531  2.0841
 5054TIP3   OH236720   3.419   2.846   7.590 -0.1819 -0.0255  0.0491
 5054TIP3    H136721   3.395   2.764   7.635 -0.3651 -1.2363 -2.0954
 5054TIP3    H236722   3.513   2.839   7.575 -0.3194 -0.1743 -0.7571
 5055TIP3   OH236723   1.248   5.804   1.482 -0.0476  0.6857 -0.4656
 5055TIP3    H136724   1.209   5.807   1.569  1.1871 -0.7371  0.1826
 5055TIP3    H236725   1.174   5.798   1.422 -0.8842  0.5525  0.5584
 5056TIP3   OH236726   3.665   2.193   8.547 -0.0502  0.2664  0.3648
 5056TIP3    H136727   3.744   2.247   8.547  1.0187 -1.2244  1.3182
 5056TIP3    H236728   3.696   2.104   8.565 -1.8926 -0.4630  0.2218
 5057TIP3   OH236729   0.302   5.779   0.363 -0.1991  0.0233  0.1517
 5057TIP3    H136730   0.326   5.687   0.373 -0.7555 -0.0070  1.4515
 5057TIP3    H236731   0.248   5.781   0.284  0.4390 -0.6304 -0.3093
 5058TIP3   OH236732   0.453   3.058   0.379 -0.5276  0.1012 -0.8295
 5058TIP3    H136733   0.495   3.099   0.455  4.0546 -0.9691 -2.4573
 5058TIP3    H236734   0.456   2.964   0.399  0.1926 -0.1419 -2.0029
 5059TIP3   OH236735   3.710   4.868   1.096  0.2039 -0.6126  0.5230
 5059TIP3    H136736   3.739   4.949   1.139 -2.1598  0.6475 -0.0842
 5059TIP3    H236737   3.620   4.856   1.126 -0.4588 -1.4379 -1.5980
 5060TIP3   OH236738   0.081   0.504   7.773  0.0279  0.0260  0.2885
 5060TIP3    H136739   0.050   0.414   7.770  1.4863 -0.6416  2.7898
 5060TIP3    H236740   0.036   0.543   7.847  0.3159  1.0156 -0.0408
 5061TIP3   OH236741   4.261   2.849   7.210  0.2760 -0.2018 -0.1527
 5061TIP3    H136742   4.315   2.770   7.204  1.2780  0.5011 -0.6259
 5061TIP3    H236743   4.237   2.855   7.303  1.6485 -0.1208  0.2198
 5062TIP3   OH236744   4.809   3.199   1.587  0.1522  0.0750 -0.2375
 5062TIP3    H136745   4.729   3.203   1.534  0.4371  0.0901 -0.6737
 5062TIP3    H236746   4.857   3.278   1.562  0.8598 -0.5497 -0.8862
 5063TIP3   OH236747   1.406   3.263   8.329  0.4660 -0.3371 -0.3644
 5063TIP3    H136748   1.402   3.198   8.259  1.6280 -1.7075  0.7670
 5063TIP3    H236749   1.479   3.234   8.384  1.2123  2.0921  0.0547
 5064TIP3   OH236750   1.415   2.298   0.591 -0.4602 -0.2284  0.1330
 5064TIP3    H136751   1.322   2.280   0.604 -0.7135  1.7185  1.4713
 5064TIP3    H236752   1.441   2.347   0.669  1.5333 -0.1372 -0.5357
 5065TIP3   OH236753   0.498   2.996   0.116  0.4220 -0.4241  0.6620
 5065TIP3    H136754   0.476   3.036   0.200 -0.2087  0.6061  0.0235
 5065TIP3    H236755   0.455   3.051   0.051  0.8530 -1.2395 -0.3419
 5066TIP3   OH236756   0.851   5.349   7.615 -0.2833  0.5608  0.4524
 5066TIP3    H136757   0.865   5.394   7.532  1.9204 -3.3151 -1.5171
 5066TIP3    H236758   0.760   5.320   7.612 -0.4675  1.1759 -0.1450
 5067TIP3   OH236759   3.434   0.983   1.585 -0.5212  0.1672  0.9799
 5067TIP3    H136760   3.372   0.981   1.658  0.7234  2.0057  2.2010
 5067TIP3    H236761   3.397   0.924   1.520 -1.8526 -1.3441  2.9668
 5068TIP3   OH236762   1.803   6.426   8.773  0.3193  0.4535 -0.3530
 5068TIP3    H136763   1.755   6.453   8.695 -0.2899 -0.0380 -0.1559
 5068TIP3    H236764   1.881   6.382   8.739 -0.4485 -0.6770 -0.7129
 5069TIP3   OH236765   4.948   4.821   6.948 -0.1544  0.3439 -0.1665
 5069TIP3    H136766   4.878   4.789   7.004  0.0768 -0.1708 -0.1659
 5069TIP3    H236767   4.905   4.879   6.886 -0.5396  0.2409  0.0024
 5070TIP3   OH236768   5.719   3.743   0.051 -0.1497  0.5910 -0.8918
 5070TIP3    H136769   5.661   3.743  -0.026  0.4012  1.2202 -1.3180
 5070TIP3    H236770   5.771   3.823   0.041  1.6633 -0.5611 -1.1677
 5071TIP3   OH236771   4.540   4.621   2.110  0.2511 -0.3398  0.3231
 5071TIP3    H136772   4.617   4.666   2.076 -0.3976 -0.1043 -0.8804
 5071TIP3    H236773   4.568   4.587   2.195  0.8183  2.1534  1.2076
 5072TIP3   OH236774   1.711   5.305   8.209  0.0489 -0.1813  0.0877
 5072TIP3    H136775   1.671   5.231   8.162  0.3293 -0.7647  0.7531
 5072TIP3    H236776   1.759   5.353   8.141 -1.2902  0.2139 -0.6199
 5073TIP3   OH236777   4.452   4.301   7.771  0.0604 -0.3375 -0.7941
 5073TIP3    H136778   4.471   4.233   7.835  1.1747  0.7747  0.1110
 5073TIP3    H236779   4.531   4.355   7.769 -1.2355  1.6798 -0.5138
 5074TIP3   OH236780   2.455   0.677   8.054  0.3696 -0.3138  0.2203
 5074TIP3    H136781   2.527   0.740   8.057 -0.3276  0.5719 -0.6656
 5074TIP3    H236782   2.435   0.668   7.961 -1.0745 -0.0157  0.4728
 5075TIP3   OH236783   3.977   4.806   7.008 -0.4969  0.6712  0.0588
 5075TIP3    H136784   3.908   4.829   6.946 -0.5025  1.1347  0.2354
 5075TIP3    H236785   3.952   4.719   7.040 -0.0037  0.0195 -1.2740
 5076TIP3   OH236786   4.452   4.400   1.543 -0.5789 -0.1081 -0.5236
 5076TIP3    H136787   4.528   4.355   1.581 -0.7746  1.6240  2.2073
 5076TIP3    H236788   4.420   4.341   1.475  3.4509 -0.7254 -2.1566
 5077TIP3   OH236789   1.760   3.450   7.945  0.2325  0.0101  0.1584
 5077TIP3    H136790   1.821   3.483   7.879  1.2919 -3.2064 -0.6728
 5077TIP3    H236791   1.696   3.399   7.895  1.4590 -3.0804  1.4854
 5078TIP3   OH236792   0.192   0.516   1.910 -0.2411 -0.1737 -0.1738
 5078TIP3    H136793   0.145   0.599   1.920  0.9534  0.7464 -1.7819
 5078TIP3    H236794   0.285   0.540   1.916  0.1261 -1.3674 -0.8657
 5079TIP3   OH236795   3.053   4.833   1.573 -0.3798  0.2281  0.5455
 5079TIP3    H136796   3.043   4.897   1.503 -2.4760  0.4325  0.9448
 5079TIP3    H236797   3.073   4.885   1.651  0.4490  0.1475  0.3873
 5080TIP3   OH236798   3.562   3.303   7.585  0.3893 -0.4848  0.1150
 5080TIP3    H136799   3.511   3.236   7.539  1.2846 -0.6771 -0.6354
 5080TIP3    H236800   3.653   3.281   7.565  0.7863 -0.2016  1.4890
 5081TIP3   OH236801   1.325   6.195   1.549 -0.7951 -0.2167  0.1554
 5081TIP3    H136802   1.262   6.157   1.487 -0.7891 -0.2517  0.1707
 5081TIP3    H236803   1.303   6.288   1.553 -1.6906 -0.4451  1.1401
 5082TIP3   OH236804   3.044   0.747   8.614  0.6446  0.3178 -0.1325
 5082TIP3    H136805   3.046   0.656   8.645 -0.5003 -1.1315 -3.7978
 5082TIP3    H236806   2.952   0.764   8.594  1.1191  1.5061 -1.5073
 5083TIP3   OH236807   2.292   4.878   7.648 -0.0133 -0.3512 -0.0825
 5083TIP3    H136808   2.218   4.830   7.612  1.3806 -2.2436 -0.5681
 5083TIP3    H236809   2.329   4.925   7.574 -1.5430  1.8278  0.4454
 5084TIP3   OH236810   5.570   0.895   2.290  0.0379  0.2282  0.0999
 5084TIP3    H136811   5.629   0.954   2.244 -1.7253  1.7231 -0.3758
 5084TIP3    H236812   5.494   0.950   2.312 -1.9630 -1.9613 -0.8765
 5085TIP3   OH236813   5.252   4.992   1.241  0.0804  0.2929 -0.5962
 5085TIP3    H136814   5.296   4.992   1.326  0.0708  0.7063 -0.5890
 5085TIP3    H236815   5.185   4.925   1.248 -2.9452  3.2064  1.2910
 5086TIP3   OH236816   1.562   1.688   0.513  0.0819  0.3662  0.5035
 5086TIP3    H136817   1.556   1.609   0.566 -0.5700 -0.4770 -0.7704
 5086TIP3    H236818   1.573   1.759   0.577 -0.8514 -0.5715  1.7668
 5087TIP3   OH236819   4.069   1.157   1.404  0.0041 -0.3548  0.2917
 5087TIP3    H136820   4.126   1.151   1.481  1.5646 -1.7706 -0.8977
 5087TIP3    H236821   4.122   1.200   1.337 -0.8179 -0.4388 -0.4399
 5088TIP3   OH236822   6.792   4.447   7.044 -0.3178  0.0704  0.1212
 5088TIP3    H136823   6.713   4.500   7.057 -1.0128 -0.9319  0.0260
 5088TIP3    H236824   6.835   4.486   6.968 -1.1887  0.0581 -0.3792
 5089TIP3   OH236825   5.020   3.257   6.714 -0.2767  0.1264 -0.0005
 5089TIP3    H136826   5.106   3.293   6.690 -0.2445  0.1069  0.0848
 5089TIP3    H236827   4.957   3.311   6.665 -0.3081  1.1599  1.1306
 5090TIP3   OH236828   3.606   1.597   1.968  0.0042  0.4341 -0.1458
 5090TIP3    H136829   3.689   1.549   1.965 -0.4891 -0.3625 -1.8518
 5090TIP3    H236830   3.549   1.551   1.908 -0.5996  2.9752 -1.6573
 5091TIP3   OH236831   6.797   2.680   7.746 -0.3318 -0.3965 -0.0796
 5091TIP3    H136832   6.883   2.659   7.711  0.7898 -0.0066  2.2499
 5091TIP3    H236833   6.795   2.640   7.833 -0.2557  3.9888  2.2522
 5092TIP3   OH236834   5.869   2.579   1.072 -0.3047  0.3428  0.5390
 5092TIP3    H136835   5.892   2.553   1.162 -0.8168 -0.4066  0.4657
 5092TIP3    H236836   5.827   2.501   1.035  2.5283 -0.4260 -1.3417
 5093TIP3   OH236837   5.256   0.581   1.397  0.2332 -0.3235  0.1266
 5093TIP3    H136838   5.284   0.581   1.489 -1.2240  0.9592  0.6223
 5093TIP3    H236839   5.286   0.666   1.364 -0.0827 -0.3723 -0.2884
 5094TIP3   OH236840   4.685   4.786   6.978 -1.1824  0.1965  0.1463
 5094TIP3    H136841   4.684   4.758   6.886 -0.5550 -0.5174  0.3433
 5094TIP3    H236842   4.617   4.854   6.983 -0.1527  1.3980 -1.1964
 5095TIP3   OH236843   6.016   0.465   8.703  0.0670 -0.0603  0.2612
 5095TIP3    H136844   6.089   0.447   8.762  0.5197  2.3219  0.5296
 5095TIP3    H236845   5.943   0.486   8.760  0.2112  1.1618  0.0433
 5096TIP3   OH236846   3.721   1.381   7.420 -0.0447  0.1064  0.0841
 5096TIP3    H136847   3.651   1.316   7.432  0.5027 -0.0487  3.3768
 5096TIP3    H236848   3.686   1.461   7.458  1.7011 -0.1581  2.4924
 5097TIP3   OH236849   6.147   2.073   2.060  0.3032  0.2653  0.4235
 5097TIP3    H136850   6.078   2.125   2.101 -0.0839 -0.3756  0.5950
 5097TIP3    H236851   6.151   1.993   2.113  1.5004  0.4912  0.7047
 5098TIP3   OH236852   2.605   6.073   7.658  0.0565  0.5936 -0.7602
 5098TIP3    H136853   2.655   6.148   7.623  1.5986  0.1779  0.4277
 5098TIP3    H236854   2.664   6.034   7.722 -1.5843 -0.3474  0.2274
 5099TIP3   OH236855   3.015   2.929   7.774  0.4986 -0.3152  0.1415
 5099TIP3    H136856   2.978   2.983   7.844  0.6780 -0.5268  0.4018
 5099TIP3    H236857   3.031   2.990   7.702 -0.3983 -0.2279  0.0060
 5100TIP3   OH236858   5.223   0.968   8.652  0.6715  0.3403 -0.2247
 5100TIP3    H136859   5.244   1.047   8.602 -1.5858  0.4407 -1.1426
 5100TIP3    H236860   5.142   0.990   8.698  0.1199 -1.3422 -0.3204
 5101TIP3   OH236861   3.814   0.923   0.599  0.1230  0.1951 -0.0913
 5101TIP3    H136862   3.742   0.974   0.635 -0.3365 -0.2412 -0.3729
 5101TIP3    H236863   3.821   0.952   0.508 -1.9723 -2.1410 -1.0998
 5102TIP3   OH236864   2.259   3.255   8.509 -0.1850 -0.5923 -0.0021
 5102TIP3    H136865   2.175   3.294   8.529 -0.2815  0.3278 -1.9588
 5102TIP3    H236866   2.280   3.287   8.421  1.9986 -1.1462  0.2612
 5103TIP3   OH236867   1.407   1.108   8.234  0.2035 -0.1331 -1.1164
 5103TIP3    H136868   1.465   1.132   8.306 -0.3348 -1.9691 -0.0007
 5103TIP3    H236869   1.452   1.037   8.189 -1.0481 -1.4551 -0.3487
 5104TIP3   OH236870   6.327   0.592   7.090  0.1569  0.0326 -0.3395
 5104TIP3    H136871   6.313   0.499   7.076  0.4991 -0.0632 -0.0393
 5104TIP3    H236872   6.421   0.600   7.109 -0.0783  0.3118  0.7188
 5105TIP3   OH236873   5.475   0.181   7.808 -0.1425  0.1962 -0.5954
 5105TIP3    H136874   5.559   0.194   7.765  0.8645  0.2530  1.2597
 5105TIP3    H236875   5.475   0.089   7.832 -0.5730  0.2198 -0.5013
 5106TIP3   OH236876   6.799   2.485   0.683  0.0829 -0.4029 -0.3006
 5106TIP3    H136877   6.871   2.453   0.738  0.0041 -1.5879 -0.8626
 5106TIP3    H236878   6.841   2.512   0.602  0.5258  3.4493  0.9857
 5107TIP3   OH236879   2.872   3.639   1.103  0.1491  0.0419  0.0200
 5107TIP3    H136880   2.778   3.620   1.109 -0.0043  0.7692  0.0238
 5107TIP3    H236881   2.899   3.600   1.020 -0.6746  1.8927 -1.1711
 5108TIP3   OH236882   2.280   5.249   0.489 -0.1119  0.1935 -0.2881
 5108TIP3    H136883   2.335   5.182   0.450  1.2629 -2.1618  4.8158
 5108TIP3    H236884   2.191   5.224   0.466  0.5644 -0.7854 -2.0067
 5109TIP3   OH236885   2.094   5.738   7.303 -0.1829 -0.2708 -0.2178
 5109TIP3    H136886   2.119   5.718   7.394  1.1570  1.3750 -0.1681
 5109TIP3    H236887   2.026   5.804   7.312 -1.5816 -1.6129 -0.4364
 5110TIP3   OH236888   3.021   2.822   1.025  0.3888  0.2071 -0.9324
 5110TIP3    H136889   3.027   2.912   1.055  1.8838  0.9581 -3.2363
 5110TIP3    H236890   2.930   2.796   1.042  0.6224  1.0751  2.4129
 5111TIP3   OH236891   5.326   2.151   7.390  0.3802 -0.1278  0.2347
 5111TIP3    H136892   5.264   2.081   7.371 -0.9944  1.7170 -2.8339
 5111TIP3    H236893   5.384   2.153   7.314  0.5089  1.8520  0.3223
 5112TIP3   OH236894   5.834   5.900   0.735 -0.2671  0.3026  0.6831
 5112TIP3    H136895   5.778   5.954   0.791  0.1360 -0.9659  2.3975
 5112TIP3    H236896   5.915   5.890   0.785  0.9979  0.8885 -1.1057
 5113TIP3   OH236897   4.156   1.343   7.434 -0.5793  0.6247  0.5837
 5113TIP3    H136898   4.167   1.249   7.423 -2.1551  0.5720 -0.9806
 5113TIP3    H236899   4.245   1.377   7.439  0.0762 -0.7365 -0.9018
 5114TIP3   OH236900   3.639   3.780   1.284 -0.6872  0.5617  0.1975
 5114TIP3    H136901   3.709   3.716   1.293 -1.2285 -0.0454  0.1329
 5114TIP3    H236902   3.560   3.733   1.309 -0.9267  1.5783  1.4564
 5115TIP3   OH236903   1.028   5.577   0.128  0.8930  0.1244  0.3503
 5115TIP3    H136904   1.034   5.512   0.197 -1.1440  2.6697  3.1952
 5115TIP3    H236905   1.069   5.655   0.165 -1.3982  1.9630 -0.7033
 5116TIP3   OH236906   6.709   1.545   8.502  0.0580  0.5605 -0.5542
 5116TIP3    H136907   6.761   1.599   8.561 -0.2727  0.2538  0.0284
 5116TIP3    H236908   6.705   1.460   8.546 -0.7318  0.5158 -0.7133
 5117TIP3   OH236909   4.496   0.142   8.207 -0.7266  0.5795 -0.0394
 5117TIP3    H136910   4.514   0.066   8.261  2.2283  1.5580  0.5804
 5117TIP3    H236911   4.461   0.207   8.267 -0.3108  0.6901  0.0871
 5118TIP3   OH236912   1.597   3.837   1.715 -0.3475 -0.0978 -0.1489
 5118TIP3    H136913   1.523   3.786   1.749  1.0172 -1.1492  1.4436
 5118TIP3    H236914   1.607   3.909   1.777 -0.5774  0.5651 -0.8689
 5119TIP3   OH236915   2.459   1.363   7.469  0.0546  0.6094 -0.2699
 5119TIP3    H136916   2.419   1.277   7.453  1.3457  0.3528 -2.5653
 5119TIP3    H236917   2.441   1.381   7.561 -0.2298 -2.1426  0.3100
 5120TIP3   OH236918   1.637   1.455   0.189 -0.3533 -0.0377 -0.1915
 5120TIP3    H136919   1.597   1.542   0.189  0.7392  0.4853 -1.3665
 5120TIP3    H236920   1.661   1.439   0.280 -0.9388  0.7052  0.1012
 5121TIP3   OH236921   2.460   0.640   0.974 -0.1901 -0.8051  0.3826
 5121TIP3    H136922   2.493   0.598   0.894 -0.8066 -1.6756  0.5838
 5121TIP3    H236923   2.366   0.623   0.974 -0.2120 -0.7369  1.2517
 5122TIP3   OH236924   1.327   5.181   7.517  0.2503  0.2324 -0.4294
 5122TIP3    H136925   1.239   5.197   7.550  1.0969  0.1076  2.1275
 5122TIP3    H236926   1.323   5.096   7.474 -0.8035  0.1222 -0.1233
 5123TIP3   OH236927   4.578   1.576   8.810  0.6856  0.0659  0.1930
 5123TIP3    H136928   4.529   1.568   8.892 -0.8304 -1.7112 -0.8016
 5123TIP3    H236929   4.518   1.621   8.751  1.5636  0.8610 -0.1229
 5124TIP3   OH236930   6.506   0.974   7.719 -0.0088  0.3143  0.1999
 5124TIP3    H136931   6.564   0.898   7.710  0.4151  0.4747  1.4352
 5124TIP3    H236932   6.555   1.035   7.774  0.5180  2.3729 -2.3664
 5125TIP3   OH236933   2.144   1.792   2.253 -0.2190  0.5899 -0.5559
 5125TIP3    H136934   2.100   1.789   2.168  0.7674  0.7096 -1.0925
 5125TIP3    H236935   2.086   1.844   2.308 -0.4931  1.1942 -1.3912
 5126TIP3   OH236936   2.634   5.128   0.395  0.5091 -0.8974 -0.0456
 5126TIP3    H136937   2.689   5.158   0.467 -0.4787  0.4321  0.1992
 5126TIP3    H236938   2.695   5.110   0.323  1.3022 -0.0926  0.4132
 5127TIP3   OH236939   4.767   1.184   7.894  0.4907  0.2263  0.4911
 5127TIP3    H136940   4.842   1.239   7.918  0.7016  0.2241 -0.1648
 5127TIP3    H236941   4.765   1.186   7.799 -1.0368  1.1533  0.5168
 5128TIP3   OH236942   4.461   2.091   0.025  0.9221  0.9971  0.2678
 5128TIP3    H136943   4.510   2.170   0.002  0.2063  1.2443 -0.4691
 5128TIP3    H236944   4.522   2.039   0.077  2.3234  0.8409 -1.4423
 5129TIP3   OH236945   1.150   3.348   8.049  0.6275  0.3872  0.2386
 5129TIP3    H136946   1.112   3.340   8.137  0.5433  1.1710  0.2857
 5129TIP3    H236947   1.191   3.435   8.049 -1.2348  1.3481 -1.1778
 5130TIP3   OH236948   4.453   0.874   5.956 -0.2327 -0.4276  0.1129
 5130TIP3    H136949   4.534   0.914   5.985 -0.1564 -0.5460  0.0648
 5130TIP3    H236950   4.448   0.791   6.005 -0.2805 -0.4614  0.0522
 5131TIP3   OH236951   1.199   5.819   7.961  0.2082  0.5285  0.8154
 5131TIP3    H136952   1.146   5.859   7.893  1.3938 -1.7026 -1.5824
 5131TIP3    H236953   1.142   5.755   8.003  0.4179 -0.5000 -0.4391
 5132TIP3   OH236954   0.386   1.166   1.485  0.3549 -0.2256  0.2481
 5132TIP3    H136955   0.407   1.108   1.412  0.9272 -0.0535  0.2722
 5132TIP3    H236956   0.401   1.112   1.563  1.6525  0.1794  0.2981
 5133TIP3   OH236957   4.392   5.784   7.165  0.0652  0.8217 -0.2171
 5133TIP3    H136958   4.404   5.793   7.071  0.1239  0.2668 -0.2659
 5133TIP3    H236959   4.477   5.755   7.198 -0.6975 -1.9661 -0.4130
 5134TIP3   OH236960   5.962   5.351   1.134 -0.4041 -0.4408  0.3553
 5134TIP3    H136961   6.057   5.366   1.131 -0.4145 -0.4182  0.1236
 5134TIP3    H236962   5.946   5.288   1.064 -0.5542 -0.4844  0.4295
 5135TIP3   OH236963   5.176   1.977   1.727 -0.3298  0.0821  0.4142
 5135TIP3    H136964   5.199   2.068   1.745 -2.3476  1.1946 -1.9027
 5135TIP3    H236965   5.254   1.927   1.751  1.2075  2.5225  0.8990
 5136TIP3   OH236966   4.327   4.747   0.048 -0.3958  0.2848  0.1285
 5136TIP3    H136967   4.267   4.819   0.068 -0.8879 -0.2885  0.7737
 5136TIP3    H236968   4.412   4.776   0.083 -0.7134  0.3329  0.8861
 5137TIP3   OH236969   4.528   0.381   1.071 -0.0504  0.1310  0.1493
 5137TIP3    H136970   4.566   0.432   0.999 -1.2877  0.7630 -0.0795
 5137TIP3    H236971   4.467   0.322   1.028  0.0708 -0.3217  0.5895
 5138TIP3   OH236972   5.322   5.042   1.525  0.0020 -0.3684 -0.5963
 5138TIP3    H136973   5.361   4.959   1.553 -1.0858 -0.6452  0.1474
 5138TIP3    H236974   5.318   5.095   1.604  0.4836  0.3209 -1.0253
 5139TIP3   OH236975   3.223   6.640   1.167 -0.4640 -0.0264 -0.0126
 5139TIP3    H136976   3.208   6.589   1.087  0.3249  0.8154 -0.7327
 5139TIP3    H236977   3.176   6.593   1.235  1.7267 -2.8096 -0.2295
 5140TIP3   OH236978   3.658   6.106   0.053 -0.5424  0.1119  0.2105
 5140TIP3    H136979   3.584   6.124  -0.004 -1.7142 -1.0302  1.2826
 5140TIP3    H236980   3.666   6.184   0.108 -0.9542  0.2559  0.0681
 5141TIP3   OH236981   1.153   2.100   0.348  0.1668  0.2551 -0.2551
 5141TIP3    H136982   1.225   2.141   0.301  0.1879  2.1447  1.2812
 5141TIP3    H236983   1.090   2.171   0.363  0.2445 -0.1363  2.6322
 5142TIP3   OH236984   0.595   5.989   6.305  0.2140  0.0072 -0.2188
 5142TIP3    H136985   0.569   5.904   6.271 -0.0273  0.2736 -0.7164
 5142TIP3    H236986   0.691   5.988   6.301  0.2895 -0.8632  1.3431
 5143TIP3   OH236987   6.034   5.628   8.221  0.4007  0.2016  0.2483
 5143TIP3    H136988   6.128   5.640   8.213  0.3798  1.9521  1.9232
 5143TIP3    H236989   6.003   5.618   8.131  2.0395  0.7854 -0.4130
 5144TIP3   OH236990   5.434   1.083   1.654 -0.1736 -0.1966  0.2047
 5144TIP3    H136991   5.368   1.096   1.722 -0.2126 -2.1171  0.5917
 5144TIP3    H236992   5.413   1.147   1.587 -1.6220  0.1106  0.9272
 5145TIP3   OH236993   1.206   5.536   0.427 -0.9274  0.2304  0.6120
 5145TIP3    H136994   1.124   5.490   0.411 -0.7596  0.5522 -1.3807
 5145TIP3    H236995   1.274   5.479   0.391 -0.3560  0.4233  1.3457
 5146TIP3   OH236996   1.127   2.481   1.188  0.1028  0.2092 -0.6386
 5146TIP3    H136997   1.113   2.405   1.132 -1.6928 -0.1610  0.2516
 5146TIP3    H236998   1.122   2.447   1.278 -2.4797  1.5572 -0.1661
 5147TIP3   OH236999   6.028   0.938   7.145  0.2773 -0.3171 -0.3702
 5147TIP3    H137000   6.003   1.030   7.155  0.8285 -0.3384  1.7767
 5147TIP3    H237001   6.108   0.940   7.093 -0.2910  0.3245 -1.2325
 5148TIP3   OH237002   6.744   4.760   1.199  0.2333  0.0295 -0.1771
 5148TIP3    H137003   6.650   4.755   1.217  0.3472 -0.1039  0.3988
 5148TIP3    H237004   6.783   4.780   1.284  0.6545  0.9189 -0.5604
 5149TIP3   OH237005   6.017   6.356   8.138 -0.0730  0.1765 -0.0513
 5149TIP3    H137006   6.079   6.375   8.208  1.2171 -1.8205 -0.5936
 5149TIP3    H237007   5.938   6.327   8.184  1.0343 -1.9533  0.6481
 5150TIP3   OH237008   3.283   4.325   0.374 -0.5196  0.5201  0.1263
 5150TIP3    H137009   3.198   4.367   0.362 -0.2504  0.9786 -0.1835
 5150TIP3    H237010   3.301   4.282   0.290 -1.1161 -0.8303  0.6580
 5151TIP3   OH237011   5.654   6.214   7.442  0.5449 -0.1545  0.7772
 5151TIP3    H137012   5.629   6.128   7.477  1.0476 -0.3091  0.7691
 5151TIP3    H237013   5.608   6.276   7.498  0.1111 -0.4261  0.7337
 5152TIP3   OH237014   4.064   0.269   1.219  0.1326  0.2915 -0.1624
 5152TIP3    H137015   4.125   0.196   1.216  1.3955  1.3284 -1.9589
 5152TIP3    H237016   4.071   0.304   1.308  0.9494 -0.5752  0.1256
 5153TIP3   OH237017   1.189   1.268   8.251 -0.2922  0.3810 -0.1778
 5153TIP3    H137018   1.166   1.303   8.165 -0.0789 -0.3958 -0.5553
 5153TIP3    H237019   1.261   1.207   8.234  1.7219  2.3222  0.9056
 5154TIP3   OH237020   4.886   5.108   0.714 -0.2015  0.3221 -0.2326
 5154TIP3    H137021   4.833   5.185   0.696 -0.0110  0.7461  0.9807
 5154TIP3    H237022   4.943   5.100   0.638  0.0218  1.5781 -0.2058
 5155TIP3   OH237023   0.956   4.097   8.319  0.1653 -0.0777  0.1394
 5155TIP3    H137024   0.921   4.156   8.387  0.5188  1.5522 -1.0245
 5155TIP3    H237025   1.027   4.050   8.364 -1.7255 -1.5161  1.7874
 5156TIP3   OH237026   4.143   2.622   0.909 -0.0589  0.5517  0.0619
 5156TIP3    H137027   4.089   2.633   0.831  0.1036  0.4220 -0.0709
 5156TIP3    H237028   4.081   2.608   0.980 -0.1821 -2.3346 -0.4996
 5157TIP3   OH237029   3.229   3.973   1.108 -0.9704  0.1106  0.4769
 5157TIP3    H137030   3.277   3.987   1.189 -0.2917  1.4653 -0.1235
 5157TIP3    H237031   3.162   3.908   1.130 -0.2401 -0.1948  1.8770
 5158TIP3   OH237032   2.744   4.282   1.413 -0.1143 -0.3159  0.6191
 5158TIP3    H137033   2.734   4.206   1.470 -1.3045 -0.5225  0.1618
 5158TIP3    H237034   2.685   4.348   1.450 -3.8114 -1.6388 -2.2900
 5159TIP3   OH237035   4.482   4.359   0.870 -0.0437  0.3867 -0.4721
 5159TIP3    H137036   4.499   4.390   0.781  0.7636  0.3540 -0.3368
 5159TIP3    H237037   4.528   4.421   0.926 -0.4463  0.3351 -0.0808
 5160TIP3   OH237038   1.654   3.675   7.676 -0.5641 -0.3548  0.2649
 5160TIP3    H137039   1.629   3.585   7.652 -1.2132 -0.3573  0.9052
 5160TIP3    H237040   1.574   3.726   7.663 -0.0361  0.2736 -0.7017
 5161TIP3   OH237041   2.637   0.651   7.685  0.0865  0.2255 -0.2468
 5161TIP3    H137042   2.558   0.699   7.711  0.8442  0.3622  2.0283
 5161TIP3    H237043   2.641   0.577   7.745  1.6671  0.2010 -0.3288
 5162TIP3   OH237044   4.947   3.231   0.788 -0.3448 -0.6289 -0.7747
 5162TIP3    H137045   4.921   3.219   0.697 -0.8307  2.1786 -1.0983
 5162TIP3    H237046   5.037   3.199   0.791  0.2268  0.6406 -2.6543
 5163TIP3   OH237047   3.435   1.821   1.535 -0.3002  0.7771 -0.0522
 5163TIP3    H137048   3.519   1.813   1.579 -0.4883 -0.4091  0.1235
 5163TIP3    H237049   3.437   1.755   1.465 -1.2023  0.5061  0.1586
 5164TIP3   OH237050   4.004   3.283   7.968 -0.2269 -0.3776 -0.3551
 5164TIP3    H137051   3.995   3.262   7.875  1.1351  0.6031 -0.7565
 5164TIP3    H237052   3.953   3.217   8.013  1.2021 -2.5202 -1.6756
 5165TIP3   OH237053   3.505   2.106   0.604  0.4373 -0.3769 -0.3177
 5165TIP3    H137054   3.478   2.028   0.651  0.4662  1.2018  2.5236
 5165TIP3    H237055   3.428   2.130   0.551  0.2685 -1.9859 -0.8502
 5166TIP3   OH237056   0.509   5.255   7.160  0.6140 -0.2908 -0.4220
 5166TIP3    H137057   0.449   5.295   7.096 -0.9577 -0.2152  1.0113
 5166TIP3    H237058   0.569   5.204   7.107 -1.2117 -1.0039 -1.9437
 5167TIP3   OH237059   2.016   5.841   1.698  1.2080 -0.2308  0.0400
 5167TIP3    H137060   2.107   5.869   1.691  0.6061  2.0337  0.6227
 5167TIP3    H237061   1.973   5.878   1.621  0.2667  1.0745  1.1415
 5168TIP3   OH237062   4.089   4.354   0.163 -0.5090  0.2435  0.1009
 5168TIP3    H137063   4.106   4.321   0.251 -1.3667  1.3504  0.7087
 5168TIP3    H237064   3.997   4.381   0.164 -0.5157  0.3252 -1.1156
 5169TIP3   OH237065   4.656   6.381   1.328  0.1398 -0.0476 -0.4396
 5169TIP3    H137066   4.720   6.330   1.378 -2.4420 -0.6109  2.6453
 5169TIP3    H237067   4.693   6.470   1.325  1.4590 -0.5331  0.5018
 5170TIP3   OH237068   1.674   5.501   7.740  0.1172  1.1834  0.1825
 5170TIP3    H137069   1.629   5.542   7.814 -0.9053 -0.1381  0.3328
 5170TIP3    H237070   1.606   5.449   7.696  1.4502 -0.9540  0.4657
 5171TIP3   OH237071   5.361   4.362   6.797  0.2880  0.4171 -0.0522
 5171TIP3    H137072   5.385   4.445   6.839  0.2907  1.4530 -2.0218
 5171TIP3    H237073   5.355   4.382   6.704 -0.6755 -1.5922 -0.4832
 5172TIP3   OH237074   1.345   4.937   0.984 -0.0247  0.2936  0.2601
 5172TIP3    H137075   1.273   4.877   1.004 -0.4034  0.5048 -0.4050
 5172TIP3    H237076   1.343   4.944   0.888  0.1798  1.1598  0.3149
 5173TIP3   OH237077   1.067   4.980   8.708  0.7899  1.1677  0.8668
 5173TIP3    H137078   1.029   5.055   8.754  1.1174  0.4730  2.3264
 5173TIP3    H237079   1.131   4.944   8.769  1.1245  0.0891 -0.0758
 5174TIP3   OH237080   6.488   4.394   7.311 -0.3083 -0.9502 -0.9272
 5174TIP3    H137081   6.408   4.342   7.315 -1.2964  0.4942 -1.2197
 5174TIP3    H237082   6.498   4.416   7.218  0.2578 -0.8572 -0.8482
 5175TIP3   OH237083   5.814   1.560   7.115  0.3591 -0.4459  0.3320
 5175TIP3    H137084   5.771   1.554   7.030 -1.8488  1.5069  1.2117
 5175TIP3    H237085   5.802   1.473   7.154 -2.0107 -0.2860  0.1120
 5176TIP3   OH237086   3.379   3.569   8.028 -0.0164 -0.0054  0.3639
 5176TIP3    H137087   3.337   3.641   7.980  1.0914  1.7165  1.8365
 5176TIP3    H237088   3.424   3.518   7.960  2.2263  2.8311 -0.5039
 5177TIP3   OH237089   6.689   5.231   0.275  0.7103  0.4706  0.1159
 5177TIP3    H137090   6.743   5.270   0.344  0.6741 -0.0254  0.4251
 5177TIP3    H237091   6.601   5.229   0.312 -0.1930  3.8942 -1.3800
 5178TIP3   OH237092   4.415   3.811   7.673 -0.4009  0.4314  0.3873
 5178TIP3    H137093   4.431   3.717   7.678 -0.8030  0.4055  1.6967
 5178TIP3    H237094   4.441   3.844   7.759 -0.4575  1.4897  0.0156
 5179TIP3   OH237095   2.489   5.407   7.024  0.5101 -0.7070 -0.1085
 5179TIP3    H137096   2.409   5.375   6.981  0.6166 -2.0929  0.6961
 5179TIP3    H237097   2.459   5.444   7.107  0.7675 -2.0157  0.5937
 5180TIP3   OH237098   1.283   1.754   7.097  0.1125  0.1917 -0.5605
 5180TIP3    H137099   1.286   1.845   7.124  0.2756 -0.2452  0.9787
 5180TIP3    H237100   1.214   1.715   7.151  0.8407 -0.8461 -0.3477
 5181TIP3   OH237101   4.031   2.210   7.700 -0.1317 -1.3640  0.0965
 5181TIP3    H137102   3.979   2.134   7.674  0.2623 -1.7319  0.3805
 5181TIP3    H237103   4.061   2.190   7.789  0.8502 -1.3481 -0.2218
 5182TIP3   OH237104   2.045   0.146   1.066  0.7259 -0.1777 -0.2483
 5182TIP3    H137105   2.136   0.116   1.062  1.1363  0.8064  1.0389
 5182TIP3    H237106   2.021   0.162   0.975  1.5062 -1.3756 -0.6937
 5183TIP3   OH237107   6.459   0.367   1.535 -0.2997 -0.2988 -0.3996
 5183TIP3    H137108   6.421   0.394   1.618 -0.6998 -0.1969 -0.6136
 5183TIP3    H237109   6.539   0.418   1.528 -0.9209  0.6720 -0.6853
 5184TIP3   OH237110   4.315   3.141   8.793 -0.5801 -0.4729 -0.3155
 5184TIP3    H137111   4.275   3.210   8.741 -2.3104  0.1682  1.6791
 5184TIP3    H237112   4.408   3.145   8.773 -0.7408  1.9747 -0.7979
 5185TIP3   OH237113   6.402   3.410   7.793 -0.3857  0.0579  0.0039
 5185TIP3    H137114   6.404   3.323   7.753  1.3790 -0.6529  1.5110
 5185TIP3    H237115   6.311   3.420   7.823 -0.8949 -0.7491 -1.1744
 5186TIP3   OH237116   5.625   2.703   7.949 -0.3864  0.0975  0.1677
 5186TIP3    H137117   5.530   2.713   7.948 -0.2834  1.3363 -1.3208
 5186TIP3    H237118   5.655   2.753   8.025 -0.9940 -1.6667  1.6440
 5187TIP3   OH237119   5.669   4.731   7.440 -0.1845  0.3866 -0.5367
 5187TIP3    H137120   5.664   4.701   7.349 -0.4432 -1.9413  0.1883
 5187TIP3    H237121   5.588   4.701   7.480  1.8442 -2.9821  1.5982
 5188TIP3   OH237122   3.058   2.651   1.598  0.1358 -0.1172 -0.4815
 5188TIP3    H137123   3.014   2.575   1.561 -0.6138 -0.1235  0.3824
 5188TIP3    H237124   2.988   2.716   1.609  0.3937  0.0054  0.5634
 5189TIP3   OH237125   4.663   0.549   1.266  0.2238 -0.5239  0.0830
 5189TIP3    H137126   4.708   0.600   1.198  0.8706 -0.7572  0.3255
 5189TIP3    H237127   4.646   0.464   1.225 -1.1622 -0.0134 -0.4353
 5190TIP3   OH237128   5.225   1.755   8.484  0.2354 -0.1825 -0.0924
 5190TIP3    H137129   5.303   1.700   8.495  0.0217 -0.2345  1.3246
 5190TIP3    H237130   5.152   1.693   8.492 -0.0568  0.4012  2.8258
 5191TIP3   OH237131   5.112   3.976   7.741  0.6020  0.7754 -0.3265
 5191TIP3    H137132   5.110   4.015   7.828 -0.8187  0.0454  0.0115
 5191TIP3    H237133   5.023   3.989   7.708  0.5702 -0.6639 -0.8693
 5192TIP3   OH237134   6.561   3.115   7.364  0.1291 -0.0107 -0.2690
 5192TIP3    H137135   6.562   3.025   7.395 -0.9633  0.1640  0.3262
 5192TIP3    H237136   6.503   3.112   7.287  2.9279 -0.4774 -2.5339
 5193TIP3   OH237137   0.487   6.763   7.208 -0.0824  0.4943 -0.2062
 5193TIP3    H137138   0.396   6.756   7.178 -0.4924 -1.4471  1.2384
 5193TIP3    H237139   0.479   6.785   7.301  1.0222  2.1650 -0.4622
 5194TIP3   OH237140   6.283   4.236   7.342 -0.6757 -0.7331  0.7286
 5194TIP3    H137141   6.212   4.253   7.405 -2.8401  1.0185 -1.9690
 5194TIP3    H237142   6.241   4.190   7.270  0.3502  2.0930 -1.8716
 5195TIP3   OH237143   1.699   1.058   0.639  0.3978 -0.1790  0.0139
 5195TIP3    H137144   1.612   1.079   0.604  0.1386 -1.3327 -0.0702
 5195TIP3    H237145   1.715   1.126   0.705 -0.0603  0.7139 -0.7665
 5196TIP3   OH237146   3.103   2.986   0.457  0.0678  0.7174  0.3691
 5196TIP3    H137147   3.096   3.081   0.464  1.3287  0.9911 -1.3307
 5196TIP3    H237148   3.188   2.965   0.495  0.0517  0.3464  0.2042
 5197TIP3   OH237149   2.643   2.968   2.207  0.2924  0.4789  0.1903
 5197TIP3    H137150   2.669   3.056   2.182  1.7539  0.4297  1.3803
 5197TIP3    H237151   2.547   2.970   2.207  0.3007  1.8898 -0.3424
 5198TIP3   OH237152   4.185   0.516   7.052  0.0791  0.3713  0.0681
 5198TIP3    H137153   4.126   0.515   6.977  0.0151  0.4078  0.1186
 5198TIP3    H237154   4.246   0.444   7.036 -0.1658  0.1431  0.1684
 5199TIP3   OH237155   0.164   5.230   8.152  0.0435  0.0774  0.1056
 5199TIP3    H137156   0.176   5.323   8.132 -0.0430  0.2579  0.8715
 5199TIP3    H237157   0.213   5.216   8.233 -0.6779 -0.3374  0.4815
 5200TIP3   OH237158   1.195   5.902   6.919 -0.1353  0.0829  0.4315
 5200TIP3    H137159   1.258   5.944   6.977  0.3072  1.0101 -0.6883
 5200TIP3    H237160   1.248   5.867   6.847 -0.7528 -0.3558  0.1774
 5201TIP3   OH237161   4.789   3.086   1.116 -0.6015 -0.0976 -0.2611
 5201TIP3    H137162   4.878   3.115   1.096 -0.4622  0.1209  0.6297
 5201TIP3    H237163   4.761   3.141   1.188 -1.3456 -0.3845 -0.3157
 5202TIP3   OH237164   4.070   1.320   0.424  0.3426  0.6868 -0.3093
 5202TIP3    H137165   3.975   1.330   0.417  0.3172  0.4845 -0.2385
 5202TIP3    H237166   4.082   1.248   0.485  0.5381  0.3225 -0.7769
 5203TIP3   OH237167   0.321   4.116   0.003 -0.6912  0.3451  0.0199
 5203TIP3    H137168   0.318   4.027   0.036  1.2745  0.7889  1.6320
 5203TIP3    H237169   0.377   4.163   0.065 -1.0485  2.5286 -1.1809
 5204TIP3   OH237170   0.519   2.689   8.360 -0.0922 -0.2826 -0.2525
 5204TIP3    H137171   0.562   2.635   8.426  1.0418  0.6524 -0.2023
 5204TIP3    H237172   0.581   2.759   8.341 -1.5100  1.0016 -0.3359
 5205TIP3   OH237173   2.471   0.751   8.542  0.2607 -0.4056  0.0887
 5205TIP3    H137174   2.381   0.747   8.574 -0.5883  0.2797 -2.0881
 5205TIP3    H237175   2.471   0.822   8.479  2.0079 -1.2690 -0.9528
 5206TIP3   OH237176   5.939   4.877   8.260  0.2934 -0.0845  0.6540
 5206TIP3    H137177   6.035   4.875   8.255  0.2710  0.8487 -0.3767
 5206TIP3    H237178   5.913   4.942   8.195 -0.9323  1.4213  2.5490
 5207TIP3   OH237179   4.805   0.588   0.046 -0.2189  0.1290  0.1762
 5207TIP3    H137180   4.793   0.564   0.138 -0.1054 -0.5753  0.0098
 5207TIP3    H237181   4.876   0.653   0.048 -1.9158  2.0487  0.8340
 5208TIP3   OH237182   5.654   0.393   7.122  0.3592  0.3281 -0.1138
 5208TIP3    H137183   5.730   0.421   7.174  1.0525  0.6318 -1.2463
 5208TIP3    H237184   5.693   0.353   7.044 -0.5920  2.7073 -1.9222
 5209TIP3   OH237185   0.552   5.086   2.136  0.8725 -0.3026 -0.4691
 5209TIP3    H137186   0.641   5.094   2.100  0.8587 -0.9533 -0.6609
 5209TIP3    H237187   0.552   5.001   2.181 -0.1280 -1.0469 -1.8186
 5210TIP3   OH237188   5.362   4.775   8.601 -0.2497  0.4881 -0.4179
 5210TIP3    H137189   5.439   4.720   8.614 -0.4519  0.1627 -0.5788
 5210TIP3    H237190   5.289   4.723   8.636 -0.2430  1.2595  0.7587
 5211TIP3   OH237191   1.281   0.950   7.147  0.4555 -0.3612  0.0498
 5211TIP3    H137192   1.311   0.962   7.057 -1.3259 -0.9993 -0.6812
 5211TIP3    H237193   1.207   1.011   7.156 -0.1155 -1.1169  0.6853
 5212TIP3   OH237194   3.240   1.055   2.234  0.1718  0.0373  0.1078
 5212TIP3    H137195   3.305   0.986   2.221 -0.8958 -1.2172  1.2509
 5212TIP3    H237196   3.156   1.014   2.214 -0.4400  1.1852  0.2055
 5213TIP3   OH237197   6.485   4.825   7.985  0.3922 -0.7924 -0.2375
 5213TIP3    H137198   6.413   4.849   7.926 -0.7083 -2.0385  0.5517
 5213TIP3    H237199   6.444   4.815   8.071  1.7773 -0.1101  0.5383
 5214TIP3   OH237200   5.674   2.981   1.717 -0.4365 -0.0187 -0.0747
 5214TIP3    H137201   5.714   2.923   1.782  2.2600  1.4799 -0.2495
 5214TIP3    H237202   5.700   3.069   1.744 -0.4057  0.7443 -2.4211
 5215TIP3   OH237203   6.529   5.521   0.581  0.3381 -0.0172 -0.1378
 5215TIP3    H137204   6.622   5.526   0.559  0.3111 -0.2282 -0.3078
 5215TIP3    H237205   6.517   5.586   0.650  0.7327 -0.4076  0.3069
 5216TIP3   OH237206   3.732   0.586   8.359 -0.0956  0.2833 -0.3368
 5216TIP3    H137207   3.674   0.653   8.395 -1.3050 -0.7356 -0.3349
 5216TIP3    H237208   3.815   0.600   8.404 -0.4019  1.5833 -0.1242
 5217TIP3   OH237209   4.440   0.540   0.166  0.6263 -0.1354  0.0315
 5217TIP3    H137210   4.448   0.449   0.194  3.7509 -0.1143 -0.4253
 5217TIP3    H237211   4.474   0.591   0.239  0.2666  0.5723 -0.2849
 5218TIP3   OH237212   2.334   6.548   0.345 -0.9454 -0.4028 -0.3518
 5218TIP3    H137213   2.298   6.593   0.422  0.3984 -1.6793  1.0940
 5218TIP3    H237214   2.281   6.469   0.336  0.4309 -1.5301  0.8713
 5219TIP3   OH237215   2.156   6.321   0.388 -0.3133 -0.5703  0.0818
 5219TIP3    H137216   2.153   6.259   0.315  1.7659 -0.4003 -0.2077
 5219TIP3    H237217   2.215   6.279   0.451 -2.3227 -0.8725  1.8680
 5220TIP3   OH237218   4.911   1.398   0.608 -0.5718 -0.1856  0.3502
 5220TIP3    H137219   4.872   1.399   0.695 -1.0279  0.0644  0.1476
 5220TIP3    H237220   4.836   1.398   0.548 -0.2667  0.6595 -0.0514
 5221TIP3   OH237221   5.343   5.920   8.500  0.2059  0.0424  0.5002
 5221TIP3    H137222   5.301   5.973   8.569 -0.3322  1.3374 -0.7746
 5221TIP3    H237223   5.351   5.833   8.539  0.3173  0.8372  2.3589
 5222TIP3   OH237224   2.958   2.708   0.161  0.0788  0.4110  0.2285
 5222TIP3    H137225   3.019   2.779   0.182 -0.9551  1.0525  1.1344
 5222TIP3    H237226   2.996   2.667   0.083  1.3416  1.1762  0.4081
 5223TIP3   OH237227   2.959   5.998   7.831  0.0201  0.0381  0.3602
 5223TIP3    H137228   2.864   6.008   7.840 -0.2119 -0.5377 -1.1291
 5223TIP3    H237229   2.970   5.935   7.760  1.5303 -0.3182  0.8677
 5224TIP3   OH237230   0.226   4.079   6.892  0.0706 -0.1908 -0.8956
 5224TIP3    H137231   0.273   4.042   6.817 -3.0167  0.6405 -3.5340
 5224TIP3    H237232   0.137   4.043   6.884 -0.8070  1.2257  1.4120
 5225TIP3   OH237233   3.710   1.954   1.319  0.0503  0.0060  0.0679
 5225TIP3    H137234   3.786   1.985   1.272 -0.4560 -0.5223 -1.1389
 5225TIP3    H237235   3.729   1.972   1.411  0.7817  1.6405 -0.3819
 5226TIP3   OH237236   0.270   2.254   7.391  1.0476 -0.3582 -0.2165
 5226TIP3    H137237   0.350   2.245   7.339  1.9180 -0.0077  1.0183
 5226TIP3    H237238   0.301   2.277   7.479 -0.3788 -0.9029  0.4585
 5227TIP3   OH237239   6.725   5.003   8.415  0.2258  0.5930 -0.1289
 5227TIP3    H137240   6.721   4.966   8.326 -0.5953 -0.4120  0.3101
 5227TIP3    H237241   6.817   4.996   8.439  0.0752 -1.4585  0.0289
 5228TIP3   OH237242   3.275   6.021   7.996  0.4993  0.0061  0.7498
 5228TIP3    H137243   3.218   6.048   8.068  2.0599  1.1455  1.6143
 5228TIP3    H237244   3.232   5.943   7.959 -0.6551 -0.2394  2.5016
 5229TIP3   OH237245   5.488   5.210   6.571  0.1832 -0.1592  0.3224
 5229TIP3    H137246   5.433   5.280   6.607  0.0258 -0.4829  0.7175
 5229TIP3    H237247   5.571   5.253   6.550  0.1351  0.1174  0.6973
 5230TIP3   OH237248   6.394   5.116   0.247 -0.1855  0.1281  0.0823
 5230TIP3    H137249   6.439   5.044   0.203 -0.1368  0.1252  0.1363
 5230TIP3    H237250   6.385   5.184   0.180  1.3554  0.7786  0.4927
 5231TIP3   OH237251   1.687   1.902   7.821 -0.1023 -0.2414 -0.6097
 5231TIP3    H137252   1.731   1.853   7.752  0.8270 -0.3490  0.0405
 5231TIP3    H237253   1.685   1.843   7.896  0.4758  0.4728 -0.0096
 5232TIP3   OH237254   2.233   5.859   0.969 -0.1477 -0.5227  0.3337
 5232TIP3    H137255   2.327   5.874   0.960  0.0562 -0.5292  2.0133
 5232TIP3    H237256   2.226   5.802   1.046 -1.4872 -1.1504 -0.2274
 5233TIP3   OH237257   2.190   3.892   0.513  0.0407 -0.4531 -0.1059
 5233TIP3    H137258   2.135   3.830   0.465  0.3898 -2.4165  1.8790
 5233TIP3    H237259   2.132   3.964   0.536 -0.7255 -0.6710 -1.2930
 5234TIP3   OH237260   4.001   2.438   8.854 -0.1650  0.0477  0.1324
 5234TIP3    H137261   4.008   2.534   8.851  0.7968  0.0211  0.8491
 5234TIP3    H237262   4.071   2.412   8.915 -0.3115 -1.1223 -0.1943
 5235TIP3   OH237263   4.186   3.938   0.898 -0.2396  0.2717 -0.1015
 5235TIP3    H137264   4.096   3.925   0.931 -0.1702  0.9831  0.3930
 5235TIP3    H237265   4.219   4.013   0.948  1.2985 -1.1171  1.0855
 5236TIP3   OH237266   0.684   5.112   0.351  0.4228 -0.3514 -0.0384
 5236TIP3    H137267   0.772   5.083   0.328  1.0916  0.7121  1.0548
 5236TIP3    H237268   0.643   5.136   0.268  2.4841  2.7175 -0.3217
 5237TIP3   OH237269   4.414   4.180   7.167 -0.0213 -0.5634 -0.0144
 5237TIP3    H137270   4.391   4.112   7.104 -0.3502 -0.8659  0.4239
 5237TIP3    H237271   4.507   4.198   7.150 -0.3574  0.1109 -1.2753
 5238TIP3   OH237272   2.082   3.511   0.915 -0.3205 -0.2287 -0.2438
 5238TIP3    H137273   1.989   3.502   0.932 -0.0147 -0.3732  1.4672
 5238TIP3    H237274   2.087   3.546   0.826 -2.1300  2.9906  0.7638
 5239TIP3   OH237275   1.432   4.419   1.058  0.0346 -0.4007 -0.2118
 5239TIP3    H137276   1.461   4.331   1.080 -1.9000 -0.9558  0.3801
 5239TIP3    H237277   1.386   4.449   1.137 -1.5239  0.1066 -1.2557
 5240TIP3   OH237278   4.764   4.138   0.588 -0.1203  0.4684 -0.4852
 5240TIP3    H137279   4.669   4.135   0.584 -0.2275 -0.3972  1.4362
 5240TIP3    H237280   4.793   4.060   0.542 -0.3230  0.7059 -1.0283
 5241TIP3   OH237281   5.595   5.981   0.228  0.2039  0.1539 -0.5954
 5241TIP3    H137282   5.510   5.957   0.193  0.0760  0.5349 -0.5470
 5241TIP3    H237283   5.656   5.921   0.186 -0.4067 -2.0623  1.4785
 5242TIP3   OH237284   4.267   0.946   8.092  0.0949 -0.6060  0.1573
 5242TIP3    H137285   4.235   0.867   8.048  0.7582 -0.4161 -0.6680
 5242TIP3    H237286   4.341   0.976   8.040  0.0141  0.4301  0.6025
 5243TIP3   OH237287   1.325   4.744   0.039 -0.6921 -0.3846 -0.5381
 5243TIP3    H137288   1.309   4.839   0.033  0.7665 -0.0680 -0.0285
 5243TIP3    H237289   1.239   4.706   0.058 -1.1290  0.9560  0.3359
 5244TIP3   OH237290   0.390   3.069   2.556  0.3462  0.7177 -0.0514
 5244TIP3    H137291   0.421   3.100   2.641  1.1711  2.1582 -0.8236
 5244TIP3    H237292   0.468   3.071   2.500 -0.0911 -0.6024 -0.7470
 5245TIP3   OH237293   1.364   1.848   1.221 -0.4093 -0.9474  1.0008
 5245TIP3    H137294   1.383   1.929   1.268 -0.5231 -0.4675  0.2325
 5245TIP3    H237295   1.440   1.793   1.238  0.2523 -0.2089  0.5082
 5246TIP3   OH237296   6.046   4.233   1.219  0.3072  0.0855  0.1511
 5246TIP3    H137297   5.963   4.268   1.251 -2.6389 -3.9726 -2.1641
 5246TIP3    H237298   6.084   4.187   1.293 -1.5834 -1.3030  0.3119
 5247TIP3   OH237299   1.470   0.737   7.642 -0.5535  0.1807  0.1165
 5247TIP3    H137300   1.553   0.694   7.660 -1.0335 -1.2109 -0.8360
 5247TIP3    H237301   1.448   0.782   7.723  0.2149 -0.9825  0.9924
 5248TIP3   OH237302   5.855   5.573   1.251  0.0118  0.3490  0.1327
 5248TIP3    H137303   5.892   5.497   1.205 -1.2394  1.7554 -3.5455
 5248TIP3    H237304   5.768   5.544   1.278 -0.4393  0.3749 -1.2033
 5249TIP3   OH237305   3.352   5.952   7.664 -0.2355  0.2089  0.5462
 5249TIP3    H137306   3.386   6.003   7.738 -0.4664  0.4006  0.5204
 5249TIP3    H237307   3.319   6.018   7.603  1.8265  0.2170 -0.6933
 5250TIP3   OH237308   4.443   2.423   6.675  0.1488 -0.4227  0.2121
 5250TIP3    H137309   4.446   2.404   6.769  3.0381  0.1575  0.3439
 5250TIP3    H237310   4.479   2.511   6.667  1.0195 -0.8780 -1.4828
 5251TIP3   OH237311   4.005   4.251   1.168  0.5407  0.4572 -0.4437
 5251TIP3    H137312   3.929   4.234   1.112 -1.5740  3.8828  1.0005
 5251TIP3    H237313   4.029   4.165   1.203 -1.5662 -1.0178 -2.3252
 5252TIP3   OH237314   4.593   0.551   0.527  0.0825  0.2161 -0.1155
 5252TIP3    H137315   4.550   0.626   0.486  0.6308  1.0496  0.7935
 5252TIP3    H237316   4.539   0.476   0.501 -2.3030  1.2569  1.4583
 5253TIP3   OH237317   3.963   0.049   1.857 -0.0690  0.2763  0.5060
 5253TIP3    H137318   3.953  -0.007   1.780  0.0362 -0.1827  0.8238
 5253TIP3    H237319   4.008  -0.006   1.921  0.3009  0.8222  0.7193
 5254TIP3   OH237320   2.903   5.046   0.685  0.1911 -0.4098 -0.3545
 5254TIP3    H137321   2.809   5.043   0.703  0.2285  2.5179  1.0055
 5254TIP3    H237322   2.909   5.041   0.590 -1.1247 -2.6498 -0.3959
 5255TIP3   OH237323   3.176   3.979   1.569  0.1972  0.1405 -0.1913
 5255TIP3    H137324   3.123   4.056   1.589 -1.0407 -0.9197  0.7957
 5255TIP3    H237325   3.114   3.914   1.538  1.0214 -0.8769  0.1931
 5256TIP3   OH237326   6.276   4.382   1.205 -0.1365 -0.1035 -0.0388
 5256TIP3    H137327   6.204   4.322   1.190 -0.1265 -0.2119  0.3229
 5256TIP3    H237328   6.253   4.428   1.286  0.2431 -0.2043  0.1302
 5257TIP3   OH237329   0.510   6.287   7.083 -0.7178  0.0289 -0.0631
 5257TIP3    H137330   0.429   6.337   7.078 -0.6535  0.1539  0.1220
 5257TIP3    H237331   0.482   6.198   7.102 -0.7972  0.1367  0.3430
 5258TIP3   OH237332   0.673   5.043   8.696 -0.1304 -0.5523  0.0807
 5258TIP3    H137333   0.683   4.957   8.656 -3.4022 -0.1350 -1.9811
 5258TIP3    H237334   0.679   5.104   8.622 -3.2574  0.4937  0.5367
 5259TIP3   OH237335   0.570   0.441   6.202  0.0541  0.1719 -0.8308
 5259TIP3    H137336   0.487   0.487   6.192 -0.6601 -0.4724  1.5431
 5259TIP3    H237337   0.547   0.355   6.238  1.7139 -0.0873 -0.2608
 5260TIP3   OH237338   2.271   1.579   1.981  0.3699 -0.0700  0.0376
 5260TIP3    H137339   2.256   1.537   2.065 -0.0876  1.2089  0.6252
 5260TIP3    H237340   2.212   1.655   1.981 -1.8594 -1.5961 -2.6373
 5261TIP3   OH237341   6.648   1.375   0.055 -0.0663 -0.2809  0.1000
 5261TIP3    H137342   6.662   1.470   0.059  0.1755 -0.1424 -2.4571
 5261TIP3    H237343   6.598   1.355   0.134  0.8491  1.7774  1.2838
 5262TIP3   OH237344   6.650   6.196   0.459  0.4165  0.1861  0.3340
 5262TIP3    H137345   6.568   6.242   0.478  0.3562  0.1970  0.0504
 5262TIP3    H237346   6.718   6.253   0.495  0.1867 -1.0310  2.9224
 5263TIP3   OH237347   1.406   6.428   8.214 -0.7886  0.0485 -0.2535
 5263TIP3    H137348   1.322   6.416   8.170 -0.4219 -0.1297 -0.9256
 5263TIP3    H237349   1.410   6.521   8.235 -0.9011  0.1661 -0.7449
 5264TIP3   OH237350   3.457   1.614   6.415  0.1391  0.3426 -0.4438
 5264TIP3    H137351   3.405   1.590   6.492 -0.3258  0.4517 -0.7223
 5264TIP3    H237352   3.395   1.654   6.355  0.9223  2.4352  0.0631
 5265TIP3   OH237353   4.940   3.432   1.542  0.8425 -0.4550 -0.1296
 5265TIP3    H137354   4.961   3.411   1.632  1.1435 -0.4244 -0.1936
 5265TIP3    H237355   4.910   3.523   1.545 -0.8996 -0.9902  0.2179
 5266TIP3   OH237356   5.586   2.962   2.046 -0.2030 -0.4374 -0.3303
 5266TIP3    H137357   5.551   2.925   2.127 -0.3211  1.0977  0.3458
 5266TIP3    H237358   5.590   3.056   2.061 -0.5498 -0.0643 -2.2372
 5267TIP3   OH237359   1.159   1.753   0.220 -0.5969 -0.7350 -0.3466
 5267TIP3    H137360   1.179   1.684   0.285  0.3843  0.0285  0.2054
 5267TIP3    H237361   1.096   1.809   0.264 -0.5500 -0.6674 -0.3660
 5268TIP3   OH237362   2.288   3.360   7.154 -0.1689 -0.1991  0.6382
 5268TIP3    H137363   2.314   3.442   7.113  0.1833 -0.6712 -0.1243
 5268TIP3    H237364   2.358   3.342   7.218  0.8034 -0.8432 -0.5424
 5269TIP3   OH237365   1.414   1.209   1.055  0.5535  0.9200 -0.3500
 5269TIP3    H137366   1.491   1.153   1.053  0.8973  1.3452  0.6182
 5269TIP3    H237367   1.400   1.228   1.148 -0.6901  0.8844 -0.5139
 5270TIP3   OH237368   1.291   5.326   8.597 -0.2459 -0.1982  0.0893
 5270TIP3    H137369   1.286   5.414   8.559  0.0979 -0.1380  0.1751
 5270TIP3    H237370   1.223   5.325   8.664 -0.2255  0.0187  0.1134
 5271TIP3   OH237371   1.018   6.670   0.369  0.1948 -0.1534  0.0617
 5271TIP3    H137372   0.967   6.593   0.343 -1.9854  1.0860  0.4215
 5271TIP3    H237373   1.026   6.663   0.464 -1.2839  0.7249  0.2907
 5272TIP3   OH237374   2.288   2.321   6.328  0.4244  0.0186 -0.3029
 5272TIP3    H137375   2.331   2.356   6.249 -0.4426  0.7957 -0.4411
 5272TIP3    H237376   2.260   2.233   6.302  0.2879  0.2077 -0.8195
 5273TIP3   OH237377   5.756   1.508   7.769 -0.2239 -0.1396 -0.3654
 5273TIP3    H137378   5.725   1.436   7.713  0.8239 -0.3825 -0.6598
 5273TIP3    H237379   5.702   1.583   7.744 -2.2425 -1.1078  0.8683
 5274TIP3   OH237380   0.047   4.849   0.250  0.3346 -0.3159  0.1078
 5274TIP3    H137381   0.129   4.806   0.277 -0.1494 -0.2495  1.7698
 5274TIP3    H237382   0.071   4.898   0.172  1.4949 -1.6118 -0.4041
 5275TIP3   OH237383   3.122   0.008   6.648  0.0739  0.0319  0.0781
 5275TIP3    H137384   3.075  -0.073   6.666  0.6523 -0.0855  1.1134
 5275TIP3    H237385   3.212  -0.009   6.674  0.6042  0.4397 -1.3554
 5276TIP3   OH237386   5.074   2.162   6.454  0.6269  0.5274 -0.1074
 5276TIP3    H137387   5.058   2.125   6.540  1.5860 -1.4744 -0.7264
 5276TIP3    H237388   5.160   2.203   6.461  0.6428  0.4852 -0.0527
 5277TIP3   OH237389   3.221   4.933   0.298  0.6402  0.7094  0.1004
 5277TIP3    H137390   3.240   5.003   0.235  0.0339 -0.6864 -1.7236
 5277TIP3    H237391   3.222   4.853   0.246  2.2464 -0.8042  2.2869
 5278TIP3   OH237392   5.360   0.321   8.491  0.3347 -0.1454 -0.0278
 5278TIP3    H137393   5.421   0.347   8.560 -0.8922 -0.7337  1.3527
 5278TIP3    H237394   5.415   0.297   8.417  1.8147 -1.0581  1.3033
 5279TIP3   OH237395   4.709   3.988   1.446 -0.0869 -0.1255 -0.4373
 5279TIP3    H137396   4.779   3.940   1.490 -0.5357 -1.1290 -0.7827
 5279TIP3    H237397   4.638   3.990   1.510  0.2900  1.0062 -0.0382
 5280TIP3   OH237398   6.357   3.132   7.810 -0.0062  0.4517  0.0364
 5280TIP3    H137399   6.299   3.135   7.886  1.3704  0.0036  1.1488
 5280TIP3    H237400   6.419   3.062   7.830  0.7501  0.7349 -1.2298
 5281TIP3   OH237401   0.227   1.266   8.636  0.1003  0.0436  0.1388
 5281TIP3    H137402   0.143   1.239   8.674 -0.1215 -1.1870 -1.1351
 5281TIP3    H237403   0.203   1.305   8.552  0.7295  0.8196  0.3124
 5282TIP3   OH237404   0.292   1.632   1.735 -0.0598 -0.4505 -0.6903
 5282TIP3    H137405   0.320   1.571   1.667 -0.6565 -0.3203 -1.0614
 5282TIP3    H237406   0.199   1.646   1.718 -0.1555 -0.2035 -0.0103
 5283TIP3   OH237407   4.258   0.415   7.973  0.0703 -0.2262 -0.7277
 5283TIP3    H137408   4.222   0.434   7.887 -1.9450 -1.9772 -0.3676
 5283TIP3    H237409   4.183   0.423   8.033  1.1183 -0.3514  0.6631
 5284TIP3   OH237410   3.689   1.733   1.628  0.2047  0.5950 -0.4799
 5284TIP3    H137411   3.737   1.807   1.593  3.4405 -0.7004  0.8675
 5284TIP3    H237412   3.732   1.656   1.590  2.5337 -0.8221  4.2912
 5285TIP3   OH237413   3.590   4.395   0.985 -0.1354  0.5990 -0.5973
 5285TIP3    H137414   3.517   4.456   0.969 -1.7884 -0.6548  1.5784
 5285TIP3    H237415   3.575   4.363   1.074  2.0760 -1.1354 -0.7621
 5286TIP3   OH237416   5.847   4.492   8.540 -0.3091  0.3387  0.3381
 5286TIP3    H137417   5.926   4.463   8.495 -1.9036  0.4202 -2.7743
 5286TIP3    H237418   5.804   4.411   8.568 -0.2486  0.1630 -0.0702
 5287TIP3   OH237419   0.098   4.672   8.541 -0.4937  0.0489  0.6340
 5287TIP3    H137420   0.018   4.721   8.523 -1.6625 -1.4000  1.6387
 5287TIP3    H237421   0.079   4.624   8.621  0.5071 -2.1590 -0.3740
 5288TIP3   OH237422   0.441   2.703   0.164 -0.1087 -0.0217  0.5206
 5288TIP3    H137423   0.483   2.701   0.250  0.9798 -0.3551  0.0120
 5288TIP3    H237424   0.457   2.791   0.131 -0.8265  0.2158  0.7924
 5289TIP3   OH237425   3.954   2.524   8.435  0.7017 -0.1066  0.3867
 5289TIP3    H137426   3.922   2.449   8.485 -2.1751 -0.0828 -1.1899
 5289TIP3    H237427   3.896   2.596   8.461 -0.5056  0.0486 -2.4024
 5290TIP3   OH237428   4.253   2.031   0.293 -0.0181 -0.3807  0.2708
 5290TIP3    H137429   4.331   1.975   0.294  0.3245  0.0879  0.1581
 5290TIP3    H237430   4.260   2.082   0.374 -0.1192 -0.2152  0.1741
 5291TIP3   OH237431   1.948   0.363   8.292 -0.4025 -0.6647  0.5114
 5291TIP3    H137432   1.980   0.453   8.298 -0.3791 -0.4317 -2.1696
 5291TIP3    H237433   1.853   0.371   8.284 -0.3435 -0.8073 -0.4581
 5292TIP3   OH237434   0.848   2.631   0.864  0.1237 -0.0817  0.1832
 5292TIP3    H137435   0.900   2.637   0.783  0.3174  1.5809  0.4057
 5292TIP3    H237436   0.788   2.705   0.859  0.0297 -0.0514  1.4833
 5293TIP3   OH237437   0.697   5.321   1.113 -0.0043 -0.2533 -0.2283
 5293TIP3    H137438   0.604   5.342   1.103 -0.6633 -2.0325  1.5726
 5293TIP3    H237439   0.698   5.236   1.156  2.4731  0.1714  0.7165
 5294TIP3   OH237440   2.219   6.776   0.442  0.3996 -0.4315 -0.0222
 5294TIP3    H137441   2.142   6.721   0.428 -0.2955  0.3558  0.6242
 5294TIP3    H237442   2.248   6.799   0.354 -1.3670  0.9787 -0.2935
 5295TIP3   OH237443   0.062   4.329   1.168 -0.3581 -0.0504  0.3673
 5295TIP3    H137444   0.043   4.423   1.177 -0.9724 -0.2015  0.7691
 5295TIP3    H237445   0.156   4.324   1.153 -0.2840  0.6199  0.5940
 5296TIP3   OH237446   0.422   3.559   7.288  0.0990 -0.1074 -0.4280
 5296TIP3    H137447   0.433   3.480   7.234 -1.5214  0.3471 -1.5052
 5296TIP3    H237448   0.405   3.525   7.376  2.1399 -0.8734 -0.2796
 5297TIP3   OH237449   4.745   0.559   6.989 -0.0160  0.2358 -0.0094
 5297TIP3    H137450   4.734   0.489   7.054  0.2139  0.0856 -0.1298
 5297TIP3    H237451   4.732   0.640   7.038  1.4955  0.1830  0.5280
 5298TIP3   OH237452   6.467   1.798   7.232 -0.3974 -0.0111  0.0030
 5298TIP3    H137453   6.475   1.703   7.230 -0.5582 -0.0428  0.5381
 5298TIP3    H237454   6.557   1.829   7.237 -0.2581 -0.0699 -1.6220
 5299TIP3   OH237455   3.963   2.999   6.884 -0.0231 -0.0954 -0.1352
 5299TIP3    H137456   3.880   2.952   6.886  0.0412 -0.2317 -0.5524
 5299TIP3    H237457   3.972   3.037   6.972 -0.9668  0.7207 -0.3881
 5300TIP3   OH237458   3.164   1.603   0.175  0.0857 -0.1119  0.1931
 5300TIP3    H137459   3.215   1.681   0.153 -1.3843  0.1136 -3.1015
 5300TIP3    H237460   3.073   1.632   0.174 -0.3800 -1.4328  1.1965
 5301TIP3   OH237461   0.672   1.971   6.754 -0.0112 -0.2609 -0.1981
 5301TIP3    H137462   0.686   2.066   6.756 -0.8248 -0.1299  1.6093
 5301TIP3    H237463   0.608   1.958   6.684 -0.1840  0.5696 -0.2083
 5302TIP3   OH237464   0.579   4.037   7.233 -0.1597 -0.1697 -0.5225
 5302TIP3    H137465   0.622   4.038   7.148 -0.0263  0.6526 -0.4536
 5302TIP3    H237466   0.650   4.054   7.296 -0.0377 -1.9197 -0.1219
 5303TIP3   OH237467   2.235   4.881   0.121 -0.2516 -0.0998 -0.0576
 5303TIP3    H137468   2.261   4.949   0.183  2.0684  0.7424 -1.7958
 5303TIP3    H237469   2.297   4.809   0.136  0.5034  0.2117 -1.4686
 5304TIP3   OH237470   5.061   3.331   8.817  0.6496 -0.3586 -0.0738
 5304TIP3    H137471   5.083   3.239   8.803  0.0283 -0.2731 -1.9738
 5304TIP3    H237472   5.036   3.363   8.730 -0.6948  1.1926  0.8165
 5305TIP3   OH237473   5.989   6.470   7.535  0.0015 -1.0356  0.4949
 5305TIP3    H137474   6.078   6.504   7.524 -0.5268  0.2280 -0.0456
 5305TIP3    H237475   5.997   6.404   7.604  1.2960 -0.6907  0.6977
 5306TIP3   OH237476   0.063   2.942   8.308  0.4818 -0.0367 -0.1287
 5306TIP3    H137477  -0.012   2.974   8.358  0.4279 -0.1757 -0.1192
 5306TIP3    H237478   0.052   2.979   8.221 -1.3810 -2.6651 -1.1252
 5307TIP3   OH237479   6.146   6.506   1.076 -0.0806 -0.2920  0.2871
 5307TIP3    H137480   6.115   6.431   1.025 -0.5276 -0.8607  1.3690
 5307TIP3    H237481   6.127   6.484   1.167 -0.2131  1.1310  0.6426
 5308TIP3   OH237482   1.140   6.750   8.748 -0.8254 -0.1713 -0.5701
 5308TIP3    H137483   1.209   6.792   8.697  0.0657  1.1733  1.6264
 5308TIP3    H237484   1.078   6.820   8.769 -2.2845 -1.1185 -1.4885
 5309TIP3   OH237485   3.970   5.192   8.678 -0.3479  0.7250 -0.5293
 5309TIP3    H137486   3.914   5.134   8.730 -0.2592  0.8350 -0.3111
 5309TIP3    H237487   4.012   5.248   8.742  0.0034  0.6529 -0.6974
 5310TIP3   OH237488   6.715   5.833   0.888  0.1834  0.3412 -0.6307
 5310TIP3    H137489   6.708   5.744   0.923 -0.4517  0.1284 -1.2634
 5310TIP3    H237490   6.699   5.889   0.964  2.1931 -0.0294  0.1196
 5311TIP3   OH237491   6.784   3.197   2.204  0.2700  0.1825 -0.2532
 5311TIP3    H137492   6.843   3.209   2.130 -0.2904  1.0770 -0.5759
 5311TIP3    H237493   6.840   3.167   2.275  1.0590  0.7004 -0.6414
 5312TIP3   OH237494   2.369   1.493   0.050 -0.9887  0.5087 -0.2633
 5312TIP3    H137495   2.359   1.470  -0.043  1.5006  2.2044 -1.0488
 5312TIP3    H237496   2.462   1.477   0.068 -0.6744  3.2408  0.9797
 5313TIP3   OH237497   3.048   4.365   6.234 -0.2936  0.3790 -0.7597
 5313TIP3    H137498   3.005   4.427   6.174  0.0036  1.8105  0.4624
 5313TIP3    H237499   2.982   4.297   6.248 -1.6196  1.7186 -0.1643
 5314TIP3   OH237500   2.831   4.649   8.542 -0.1574  0.3988 -0.2327
 5314TIP3    H137501   2.848   4.609   8.457  1.3479  1.0275 -0.2538
 5314TIP3    H237502   2.773   4.586   8.586  0.1588 -0.6055 -1.1835
 5315TIP3   OH237503   2.301   2.826   7.336  0.1966  0.3406 -0.3098
 5315TIP3    H137504   2.290   2.872   7.253 -1.6757 -1.1114 -0.9528
 5315TIP3    H237505   2.276   2.736   7.317 -0.5321  0.0104  1.8801
 5316TIP3   OH237506   5.914   4.212   7.027  0.1045  0.0456 -0.2442
 5316TIP3    H137507   5.869   4.296   7.014 -0.2341 -0.0493  0.2945
 5316TIP3    H237508   5.843   4.150   7.046  0.4205 -0.2175  0.0717
 5317TIP3   OH237509   4.845   4.902   8.003 -0.2582 -0.0622  0.3161
 5317TIP3    H137510   4.893   4.819   7.999  0.2047  0.2533 -1.1271
 5317TIP3    H237511   4.800   4.909   7.919  0.2893  1.4643  0.1103
 5318TIP3   OH237512   2.624   5.105   0.751  1.0555 -0.3407  0.3858
 5318TIP3    H137513   2.543   5.056   0.762  1.4621 -1.3103 -0.6495
 5318TIP3    H237514   2.661   5.110   0.839  1.7565 -3.3053  0.3752
 5319TIP3   OH237515   3.696   6.330   6.718  0.3864  0.1765  0.5839
 5319TIP3    H137516   3.643   6.303   6.642  0.3842 -1.9929  1.2900
 5319TIP3    H237517   3.712   6.424   6.704 -1.0315  0.2029 -1.2197
 5320TIP3   OH237518   1.968   4.046   0.833 -0.2078  0.3516  0.4670
 5320TIP3    H137519   1.979   4.040   0.928  0.5687  1.8573  0.5045
 5320TIP3    H237520   2.055   4.029   0.797 -0.4142  0.1571  0.0492
 5321TIP3   OH237521   1.181   4.377   8.483  0.4545  0.0006  0.1933
 5321TIP3    H137522   1.188   4.455   8.538  0.0052  0.1773  0.0032
 5321TIP3    H237523   1.246   4.317   8.519 -0.8594 -0.4819  1.9077
 5322TIP3   OH237524   5.812   3.266   0.892  0.5031 -0.2828 -0.4189
 5322TIP3    H137525   5.785   3.237   0.979 -2.1040  3.0370  0.0874
 5322TIP3    H237526   5.901   3.299   0.903  0.9160 -1.6342  0.5005
 5323TIP3   OH237527   4.423   4.726   1.879  0.0876 -0.5436  0.1159
 5323TIP3    H137528   4.408   4.651   1.822 -2.2846 -0.4946  0.5818
 5323TIP3    H237529   4.464   4.690   1.957  0.2329 -1.1324 -0.2264
 5324TIP3   OH237530   0.788   6.276   7.111 -0.5458 -0.0575  0.1391
 5324TIP3    H137531   0.835   6.358   7.096  1.9444 -1.1001  1.5508
 5324TIP3    H237532   0.709   6.283   7.057 -0.2004  3.0318 -0.1348
 5325TIP3   OH237533   3.083   6.039   1.714 -0.0884  0.2577  0.2180
 5325TIP3    H137534   3.151   6.096   1.749  0.5822  0.6424 -1.5884
 5325TIP3    H237535   3.018   6.033   1.784  1.0420  1.1549  1.3973
 5326TIP3   OH237536   5.647   1.753   8.755  0.1982  0.7192  0.1280
 5326TIP3    H137537   5.702   1.734   8.831  2.2201 -2.6740 -1.8937
 5326TIP3    H237538   5.688   1.830   8.714  0.4446  1.1953  1.2448
 5327TIP3   OH237539   3.296   4.689   1.519 -0.5148 -0.3327  0.2959
 5327TIP3    H137540   3.340   4.727   1.595  0.6044 -1.3154  0.1707
 5327TIP3    H237541   3.222   4.748   1.502  0.7133  1.3814  0.5465
 5328TIP3   OH237542   1.454   6.732   6.578 -0.3723  0.0996  0.4538
 5328TIP3    H137543   1.452   6.663   6.644 -0.0663  0.8200  1.2232
 5328TIP3    H237544   1.452   6.685   6.495  0.3399 -0.8597  0.9621
 5329TIP3   OH237545   4.355   1.427   0.070  0.0508  0.3940 -0.6603
 5329TIP3    H137546   4.338   1.445  -0.022 -1.4412  0.2371 -0.4469
 5329TIP3    H237547   4.296   1.355   0.091 -1.1165  1.7414  0.9059
 5330TIP3   OH237548   4.142   1.335   1.211  0.1068 -0.2613 -0.5755
 5330TIP3    H137549   4.152   1.425   1.179  0.7356 -0.1732 -0.1560
 5330TIP3    H237550   4.047   1.323   1.221  0.0813  1.2141  1.7285
 5331TIP3   OH237551   5.478   2.586   7.672 -0.0285  0.1977 -0.0403
 5331TIP3    H137552   5.535   2.509   7.661 -2.1668 -1.2216 -2.4873
 5331TIP3    H237553   5.390   2.552   7.660 -1.1685  2.8633  0.1550
 5332TIP3   OH237554   2.435   6.258   1.765  0.6246 -0.3157  0.3983
 5332TIP3    H137555   2.493   6.322   1.808 -0.8721  1.9475 -0.7383
 5332TIP3    H237556   2.347   6.285   1.789 -0.0706 -2.2362  0.1717
 5333TIP3   OH237557   6.456   6.401   0.602 -0.4505  0.6930 -0.4342
 5333TIP3    H137558   6.529   6.407   0.663 -0.6046  0.4837 -0.2311
 5333TIP3    H237559   6.384   6.366   0.653 -0.9292  1.6325 -0.4315
 5334TIP3   OH237560   2.416   6.659   7.814  0.0395  0.4101 -0.0152
 5334TIP3    H137561   2.483   6.706   7.863  0.7265 -1.9932  1.4837
 5334TIP3    H237562   2.452   6.652   7.725  1.1467  0.3620  0.4270
 5335TIP3   OH237563   5.893   2.098   8.485 -0.2236  0.4132  0.2082
 5335TIP3    H137564   5.926   2.146   8.560 -0.1821  1.2470 -0.3330
 5335TIP3    H237565   5.972   2.073   8.436 -0.2431  4.3192 -2.2873
 5336TIP3   OH237566   4.694   0.725   7.971  0.6895  0.1934  0.3291
 5336TIP3    H137567   4.710   0.632   7.957 -1.0629  0.2522 -2.8974
 5336TIP3    H237568   4.676   0.732   8.065  1.7300 -2.5137  0.8293
 5337TIP3   OH237569   0.144   5.497   7.816  0.1281 -0.7690  0.0048
 5337TIP3    H137570   0.140   5.581   7.769  0.5836 -0.4434  0.5353
 5337TIP3    H237571   0.128   5.519   7.907  0.0956 -1.2835  0.1280
 5338TIP3   OH237572   6.460   5.969   8.497 -0.2630 -0.3337 -0.1556
 5338TIP3    H137573   6.376   6.014   8.504  0.0367 -0.0244  1.9022
 5338TIP3    H237574   6.520   6.035   8.461 -0.8921 -0.6017 -1.7737
 5339TIP3   OH237575   3.350   3.013   7.804  0.4627  0.0441 -0.2385
 5339TIP3    H137576   3.380   2.955   7.734 -0.5079 -0.1673 -0.5055
 5339TIP3    H237577   3.287   3.071   7.761  0.9532  0.8832  0.1616
 5340TIP3   OH237578   1.523   2.097   2.396 -0.1864  0.5315 -0.7386
 5340TIP3    H137579   1.494   2.024   2.452  2.2833  0.4715  0.6155
 5340TIP3    H237580   1.457   2.102   2.327 -0.2748 -3.2612 -1.1414
 5341TIP3   OH237581   0.463   6.732   7.498  0.9821  0.3761 -1.1459
 5341TIP3    H137582   0.450   6.805   7.558  0.0747 -0.7499  0.0944
 5341TIP3    H237583   0.491   6.659   7.554 -1.6077 -1.2215 -1.7417
 5342TIP3   OH237584   5.817   3.102   7.110 -0.4139  0.0417 -0.0773
 5342TIP3    H137585   5.822   3.096   7.205  2.0405  1.0821 -0.0526
 5342TIP3    H237586   5.860   3.023   7.079 -1.8344 -0.6419 -0.3729
 5343TIP3   OH237587   1.882   5.326   5.854 -0.2665  0.3639  0.0941
 5343TIP3    H137588   1.898   5.257   5.918 -1.0229 -1.4201 -1.5477
 5343TIP3    H237589   1.966   5.371   5.845  0.3095 -0.4951  1.0209
 5344TIP3   OH237590   4.677   6.144   1.678 -0.2669  0.1462 -0.1926
 5344TIP3    H137591   4.615   6.217   1.674 -0.6998 -0.1462  0.7910
 5344TIP3    H237592   4.622   6.068   1.699  0.1104 -0.5589 -1.6350
 5345TIP3   OH237593   3.463   4.415   0.585  0.5590  0.5203  0.3675
 5345TIP3    H137594   3.408   4.383   0.513  1.7012 -0.6269 -0.0386
 5345TIP3    H237595   3.467   4.509   0.572 -0.5261  0.5146 -0.1500
 5346TIP3   OH237596   3.704   3.958   8.537  0.2432  0.2319  0.4971
 5346TIP3    H137597   3.665   4.044   8.519  0.1974  0.7677  2.8247
 5346TIP3    H237598   3.637   3.895   8.510  0.9262  0.7429 -2.8830
 5347TIP3   OH237599   3.021   1.198   2.424 -0.4507  0.1465 -0.0501
 5347TIP3    H137600   2.949   1.171   2.482 -0.2480 -0.8998 -0.2645
 5347TIP3    H237601   3.014   1.138   2.349  1.3904 -0.7945  0.4836
 5348TIP3   OH237602   0.842   2.523   7.877  0.4782 -0.2507  0.1212
 5348TIP3    H137603   0.837   2.576   7.797 -1.2863 -1.1582 -0.4231
 5348TIP3    H237604   0.799   2.576   7.944  1.0903  0.1051  0.2348
 5349TIP3   OH237605   0.269   3.881   1.200  0.5952 -0.0085  0.1813
 5349TIP3    H137606   0.221   3.820   1.256  1.0284 -1.7439 -1.2821
 5349TIP3    H237607   0.301   3.948   1.261 -0.4347 -0.8696  1.7420
 5350TIP3   OH237608   3.195   4.993   6.492  0.0517 -0.2160 -0.0999
 5350TIP3    H137609   3.101   4.978   6.493 -0.1802 -0.1127 -4.0029
 5350TIP3    H237610   3.207   5.077   6.536 -1.9639  0.6663 -1.1326
 5351TIP3   OH237611   5.057   2.726   2.001 -0.0697 -0.5443 -0.2952
 5351TIP3    H137612   5.025   2.685   1.920  1.6285  0.7228 -1.6890
 5351TIP3    H237613   5.074   2.653   2.060 -0.3058 -1.5788 -1.4744
 5352TIP3   OH237614   6.724   4.896   7.819 -0.1888 -0.4977  0.1995
 5352TIP3    H137615   6.662   4.840   7.864  1.9588 -2.7040  0.6734
 5352TIP3    H237616   6.760   4.953   7.887  0.5377 -1.4297  0.6306
 5353TIP3   OH237617   2.503   0.572   7.088 -0.4107  0.8857 -0.1285
 5353TIP3    H137618   2.433   0.596   7.028 -0.4390 -1.5913 -1.2268
 5353TIP3    H237619   2.458   0.546   7.168 -0.6077  1.2640 -0.1173
 5354TIP3   OH237620   5.429   5.517   0.367 -0.1409 -0.2180  0.5918
 5354TIP3    H137621   5.476   5.599   0.379 -0.6476 -0.0927  1.8030
 5354TIP3    H237622   5.341   5.534   0.400 -1.2652 -0.2999 -2.0699
 5355TIP3   OH237623   3.128   0.091   7.296 -0.0359 -0.0444  0.0543
 5355TIP3    H137624   3.138   0.093   7.201 -0.7430 -0.2982 -0.0284
 5355TIP3    H237625   3.081   0.010   7.314  1.5929 -0.8940  0.7769
 5356TIP3   OH237626   0.111   4.109   1.511 -0.3788  0.1258 -0.1876
 5356TIP3    H137627   0.084   4.024   1.546 -0.4801  0.1063 -0.3125
 5356TIP3    H237628   0.099   4.100   1.416  1.4260 -0.4004 -0.4060
 5357TIP3   OH237629   4.625   1.877   0.101  0.6701  0.0563  0.1077
 5357TIP3    H137630   4.657   1.894   0.013 -0.6877  0.1531 -0.3874
 5357TIP3    H237631   4.558   1.809   0.090 -0.5308  1.0777  0.8479
 5358TIP3   OH237632   2.701   0.423   7.302 -0.2453 -0.1203 -0.6297
 5358TIP3    H137633   2.778   0.437   7.356  1.6710 -1.5715 -2.7614
 5358TIP3    H237634   2.627   0.441   7.359  1.6335 -0.3952  2.0461
 5359TIP3   OH237635   3.428   6.665   7.120 -0.5109  0.4756 -0.1372
 5359TIP3    H137636   3.367   6.608   7.166 -0.5272  0.6678  0.0831
 5359TIP3    H237637   3.398   6.664   7.029 -0.8556  0.5820 -0.0265
 5360TIP3   OH237638   5.451   2.407   1.316 -0.1390  0.8077  0.6350
 5360TIP3    H137639   5.439   2.441   1.228  0.6336 -2.0476 -0.7055
 5360TIP3    H237640   5.542   2.427   1.338 -0.4920  2.0164  1.0619
 5361TIP3   OH237641   1.185   4.904   0.763  0.7717 -0.3547 -0.2210
 5361TIP3    H137642   1.103   4.893   0.812  1.0615  0.1398  0.3807
 5361TIP3    H237643   1.160   4.956   0.686  0.7925  1.1258  0.7402
 5362TIP3   OH237644   4.541   0.037   1.201  0.6214 -0.1438  0.2693
 5362TIP3    H137645   4.588  -0.037   1.164 -1.1907 -0.8563 -0.7276
 5362TIP3    H237646   4.570   0.112   1.149  1.1538 -0.4388  0.1340
 5363TIP3   OH237647   4.309   0.605   1.977 -0.2545 -0.2427 -0.0504
 5363TIP3    H137648   4.299   0.699   1.991  0.6032 -0.0268 -0.7628
 5363TIP3    H237649   4.318   0.568   2.065  2.3514  0.7279  0.1812
 5364TIP3   OH237650   1.990   4.062   1.105  0.2133 -0.1819 -0.6851
 5364TIP3    H137651   1.914   4.026   1.152  0.5537 -0.7585 -0.5707
 5364TIP3    H237652   2.060   4.062   1.170  0.4901 -0.2811 -0.9816
 5365TIP3   OH237653   2.077   3.635   0.231 -0.1816 -0.4406  0.5191
 5365TIP3    H137654   2.161   3.641   0.277 -0.1514 -0.1567  0.4305
 5365TIP3    H237655   2.086   3.557   0.176  0.7201  0.5922 -0.8509
 5366TIP3   OH237656   0.762   0.010   1.527 -0.2528  0.3313 -0.9386
 5366TIP3    H137657   0.742   0.083   1.586  0.2647  0.4550 -0.9075
 5366TIP3    H237658   0.787  -0.062   1.586  2.7540  1.1797 -0.9840
 5367TIP3   OH237659   0.694   1.944   7.021 -0.1572 -0.6425 -0.0409
 5367TIP3    H137660   0.666   2.030   7.051 -1.3579 -1.0512  0.0826
 5367TIP3    H237661   0.712   1.955   6.928  1.6248  0.1707  0.3621
 5368TIP3   OH237662   6.601   2.197   0.679 -0.0261  0.2192  0.3610
 5368TIP3    H137663   6.519   2.147   0.683 -1.0384  1.4027 -2.5958
 5368TIP3    H237664   6.574   2.287   0.702 -0.0151  0.9525 -2.1832
 5369TIP3   OH237665   2.630   2.365   1.282 -0.1379  0.3855  0.3805
 5369TIP3    H137666   2.539   2.385   1.303 -0.1466  1.6268 -0.7170
 5369TIP3    H237667   2.634   2.364   1.187  1.2173  1.6258  0.3740
 5370TIP3   OH237668   4.849   4.387   0.600 -0.0416  0.0645  0.0093
 5370TIP3    H137669   4.800   4.307   0.581  0.3304 -0.1246 -0.1757
 5370TIP3    H237670   4.786   4.457   0.589 -0.2788 -0.1788 -0.1975
 5371TIP3   OH237671   5.935   6.350   8.552  0.3051  0.2885  0.3373
 5371TIP3    H137672   5.972   6.295   8.620  0.9426 -1.0928 -1.0658
 5371TIP3    H237673   5.896   6.424   8.599  1.7096 -0.0294  2.1034
 5372TIP3   OH237674   4.434   0.907   0.671  0.9874  0.5366  0.1204
 5372TIP3    H137675   4.452   0.843   0.740  1.4759  1.0894  0.5170
 5372TIP3    H237676   4.364   0.868   0.620 -0.3077  0.6947  1.7040
 5373TIP3   OH237677   0.288   0.777   1.042 -0.2278 -0.2541  0.3232
 5373TIP3    H137678   0.273   0.860   1.087 -0.3947 -0.2069  0.1838
 5373TIP3    H237679   0.206   0.760   0.995  0.3084  0.2280 -0.8148
 5374TIP3   OH237680   2.903   4.764   0.304  0.1058 -0.0583  0.4887
 5374TIP3    H137681   2.948   4.769   0.219 -0.2405 -0.4433  0.2749
 5374TIP3    H237682   2.852   4.683   0.298  2.3754 -1.7251  2.2149
 5375TIP3   OH237683   1.595   4.866   8.366 -0.3379  0.4111 -1.0133
 5375TIP3    H137684   1.516   4.853   8.418 -0.1237 -2.2739 -1.2275
 5375TIP3    H237685   1.658   4.903   8.427 -1.0070  0.1849 -0.1725
 5376TIP3   OH237686   2.974   4.307   0.727 -0.6787 -0.1319  0.1795
 5376TIP3    H137687   2.996   4.393   0.761  1.0663 -0.8400  0.9720
 5376TIP3    H237688   3.059   4.263   0.717 -1.4617 -1.4540 -1.0261
 5377TIP3   OH237689   5.055   1.590   0.029 -0.6901 -0.1685  0.3669
 5377TIP3    H137690   5.075   1.679  -0.000  0.6352 -0.4339  0.3732
 5377TIP3    H237691   4.961   1.590   0.043 -0.8973  0.8875 -0.8065
 5378TIP3   OH237692   2.853   0.797   6.622  0.4182 -0.4138 -0.3943
 5378TIP3    H137693   2.839   0.705   6.603  1.8187 -0.6129 -0.5999
 5378TIP3    H237694   2.880   0.835   6.538  0.2202  0.1091 -0.2311
 5379TIP3   OH237695   4.301   5.903   0.894 -0.2002  0.0220  0.4304
 5379TIP3    H137696   4.382   5.852   0.899  0.0085  0.3151  0.1035
 5379TIP3    H237697   4.329   5.994   0.906 -0.6165  0.0372  1.3612
 5380TIP3   OH237698   5.722   3.364   1.539 -0.8205  0.3884 -0.1454
 5380TIP3    H137699   5.628   3.346   1.542 -1.0833  1.0255 -2.3282
 5380TIP3    H237700   5.728   3.446   1.491  0.8445  0.6636  0.4935
 5381TIP3   OH237701   3.829   2.262   6.697 -0.3096 -0.4206 -0.3829
 5381TIP3    H137702   3.889   2.198   6.659 -0.6806 -0.7572 -0.4127
 5381TIP3    H237703   3.794   2.310   6.621  0.9286  0.7038 -0.2853
 5382TIP3   OH237704   2.498   6.069   1.571  0.3828 -0.2920  0.3376
 5382TIP3    H137705   2.479   6.149   1.620  0.9918  0.7882 -1.0917
 5382TIP3    H237706   2.528   6.007   1.637  0.5075  0.8616  1.4119
 5383TIP3   OH237707   6.688   6.739   8.159 -0.8450 -0.2109  0.4881
 5383TIP3    H137708   6.632   6.696   8.224  0.4503 -0.0304  1.7712
 5383TIP3    H237709   6.735   6.806   8.208  0.1373 -0.0288 -0.6592
 5384TIP3   OH237710   5.601   6.582   1.095 -0.2994 -0.3178  0.0529
 5384TIP3    H137711   5.533   6.522   1.123 -0.4194  0.0502  0.5639
 5384TIP3    H237712   5.639   6.615   1.177 -2.1479  2.4982 -0.0772
 5385TIP3   OH237713   6.402   2.985   7.599  0.3205  0.1040  0.0078
 5385TIP3    H137714   6.367   3.060   7.647 -0.6530 -0.1572 -0.2639
 5385TIP3    H237715   6.495   2.983   7.621  0.7567  2.4382 -1.3528
 5386TIP3   OH237716   5.368   3.918   1.467 -0.0369 -0.2596 -0.2036
 5386TIP3    H137717   5.285   3.966   1.472 -1.4332 -2.4846 -0.8401
 5386TIP3    H237718   5.406   3.945   1.383  0.5292  1.6730  0.6226
 5387TIP3   OH237719   6.678   3.240   7.017 -0.2946 -0.7065  0.3367
 5387TIP3    H137720   6.592   3.212   7.048 -0.8789 -0.6277 -1.1130
 5387TIP3    H237721   6.665   3.257   6.923  1.5323 -1.6203 -0.1282
 5388TIP3   OH237722   1.145   3.131   1.361 -0.3375  0.1330  0.1709
 5388TIP3    H137723   1.123   3.204   1.419  0.7001  0.3490  0.3266
 5388TIP3    H237724   1.229   3.099   1.394 -0.4909 -0.7546 -0.2675
 5389TIP3   OH237725   5.550   1.024   0.356  0.2870  0.5854 -0.1099
 5389TIP3    H137726   5.572   1.064   0.440  0.4414  1.5580 -0.5904
 5389TIP3    H237727   5.470   0.975   0.372 -0.2390  1.5864  0.3733
 5390TIP3   OH237728   6.555   0.533   0.053  0.0753 -0.0286 -0.0621
 5390TIP3    H137729   6.548   0.623   0.085 -1.0727 -0.5612  1.2940
 5390TIP3    H237730   6.479   0.521  -0.003  0.4956 -0.0168 -0.6476
 5391TIP3   OH237731   6.764   0.272   1.292 -0.0863  0.5759 -0.0901
 5391TIP3    H137732   6.789   0.224   1.371 -0.1991 -1.5164 -1.2730
 5391TIP3    H237733   6.733   0.205   1.231 -0.5623  2.1934 -1.7186
 5392TIP3   OH237734   5.304   1.719   0.282  0.4416  0.4169 -0.0488
 5392TIP3    H137735   5.272   1.654   0.345  1.8303 -0.3157 -0.0504
 5392TIP3    H237736   5.374   1.673   0.235  1.4293  1.8987 -0.0921
 5393TIP3   OH237737   3.959   3.201   1.495  0.7493  0.5042  0.4783
 5393TIP3    H137738   3.972   3.293   1.520  1.1199  0.2298  1.3426
 5393TIP3    H237739   3.903   3.166   1.563 -0.8212  0.4977 -0.7598
 5394TIP3   OH237740   2.308   0.094   8.118  0.3242 -0.0982 -0.8992
 5394TIP3    H137741   2.322   0.004   8.090 -1.8815 -0.5542 -0.7207
 5394TIP3    H237742   2.321   0.146   8.038 -2.6016 -1.0558 -2.1209
 5395TIP3   OH237743   1.152   4.763   5.869 -0.7422  0.0728 -0.1915
 5395TIP3    H137744   1.081   4.799   5.922 -0.2170  0.7159  0.0996
 5395TIP3    H237745   1.119   4.679   5.838 -1.3283  0.0028  0.5811
 5396TIP3   OH237746   2.953   5.456   1.674  0.1453 -0.9710 -0.0630
 5396TIP3    H137747   2.943   5.507   1.594  2.0721  0.0318  0.2843
 5396TIP3    H237748   2.883   5.391   1.669 -1.5828  0.8404 -1.1663
 5397TIP3   OH237749   5.960   3.384   1.671 -0.1098 -0.1102  0.2549
 5397TIP3    H137750   5.889   3.382   1.607  1.0596 -0.1190 -1.0938
 5397TIP3    H237751   5.919   3.356   1.753 -2.2554  2.4100  0.1742
 5398TIP3   OH237752   2.543   4.730   1.487  0.1808 -0.8525  0.3812
 5398TIP3    H137753   2.615   4.719   1.549  0.0225 -0.2243  0.6851
 5398TIP3    H237754   2.581   4.778   1.414  0.5509 -2.2331 -0.3559
 5399TIP3   OH237755   2.598   4.924   8.081 -0.4145  0.3346  0.0038
 5399TIP3    H137756   2.603   4.999   8.140  0.1818  0.3049 -0.0033
 5399TIP3    H237757   2.505   4.900   8.080 -0.8799  2.0396 -1.2162
 5400TIP3   OH237758   0.897   0.663   7.358 -0.6262 -0.3474  0.2187
 5400TIP3    H137759   0.981   0.659   7.314 -2.1432  3.9263 -4.0056
 5400TIP3    H237760   0.912   0.721   7.433  0.2516  0.4171 -0.5230
 5401TIP3   OH237761   6.380   3.225   1.288  0.3255  0.0629 -0.0120
 5401TIP3    H137762   6.302   3.260   1.333 -1.8335 -1.1032 -2.5692
 5401TIP3    H237763   6.406   3.150   1.341 -0.1593  0.5835  1.0015
 5402TIP3   OH237764   2.902   2.912   6.653  0.1371 -0.0692  0.3353
 5402TIP3    H137765   2.871   3.000   6.633 -2.2389 -1.2236 -1.4724
 5402TIP3    H237766   2.903   2.908   6.749 -1.1526  1.4453  0.4421
 5403TIP3   OH237767   1.272   5.464   0.710  0.0908 -0.2735  0.2822
 5403TIP3    H137768   1.312   5.419   0.636  1.1638  0.1427  0.5998
 5403TIP3    H237769   1.179   5.444   0.702  0.2575 -0.6603 -0.8823
 5404TIP3   OH237770   1.456   1.883   2.559 -0.4679  0.1687  0.3771
 5404TIP3    H137771   1.360   1.892   2.562 -0.5070 -0.2944  0.4534
 5404TIP3    H237772   1.473   1.832   2.480 -0.1131  2.5490 -1.2062
 5405TIP3   OH237773   2.187   4.164   0.593  0.3849  0.6652 -0.3958
 5405TIP3    H137774   2.178   4.237   0.532  1.1929  0.4884 -0.7346
 5405TIP3    H237775   2.242   4.198   0.664 -0.0807  0.6907 -0.0349
 5406TIP3   OH237776   4.099   1.249   7.659 -0.0023  0.7853  0.1276
 5406TIP3    H137777   4.178   1.195   7.654 -1.3668 -1.3066 -0.3010
 5406TIP3    H237778   4.109   1.315   7.591  1.3480  0.5404  0.0718
 5407TIP3   OH237779   0.096   1.811   2.478  0.2642 -0.3048  0.3637
 5407TIP3    H137780   0.023   1.864   2.445  0.9496  0.8439  0.6149
 5407TIP3    H237781   0.115   1.849   2.564  0.7426 -1.0078  0.5731
 5408TIP3   OH237782   0.777   2.283   8.829  0.1270 -0.6735 -0.5869
 5408TIP3    H137783   0.709   2.238   8.880 -2.1601  0.8109 -2.1367
 5408TIP3    H237784   0.785   2.231   8.749  0.2052 -0.3889 -0.7668
 5409TIP3   OH237785   3.736   3.655   1.001  0.1269 -0.0205 -0.1815
 5409TIP3    H137786   3.700   3.739   0.977  0.1359  0.7098  2.1016
 5409TIP3    H237787   3.672   3.591   0.971 -0.7743  0.9304 -0.3213
 5410TIP3   OH237788   6.657   5.468   1.618 -0.0255 -0.4416  0.1013
 5410TIP3    H137789   6.642   5.376   1.599  1.4443 -0.3196 -1.9618
 5410TIP3    H237790   6.746   5.472   1.651  0.1083  0.2938 -0.3204
 5411TIP3   OH237791   2.709   0.235   6.642 -0.3271 -0.1431  0.0745
 5411TIP3    H137792   2.690   0.157   6.695 -0.3059 -1.1328 -1.3342
 5411TIP3    H237793   2.636   0.294   6.661  0.3921  0.1607  2.2888
 5412TIP3   OH237794   3.269   6.400   2.031 -0.2298 -0.0660 -0.3276
 5412TIP3    H137795   3.256   6.316   1.987  1.1989 -0.5635  0.1301
 5412TIP3    H237796   3.305   6.377   2.116  1.2744  1.0352 -0.6213
 5413TIP3   OH237797   4.557   5.326   7.635 -0.0316  0.4859 -0.0978
 5413TIP3    H137798   4.471   5.357   7.606  0.7620  1.3668 -1.7097
 5413TIP3    H237799   4.572   5.370   7.719 -1.2637  0.0875  0.3460
 5414TIP3   OH237800   3.556   4.920   8.083 -0.2917  0.2138  0.5616
 5414TIP3    H137801   3.582   4.830   8.102 -1.5268 -0.3321 -0.2048
 5414TIP3    H237802   3.602   4.973   8.148  1.3978 -0.8407  0.2663
 5415TIP3   OH237803   2.947   5.676   7.871 -0.5990  0.0640 -0.0844
 5415TIP3    H137804   2.966   5.583   7.853 -0.4368  0.1300 -0.2545
 5415TIP3    H237805   3.025   5.708   7.915 -0.5701  0.1751 -0.2164
 5416TIP3   OH237806   4.429   5.526   1.075 -0.0301  0.0294 -0.2313
 5416TIP3    H137807   4.418   5.512   0.981  0.7171  0.1019 -0.3376
 5416TIP3    H237808   4.403   5.443   1.115  2.2137 -0.9861 -0.6998
 5417TIP3   OH237809   1.985   1.714   0.692  0.5028 -0.3038 -0.4406
 5417TIP3    H137810   2.035   1.722   0.610  1.5973 -1.0590  0.1353
 5417TIP3    H237811   1.996   1.798   0.735  0.0421  0.0483 -1.0034
 5418TIP3   OH237812   5.854   2.182   0.666  0.0087 -0.2113  0.1927
 5418TIP3    H137813   5.767   2.149   0.644 -0.4179  0.6077  0.5774
 5418TIP3    H237814   5.837   2.265   0.711  0.9640 -0.3637  0.8748
 5419TIP3   OH237815   0.438   1.559   8.558  0.3918  0.1245 -0.3519
 5419TIP3    H137816   0.423   1.466   8.576 -1.9259  0.4905 -0.0875
 5419TIP3    H237817   0.384   1.605   8.622  0.4946  1.6531 -1.3171
 5420TIP3   OH237818   6.084   6.424   6.338 -0.2801 -0.1860 -0.2745
 5420TIP3    H137819   6.149   6.485   6.372 -1.6557  1.4586 -0.4198
 5420TIP3    H237820   6.045   6.469   6.263 -3.8933  0.5209  1.7479
 5421TIP3   OH237821   2.390   0.260   1.271  0.3992  0.4818  0.2962
 5421TIP3    H137822   2.368   0.174   1.307  0.7429  0.2883  0.0425
 5421TIP3    H237823   2.355   0.259   1.182 -0.4348  0.9561  0.6039
 5422TIP3   OH237824   3.560   4.496   6.656 -0.1442 -0.3391 -0.8907
 5422TIP3    H137825   3.517   4.410   6.658 -1.3566  0.2147  1.6823
 5422TIP3    H237826   3.645   4.479   6.616 -0.6672 -2.5772 -1.2148
 5423TIP3   OH237827   5.866   5.645   2.250 -0.2218 -0.8843  0.1504
 5423TIP3    H137828   5.900   5.651   2.340  0.4046 -0.0324 -0.1328
 5423TIP3    H237829   5.921   5.578   2.208 -1.0073 -1.8440  0.5962
 5424TIP3   OH237830   1.764   1.653   1.604  0.6103 -0.0474 -0.1392
 5424TIP3    H137831   1.826   1.587   1.573 -0.0904  0.0793 -1.9619
 5424TIP3    H237832   1.774   1.653   1.699 -0.3046 -3.7263  0.1022
 5425TIP3   OH237833   0.032   1.681   6.607 -0.3365 -0.3324 -0.1630
 5425TIP3    H137834  -0.003   1.766   6.631  0.6518  0.0067  0.1039
 5425TIP3    H237835   0.098   1.700   6.541  0.2718 -0.8399  0.2892
 5426TIP3   OH237836   0.817   4.724   8.084 -0.3165  0.2154  0.2726
 5426TIP3    H137837   0.752   4.743   8.016 -1.2978 -0.9726  0.8401
 5426TIP3    H237838   0.852   4.638   8.060  0.9812  0.7862  0.0450
 5427TIP3   OH237839   3.644   2.268   7.669  0.0402  0.5852  0.2366
 5427TIP3    H137840   3.707   2.310   7.728 -1.2855  2.2883  0.5386
 5427TIP3    H237841   3.604   2.199   7.722  0.8770  0.2132  0.3953
 5428TIP3   OH237842   4.094   2.893   8.526 -0.2028 -0.0408  0.9509
 5428TIP3    H137843   4.001   2.870   8.517 -0.7495  2.6387 -2.6020
 5428TIP3    H237844   4.135   2.815   8.563 -3.4742 -2.2866  0.2403
 5429TIP3   OH237845   3.713   5.897   0.196 -0.1089 -0.4227 -0.6371
 5429TIP3    H137846   3.775   5.921   0.266  0.3032 -0.3446 -1.0277
 5429TIP3    H237847   3.689   5.981   0.156  0.5055 -0.5592 -1.3039
 5430TIP3   OH237848   6.258   6.179   8.479 -1.0338  0.6741  0.0529
 5430TIP3    H137849   6.243   6.258   8.427 -1.9023  0.9515  0.7071
 5430TIP3    H237850   6.244   6.207   8.569  0.5481  0.2233  0.4754
 5431TIP3   OH237851   0.508   3.103   0.659 -0.0284 -0.2742 -0.5678
 5431TIP3    H137852   0.563   3.156   0.717 -0.7745  0.6150 -0.6341
 5431TIP3    H237853   0.476   3.032   0.715  0.2284 -0.1154 -0.2136
 5432TIP3   OH237854   4.404   2.253   0.836 -0.3681 -0.1272  0.0060
 5432TIP3    H137855   4.461   2.270   0.911 -0.1669 -0.4722 -0.0669
 5432TIP3    H237856   4.455   2.195   0.779 -0.3945  0.3812 -0.5537
 5433TIP3   OH237857   3.962   4.374   6.361  0.1363 -0.4980  0.8144
 5433TIP3    H137858   3.951   4.373   6.266  2.9710 -1.1501  0.3964
 5433TIP3    H237859   3.978   4.282   6.384  1.5703 -0.1015  1.5559
 5434TIP3   OH237860   0.080   1.880   7.975  0.2364  0.1328  0.3587
 5434TIP3    H137861   0.161   1.848   7.936 -0.6305  0.0031 -1.4481
 5434TIP3    H237862   0.011   1.832   7.930 -1.0205  2.8871 -0.8929
 5435TIP3   OH237863   5.889   3.526   8.705 -0.0107 -0.1104 -0.1706
 5435TIP3    H137864   5.911   3.600   8.761  2.2955 -2.2871  2.0535
 5435TIP3    H237865   5.957   3.527   8.637 -0.6451  0.3842 -0.8247
 5436TIP3   OH237866   0.700   2.509   0.307 -0.7488  0.3493  0.2288
 5436TIP3    H137867   0.653   2.591   0.321 -3.5098 -0.8504 -1.0559
 5436TIP3    H237868   0.717   2.507   0.212  0.9524  0.2046  0.5002
 5437TIP3   OH237869   4.894   6.618   7.641  0.3785  0.0325 -0.2459
 5437TIP3    H137870   4.830   6.683   7.613  0.1466  0.4249  1.0963
 5437TIP3    H237871   4.912   6.566   7.563 -1.4378  0.0276 -0.7026
 5438TIP3   OH237872   5.707   0.836   7.645  0.4183 -0.3832 -0.3031
 5438TIP3    H137873   5.645   0.837   7.572 -0.0041 -0.2437  0.0469
 5438TIP3    H237874   5.755   0.919   7.637  0.1593 -0.2253 -0.2492
 5439TIP3   OH237875   4.558   3.481   1.107 -0.0287  0.3554 -0.0470
 5439TIP3    H137876   4.591   3.447   1.190 -2.2500  0.0154  0.7733
 5439TIP3    H237877   4.490   3.544   1.133 -1.4198 -0.4471 -1.5723
 5440TIP3   OH237878   3.704   2.752   0.770 -0.2577  0.2713 -0.0135
 5440TIP3    H137879   3.743   2.760   0.857 -1.6721  0.9297  0.5838
 5440TIP3    H237880   3.761   2.805   0.714  1.6015 -1.4447  0.1430
 5441TIP3   OH237881   0.800   6.535   7.433  0.0329 -0.0380  0.0740
 5441TIP3    H137882   0.822   6.628   7.444  1.6554 -0.2817 -0.7677
 5441TIP3    H237883   0.712   6.535   7.395 -0.9127  1.0651  2.0994
 5442TIP3   OH237884   1.329   3.063   2.262 -0.0896 -0.1116 -0.2515
 5442TIP3    H137885   1.287   2.999   2.205 -0.6037  0.7176 -0.8317
 5442TIP3    H237886   1.407   3.090   2.215 -0.3825  0.3904 -0.4543
 5443TIP3   OH237887   2.587   3.874   7.886 -0.3922  0.0688  0.0801
 5443TIP3    H137888   2.646   3.913   7.951 -1.5310 -0.4915  1.4860
 5443TIP3    H237889   2.641   3.867   7.807  1.7599 -1.2964  1.5674
 5444TIP3   OH237890   4.903   0.628   8.266 -0.5156  0.3807  0.4110
 5444TIP3    H137891   4.914   0.560   8.200 -1.6091  0.5881 -0.0146
 5444TIP3    H237892   4.982   0.681   8.259  0.4481 -0.9377  0.8909
 5445TIP3   OH237893   2.286   1.252   2.147 -0.0545  0.1349  0.1179
 5445TIP3    H137894   2.278   1.343   2.176 -1.6806  0.5933 -1.5955
 5445TIP3    H237895   2.372   1.224   2.179  0.2114  2.0510  1.2224
 5446TIP3   OH237896   4.341   6.549   2.322  0.0951 -0.0736 -0.1258
 5446TIP3    H137897   4.275   6.616   2.306  0.6579  1.2451  2.6090
 5446TIP3    H237898   4.423   6.589   2.295  0.1982 -0.4615 -0.4000
 5447TIP3   OH237899   0.944   2.539   8.743  0.4954 -0.1296  0.3579
 5447TIP3    H137900   0.936   2.488   8.662 -0.3684 -0.1598  0.4558
 5447TIP3    H237901   0.900   2.486   8.809 -1.0221  1.0310  0.3229
 5448TIP3   OH237902   0.669   0.005   6.811 -1.2461  0.0598 -0.6322
 5448TIP3    H137903   0.620  -0.070   6.775 -2.2098  0.0397  0.6555
 5448TIP3    H237904   0.609   0.045   6.874  0.1360  0.4882  0.4678
 5449TIP3   OH237905   1.392   0.539   1.394 -0.5305 -0.8004 -0.1474
 5449TIP3    H137906   1.454   0.467   1.411  1.1819  0.9356  1.4815
 5449TIP3    H237907   1.391   0.589   1.476 -0.7198  1.6937 -1.5749
 5450TIP3   OH237908   3.309   0.191   2.123 -0.9531 -0.0747 -0.6778
 5450TIP3    H137909   3.381   0.216   2.065 -1.4408 -0.4768 -1.4960
 5450TIP3    H237910   3.349   0.179   2.209 -0.4451  1.9189 -0.6019
 5451TIP3   OH237911   3.440   3.852   8.467  0.3045  0.0130 -0.3653
 5451TIP3    H137912   3.455   3.777   8.408  0.3204 -0.5822  0.3817
 5451TIP3    H237913   3.402   3.919   8.410 -2.0486 -1.3939 -0.6050
 5452TIP3   OH237914   3.048   5.443   1.205  0.6602 -0.5363  0.3205
 5452TIP3    H137915   3.110   5.407   1.269  2.3603 -1.1107 -1.5217
 5452TIP3    H237916   3.072   5.535   1.198  1.2553 -0.7209 -0.2649
 5453TIP3   OH237917   6.458   2.838   7.080 -0.7451  0.1127 -0.0174
 5453TIP3    H137918   6.436   2.767   7.019 -1.1835 -0.1623  0.4494
 5453TIP3    H237919   6.536   2.879   7.042  0.0910 -1.2100  0.1666
 5454TIP3   OH237920   4.397   2.586   0.894  0.8571  0.2626  0.1959
 5454TIP3    H137921   4.415   2.581   0.800  0.2631 -3.4969  0.1056
 5454TIP3    H237922   4.303   2.571   0.901  1.2576 -2.2975  1.3694
 5455TIP3   OH237923   2.337   3.662   0.364  0.0882 -0.0549  0.9467
 5455TIP3    H137924   2.315   3.740   0.414 -1.0336 -0.4917  1.1624
 5455TIP3    H237925   2.375   3.602   0.428  1.7734  0.6126  0.6181
 5456TIP3   OH237926   2.202   4.819   1.340 -0.6593 -0.4521 -0.6588
 5456TIP3    H137927   2.295   4.833   1.328 -0.3084 -0.0394  2.0801
 5456TIP3    H237928   2.164   4.906   1.346 -0.8234 -0.5955  0.6763
 5457TIP3   OH237929   4.031   5.238   0.556  0.2567 -0.2415 -0.3720
 5457TIP3    H137930   4.016   5.148   0.587  3.1463 -0.6363  0.1138
 5457TIP3    H237931   3.956   5.256   0.499 -0.4605 -2.9358 -0.4253
 5458TIP3   OH237932   4.107   4.308   1.621 -1.0890  0.2783  0.2865
 5458TIP3    H137933   4.120   4.284   1.529 -1.2315 -1.0818  0.6010
 5458TIP3    H237934   4.088   4.402   1.619 -2.6094 -0.0225 -1.2274
 5459TIP3   OH237935   1.699   3.770   0.548 -0.3794  0.5308  0.2874
 5459TIP3    H137936   1.666   3.850   0.507  0.7723  2.0221  2.1005
 5459TIP3    H237937   1.624   3.711   0.547 -1.2481  1.5800 -1.1931
 5460TIP3   OH237938   5.948   5.095   7.651  0.0744 -0.2456  0.1797
 5460TIP3    H137939   5.921   5.003   7.642 -0.2330 -0.0061 -2.0743
 5460TIP3    H237940   5.872   5.139   7.687 -0.1792 -0.7079  0.2217
 5461TIP3   OH237941   3.084   2.529   1.202  0.2530 -0.4841 -0.4220
 5461TIP3    H137942   3.060   2.453   1.149  0.5068 -0.5074 -0.5042
 5461TIP3    H237943   3.001   2.561   1.237  0.1225 -0.6727 -0.5582
 5462TIP3   OH237944   3.757   3.054   6.443 -0.0212  0.0422  0.1497
 5462TIP3    H137945   3.670   3.020   6.422 -0.4299 -0.0406  1.8338
 5462TIP3    H237946   3.743   3.113   6.517  0.9285  2.5284 -1.5395
 5463TIP3   OH237947   4.660   0.941   6.846 -0.2336 -0.5390  0.3387
 5463TIP3    H137948   4.574   0.951   6.805 -1.2066 -2.5904  1.6717
 5463TIP3    H237949   4.721   0.938   6.773 -1.5459 -1.1672 -0.7899
 5464TIP3   OH237950   5.615   5.500   8.635  0.0723  0.0511  0.5241
 5464TIP3    H137951   5.702   5.460   8.623 -0.7742 -2.2477  1.5439
 5464TIP3    H237952   5.584   5.466   8.719 -2.5642 -0.6568 -0.6325
 5465TIP3   OH237953   6.725   1.448   7.569  0.0068 -0.5842 -0.3432
 5465TIP3    H137954   6.689   1.536   7.557  0.0246 -0.7492 -1.8954
 5465TIP3    H237955   6.803   1.446   7.513  0.8538 -1.1386  0.8030
 5466TIP3   OH237956   0.657   1.553   0.751 -0.3566 -0.5794 -0.2677
 5466TIP3    H137957   0.728   1.617   0.736 -1.3380  0.3807 -0.9692
 5466TIP3    H237958   0.629   1.528   0.663 -0.6816 -1.1901  0.0096
 5467TIP3   OH237959   0.914   1.461   0.482 -0.1688  0.1950  0.5181
 5467TIP3    H137960   0.881   1.525   0.544  0.9708  0.3942  0.9423
 5467TIP3    H237961   0.880   1.490   0.397  0.9418  1.8301  0.5774
 5468TIP3   OH237962   5.400   1.634   8.728 -0.5823  0.5831 -0.4013
 5468TIP3    H137963   5.407   1.591   8.813 -1.3752  0.0388 -0.6050
 5468TIP3    H237964   5.485   1.677   8.716 -0.9649  1.9127  1.3260
 5469TIP3   OH237965   4.712   4.552   8.024  0.5536  0.0265  0.2644
 5469TIP3    H137966   4.737   4.585   8.110 -1.6491  0.4786  0.8105
 5469TIP3    H237967   4.744   4.618   7.962 -2.9355  3.0102  1.2659
 5470TIP3   OH237968   1.702   5.494   1.568 -0.2778 -0.9470  0.2160
 5470TIP3    H137969   1.794   5.500   1.544 -0.3911 -3.3570 -1.0898
 5470TIP3    H237970   1.674   5.585   1.577  2.7907 -0.0967  3.1803
 5471TIP3   OH237971   5.061   4.426   8.677  0.1426  0.0728 -0.5167
 5471TIP3    H137972   5.047   4.397   8.767 -1.1466 -0.4782 -0.8703
 5471TIP3    H237973   5.128   4.495   8.684 -1.4148  1.5217  1.1208
 5472TIP3   OH237974   5.616   6.268   0.697  0.1831 -0.1591  0.6182
 5472TIP3    H137975   5.640   6.203   0.631  0.1195 -1.2670  1.6467
 5472TIP3    H237976   5.557   6.328   0.652  1.7001  0.3050 -0.8775
 5473TIP3   OH237977   3.925   2.966   7.399 -0.4483 -0.0355  0.4740
 5473TIP3    H137978   4.003   2.930   7.441 -0.2788  0.5483  0.6730
 5473TIP3    H237979   3.950   2.979   7.307 -0.1408  0.6246  0.6463
 5474TIP3   OH237980   1.758   2.469   0.267 -0.4474  0.2876 -0.1638
 5474TIP3    H137981   1.797   2.496   0.184 -1.0348  0.9677 -0.2299
 5474TIP3    H237982   1.673   2.433   0.242 -0.9464  1.1901  0.1997
 5475TIP3   OH237983   1.675   5.453   0.421 -0.5055 -0.5003 -0.0968
 5475TIP3    H137984   1.761   5.495   0.416 -0.9625  0.3405 -1.2998
 5475TIP3    H237985   1.658   5.444   0.515  0.8459 -0.6031  0.1584
 5476TIP3   OH237986   1.259   2.081   7.493 -0.3483 -0.2445 -0.0994
 5476TIP3    H137987   1.348   2.071   7.526 -0.5451 -0.7541  0.2708
 5476TIP3    H237988   1.212   2.124   7.564 -0.4977 -0.3383 -0.1426
 5477TIP3   OH237989   2.892   3.071   1.183  0.4511  0.1765  0.2489
 5477TIP3    H137990   2.872   3.163   1.165 -3.3192 -0.6397 -0.5414
 5477TIP3    H237991   2.899   3.067   1.279 -1.7636  0.9692  0.5001
 5478TIP3   OH237992   2.544   4.419   1.544  0.1806  0.1741  0.8581
 5478TIP3    H137993   2.450   4.401   1.557  0.0249  0.0795 -0.2894
 5478TIP3    H237994   2.574   4.452   1.629 -1.1903  1.4760  0.8778
 5479TIP3   OH237995   2.964   2.162   7.573  0.3933  0.1467  0.4847
 5479TIP3    H137996   2.978   2.257   7.583 -0.8295  0.4061 -0.0591
 5479TIP3    H237997   2.998   2.143   7.485  2.3245 -0.3022  1.2714
 5480TIP3   OH237998   1.354   3.974   7.511 -0.0570  0.3397  0.1402
 5480TIP3    H137999   1.377   3.990   7.602 -1.0086  0.7249  0.3271
 5480TIP3    H238000   1.324   3.883   7.510  0.2702  0.2321  0.1465
 5481TIP3   OH238001   4.312   0.897   2.057 -0.5711  0.1586 -0.3317
 5481TIP3    H138002   4.388   0.956   2.055  0.0966 -0.6088  1.0791
 5481TIP3    H238003   4.236   0.956   2.056  0.0561  1.2920  3.2526
 5482TIP3   OH238004   2.443   1.230   0.509 -0.8100 -0.2756 -0.1653
 5482TIP3    H138005   2.355   1.255   0.482 -1.5136 -2.2170  0.1326
 5482TIP3    H238006   2.499   1.255   0.436 -1.8398 -0.3214 -1.0019
 5483TIP3   OH238007   4.004   5.363   0.838  0.1617  0.2898  0.2050
 5483TIP3    H138008   3.966   5.276   0.848  2.1605 -0.5563  1.0139
 5483TIP3    H238009   4.028   5.368   0.745  1.7766 -0.8387  0.5249
 5484TIP3   OH238010   5.596   5.736   0.417  0.2671  0.0303  0.1922
 5484TIP3    H138011   5.663   5.674   0.448  1.3717 -0.0428 -2.1323
 5484TIP3    H238012   5.646   5.815   0.396 -0.5325  0.3392 -0.5747
 5485TIP3   OH238013   0.206   3.236   8.285 -0.1561 -0.2874 -0.2871
 5485TIP3    H138014   0.122   3.199   8.257  0.2729 -0.9453 -0.7234
 5485TIP3    H238015   0.205   3.325   8.249 -0.1537 -0.6973 -1.3446
 5486TIP3   OH238016   1.302   3.431   6.819  0.1275  0.0349 -0.1084
 5486TIP3    H138017   1.328   3.500   6.880  0.9921 -2.3210  2.3989
 5486TIP3    H238018   1.382   3.410   6.770  0.5706 -0.9007  0.9828
 5487TIP3   OH238019   4.593   4.997   0.728 -0.2062 -0.2433 -0.2429
 5487TIP3    H138020   4.622   5.088   0.718  0.1659 -0.3766 -0.3837
 5487TIP3    H238021   4.540   4.997   0.807  0.4025 -0.0524  0.1707
 5488TIP3   OH238022   4.867   4.963   0.391  0.2553  0.0529  0.2634
 5488TIP3    H138023   4.925   4.959   0.466  1.2905 -0.2935 -0.5390
 5488TIP3    H238024   4.870   4.876   0.352 -0.3567  0.1926 -0.1275
 5489TIP3   OH238025   6.156   1.118   1.872  0.0692 -0.0851  0.0884
 5489TIP3    H138026   6.124   1.033   1.842 -1.2456  0.3326  0.2286
 5489TIP3    H238027   6.159   1.172   1.793 -1.2346  0.3623  0.3194
 5490TIP3   OH238028   1.538   3.830   0.782 -0.0985 -0.3002  0.9898
 5490TIP3    H138029   1.610   3.796   0.730 -0.2656  0.5057  0.2164
 5490TIP3    H238030   1.460   3.791   0.743 -0.2321  0.3824  0.5679
 5491TIP3   OH238031   1.532   5.226   0.983  0.0582  0.2861 -0.8480
 5491TIP3    H138032   1.510   5.205   1.073 -1.1634 -1.1875 -1.4423
 5491TIP3    H238033   1.454   5.272   0.950  1.2352  2.6004 -0.6541
 5492TIP3   OH238034   3.949   6.201   6.830  0.2495  0.3267  0.3112
 5492TIP3    H138035   3.947   6.111   6.798  1.3289 -0.4892  2.3547
 5492TIP3    H238036   3.865   6.237   6.804  0.4281 -0.7019 -1.9941
 5493TIP3   OH238037   4.494   4.795   8.171  0.2101  0.2031  1.2688
 5493TIP3    H138038   4.431   4.776   8.240  1.0906  2.3650  2.7741
 5493TIP3    H238039   4.574   4.750   8.198 -0.3823 -1.9384 -0.2711
 5494TIP3   OH238040   3.627   5.604   8.349 -0.2544 -0.0633  0.0230
 5494TIP3    H138041   3.587   5.691   8.347 -2.2415 -0.8870  1.2710
 5494TIP3    H238042   3.625   5.579   8.442  1.2246 -1.0544 -0.1682
 5495TIP3   OH238043   3.158   0.964   7.234  0.5082  0.0432  0.0334
 5495TIP3    H138044   3.160   1.059   7.220 -0.2064  0.1919  0.8091
 5495TIP3    H238045   3.083   0.951   7.293  1.1419 -0.9061  0.6476
 5496TIP3   OH238046   2.705   3.368   1.178 -0.2196  0.0488 -0.1267
 5496TIP3    H138047   2.663   3.447   1.143 -1.8741 -1.0336 -0.7201
 5496TIP3    H238048   2.763   3.338   1.108 -0.3171  0.2046 -0.2740
 5497TIP3   OH238049   5.548   3.385   7.607  0.6600  0.0565  0.0665
 5497TIP3    H138050   5.467   3.410   7.563 -0.9268 -1.3480  2.0296
 5497TIP3    H238051   5.606   3.358   7.536 -1.3210 -0.9113 -1.2735
 5498TIP3   OH238052   1.765   5.851   8.503 -0.0079  0.3648  0.4322
 5498TIP3    H138053   1.750   5.805   8.420 -0.3010 -1.0967  1.2500
 5498TIP3    H238054   1.843   5.809   8.540 -0.8407 -0.1763  1.6550
 5499TIP3   OH238055   0.996   5.026   1.185  0.4876 -0.0051 -0.1468
 5499TIP3    H138056   1.006   5.022   1.280  1.7822 -0.3237 -0.2749
 5499TIP3    H238057   1.070   5.078   1.155  0.4704 -0.4723 -1.0401
 5500TIP3   OH238058   2.945   0.663   8.290 -0.2348  0.0475 -0.0422
 5500TIP3    H138059   3.004   0.617   8.349 -1.3289  1.6767  2.4578
 5500TIP3    H238060   2.980   0.752   8.286 -1.5665  0.5972  0.1399
 5501TIP3   OH238061   2.251   5.054   8.511  0.0722  1.1217 -0.0482
 5501TIP3    H138062   2.340   5.087   8.522  1.7847 -2.7751 -0.5658
 5501TIP3    H238063   2.234   5.002   8.589 -2.2468  2.5446  0.5107
 5502TIP3   OH238064   1.304   3.092   7.815 -0.1341 -0.2974  0.2383
 5502TIP3    H138065   1.289   3.016   7.760  0.0408  1.8477 -3.0720
 5502TIP3    H238066   1.239   3.156   7.785  0.6500  1.3378  1.8594
 5503TIP3   OH238067   5.820   3.471   1.218 -0.1314  0.3498  0.9742
 5503TIP3    H138068   5.749   3.410   1.198  0.3112  0.1892 -0.1749
 5503TIP3    H238069   5.813   3.486   1.312 -2.0874  0.8316  0.7882
 5504TIP3   OH238070   5.793   2.565   0.379 -0.2221  0.2246  0.3259
 5504TIP3    H138071   5.835   2.645   0.409 -0.6458  0.4351  0.3745
 5504TIP3    H238072   5.856   2.496   0.398 -0.2108  0.4386  1.1101
 5505TIP3   OH238073   0.103   5.586   7.492 -0.2019  0.0652 -0.0704
 5505TIP3    H138074   0.107   5.536   7.411  0.0242 -0.0881  0.0344
 5505TIP3    H238075   0.156   5.664   7.475 -2.7167  1.6698 -1.1833
 5506TIP3   OH238076   4.745   6.129   1.936  0.3086 -0.5516  0.0808
 5506TIP3    H138077   4.750   6.143   1.841 -0.2030  1.6055  0.3105
 5506TIP3    H238078   4.713   6.039   1.946  1.9362 -1.4022 -1.7462
 5507TIP3   OH238079   2.434   5.214   1.032 -0.2078  0.5682  0.5821
 5507TIP3    H138080   2.393   5.227   0.946 -0.6108  1.3380  0.8799
 5507TIP3    H238081   2.428   5.119   1.046  0.3704  0.3518 -0.4789
 5508TIP3   OH238082   1.916   5.570   0.032  0.4721  0.8935 -0.2597
 5508TIP3    H138083   1.999   5.608   0.002  1.6569 -0.9827  0.3897
 5508TIP3    H238084   1.867   5.554  -0.049  1.1140  1.2550 -0.7335
 5509TIP3   OH238085   4.067   6.385   7.629  1.0838 -0.2445 -0.0666
 5509TIP3    H138086   4.056   6.419   7.717  0.7211 -2.3153  0.7462
 5509TIP3    H238087   3.988   6.413   7.582  1.6874  1.6219 -0.0554
 5510TIP3   OH238088   2.108   6.086   8.255  0.4006  0.3850  0.2933
 5510TIP3    H138089   2.185   6.099   8.200  0.0411  1.7308  0.0537
 5510TIP3    H238090   2.129   6.131   8.337  0.3791 -0.3820  0.7293
 5511TIP3   OH238091   2.335   5.552   8.351  0.0069 -0.2419  0.6067
 5511TIP3    H138092   2.374   5.637   8.371 -0.1595 -0.3077  1.2403
 5511TIP3    H238093   2.241   5.567   8.361 -0.0670 -0.3357  0.0680
 5512TIP3   OH238094   6.428   1.600   8.479  0.2442  0.1300 -0.3269
 5512TIP3    H138095   6.524   1.599   8.483  0.3736  1.3558 -2.1112
 5512TIP3    H238096   6.400   1.565   8.564  2.2502 -1.6604 -0.3367
 5513TIP3   OH238097   0.467   2.518   7.418  0.0321 -0.1160 -0.0196
 5513TIP3    H138098   0.540   2.458   7.402  1.1381  0.7059  1.6371
 5513TIP3    H238099   0.508   2.602   7.439 -1.4574  1.5936 -3.1484
 5514TIP3   OH238100   3.387   0.874   1.141  0.1098  0.1687  0.1561
 5514TIP3    H138101   3.470   0.919   1.155 -0.5797  1.2766  0.8338
 5514TIP3    H238102   3.412   0.784   1.120  1.5147  0.7778 -0.9312
 5515TIP3   OH238103   0.823   4.430   7.486  0.4997 -0.2748  0.7286
 5515TIP3    H138104   0.915   4.418   7.511  0.8631 -0.0606 -0.4793
 5515TIP3    H238105   0.825   4.485   7.408 -0.5205 -2.1221 -0.6775
 5516TIP3   OH238106   6.763   4.081   8.723  0.0032 -0.4748 -0.0294
 5516TIP3    H138107   6.770   4.169   8.687  2.3436 -0.6942 -0.2288
 5516TIP3    H238108   6.735   4.094   8.814  1.6169  0.5918  0.3454
 5517TIP3   OH238109   4.940   5.263   1.227 -0.9984 -0.0802  1.1722
 5517TIP3    H138110   4.880   5.313   1.171 -0.2961 -0.7918 -0.2805
 5517TIP3    H238111   4.901   5.176   1.233 -0.9121 -0.0936  1.5355
 5518TIP3   OH238112   4.895   2.637   1.489 -0.6104  0.4538  0.0324
 5518TIP3    H138113   4.821   2.671   1.439 -0.6792  0.0931 -0.1115
 5518TIP3    H238114   4.949   2.592   1.425 -1.4094 -1.2380  0.4948
 5519TIP3   OH238115   4.485   3.209   1.086  0.1676 -0.3663  0.4383
 5519TIP3    H138116   4.509   3.229   0.996 -2.3908  1.0348 -0.0269
 5519TIP3    H238117   4.553   3.250   1.139 -0.9107  3.3710 -0.7646
 5520TIP3   OH238118   1.972   4.232   1.499 -0.1954 -0.3916  0.1187
 5520TIP3    H138119   2.065   4.248   1.482  0.2707 -2.0932  0.8169
 5520TIP3    H238120   1.949   4.161   1.439 -0.9234 -0.3027  0.2869
 5521TIP3   OH238121   5.667   6.191   1.729  0.6337 -0.1565  0.0469
 5521TIP3    H138122   5.678   6.189   1.824 -1.5463 -1.4789  0.3474
 5521TIP3    H238123   5.695   6.104   1.700 -1.4746 -0.8575 -0.0714
 5522TIP3   OH238124   6.754   6.480   0.981 -0.2124  0.0179 -0.0144
 5522TIP3    H138125   6.710   6.516   1.059 -0.7714 -0.2439 -0.2090
 5522TIP3    H238126   6.826   6.541   0.965 -0.7286  0.6640  0.0811
 5523TIP3   OH238127   2.127   2.875   6.983  0.1411 -0.3538 -0.1923
 5523TIP3    H138128   2.180   2.940   7.028  0.3203  0.2576 -1.2491
 5523TIP3    H238129   2.168   2.865   6.897 -0.7112 -0.8136 -0.5656
 5524TIP3   OH238130   4.269   6.403   7.906  0.6810  0.3858 -0.1003
 5524TIP3    H138131   4.278   6.471   7.973  0.9328 -2.2922  2.7834
 5524TIP3    H238132   4.344   6.418   7.848  0.0671  3.2184 -0.3452
 5525TIP3   OH238133   1.098   1.254   0.009  0.1623  0.2695  0.0780
 5525TIP3    H138134   1.003   1.251   0.015  0.2091  0.1099  0.7639
 5525TIP3    H238135   1.115   1.315  -0.063 -0.4570 -0.0563 -0.3550
 5526TIP3   OH238136   1.642   2.893   8.460  0.1250  0.1380 -0.2197
 5526TIP3    H138137   1.676   2.868   8.546  1.3091 -1.0596 -0.9956
 5526TIP3    H238138   1.686   2.976   8.441  0.0638  0.2741  0.2168
 5527TIP3   OH238139   1.754   6.128   8.633  0.4776  0.1539 -0.1715
 5527TIP3    H138140   1.755   6.040   8.597  2.0764  0.5747 -1.2183
 5527TIP3    H238141   1.677   6.169   8.594 -0.4879 -0.8626  0.6066
 5528TIP3   OH238142   2.597   4.530   7.441 -0.3652  0.0342 -0.3867
 5528TIP3    H138143   2.511   4.571   7.429 -0.8154 -0.1124  1.9688
 5528TIP3    H238144   2.611   4.530   7.536  1.7069 -1.0528 -0.6397
 5529TIP3   OH238145   2.010   5.568   6.101 -0.5794 -0.2114 -0.0849
 5529TIP3    H138146   2.087   5.523   6.065 -1.5115 -1.9240 -0.0447
 5529TIP3    H238147   2.016   5.657   6.067 -0.2739 -1.1683 -2.7894
 5530TIP3   OH238148   2.123   2.158   8.289 -0.1475  0.2546 -0.1956
 5530TIP3    H138149   2.174   2.079   8.310 -0.9094 -0.2462 -0.2147
 5530TIP3    H238150   2.150   2.182   8.200 -3.0347 -2.5344 -2.0234
 5531TIP3   OH238151   4.108   5.865   6.674 -0.4221 -0.3413  0.2834
 5531TIP3    H138152   4.084   5.917   6.597  0.5217 -0.4854 -0.1311
 5531TIP3    H238153   4.074   5.777   6.654  0.4993 -0.5717 -0.3444
 5532TIP3   OH238154   2.955   6.177   0.336  0.1049 -0.0830 -0.0924
 5532TIP3    H138155   2.966   6.272   0.340 -0.5447  0.0706 -1.4088
 5532TIP3    H238156   3.042   6.141   0.354  0.4745  0.7772 -0.1289
 5533TIP3   OH238157   6.700   4.050   8.353  0.4125  0.1545 -0.4254
 5533TIP3    H138158   6.697   4.128   8.409 -1.7596 -0.5908  0.6175
 5533TIP3    H238159   6.754   4.076   8.279  0.6080  2.3059  0.3900
 5534TIP3   OH238160   5.429   5.183   8.607 -0.1815  0.6850 -0.2624
 5534TIP3    H138161   5.394   5.156   8.522  0.7972  0.5019 -0.6172
 5534TIP3    H238162   5.477   5.264   8.589 -3.0116  2.7638  0.7756
 5535TIP3   OH238163   2.863   5.412   7.600  0.2243  1.2386 -0.1628
 5535TIP3    H138164   2.887   5.402   7.692  0.8194  1.8416 -0.2400
 5535TIP3    H238165   2.874   5.505   7.582 -2.4327  1.6025 -0.1752
 5536TIP3   OH238166   0.897   4.936   1.814  0.0389  0.0008 -0.4140
 5536TIP3    H138167   0.869   4.844   1.814  0.6197 -0.2153 -2.0077
 5536TIP3    H238168   0.993   4.931   1.814  0.1185  0.5133 -2.5394
 5537TIP3   OH238169   2.304   4.470   7.165  0.0096  0.6035  0.2444
 5537TIP3    H138170   2.353   4.457   7.084 -0.5281 -0.4168  0.0705
 5537TIP3    H238171   2.222   4.421   7.152 -0.2144  0.6796  1.2793
 5538TIP3   OH238172   3.069   4.680   2.301  0.3844 -0.7684 -0.8403
 5538TIP3    H138173   3.086   4.586   2.295 -2.0647 -1.4940  1.4891
 5538TIP3    H238174   3.067   4.698   2.395  1.6309  1.8285 -1.2394
 5539TIP3   OH238175   2.478   3.739   8.111 -0.5768 -0.4431 -0.3092
 5539TIP3    H138176   2.505   3.795   8.038  0.0578 -0.3271  0.0026
 5539TIP3    H238177   2.398   3.779   8.144  0.1928  0.6642  0.3017
 5540TIP3   OH238178   1.215   2.500   1.830 -0.1898 -0.5993  0.6205
 5540TIP3    H138179   1.124   2.472   1.834 -0.0997 -0.8816  0.7345
 5540TIP3    H238180   1.248   2.462   1.748  0.2039 -1.6613  1.2550
 5541TIP3   OH238181   1.550   1.479   0.720  0.8844  0.1531 -0.2374
 5541TIP3    H138182   1.488   1.407   0.735  0.4615  0.4316 -0.6218
 5541TIP3    H238183   1.611   1.473   0.792 -1.3955  1.8204  1.9957
 5542TIP3   OH238184   3.938   3.172   7.731  0.7183 -0.3565  0.5777
 5542TIP3    H138185   3.987   3.150   7.652  0.8344  2.0670 -0.0760
 5542TIP3    H238186   3.881   3.096   7.744 -0.2830 -0.2992 -2.5924
 5543TIP3   OH238187   1.968   0.503   8.698 -0.0706  0.0141  0.2888
 5543TIP3    H138188   2.051   0.503   8.651 -0.4888  0.6571 -0.4666
 5543TIP3    H238189   1.992   0.482   8.788  0.9707  0.7169  0.1934
 5544TIP3   OH238190   1.283   1.292   7.481  0.1020 -0.3876 -0.4026
 5544TIP3    H138191   1.279   1.254   7.569  1.0337  0.3848 -0.0048
 5544TIP3    H238192   1.191   1.303   7.455 -0.1918  0.2305  0.8539
 5545TIP3   OH238193   5.367   2.667   8.023  0.4164 -0.2512 -0.6307
 5545TIP3    H138194   5.275   2.686   8.004  0.5879  1.4030  0.0023
 5545TIP3    H238195   5.367   2.644   8.116  0.4318 -1.9782 -1.0362
 5546TIP3   OH238196   6.679   0.823   0.190 -0.4411  0.3251  0.1814
 5546TIP3    H138197   6.703   0.888   0.124 -0.9424  0.6474  0.3104
 5546TIP3    H238198   6.710   0.860   0.273 -1.1988  0.6625  0.3259
 5547TIP3   OH238199   3.991   2.224   8.273 -0.9430 -0.0142 -0.1950
 5547TIP3    H138200   4.063   2.262   8.324 -2.5635  0.9646  1.4853
 5547TIP3    H238201   3.974   2.140   8.316 -0.5832 -0.4112 -0.8190
 5548TIP3   OH238202   0.698   3.427   6.926  0.4150  0.4950 -0.3371
 5548TIP3    H138203   0.780   3.379   6.912  2.0533  2.3594  1.9171
 5548TIP3    H238204   0.691   3.486   6.851  1.2174  0.3842 -0.5110
 5549TIP3   OH238205   4.820   1.472   0.876  0.2378  0.1819 -0.3982
 5549TIP3    H138206   4.727   1.484   0.895  0.7733  0.4529  2.5371
 5549TIP3    H238207   4.864   1.538   0.929  2.1504 -0.4720 -1.0841
 5550TIP3   OH238208   2.449   6.701   8.512 -0.1165  0.9906 -0.6508
 5550TIP3    H138209   2.521   6.663   8.462 -0.8344 -0.3308 -0.7198
 5550TIP3    H238210   2.433   6.638   8.583 -1.3582  1.1345 -0.7807
 5551TIP3   OH238211   0.350   1.904   7.521  0.0852  0.5172  0.0353
 5551TIP3    H138212   0.375   1.964   7.591 -0.0666 -0.8533  1.3171
 5551TIP3    H238213   0.256   1.893   7.532 -0.0086  0.6160 -0.6593
 5552TIP3   OH238214   6.487   2.008   8.825  0.9181 -0.1071 -0.8324
 5552TIP3    H138215   6.516   1.920   8.848  1.4349  0.3628  0.4206
 5552TIP3    H238216   6.507   2.017   8.732  1.3998 -1.1040 -0.8351
 5553TIP3   OH238217   2.140   1.926   7.221 -0.7024  0.0083 -0.1228
 5553TIP3    H138218   2.084   1.855   7.251  0.4740 -1.1006 -0.4512
 5553TIP3    H238219   2.194   1.948   7.297  0.4192 -0.9617 -0.6012
 5554TIP3   OH238220   4.319   1.283   6.349 -0.2253  0.0177  0.1296
 5554TIP3    H138221   4.233   1.267   6.388  0.6203 -0.0036  2.1230
 5554TIP3    H238222   4.336   1.376   6.367  1.1156 -0.5154  1.8999
 5555TIP3   OH238223   3.110   0.623   1.349  0.1755  0.2580  0.0544
 5555TIP3    H138224   3.184   0.574   1.383  1.4511  0.1049 -2.6790
 5555TIP3    H238225   3.039   0.559   1.344  1.2692 -0.9169 -1.6840
 5556TIP3   OH238226   1.651   1.405   0.457  0.3410 -0.1108  0.0211
 5556TIP3    H138227   1.633   1.419   0.550 -0.7483  1.5239 -0.4020
 5556TIP3    H238228   1.603   1.325   0.436 -1.6854  0.9647  0.2923
 5557TIP3   OH238229   0.012   4.210   7.197  0.0333 -0.3087 -0.3595
 5557TIP3    H138230  -0.059   4.175   7.143  0.5636 -1.6177 -0.2448
 5557TIP3    H238231   0.044   4.286   7.149 -0.1692 -0.8572 -1.3790
 5558TIP3   OH238232   1.364   5.033   8.664 -0.2720 -0.5789  0.0342
 5558TIP3    H138233   1.316   5.113   8.640 -1.2984 -1.1269  0.2043
 5558TIP3    H238234   1.417   5.059   8.740  0.3607  0.2586 -0.6727
 5559TIP3   OH238235   0.147   3.450   7.163  0.2666  0.0714  0.2900
 5559TIP3    H138236   0.103   3.535   7.163  0.1968  0.0422 -0.4769
 5559TIP3    H238237   0.100   3.399   7.229 -1.2196 -0.1280 -0.8650
 5560TIP3   OH238238   4.510   1.091   2.006  0.7744  0.0262  0.8196
 5560TIP3    H138239   4.445   1.114   1.939  0.2982 -0.0557  1.2417
 5560TIP3    H238240   4.550   1.174   2.031  0.8920  0.0680  0.4996
 5561TIP3   OH238241   0.982   4.700   0.505 -0.8893 -0.4916  0.2748
 5561TIP3    H138242   1.050   4.658   0.452 -1.0196 -1.1781  0.6308
 5561TIP3    H238243   0.910   4.715   0.443 -0.3314  0.4665 -0.1579
 5562TIP3   OH238244   1.625   5.978   8.191 -0.1151  0.3022  0.3799
 5562TIP3    H138245   1.662   5.923   8.122 -4.3572 -0.6636 -1.4368
 5562TIP3    H238246   1.639   6.068   8.160 -1.9103 -0.1121 -1.9036
 5563TIP3   OH238247   6.651   5.184   8.609 -1.0326 -0.4972  0.4466
 5563TIP3    H138248   6.679   5.105   8.563 -1.6600 -1.5147  1.7649
 5563TIP3    H238249   6.724   5.246   8.596 -0.7919 -1.0492 -1.1025
 5564TIP3   OH238250   0.793   4.764   0.313  0.5933 -0.2414  0.3364
 5564TIP3    H138251   0.762   4.705   0.244 -0.4737  0.5855  0.0793
 5564TIP3    H238252   0.841   4.833   0.266  0.8539 -0.2870  0.5323
 5565TIP3   OH238253   0.506   4.162   0.202 -0.0172 -0.2213  0.3473
 5565TIP3    H138254   0.593   4.184   0.168  0.4785 -0.0577  1.6763
 5565TIP3    H238255   0.522   4.124   0.288 -1.1372 -2.1678 -0.2379
 5566TIP3   OH238256   4.328   4.472   0.063  0.4251 -0.4203 -0.5111
 5566TIP3    H138257   4.252   4.450   0.116  0.4419  0.0511 -0.2832
 5566TIP3    H238258   4.326   4.568   0.058  0.3396 -0.4634 -1.4851
 5567TIP3   OH238259   6.103   4.227   7.921  0.2005  0.7847  0.0578
 5567TIP3    H138260   6.013   4.204   7.896  0.3165 -0.5945  0.8120
 5567TIP3    H238261   6.156   4.201   7.847  0.1283  0.2584  0.1886
 5568TIP3   OH238262   3.155   2.698   8.365 -0.3450  0.6346  0.7429
 5568TIP3    H138263   3.219   2.770   8.368  0.8968 -0.1491 -2.4738
 5568TIP3    H238264   3.075   2.735   8.401  0.6332  3.2016  0.4870
 5569TIP3   OH238265   6.792   3.446   6.403  0.0482  0.5689 -0.2136
 5569TIP3    H138266   6.836   3.419   6.483 -0.6252 -0.8177 -0.2877
 5569TIP3    H238267   6.845   3.409   6.332  0.2215  1.1408 -0.3876
 5570TIP3   OH238268   6.696   4.171   6.946 -1.0030  0.1099 -0.5064
 5570TIP3    H138269   6.648   4.154   6.864 -0.3839  1.1867 -1.1014
 5570TIP3    H238270   6.753   4.245   6.926  3.3588 -2.9672 -0.8549
 5571TIP3   OH238271   6.006   6.472   0.095 -0.4085  0.4518  0.2670
 5571TIP3    H138272   6.001   6.386   0.135 -1.0783  0.6394  0.5916
 5571TIP3    H238273   6.099   6.482   0.072 -0.3325 -0.3639  0.1844
 5572TIP3   OH238274   2.270   2.862   1.058  0.1527 -0.0011 -0.6353
 5572TIP3    H138275   2.256   2.767   1.063  1.7903 -0.2225  1.2793
 5572TIP3    H238276   2.224   2.897   1.134 -0.0661  0.6935 -1.0802
 5573TIP3   OH238277   0.006   1.963   0.079  0.0383  0.2652  0.2401
 5573TIP3    H138278   0.101   1.957   0.091  0.0593  0.5554  0.2137
 5573TIP3    H238279  -0.006   2.037   0.020 -0.1134 -0.6967 -0.9828
 5574TIP3   OH238280   0.599   3.317   8.293  0.5021 -0.1444  0.0554
 5574TIP3    H138281   0.565   3.405   8.276 -0.1883 -0.1764  1.1602
 5574TIP3    H238282   0.658   3.328   8.367 -0.8388 -0.8259  1.2808
 5575TIP3   OH238283   0.667   3.704   7.329 -0.0367  0.4700  0.0290
 5575TIP3    H138284   0.589   3.696   7.275  1.3334  1.2961 -2.2005
 5575TIP3    H238285   0.720   3.627   7.309  0.4085  0.6807  0.3576
 5576TIP3   OH238286   2.486   0.073   1.568 -0.2114 -0.2855  0.1373
 5576TIP3    H138287   2.454   0.163   1.579  2.3680  0.8886 -1.1410
 5576TIP3    H238288   2.455   0.047   1.481  1.5561  0.5806 -0.7957
 5577TIP3   OH238289   3.195   2.703   7.438  0.2727 -0.1510  0.6314
 5577TIP3    H138290   3.110   2.715   7.479 -0.9096 -1.9320 -1.0982
 5577TIP3    H238291   3.250   2.772   7.474 -2.2517  1.8436  0.8663
 5578TIP3   OH238292   5.904   4.283   7.315 -0.2749  0.3332  0.1809
 5578TIP3    H138293   5.961   4.292   7.391  0.3162  0.2108 -0.2372
 5578TIP3    H238294   5.910   4.368   7.271  1.2454 -0.3385 -0.9872
 5579TIP3   OH238295   4.192   3.463   7.131 -0.1001  0.1310  0.5551
 5579TIP3    H138296   4.235   3.537   7.087 -1.0645  0.7261  0.5878
 5579TIP3    H238297   4.170   3.403   7.061 -1.9180  1.2204  0.1270
 5580TIP3   OH238298   0.057   2.744   2.574  0.2606 -0.4352  0.3961
 5580TIP3    H138299   0.108   2.787   2.643  0.6511 -2.8784  1.7505
 5580TIP3    H238300   0.117   2.678   2.539 -0.9282 -1.1734 -0.2739
 5581TIP3   OH238301   2.862   0.953   0.814 -0.5543 -0.5708 -0.4845
 5581TIP3    H138302   2.870   1.012   0.888 -1.6713  0.0132 -0.8059
 5581TIP3    H238303   2.932   0.979   0.754  0.8402 -1.5395  0.6565
 5582TIP3   OH238304   4.101   2.611   7.559  0.0944 -0.3142 -0.0898
 5582TIP3    H138305   4.036   2.598   7.629  0.4076 -3.1617 -0.2116
 5582TIP3    H238306   4.082   2.542   7.496 -0.0117  2.0114 -2.7855
 5583TIP3   OH238307   6.259   6.519   7.615 -0.3455  0.0780 -0.1555
 5583TIP3    H138308   6.275   6.547   7.705 -0.8125  0.0295 -0.0532
 5583TIP3    H238309   6.268   6.599   7.563 -1.4161  0.3836  0.1029
 5584TIP3   OH238310   3.450   0.312   7.513  0.0768  0.5833 -0.1435
 5584TIP3    H138311   3.508   0.299   7.588 -0.7035  0.8099  0.5121
 5584TIP3    H238312   3.367   0.341   7.551  0.2440  2.6613 -1.1824
 5585TIP3   OH238313   3.432   4.589   7.892  0.2610  0.6006 -0.3079
 5585TIP3    H138314   3.376   4.602   7.815 -0.0620 -0.6005 -0.3040
 5585TIP3    H238315   3.502   4.653   7.882 -2.2314  3.7405  0.8346
 5586TIP3   OH238316   0.078   4.697   8.098  0.1937  0.0630  0.0884
 5586TIP3    H138317   0.147   4.707   8.163  0.2108 -0.0701  0.0910
 5586TIP3    H238318   0.064   4.603   8.092 -1.3380  0.1389  1.5140
 5587TIP3   OH238319   6.228   2.232   0.337  0.5974 -0.5191 -0.0484
 5587TIP3    H138320   6.281   2.256   0.261 -0.3444 -0.7162 -0.7918
 5587TIP3    H238321   6.262   2.147   0.364  0.7253 -0.5979 -0.4487
 5588TIP3   OH238322   2.429   5.100   8.254 -0.0047  0.0312 -0.7477
 5588TIP3    H138323   2.384   5.039   8.311  1.2856 -0.2259  0.0453
 5588TIP3    H238324   2.458   5.170   8.313  0.0734  0.5040 -1.3413
 5589TIP3   OH238325   5.245   4.564   0.303  0.4317  0.0535  0.1000
 5589TIP3    H138326   5.208   4.566   0.215  0.4615 -0.4664  0.0702
 5589TIP3    H238327   5.245   4.471   0.326 -2.1617  0.3728  1.7363
 5590TIP3   OH238328   4.321   6.452   1.123  0.8855 -0.8081  0.1975
 5590TIP3    H138329   4.326   6.364   1.160  1.2717  0.1930  2.7584
 5590TIP3    H238330   4.265   6.501   1.184 -0.0114  0.5355 -1.6075
 5591TIP3   OH238331   3.679   0.422   8.149 -0.3702  0.4226 -0.3754
 5591TIP3    H138332   3.685   0.480   8.225 -0.5412 -0.1588  0.0941
 5591TIP3    H238333   3.702   0.477   8.074  0.3346  0.8648  0.1570
 5592TIP3   OH238334   5.669   5.128   1.513  0.0930  0.7117  0.0418
 5592TIP3    H138335   5.654   5.212   1.556 -0.0505  1.2504 -1.0178
 5592TIP3    H238336   5.610   5.067   1.558 -1.6374  1.7108 -0.7416
 5593TIP3   OH238337   0.327   0.565   8.851 -0.4122  0.1387 -0.3554
 5593TIP3    H138338   0.337   0.506   8.777  2.8745  0.2944 -0.1951
 5593TIP3    H238339   0.265   0.631   8.821  0.9071  0.2854 -3.1037
 5594TIP3   OH238340   1.651   0.405   0.395  0.5821 -0.0309 -0.0472
 5594TIP3    H138341   1.557   0.402   0.377  0.4904  0.5463  0.3018
 5594TIP3    H238342   1.662   0.349   0.472  0.7019 -1.0205 -0.7674
 5595TIP3   OH238343   0.023   5.152   7.404  0.3644 -0.1733  0.3026
 5595TIP3    H138344   0.109   5.122   7.374 -0.8070 -1.5659 -2.0306
 5595TIP3    H238345  -0.012   5.078   7.454  0.2434  0.0925  0.6097
 5596TIP3   OH238346   5.445   2.105   1.770 -0.1881 -0.2011  0.5340
 5596TIP3    H138347   5.458   2.044   1.697  0.6034  0.1089  0.4043
 5596TIP3    H238348   5.458   2.191   1.730  1.4255 -0.0701  1.2549
 5597TIP3   OH238349   0.499   5.264   0.483 -0.4450 -0.2523  0.2867
 5597TIP3    H138350   0.542   5.201   0.427 -2.2066 -1.0680 -0.2270
 5597TIP3    H238351   0.512   5.231   0.572 -0.7504 -0.9578  0.0720
 5598TIP3   OH238352   3.099   2.482   7.879  0.5497 -0.1136  0.6142
 5598TIP3    H138353   3.149   2.429   7.817  2.1804  2.3192 -0.3414
 5598TIP3    H238354   3.165   2.518   7.939 -0.6170  0.0010  1.8875
 5599TIP3   OH238355   1.169   4.237   1.433  0.4277  0.0356  0.2670
 5599TIP3    H138356   1.213   4.185   1.365  0.7925  0.8907 -0.1647
 5599TIP3    H238357   1.226   4.313   1.446  0.1295  0.1090  1.2109
 5600TIP3   OH238358   6.457   2.744   1.388 -0.3792 -0.4295  0.1636
 5600TIP3    H138359   6.479   2.775   1.301 -3.0162  2.1724  0.2628
 5600TIP3    H238360   6.462   2.648   1.382  1.2405 -0.2740 -2.2616
 5601TIP3   OH238361   6.655   4.461   0.024 -0.4228  0.4053  0.7381
 5601TIP3    H138362   6.609   4.459  -0.060  1.3816  1.4877 -0.3434
 5601TIP3    H238363   6.669   4.369   0.047 -2.8038  0.0479  0.9843
 5602TIP3   OH238364   0.543   1.013   1.706 -0.3139 -0.4645 -0.2421
 5602TIP3    H138365   0.545   0.923   1.737 -3.3941 -0.5000  0.1180
 5602TIP3    H238366   0.514   1.064   1.781  0.6789  0.7481 -0.6465
 5603TIP3   OH238367   5.054   5.724   1.588  0.4650 -0.3964 -0.3513
 5603TIP3    H138368   5.013   5.769   1.515 -0.3190 -0.5783 -0.0384
 5603TIP3    H238369   5.148   5.724   1.568  0.0819 -2.6451 -2.6280
 5604TIP3   OH238370   5.667   6.262   2.040 -0.6216  0.1607 -0.1894
 5604TIP3    H138371   5.735   6.276   2.106  0.4724 -0.6898 -1.1096
 5604TIP3    H238372   5.619   6.185   2.071  1.5810 -1.9158 -1.6670
 5605TIP3   OH238373   4.272   4.705   8.344  0.2487 -0.1920  0.1296
 5605TIP3    H138374   4.205   4.661   8.292  1.9550 -1.9605 -0.7120
 5605TIP3    H238375   4.256   4.675   8.434 -2.5221  2.6371  0.7593
 5606TIP3   OH238376   1.287   0.091   8.539  0.1220 -0.3394 -0.3059
 5606TIP3    H138377   1.376   0.056   8.529 -0.2622 -1.2628 -0.6268
 5606TIP3    H238378   1.264   0.124   8.452  1.4909  3.3388  0.5462
 5607TIP3   OH238379   5.189   1.740   1.416 -0.4485  0.0307  0.4237
 5607TIP3    H138380   5.186   1.742   1.320  0.1991 -0.1001  0.3983
 5607TIP3    H238381   5.258   1.678   1.437 -1.1641 -0.5911  0.9901
 5608TIP3   OH238382   4.751   4.214   7.671  0.4338  0.3143  0.1945
 5608TIP3    H138383   4.789   4.290   7.714 -0.4501  1.0138 -0.2139
 5608TIP3    H238384   4.678   4.249   7.620  0.3162 -0.7407 -0.4072
 5609TIP3   OH238385   5.466   5.562   1.454  0.3221  0.2578 -0.8121
 5609TIP3    H138386   5.542   5.539   1.508  1.6522  1.7709 -1.9418
 5609TIP3    H238387   5.491   5.535   1.365  0.1148  1.9756 -1.4162
 5610TIP3   OH238388   2.966   4.332   7.567  0.8818  0.2379  0.5591
 5610TIP3    H138389   3.000   4.419   7.545  1.3948 -0.1088 -0.0530
 5610TIP3    H238390   2.924   4.344   7.652 -0.8903  1.5609 -0.4082
 5611TIP3   OH238391   4.477   3.920   7.092  0.6407 -0.2356 -0.4313
 5611TIP3    H138392   4.483   3.913   7.188 -0.2205  1.3811 -0.2412
 5611TIP3    H238393   4.557   3.876   7.061  2.1114  1.1541  1.1309
 5612TIP3   OH238394   2.782   1.266   0.413  0.5127  1.0659  0.1004
 5612TIP3    H138395   2.782   1.182   0.460  1.3687 -0.4677 -2.4571
 5612TIP3    H238396   2.710   1.260   0.351 -0.3095  2.8605  0.8008
 5613TIP3   OH238397   6.585   6.596   8.361 -0.2020 -0.7516  0.0312
 5613TIP3    H138398   6.555   6.543   8.434  0.9316 -1.2080  0.1840
 5613TIP3    H238399   6.658   6.547   8.323 -0.5216 -0.3435 -1.1749
 5614TIP3   OH238400   1.487   1.417   8.830  0.1059 -0.3479 -0.0645
 5614TIP3    H138401   1.459   1.492   8.778  0.4166 -1.0006 -1.2148
 5614TIP3    H238402   1.560   1.450   8.883  1.1212 -0.1336 -1.5304
 5615TIP3   OH238403   1.885   6.701   7.433 -0.6217  0.3298  0.2349
 5615TIP3    H138404   1.903   6.631   7.370 -0.8176 -0.6328  1.2136
 5615TIP3    H238405   1.793   6.724   7.417 -1.1267 -0.9402  1.1042
 5616TIP3   OH238406   0.975   3.857   1.039 -0.4550 -0.0612 -0.4666
 5616TIP3    H138407   0.943   3.828   0.953 -0.4004 -0.7437 -0.2615
 5616TIP3    H238408   0.973   3.952   1.034 -0.8658 -0.0947 -1.0739
 5617TIP3   OH238409   5.056   3.611   2.013 -0.2022 -0.3954  0.1390
 5617TIP3    H138410   5.149   3.614   2.033  0.4675 -0.7779 -2.4548
 5617TIP3    H238411   5.026   3.701   2.022  0.3304 -0.3226  1.2986
 5618TIP3   OH238412   5.064   6.428   0.782  0.0415  0.0588  0.0237
 5618TIP3    H138413   5.141   6.466   0.824  0.0048  0.0735  0.0776
 5618TIP3    H238414   5.014   6.390   0.855 -0.4415  0.8142  0.0964
 5619TIP3   OH238415   4.881   1.007   0.770  0.2289 -0.5071 -0.0289
 5619TIP3    H138416   4.966   1.046   0.749 -0.4891  1.2771  0.2428
 5619TIP3    H238417   4.833   1.007   0.688  0.3321 -1.1279 -0.0932
 5620TIP3   OH238418   0.562   0.169   1.389  0.2360 -0.3041  0.0768
 5620TIP3    H138419   0.643   0.155   1.339  0.6586  0.6163  0.4707
 5620TIP3    H238420   0.590   0.218   1.466 -0.7322  0.2543  0.0907
 5621TIP3   OH238421   3.184   1.978   8.446  0.3216 -0.0117 -0.1216
 5621TIP3    H138422   3.181   1.986   8.351  0.8762  1.6129 -0.0476
 5621TIP3    H238423   3.276   1.959   8.465  0.2330 -0.2246  0.1035
 5622TIP3   OH238424   1.388   4.286   0.614 -0.1901  0.3386 -0.0689
 5622TIP3    H138425   1.462   4.231   0.639 -0.1569  0.4682  0.1221
 5622TIP3    H238426   1.426   4.353   0.557 -0.2355  0.1482 -0.3254
 5623TIP3   OH238427   6.119   1.255   7.952  0.3004  0.0919 -0.4300
 5623TIP3    H138428   6.209   1.231   7.972  0.1212  0.2329  0.6149
 5623TIP3    H238429   6.080   1.174   7.917  0.1509 -0.7332  1.5309
 5624TIP3   OH238430   2.792   2.411   1.852  0.2736  0.0064 -0.4244
 5624TIP3    H138431   2.840   2.360   1.916  1.2433  0.8331 -0.4673
 5624TIP3    H238432   2.805   2.364   1.769 -1.3180 -1.2835  0.0154
 5625TIP3   OH238433   5.053   1.674   7.468 -0.1164 -0.2551 -0.2228
 5625TIP3    H138434   5.046   1.618   7.545  0.3448 -0.0992 -0.0631
 5625TIP3    H238435   5.043   1.614   7.394 -1.0906 -0.3287 -0.0454
 5626TIP3   OH238436   6.138   2.023   8.853  0.1305 -0.1107 -0.2350
 5626TIP3    H138437   6.098   1.941   8.822 -1.6379  1.5315 -2.6404
 5626TIP3    H238438   6.231   2.001   8.861 -0.4462 -2.6762  0.5280
 5627TIP3   OH238439   5.618   5.185   1.230  0.6293  0.3322  0.1090
 5627TIP3    H138440   5.603   5.172   1.323  0.2985 -1.4645 -0.1699
 5627TIP3    H238441   5.569   5.265   1.209  1.3384  1.1944  1.5954
 5628TIP3   OH238442   6.373   0.361   8.278 -0.1741  0.5014  0.6332
 5628TIP3    H138443   6.318   0.302   8.328 -0.4206  0.2825  0.1104
 5628TIP3    H238444   6.435   0.396   8.342 -2.1811  2.3404  1.6893
 5629TIP3   OH238445   4.730   0.939   1.892  0.2442  0.0804  0.1444
 5629TIP3    H138446   4.645   0.961   1.931  0.6839 -0.0047  1.1937
 5629TIP3    H238447   4.711   0.923   1.800 -0.9756 -0.4773  0.4749
 5630TIP3   OH238448   2.111   5.989   2.252 -0.0781  0.3712  0.0534
 5630TIP3    H138449   2.026   6.030   2.266 -0.4452 -1.0173  2.4517
 5630TIP3    H238450   2.174   6.049   2.293 -0.3644 -0.2688  1.5130
 5631TIP3   OH238451   2.830   3.293   0.941 -0.1795 -0.4850 -0.4902
 5631TIP3    H138452   2.784   3.309   0.859 -0.9485  0.5796  0.1245
 5631TIP3    H238453   2.923   3.299   0.918 -0.3909  0.1606 -1.2211
 5632TIP3   OH238454   6.146   3.449   7.894 -0.3155 -0.2060 -0.6843
 5632TIP3    H138455   6.151   3.490   7.980  2.1982 -0.1759 -0.7665
 5632TIP3    H238456   6.083   3.378   7.905  0.0906 -0.3174  1.2480
 5633TIP3   OH238457   2.406   6.744   6.703  0.5784  0.5809 -0.3265
 5633TIP3    H138458   2.327   6.692   6.718  0.2795  0.9630 -0.5536
 5633TIP3    H238459   2.468   6.683   6.665  0.8257 -0.0334  1.0180
 5634TIP3   OH238460   4.638   3.815   0.393  0.1863 -0.3098  0.6374
 5634TIP3    H138461   4.661   3.770   0.474  0.5552  0.2485  0.8586
 5634TIP3    H238462   4.660   3.907   0.411 -1.4971  0.1366  0.5659
 5635TIP3   OH238463   4.197   6.722   7.598 -0.0228  0.2023  0.1502
 5635TIP3    H138464   4.267   6.787   7.602  0.0356  0.0552  2.1666
 5635TIP3    H238465   4.242   6.639   7.582  0.2488  0.1592  1.0893
 5636TIP3   OH238466   0.436   6.497   6.482 -0.5257 -0.1179  0.0851
 5636TIP3    H138467   0.516   6.453   6.454 -1.2643 -0.9604 -0.7778
 5636TIP3    H238468   0.367   6.458   6.427 -1.6475  0.0118  1.3637
 5637TIP3   OH238469   2.154   4.547   0.705 -0.3793 -0.0903 -0.1633
 5637TIP3    H138470   2.080   4.493   0.732  0.3738 -0.9467  0.2356
 5637TIP3    H238471   2.167   4.525   0.613 -0.3114 -0.2997 -0.1028
 5638TIP3   OH238472   3.511   2.262   1.710  0.8615  0.4859 -0.2861
 5638TIP3    H138473   3.427   2.217   1.702 -0.2160  2.4252 -0.4692
 5638TIP3    H238474   3.540   2.277   1.620 -0.3065  2.7712 -0.3397
 5639TIP3   OH238475   5.410   3.026   6.976  0.4853  0.1530 -0.5038
 5639TIP3    H138476   5.327   2.982   6.995  0.9700  0.2238  2.2081
 5639TIP3    H238477   5.477   2.961   6.999  1.1922  0.7373 -0.8823
 5640TIP3   OH238478   6.456   3.929   8.354  0.1240  0.1488 -0.1818
 5640TIP3    H138479   6.547   3.954   8.339  0.1887  0.6675  0.9918
 5640TIP3    H238480   6.441   3.948   8.446 -1.0888 -0.2186 -0.2920
 5641TIP3   OH238481   4.998   1.068   0.241  0.1400 -0.4775 -0.5532
 5641TIP3    H138482   5.076   1.025   0.208 -0.0890 -2.9227  1.8000
 5641TIP3    H238483   5.030   1.133   0.304  0.3268 -0.9208 -0.1873
 5642TIP3   OH238484   4.272   1.504   6.140 -0.3511 -0.3328  0.7802
 5642TIP3    H138485   4.322   1.579   6.172 -0.2681 -0.5947  1.2758
 5642TIP3    H238486   4.193   1.504   6.193 -1.9792  1.3781 -1.4356
 5643TIP3   OH238487   3.625   3.833   8.046 -0.0406  0.2094 -0.3325
 5643TIP3    H138488   3.637   3.778   7.969  1.5832 -0.8083  0.6062
 5643TIP3    H238489   3.707   3.827   8.094 -0.5987  1.7344  0.9206
 5644TIP3   OH238490   6.563   6.759   7.909 -0.1177  0.0266  0.1898
 5644TIP3    H138491   6.625   6.734   7.978 -0.2156 -0.7531 -0.0033
 5644TIP3    H238492   6.516   6.834   7.946 -0.2199 -0.4281  0.9987
 5645TIP3   OH238493   2.908   6.447   1.676  0.2486 -0.6536 -0.0612
 5645TIP3    H138494   2.837   6.504   1.706  2.2341  2.7495 -1.1364
 5645TIP3    H238495   2.978   6.459   1.740  1.6011  0.2301 -1.5950
 5646TIP3   OH238496   3.742   0.047   0.680 -0.1842  0.4363 -0.1757
 5646TIP3    H138497   3.796  -0.004   0.741 -0.5706 -1.6406 -1.4833
 5646TIP3    H238498   3.805   0.100   0.631  0.3691  0.2189  0.2885
 5647TIP3   OH238499   6.148   4.524   0.452 -0.5185  0.2768 -0.1035
 5647TIP3    H138500   6.195   4.604   0.472 -1.1174  1.1076 -1.8682
 5647TIP3    H238501   6.216   4.459   0.433 -0.0549  0.7477 -0.0483
 5648TIP3   OH238502   5.103   5.691   7.629  0.2431 -0.7116  0.1542
 5648TIP3    H138503   5.014   5.704   7.596  0.4556 -1.3989 -0.7419
 5648TIP3    H238504   5.137   5.779   7.643 -0.0556 -0.4045 -0.9608
 5649TIP3   OH238505   4.472   5.089   6.489  0.2095  0.9486  0.0929
 5649TIP3    H138506   4.405   5.021   6.500  0.7130  0.1251 -1.6787
 5649TIP3    H238507   4.422   5.167   6.466 -0.3181  1.0377  1.4374
 5650TIP3   OH238508   2.760   4.678   1.681  0.1716  0.1626  1.0245
 5650TIP3    H138509   2.739   4.765   1.715 -2.0377 -0.2604  0.8487
 5650TIP3    H238510   2.698   4.619   1.724  0.4785 -1.0849 -0.1626
 5651TIP3   OH238511   4.970   5.731   7.260  0.6514 -0.0945  0.0919
 5651TIP3    H138512   4.916   5.654   7.239  0.5308  0.2382 -0.8790
 5651TIP3    H238513   5.044   5.725   7.200  0.7815  0.4025  0.2001
 5652TIP3   OH238514   6.191   6.014   8.201 -0.7529 -0.6171 -0.1584
 5652TIP3    H138515   6.192   6.093   8.255 -1.7441 -0.7755  0.1174
 5652TIP3    H238516   6.266   5.963   8.231  0.6333  0.7403 -1.1674
 5653TIP3   OH238517   5.938   3.240   8.646 -0.0570  0.1439 -0.0696
 5653TIP3    H138518   5.858   3.293   8.643  0.1164  0.6094  1.9249
 5653TIP3    H238519   5.985   3.272   8.724  1.6547 -0.7106 -0.7054
 5654TIP3   OH238520   5.515   4.062   6.217 -0.5709 -0.2028  0.2955
 5654TIP3    H138521   5.508   4.119   6.140 -0.9358  0.7881  1.0459
 5654TIP3    H238522   5.511   3.974   6.181  1.6039  0.1854 -1.0651
 5655TIP3   OH238523   5.810   3.242   0.256  0.6606 -0.0676 -0.0837
 5655TIP3    H138524   5.889   3.253   0.310  1.1547 -0.1029 -0.7872
 5655TIP3    H238525   5.744   3.208   0.317  1.5545 -1.2849  0.2493
 5656TIP3   OH238526   5.463   4.210   7.293  0.1584  0.1596 -0.3794
 5656TIP3    H138527   5.532   4.167   7.344  1.5902  1.1736 -1.4067
 5656TIP3    H238528   5.444   4.290   7.342  0.4609  0.3942 -0.6443
 5657TIP3   OH238529   6.467   1.889   0.801  0.0361 -0.6055 -0.9184
 5657TIP3    H138530   6.562   1.885   0.816  0.0137 -2.1098 -0.9714
 5657TIP3    H238531   6.440   1.797   0.800 -1.8500 -0.1731  1.5662
 5658TIP3   OH238532   6.181   1.184   6.631 -0.1526 -0.4304 -0.5057
 5658TIP3    H138533   6.096   1.169   6.590 -0.2708  0.4483 -0.6092
 5658TIP3    H238534   6.243   1.137   6.575 -0.6313 -1.6218 -0.0587
 5659TIP3   OH238535   0.652   1.191   7.011 -0.4502 -0.1198  0.0213
 5659TIP3    H138536   0.688   1.240   7.085 -0.0049  1.4204 -1.1455
 5659TIP3    H238537   0.582   1.138   7.049 -0.2141  0.5988  1.5410
 5660TIP3   OH238538   2.511   5.824   0.917 -0.5452 -0.2654 -0.2900
 5660TIP3    H138539   2.565   5.899   0.895 -0.5063  0.2392  1.3585
 5660TIP3    H238540   2.550   5.789   0.998 -1.2068 -1.3945 -0.4371
 5661TIP3   OH238541   2.779   2.146   1.332 -0.4694 -0.9005 -0.1047
 5661TIP3    H138542   2.752   2.231   1.299 -0.7182 -1.0445 -0.2827
 5661TIP3    H238543   2.767   2.087   1.257 -1.9853 -1.4171  0.5235
 5662TIP3   OH238544   6.148   0.206   6.997 -0.1076  0.3461  0.2259
 5662TIP3    H138545   6.141   0.236   7.087  1.9723  0.3170  0.4497
 5662TIP3    H238546   6.223   0.254   6.962  1.2948 -2.1214 -0.3991
 5663TIP3   OH238547   3.887   3.450   1.589 -0.0571  0.4063  0.1503
 5663TIP3    H138548   3.840   3.427   1.670 -0.7807  2.4856  0.3822
 5663TIP3    H238549   3.957   3.508   1.618  2.6204 -2.3400 -0.2411
 5664TIP3   OH238550   4.749   6.544   7.064  0.1212 -0.6165  0.2956
 5664TIP3    H138551   4.725   6.475   7.002 -0.7679  0.5087 -0.6578
 5664TIP3    H238552   4.840   6.564   7.044 -0.5487  0.7474 -1.7404
 5665TIP3   OH238553   5.007   6.624   8.061  0.2300  0.1249 -0.2432
 5665TIP3    H138554   4.942   6.575   8.012  0.1164  0.0877 -0.0575
 5665TIP3    H238555   4.985   6.608   8.153  0.3079  0.3664 -0.1812
 5666TIP3   OH238556   5.089   4.258   8.018 -0.0418 -0.4844  0.1032
 5666TIP3    H138557   5.132   4.174   8.029  1.8184  0.6276  2.0418
 5666TIP3    H238558   5.040   4.271   8.100 -0.4283  0.2640 -0.2289
 5667TIP3   OH238559   3.699   2.490   2.423 -0.6104 -0.0855 -0.6510
 5667TIP3    H138560   3.774   2.480   2.483  0.0319  0.4124 -1.3488
 5667TIP3    H238561   3.681   2.584   2.423  0.4957  0.1670 -2.5110
 5668TIP3   OH238562   0.376   3.092   8.742  0.2875 -0.2637  0.3748
 5668TIP3    H138563   0.396   3.009   8.699 -0.0359  0.1780 -0.6562
 5668TIP3    H238564   0.298   3.125   8.697  1.7513  1.7301 -0.9069
 5669TIP3   OH238565   1.412   2.864   8.835 -0.5674 -0.0157 -0.4946
 5669TIP3    H138566   1.379   2.816   8.910  0.4862 -0.5264 -0.3367
 5669TIP3    H238567   1.342   2.925   8.813  0.1433  2.2298  2.7217
 5670TIP3   OH238568   6.181   4.428   1.455  0.5335  0.2770 -0.0003
 5670TIP3    H138569   6.196   4.334   1.445  1.9344  0.7647 -3.9214
 5670TIP3    H238570   6.252   4.458   1.511  1.7611 -0.6347 -1.0229
 5671TIP3   OH238571   3.090   0.210   7.936 -0.1225 -0.0707  0.6098
 5671TIP3    H138572   3.175   0.200   7.979 -0.6223  0.0384  1.6515
 5671TIP3    H238573   3.053   0.289   7.976 -0.4765  0.2125 -0.2542
 5672TIP3   OH238574   6.551   2.041   2.138  0.3596 -0.7352  0.0051
 5672TIP3    H138575   6.473   1.994   2.107 -0.1253  0.8115 -1.2934
 5672TIP3    H238576   6.548   2.031   2.233 -0.4349 -2.1962 -0.1419
 5673TIP3   OH238577   2.692   1.821   1.377 -0.4578 -0.1882  0.1651
 5673TIP3    H138578   2.716   1.903   1.335  0.8405 -0.3968  0.4345
 5673TIP3    H238579   2.684   1.842   1.470 -3.6136  0.3353 -0.1193
 5674TIP3   OH238580   3.124   1.554   8.753 -0.6943 -0.1101  0.2702
 5674TIP3    H138581   3.119   1.613   8.829  1.8941 -1.1908  1.3927
 5674TIP3    H238582   3.189   1.594   8.696 -1.8888  0.1589 -0.9470
 5675TIP3   OH238583   2.763   5.401   7.165 -0.0043 -0.3701 -0.5917
 5675TIP3    H138584   2.684   5.346   7.170 -0.8143  0.7773 -0.3735
 5675TIP3    H238585   2.827   5.346   7.120 -0.8417 -1.4292 -0.5448
 5676TIP3   OH238586   4.088   5.360   7.876 -0.1045  0.1801  0.0527
 5676TIP3    H138587   4.010   5.365   7.821  0.1917 -0.0006 -0.3832
 5676TIP3    H238588   4.160   5.382   7.818  0.0145  2.1520  0.8557
 5677TIP3   OH238589   6.795   6.009   8.691  0.2660 -0.6075  0.0326
 5677TIP3    H138590   6.767   6.075   8.626 -1.4094 -0.1145  1.1837
 5677TIP3    H238591   6.722   5.948   8.695 -0.4022  0.2601  2.5680
 5678TIP3   OH238592   0.282   1.722   0.281  0.7854  0.1734  0.0355
 5678TIP3    H138593   0.353   1.738   0.343 -0.2229 -0.0508  1.2922
 5678TIP3    H238594   0.264   1.807   0.243  1.7962  0.2110 -0.3919
 5679TIP3   OH238595   3.556   4.264   1.495  0.2177 -0.5779  0.5211
 5679TIP3    H138596   3.631   4.282   1.552  1.0157 -0.9142 -0.3852
 5679TIP3    H238597   3.479   4.285   1.548  0.9415 -0.6668  1.6313
 5680TIP3   OH238598   5.683   4.912   2.012 -0.3134  0.3774 -0.1397
 5680TIP3    H138599   5.672   5.007   2.017  1.0962  0.5876 -0.5851
 5680TIP3    H238600   5.633   4.887   1.934 -0.7448  0.7485  0.0157
 5681TIP3   OH238601   5.695   3.381   0.664 -0.2776 -0.6293 -0.6251
 5681TIP3    H138602   5.772   3.378   0.608 -0.4613 -0.8132 -0.8711
 5681TIP3    H238603   5.721   3.335   0.743 -0.6962 -2.2720 -1.4106
 5682TIP3   OH238604   0.210   1.221   7.525 -0.1096 -0.5682  0.3317
 5682TIP3    H138605   0.217   1.248   7.434  1.2028 -0.2804  0.5054
 5682TIP3    H238606   0.271   1.148   7.533 -0.3868 -0.7420  0.9345
 5683TIP3   OH238607   1.949   2.397   0.456 -0.0726  0.1878 -0.0994
 5683TIP3    H138608   1.917   2.410   0.367  0.1037  2.8029  0.1357
 5683TIP3    H238609   1.898   2.459   0.509  1.4842  0.4103  1.2149
 5684TIP3   OH238610   5.914   6.119   0.251  0.3377 -0.4227 -0.1429
 5684TIP3    H138611   5.939   6.169   0.329  1.4864  0.6980 -1.1870
 5684TIP3    H238612   5.822   6.098   0.264  0.2438  0.6475  1.0330
 5685TIP3   OH238613   4.529   4.196   7.443  0.1647  0.1727  0.2309
 5685TIP3    H138614   4.517   4.128   7.376 -0.2461  1.3803 -0.9560
 5685TIP3    H238615   4.614   4.235   7.423  0.9668 -0.7294  1.6464
 5686TIP3   OH238616   2.919   3.123   7.985  0.5676 -0.4030 -0.2685
 5686TIP3    H138617   2.825   3.134   7.975  0.4576 -1.5732 -0.7444
 5686TIP3    H238618   2.939   3.159   8.071 -0.2534  0.1843 -0.3143
 5687TIP3   OH238619   4.672   4.638   8.724  0.0593  0.0133 -0.1870
 5687TIP3    H138620   4.631   4.609   8.642 -0.6632  2.7590 -0.8908
 5687TIP3    H238621   4.762   4.661   8.699 -0.6902  2.6585 -0.7368
 5688TIP3   OH238622   2.229   0.935   1.836  0.3218  0.2424 -0.1229
 5688TIP3    H138623   2.288   0.867   1.868  0.3683  0.6601  0.7129
 5688TIP3    H238624   2.226   0.922   1.741  2.4484  0.7327 -0.3198
 5689TIP3   OH238625   4.969   6.467   2.142  0.0750 -0.5209 -0.3549
 5689TIP3    H138626   5.020   6.536   2.184 -1.5942 -0.8213  2.3457
 5689TIP3    H238627   4.912   6.514   2.081  0.0156  0.3273  0.3329
 5690TIP3   OH238628   3.871   1.357   1.305  0.5382  0.6901  0.0434
 5690TIP3    H138629   3.871   1.327   1.396 -1.1245 -0.4720 -0.2927
 5690TIP3    H238630   3.809   1.430   1.304 -0.4994 -0.1812 -0.3995
 5691TIP3   OH238631   2.835   0.443   0.142  0.2706  0.0786  0.3171
 5691TIP3    H138632   2.861   0.354   0.117 -1.6850 -0.8077  1.2291
 5691TIP3    H238633   2.865   0.452   0.232  2.1319  1.1053 -0.3434
 5692TIP3   OH238634   6.406   6.301   7.715  0.0423  0.3430  0.1895
 5692TIP3    H138635   6.370   6.318   7.802 -1.7265  1.3022 -0.6794
 5692TIP3    H238636   6.358   6.360   7.657  2.5316  1.1538 -1.1874
 5693TIP3   OH238637   6.798   4.863   0.711  0.3711 -0.2159 -0.4141
 5693TIP3    H138638   6.883   4.822   0.725  0.3687  0.0149  0.3030
 5693TIP3    H238639   6.760   4.870   0.798 -0.4706 -0.5025 -0.7428
 5694TIP3   OH238640   3.077   4.370   8.524 -0.1775  0.8206  0.0910
 5694TIP3    H138641   3.128   4.448   8.501 -1.7363  1.7688 -0.2637
 5694TIP3    H238642   3.000   4.374   8.467 -0.2194 -1.0903 -0.0619
 5695TIP3   OH238643   4.537   3.420   0.478 -0.1217 -0.4604  0.1368
 5695TIP3    H138644   4.467   3.403   0.541 -0.6581 -1.5683 -0.7347
 5695TIP3    H238645   4.499   3.484   0.418 -0.0400 -0.3321  0.2207
 5696TIP3   OH238646   1.447   3.747   6.606 -0.7417  0.4634  0.1970
 5696TIP3    H138647   1.526   3.713   6.563 -0.5750  1.2809 -0.1737
 5696TIP3    H238648   1.469   3.838   6.626 -1.4263  0.5633  0.5125
 5697TIP3   OH238649   5.403   0.596   0.947  0.0367  0.5698 -0.6931
 5697TIP3    H138650   5.422   0.503   0.935 -2.8514 -0.2135  0.1091
 5697TIP3    H238651   5.490   0.638   0.948  1.4091 -2.0349 -1.3308
 5698TIP3   OH238652   3.712   1.032   8.268  0.4709  0.1163  0.7506
 5698TIP3    H138653   3.742   1.086   8.195  2.0372 -1.8219 -0.1230
 5698TIP3    H238654   3.621   1.011   8.247  0.2643  1.2411  0.4346
 5699TIP3   OH238655   6.489   2.663   8.594 -0.0189 -0.6996 -0.2061
 5699TIP3    H138656   6.460   2.754   8.592  0.1536 -0.5939 -3.3485
 5699TIP3    H238657   6.506   2.645   8.687 -1.1813  2.0657  0.6503
 5700TIP3   OH238658   1.522   0.878   0.913  0.0612 -0.3002 -0.3164
 5700TIP3    H138659   1.428   0.861   0.905  0.0318 -0.4154  0.2094
 5700TIP3    H238660   1.563   0.797   0.884 -0.0082 -0.3034 -0.4056
 5701TIP3   OH238661   0.955   2.132   6.685 -0.5630  0.4809 -0.3804
 5701TIP3    H138662   0.870   2.176   6.691 -1.0413  0.0789 -2.9154
 5701TIP3    H238663   0.937   2.053   6.633  1.5709  1.2095 -2.4136
 5702TIP3   OH238664   1.067   5.610   7.028 -0.2507 -0.7347 -0.9962
 5702TIP3    H138665   1.149   5.658   7.017  0.5176 -1.8712 -0.3916
 5702TIP3    H238666   1.029   5.609   6.940  1.0985 -1.4263 -1.6057
 5703TIP3   OH238667   1.151   0.092   0.990  0.2567  0.0070  0.5612
 5703TIP3    H138668   1.218   0.061   0.928 -0.2231 -1.1440  0.6033
 5703TIP3    H238669   1.100   0.014   1.011 -0.5771  0.7111  1.1885
 5704TIP3   OH238670   0.795   0.986   8.658 -0.5818 -0.5424  0.1766
 5704TIP3    H138671   0.859   0.944   8.715  1.6356  0.8700 -1.1441
 5704TIP3    H238672   0.785   1.074   8.694 -0.6592 -0.2774 -0.4771
 5705TIP3   OH238673   6.087   4.271   7.526  0.8640 -0.0991 -0.0619
 5705TIP3    H138674   6.076   4.231   7.612 -2.1626  0.3652 -0.1270
 5705TIP3    H238675   6.088   4.365   7.543 -4.1357  0.3262 -0.6121
 5706TIP3   OH238676   3.991   4.084   7.284 -0.2828 -0.3814  0.7763
 5706TIP3    H138677   3.939   4.027   7.340 -2.1303 -0.4950 -0.9559
 5706TIP3    H238678   3.969   4.058   7.195 -0.2522  2.1941 -0.0680
 5707TIP3   OH238679   3.800   2.699   7.192 -0.5573 -0.6700 -0.5159
 5707TIP3    H138680   3.823   2.672   7.281  0.9408 -0.7031 -0.8991
 5707TIP3    H238681   3.721   2.752   7.203  0.9933  1.4715  1.1674
 5708TIP3   OH238682   6.171   3.109   8.021  0.7191 -0.7037  0.6847
 5708TIP3    H138683   6.118   3.031   8.038 -1.2135  0.6938  1.5754
 5708TIP3    H238684   6.210   3.131   8.106  0.6780 -0.3325  0.6123
 5709TIP3   OH238685   2.728   2.352   6.272  0.2818 -0.0739 -0.0885
 5709TIP3    H138686   2.709   2.265   6.236  0.2858 -0.7638  1.5080
 5709TIP3    H238687   2.820   2.347   6.299  0.7340  0.9442 -1.3579
 5710TIP3   OH238688   4.084   3.296   6.219 -0.6673 -0.1522  0.1424
 5710TIP3    H138689   4.066   3.225   6.280 -1.3694  0.3445  0.5317
 5710TIP3    H238690   4.041   3.269   6.138  1.2588 -1.3707 -0.5565
 5711TIP3   OH238691   2.551   1.212   0.256  0.0410 -0.1127 -0.4005
 5711TIP3    H138692   2.586   1.288   0.210 -0.1800 -0.0268 -0.4289
 5711TIP3    H238693   2.477   1.184   0.203 -1.4772  1.1959  0.9360
 5712TIP3   OH238694   2.044   4.403   7.783  0.0570 -0.0874 -0.0847
 5712TIP3    H138695   1.963   4.396   7.732 -0.0557  2.2721 -0.3521
 5712TIP3    H238696   2.021   4.366   7.868 -1.6362  1.2752  0.1312
 5713TIP3   OH238697   2.514   5.585   2.215 -0.3327 -0.2086  0.0201
 5713TIP3    H138698   2.433   5.557   2.258 -0.1702 -0.1806  0.3466
 5713TIP3    H238699   2.536   5.668   2.258  1.0993 -1.3204  1.5465
 5714TIP3   OH238700   0.300   5.275   8.418 -0.1224 -0.1068  0.0778
 5714TIP3    H138701   0.212   5.295   8.449 -0.6913 -0.4464 -1.2866
 5714TIP3    H238702   0.357   5.312   8.486 -1.2864  0.4253  0.8082
 5715TIP3   OH238703   3.507   3.538   0.783  0.2991 -0.2558 -0.0477
 5715TIP3    H138704   3.474   3.536   0.693  0.6025  2.1716 -0.2841
 5715TIP3    H238705   3.493   3.628   0.811 -0.6501 -1.1582  2.7080
 5716TIP3   OH238706   2.742   4.031   7.405 -0.1340 -0.2170 -0.5001
 5716TIP3    H138707   2.723   4.118   7.438  0.5069 -0.8195  1.6778
 5716TIP3    H238708   2.832   4.036   7.373 -0.7377  0.3598 -2.1755
 5717TIP3   OH238709   0.832   4.983   0.625  0.4319 -0.6493  0.0603
 5717TIP3    H138710   0.793   4.988   0.538 -0.8796 -1.4720  0.5804
 5717TIP3    H238711   0.923   5.009   0.612 -0.7443  3.8838 -0.7946
 5718TIP3   OH238712   6.646   2.319   2.723 -0.1643  0.3996  0.2713
 5718TIP3    H138713   6.685   2.236   2.751 -0.6865 -0.0646 -0.3407
 5718TIP3    H238714   6.686   2.335   2.637 -1.0791  0.0624 -0.2352
 5719TIP3   OH238715   0.844   2.816   7.148 -0.6150 -0.7205  0.2127
 5719TIP3    H138716   0.908   2.886   7.156 -0.8389 -0.5862  0.8534
 5719TIP3    H238717   0.866   2.773   7.065  2.1265 -2.4870  1.6842
 5720TIP3   OH238718   5.229   0.668   0.262  0.3007 -0.0018  0.0041
 5720TIP3    H138719   5.287   0.598   0.291  0.3417  0.5830  1.4317
 5720TIP3    H238720   5.280   0.748   0.275 -0.8101  0.5214  1.3260
 5721TIP3   OH238721   1.391   5.869   7.528 -0.0813  0.1194 -0.2363
 5721TIP3    H138722   1.376   5.805   7.597 -0.8406  2.1135  1.5886
 5721TIP3    H238723   1.305   5.883   7.489  0.3382 -0.9713 -1.6289
 5722TIP3   OH238724   4.814   4.701   7.811 -0.2323  0.2401 -0.2389
 5722TIP3    H138725   4.743   4.755   7.777 -0.2544  0.9900  0.9158
 5722TIP3    H238726   4.880   4.701   7.742 -0.8185  0.6120 -0.8023
 5723TIP3   OH238727   6.044   0.334   1.533 -0.1727 -0.6468 -0.0716
 5723TIP3    H138728   6.104   0.407   1.544 -1.3825  0.5214 -0.8164
 5723TIP3    H238729   6.085   0.261   1.580  1.5654  0.2137 -0.1661
 5724TIP3   OH238730   4.728   6.110   8.146 -0.4397  0.3183 -0.6145
 5724TIP3    H138731   4.722   6.032   8.200  0.4795  0.2356 -0.6036
 5724TIP3    H238732   4.720   6.079   8.057  0.1593  0.1743 -0.6211
 5725TIP3   OH238733   0.747   1.949   8.460 -0.2810  0.4409  0.5569
 5725TIP3    H138734   0.811   2.017   8.438  0.6490 -1.3971 -3.3438
 5725TIP3    H238735   0.669   1.973   8.411 -1.0867  0.3079  1.7303
 5726TIP3   OH238736   1.438   3.981   7.772  0.0691  0.5021  0.4262
 5726TIP3    H138737   1.416   3.957   7.862  1.3656  1.7173  1.1055
 5726TIP3    H238738   1.532   4.000   7.774  0.2450  0.0357 -1.3209
 5727TIP3   OH238739   0.641   3.189   8.734  0.1899  0.0904 -0.2432
 5727TIP3    H138740   0.545   3.187   8.732 -0.0675  3.3852  1.5982
 5727TIP3    H238741   0.662   3.237   8.814  3.4181 -0.5338 -0.5931
 5728TIP3   OH238742   5.660   6.095   6.632  0.1411 -0.0367 -0.3668
 5728TIP3    H138743   5.637   6.176   6.586  0.4736  0.4303  0.2675
 5728TIP3    H238744   5.737   6.063   6.585 -0.9455 -0.8896 -1.6534
 5729TIP3   OH238745   2.379   2.257   7.381  0.1622 -0.4545 -0.1317
 5729TIP3    H138746   2.418   2.286   7.298 -1.3646  2.3132 -0.0030
 5729TIP3    H238747   2.444   2.281   7.447  0.1020  0.1345 -0.2833
 5730TIP3   OH238748   2.016   4.615   0.024 -0.0330  0.3944  0.2959
 5730TIP3    H138749   1.962   4.666  -0.036  0.2925 -0.5954 -0.8818
 5730TIP3    H238750   1.970   4.531   0.033 -0.4835  0.7900  2.0769
 5731TIP3   OH238751   0.173   3.024   1.530  0.2060  0.2282 -0.1943
 5731TIP3    H138752   0.113   3.064   1.466  2.2941  2.6369 -0.8252
 5731TIP3    H238753   0.247   2.994   1.477 -0.0744 -2.0473  0.6349
 5732TIP3   OH238754   6.745   5.946   6.221  0.2847 -0.0316  0.5515
 5732TIP3    H138755   6.794   5.866   6.241 -0.3297  0.0294  2.5176
 5732TIP3    H238756   6.654   5.916   6.210 -0.3038  0.5095  3.1455
 5733TIP3   OH238757   3.322   2.552   1.635  0.3306 -0.2168  0.4990
 5733TIP3    H138758   3.237   2.591   1.654  1.8106  3.7311 -0.1081
 5733TIP3    H238759   3.326   2.547   1.540  0.7637 -0.4081  0.5240
 5734TIP3   OH238760   3.217   2.330   8.847 -0.6774 -0.1908 -0.4680
 5734TIP3    H138761   3.155   2.387   8.893  0.5790  0.3931  0.6122
 5734TIP3    H238762   3.297   2.336   8.900  0.1916 -1.1717 -1.6219
 5735TIP3   OH238763   0.045   2.157   2.381 -0.6411 -0.4130  0.2190
 5735TIP3    H138764   0.081   2.130   2.466  2.0520  2.8081  0.2894
 5735TIP3    H238765  -0.010   2.233   2.401  0.5103  0.7664 -0.9062
 5736TIP3   OH238766   3.450   2.149   2.133  0.0772  0.3990  0.4898
 5736TIP3    H138767   3.524   2.130   2.075 -0.0270  1.5291 -0.0336
 5736TIP3    H238768   3.385   2.082   2.112  0.8518 -0.4780  0.8097
 5737TIP3   OH238769   6.363   3.767   1.680  0.3375 -0.7453  0.1494
 5737TIP3    H138770   6.303   3.840   1.699  1.2003  0.3278 -1.1067
 5737TIP3    H238771   6.308   3.702   1.637  0.0408  0.2379 -1.0122
 5738TIP3   OH238772   6.302   5.940   1.352  0.6600  0.0264 -0.0399
 5738TIP3    H138773   6.256   5.858   1.335 -0.8037  1.1039 -1.7377
 5738TIP3    H238774   6.274   5.966   1.440 -1.3814  0.1925 -0.6798
 5739TIP3   OH238775   2.507   2.573   7.158  0.4709  0.2717 -0.4312
 5739TIP3    H138776   2.503   2.478   7.152  0.1023  0.2670 -0.1667
 5739TIP3    H238777   2.437   2.604   7.100 -0.9924  0.3057  1.2423
 5740TIP3   OH238778   3.112   3.139   7.558 -0.0059  0.1175  0.2146
 5740TIP3    H138779   3.187   3.120   7.502  0.2447  0.4320  0.4381
 5740TIP3    H238780   3.103   3.234   7.554  1.4530  0.4434  2.4717
 5741TIP3   OH238781   2.617   6.457   8.429 -0.2940 -0.1303  0.1573
 5741TIP3    H138782   2.699   6.498   8.402  0.1957 -1.7509 -0.9312
 5741TIP3    H238783   2.630   6.435   8.522  0.9742 -1.3793 -0.2778
 5742TIP3   OH238784   6.434   5.437   6.624 -0.0827 -0.3949  0.1187
 5742TIP3    H138785   6.398   5.360   6.668 -2.3173  1.6236  2.1470
 5742TIP3    H238786   6.496   5.473   6.686  0.4187 -0.1613 -0.5108
 5743TIP3   OH238787   1.846   6.713   2.537 -0.1864 -0.0178  0.6512
 5743TIP3    H138788   1.887   6.639   2.492  0.2814  0.4020  0.3803
 5743TIP3    H238789   1.775   6.674   2.587 -0.6636 -0.5163 -0.3728
 5744TIP3   OH238790   4.132   4.539   1.415  0.1676 -0.7857  0.1206
 5744TIP3    H138791   4.070   4.598   1.373  1.2329  0.5524  0.3643
 5744TIP3    H238792   4.125   4.559   1.509  0.8837 -0.6984  0.1594
 5745TIP3   OH238793   1.414   1.765   8.407  0.2032 -0.1155  0.4777
 5745TIP3    H138794   1.347   1.829   8.383  0.1428 -0.3100  0.1202
 5745TIP3    H238795   1.494   1.797   8.365  0.1447 -0.3410  0.1896
 5746TIP3   OH238796   3.416   5.147   8.689 -0.0563 -0.3970 -0.5956
 5746TIP3    H138797   3.332   5.136   8.646 -0.0433 -2.0322 -0.2941
 5746TIP3    H238798   3.469   5.073   8.658  0.8808 -0.0305  0.0647
 5747TIP3   OH238799   4.466   0.740   0.358 -0.0409 -0.0781  0.8203
 5747TIP3    H138800   4.485   0.833   0.343  1.2250 -0.3798  0.4800
 5747TIP3    H238801   4.384   0.741   0.408  0.3999  1.2622  1.5895
 5748TIP3   OH238802   1.985   5.137   8.017  0.2755  0.0134 -0.1621
 5748TIP3    H138803   2.035   5.178   8.087 -1.4968 -0.8133  1.6968
 5748TIP3    H238804   1.936   5.208   7.976  1.0789  0.4513 -0.3853
 5749TIP3   OH238805   3.202   6.790   8.263 -0.4954 -0.4147 -0.5692
 5749TIP3    H138806   3.194   6.697   8.283 -1.0465 -0.7574 -2.2910
 5749TIP3    H238807   3.263   6.823   8.330 -1.7096 -1.5935  1.2139
 5750TIP3   OH238808   4.182   0.336   0.797  1.0813 -0.0956  0.0102
 5750TIP3    H138809   4.220   0.281   0.865 -0.2996 -1.1352 -0.0118
 5750TIP3    H238810   4.148   0.412   0.843 -0.1375 -0.9452  0.5688
 5751TIP3   OH238811   0.288   2.834   7.647 -0.7984 -0.3326 -0.0655
 5751TIP3    H138812   0.276   2.742   7.623 -1.1056 -0.7892  1.7127
 5751TIP3    H238813   0.301   2.879   7.563  0.5709 -2.1490 -0.9048
 5752TIP3   OH238814   3.236   1.781   7.242 -0.5658 -0.4463 -0.6709
 5752TIP3    H138815   3.216   1.839   7.169 -0.6243  1.3005  0.6682
 5752TIP3    H238816   3.329   1.761   7.231 -0.3920  0.4089 -0.8209
 5753TIP3   OH238817   2.945   6.797   1.201  0.1586  0.3410 -0.1923
 5753TIP3    H138818   2.903   6.725   1.154 -1.5468  2.2918 -1.8724
 5753TIP3    H238819   3.027   6.811   1.154 -0.2782  0.5189 -0.9284
 5754TIP3   OH238820   0.319   0.360   0.815  0.5779 -0.0804 -0.0810
 5754TIP3    H138821   0.286   0.271   0.822  0.2075  0.1641  2.0551
 5754TIP3    H238822   0.242   0.415   0.824  0.6605  0.5102 -2.3508
 5755TIP3   OH238823   1.433   1.947   7.940 -0.1230 -0.0672  0.2229
 5755TIP3    H138824   1.507   1.954   7.879  0.0450  0.1241  0.4446
 5755TIP3    H238825   1.380   1.876   7.905  1.1324 -1.5018  1.0706
 5756TIP3   OH238826   4.640   0.569   1.546  0.0884  0.5331  0.0238
 5756TIP3    H138827   4.546   0.579   1.564 -0.0959  0.1246 -0.6809
 5756TIP3    H238828   4.645   0.554   1.452  1.0252  2.5647 -0.2952
 5757TIP3   OH238829   6.088   5.004   1.171  0.3989  0.4439 -0.7027
 5757TIP3    H138830   6.144   5.029   1.244 -1.3656  0.4641  0.7024
 5757TIP3    H238831   6.139   4.940   1.122  1.5114  0.2068  0.7133
 5758TIP3   OH238832   4.006   5.406   8.419 -0.4093  0.0714  0.0635
 5758TIP3    H138833   3.976   5.455   8.343  2.0045  0.3616 -0.8121
 5758TIP3    H238834   4.042   5.473   8.478 -0.2375 -0.3325  0.4233
 5759TIP3   OH238835   4.721   0.924   8.491  0.5587  0.0361 -0.2801
 5759TIP3    H138836   4.708   1.009   8.531 -0.7204  0.0971 -0.7969
 5759TIP3    H238837   4.816   0.910   8.494  0.5600  0.2430  2.2784
 5760TIP3   OH238838   4.552   1.847   1.431  0.0496 -0.2040 -0.2826
 5760TIP3    H138839   4.492   1.898   1.486 -2.2315  0.2239 -2.9847
 5760TIP3    H238840   4.554   1.760   1.471  0.0753  0.5884  1.5571
 5761TIP3   OH238841   3.832   6.190   8.699  0.0091 -0.5323  0.0035
 5761TIP3    H138842   3.743   6.174   8.666 -0.5900  1.4069  0.5728
 5761TIP3    H238843   3.831   6.154   8.788 -0.0908 -0.8057 -0.1051
 5762TIP3   OH238844   6.611   4.017   0.898  0.2003  0.1585 -0.2704
 5762TIP3    H138845   6.517   4.018   0.877  0.6175 -2.5669 -2.7984
 5762TIP3    H238846   6.633   4.110   0.910 -2.3565  1.1001 -1.9052
 5763TIP3   OH238847   6.544   5.206   7.894 -0.4659 -0.4545  0.0936
 5763TIP3    H138848   6.605   5.151   7.944 -0.4397 -0.2225  0.3211
 5763TIP3    H238849   6.598   5.242   7.823 -0.1854  0.2170  0.6373
 5764TIP3   OH238850   1.412   5.863   6.741  0.0751  0.5463 -0.0006
 5764TIP3    H138851   1.476   5.806   6.783  1.1712  1.8288  0.1336
 5764TIP3    H238852   1.434   5.859   6.648 -0.5641 -0.0980 -0.1354
 5765TIP3   OH238853   0.658   4.740   0.559  0.6526 -0.3136 -0.0893
 5765TIP3    H138854   0.681   4.826   0.592 -1.9404  0.5802 -0.3884
 5765TIP3    H238855   0.702   4.734   0.474  0.1852  1.0842 -0.4477
 5766TIP3   OH238856   1.445   6.801   2.359  0.2135  0.2486  0.6063
 5766TIP3    H138857   1.402   6.796   2.273 -0.7288 -2.2278  1.1347
 5766TIP3    H238858   1.537   6.781   2.340  0.0372 -0.1511  0.1372
 5767TIP3   OH238859   1.468   1.603   6.816 -0.2837  0.4824  0.1158
 5767TIP3    H138860   1.484   1.543   6.743 -0.1823  2.3072 -1.4415
 5767TIP3    H238861   1.374   1.621   6.811 -0.1106  1.3423 -0.1765
 5768TIP3   OH238862   4.749   3.508   1.946 -0.5598 -0.4054  0.0482
 5768TIP3    H138863   4.674   3.511   2.005 -0.6607 -1.8305  0.0340
 5768TIP3    H238864   4.738   3.585   1.890 -1.3608  0.0588  0.8061
 5769TIP3   OH238865   5.307   6.100   8.716  0.1170  0.0888  0.8183
 5769TIP3    H138866   5.286   6.190   8.692  1.6464 -0.2575 -2.1791
 5769TIP3    H238867   5.401   6.102   8.735  0.4923 -1.1105 -0.7709
 5770TIP3   OH238868   2.552   1.581   7.802 -0.3025 -0.0390  0.5322
 5770TIP3    H138869   2.550   1.643   7.730  0.7326 -0.2591  0.2875
 5770TIP3    H238870   2.646   1.567   7.818 -0.5197 -0.2685  1.6753
 5771TIP3   OH238871   6.701   3.011   8.512 -0.1972 -0.2637  0.1944
 5771TIP3    H138872   6.611   3.014   8.479  0.7294  0.5271 -2.5029
 5771TIP3    H238873   6.693   2.972   8.599 -3.1519 -0.0697  0.1108
 5772TIP3   OH238874   1.893   1.541   7.523  0.1559  0.1310 -0.2105
 5772TIP3    H138875   1.880   1.457   7.478  2.7567  0.0807 -1.0643
 5772TIP3    H238876   1.853   1.530   7.608 -0.2467 -1.7131 -0.6042
 5773TIP3   OH238877   2.200   1.527   0.885  0.5399 -0.5566 -0.1275
 5773TIP3    H138878   2.244   1.498   0.805  0.1445 -1.2580 -0.0974
 5773TIP3    H238879   2.206   1.623   0.882 -0.3637 -0.5149 -1.5250
 5774TIP3   OH238880   4.800   2.805   8.449  0.0635 -0.1868  0.2040
 5774TIP3    H138881   4.721   2.755   8.428 -1.0341  0.9344  1.4965
 5774TIP3    H238882   4.867   2.739   8.466 -0.4988 -1.1548 -1.1552
 5775TIP3   OH238883   6.164   2.411   0.865  0.1753 -0.2498 -0.1815
 5775TIP3    H138884   6.233   2.353   0.835  0.0470 -0.1813 -0.6066
 5775TIP3    H238885   6.158   2.479   0.798 -0.0073 -0.0123  0.0695
 5776TIP3   OH238886   2.950   5.106   6.806 -0.2659 -0.0463 -0.2175
 5776TIP3    H138887   2.946   5.049   6.730  0.7961 -1.8404  0.9878
 5776TIP3    H238888   2.872   5.084   6.858 -1.1889  1.4357 -0.9071
 5777TIP3   OH238889   0.898   6.142   8.262 -0.1675  0.4091  0.0146
 5777TIP3    H138890   0.965   6.115   8.198 -1.1184 -2.2803  0.0609
 5777TIP3    H238891   0.949   6.176   8.336  1.2280 -1.8015  0.1585
 5778TIP3   OH238892   6.714   1.379   0.842 -0.1469 -0.6550 -0.4063
 5778TIP3    H138893   6.732   1.362   0.934  0.6134 -1.7952 -0.7443
 5778TIP3    H238894   6.764   1.458   0.822 -0.8573 -0.0007  0.3057
 5779TIP3   OH238895   1.221   4.371   7.867  0.3710 -0.2276 -0.0534
 5779TIP3    H138896   1.187   4.349   7.953  0.6108 -1.0545 -0.1672
 5779TIP3    H238897   1.170   4.318   7.806  0.5547 -0.0358 -0.3777
 5780TIP3   OH238898   1.754   3.417   8.527  0.2058 -0.3773  0.1516
 5780TIP3    H138899   1.758   3.513   8.531 -3.2824 -0.0988 -0.1417
 5780TIP3    H238900   1.743   3.398   8.434 -1.5799 -0.8531  0.4380
 5781TIP3   OH238901   6.524   3.561   6.526 -0.2285  0.2054 -0.3226
 5781TIP3    H138902   6.584   3.509   6.472 -0.7304  1.1624 -1.8652
 5781TIP3    H238903   6.463   3.497   6.563  1.7717 -0.8221  1.4295
 5782TIP3   OH238904   4.828   1.007   1.038 -0.1643  0.0380 -0.1294
 5782TIP3    H138905   4.834   1.014   0.943 -1.2719 -0.2294 -0.2351
 5782TIP3    H238906   4.824   1.098   1.069 -0.1231  0.1178 -0.3590
 5783TIP3   OH238907   6.292   6.557   0.475 -0.1495  0.1154 -0.1972
 5783TIP3    H138908   6.227   6.541   0.544 -0.8297 -2.4269 -1.2994
 5783TIP3    H238909   6.373   6.520   0.509 -0.0639  0.4200 -0.0720
 5784TIP3   OH238910   3.788   2.350   1.134 -0.5287  0.0772  0.0667
 5784TIP3    H138911   3.826   2.360   1.046  0.8397 -2.5050  0.2684
 5784TIP3    H238912   3.839   2.410   1.189  1.4553 -1.2799 -0.1977
 5785TIP3   OH238913   1.745   5.370   0.140  0.2893  0.6270 -0.3148
 5785TIP3    H138914   1.703   5.404   0.219 -1.2008  0.3719 -0.9600
 5785TIP3    H238915   1.815   5.433   0.122  0.0104  1.2440  0.6356
 5786TIP3   OH238916   6.258   3.911   1.130 -0.7094  0.2449 -0.2193
 5786TIP3    H138917   6.284   3.912   1.038  0.0596 -1.9903 -0.0939
 5786TIP3    H238918   6.164   3.924   1.128 -0.7349  0.0457 -1.3473
 5787TIP3   OH238919   6.072   4.216   8.185 -0.2421  0.6886  0.7621
 5787TIP3    H138920   6.105   4.244   8.099 -0.9912  0.1143  0.2803
 5787TIP3    H238921   6.136   4.152   8.215 -1.7482 -1.8437 -1.0054
 5788TIP3   OH238922   0.674   6.543   1.237 -0.0460 -0.1094 -0.6564
 5788TIP3    H138923   0.668   6.571   1.328  0.6868 -1.1638 -0.2655
 5788TIP3    H238924   0.628   6.460   1.234  1.6973 -1.1338 -0.7541
 5789TIP3   OH238925   4.606   2.295   1.065  0.7907  0.1944 -0.5583
 5789TIP3    H138926   4.643   2.368   1.115 -2.0517  1.3091  0.0777
 5789TIP3    H238927   4.578   2.232   1.132  0.7212 -0.2252 -0.9721
 5790TIP3   OH238928   0.262   6.172   7.264 -0.0634 -0.3215 -0.1975
 5790TIP3    H138929   0.186   6.207   7.309 -0.8998 -1.8282 -0.3760
 5790TIP3    H238930   0.237   6.169   7.172  0.3902 -0.3907 -0.3231
 5791TIP3   OH238931   1.145   3.930   8.412  0.2937  0.8385 -0.3316
 5791TIP3    H138932   1.137   3.960   8.502  1.8116 -0.9555  0.4877
 5791TIP3    H238933   1.233   3.958   8.385  0.8042 -0.6492 -0.3598
 5792TIP3   OH238934   3.439   3.582   6.685  0.8345  0.1167  0.2539
 5792TIP3    H138935   3.386   3.523   6.739  0.8133 -0.9265 -0.8597
 5792TIP3    H238936   3.524   3.538   6.677  0.7677  0.1436 -0.7321
 5793TIP3   OH238937   6.554   2.534   7.689  0.1367  0.2883 -0.4940
 5793TIP3    H138938   6.531   2.562   7.778  1.2355 -0.8388  0.1829
 5793TIP3    H238939   6.613   2.602   7.657  0.4046  0.2806 -0.0283
 5794TIP3   OH238940   3.760   3.858   8.809 -0.4546 -0.4486 -0.1279
 5794TIP3    H138941   3.757   3.877   8.715 -1.3252  1.2825  0.2070
 5794TIP3    H238942   3.850   3.833   8.826 -0.3312 -0.9476 -1.4551
 5795TIP3   OH238943   0.025   3.180   0.892 -0.8014  0.0194 -0.5256
 5795TIP3    H138944   0.087   3.189   0.819  1.2578 -0.9399  1.0165
 5795TIP3    H238945  -0.018   3.266   0.897  0.6362  0.8392 -1.4616
 5796TIP3   OH238946   6.792   2.153   8.739  0.2915 -0.0409 -0.0211
 5796TIP3    H138947   6.738   2.222   8.777  0.5876 -0.1527  0.6086
 5796TIP3    H238948   6.796   2.174   8.645  0.0005  0.5337  0.0954
 5797TIP3   OH238949   1.193   6.658   7.990  0.2736 -0.2043  0.4090
 5797TIP3    H138950   1.229   6.683   8.075  0.5457  0.5037  0.0993
 5797TIP3    H238951   1.111   6.613   8.010  1.3199 -1.8655  1.1407
 5798TIP3   OH238952   5.463   4.866   6.585  0.5225  0.1834 -0.3929
 5798TIP3    H138953   5.523   4.792   6.597  2.4220  1.4995 -1.2382
 5798TIP3    H238954   5.447   4.869   6.490 -1.3320 -0.4445 -0.1298
 5799TIP3   OH238955   6.361   0.098   0.111  0.1423  0.2625  0.2042
 5799TIP3    H138956   6.439   0.141   0.145 -1.3686  2.6076  0.9237
 5799TIP3    H238957   6.339   0.032   0.177  2.0268 -1.1643 -0.5103
 5800TIP3   OH238958   0.045   5.470   0.954 -0.0321 -0.4208 -0.0226
 5800TIP3    H138959   0.059   5.429   0.869 -1.7060  3.5709 -2.5652
 5800TIP3    H238960  -0.042   5.440   0.981 -1.7774  1.9939 -2.4448
 5801TIP3   OH238961   3.627   6.128   0.402 -0.4542 -0.1150 -0.3500
 5801TIP3    H138962   3.616   6.219   0.373  0.2565  0.3801  0.8554
 5801TIP3    H238963   3.664   6.135   0.490  2.4331 -1.5879 -1.3242
 5802TIP3   OH238964   0.241   3.218   0.711 -0.3431 -0.1297  0.3119
 5802TIP3    H138965   0.225   3.301   0.667  1.0875  0.0833  0.1326
 5802TIP3    H238966   0.238   3.153   0.642 -0.8487 -0.1518  0.3528
 5803TIP3   OH238967   4.869   5.620   8.169  0.5572 -0.9996 -0.0670
 5803TIP3    H138968   4.808   5.546   8.162  0.0999 -0.6517  0.2220
 5803TIP3    H238969   4.954   5.579   8.182  0.2393 -1.4745  0.5725
 5804TIP3   OH238970   6.093   5.937   7.963 -0.4205 -0.2017 -0.2728
 5804TIP3    H138971   6.088   6.017   7.910 -0.1690 -0.3111 -0.4627
 5804TIP3    H238972   6.142   5.963   8.041  0.6446 -0.4378 -0.8402
 5805TIP3   OH238973   6.664   1.264   8.497  0.3309 -0.4537  1.1853
 5805TIP3    H138974   6.668   1.288   8.404  2.4599  1.7528  1.7708
 5805TIP3    H238975   6.719   1.186   8.504  1.4899  0.3179  0.8387
 5806TIP3   OH238976   3.963   1.885   6.826 -0.2928  0.1154  0.2399
 5806TIP3    H138977   4.039   1.907   6.773 -0.8295  0.8890 -0.2257
 5806TIP3    H238978   3.911   1.827   6.771 -1.3982  1.7899 -0.5626
 5807TIP3   OH238979   4.300   3.127   0.673 -0.3122 -0.5613 -0.2146
 5807TIP3    H138980   4.288   3.032   0.667 -1.0456 -0.4078 -1.9568
 5807TIP3    H238981   4.278   3.159   0.585 -0.5272  1.2688  0.4670
 5808TIP3   OH238982   1.823   6.383   0.839  0.5186  0.1829 -0.3439
 5808TIP3    H138983   1.779   6.442   0.778  1.5300  2.6280  1.1242
 5808TIP3    H238984   1.774   6.392   0.921  0.7315 -1.0029 -0.0671
 5809TIP3   OH238985   2.822   2.055   7.968 -0.0135  0.0554 -0.1226
 5809TIP3    H138986   2.825   2.149   7.987 -0.4351 -0.1995  1.3036
 5809TIP3    H238987   2.819   2.013   8.053 -0.5360 -1.2380 -0.7434
 5810TIP3   OH238988   4.613   2.612   1.395 -0.0532  0.5042 -0.2489
 5810TIP3    H138989   4.608   2.553   1.470 -1.1645 -0.3049 -0.9155
 5810TIP3    H238990   4.534   2.592   1.344  0.3372  1.4973 -1.2903
 5811TIP3   OH238991   3.188   3.470   1.599  0.8682  0.6397  0.0485
 5811TIP3    H138992   3.155   3.381   1.617  1.6297  0.1253 -1.0086
 5811TIP3    H238993   3.139   3.526   1.660  0.3817 -0.4998  0.7441
 5812TIP3   OH238994   2.179   2.071   7.468  0.0672 -0.4589 -0.0646
 5812TIP3    H138995   2.227   2.134   7.414 -0.0887  0.4200  0.7837
 5812TIP3    H238996   2.246   2.026   7.519  0.1493 -0.7341 -0.4112
 5813TIP3   OH238997   5.561   5.973   7.556  0.3976  0.4109 -0.7978
 5813TIP3    H138998   5.535   5.884   7.580 -0.2674  0.7292 -0.3073
 5813TIP3    H238999   5.587   6.014   7.638 -1.1912  1.2771 -0.6864
 5814TIP3   OH239000   0.344   0.819   1.953 -0.5662 -0.5906  0.1337
 5814TIP3    H139001   0.389   0.735   1.945 -2.1916 -1.4009 -1.1091
 5814TIP3    H239002   0.289   0.810   2.030  0.7599  0.1090  1.1896
 5815TIP3   OH239003   4.695   5.092   8.496  0.4003  0.1323  0.4478
 5815TIP3    H139004   4.719   5.077   8.404  0.4917  0.0525  0.4851
 5815TIP3    H239005   4.711   5.186   8.510 -2.5020  0.8930 -0.4956
 5816TIP3   OH239006   6.009   1.437   7.750  0.4477  0.3696 -0.3414
 5816TIP3    H139007   5.918   1.464   7.761  0.6915  0.7118  1.1031
 5816TIP3    H239008   6.013   1.349   7.789  0.6645  0.2212 -0.6948
 5817TIP3   OH239009   3.665   0.558   7.629 -0.0693  0.0139  0.0885
 5817TIP3    H139010   3.735   0.606   7.673  0.3924  0.0059 -0.6152
 5817TIP3    H239011   3.690   0.558   7.537  0.7344 -2.8826  0.2102
 5818TIP3   OH239012   4.747   3.691   8.659  0.1058 -0.3274 -0.2714
 5818TIP3    H139013   4.801   3.769   8.648 -1.6013  1.1743  1.2471
 5818TIP3    H239014   4.717   3.670   8.570  1.4554  0.0508 -0.8431
 5819TIP3   OH239015   2.966   2.248   0.877  0.3462 -0.1394  0.1642
 5819TIP3    H139016   2.875   2.266   0.854 -0.0024  0.1348  1.6466
 5819TIP3    H239017   3.016   2.319   0.838 -0.0978 -0.1683 -0.4674
 5820TIP3   OH239018   0.151   5.740   0.060 -0.6440 -0.2482 -0.3148
 5820TIP3    H139019   0.168   5.683  -0.015  1.9013  0.5961 -0.4461
 5820TIP3    H239020   0.133   5.826   0.021 -2.0451 -0.3809 -0.0197
 5821TIP3   OH239021   3.704   0.613   1.572  0.1448 -0.5411 -0.1794
 5821TIP3    H139022   3.611   0.623   1.553  0.0308 -0.4817  0.3856
 5821TIP3    H239023   3.710   0.531   1.621  0.4551 -0.7947 -0.6355
 5822TIP3   OH239024   0.847   5.208   0.872 -0.6344 -0.0031  0.0970
 5822TIP3    H139025   0.804   5.235   0.952  1.0421  1.6880  0.4979
 5822TIP3    H239026   0.894   5.128   0.895 -0.4233  0.2981  0.7145
 5823TIP3   OH239027   1.978   2.351   7.421 -0.1755  0.0596  0.0551
 5823TIP3    H139028   2.050   2.410   7.445  1.1000 -0.6077 -1.9206
 5823TIP3    H239029   1.989   2.276   7.479 -1.0521  1.1743  1.7282
 5824TIP3   OH239030   5.879   2.599   1.471 -0.3862  0.0906 -0.0522
 5824TIP3    H139031   5.973   2.603   1.454 -0.1518 -2.6948  0.1113
 5824TIP3    H239032   5.849   2.690   1.463  2.4189  1.1796  0.6146
 5825TIP3   OH239033   4.128   4.268   7.844  0.7230 -0.0633  0.0707
 5825TIP3    H139034   4.076   4.216   7.783 -1.9047  2.6112 -0.2130
 5825TIP3    H239035   4.186   4.205   7.886 -1.3951 -2.9788 -1.0558
 5826TIP3   OH239036   1.696   4.426   1.759 -0.2131 -0.3156 -0.3330
 5826TIP3    H139037   1.608   4.461   1.772 -0.2578 -0.4152 -0.3663
 5826TIP3    H239038   1.744   4.454   1.837 -1.0056 -2.5681  1.0652
 5827TIP3   OH239039   1.880   4.873   8.755  0.1209  0.3760 -0.0700
 5827TIP3    H139040   1.828   4.794   8.741  1.9167 -0.5134 -2.5461
 5827TIP3    H239041   1.853   4.905   8.841 -2.4035 -1.5582 -0.0185
 5828TIP3   OH239042   4.975   5.164   1.919 -0.3300  0.0777 -0.0313
 5828TIP3    H139043   4.900   5.205   1.875  1.4297  1.4354 -2.0026
 5828TIP3    H239044   4.987   5.215   1.998 -1.6654 -0.3824  0.4937
 5829TIP3   OH239045   0.846   1.481   0.935 -0.1848 -0.3596 -0.1511
 5829TIP3    H139046   0.792   1.513   0.862 -0.9321 -0.1703  0.4805
 5829TIP3    H239047   0.794   1.497   1.013  1.6219  1.8189  0.7261
 5830TIP3   OH239048   0.437   5.567   1.905 -0.0161  0.1358 -0.4291
 5830TIP3    H139049   0.418   5.491   1.960  1.0951  0.6203  0.6671
 5830TIP3    H239050   0.533   5.572   1.902 -0.0604  0.7094 -1.6014
 5831TIP3   OH239051   1.389   1.922   0.139 -0.3351 -0.4108 -0.2648
 5831TIP3    H139052   1.408   1.888   0.052 -1.3306 -1.0034 -0.2731
 5831TIP3    H239053   1.318   1.866   0.171  2.5806 -2.8534  2.5716
 5832TIP3   OH239054   6.369   2.268   2.686  0.0399  0.1286  0.6574
 5832TIP3    H139055   6.458   2.289   2.715 -0.0948  0.9840  0.4692
 5832TIP3    H239056   6.316   2.341   2.716 -0.3404  0.3703 -0.5318
 5833TIP3   OH239057   1.075   4.074   0.100 -0.7250  0.3074  0.3228
 5833TIP3    H139058   1.069   4.030   0.015  1.4714 -0.8893  0.7152
 5833TIP3    H239059   1.009   4.031   0.154 -1.9052  0.8455 -0.6541
 5834TIP3   OH239060   3.102   5.835   8.274  0.1029  0.3901  0.7330
 5834TIP3    H139061   3.063   5.824   8.361 -0.4840  0.5043  0.4863
 5834TIP3    H239062   3.035   5.878   8.222  0.2173 -0.2355  0.0461
 5835TIP3   OH239063   5.186   0.404   8.794  0.2479 -0.2580 -0.1576
 5835TIP3    H139064   5.204   0.420   8.887 -2.0896 -0.5067  0.3879
 5835TIP3    H239065   5.254   0.342   8.767 -0.7205 -2.5225  2.1840
 5836TIP3   OH239066   5.676   1.344   7.523 -0.3041 -0.5967 -0.0832
 5836TIP3    H139067   5.717   1.394   7.452  1.4181  1.5561  2.2437
 5836TIP3    H239068   5.584   1.370   7.520  0.3081  1.8888  0.2734
 5837TIP3   OH239069   3.309   2.389   0.592 -0.5148 -0.0239  0.1567
 5837TIP3    H139070   3.288   2.303   0.556 -0.8850  0.2544 -0.2966
 5837TIP3    H239071   3.267   2.451   0.533  2.3044  0.6171 -1.3659
 5838TIP3   OH239072   6.378   1.710   2.589 -0.7846  0.9227 -0.0687
 5838TIP3    H139073   6.382   1.699   2.494  0.6481  1.1086 -0.0485
 5838TIP3    H239074   6.302   1.766   2.604 -1.9390 -0.3448 -0.9689
 5839TIP3   OH239075   1.125   0.801   7.505  0.9864  0.5614  0.2652
 5839TIP3    H139076   1.204   0.792   7.452 -0.9858 -0.8265 -2.6933
 5839TIP3    H239077   1.098   0.893   7.493  1.0896  0.5131 -0.3481
 5840TIP3   OH239078   5.957   1.459   0.785  0.2575  0.1105  0.2741
 5840TIP3    H139079   5.937   1.551   0.767 -1.8609  0.0334  1.9320
 5840TIP3    H239080   5.886   1.429   0.841  1.0993 -2.4629  0.0976
 5841TIP3   OH239081   1.616   3.497   8.792  0.1727 -0.7079 -0.4722
 5841TIP3    H139082   1.530   3.511   8.753 -0.0211 -0.5967 -0.0126
 5841TIP3    H239083   1.678   3.537   8.731 -0.1357 -0.4473 -0.6127
 5842TIP3   OH239084   6.659   3.621   7.508  0.4186  0.5985 -0.3557
 5842TIP3    H139085   6.738   3.583   7.470  0.1622  1.9460 -2.4598
 5842TIP3    H239086   6.677   3.715   7.510 -0.5353  0.7752  0.6760
 5843TIP3   OH239087   5.043   5.464   0.856  0.3145  0.1239  0.0266
 5843TIP3    H139088   5.105   5.394   0.870  0.6676  0.1559 -1.2430
 5843TIP3    H239089   5.097   5.541   0.838 -0.0781  0.3194 -0.3423
 5844TIP3   OH239090   3.046   6.499   1.320  0.2821  0.2679  0.3653
 5844TIP3    H139091   3.088   6.438   1.381 -0.8197 -0.5794  0.3059
 5844TIP3    H239092   3.008   6.567   1.376 -0.2386 -0.2016  0.5862
 5845TIP3   OH239093   1.892   1.958   8.592  0.4566  0.0766 -0.3152
 5845TIP3    H139094   1.973   1.909   8.577  1.6056  1.0129  2.2610
 5845TIP3    H239095   1.830   1.892   8.624  0.9328 -0.2956 -0.1399
 5846TIP3   OH239096   3.791   5.928   2.400 -0.4997 -0.0453 -0.1622
 5846TIP3    H139097   3.849   5.916   2.475 -2.3194  2.2888  1.7737
 5846TIP3    H239098   3.841   5.895   2.326  2.0037 -1.0675  1.8234
 5847TIP3   OH239099   2.195   4.410   8.480 -0.3130 -0.4748 -0.0710
 5847TIP3    H139100   2.275   4.421   8.428 -1.0986  0.5708 -1.1053
 5847TIP3    H239101   2.217   4.341   8.543  2.2212  1.4428  1.3282
 5848TIP3   OH239102   6.179   0.543   7.631 -0.7241  0.3247  0.2351
 5848TIP3    H139103   6.148   0.457   7.602 -0.3975  0.3217 -0.1071
 5848TIP3    H239104   6.140   0.554   7.718 -0.2832 -0.4279  0.5416
 5849TIP3   OH239105   6.753   3.149   1.394 -0.0878 -0.0935  0.6698
 5849TIP3    H139106   6.738   3.243   1.386  1.9923  0.2181 -0.1644
 5849TIP3    H239107   6.760   3.119   1.303 -1.7248 -1.2673  0.8962
 5850TIP3   OH239108   1.435   1.153   8.776 -0.0187  0.4500 -0.0436
 5850TIP3    H139109   1.430   1.246   8.796 -0.0039  0.5293 -0.4125
 5850TIP3    H239110   1.524   1.128   8.801 -0.5551  0.1498  1.6999
 5851TIP3   OH239111   4.343   4.991   1.348 -0.3250  0.0854  0.0376
 5851TIP3    H139112   4.429   5.024   1.374 -0.5794  0.1801  0.7983
 5851TIP3    H239113   4.332   4.911   1.399 -0.4206 -0.2751 -0.5386
 5852TIP3   OH239114   5.544   5.702   7.573  0.4652 -0.3634 -0.1290
 5852TIP3    H139115   5.573   5.706   7.482  0.2694 -0.4449 -0.1963
 5852TIP3    H239116   5.543   5.608   7.593  1.0037 -0.3210  0.1199
 5853TIP3   OH239117   3.802   5.669   7.594  0.3929  0.7067 -0.7103
 5853TIP3    H139118   3.802   5.743   7.532 -0.2303  0.9900 -0.3828
 5853TIP3    H239119   3.734   5.691   7.657 -0.7833 -0.7977 -1.3822
 5854TIP3   OH239120   5.040   5.192   0.130  1.2445 -0.5540 -0.0523
 5854TIP3    H139121   4.980   5.118   0.140  0.6978  0.1399  2.1883
 5854TIP3    H239122   5.070   5.185   0.039 -0.0536 -2.5455 -0.4028
 5855TIP3   OH239123   1.626   3.249   0.395 -0.4671 -0.2101 -0.0298
 5855TIP3    H139124   1.532   3.233   0.387 -0.5394  0.6016 -1.1255
 5855TIP3    H239125   1.661   3.228   0.308  0.5497 -1.5524  0.6755
 5856TIP3   OH239126   6.574   2.412   0.447  0.1807 -0.1713 -0.4978
 5856TIP3    H139127   6.580   2.466   0.526  3.2086  0.6417 -1.1780
 5856TIP3    H239128   6.623   2.333   0.469  1.2971  0.1841 -1.5977
 5857TIP3   OH239129   6.793   6.365   7.843 -0.6730  0.0050 -0.3477
 5857TIP3    H139130   6.798   6.313   7.923  1.6974 -1.6476 -1.4616
 5857TIP3    H239131   6.826   6.451   7.867  1.4489 -0.9092  0.1849
 5858TIP3   OH239132   5.783   0.117   8.738  0.0937  0.0516  0.7463
 5858TIP3    H139133   5.710   0.106   8.677  0.6691  0.8463 -0.1200
 5858TIP3    H239134   5.743   0.154   8.817 -0.3471  1.3076 -0.0316
 5859TIP3   OH239135   3.354   3.567   8.756  0.8789  0.5507  0.0662
 5859TIP3    H139136   3.368   3.552   8.850  0.4358  0.0447  0.0541
 5859TIP3    H239137   3.416   3.508   8.713  1.0507  0.7502  0.0374
 5860TIP3   OH239138   2.897   6.547   8.154 -0.1584  0.4719 -0.0847
 5860TIP3    H139139   2.906   6.591   8.238  1.6654 -0.6574  0.3742
 5860TIP3    H239140   2.950   6.599   8.094 -1.5433  1.3363 -0.5987
 5861TIP3   OH239141   2.582   6.477   1.925  0.2712  0.2665 -0.4703
 5861TIP3    H139142   2.653   6.517   1.875  0.9390  0.5455  0.6539
 5861TIP3    H239143   2.558   6.543   1.989  0.4952 -0.6253  0.5611
 5862TIP3   OH239144   4.257   5.319   7.343 -0.7877 -0.0528 -0.6335
 5862TIP3    H139145   4.172   5.326   7.298 -0.7476  1.5498 -0.5083
 5862TIP3    H239146   4.319   5.297   7.273 -1.0519  0.3839 -1.0116
 5863TIP3   OH239147   3.520   3.682   8.257  0.6452  0.1239  0.1894
 5863TIP3    H139148   3.455   3.657   8.191  2.1125 -0.7002 -1.0110
 5863TIP3    H239149   3.580   3.741   8.211  0.9151  0.6527  1.1871
 5864TIP3   OH239150   6.793   1.053   0.289 -0.1319  0.4272 -0.2918
 5864TIP3    H139151   6.878   1.048   0.246  0.6263 -0.2458  1.1958
 5864TIP3    H239152   6.780   1.146   0.307  1.2520  0.3843  1.2046
 5865TIP3   OH239153   0.735   0.960   6.886  0.0501  0.2777 -0.1797
 5865TIP3    H139154   0.718   1.054   6.880  0.3187  0.2630 -1.6493
 5865TIP3    H239155   0.773   0.938   6.801 -1.7478 -1.5183 -0.5668
 5866TIP3   OH239156   0.296   0.598   7.615 -0.7143  0.9122  0.0666
 5866TIP3    H139157   0.232   0.569   7.681  0.5010  0.5561  1.1286
 5866TIP3    H239158   0.264   0.561   7.533 -1.2314 -0.2727  0.7696
 5867TIP3   OH239159   3.197   5.167   1.614  0.1217 -0.2439 -0.4239
 5867TIP3    H139160   3.223   5.258   1.596 -1.6679  0.1230 -1.3878
 5867TIP3    H239161   3.121   5.152   1.558  0.5438 -2.4555 -0.5163
 5868TIP3   OH239162   2.735   5.820   7.748  0.0189 -0.1382  0.3698
 5868TIP3    H139163   2.653   5.773   7.763 -0.4557  0.5789  0.0976
 5868TIP3    H239164   2.802   5.766   7.791 -0.7356 -0.2068  1.5055
 5869TIP3   OH239165   0.949   3.076   1.182 -0.5688 -0.1532 -0.0332
 5869TIP3    H139166   1.035   3.099   1.217 -0.5420 -1.3380  0.7026
 5869TIP3    H239167   0.889   3.087   1.256 -0.9921  0.2190 -0.4202
 5870TIP3   OH239168   1.328   2.093   0.878  0.7371 -0.6465 -0.0862
 5870TIP3    H139169   1.371   2.081   0.794  1.0093 -0.4732  0.0251
 5870TIP3    H239170   1.319   2.005   0.914 -2.4722 -1.1387 -1.7699
 5871TIP3   OH239171   0.735   2.439   8.295 -0.1978 -0.3185 -0.5842
 5871TIP3    H139172   0.691   2.361   8.329 -1.9288  1.0347  0.4132
 5871TIP3    H239173   0.667   2.487   8.248  0.8069  0.6796 -1.0756
 5872TIP3   OH239174   5.144   0.554   8.586  0.6070  0.0862  0.2757
 5872TIP3    H139175   5.214   0.532   8.526  3.3011  1.5070  2.6386
 5872TIP3    H239176   5.164   0.505   8.666 -0.8996  0.8093  1.1542
 5873TIP3   OH239177   0.463   4.592   7.767 -0.2851  0.0237  0.0587
 5873TIP3    H139178   0.402   4.650   7.813 -0.4983 -0.4272  0.3470
 5873TIP3    H239179   0.407   4.533   7.718 -0.0589  0.3670 -0.6227
 5874TIP3   OH239180   5.323   0.398   7.428 -0.3770  0.2389 -0.2074
 5874TIP3    H139181   5.322   0.312   7.469  0.6220  0.0727 -0.4773
 5874TIP3    H239182   5.415   0.411   7.404 -0.5736  1.2419 -0.4604
 5875TIP3   OH239183   0.158   2.855   7.370 -0.1982 -0.1871  0.4738
 5875TIP3    H139184   0.182   2.762   7.373  0.3213 -0.0392  1.5152
 5875TIP3    H239185   0.085   2.863   7.431 -0.9538 -0.0856 -0.4202
 5876TIP3   OH239186   1.570   2.401   0.072  0.3356 -0.1237 -0.6321
 5876TIP3    H139187   1.503   2.447   0.022  1.6691 -0.9221 -3.3612
 5876TIP3    H239188   1.598   2.329   0.015  2.7474 -0.4742  0.8303
 5877TIP3   OH239189   5.879   4.026   8.230  0.4387 -0.5358  0.2908
 5877TIP3    H139190   5.928   4.106   8.215 -1.1380  0.4135 -0.0560
 5877TIP3    H239191   5.920   3.961   8.173  0.8482  0.4083 -0.5173
 5878TIP3   OH239192   2.543   3.234   0.894 -0.6126  0.3664 -0.0764
 5878TIP3    H139193   2.576   3.211   0.807 -1.2883  1.8001 -0.7289
 5878TIP3    H239194   2.620   3.266   0.941 -0.1054 -1.0394  0.1218
 5879TIP3   OH239195   6.458   1.588   0.920  0.0765 -0.5396 -0.4151
 5879TIP3    H139196   6.484   1.513   0.866 -0.2535 -0.0702 -1.2550
 5879TIP3    H239197   6.372   1.612   0.886  0.5291  0.7151 -0.7136
 5880TIP3   OH239198   1.244   1.409   7.026 -0.0066 -0.1532 -0.2449
 5880TIP3    H139199   1.244   1.336   6.963  0.7027  1.1853 -1.8773
 5880TIP3    H239200   1.337   1.423   7.047  0.0262  1.2709 -1.2031
 5881TIP3   OH239201   6.257   3.303   6.978  0.1081  0.0644  0.0225
 5881TIP3    H139202   6.285   3.248   6.905 -0.1295  0.7691 -0.6120
 5881TIP3    H239203   6.163   3.315   6.965  0.4666  2.2592 -1.0179
 5882TIP3   OH239204   1.089   5.956   7.738  0.4485  0.1764 -0.5742
 5882TIP3    H139205   1.056   5.966   7.649 -1.5144 -2.4686 -0.2641
 5882TIP3    H239206   1.023   6.000   7.793  1.2486  1.1177 -0.3345
 5883TIP3   OH239207   2.304   4.227   1.536 -0.1786 -0.1700 -0.1424
 5883TIP3    H139208   2.249   4.149   1.531  2.4528 -2.1524 -0.6192
 5883TIP3    H239209   2.387   4.200   1.496  1.8322  1.9617  2.2345
 5884TIP3   OH239210   1.368   0.654   0.214 -0.1466 -0.0196  0.4998
 5884TIP3    H139211   1.310   0.689   0.281  0.8388  1.0852  0.8075
 5884TIP3    H239212   1.313   0.645   0.136 -0.6484  1.4176  0.6611
 5885TIP3   OH239213   5.704   2.372   0.997 -0.0798 -0.1543 -0.1380
 5885TIP3    H139214   5.699   2.283   1.031  0.1605 -0.6263 -1.2936
 5885TIP3    H239215   5.689   2.363   0.903  2.2702  0.7143 -0.6794
 5886TIP3   OH239216   0.276   4.275   8.634 -0.3584 -0.4311 -0.2176
 5886TIP3    H139217   0.312   4.191   8.663 -1.0400 -1.0588 -1.1444
 5886TIP3    H239218   0.260   4.324   8.715  0.5294 -0.9814  0.3045
 5887TIP3   OH239219   0.638   0.819   1.907 -0.5823  0.1822  0.1743
 5887TIP3    H139220   0.613   0.728   1.890  1.7361 -0.7700  1.3550
 5887TIP3    H239221   0.648   0.823   2.002 -0.0405  1.4934  0.0771
 5888TIP3   OH239222   5.855   3.929   0.675  0.6154 -0.3866 -0.3230
 5888TIP3    H139223   5.762   3.907   0.678  1.2965 -3.8265 -0.2574
 5888TIP3    H239224   5.857   4.024   0.669 -2.8889 -0.2055 -0.6073
 5889TIP3   OH239225   5.694   1.126   1.201 -0.3426 -0.0640  0.8484
 5889TIP3    H139226   5.664   1.049   1.249  2.7790 -0.5243  2.2786
 5889TIP3    H239227   5.738   1.091   1.123 -0.9351  0.4221  0.2825
 5890TIP3   OH239228   4.604   1.314   8.109  0.3164  0.1006 -0.2700
 5890TIP3    H139229   4.594   1.226   8.145 -0.5820  0.0415 -0.6417
 5890TIP3    H239230   4.654   1.301   8.028 -0.7317 -0.2198 -0.8865
 5891TIP3   OH239231   5.004   0.966   1.635  0.3120  0.7449  0.2260
 5891TIP3    H139232   5.074   0.983   1.572 -0.7433 -0.4297 -1.3652
 5891TIP3    H239233   5.025   1.021   1.710  3.6495 -0.5246  0.3945
 5892TIP3   OH239234   6.380   5.445   1.309 -0.1189  0.2096 -0.3017
 5892TIP3    H139235   6.345   5.412   1.392 -2.1880  1.3155 -0.6665
 5892TIP3    H239236   6.419   5.530   1.332 -0.0315  0.1803 -0.3408
 5893TIP3   OH239237   1.962   3.758   0.466  0.0973 -0.4861  0.1340
 5893TIP3    H139238   1.965   3.666   0.441 -1.3539 -1.6763  3.7404
 5893TIP3    H239239   1.872   3.772   0.494  0.4429  1.8970  0.2432
 5894TIP3   OH239240   4.791   3.801   2.292 -1.0752 -0.2528 -0.4524
 5894TIP3    H139241   4.844   3.790   2.213 -0.5699 -0.3071 -0.1102
 5894TIP3    H239242   4.701   3.781   2.264 -0.8848 -0.3686 -0.9861
 5895TIP3   OH239243   1.318   2.918   6.901 -0.3964 -0.4612 -0.0257
 5895TIP3    H139244   1.388   2.984   6.901  2.5691 -3.2969  1.9345
 5895TIP3    H239245   1.254   2.952   6.964  0.1776  1.3154 -0.3445
 5896TIP3   OH239246   2.607   5.264   1.356 -0.3685 -0.0723  0.4909
 5896TIP3    H139247   2.686   5.292   1.311 -0.0987 -0.7272  0.5467
 5896TIP3    H239248   2.540   5.327   1.329  0.1304  0.3888  0.3201
 5897TIP3   OH239249   3.254   4.326   0.737  0.2470  0.3397 -0.5868
 5897TIP3    H139250   3.275   4.313   0.829 -0.6283  2.0339 -0.1144
 5897TIP3    H239251   3.329   4.373   0.701  0.7835 -0.7019 -0.8711
 5898TIP3   OH239252   6.030   2.376   2.018 -0.2746  0.1322 -0.5012
 5898TIP3    H139253   6.122   2.386   1.997  0.4565 -2.6045  0.9518
 5898TIP3    H239254   6.022   2.410   2.107 -0.9162  1.2062 -0.9438
 5899TIP3   OH239255   6.560   0.438   6.802  0.5001  0.0139  0.5480
 5899TIP3    H139256   6.607   0.430   6.719  2.5601 -3.5323  1.8378
 5899TIP3    H239257   6.468   0.442   6.777  1.0578 -0.8258 -1.9139
 5900TIP3   OH239258   4.700   5.396   8.150 -0.0953  0.6914  0.2869
 5900TIP3    H139259   4.669   5.457   8.083  1.0797  1.1862  0.1735
 5900TIP3    H239260   4.743   5.326   8.101 -0.1799  0.5038  0.4797
 5901TIP3   OH239261   0.053   6.237   0.219  0.6323  0.0242 -0.0711
 5901TIP3    H139262   0.137   6.254   0.262  0.2097  0.7045  0.5102
 5901TIP3    H239263  -0.003   6.200   0.288 -0.0306  1.0647 -0.0212
 5902TIP3   OH239264   5.414   6.723   0.500  0.1404  0.2117  0.6496
 5902TIP3    H139265   5.413   6.634   0.465 -0.7840  0.2532  0.5422
 5902TIP3    H239266   5.321   6.749   0.503  0.4265  1.3718  0.1481
 5903TIP3   OH239267   2.207   3.084   0.349  0.4680  0.0018 -0.2038
 5903TIP3    H139268   2.201   3.096   0.444 -2.0579  1.1985 -0.4166
 5903TIP3    H239269   2.116   3.077   0.320  1.0765  1.0008 -2.6833
 5904TIP3   OH239270   5.380   0.675   8.125 -0.3968 -0.2061 -0.2863
 5904TIP3    H139271   5.453   0.662   8.186 -0.7347  0.8597  0.3859
 5904TIP3    H239272   5.419   0.716   8.049 -0.1403 -0.5650 -0.3522
 5905TIP3   OH239273   4.215   0.949   7.377 -0.2052 -0.1016 -0.0212
 5905TIP3    H139274   4.309   0.956   7.388 -0.2693  1.0447 -0.1211
 5905TIP3    H239275   4.190   0.871   7.428  0.5869  0.4440  1.2437
 5906TIP3   OH239276   5.413   3.855   1.039  0.1149 -0.5527 -0.2248
 5906TIP3    H139277   5.348   3.790   1.010 -0.9148 -0.8133  2.3401
 5906TIP3    H239278   5.362   3.918   1.090  1.4536  1.0802 -0.8119
 5907TIP3   OH239279   6.636   0.431   1.109 -0.2141 -0.2170 -0.1938
 5907TIP3    H139280   6.664   0.370   1.178 -1.7050  0.7456  1.3519
 5907TIP3    H239281   6.570   0.382   1.060 -0.5762 -0.2528  0.3185
 5908TIP3   OH239282   3.964   6.327   1.608 -0.3197  0.2179  0.1778
 5908TIP3    H139283   4.059   6.315   1.601 -0.5931 -1.5747 -1.9335
 5908TIP3    H239284   3.943   6.300   1.697  1.0444 -0.4200  0.3361
 5909TIP3   OH239285   2.293   3.805   1.075 -0.8455  0.3244 -0.0347
 5909TIP3    H139286   2.277   3.894   1.107 -1.3060  0.0320  0.5781
 5909TIP3    H239287   2.309   3.815   0.982  0.5259  1.2115  0.2706
 5910TIP3   OH239288   2.956   6.796   8.594 -0.1202 -0.2465  0.5282
 5910TIP3    H139289   3.005   6.863   8.643 -0.3255  1.5604 -1.5628
 5910TIP3    H239290   2.931   6.840   8.512 -1.8075 -2.3719 -0.1922
 5911TIP3   OH239291   6.035   0.384   0.231  0.1602 -0.1230 -0.1196
 5911TIP3    H139292   5.943   0.387   0.206  0.0349 -2.1856 -0.1022
 5911TIP3    H239293   6.076   0.327   0.166  0.7283 -1.8984  1.6777
 5912TIP3   OH239294   4.811   5.684   7.771 -0.2936 -0.3816  0.1841
 5912TIP3    H139295   4.825   5.700   7.678  4.6884 -0.4425  0.6371
 5912TIP3    H239296   4.792   5.770   7.808 -0.3391 -0.0343 -0.6350
 5913TIP3   OH239297   3.266   5.750   1.870 -0.3355  0.0763  0.1616
 5913TIP3    H139298   3.201   5.699   1.821 -0.7155  0.3053  0.4250
 5913TIP3    H239299   3.217   5.786   1.944 -0.0317  0.6924  0.0681
 5914TIP3   OH239300   2.233   3.851   0.812 -0.8720  0.2571 -0.1660
 5914TIP3    H139301   2.154   3.800   0.794 -1.0671  0.5281 -0.0938
 5914TIP3    H239302   2.272   3.866   0.726  0.9777 -2.7761  0.0133
 5915TIP3   OH239303   4.039   1.839   1.264 -0.0326 -0.1430 -0.0927
 5915TIP3    H139304   3.977   1.823   1.335 -0.3247  0.6101 -0.1741
 5915TIP3    H239305   4.005   1.916   1.219  1.1162  0.4636  0.0308
 5916TIP3   OH239306   2.879   3.190   8.815 -0.8895 -0.4306 -0.0082
 5916TIP3    H139307   2.828   3.210   8.736 -2.2072 -0.9357  0.6789
 5916TIP3    H239308   2.862   3.098   8.831  2.3070 -1.3385 -1.1541
 5917TIP3   OH239309   0.248   2.568   7.241 -0.2845 -0.3041 -0.1832
 5917TIP3    H139310   0.337   2.551   7.273  0.8822  2.0088 -1.9251
 5917TIP3    H239311   0.228   2.492   7.187  1.2466 -0.2335 -0.9190
 5918TIP3   OH239312   5.927   6.220   0.503  0.0487  0.5760  0.5096
 5918TIP3    H139313   5.889   6.299   0.542 -1.7408 -0.5070  1.0698
 5918TIP3    H239314   5.968   6.174   0.577  0.9112  0.8629  0.2212
 5919TIP3   OH239315   2.995   1.358   8.517  0.6893 -0.0556 -0.1743
 5919TIP3    H139316   2.960   1.330   8.433  0.5855 -0.2144 -0.0784
 5919TIP3    H239317   3.019   1.277   8.561  0.1443 -0.0090  0.2120
 5920TIP3   OH239318   3.233   2.323   7.713 -0.4612  0.4540 -0.1212
 5920TIP3    H139319   3.271   2.266   7.646  1.1399  0.7287  0.5168
 5920TIP3    H239320   3.236   2.271   7.793 -1.5371  0.4530 -0.0683
 5921TIP3   OH239321   2.900   2.714   6.444 -0.2042 -0.1730 -0.1407
 5921TIP3    H139322   2.886   2.785   6.506  0.8853 -0.1556  0.0948
 5921TIP3    H239323   2.894   2.755   6.358  0.0691  0.1397 -0.0125
 5922TIP3   OH239324   6.365   2.338   2.415 -0.0855 -0.3182  0.3033
 5922TIP3    H139325   6.356   2.344   2.510  0.1403  1.8537  0.2541
 5922TIP3    H239326   6.336   2.250   2.393 -3.1685  0.1424  2.0399
 5923TIP3   OH239327   5.355   0.064   7.139  0.2678  0.4783  0.1809
 5923TIP3    H139328   5.407   0.065   7.059  1.7674 -1.7508  1.0242
 5923TIP3    H239329   5.418   0.073   7.210 -0.8913  1.1803  1.1746
 5924TIP3   OH239330   3.461   1.949   1.202 -0.4397  0.4538  0.0869
 5924TIP3    H139331   3.546   1.952   1.247 -0.6077 -1.2902  0.5851
 5924TIP3    H239332   3.479   1.904   1.120 -0.6918  1.1073 -0.3369
 5925TIP3   OH239333   3.592   4.645   8.119 -0.3072  0.2506 -0.2562
 5925TIP3    H139334   3.629   4.562   8.151  1.2013  1.1835  0.5045
 5925TIP3    H239335   3.518   4.618   8.064  1.0375 -1.6603 -1.2428
 5926TIP3   OH239336   1.040   3.437   1.113 -0.8286  0.0640  0.4211
 5926TIP3    H139337   1.059   3.380   1.039 -0.3059 -0.5520  1.0075
 5926TIP3    H239338   0.945   3.439   1.118 -0.8823  0.4686 -0.5250
 5927TIP3   OH239339   1.446   1.600   8.619  0.0486 -0.1863  0.7815
 5927TIP3    H139340   1.506   1.530   8.595 -1.6604 -1.7841  0.9132
 5927TIP3    H239341   1.441   1.655   8.541  1.0756 -0.4621  0.5116
 5928TIP3   OH239342   5.937   1.836   6.756 -0.2999 -0.3161 -0.0637
 5928TIP3    H139343   5.870   1.849   6.823 -0.8843  0.1800 -0.7445
 5928TIP3    H239344   5.968   1.746   6.771  1.3286  0.5571  2.4279
 5929TIP3   OH239345   4.440   2.699   0.013 -0.1130  0.0443 -0.4731
 5929TIP3    H139346   4.506   2.766  -0.005 -0.3012  0.2798 -0.2818
 5929TIP3    H239347   4.360   2.747   0.029  0.0636 -0.1269  1.1152
 5930TIP3   OH239348   3.141   1.553   7.811  0.0034  0.2892  0.0097
 5930TIP3    H139349   3.195   1.491   7.860 -2.7987 -0.6050  2.2333
 5930TIP3    H239350   3.203   1.617   7.776  2.5708 -1.3589  1.2807
 5931TIP3   OH239351   1.465   0.933   0.209  0.4349  0.4709  0.3103
 5931TIP3    H139352   1.377   0.970   0.196  1.3347  1.8881 -2.9566
 5931TIP3    H239353   1.454   0.839   0.196 -0.9291  0.2789  2.4408
 5932TIP3   OH239354   1.577   4.092   0.700 -0.4880 -0.2799  0.5797
 5932TIP3    H139355   1.640   4.129   0.762  0.0109 -1.2351  0.6664
 5932TIP3    H239356   1.556   4.006   0.736 -0.2521 -0.8217 -0.5185
 5933TIP3   OH239357   1.515   0.580   8.078  0.1360  0.6197 -0.2513
 5933TIP3    H139358   1.491   0.627   8.158  1.3686  1.8462 -0.5590
 5933TIP3    H239359   1.454   0.612   8.012  1.0875  2.0127 -0.5057
 5934TIP3   OH239360   3.240   3.839   8.122 -0.0791 -0.2393 -0.5612
 5934TIP3    H139361   3.203   3.793   8.047  1.2341 -1.4835 -0.4937
 5934TIP3    H239362   3.173   3.831   8.190 -0.8330 -0.0322 -1.2686
 5935TIP3   OH239363   2.520   1.349   8.139  0.1985  0.3844  0.7234
 5935TIP3    H139364   2.601   1.399   8.132  1.5975 -1.8958 -0.4647
 5935TIP3    H239365   2.542   1.275   8.195 -0.5718 -1.1223 -0.8777
 5936TIP3   OH239366   1.738   2.377   1.393 -0.5086 -0.5263  0.3353
 5936TIP3    H139367   1.726   2.292   1.434  0.0350  0.0619  1.7880
 5936TIP3    H239368   1.758   2.436   1.466  0.2799  0.6185 -0.7647
 5937TIP3   OH239369   6.655   4.450   6.738 -0.3005 -0.2553  0.5066
 5937TIP3    H139370   6.562   4.461   6.755  0.0037 -0.3430  2.3694
 5937TIP3    H239371   6.664   4.359   6.710 -0.7786 -0.2180  0.2233
 5938TIP3   OH239372   0.352   4.354   1.185 -0.4510  0.1820 -0.1583
 5938TIP3    H139373   0.392   4.423   1.132 -0.5652 -1.3050 -2.2894
 5938TIP3    H239374   0.413   4.342   1.258  1.8326 -0.3941 -2.0440
 5939TIP3   OH239375   2.852   6.665   2.113 -0.1672  0.3396  0.2397
 5939TIP3    H139376   2.901   6.746   2.097  2.2317 -0.8350  1.1386
 5939TIP3    H239377   2.784   6.664   2.045 -0.5464  3.2608  0.4445
 5940TIP3   OH239378   1.448   3.140   7.509  0.6048 -0.1438  0.3746
 5940TIP3    H139379   1.381   3.183   7.455  2.6653  0.3170 -2.0243
 5940TIP3    H239380   1.404   3.064   7.546 -1.0416 -0.4184 -1.9066
 5941TIP3   OH239381   6.167   5.976   6.944  0.2608 -0.7186 -0.6162
 5941TIP3    H139382   6.261   5.964   6.930  0.8034  3.0075 -1.3103
 5941TIP3    H239383   6.129   5.976   6.856  0.1378  0.7225 -0.5888
 5942TIP3   OH239384   1.899   1.337   8.621 -0.4870 -0.0768 -0.6521
 5942TIP3    H139385   1.889   1.255   8.670 -0.9914 -0.2541 -1.0393
 5942TIP3    H239386   1.851   1.401   8.674  2.0264  0.5676  1.0024
 5943TIP3   OH239387   5.674   3.334   6.580 -0.5404 -0.2721 -1.0398
 5943TIP3    H139388   5.671   3.415   6.529 -1.4886 -0.0226 -0.6154
 5943TIP3    H239389   5.582   3.310   6.593 -0.3206 -0.5050  0.2514
 5944TIP3   OH239390   3.551   3.193   8.854  0.1609  0.8459  0.7110
 5944TIP3    H139391   3.604   3.117   8.830 -0.3271  0.5846  0.4520
 5944TIP3    H239392   3.591   3.226   8.934 -0.9320 -0.9997  2.0873
 5945TIP3   OH239393   5.319   3.017   1.140 -0.2659 -0.5448 -0.2337
 5945TIP3    H139394   5.291   2.925   1.138  1.7439 -1.2006 -0.8176
 5945TIP3    H239395   5.319   3.039   1.233  2.7012 -2.3744  0.3461
 5946TIP3   OH239396   1.534   2.281   6.762 -0.4667 -0.4113  0.5212
 5946TIP3    H139397   1.467   2.238   6.815 -0.0535 -1.9784 -0.1674
 5946TIP3    H239398   1.485   2.323   6.692 -0.8972  0.4680  1.3245
 5947TIP3   OH239399   5.766   4.965   7.349  0.2476 -0.3119  0.1436
 5947TIP3    H139400   5.726   4.884   7.379  4.0894 -2.3758  0.3548
 5947TIP3    H239401   5.786   5.014   7.429 -1.1528  0.4766  0.0594
 5948TIP3   OH239402   4.950   1.672   0.395  0.5103  1.0101 -0.0159
 5948TIP3    H139403   4.945   1.576   0.399  0.6004  1.0030 -0.0784
 5948TIP3    H239404   4.919   1.694   0.307 -0.0326  1.0738  0.1881
 5949TIP3   OH239405   3.278   3.387   2.180 -0.2655 -0.3377 -0.3511
 5949TIP3    H139406   3.343   3.406   2.113  0.1187  1.6039  0.5149
 5949TIP3    H239407   3.296   3.296   2.205  0.5257 -0.6165 -1.8099
 5950TIP3   OH239408   6.255   5.886   7.711  0.1287 -0.3360 -0.8859
 5950TIP3    H139409   6.196   5.814   7.736  0.4802 -0.7077 -1.1103
 5950TIP3    H239410   6.290   5.919   7.793 -1.4842  0.8509 -0.6171
 5951TIP3   OH239411   6.230   2.985   6.899 -0.2337  0.2890  0.0406
 5951TIP3    H139412   6.171   3.003   6.972 -1.0216 -0.9450 -0.2528
 5951TIP3    H239413   6.171   2.970   6.824  0.3884 -1.7226 -0.0909
 5952TIP3   OH239414   2.706   4.957   0.961  0.3800  0.3338  0.1550
 5952TIP3    H139415   2.619   4.917   0.965  1.2423 -1.7521 -0.5292
 5952TIP3    H239416   2.732   4.964   1.053 -0.6316  1.3033  0.3844
 5953TIP3   OH239417   5.722   0.509   6.605 -0.2193 -0.3495 -0.2231
 5953TIP3    H139418   5.767   0.424   6.604 -1.4855 -1.1544  2.4814
 5953TIP3    H239419   5.631   0.489   6.623 -0.4822  1.5997  0.9433
 5954TIP3   OH239420   6.521   4.424   0.913  0.4688 -0.3399  0.3481
 5954TIP3    H139421   6.506   4.428   1.007  1.0343 -2.7747  0.6202
 5954TIP3    H239422   6.597   4.365   0.904 -0.1160 -0.8541 -1.6579
 5955TIP3   OH239423   2.693   2.226   6.580  0.8039 -0.4190  0.2697
 5955TIP3    H139424   2.679   2.318   6.560  1.4937 -0.3587  0.0401
 5955TIP3    H239425   2.733   2.225   6.667  0.5492 -0.5244  0.3897
 5956TIP3   OH239426   1.746   2.088   0.655  0.3898  0.1822  0.0482
 5956TIP3    H139427   1.831   2.080   0.698  0.8370 -0.7859 -0.9613
 5956TIP3    H239428   1.690   2.024   0.699 -0.0012  1.2396  1.1119
 5957TIP3   OH239429   5.216   6.765   7.478  0.4248 -0.4397 -0.1547
 5957TIP3    H139430   5.164   6.804   7.547  1.1946 -0.9916  0.7559
 5957TIP3    H239431   5.275   6.704   7.523  0.7045 -1.0675 -1.3209
 5958TIP3   OH239432   1.695   4.889   0.897 -0.1796  0.2286 -0.2094
 5958TIP3    H139433   1.702   4.801   0.933 -0.5309  0.6795  0.9949
 5958TIP3    H239434   1.767   4.937   0.938 -0.4317  0.6890 -0.2994
 5959TIP3   OH239435   5.207   0.199   0.454 -0.0392 -0.1158  0.4357
 5959TIP3    H139436   5.270   0.252   0.405  0.2248 -1.8279 -1.1805
 5959TIP3    H239437   5.247   0.188   0.540  1.7960 -0.9482 -0.4777
 5960TIP3   OH239438   3.637   6.387   0.141 -0.3076 -0.3620 -0.0190
 5960TIP3    H139439   3.578   6.416   0.072  1.2568  0.4555 -1.0692
 5960TIP3    H239440   3.593   6.412   0.223 -0.1329  2.9884 -0.7966
 5961TIP3   OH239441   0.897   4.454   7.979  0.1294 -0.0340 -0.3756
 5961TIP3    H139442   0.926   4.460   7.888 -3.2762  0.4130 -1.5746
 5961TIP3    H239443   0.803   4.437   7.973 -0.2415  0.0957  3.0921
 5962TIP3   OH239444   4.112   0.259   1.766  0.0371  0.3873  0.2103
 5962TIP3    H139445   4.071   0.173   1.761  1.0966 -0.1720  0.7123
 5962TIP3    H239446   4.073   0.301   1.842 -1.8609  1.1320 -1.1060
 5963TIP3   OH239447   6.627   0.946   8.131 -0.0555 -0.1329  0.0027
 5963TIP3    H139448   6.579   0.964   8.212 -0.6179 -0.8928 -0.1561
 5963TIP3    H239449   6.715   0.982   8.147  0.2094 -1.3242  1.3887
 5964TIP3   OH239450   2.699   1.417   1.773  0.8916  0.0798 -0.2967
 5964TIP3    H139451   2.604   1.426   1.762  1.0086 -0.5443 -2.0713
 5964TIP3    H239452   2.710   1.392   1.865 -0.6542  0.1932 -0.0533
 5965TIP3   OH239453   1.420   6.073   1.313 -0.0501 -0.0751  0.8292
 5965TIP3    H139454   1.441   6.018   1.389  0.7519 -2.5873 -1.0893
 5965TIP3    H239455   1.504   6.086   1.269 -0.3898  1.9722  0.7152
 5966TIP3   OH239456   1.564   0.510   0.116  0.4575  0.6169 -0.2786
 5966TIP3    H139457   1.560   0.442   0.183  0.9969  2.5837  1.8493
 5966TIP3    H239458   1.492   0.569   0.137  2.1897  2.6654  0.2178
 5967TIP3   OH239459   3.038   6.579   0.953  0.2594  0.1421  0.3008
 5967TIP3    H139460   2.992   6.658   0.923 -0.1334  0.1102  0.8189
 5967TIP3    H239461   2.970   6.512   0.957  0.7093 -0.3925 -0.7382
 5968TIP3   OH239462   2.590   4.551   1.027 -0.3726  0.2379 -0.2107
 5968TIP3    H139463   2.540   4.487   1.078  0.2369 -1.6155 -1.7818
 5968TIP3    H239464   2.528   4.582   0.961  0.1339 -1.1679 -1.4122
 5969TIP3   OH239465   0.140   0.248   6.751  0.3600 -0.3979 -0.3953
 5969TIP3    H139466   0.145   0.341   6.730 -0.3736 -0.6371 -1.7441
 5969TIP3    H239467   0.207   0.206   6.698  1.0224 -0.5989  0.5747
 5970TIP3   OH239468   0.531   1.686   7.479 -0.1834  0.2200  0.6294
 5970TIP3    H139469   0.454   1.718   7.526  0.1721 -0.5191  1.7547
 5970TIP3    H239470   0.547   1.752   7.412 -1.9340  0.2736  0.2079
 5971TIP3   OH239471   3.775   0.737   6.701 -0.1173 -0.1063 -0.1616
 5971TIP3    H139472   3.863   0.724   6.666  0.1288 -1.2012  0.8052
 5971TIP3    H239473   3.716   0.700   6.635  0.2402 -0.6755 -0.1657
 5972TIP3   OH239474   4.431   3.310   6.246  0.7777 -0.0369  0.6265
 5972TIP3    H139475   4.418   3.232   6.300  1.0558  1.7407  3.4422
 5972TIP3    H239476   4.489   3.366   6.298 -0.4019  2.5821 -0.7148
 5973TIP3   OH239477   1.750   3.925   8.003 -0.3585 -0.5073  0.1844
 5973TIP3    H139478   1.802   3.850   8.033 -1.1476 -1.8438 -1.5876
 5973TIP3    H239479   1.661   3.891   7.994 -1.0080  1.0043  0.5000
 5974TIP3   OH239480   6.440   3.138   7.104 -0.1651  0.1459  0.1169
 5974TIP3    H139481   6.374   3.197   7.068  0.0544  0.7359  0.6562
 5974TIP3    H239482   6.423   3.053   7.062 -0.9769  0.4023 -0.0828
 5975TIP3   OH239483   4.042   2.027   0.658 -0.2144 -0.4236  0.6426
 5975TIP3    H139484   4.090   2.109   0.656  0.2972 -0.7255 -0.2000
 5975TIP3    H239485   3.983   2.031   0.583  0.0766 -0.9629  0.3714
 5976TIP3   OH239486   6.792   6.281   7.401 -0.4330 -0.6055 -0.5249
 5976TIP3    H139487   6.823   6.340   7.469  1.9198  0.7308 -2.5855
 5976TIP3    H239488   6.725   6.331   7.354  0.6039 -0.0593 -1.4467
 5977TIP3   OH239489   3.202   4.830   1.181  0.3086 -0.4303  0.3552
 5977TIP3    H139490   3.158   4.819   1.097 -0.7584 -0.3672  0.8892
 5977TIP3    H239491   3.250   4.748   1.194  1.0613 -0.1638 -0.6278
 5978TIP3   OH239492   3.795   3.881   2.045  0.2970  0.4453  0.1044
 5978TIP3    H139493   3.771   3.812   2.108 -0.4503  1.2264  0.6930
 5978TIP3    H239494   3.779   3.963   2.092 -2.9247  1.1653 -1.9270
 5979TIP3   OH239495   3.889   3.478   7.002 -0.1207  0.6284  0.4411
 5979TIP3    H139496   3.979   3.505   6.982  0.0163 -0.7541 -0.9877
 5979TIP3    H239497   3.836   3.555   6.982  0.6357  1.1087  0.2304
 5980TIP3   OH239498   1.834   6.423   7.344 -0.4442  0.5635 -0.8391
 5980TIP3    H139499   1.807   6.404   7.254 -0.3379  1.0377 -0.9784
 5980TIP3    H239500   1.752   6.440   7.391 -0.4401  1.5740 -1.1580
 5981TIP3   OH239501   0.365   2.800   2.450  0.0211  0.9527  0.3278
 5981TIP3    H139502   0.358   2.855   2.528  1.7289  1.4997  0.1451
 5981TIP3    H239503   0.451   2.823   2.412 -0.5060  0.2776 -1.3812
 5982TIP3   OH239504   5.248   5.636   0.117  0.0427 -0.1555 -0.1350
 5982TIP3    H139505   5.188   5.573   0.156  0.7100  0.1121  1.4018
 5982TIP3    H239506   5.270   5.696   0.188  1.4671  0.2639 -0.8769
 5983TIP3   OH239507   2.543   4.035   0.140  0.5810 -0.0595 -0.5771
 5983TIP3    H139508   2.563   4.009   0.230  0.5202  0.1905 -0.4904
 5983TIP3    H239509   2.617   4.001   0.089  1.0007  0.4460 -0.3236
 5984TIP3   OH239510   3.279   3.139   0.047 -0.3350  0.2495  0.5373
 5984TIP3    H139511   3.354   3.186   0.010 -0.7501  0.8881  0.4824
 5984TIP3    H239512   3.316   3.086   0.118  0.0835  0.9815  0.8721
 5985TIP3   OH239513   6.306   2.046   0.969 -0.0309 -0.2841  0.3700
 5985TIP3    H139514   6.293   2.083   0.881 -0.9589 -0.9689  0.2033
 5985TIP3    H239515   6.366   1.972   0.955  1.7298  1.0273  0.6863
 5986TIP3   OH239516   4.957   0.757   0.330  0.0878  0.2651  0.3105
 5986TIP3    H139517   4.920   0.669   0.337  0.8698 -0.2401 -1.5264
 5986TIP3    H239518   5.042   0.744   0.289  0.4461  1.8350  0.5161
 5987TIP3   OH239519   5.634   4.877   0.483  0.1163 -0.1060  0.1030
 5987TIP3    H139520   5.542   4.852   0.497 -0.8700  3.9401  2.6099
 5987TIP3    H239521   5.633   4.924   0.400  0.2658 -1.1593 -0.5171
 5988TIP3   OH239522   2.998   3.698   0.619 -0.5676  0.2937  0.0871
 5988TIP3    H139523   3.040   3.775   0.657 -0.5562 -0.2246  1.1605
 5988TIP3    H239524   2.908   3.724   0.604  0.0079  1.3180 -1.9399
 5989TIP3   OH239525   2.102   2.400   0.022  0.1652  0.3389  0.1992
 5989TIP3    H139526   2.116   2.392   0.117  0.4226 -1.4277  0.0634
 5989TIP3    H239527   2.048   2.477   0.012  0.3632  0.7257  1.7716
 5990TIP3   OH239528   2.339   5.735   8.570  0.4338 -0.0105 -0.0926
 5990TIP3    H139529   2.264   5.781   8.608 -0.6984 -0.6370 -1.4893
 5990TIP3    H239530   2.404   5.804   8.555 -1.2377  1.2126 -2.1829
 5991TIP3   OH239531   6.696   3.766   8.817  0.4372  0.6008  0.7000
 5991TIP3    H139532   6.641   3.825   8.765 -0.3013  0.9124  1.7836
 5991TIP3    H239533   6.766   3.740   8.758 -0.2032  1.1713 -0.3496
 5992TIP3   OH239534   3.272   2.162   0.485  0.6207 -0.2685  0.7704
 5992TIP3    H139535   3.282   2.181   0.392  1.8451 -1.3901  0.6461
 5992TIP3    H239536   3.182   2.132   0.495  0.5996 -0.5026 -0.1153
 5993TIP3   OH239537   0.469   0.896   0.505  0.2380  0.5415 -0.8632
 5993TIP3    H139538   0.413   0.857   0.573 -0.1924  0.8840 -1.0122
 5993TIP3    H239539   0.437   0.858   0.424  0.2590  0.6971 -0.9441
 5994TIP3   OH239540   4.594   0.446   6.795  0.0707  0.1762  0.2344
 5994TIP3    H139541   4.632   0.359   6.807 -0.5629 -0.3897 -1.5675
 5994TIP3    H239542   4.646   0.503   6.852 -0.1500 -1.5131  2.2344
 5995TIP3   OH239543   1.206   0.002   6.304 -0.1266 -0.2028 -0.0885
 5995TIP3    H139544   1.273  -0.046   6.352  1.4427  0.4174 -1.5767
 5995TIP3    H239545   1.215  -0.027   6.213 -0.4268  1.4665 -0.6918
 5996TIP3   OH239546   3.867   0.754   0.934  0.3208 -0.1367 -0.1745
 5996TIP3    H139547   3.812   0.831   0.922 -0.7372 -0.6780  0.9506
 5996TIP3    H239548   3.830   0.710   1.011  2.5501 -0.3636  0.8442
 5997TIP3   OH239549   1.452   2.809   2.139  0.3803 -0.1154 -0.1833
 5997TIP3    H139550   1.435   2.747   2.068  2.2668 -1.2638  0.3034
 5997TIP3    H239551   1.402   2.775   2.213 -0.6298  0.4192 -0.5926
 5998TIP3   OH239552   4.751   2.566   6.744  0.0098 -0.0477  0.5808
 5998TIP3    H139553   4.680   2.615   6.702  0.1380  0.3131  0.7819
 5998TIP3    H239554   4.714   2.540   6.829  0.3234  0.6747  0.9483
 5999TIP3   OH239555   0.433   0.403   8.657 -0.0562 -0.2084 -0.2698
 5999TIP3    H139556   0.454   0.311   8.642 -1.9239 -0.4632 -1.8609
 5999TIP3    H239557   0.430   0.441   8.569 -0.0249  1.2123  0.3123
 6000TIP3   OH239558   6.572   0.146   7.497  0.1877 -0.0957 -0.1598
 6000TIP3    H139559   6.486   0.177   7.471 -0.2111 -0.4215  0.7252
 6000TIP3    H239560   6.624   0.149   7.417 -1.1233 -1.5652 -1.1398
 6001TIP3   OH239561   6.233   2.001   1.531 -0.2345  0.5707  0.2435
 6001TIP3    H139562   6.248   2.035   1.619 -0.1575  0.7907  0.1464
 6001TIP3    H239563   6.296   2.048   1.476 -0.8875  1.0819 -0.0740
 6002TIP3   OH239564   1.530   6.640   8.012  0.1641  0.2419  0.6094
 6002TIP3    H139565   1.587   6.637   8.089  0.7029 -0.0785  0.2107
 6002TIP3    H239566   1.567   6.708   7.956  1.0240 -0.9129 -0.2908
 6003TIP3   OH239567   6.795   1.830   1.372  0.0743  0.2286  0.8117
 6003TIP3    H139568   6.891   1.834   1.378  0.3968 -2.9598 -0.4117
 6003TIP3    H239569   6.775   1.855   1.282 -0.1022 -0.1649  0.7363
 6004TIP3   OH239570   3.820   2.985   6.187 -0.4890  0.4557 -0.2786
 6004TIP3    H139571   3.802   3.016   6.276 -0.6066  1.2379 -0.5640
 6004TIP3    H239572   3.869   3.057   6.146  2.1237 -1.0381  0.0272
 6005TIP3   OH239573   0.529   4.954   6.151  0.2656  0.1086  0.0747
 6005TIP3    H139574   0.544   4.867   6.113 -1.0844 -1.0211  1.9745
 6005TIP3    H239575   0.497   4.936   6.239  0.0892  2.5681  0.5685
 6006TIP3   OH239576   1.302   0.819   0.428 -0.2845  0.7444 -0.1500
 6006TIP3    H139577   1.298   0.914   0.438 -2.3658  0.5704  1.2146
 6006TIP3    H239578   1.294   0.785   0.517 -2.1193 -0.7105 -0.7999
 6007TIP3   OH239579   2.592   1.815   1.628 -0.4677 -0.2013  0.5450
 6007TIP3    H139580   2.561   1.884   1.686  0.2627  0.7123 -0.1209
 6007TIP3    H239581   2.517   1.796   1.571 -0.9175 -0.5149  1.2380
 6008TIP3   OH239582   4.058   4.814   8.625  0.1189 -0.3069  0.4164
 6008TIP3    H139583   4.063   4.719   8.611  0.3125 -0.3352  0.6778
 6008TIP3    H239584   4.015   4.824   8.710  0.6330 -0.1767  0.6657
 6009TIP3   OH239585   2.590   6.196   1.038 -0.6862  0.0870  0.0722
 6009TIP3    H139586   2.604   6.178   1.131  2.8632  3.0505  0.3396
 6009TIP3    H239587   2.645   6.133   0.992  1.0636  1.3598  0.3155
 6010TIP3   OH239588   4.688   3.076   7.391  0.1074 -0.2593 -0.5027
 6010TIP3    H139589   4.780   3.063   7.368  0.4280 -0.4053  0.8025
 6010TIP3    H239590   4.640   3.052   7.311  1.2049  0.2363 -1.3484
 6011TIP3   OH239591   0.689   1.031   2.175 -0.1786 -0.2639  0.4341
 6011TIP3    H139592   0.707   1.106   2.230  0.8142 -1.5349  1.9361
 6011TIP3    H239593   0.613   1.056   2.123  0.8032  2.1739  0.0494
 6012TIP3   OH239594   4.909   1.893   7.881 -0.0794 -0.0060  0.0407
 6012TIP3    H139595   4.928   1.903   7.787  2.9724 -1.7647  0.3298
 6012TIP3    H239596   4.919   1.981   7.917 -0.4857  0.5510 -1.1394
 6013TIP3   OH239597   5.136   2.384   0.682  0.4788 -0.3933  0.1371
 6013TIP3    H139598   5.047   2.348   0.675  0.1380  0.4886 -0.2676
 6013TIP3    H239599   5.178   2.359   0.600  0.1185  0.4183 -0.3120
 6014TIP3   OH239600   1.823   1.270   7.326  0.9564 -0.1333 -0.2712
 6014TIP3    H139601   1.886   1.246   7.258  1.4728 -1.8825  0.7706
 6014TIP3    H239602   1.767   1.336   7.285  1.7221 -0.5923 -2.1247
 6015TIP3   OH239603   2.426   1.500   1.761  0.6703 -0.0729  0.1473
 6015TIP3    H139604   2.391   1.547   1.685 -0.8966 -1.5547 -0.1136
 6015TIP3    H239605   2.370   1.527   1.833 -0.2214 -1.4151  0.0038
 6016TIP3   OH239606   0.566   1.038   8.021 -0.2324  0.1279 -0.1658
 6016TIP3    H139607   0.650   1.053   8.063  0.5712 -0.1859 -1.5854
 6016TIP3    H239608   0.570   0.948   7.989 -0.5958  0.4923 -1.3040
 6017TIP3   OH239609   5.721   3.992   8.455 -0.6159  0.3279  0.6708
 6017TIP3    H139610   5.647   4.052   8.441 -0.5970  0.4926  1.2680
 6017TIP3    H239611   5.782   4.013   8.385 -1.8740 -0.9814 -0.9045
 6018TIP3   OH239612   5.896   6.386   1.873 -0.3890 -0.8003  0.3206
 6018TIP3    H139613   5.832   6.434   1.926 -1.0315 -2.3829  1.0172
 6018TIP3    H239614   5.946   6.334   1.935  1.3390  0.0878 -0.2656
 6019TIP3   OH239615   2.573   4.828   7.454 -0.1854 -0.2522 -0.4782
 6019TIP3    H139616   2.603   4.901   7.400  0.2721 -0.4209 -0.4492
 6019TIP3    H239617   2.480   4.819   7.432  0.1265 -0.7199 -1.7137
 6020TIP3   OH239618   0.936   5.505   1.376 -0.1218 -0.4633  0.2179
 6020TIP3    H139619   1.031   5.515   1.386 -0.0800 -2.3893  2.7473
 6020TIP3    H239620   0.907   5.468   1.460 -3.2484  0.7775 -0.2019
 6021TIP3   OH239621   1.899   2.747   6.976 -0.2175  0.6355 -0.3202
 6021TIP3    H139622   1.924   2.674   6.919 -0.8969 -0.0819  0.2706
 6021TIP3    H239623   1.982   2.791   6.997  0.6830 -1.7858  1.7389
 6022TIP3   OH239624   6.736   0.815   7.664  0.0174 -0.6418  0.1891
 6022TIP3    H139625   6.740   0.905   7.632 -0.3013  0.1931  2.3499
 6022TIP3    H239626   6.752   0.761   7.586  3.8648  1.2970 -0.6022
 6023TIP3   OH239627   1.828   0.127   7.598 -0.1618 -0.1699 -0.2983
 6023TIP3    H139628   1.910   0.175   7.585 -0.6470  0.6757 -0.3095
 6023TIP3    H239629   1.840   0.046   7.549  0.5384  0.1010 -0.5921
 6024TIP3   OH239630   0.207   1.117   0.129 -0.2983 -0.2136 -0.0113
 6024TIP3    H139631   0.252   1.111   0.045  0.6744  1.6826  0.3184
 6024TIP3    H239632   0.276   1.144   0.191 -1.0075 -1.4602  1.3860
 6025TIP3   OH239633   0.588   1.352   1.233  0.1739  0.7098 -0.6251
 6025TIP3    H139634   0.585   1.391   1.320 -0.7062  2.1006 -1.2489
 6025TIP3    H239635   0.560   1.262   1.246 -1.4122  1.3123  0.3330
 6026TIP3   OH239636   1.557   4.106   1.520  0.0335  0.0113  0.2425
 6026TIP3    H139637   1.502   4.033   1.549 -0.5784  0.4389  0.2037
 6026TIP3    H239638   1.501   4.184   1.533  0.8594  0.5297  0.7806
 6027TIP3   OH239639   0.914   4.555   6.881 -0.5686  0.0094  0.0188
 6027TIP3    H139640   0.822   4.531   6.872 -0.5253 -0.3541  0.5077
 6027TIP3    H239641   0.913   4.631   6.939 -0.6561  0.8452 -1.0374
 6028TIP3   OH239642   0.469   2.658   0.707  0.5799 -0.3020 -0.2089
 6028TIP3    H139643   0.427   2.737   0.673  0.6652 -1.1133 -2.3568
 6028TIP3    H239644   0.557   2.660   0.669  0.1388 -2.0767 -1.4072
 6029TIP3   OH239645   3.833   3.564   0.167 -0.5789  0.4855  0.3579
 6029TIP3    H139646   3.760   3.623   0.184 -1.5211 -1.0171  1.8480
 6029TIP3    H239647   3.805   3.513   0.091 -1.0688 -0.0652  0.9062
 6030TIP3   OH239648   1.788   0.425   7.596  0.1565 -0.2622  0.1153
 6030TIP3    H139649   1.771   0.452   7.506  1.9185 -0.0235 -0.1779
 6030TIP3    H239650   1.864   0.368   7.591  1.9879  1.8420  1.6613
 6031TIP3   OH239651   4.952   2.962   1.409  0.2884 -0.3621  0.6703
 6031TIP3    H139652   4.891   2.892   1.386  1.1081 -1.3454  1.4116
 6031TIP3    H239653   4.904   3.042   1.391 -0.7916 -1.1093  0.1092
 6032TIP3   OH239654   1.410   2.529   1.083  0.0840  0.8233  0.1516
 6032TIP3    H139655   1.471   2.557   1.152  1.7301 -4.7279  1.3982
 6032TIP3    H239656   1.324   2.560   1.114  1.2830  2.1586  2.4483
 6033TIP3   OH239657   6.022   0.295   7.542 -0.4034  0.0009 -0.3688
 6033TIP3    H139658   6.043   0.275   7.451  2.9000  0.6006  0.1325
 6033TIP3    H239659   6.062   0.224   7.592  0.3800  1.1790  0.7457
 6034TIP3   OH239660   1.165   6.360   6.958 -0.0410  0.1057  0.5174
 6034TIP3    H139661   1.097   6.324   6.902 -0.6421  2.2770 -0.2371
 6034TIP3    H239662   1.128   6.358   7.046 -0.1914 -0.7275  0.4447
 6035TIP3   OH239663   2.452   4.893   1.080  0.3112 -0.0666 -0.7234
 6035TIP3    H139664   2.468   4.903   1.174  2.4539 -0.7506 -0.9452
 6035TIP3    H239665   2.411   4.807   1.072 -0.3655  0.2151 -0.3965
 6036TIP3   OH239666   2.019   5.210   0.766  0.0267 -0.3947  0.1930
 6036TIP3    H139667   1.993   5.295   0.803  1.0164 -0.1011  0.2429
 6036TIP3    H239668   2.114   5.208   0.777  0.2141 -0.7743 -1.3391
 6037TIP3   OH239669   5.562   4.134   1.191 -0.8707 -0.3191  0.2272
 6037TIP3    H139670   5.568   4.066   1.124  0.2478  1.1165 -1.2073
 6037TIP3    H239671   5.593   4.091   1.271  0.0935 -1.4220 -0.6964
 6038TIP3   OH239672   0.784   1.295   7.248  0.1904 -0.5507  0.5556
 6038TIP3    H139673   0.704   1.287   7.299 -0.7081  0.6883 -0.6051
 6038TIP3    H239674   0.803   1.389   7.247  1.9129 -0.8557  1.1738
 6039TIP3   OH239675   4.473   1.452   7.772 -0.3127 -0.0977  0.3026
 6039TIP3    H139676   4.520   1.374   7.743  0.3273 -0.0914  1.2637
 6039TIP3    H239677   4.483   1.514   7.700 -0.8475 -0.8975 -0.4819
 6040TIP3   OH239678   4.058   1.637   6.618  0.4281  0.0078 -0.3776
 6040TIP3    H139679   4.136   1.673   6.575 -1.9442  1.1532 -4.2587
 6040TIP3    H239680   4.063   1.543   6.602  1.3875 -0.0392  0.1336
 6041TIP3   OH239681   0.883   4.310   0.255  0.5801  0.0090 -0.1039
 6041TIP3    H139682   0.853   4.219   0.255  1.3984 -0.2688  0.0936
 6041TIP3    H239683   0.858   4.343   0.168  0.7185 -0.5587 -0.3646
 6042TIP3   OH239684   0.526   2.345   1.538  0.4165 -0.2335  0.1965
 6042TIP3    H139685   0.457   2.383   1.592  0.9784  0.3622  0.5158
 6042TIP3    H239686   0.527   2.399   1.459 -1.1031 -1.7435 -0.9076
 6043TIP3   OH239687   6.746   6.596   2.142 -0.1630  0.6563  0.1404
 6043TIP3    H139688   6.808   6.657   2.182  2.0175 -1.1044 -0.3764
 6043TIP3    H239689   6.788   6.510   2.151 -2.6001 -0.6540 -0.1563
 6044TIP3   OH239690   5.085   3.347   8.015  0.0902 -0.0059 -0.3865
 6044TIP3    H139691   5.155   3.311   7.959  2.2469  1.1411  1.4172
 6044TIP3    H239692   5.039   3.270   8.048  0.0721 -0.7779 -2.1003
 6045TIP3   OH239693   4.228   5.732   1.086  0.3757 -0.2262 -1.1218
 6045TIP3    H139694   4.229   5.782   1.005  0.1394 -1.7863 -2.1454
 6045TIP3    H239695   4.309   5.681   1.084 -0.2574 -1.2713 -1.0635
 6046TIP3   OH239696   4.377   6.605   8.779 -0.4325  0.4248  0.2303
 6046TIP3    H139697   4.373   6.514   8.807 -1.0845 -0.3151 -1.9985
 6046TIP3    H239698   4.470   6.625   8.774 -0.2834 -0.1741  0.6137
 6047TIP3   OH239699   2.433   2.321   7.099 -0.2190 -0.5030 -0.1640
 6047TIP3    H139700   2.476   2.236   7.094  0.3802 -0.1689 -0.7689
 6047TIP3    H239701   2.419   2.347   7.008  2.3714  1.4068 -0.1436
 6048TIP3   OH239702   4.254   1.851   7.380  0.1026 -0.1368 -0.0955
 6048TIP3    H139703   4.319   1.818   7.318 -0.3354 -2.7794  0.7518
 6048TIP3    H239704   4.306   1.894   7.448  0.8188 -0.5102 -0.3993
 6049TIP3   OH239705   6.205   4.596   8.577 -0.4595 -0.0195 -0.1068
 6049TIP3    H139706   6.183   4.512   8.618 -1.0463  0.6430  0.9793
 6049TIP3    H239707   6.244   4.647   8.648 -1.7066  1.2467 -0.2972
 6050TIP3   OH239708   1.553   5.151   8.841 -0.2390 -0.6261  0.0390
 6050TIP3    H139709   1.601   5.227   8.872 -1.3642 -0.5997  1.8237
 6050TIP3    H239710   1.507   5.118   8.918 -1.7989 -1.5979 -1.2513
 6051TIP3   OH239711   0.259   1.851   0.586  0.4533  0.5879 -0.2014
 6051TIP3    H139712   0.211   1.907   0.647 -2.8205 -0.8197 -1.2386
 6051TIP3    H239713   0.216   1.766   0.593  2.2152 -0.5552 -2.0111
 6052TIP3   OH239714   6.286   1.686   8.281 -0.0788 -0.1242  0.2888
 6052TIP3    H139715   6.345   1.645   8.345  0.8677 -1.7741 -1.5376
 6052TIP3    H239716   6.200   1.686   8.325  0.6922 -0.4044  1.8728
 6053TIP3   OH239717   6.093   1.767   1.116  0.3318  0.4988  0.0475
 6053TIP3    H139718   6.056   1.841   1.067 -0.8236  1.5463  2.3210
 6053TIP3    H239719   6.144   1.808   1.186 -2.3890 -0.6269  2.9573
 6054TIP3   OH239720   2.584   2.796   7.970 -0.1105  0.1767 -0.2068
 6054TIP3    H139721   2.531   2.720   7.946 -0.6913 -0.3163  2.3603
 6054TIP3    H239722   2.661   2.759   8.013  0.3291  0.9967 -0.2732
 6055TIP3   OH239723   6.106   4.571   7.554  0.0724  0.2819 -0.4754
 6055TIP3    H139724   6.060   4.645   7.515 -2.3711 -0.6843  0.3271
 6055TIP3    H239725   6.064   4.560   7.640  1.5960 -0.9242  0.1526
 6056TIP3   OH239726   1.436   1.664   1.727  0.4094  0.6369  0.3207
 6056TIP3    H139727   1.493   1.672   1.803  1.3568  1.6457 -0.4729
 6056TIP3    H239728   1.364   1.608   1.757  2.1211 -1.2009  1.1447
 6057TIP3   OH239729   3.194   1.326   0.073  0.2706 -0.0241 -0.4170
 6057TIP3    H139730   3.131   1.331   0.001 -0.4147 -2.2125 -0.0423
 6057TIP3    H239731   3.179   1.406   0.124 -0.9363  0.3585 -1.3353
 6058TIP3   OH239732   3.214   6.229   8.175 -0.1684  0.0259  0.1654
 6058TIP3    H139733   3.168   6.255   8.255  0.0145 -0.3253  0.3874
 6058TIP3    H239734   3.287   6.175   8.205  1.1207  1.5542 -0.0941
 6059TIP3   OH239735   2.413   2.960   0.751  0.0742  0.0850 -0.1889
 6059TIP3    H139736   2.433   2.868   0.773  0.4306  0.1720 -0.1438
 6059TIP3    H239737   2.487   2.989   0.698  0.5434  0.7009  0.7818
 6060TIP3   OH239738   2.505   5.836   8.364 -0.3257  0.2199 -0.4621
 6060TIP3    H139739   2.409   5.845   8.360 -0.4596 -0.4276  0.7737
 6060TIP3    H239740   2.537   5.887   8.290 -1.5713  1.5997 -0.1029
 6061TIP3   OH239741   2.913   0.699   7.442 -0.2594 -0.3077 -0.1415
 6061TIP3    H139742   2.825   0.665   7.422 -0.1809 -0.5629 -0.0564
 6061TIP3    H239743   2.915   0.785   7.400 -1.1802  0.4705  1.3035
 6062TIP3   OH239744   2.576   4.692   8.251 -0.6685  0.2639 -0.3152
 6062TIP3    H139745   2.622   4.763   8.295  0.5457 -0.2038 -0.7706
 6062TIP3    H239746   2.500   4.733   8.211 -0.0097  1.2971 -0.5444
 6063TIP3   OH239747   3.193   3.086   1.134 -0.4667  0.1369 -0.4376
 6063TIP3    H139748   3.226   3.160   1.185  1.2222 -0.0827 -1.1384
 6063TIP3    H239749   3.160   3.024   1.199 -0.1469  0.6978  0.2696
 6064TIP3   OH239750   6.176   1.651   0.534 -0.0567 -0.0632 -0.1596
 6064TIP3    H139751   6.267   1.677   0.547 -0.5939  1.6648  0.4215
 6064TIP3    H239752   6.148   1.700   0.457 -0.7482  0.0909  0.1848
 6065TIP3   OH239753   5.652   3.484   7.199 -0.0213  0.2206 -0.0566
 6065TIP3    H139754   5.698   3.452   7.276 -0.1190 -1.1138 -0.5214
 6065TIP3    H239755   5.629   3.405   7.150  0.9260  1.0665 -1.9591
 6066TIP3   OH239756   1.854   4.206   8.791  0.4747 -0.6471  0.3715
 6066TIP3    H139757   1.870   4.298   8.813 -0.6031 -0.6427  1.2253
 6066TIP3    H239758   1.758   4.199   8.788  0.5268 -1.9385  1.2061
 6067TIP3   OH239759   5.670   0.517   1.512 -0.6044  0.6618 -0.3876
 6067TIP3    H139760   5.717   0.578   1.569 -2.1654 -0.2888  2.0646
 6067TIP3    H239761   5.727   0.440   1.507 -1.3322 -0.1220  1.8271
 6068TIP3   OH239762   2.116   6.347   8.388 -0.7052  0.3097  0.2728
 6068TIP3    H139763   2.052   6.403   8.344 -0.0894 -0.4300 -1.6627
 6068TIP3    H239764   2.200   6.372   8.349 -0.0126  0.1065  1.5675
 6069TIP3   OH239765   4.565   1.520   1.171  0.4643  0.4979 -0.3809
 6069TIP3    H139766   4.653   1.547   1.197 -0.6063  4.9059 -0.6494
 6069TIP3    H239767   4.514   1.526   1.251 -0.2234  1.2712 -0.8624
 6070TIP3   OH239768   3.459   4.114   2.254 -0.6101 -0.4237  0.2424
 6070TIP3    H139769   3.480   4.193   2.203 -0.7916 -0.1114  0.6456
 6070TIP3    H239770   3.369   4.093   2.230 -1.1571  0.4910  1.4037
 6071TIP3   OH239771   0.561   2.519   0.014  0.0405  0.3316 -0.5401
 6071TIP3    H139772   0.510   2.584   0.063  0.2032 -0.8883  1.3897
 6071TIP3    H239773   0.649   2.555   0.010 -0.0619  0.6208 -0.2371
 6072TIP3   OH239774   0.901   4.324   1.484  0.2169  0.2674 -0.0179
 6072TIP3    H139775   0.985   4.283   1.463 -0.1653 -0.8573  0.5895
 6072TIP3    H239776   0.923   4.392   1.548  0.9289  1.4176 -1.4344
 6073TIP3   OH239777   3.855   5.422   7.733 -0.0768 -0.3307  0.2129
 6073TIP3    H139778   3.858   5.509   7.692 -0.3020 -1.1013 -1.5036
 6073TIP3    H239779   3.891   5.363   7.667 -0.4926 -1.6404  1.1270
 6074TIP3   OH239780   2.498   4.030   0.916 -0.3518  0.2188  0.3975
 6074TIP3    H139781   2.523   3.938   0.914 -1.6812 -0.2736  2.5731
 6074TIP3    H239782   2.407   4.030   0.887 -0.1048  0.9849 -0.4069
 6075TIP3   OH239783   0.479   4.019   8.400 -0.1380  0.0539 -0.0302
 6075TIP3    H139784   0.545   3.954   8.376  2.0759  1.6062  1.4624
 6075TIP3    H239785   0.525   4.080   8.457 -3.1415  0.7197  1.9199
 6076TIP3   OH239786   0.778   5.776   1.380 -0.1863  0.3409 -0.7602
 6076TIP3    H139787   0.725   5.702   1.350  0.6414 -0.5679 -0.0594
 6076TIP3    H239788   0.723   5.821   1.444 -0.6532  0.2852 -1.1145
 6077TIP3   OH239789   2.229   5.984   1.287 -0.4945  0.1863 -0.2322
 6077TIP3    H139790   2.157   6.015   1.232 -0.3637 -0.1253 -0.5857
 6077TIP3    H239791   2.305   5.983   1.229 -1.2129 -4.6140 -1.5467
 6078TIP3   OH239792   2.038   3.410   8.569  0.0658 -0.5068  0.3141
 6078TIP3    H139793   1.950   3.377   8.551  0.2084 -0.3543 -0.7294
 6078TIP3    H239794   2.034   3.502   8.546  0.6437 -0.6215 -0.2682
 6079TIP3   OH239795   1.662   6.565   0.694 -0.5515 -0.8214 -0.4147
 6079TIP3    H139796   1.566   6.556   0.690 -0.8102 -0.6121  2.5199
 6079TIP3    H239797   1.676   6.652   0.732  0.8222 -0.7640 -1.0149
 6080TIP3   OH239798   1.119   5.623   0.976 -0.2063  0.2473  0.2280
 6080TIP3    H139799   1.079   5.643   0.891  0.2285  1.8474  0.3612
 6080TIP3    H239800   1.052   5.574   1.023 -0.4656 -0.6438 -1.0173
 6081TIP3   OH239801   2.884   1.418   8.783 -0.5476 -0.2820 -0.3980
 6081TIP3    H139802   2.966   1.457   8.753  0.7358 -1.3483  1.5504
 6081TIP3    H239803   2.886   1.329   8.749 -1.2863 -0.0877 -0.9789
 6082TIP3   OH239804   6.793   3.185   6.571 -0.3615  0.2180  0.1038
 6082TIP3    H139805   6.712   3.221   6.535 -1.7121 -1.0421  1.7598
 6082TIP3    H239806   6.843   3.159   6.493 -1.9958  0.0369 -0.9376
 6083TIP3   OH239807   5.376   3.310   1.927  0.2674  0.5994 -1.0620
 6083TIP3    H139808   5.434   3.273   1.993 -0.4943  1.8316  0.3498
 6083TIP3    H239809   5.347   3.394   1.963 -2.9525 -0.2297 -1.3373
 6084TIP3   OH239810   3.565   6.099   6.313  0.3909 -0.5861  0.0286
 6084TIP3    H139811   3.635   6.036   6.300 -0.1777 -1.0788 -0.7249
 6084TIP3    H239812   3.489   6.046   6.335  0.3121 -0.0376  1.1294
 6085TIP3   OH239813   2.424   4.112   7.726  0.2576 -0.1681 -0.0197
 6085TIP3    H139814   2.379   4.130   7.644  0.8837  0.1820 -0.2939
 6085TIP3    H239815   2.393   4.025   7.752  0.5041 -0.5375 -0.9306
 6086TIP3   OH239816   4.123   6.281   8.657  0.3824  0.3993 -0.1293
 6086TIP3    H139817   4.033   6.253   8.641  0.9838 -1.0545 -1.2264
 6086TIP3    H239818   4.176   6.203   8.639  1.6773  0.2575  3.4397
 6087TIP3   OH239819   3.976   2.139   6.986  0.6260  0.5344 -0.3543
 6087TIP3    H139820   3.947   2.105   7.070  0.6885  1.4077  0.0359
 6087TIP3    H239821   4.003   2.062   6.936 -1.0457 -0.1760 -0.2234
 6088TIP3   OH239822   2.853   5.831   1.268 -0.0132  0.2610  0.0292
 6088TIP3    H139823   2.850   5.870   1.356 -1.2785  0.1142  0.0672
 6088TIP3    H239824   2.765   5.845   1.233  0.3428 -0.1032 -1.0405
 6089TIP3   OH239825   5.650   3.623   8.157  0.1854 -0.0729 -0.1104
 6089TIP3    H139826   5.656   3.716   8.178  1.6870 -0.3636  0.9908
 6089TIP3    H239827   5.664   3.579   8.241  1.7136 -1.2864 -0.9428
 6090TIP3   OH239828   4.039   0.849   1.272 -0.0204 -0.0016 -0.0032
 6090TIP3    H139829   4.000   0.934   1.252  0.8382  0.3060 -0.4036
 6090TIP3    H239830   3.965   0.796   1.303 -0.5713  0.8720  0.2182
 6091TIP3   OH239831   5.330   2.399   0.195 -0.0186  0.5576 -0.6914
 6091TIP3    H139832   5.401   2.336   0.188  0.2929  0.8753 -0.4387
 6091TIP3    H239833   5.372   2.484   0.182 -0.6728  0.6274 -2.6068
 6092TIP3   OH239834   4.506   3.811   7.384  0.5619  0.2813  0.0686
 6092TIP3    H139835   4.479   3.830   7.474 -0.4442 -0.7483  0.0020
 6092TIP3    H239836   4.555   3.729   7.391 -0.3760 -0.3314 -0.4523
 6093TIP3   OH239837   1.534   3.067   2.072  0.3113 -0.4499  0.0522
 6093TIP3    H139838   1.629   3.059   2.065  0.1718 -0.8650 -1.6594
 6093TIP3    H239839   1.503   2.977   2.079 -0.0724 -0.4726 -1.5642
 6094TIP3   OH239840   4.493   0.284   0.427 -0.2853 -0.9437 -0.6060
 6094TIP3    H139841   4.510   0.297   0.334 -0.0127 -0.3499 -0.4776
 6094TIP3    H239842   4.398   0.292   0.435 -0.1577  1.0174 -0.5523
 6095TIP3   OH239843   6.583   3.275   6.751  0.0686  0.1986  0.2502
 6095TIP3    H139844   6.505   3.303   6.702 -0.5964 -2.0755 -0.1368
 6095TIP3    H239845   6.606   3.191   6.712  0.5376 -0.9156  2.7427
 6096TIP3   OH239846   4.220   3.556   0.450  0.0300  0.2223  0.6889
 6096TIP3    H139847   4.269   3.598   0.379  1.3200 -0.2188  1.2745
 6096TIP3    H239848   4.190   3.629   0.505 -1.1046  0.5769 -0.3527
 6097TIP3   OH239849   2.933   1.795   0.130 -0.3163 -0.5050  0.1550
 6097TIP3    H139850   2.925   1.889   0.149 -1.3386 -0.4451 -0.4718
 6097TIP3    H239851   2.866   1.779   0.064  0.4877 -1.4980 -0.4343
 6098TIP3   OH239852   1.759   6.299   1.449  0.2421  0.1988  0.0257
 6098TIP3    H139853   1.807   6.322   1.528 -1.6880  0.2980  1.2395
 6098TIP3    H239854   1.764   6.378   1.394  0.6919  0.5177  0.5178
 6099TIP3   OH239855   0.104   5.501   1.705  0.2551 -0.0923  0.1588
 6099TIP3    H139856   0.113   5.448   1.784  1.3175  0.5147  0.4596
 6099TIP3    H239857   0.187   5.490   1.660  0.3710  1.0705  0.0753
 6100TIP3   OH239858   5.476   1.884   1.558 -0.1248 -0.2706 -0.7394
 6100TIP3    H139859   5.491   1.790   1.551  1.1388 -0.0838 -0.7414
 6100TIP3    H239860   5.478   1.915   1.468 -1.3250 -0.3377 -0.8038
 6101TIP3   OH239861   5.063   0.226   7.634  0.9524  0.0744  0.3485
 6101TIP3    H139862   5.056   0.261   7.545  0.3016 -1.5519 -0.2897
 6101TIP3    H239863   4.974   0.230   7.668  0.8922 -0.7421  0.3198
 6102TIP3   OH239864   5.274   4.691   0.955 -0.0591 -0.4298  0.8111
 6102TIP3    H139865   5.201   4.635   0.928 -0.7392 -0.1585  2.0384
 6102TIP3    H239866   5.301   4.656   1.040  0.6974 -0.0068  0.7551
 6103TIP3   OH239867   4.970   4.091   7.256 -0.3885  0.2584 -0.1249
 6103TIP3    H139868   5.063   4.094   7.230 -0.2500  1.1874  0.4048
 6103TIP3    H239869   4.969   4.040   7.336 -0.4277 -0.3012 -0.4809
 6104TIP3   OH239870   3.061   1.623   0.559 -0.0357 -0.4744 -0.1343
 6104TIP3    H139871   2.980   1.615   0.508  0.1051 -1.9496 -0.1646
 6104TIP3    H239872   3.040   1.584   0.644  0.8119 -1.4364 -0.3524
 6105TIP3   OH239873   1.663   6.622   0.159 -0.4529 -0.2922  0.1163
 6105TIP3    H139874   1.629   6.599   0.073 -1.4536 -0.4705  0.5433
 6105TIP3    H239875   1.753   6.590   0.159 -0.9859 -1.8390 -0.2423
 6106TIP3   OH239876   1.587   2.765   8.194  0.0139  0.6771  0.0172
 6106TIP3    H139877   1.627   2.783   8.279  3.5625 -0.1979 -1.2739
 6106TIP3    H239878   1.590   2.669   8.186  0.0161  0.7562 -1.1785
 6107TIP3   OH239879   2.043   1.787   2.001 -0.0750  0.4487  0.2754
 6107TIP3    H139880   2.038   1.875   1.963  0.9936  0.3970 -0.0134
 6107TIP3    H239881   1.964   1.743   1.969  1.1085  0.1516 -2.5979
 6108TIP3   OH239882   6.798   0.732   0.609 -0.0967 -0.3520 -0.0733
 6108TIP3    H139883   6.781   0.641   0.587  0.3971 -0.5225  0.2329
 6108TIP3    H239884   6.841   0.768   0.532 -1.1275 -0.1198 -0.5578
 6109TIP3   OH239885   5.154   1.469   7.254  0.1012 -0.0755  0.5495
 6109TIP3    H139886   5.071   1.512   7.234  0.6073  0.1810 -1.1104
 6109TIP3    H239887   5.132   1.376   7.258  0.0511 -0.2765 -2.1965
 6110TIP3   OH239888   4.544   2.673   8.471  0.3313 -0.0491 -0.3972
 6110TIP3    H139889   4.528   2.610   8.541  0.5997 -1.3756 -1.4987
 6110TIP3    H239890   4.494   2.641   8.397  0.6263  0.9374 -1.0513
 6111TIP3   OH239891   4.259   1.522   0.338  0.3299 -0.1345 -0.4673
 6111TIP3    H139892   4.201   1.450   0.364  3.2905 -2.4002  0.4018
 6111TIP3    H239893   4.321   1.483   0.277 -0.4708  2.8230 -3.5053
 6112TIP3   OH239894   3.756   0.212   7.512 -0.4275  0.4493  0.2352
 6112TIP3    H139895   3.782   0.244   7.598 -0.0552  1.2415 -0.1577
 6112TIP3    H239896   3.791   0.278   7.451 -0.2316 -0.3635 -0.5493
 6113TIP3   OH239897   1.248   2.529   8.149  0.2032  0.2796  0.3358
 6113TIP3    H139898   1.163   2.487   8.157 -0.0052  0.5940 -0.1701
 6113TIP3    H239899   1.229   2.623   8.151  0.4853  0.3571 -0.2383
 6114TIP3   OH239900   0.819   4.804   1.248 -0.1580  0.4404 -0.1604
 6114TIP3    H139901   0.802   4.854   1.328 -1.5758  0.2875 -0.3450
 6114TIP3    H239902   0.894   4.849   1.208  0.4850  0.6040  1.1627
 6115TIP3   OH239903   4.607   3.212   8.168  0.3001 -0.1120 -0.5042
 6115TIP3    H139904   4.624   3.162   8.248  0.6206  0.5932 -0.1285
 6115TIP3    H239905   4.574   3.296   8.198  0.7165  0.2757 -1.1060
 6116TIP3   OH239906   5.421   4.465   8.756  0.6049 -0.2670 -0.1001
 6116TIP3    H139907   5.497   4.483   8.812  2.1936  0.9528 -2.4676
 6116TIP3    H239908   5.446   4.386   8.707  0.8011  0.6705 -1.5620
 6117TIP3   OH239909   3.247   0.412   1.477 -0.2401  0.0201 -0.5885
 6117TIP3    H139910   3.196   0.351   1.530  1.5278 -0.8713  0.1655
 6117TIP3    H239911   3.318   0.440   1.535  0.5064  0.7278 -1.8013
 6118TIP3   OH239912   0.093   5.347   8.596  0.0916  0.0777 -0.5962
 6118TIP3    H139913   0.163   5.403   8.628 -0.6894  0.5782  0.2601
 6118TIP3    H239914   0.022   5.407   8.573  0.2593 -0.3317 -2.3875
 6119TIP3   OH239915   5.282   6.198   7.640 -0.2878  0.0337  0.1675
 6119TIP3    H139916   5.293   6.253   7.563  1.1635 -2.3698 -1.4579
 6119TIP3    H239917   5.365   6.203   7.687 -0.9429  0.9813  1.2820
 6120TIP3   OH239918   2.139   1.046   6.866 -0.4683 -0.1426 -0.0621
 6120TIP3    H139919   2.083   1.053   6.943  0.4530 -1.4398  0.7655
 6120TIP3    H239920   2.175   0.958   6.870  0.0215 -0.0538 -1.7019
 6121TIP3   OH239921   5.476   5.355   8.375  0.0416  0.0613  0.4686
 6121TIP3    H139922   5.452   5.445   8.401 -1.0774 -0.0416 -0.1624
 6121TIP3    H239923   5.446   5.347   8.285 -0.1697 -1.0566  0.6242
 6122TIP3   OH239924   1.694   2.135   8.770  0.3057  0.5428 -0.2129
 6122TIP3    H139925   1.787   2.115   8.773  0.1627 -0.1538 -0.1657
 6122TIP3    H239926   1.662   2.086   8.693  0.1750  1.6330 -0.8696
 6123TIP3   OH239927   4.363   1.195   8.233 -0.1419  0.2049  0.1275
 6123TIP3    H139928   4.342   1.118   8.180 -1.2352  1.0147 -0.6658
 6123TIP3    H239929   4.433   1.166   8.292 -0.8817 -1.5156  0.1924
 6124TIP3   OH239930   1.305   3.270   0.791  0.0541  0.4139  0.3969
 6124TIP3    H139931   1.379   3.329   0.774  0.4020  0.7110  2.6524
 6124TIP3    H239932   1.228   3.324   0.771  0.4037  0.7757 -0.0221
 6125TIP3   OH239933   1.140   4.283   8.121  0.4186 -0.0470  0.1773
 6125TIP3    H139934   1.076   4.211   8.124  0.7404 -0.5189 -2.2774
 6125TIP3    H239935   1.105   4.348   8.182 -1.8188 -0.7836 -0.2062
 6126TIP3   OH239936   1.359   2.117   8.694 -0.1302 -0.3594 -0.4442
 6126TIP3    H139937   1.330   2.027   8.705 -0.8769 -0.0579  0.2427
 6126TIP3    H239938   1.445   2.111   8.654 -0.1859 -1.3747 -0.4223
 6127TIP3   OH239939   3.222   3.757   8.592  0.1876  0.5064 -0.4636
 6127TIP3    H139940   3.291   3.821   8.577  0.4378  0.2360 -0.4756
 6127TIP3    H239941   3.264   3.688   8.644 -0.5660  1.2658  1.2193
 6128TIP3   OH239942   4.485   1.814   7.232  0.5722  0.2797 -0.2967
 6128TIP3    H139943   4.513   1.802   7.141  0.1284  0.0199 -0.4048
 6128TIP3    H239944   4.541   1.883   7.266 -1.1497  2.5023 -1.6525
 6129TIP3   OH239945   1.415   3.244   1.653  0.3490  0.4110  0.5465
 6129TIP3    H139946   1.493   3.239   1.708  1.2938  0.0965 -0.7939
 6129TIP3    H239947   1.424   3.327   1.605  0.3440 -0.0640 -0.2970
 6130TIP3   OH239948   1.071   6.119   0.592 -0.3534  0.1471  0.4536
 6130TIP3    H139949   1.025   6.190   0.637 -1.0354  0.8736 -1.2928
 6130TIP3    H239950   1.109   6.160   0.515 -0.3732 -1.3050 -0.3697
 6131TIP3   OH239951   6.619   1.539   6.883 -0.0656 -0.4660 -0.7595
 6131TIP3    H139952   6.536   1.585   6.896  0.2304 -0.2888  0.7178
 6131TIP3    H239953   6.626   1.481   6.959  0.0953 -2.1731 -2.0140
 6132TIP3   OH239954   4.161   6.561   8.587  0.2881  0.1534  0.4015
 6132TIP3    H139955   4.255   6.549   8.571  0.0766 -0.0547 -0.7550
 6132TIP3    H239956   4.124   6.474   8.574  0.1412 -0.1773  2.6471
 6133TIP3   OH239957   3.131   4.995   1.382  0.4297  0.4961  0.1283
 6133TIP3    H139958   3.053   5.024   1.336  0.1587 -2.4170 -1.5143
 6133TIP3    H239959   3.178   4.941   1.318  1.6649 -1.1751  2.3064
 6134TIP3   OH239960   5.657   1.997   0.682  0.1152  0.2562 -0.8382
 6134TIP3    H139961   5.645   1.913   0.726 -0.5497  0.8207  0.0787
 6134TIP3    H239962   5.572   2.040   0.686  0.7227  1.4812 -0.2171
 6135TIP3   OH239963   6.674   1.129   7.873  0.0374 -0.3255  0.2193
 6135TIP3    H139964   6.752   1.113   7.820  0.5640 -2.1532  1.4434
 6135TIP3    H239965   6.708   1.140   7.962 -0.8438  2.4758  0.3087
 6136TIP3   OH239966   0.845   4.021   7.274  0.0716 -0.1343 -0.7281
 6136TIP3    H139967   0.907   4.076   7.225 -0.2982  0.0535 -0.9872
 6136TIP3    H239968   0.836   3.942   7.222  1.5159 -0.9731  0.2271
 6137TIP3   OH239969   5.836   6.714   1.686 -0.0756  0.1396  0.4733
 6137TIP3    H139970   5.847   6.627   1.723 -2.1348 -1.4218 -2.2591
 6137TIP3    H239971   5.762   6.752   1.733  0.8969  0.5332  1.7433
 6138TIP3   OH239972   1.419   6.133   8.856  0.0453  0.0802  0.4212
 6138TIP3    H139973   1.480   6.062   8.877 -0.7643  0.1558  3.5833
 6138TIP3    H239974   1.349   6.090   8.807 -0.5924 -1.5152  2.5347
 6139TIP3   OH239975   3.241   3.876   8.855 -0.0512  0.4760 -0.1677
 6139TIP3    H139976   3.232   3.785   8.827  2.4961 -0.5435  1.8497
 6139TIP3    H239977   3.202   3.879   8.942  1.6518  0.7201  0.6350
 6140TIP3   OH239978   1.453   3.896   1.060  0.1192  0.2872  0.0871
 6140TIP3    H139979   1.478   3.843   0.984 -0.7562  1.2924 -0.9571
 6140TIP3    H239980   1.420   3.833   1.124 -0.5982 -0.4730 -0.9859
 6141TIP3   OH239981   1.175   4.135   0.524 -0.5290 -0.2264  0.1753
 6141TIP3    H139982   1.255   4.175   0.560  0.0732 -1.7599  0.6390
 6141TIP3    H239983   1.106   4.199   0.541  0.5096  0.9066  0.2362
 6142TIP3   OH239984   4.565   1.625   0.281  0.0826  0.0952 -0.2574
 6142TIP3    H139985   4.529   1.603   0.367 -0.0392  0.5174 -0.1974
 6142TIP3    H239986   4.505   1.691   0.246 -0.7515 -1.1587 -1.3151
 6143TIP3   OH239987   6.269   1.237   1.576  0.0984  0.2341  0.0780
 6143TIP3    H139988   6.338   1.170   1.572 -0.9319 -0.9819  1.5773
 6143TIP3    H239989   6.195   1.197   1.531 -0.5536  0.3106  1.0541
 6144TIP3   OH239990   2.521   3.731   7.468 -0.4863  0.0093 -0.1391
 6144TIP3    H139991   2.435   3.726   7.427 -0.4789  2.0741 -0.4793
 6144TIP3    H239992   2.507   3.785   7.546  0.3052 -0.5834  0.4400
 6145TIP3   OH239993   3.612   4.066   0.251  0.3097  0.1301  0.4664
 6145TIP3    H139994   3.609   4.140   0.312  2.1141  0.9985 -0.4074
 6145TIP3    H239995   3.653   4.102   0.172 -1.0053 -1.2245 -0.8915
 6146TIP3   OH239996   3.966   2.355   7.477 -0.2804 -0.0003  0.7115
 6146TIP3    H139997   3.984   2.308   7.558  0.3151 -0.5865  0.2522
 6146TIP3    H239998   3.963   2.287   7.409 -3.0615  0.1738  0.5285
 6147TIP3   OH239999   4.086   5.500   0.432 -0.1543  0.0437 -0.4537
 6147TIP3    H140000   4.139   5.424   0.458  0.5309  0.7616  0.2980
 6147TIP3    H240001   4.067   5.485   0.340 -0.3537 -1.2356 -0.2340
 6148TIP3   OH240002   4.970   6.017   1.708  0.1707 -0.1172 -0.3160
 6148TIP3    H140003   5.063   5.996   1.716  0.1191  0.0710  1.2735
 6148TIP3    H240004   4.929   5.971   1.782 -0.9299  0.1888 -0.7073
 6149TIP3   OH240005   2.293   4.063   0.028 -0.0528  0.7765  0.6865
 6149TIP3    H140006   2.377   4.041   0.068  0.6159  3.1034  0.7038
 6149TIP3    H240007   2.243   3.982   0.031  1.9032 -0.4654  1.3896
 6150TIP3   OH240008   2.502   2.103   1.535 -0.0081 -0.3746 -0.0317
 6150TIP3    H140009   2.417   2.135   1.565  0.9677  0.9545  1.4580
 6150TIP3    H240010   2.484   2.068   1.448 -2.0227  0.1290  0.1149
 6151TIP3   OH240011   6.257   5.770   7.270  0.2912  0.8602  0.6123
 6151TIP3    H140012   6.199   5.843   7.248 -1.9040 -0.2860  2.1646
 6151TIP3    H240013   6.336   5.786   7.219 -1.9250  1.7176 -2.9338
 6152TIP3   OH240014   6.181   3.973   0.335  0.1907  0.3785 -0.0645
 6152TIP3    H140015   6.229   3.892   0.350  1.1512  0.9554  0.1099
 6152TIP3    H240016   6.162   3.974   0.242 -2.1405 -1.2645  0.3110
 6153TIP3   OH240017   2.669   6.045   0.157  0.2703 -0.7137  0.0469
 6153TIP3    H140018   2.705   6.065   0.071 -0.7960 -0.5201 -0.3679
 6153TIP3    H240019   2.724   6.094   0.218 -0.5565  1.3032 -0.7287
 6154TIP3   OH240020   5.864   1.826   8.090 -0.1470 -0.0243  0.3610
 6154TIP3    H140021   5.887   1.863   8.005  0.2570  0.4262  0.6680
 6154TIP3    H240022   5.774   1.854   8.104 -0.7644 -1.3714 -0.6094
 6155TIP3   OH240023   6.120   1.097   8.591 -0.3204 -0.6972 -0.6448
 6155TIP3    H140024   6.168   1.157   8.535  0.4374 -1.3456 -0.7035
 6155TIP3    H240025   6.051   1.151   8.630 -0.0433  0.0572 -1.1784
 6156TIP3   OH240026   0.558   5.532   8.862  0.1576 -0.5567 -0.3765
 6156TIP3    H140027   0.547   5.490   8.947  0.3643  2.3438  1.2240
 6156TIP3    H240028   0.636   5.587   8.872 -0.1600  0.3185 -2.2421
 6157TIP3   OH240029   4.399   2.622   7.253  0.1105 -0.1811 -0.6344
 6157TIP3    H140030   4.457   2.643   7.327 -1.2830  1.3353  0.0841
 6157TIP3    H240031   4.383   2.528   7.262  0.4234 -0.1384  0.6720
 6158TIP3   OH240032   5.732   1.970   1.670 -0.1326 -0.6976  0.0486
 6158TIP3    H140033   5.651   1.926   1.641 -0.1407 -0.9140  0.3932
 6158TIP3    H240034   5.764   2.013   1.591 -1.7967  1.3278  0.3954
 6159TIP3   OH240035   5.469   5.554   0.950 -0.2593 -0.4291 -0.1812
 6159TIP3    H140036   5.422   5.624   0.905  1.1293  0.8699  0.3199
 6159TIP3    H240037   5.468   5.481   0.888 -0.3413  0.5663 -1.3920
 6160TIP3   OH240038   2.526   2.979   8.401  0.2915  0.4637 -0.1756
 6160TIP3    H140039   2.605   3.006   8.446  0.0585  0.9512 -0.0483
 6160TIP3    H240040   2.488   3.061   8.368  0.5959  0.1134 -1.4925
 6161TIP3   OH240041   0.804   4.349   8.296 -0.0969  0.0941  0.1314
 6161TIP3    H140042   0.806   4.420   8.232 -1.4157 -0.1563 -0.2243
 6161TIP3    H240043   0.766   4.275   8.248  1.4944 -0.9567  0.4067
 6162TIP3   OH240044   0.290   4.490   1.965 -0.7933 -0.1028  0.4675
 6162TIP3    H140045   0.323   4.416   1.914  2.0308  1.9545 -0.9261
 6162TIP3    H240046   0.336   4.485   2.048  1.7277  1.5516 -0.6905
 6163TIP3   OH240047   1.434   3.051   7.158 -0.2605 -0.0234  0.4562
 6163TIP3    H140048   1.409   3.121   7.219 -1.2865 -0.0100  0.0403
 6163TIP3    H240049   1.457   3.097   7.077  1.4585 -0.0149  0.9196
 6164TIP3   OH240050   2.179   0.329   0.813  0.0158 -0.8287  0.1286
 6164TIP3    H140051   2.093   0.289   0.802 -0.4288  0.4721 -1.5755
 6164TIP3    H240052   2.235   0.285   0.749 -0.2045  0.4336 -0.9805
 6165TIP3   OH240053   0.250   4.740   7.169  0.2398 -0.5358  0.2375
 6165TIP3    H140054   0.305   4.779   7.101  1.6330 -1.7488  0.6281
 6165TIP3    H240055   0.267   4.793   7.247  0.3469 -0.5124  0.1983
 6166TIP3   OH240056   1.654   1.083   0.070 -0.1839  0.7017 -0.6388
 6166TIP3    H140057   1.595   1.044   0.135 -0.0124  0.2874 -0.7284
 6166TIP3    H240058   1.741   1.076   0.111  0.3098 -1.8730 -1.9243
 6167TIP3   OH240059   3.893   4.195   8.359  0.8487  0.0167 -0.6992
 6167TIP3    H140060   3.916   4.111   8.399  0.1870 -0.9467 -2.2848
 6167TIP3    H240061   3.820   4.175   8.300  1.1296  1.5856 -1.6255
 6168TIP3   OH240062   3.507   0.205   1.937 -0.2914  0.1786 -0.2704
 6168TIP3    H140063   3.468   0.213   1.850 -0.4178 -0.8962 -0.3238
 6168TIP3    H240064   3.600   0.222   1.923 -0.4705  1.0301 -0.4361
 6169TIP3   OH240065   2.066   3.120   1.787  0.2475  0.5852  0.0706
 6169TIP3    H140066   2.117   3.158   1.858  1.3485  0.2677 -0.5340
 6169TIP3    H240067   2.072   3.184   1.716 -0.9263  0.9466  0.2744
 6170TIP3   OH240068   0.534   4.669   1.377  0.1904 -0.0325  0.1832
 6170TIP3    H140069   0.574   4.750   1.409  1.6156 -1.4617  2.3223
 6170TIP3    H240070   0.566   4.659   1.288  4.8452 -1.0339  1.6877
 6171TIP3   OH240071   1.557   5.938   7.311 -0.0191 -0.0746 -0.3769
 6171TIP3    H140072   1.502   5.937   7.389  0.4458  2.7516  0.0709
 6171TIP3    H240073   1.515   5.875   7.252 -2.2659  0.1208  0.9055
 6172TIP3   OH240074   2.377   2.048   8.162 -0.1267  0.0644  0.2470
 6172TIP3    H140075   2.456   1.995   8.163  0.4054  0.8048 -0.9558
 6172TIP3    H240076   2.406   2.135   8.134 -1.3600  0.3330 -0.2894
 6173TIP3   OH240077   2.877   3.444   7.562 -0.1845  0.0716  0.4092
 6173TIP3    H140078   2.904   3.392   7.637  0.7741  0.4493  0.3426
 6173TIP3    H240079   2.805   3.498   7.594 -1.7150 -1.8063  0.2783
 6174TIP3   OH240080   4.514   6.517   6.238  0.0749 -0.4570  0.0441
 6174TIP3    H140081   4.520   6.573   6.160  0.2791 -0.7722 -0.1683
 6174TIP3    H240082   4.432   6.469   6.225  0.1268 -0.5354  0.0059
 6175TIP3   OH240083   6.033   3.899   8.428 -0.1359 -0.9352  0.0938
 6175TIP3    H140084   5.977   3.936   8.359 -0.9962  1.4076  1.9004
 6175TIP3    H240085   6.114   3.949   8.422 -0.1664 -0.8111  0.6543
 6176TIP3   OH240086   1.189   6.258   7.489 -0.2248  0.2434  0.5510
 6176TIP3    H140087   1.148   6.180   7.525 -0.4334  0.0498 -0.0775
 6176TIP3    H240088   1.155   6.262   7.399  1.8226 -0.4329 -0.2974
 6177TIP3   OH240089   1.359   5.143   8.372  0.2684  0.5045  0.1149
 6177TIP3    H140090   1.357   5.171   8.463  0.2723 -2.6012  1.2067
 6177TIP3    H240091   1.389   5.051   8.376 -0.5519 -0.0032 -2.9275
 6178TIP3   OH240092   6.516   4.427   0.627  0.5432  0.5508  0.0911
 6178TIP3    H140093   6.611   4.433   0.614  0.9380 -0.0633  2.3596
 6178TIP3    H240094   6.503   4.447   0.719 -1.4600 -0.2619  0.0303
 6179TIP3   OH240095   3.272   3.841   6.996 -0.1073 -0.2167 -0.6933
 6179TIP3    H140096   3.231   3.927   6.992  2.8999  1.4018  0.3266
 6179TIP3    H240097   3.339   3.843   6.928  0.1375 -1.6654 -0.5199
 6180TIP3   OH240098   0.021   2.938   6.198  0.0638 -0.5708  0.4377
 6180TIP3    H140099  -0.023   2.970   6.119  1.7463  1.0555  0.1005
 6180TIP3    H240100   0.007   2.843   6.195  0.5190 -0.6374 -2.1270
 6181TIP3   OH240101   0.857   5.322   7.889  0.0404 -0.3444 -0.0779
 6181TIP3    H140102   0.829   5.328   7.798 -2.1699  0.8052  0.6069
 6181TIP3    H240103   0.779   5.292   7.937  0.9721 -0.3552  1.5270
 6182TIP3   OH240104   2.114   5.066   1.293 -0.1661 -0.3178  0.0128
 6182TIP3    H140105   2.142   5.109   1.212 -0.6637 -0.4484 -0.2370
 6182TIP3    H240106   2.077   5.137   1.346 -1.4909 -0.4929 -0.6248
 6183TIP3   OH240107   2.499   1.030   7.766 -0.9483  0.0017  0.0086
 6183TIP3    H140108   2.462   1.095   7.825  1.7870  1.3290  0.3951
 6183TIP3    H240109   2.540   0.965   7.823 -0.0116  0.2316 -0.3806
 6184TIP3   OH240110   3.263   5.376   6.177 -0.1948  0.1018  0.5359
 6184TIP3    H140111   3.193   5.330   6.131 -0.2119 -2.3115  2.7702
 6184TIP3    H240112   3.343   5.345   6.135 -0.3252  0.9472 -0.3773
 6185TIP3   OH240113   2.924   4.965   7.227  0.4618  0.4280  0.2726
 6185TIP3    H140114   2.933   4.971   7.322 -0.9524  1.5379  0.3823
 6185TIP3    H240115   2.963   5.046   7.194  1.3097 -0.1382 -0.1353
 6186TIP3   OH240116   0.896   4.834   6.009  0.4462  0.1230  0.0768
 6186TIP3    H140117   0.813   4.789   6.025  0.6818 -0.3283  0.0453
 6186TIP3    H240118   0.893   4.910   6.067  0.0972 -0.0020  0.2248
 6187TIP3   OH240119   0.496   5.963   6.616  0.0803  0.4394 -0.0218
 6187TIP3    H140120   0.544   5.902   6.561 -0.6939  1.0429 -1.4308
 6187TIP3    H240121   0.448   5.908   6.678 -0.8504 -0.4399 -1.4625
 6188TIP3   OH240122   6.766   0.008   0.700 -0.2804 -0.2261  0.3057
 6188TIP3    H140123   6.823   0.059   0.643  0.0997  0.9963  1.7125
 6188TIP3    H240124   6.690  -0.012   0.646  0.5032 -0.0031 -0.9276
 6189TIP3   OH240125   3.622   3.126   8.262 -0.5951  0.6882  0.0425
 6189TIP3    H140126   3.554   3.173   8.311  0.4273  0.1234  2.0995
 6189TIP3    H240127   3.670   3.076   8.329  0.3582 -0.7791 -1.6597
 6190TIP3   OH240128   0.656   0.202   1.688  0.4464 -0.0452  0.0612
 6190TIP3    H140129   0.717   0.187   1.761 -1.6400 -2.4743  1.4725
 6190TIP3    H240130   0.602   0.275   1.717  0.0877 -0.5397  0.6726
 6191TIP3   OH240131   2.677   0.314   0.816 -0.1250  0.0726  0.5092
 6191TIP3    H140132   2.600   0.270   0.851  0.3867 -0.2447  1.2539
 6191TIP3    H240133   2.712   0.364   0.890  2.0539 -2.0667  1.0642
 6192TIP3   OH240134   6.097   1.030   1.440  0.6447 -0.1796  0.0930
 6192TIP3    H140135   6.155   0.959   1.412  0.4909 -0.4733  0.5057
 6192TIP3    H240136   6.047   1.053   1.362  1.8542  0.6074 -0.4716
 6193TIP3   OH240137   2.052   1.167   1.939  0.0276  0.5079  0.1609
 6193TIP3    H140138   2.053   1.136   2.030 -1.8172  1.3380  0.5124
 6193TIP3    H240139   2.004   1.250   1.943 -2.7507 -0.8321 -1.9521
 6194TIP3   OH240140   6.613   2.238   1.663  0.2952 -0.0596  0.4885
 6194TIP3    H140141   6.653   2.323   1.649  1.5918 -0.8667 -0.9325
 6194TIP3    H240142   6.641   2.213   1.752 -0.2356  1.0344  0.9801
 6195TIP3   OH240143   5.102   5.584   2.176  0.1711 -0.7404 -0.0136
 6195TIP3    H140144   5.130   5.643   2.107 -1.9072  3.7943  2.5773
 6195TIP3    H240145   5.181   5.566   2.227  0.5232  2.4470  0.7781
 6196TIP3   OH240146   3.470   6.739   1.266  0.0934 -0.2411 -0.4919
 6196TIP3    H140147   3.528   6.688   1.322 -0.7277 -0.1286  0.4922
 6196TIP3    H240148   3.384   6.697   1.276 -0.3501  0.6262 -0.5784
 6197TIP3   OH240149   0.584   6.156   7.877  0.2060 -0.3456  0.4818
 6197TIP3    H140150   0.578   6.248   7.851 -0.9986 -0.6157 -0.2766
 6197TIP3    H240151   0.610   6.158   7.969 -0.0610  0.7636  0.5398
 6198TIP3   OH240152   5.754   0.195   7.622  0.7022 -0.3334  0.0486
 6198TIP3    H140153   5.832   0.248   7.606 -0.6971  1.8140 -0.0936
 6198TIP3    H240154   5.697   0.212   7.547 -0.7891 -0.0661  1.1849
 6199TIP3   OH240155   6.456   2.499   7.097 -0.2331  0.5441  0.4783
 6199TIP3    H140156   6.520   2.569   7.083 -1.3085  2.1497  2.7809
 6199TIP3    H240157   6.470   2.473   7.188 -2.0382  0.1245  0.6658
 6200TIP3   OH240158   1.727   2.349   0.923  0.2888  0.6584 -0.4459
 6200TIP3    H140159   1.819   2.326   0.909  0.1011 -1.6248  1.4243
 6200TIP3    H240160   1.729   2.406   1.000  0.1232  0.1703 -0.0736
 6201TIP3   OH240161   3.776   5.087   6.930  0.2167 -0.1453  0.9190
 6201TIP3    H140162   3.769   5.030   6.853  4.2710  0.9630 -0.5181
 6201TIP3    H240163   3.685   5.114   6.948 -0.9707  0.1317 -3.9682
 6202TIP3   OH240164   1.838   1.900   7.139 -0.2941  0.3174  0.1375
 6202TIP3    H140165   1.880   1.885   7.224 -1.2525  0.8937  0.7278
 6202TIP3    H240166   1.867   1.826   7.085  2.3859  1.2372  0.1385
 6203TIP3   OH240167   3.298   6.334   8.569  0.1939 -0.2922  0.2398
 6203TIP3    H140168   3.246   6.359   8.646 -0.3175  1.3396 -0.5904
 6203TIP3    H240169   3.248   6.262   8.531 -1.3158  0.9797 -0.3133
 6204TIP3   OH240170   3.418   4.909   0.795  0.0453  0.3505 -0.2748
 6204TIP3    H140171   3.340   4.854   0.785 -0.6127  0.7270  2.0941
 6204TIP3    H240172   3.421   4.961   0.716 -0.4142 -1.6965 -1.7298
 6205TIP3   OH240173   2.969   2.861   7.290 -0.1727  0.3993 -0.1032
 6205TIP3    H140174   2.887   2.817   7.270  0.7884 -1.1002 -0.8791
 6205TIP3    H240175   2.961   2.885   7.383 -1.4115  0.1405 -0.1249
 6206TIP3   OH240176   2.203   3.104   0.622 -0.0393 -0.0778  0.4807
 6206TIP3    H140177   2.128   3.046   0.634 -0.1247  0.1067  0.8271
 6206TIP3    H240178   2.271   3.067   0.679 -0.0577  0.0990  0.6160
 6207TIP3   OH240179   1.439   2.747   7.207 -0.1307  0.2394  0.9619
 6207TIP3    H140180   1.527   2.713   7.217 -0.7312 -1.3712  1.0401
 6207TIP3    H240181   1.451   2.840   7.185  1.5226  0.3789  2.3098
 6208TIP3   OH240182   5.926   4.882   6.706  0.2975  0.2462  0.1509
 6208TIP3    H140183   6.006   4.830   6.697 -0.5683 -1.6995  2.4692
 6208TIP3    H240184   5.863   4.840   6.647  0.0931 -0.2792  0.7328
 6209TIP3   OH240185   6.167   3.204   8.854  0.6754  0.2366 -1.2152
 6209TIP3    H140186   6.177   3.178   8.762  0.9884 -3.0734 -0.3582
 6209TIP3    H240187   6.231   3.151   8.901  0.9788  2.3218  0.9054
 6210TIP3   OH240188   5.636   3.928   1.365 -0.1651  0.2652  0.3525
 6210TIP3    H140189   5.661   3.851   1.314  1.5323  2.2724 -2.1499
 6210TIP3    H240190   5.712   3.945   1.420 -0.2250  0.5506  0.3464
 6211TIP3   OH240191   5.416   4.134   1.688  0.5455  0.5145 -0.0948
 6211TIP3    H140192   5.421   4.052   1.638 -1.4374  0.3793 -0.1651
 6211TIP3    H240193   5.489   4.130   1.749  0.4705 -1.3524 -0.0716
 6212TIP3   OH240194   2.731   4.456   0.723  0.2430 -0.2927  0.4876
 6212TIP3    H140195   2.795   4.389   0.697 -0.5241 -1.0190  0.4128
 6212TIP3    H240196   2.694   4.424   0.805 -1.1391 -0.7072 -0.2479
 6213TIP3   OH240197   0.453   4.450   1.637 -0.5974  0.3059 -0.0730
 6213TIP3    H140198   0.451   4.361   1.672  1.8781 -0.3645 -1.3622
 6213TIP3    H240199   0.540   4.483   1.660 -0.7790  1.6801 -1.2117
 6214TIP3   OH240200   6.288   2.366   7.642 -0.0212 -0.4753 -0.4803
 6214TIP3    H140201   6.359   2.427   7.620 -0.6780  0.3941 -0.2705
 6214TIP3    H240202   6.244   2.349   7.558 -0.7238  0.5165 -0.3396
 6215TIP3   OH240203   4.656   2.689   2.346  0.2276  0.3618 -0.3303
 6215TIP3    H140204   4.622   2.759   2.402  0.2790  0.7596 -0.7913
 6215TIP3    H240205   4.702   2.735   2.276  1.3910 -0.1580  0.0716
 6216TIP3   OH240206   5.566   2.554   0.154  0.1975  0.2543  0.0463
 6216TIP3    H140207   5.579   2.642   0.118  0.9711  0.0507 -0.2072
 6216TIP3    H240208   5.655   2.522   0.171  0.0130 -1.0297 -1.2205
 6217TIP3   OH240209   5.012   1.261   0.051  0.2257  0.1199 -0.1863
 6217TIP3    H140210   4.996   1.184   0.106 -2.2490 -0.9005 -2.1189
 6217TIP3    H240211   5.090   1.239   0.001 -0.0483 -0.8263 -0.2079
 6218TIP3   OH240212   6.140   3.877   0.051  0.9077  0.0606  0.7305
 6218TIP3    H140213   6.068   3.880  -0.011  1.1648  0.3925  0.4423
 6218TIP3    H240214   6.191   3.800   0.026  1.0420  0.2259  0.4938
 6219TIP3   OH240215   4.021   5.409   1.722 -0.3598  0.4484 -0.2421
 6219TIP3    H140216   3.930   5.409   1.753 -0.3144  0.2524 -0.1074
 6219TIP3    H240217   4.019   5.462   1.643 -0.9585 -1.0571 -1.3011
 6220TIP3   OH240218   2.864   0.887   7.770  0.3150  0.1775  0.2870
 6220TIP3    H140219   2.859   0.792   7.780 -0.8057  0.1279 -0.6523
 6220TIP3    H240220   2.824   0.905   7.685 -1.0247  1.6296  1.1764
 6221TIP3   OH240221   6.474   0.269   2.173  0.0011 -0.2055  0.0343
 6221TIP3    H140222   6.504   0.205   2.238  0.8144  0.2548  0.1181
 6221TIP3    H240223   6.437   0.216   2.102  0.0745 -0.7417  0.3908
 6222TIP3   OH240224   1.409   6.477   1.470 -0.0844 -0.1453 -0.1074
 6222TIP3    H140225   1.405   6.570   1.449 -0.2099 -0.4335 -1.4119
 6222TIP3    H240226   1.482   6.469   1.532 -1.6773  1.1713  2.0574
 6223TIP3   OH240227   6.230   2.574   1.101 -0.4672 -0.4835  0.3052
 6223TIP3    H140228   6.190   2.515   1.037  1.3247 -2.3853  0.8391
 6223TIP3    H240229   6.203   2.540   1.186  2.1385 -1.8398  0.6828
 6224TIP3   OH240230   3.584   6.539   7.380 -0.0229  0.4919  0.5460
 6224TIP3    H140231   3.557   6.593   7.454 -2.6144  0.2034 -0.0884
 6224TIP3    H240232   3.551   6.586   7.303 -2.2033 -1.7881 -0.0413
 6225TIP3   OH240233   0.817   6.471   6.214 -0.1231  0.0821  0.5909
 6225TIP3    H140234   0.912   6.478   6.223 -0.0759 -0.8068  0.8920
 6225TIP3    H240235   0.802   6.459   6.121 -0.1127  2.3652  0.2416
 6226TIP3   OH240236   3.484   6.683   2.593  0.1910  0.4189 -0.3780
 6226TIP3    H140237   3.565   6.641   2.620  1.5955  2.9123 -0.4768
 6226TIP3    H240238   3.511   6.750   2.531 -1.9311  1.4948 -0.2304
 6227TIP3   OH240239   3.665   0.023   7.330 -0.1942  0.3175 -0.0359
 6227TIP3    H140240   3.736  -0.031   7.365  0.1544  0.5540 -0.3743
 6227TIP3    H240241   3.676   0.107   7.374 -0.6379  0.1718  0.3675
 6228TIP3   OH240242   1.331   2.224   0.166  0.3997 -0.6859 -0.0184
 6228TIP3    H140243   1.327   2.257   0.077 -2.7773  0.3221  0.3758
 6228TIP3    H240244   1.392   2.282   0.211  0.7316 -0.1542 -1.1338
 6229TIP3   OH240245   6.053   6.225   7.665 -0.0454 -0.8449 -0.1306
 6229TIP3    H140246   6.046   6.214   7.760  0.0938 -0.3828 -0.0587
 6229TIP3    H240247   6.108   6.152   7.636  1.2392 -0.1200  0.3738
 6230TIP3   OH240248   2.722   2.012   6.411  0.1976 -0.1874  0.0247
 6230TIP3    H140249   2.694   2.091   6.457 -2.4124 -2.1347  2.1124
 6230TIP3    H240250   2.698   2.028   6.319  0.1846  1.6085  0.3088
 6231TIP3   OH240251   1.198   6.512   2.298 -0.0616  0.0656  0.3327
 6231TIP3    H140252   1.266   6.554   2.246 -1.5826  3.3322  0.7042
 6231TIP3    H240253   1.142   6.469   2.233 -0.3947  1.7033 -0.5181
 6232TIP3   OH240254   2.050   4.419   7.416 -0.0626 -0.1670  0.0956
 6232TIP3    H140255   2.030   4.490   7.355  0.2279  1.1588  1.4683
 6232TIP3    H240256   2.071   4.344   7.361  0.5524  1.0754 -1.4220
 6233TIP3   OH240257   4.324   5.309   8.476  0.1591 -0.0210  0.1837
 6233TIP3    H140258   4.379   5.383   8.501  1.7473 -1.2238  0.4600
 6233TIP3    H240259   4.351   5.288   8.387 -1.3213  0.6130 -0.4411
 6234TIP3   OH240260   3.134   0.992   8.530 -0.2443  0.2788  0.4600
 6234TIP3    H140261   3.102   0.903   8.540 -0.3244  0.2224 -0.2147
 6234TIP3    H240262   3.086   1.043   8.595  1.4821 -0.5582  2.5035
 6235TIP3   OH240263   1.703   6.113   1.243  0.6818 -0.0608  0.1602
 6235TIP3    H140264   1.719   6.139   1.333  0.8113  0.7303 -0.0844
 6235TIP3    H240265   1.708   6.194   1.193 -0.8642 -0.2649 -0.3699
 6236TIP3   OH240266   0.747   1.948   0.369 -0.4032  0.1230  0.8946
 6236TIP3    H140267   0.658   1.976   0.391 -1.2123 -2.4800  1.2171
 6236TIP3    H240268   0.799   1.972   0.445 -1.0653  0.5628  1.2196
 6237TIP3   OH240269   5.779   0.263   0.627 -0.3245 -0.0640 -0.1476
 6237TIP3    H140270   5.755   0.171   0.626 -0.1919 -0.2785  3.8375
 6237TIP3    H240271   5.873   0.264   0.644  0.0752  0.8963 -2.0241
 6238TIP3   OH240272   2.866   4.438   7.237  0.1357  0.3092 -0.0731
 6238TIP3    H140273   2.948   4.399   7.269  0.5529 -0.4877 -1.9852
 6238TIP3    H240274   2.798   4.393   7.286  0.7888  1.5368  2.1394
 6239TIP3   OH240275   2.693   2.866   7.522  0.5037 -0.0040 -0.1639
 6239TIP3    H140276   2.676   2.832   7.434 -2.1653 -0.4832  0.4346
 6239TIP3    H240277   2.714   2.958   7.508 -0.8286  0.1717 -1.3079
 6240TIP3   OH240278   0.014   0.152   2.297  0.6420 -0.0703 -0.1731
 6240TIP3    H140279   0.056   0.066   2.301  1.7898  0.4764  0.1598
 6240TIP3    H240280  -0.073   0.139   2.334  0.8400 -1.0680 -0.0455
 6241TIP3   OH240281   2.688   5.766   8.130 -0.3482  0.5387 -0.1598
 6241TIP3    H140282   2.722   5.691   8.081 -1.3265  0.3062 -0.5146
 6241TIP3    H240283   2.712   5.749   8.221  0.7515  0.5568 -0.4371
 6242TIP3   OH240284   2.645   2.046   0.842  0.0032 -0.1684 -0.0685
 6242TIP3    H140285   2.552   2.058   0.857  0.0022 -0.5890  0.2868
 6242TIP3    H240286   2.650   1.979   0.773  0.0383  0.1051 -0.3322
 6243TIP3   OH240287   2.691   6.724   2.514  0.2179  0.0631 -0.1175
 6243TIP3    H140288   2.633   6.776   2.458  0.3053  0.1553 -0.1219
 6243TIP3    H240289   2.771   6.775   2.520 -0.0730  0.4294  0.7477
 6244TIP3   OH240290   5.191   0.298   0.937  0.1624  0.4441  0.2123
 6244TIP3    H140291   5.172   0.372   0.995  1.0205 -0.1335  1.2661
 6244TIP3    H240292   5.135   0.227   0.970  0.8838  0.0218  0.5562
 6245TIP3   OH240293   6.307   0.515   6.420 -0.2445  0.1747 -0.9699
 6245TIP3    H140294   6.393   0.516   6.377 -1.2780  0.2162 -3.1423
 6245TIP3    H240295   6.250   0.469   6.358 -1.7778  0.0344  0.4925
 6246TIP3   OH240296   6.260   5.202   8.153 -0.0060  0.0468  0.2814
 6246TIP3    H140297   6.193   5.255   8.109  0.5280 -0.4954 -1.2674
 6246TIP3    H240298   6.211   5.134   8.199 -0.5604 -0.0768 -0.4682
 6247TIP3   OH240299   0.849   0.508   6.946  0.2470  0.2371 -1.0340
 6247TIP3    H140300   0.876   0.417   6.931 -2.9054 -0.4502 -4.1778
 6247TIP3    H240301   0.798   0.505   7.027  1.0684 -0.5643 -0.5351
 6248TIP3   OH240302   2.090   1.854   0.488 -0.3206 -0.5483 -0.0423
 6248TIP3    H140303   2.107   1.855   0.394  0.8125 -2.9132  0.0635
 6248TIP3    H240304   2.044   1.937   0.505  0.9338  0.7198 -2.3570
 6249TIP3   OH240305   4.456   3.439   8.804  0.2681 -0.1208 -0.0859
 6249TIP3    H140306   4.537   3.483   8.831 -0.8765  0.4736  2.5958
 6249TIP3    H240307   4.483   3.348   8.790  1.4178  0.0805  0.6517
 6250TIP3   OH240308   1.293   4.109   0.912  0.2830  0.2550 -0.6353
 6250TIP3    H140309   1.339   4.034   0.948 -1.3631 -0.3634  0.2726
 6250TIP3    H240310   1.328   4.184   0.960  0.6576 -0.1467 -0.2748
 6251TIP3   OH240311   5.466   5.819   1.205 -0.0529  0.4721  0.0174
 6251TIP3    H140312   5.405   5.750   1.178  0.3754  1.0553 -2.7485
 6251TIP3    H240313   5.544   5.804   1.151  0.0056  3.1431 -0.7644
 6252TIP3   OH240314   0.022   5.666   6.403 -0.5143 -0.1108 -0.1069
 6252TIP3    H140315  -0.051   5.713   6.443 -0.8644  0.3216 -1.2080
 6252TIP3    H240316   0.009   5.575   6.428 -1.7831 -0.1303 -0.7837
 6253TIP3   OH240317   5.263   0.450   8.024 -0.2704  0.1551  0.5183
 6253TIP3    H140318   5.269   0.448   7.928 -0.8524  2.6876  0.3572
 6253TIP3    H240319   5.319   0.522   8.050  0.0400 -0.6337  2.1453
 6254TIP3   OH240320   3.235   1.440   0.373  0.2020  0.0092 -0.0674
 6254TIP3    H140321   3.183   1.475   0.445 -1.2472  0.0290 -1.0993
 6254TIP3    H240322   3.206   1.488   0.296  1.9575  0.2205 -0.6537
 6255TIP3   OH240323   5.130   5.132   8.723 -0.8998 -0.6450 -0.4446
 6255TIP3    H140324   5.056   5.159   8.669 -0.2543  0.1307 -0.9444
 6255TIP3    H240325   5.173   5.063   8.673  0.0363  0.4638 -1.2289
 6256TIP3   OH240326   5.807   0.560   7.572  0.4319 -0.0118  0.5836
 6256TIP3    H140327   5.754   0.639   7.584  1.7927  1.0580 -0.1919
 6256TIP3    H240328   5.858   0.553   7.653  0.3181 -0.0961  0.6482
 6257TIP3   OH240329   3.958   2.214   1.608  0.0026  0.3284  0.7010
 6257TIP3    H140330   4.017   2.157   1.659 -0.5929 -0.1062  0.9252
 6257TIP3    H240331   3.983   2.199   1.517  0.0588 -0.0655  0.7782
 6258TIP3   OH240332   2.037   2.287   0.833  0.1640 -0.0342  0.0239
 6258TIP3    H140333   2.079   2.348   0.772 -0.4193  0.7830  0.4152
 6258TIP3    H240334   2.101   2.276   0.903  0.3124  0.0542 -0.0952
 6259TIP3   OH240335   0.648   3.356   2.558  0.0731  0.1180 -0.0099
 6259TIP3    H140336   0.644   3.270   2.517 -0.3366 -0.8221  1.8665
 6259TIP3    H240337   0.701   3.342   2.637 -1.8136  1.0332  1.4982
 6260TIP3   OH240338   2.431   6.182   8.422  0.0669  0.1397 -0.0808
 6260TIP3    H140339   2.510   6.194   8.369 -1.9432  1.3232 -3.1227
 6260TIP3    H240340   2.392   6.270   8.427 -2.6108 -0.8382 -1.5388
 6261TIP3   OH240341   3.588   1.050   1.143 -0.5419 -0.3890  0.5559
 6261TIP3    H140342   3.548   1.136   1.151 -0.7982 -0.4828  0.2843
 6261TIP3    H240343   3.676   1.061   1.180 -0.7966 -0.1734  1.1108
 6262TIP3   OH240344   5.612   6.166   0.428  0.6282  0.0464 -0.3475
 6262TIP3    H140345   5.628   6.258   0.407  0.0444  0.0852 -0.6352
 6262TIP3    H240346   5.594   6.125   0.344  1.2501 -0.4092 -0.2605
 6263TIP3   OH240347   4.698   1.032   0.563 -0.0944  0.5240 -0.1090
 6263TIP3    H140348   4.701   0.988   0.478 -3.0336  2.5056 -1.4072
 6263TIP3    H240349   4.618   1.000   0.605  0.2362  1.0921  0.9984
 6264TIP3   OH240350   6.277   3.499   2.449 -0.1550  0.6114 -0.4380
 6264TIP3    H140351   6.205   3.441   2.424  0.2915 -0.3934  0.5020
 6264TIP3    H240352   6.251   3.585   2.418 -2.7187  0.6914  1.6028
 6265TIP3   OH240353   1.408   2.670   1.912  0.2196  0.1031 -0.4248
 6265TIP3    H140354   1.346   2.602   1.888 -0.4646  0.1568  1.1421
 6265TIP3    H240355   1.378   2.748   1.865  1.7688 -0.8812 -3.3119
 6266TIP3   OH240356   2.135   5.810   0.476  0.4044 -1.4525  0.1714
 6266TIP3    H140357   2.052   5.802   0.522  0.5253 -0.1511  0.6630
 6266TIP3    H240358   2.178   5.725   0.488 -0.3461 -1.7411  0.8992
 6267TIP3   OH240359   1.305   3.161   2.530  0.0128 -0.6336  0.1496
 6267TIP3    H140360   1.294   3.252   2.505 -1.5017 -0.8363 -0.0525
 6267TIP3    H240361   1.319   3.115   2.447  0.4449 -0.6239  0.2177
 6268TIP3   OH240362   4.772   6.674   0.493  0.1255 -0.0956  0.7377
 6268TIP3    H140363   4.749   6.736   0.563  0.2091  0.0096  0.6729
 6268TIP3    H240364   4.862   6.699   0.468  0.2357 -0.3784  0.8554
 6269TIP3   OH240365   2.958   3.249   8.232 -0.2419  0.0295  0.5594
 6269TIP3    H140366   2.956   3.272   8.325 -1.3426  1.2798  0.2583
 6269TIP3    H240367   2.949   3.332   8.186 -0.6550 -0.6482 -0.6570
 6270TIP3   OH240368   1.677   2.091   1.017 -0.2128 -0.1224  0.0067
 6270TIP3    H140369   1.627   2.143   1.079  0.9897 -0.8345  1.6558
 6270TIP3    H240370   1.688   2.147   0.940 -1.6329  0.8262  0.4665
 6271TIP3   OH240371   2.660   5.065   7.225  0.0438 -0.2922 -1.1958
 6271TIP3    H140372   2.729   5.000   7.217  0.6243  0.4118 -2.2264
 6271TIP3    H240373   2.699   5.134   7.279 -0.6123 -0.8268  0.0010
 6272TIP3   OH240374   3.956   3.320   7.227 -0.3178  0.1467  0.0991
 6272TIP3    H140375   3.906   3.350   7.151  0.0560 -0.1401 -0.2658
 6272TIP3    H240376   4.033   3.376   7.229 -1.0798  1.2114  1.2129
 6273TIP3   OH240377   0.159   0.481   8.196 -0.1959 -0.2764 -0.0494
 6273TIP3    H140378   0.179   0.388   8.208 -0.2253 -0.0977  1.6726
 6273TIP3    H240379   0.186   0.500   8.106  1.4984 -1.5354  0.1297
 6274TIP3   OH240380   2.270   4.435   7.654  0.2007  0.1413 -0.4154
 6274TIP3    H140381   2.196   4.446   7.714  0.0690  0.2007 -0.5881
 6274TIP3    H240382   2.230   4.420   7.568  0.3137 -2.7025 -0.0808
 6275TIP3   OH240383   0.863   6.396   8.521 -0.4499  0.8499 -0.1244
 6275TIP3    H140384   0.903   6.311   8.505  0.9911  1.9205 -2.9019
 6275TIP3    H240385   0.889   6.418   8.611  0.0990 -1.0985  0.2364
 6276TIP3   OH240386   3.849   1.681   7.266  0.0538 -0.0087 -0.5385
 6276TIP3    H140387   3.844   1.602   7.212  3.0896 -0.3951 -0.4669
 6276TIP3    H240388   3.801   1.659   7.346  0.5282 -1.6832 -0.6818
 6277TIP3   OH240389   3.818   2.127   0.242 -0.2721 -0.4476  0.0334
 6277TIP3    H140390   3.813   2.218   0.270  0.3209 -0.9626  1.9496
 6277TIP3    H240391   3.819   2.132   0.147  0.5909  1.5973  0.0864
 6278TIP3   OH240392   4.223   0.039   0.450 -0.0802 -0.2472  0.1849
 6278TIP3    H140393   4.302  -0.003   0.485 -0.5206 -0.1470  1.3344
 6278TIP3    H240394   4.208   0.114   0.507 -0.6918  0.0707 -0.3736
 6279TIP3   OH240395   4.161   1.013   0.313 -0.4587  0.1647 -0.5970
 6279TIP3    H140396   4.137   0.979   0.226  0.4038  0.3909 -0.9262
 6279TIP3    H240397   4.254   0.992   0.322 -0.7355 -0.6121  0.6371
 6280TIP3   OH240398   0.020   1.890   2.081  0.5972  0.3889 -0.1139
 6280TIP3    H140399  -0.060   1.937   2.059  0.9771  1.0572 -0.0844
 6280TIP3    H240400  -0.006   1.798   2.082 -0.1748  0.6020 -0.0704
 6281TIP3   OH240401   0.259   1.116   7.957  0.4805  0.0269  0.0826
 6281TIP3    H140402   0.347   1.145   7.983  0.9796 -1.3083 -0.0395
 6281TIP3    H240403   0.224   1.189   7.906  2.1191  0.0135 -1.1541
 6282TIP3   OH240404   1.490   5.972   8.424  0.3005  0.4683  0.3232
 6282TIP3    H140405   1.551   5.927   8.483  1.1134 -0.3158 -1.0612
 6282TIP3    H240406   1.539   5.981   8.342 -1.1806  0.5082 -0.5903
 6283TIP3   OH240407   3.693   0.735   0.032 -0.0472  0.1612 -0.1760
 6283TIP3    H140408   3.737   0.805  -0.018  0.6979 -0.4533 -0.4076
 6283TIP3    H240409   3.695   0.766   0.122 -0.0835  0.6182 -0.3251
 6284TIP3   OH240410   4.814   3.682   1.584  0.0346 -0.1074 -0.0623
 6284TIP3    H140411   4.798   3.702   1.676  0.9780 -1.9353  0.5423
 6284TIP3    H240412   4.871   3.752   1.553  0.0346  0.3028  0.8583
 6285TIP3   OH240413   1.021   6.335   0.783 -0.9512  0.0963 -0.1550
 6285TIP3    H140414   1.027   6.380   0.867  0.0384 -0.8752  0.3109
 6285TIP3    H240415   0.934   6.294   0.784 -1.1149  0.4449  0.1940
 6286TIP3   OH240416   1.642   0.378   1.934 -0.1536 -0.0879 -0.2291
 6286TIP3    H140417   1.565   0.328   1.961 -0.0971 -0.5062 -0.8303
 6286TIP3    H240418   1.711   0.350   1.994 -1.1082  2.3934  2.2444
 6287TIP3   OH240419   5.541   0.045   8.323 -0.5543  0.1745 -0.0361
 6287TIP3    H140420   5.529  -0.011   8.247 -2.6144 -0.3303  0.5845
 6287TIP3    H240421   5.515   0.132   8.293 -1.8047 -0.1060  0.1476
 6288TIP3   OH240422   1.390   5.102   0.544  0.1870  0.4344 -0.5618
 6288TIP3    H140423   1.370   5.013   0.514 -0.7354 -0.1005  1.4398
 6288TIP3    H240424   1.418   5.090   0.635 -4.5132  2.4343  1.5164
 6289TIP3   OH240425   0.522   2.813   6.971 -0.3956  0.1927  0.3186
 6289TIP3    H140426   0.430   2.799   6.990 -0.6544 -0.2993 -1.1731
 6289TIP3    H240427   0.566   2.738   7.011 -0.6566  0.3313  0.8735
 6290TIP3   OH240428   5.621   5.059   7.115 -0.3036 -0.1524 -1.1011
 6290TIP3    H140429   5.650   5.150   7.105  2.2576 -1.0958 -3.6859
 6290TIP3    H240430   5.673   5.026   7.189 -0.5082  0.1957 -0.7969
 6291TIP3   OH240431   6.288   0.525   8.827 -0.7233  0.0851 -0.2379
 6291TIP3    H140432   6.237   0.597   8.864  0.9033  0.8196  0.6575
 6291TIP3    H240433   6.317   0.558   8.742 -0.9128  0.0435 -0.3201
 6292TIP3   OH240434   1.256   4.720   7.290 -0.3604 -0.0913  0.3075
 6292TIP3    H140435   1.302   4.797   7.323  0.1742 -0.6250  0.8384
 6292TIP3    H240436   1.200   4.693   7.363  0.7988 -1.2590  0.8107
 6293TIP3   OH240437   2.067   6.707   0.771  0.1778  0.3272 -0.1699
 6293TIP3    H140438   2.156   6.736   0.753 -0.1466  1.4630 -0.0143
 6293TIP3    H240439   2.078   6.631   0.828  1.0732 -0.4038 -1.2831
 6294TIP3   OH240440   2.339   3.115   0.085 -0.4594 -0.1471  0.0575
 6294TIP3    H140441   2.418   3.065   0.102 -1.1182 -1.2425 -0.0261
 6294TIP3    H240442   2.323   3.163   0.166 -0.2518 -0.6768  0.4197
 6295TIP3   OH240443   2.622   3.163   8.042 -0.0898  0.5022  0.4729
 6295TIP3    H140444   2.606   3.194   8.131  0.6862  1.4317  0.3114
 6295TIP3    H240445   2.535   3.144   8.007 -0.4381  0.6027  1.2633
 6296TIP3   OH240446   0.434   3.104   8.239 -0.4988 -0.1974  0.1160
 6296TIP3    H140447   0.349   3.145   8.252 -0.8649 -0.6604 -0.7219
 6296TIP3    H240448   0.497   3.168   8.272 -1.1175  0.5945 -0.2166
 6297TIP3   OH240449   6.581   5.218   7.534 -0.3895  0.9767 -0.2465
 6297TIP3    H140450   6.635   5.252   7.605 -0.0400 -0.1372  0.0345
 6297TIP3    H240451   6.641   5.212   7.459  0.4154 -1.8649  0.4971
 6298TIP3   OH240452   4.371   0.117   7.681  0.5349 -0.0902 -0.4777
 6298TIP3    H140453   4.412   0.124   7.766 -0.4648  2.1906 -0.1012
 6298TIP3    H240454   4.343   0.207   7.660 -1.3495 -0.9661 -2.1111
 6299TIP3   OH240455   3.501   6.753   1.696  0.4572 -0.1175  0.0300
 6299TIP3    H140456   3.446   6.691   1.744  0.9715 -0.9827 -0.4785
 6299TIP3    H240457   3.450   6.834   1.695  0.4312 -0.0668  2.0188
 6300TIP3   OH240458   3.040   2.983   6.236  0.3753 -0.1652 -0.7169
 6300TIP3    H140459   2.957   2.941   6.216  0.0716  0.3323 -0.5263
 6300TIP3    H240460   3.107   2.925   6.198 -0.1476  0.8026 -3.3137
 6301TIP3   OH240461   1.230   4.593   8.091 -0.4285 -0.4546 -0.5253
 6301TIP3    H140462   1.176   4.554   8.161 -0.1334 -0.0245 -0.0503
 6301TIP3    H240463   1.167   4.640   8.036 -0.6479 -0.6777 -0.4672
 6302TIP3   OH240464   4.287   6.258   7.613 -0.2721 -0.2913  0.2876
 6302TIP3    H140465   4.353   6.297   7.670  0.9711  0.9884 -1.8597
 6302TIP3    H240466   4.206   6.305   7.633  0.3157  0.6525  0.4903
 6303TIP3   OH240467   3.446   1.517   1.744  0.0051  0.5405 -0.0573
 6303TIP3    H140468   3.498   1.572   1.686 -1.0797  1.3566 -0.2927
 6303TIP3    H240469   3.404   1.453   1.686  0.8047 -0.1957  0.1465
 6304TIP3   OH240470   0.782   1.952   0.645 -0.4915 -0.1967 -0.7340
 6304TIP3    H140471   0.766   2.044   0.665 -0.9501 -0.1717 -1.2115
 6304TIP3    H240472   0.815   1.915   0.727 -0.6259  0.3167 -0.4473
 6305TIP3   OH240473   4.808   2.058   6.533  0.1317 -0.1128 -0.2147
 6305TIP3    H140474   4.762   2.141   6.529 -0.1232 -0.2696 -0.5956
 6305TIP3    H240475   4.846   2.047   6.446 -3.3300 -2.3493 -1.6431
 6306TIP3   OH240476   6.484   5.641   1.069  0.0798 -0.1581 -0.1789
 6306TIP3    H140477   6.477   5.551   1.037  0.1978 -0.4888  0.7055
 6306TIP3    H240478   6.577   5.653   1.087  0.2805  0.6001 -1.5526
 6307TIP3   OH240479   6.742   3.298   8.404 -0.1558  0.0446 -0.6819
 6307TIP3    H140480   6.743   3.239   8.479 -0.9660  0.5331 -0.2741
 6307TIP3    H240481   6.652   3.292   8.371 -0.4031  1.4616 -0.3006
 6308TIP3   OH240482   3.533   4.146   6.868 -0.2031 -0.2327 -0.5427
 6308TIP3    H140483   3.508   4.110   6.953 -1.2820  0.4898 -0.5286
 6308TIP3    H240484   3.592   4.218   6.888  0.0429 -0.4638 -0.4383
 6309TIP3   OH240485   5.272   5.117   7.084  0.4417 -0.2401 -0.0644
 6309TIP3    H140486   5.281   5.037   7.135 -0.0401 -0.5479 -0.4533
 6309TIP3    H240487   5.323   5.182   7.133 -0.2046 -0.4643  0.9459
 6310TIP3   OH240488   0.492   2.909   1.990 -0.6768  0.0235  0.2915
 6310TIP3    H140489   0.519   2.959   2.067 -3.6416 -0.6162  1.9254
 6310TIP3    H240490   0.510   2.818   2.013 -0.1460 -0.0772 -0.4712
 6311TIP3   OH240491   0.787   3.589   8.581  0.2499  0.1009  0.4456
 6311TIP3    H140492   0.781   3.512   8.524 -0.9833 -0.4564  1.3041
 6311TIP3    H240493   0.793   3.553   8.669  0.4185  0.9889  0.8038
 6312TIP3   OH240494   5.242   2.484   8.535  0.7229  0.3615 -0.4443
 6312TIP3    H140495   5.328   2.495   8.576  0.0461 -1.4543  1.7354
 6312TIP3    H240496   5.186   2.454   8.607 -0.9936 -1.4631 -2.4196
 6313TIP3   OH240497   5.491   3.723   7.948  0.2728 -0.6516 -0.9457
 6313TIP3    H140498   5.545   3.645   7.961 -0.6175 -1.6543 -2.9257
 6313TIP3    H240499   5.547   3.784   7.900  1.3174  0.4280  1.4646
 6314TIP3   OH240500   0.790   3.335   8.469 -0.1207  0.4982  0.0060
 6314TIP3    H140501   0.863   3.312   8.411 -0.1800 -2.1717  0.8671
 6314TIP3    H240502   0.827   3.329   8.557 -1.1486 -0.0314  0.4120
 6315TIP3   OH240503   0.677   6.641   0.341  0.4622  0.1667 -0.5652
 6315TIP3    H140504   0.652   6.674   0.254 -2.4977  2.1753  0.8915
 6315TIP3    H240505   0.717   6.716   0.385 -1.6555  0.4485  1.0533
 6316TIP3   OH240506   1.374   3.643   7.621  0.2413  0.1376 -0.1321
 6316TIP3    H140507   1.355   3.550   7.616  2.8233 -0.4168 -3.5568
 6316TIP3    H240508   1.344   3.678   7.537 -1.1122  2.5568  1.2562
 6317TIP3   OH240509   1.685   4.534   7.005 -0.6552  0.1764 -0.1929
 6317TIP3    H140510   1.614   4.510   7.065  0.3285 -0.6325  0.6695
 6317TIP3    H240511   1.724   4.612   7.044  0.8205 -1.0888  0.9835
 6318TIP3   OH240512   6.518   5.843   6.317 -0.3035 -0.3295  0.4080
 6318TIP3    H140513   6.531   5.787   6.394 -0.2662 -0.2256  0.4771
 6318TIP3    H240514   6.453   5.796   6.264 -0.4636 -0.3140  0.5887
 6319TIP3   OH240515   3.980   0.481   8.070 -0.2712 -0.2052 -0.1798
 6319TIP3    H140516   3.943   0.433   7.996  0.3949 -0.8894 -0.0743
 6319TIP3    H240517   3.903   0.508   8.121 -0.7991  1.0480 -1.5596
 6320TIP3   OH240518   4.085   1.631   2.080 -0.2566  0.3407 -0.2925
 6320TIP3    H140519   4.137   1.612   2.158 -0.9642 -0.3560  0.0287
 6320TIP3    H240520   4.024   1.699   2.108 -0.2690  0.3461 -0.3321
 6321TIP3   OH240521   4.632   4.392   1.939  0.1561  0.3423 -0.5119
 6321TIP3    H140522   4.594   4.426   2.020  0.0079 -0.2633 -0.3236
 6321TIP3    H240523   4.619   4.297   1.943  0.2910  0.2856 -1.1709
 6322TIP3   OH240524   3.915   2.418   8.084  0.4822 -0.7099 -0.2234
 6322TIP3    H140525   3.974   2.492   8.099  0.1934 -0.2624 -1.1790
 6322TIP3    H240526   3.935   2.356   8.155  1.1750 -0.0011  0.2195
 6323TIP3   OH240527   1.502   0.621   1.863 -0.4653  0.1511  0.2129
 6323TIP3    H140528   1.542   0.538   1.889 -0.2068 -0.2744 -1.4481
 6323TIP3    H240529   1.409   0.609   1.880 -0.4942 -0.6772 -0.4610
 6324TIP3   OH240530   6.500   6.262   7.457  0.1582  0.4839  0.0411
 6324TIP3    H140531   6.521   6.353   7.434  1.2250  0.1432 -0.4090
 6324TIP3    H240532   6.493   6.262   7.552 -2.4700  1.5482 -0.0679
 6325TIP3   OH240533   6.687   1.886   1.617  0.3208 -0.0082  0.5975
 6325TIP3    H140534   6.733   1.882   1.534  0.2860 -2.9019  0.6307
 6325TIP3    H240535   6.735   1.952   1.668  0.8759  1.1527 -1.3546
 6326TIP3   OH240536   4.933   6.249   8.419  0.0300 -0.2166 -0.1164
 6326TIP3    H140537   4.982   6.327   8.443  0.6956 -1.1279  1.6990
 6326TIP3    H240538   4.849   6.258   8.464 -0.4815  0.1375 -1.1236
 6327TIP3   OH240539   1.986   2.410   7.752  0.6869 -0.2177 -0.2524
 6327TIP3    H140540   1.906   2.459   7.770 -0.3819 -1.7035 -0.7303
 6327TIP3    H240541   2.045   2.473   7.711 -1.3706  0.2274 -2.7465
 6328TIP3   OH240542   2.535   4.747   0.254  0.1625  0.3727  0.2530
 6328TIP3    H140543   2.487   4.709   0.180  1.6549 -0.1536 -0.4853
 6328TIP3    H240544   2.618   4.700   0.256 -0.0547 -0.0378  2.6685
 6329TIP3   OH240545   1.654   6.083   0.153  0.0216  0.1621 -0.4714
 6329TIP3    H140546   1.669   6.169   0.191 -1.5696  0.2502  0.0273
 6329TIP3    H240547   1.706   6.083   0.072  2.0759  0.6060  0.7684
 6330TIP3   OH240548   6.309   1.770   0.192  0.1378  0.1133 -0.1049
 6330TIP3    H140549   6.340   1.777   0.102  0.5716  0.3069  0.0555
 6330TIP3    H240550   6.389   1.762   0.245 -0.0993  0.2130  0.2789
 6331TIP3   OH240551   3.711   0.024   2.146 -0.0688  0.0514 -0.0949
 6331TIP3    H140552   3.763  -0.056   2.143 -0.7778 -0.4502  0.6348
 6331TIP3    H240553   3.639   0.008   2.085  1.5863  1.4957 -2.6541
 6332TIP3   OH240554   3.386   3.789   7.261  0.0761  0.3276 -0.3616
 6332TIP3    H140555   3.346   3.854   7.204  1.0560  0.6553 -0.6805
 6332TIP3    H240556   3.410   3.838   7.340  3.7561  1.1832 -1.8077
 6333TIP3   OH240557   5.084   3.551   1.326  0.0351  0.2390 -0.3639
 6333TIP3    H140558   5.082   3.492   1.401  1.5770 -0.1763 -0.6346
 6333TIP3    H240559   4.992   3.572   1.310 -0.3854 -0.4534  1.0099
 6334TIP3   OH240560   0.320   1.178   6.915  0.0924  0.3935  0.2194
 6334TIP3    H140561   0.364   1.107   6.960  1.2820 -0.3142 -1.9173
 6334TIP3    H240562   0.226   1.160   6.927  0.3735 -0.5284  1.1697
 6335TIP3   OH240563   1.376   3.311   7.285  0.0462  0.0392  0.3477
 6335TIP3    H140564   1.294   3.315   7.335 -0.0083 -0.9724  0.3550
 6335TIP3    H240565   1.370   3.384   7.223 -0.0692  1.0603  1.5302
 6336TIP3   OH240566   3.331   4.283   0.076 -0.6704 -0.1288  0.0905
 6336TIP3    H140567   3.397   4.224   0.041 -1.5635 -0.9089 -0.3447
 6336TIP3    H240568   3.252   4.263   0.025 -1.0663  1.2601  0.1193
 6337TIP3   OH240569   1.698   6.795   0.835  0.0624  0.6759 -0.3553
 6337TIP3    H140570   1.697   6.801   0.931 -1.9934  1.2645 -0.3772
 6337TIP3    H240571   1.686   6.885   0.805 -1.7443  0.2241 -1.1152
 6338TIP3   OH240572   3.949   6.236   1.870  0.0717 -0.0098  0.0471
 6338TIP3    H140573   3.904   6.168   1.920  0.1376 -0.1014 -0.0187
 6338TIP3    H240574   3.977   6.300   1.936  0.3573 -0.2443  0.1509
 6339TIP3   OH240575   0.098   1.507   6.374  0.6160  0.0146  0.2606
 6339TIP3    H140576   0.152   1.555   6.437 -0.1257  0.5590  0.5021
 6339TIP3    H240577   0.042   1.574   6.335  0.9641 -0.3381 -0.8911
 6340TIP3   OH240578   3.701   3.920   7.624  0.0893 -0.4115  0.3203
 6340TIP3    H140579   3.760   3.980   7.671 -0.8006 -0.7980  2.0387
 6340TIP3    H240580   3.741   3.834   7.634 -0.4845 -0.6040  1.0728
 6341TIP3   OH240581   0.608   5.506   0.674  0.3821 -0.8142  0.2281
 6341TIP3    H140582   0.561   5.535   0.752  2.1927 -1.5724  1.6612
 6341TIP3    H240583   0.542   5.510   0.604 -1.4543 -0.6573  1.8711
 6342TIP3   OH240584   2.869   5.190   1.837 -0.2101 -0.1796  0.6229
 6342TIP3    H140585   2.818   5.214   1.915 -0.5089 -0.3789  0.4884
 6342TIP3    H240586   2.815   5.219   1.763 -1.0334 -2.1051  0.4191
 6343TIP3   OH240587   0.794   5.110   2.001  0.1233  0.0728 -0.1324
 6343TIP3    H140588   0.815   5.053   1.927  0.7761 -1.0982  0.9051
 6343TIP3    H240589   0.871   5.167   2.009  0.9576 -1.1074  0.7947
 6344TIP3   OH240590   5.336   2.692   1.843 -0.3739  0.5638 -0.1533
 6344TIP3    H140591   5.330   2.784   1.816 -1.9315  0.2800 -0.8928
 6344TIP3    H240592   5.353   2.644   1.762  0.1155  0.1693  0.1803
 6345TIP3   OH240593   4.205   3.149   8.117  0.2477 -0.1490  0.2994
 6345TIP3    H140594   4.151   3.158   8.038  1.5071  1.2982 -0.4516
 6345TIP3    H240595   4.144   3.120   8.185 -1.0976 -0.2929 -0.9298
 6346TIP3   OH240596   6.478   1.675   7.984  0.3375  0.0174  0.3916
 6346TIP3    H140597   6.480   1.668   8.080 -0.7788  0.7387  0.4883
 6346TIP3    H240598   6.467   1.585   7.954 -0.5245 -0.0983  1.0051
 6347TIP3   OH240599   6.781   6.586   7.167 -0.6099 -0.8623 -0.0917
 6347TIP3    H140600   6.755   6.618   7.253  1.9059 -0.8362  0.7384
 6347TIP3    H240601   6.766   6.491   7.171  1.7041 -1.2370  1.3236
 6348TIP3   OH240602   2.388   0.773   0.375 -0.1651  0.8293  0.6001
 6348TIP3    H140603   2.365   0.832   0.447 -2.1794  0.7088  0.0946
 6348TIP3    H240604   2.424   0.831   0.308 -0.8945  1.3294  0.6270
 6349TIP3   OH240605   5.677   5.422   6.513  0.4402 -0.1714  0.1138
 6349TIP3    H140606   5.714   5.471   6.586  1.6571 -0.5768 -0.2189
 6349TIP3    H240607   5.598   5.472   6.489  0.8301  0.7829  0.7395
 6350TIP3   OH240608   4.981   1.314   1.472  0.5268  0.1268 -0.8377
 6350TIP3    H140609   5.048   1.328   1.406  1.5457  1.0936  0.3309
 6350TIP3    H240610   5.026   1.332   1.555 -0.6471 -1.2385  0.1314
 6351TIP3   OH240611   3.410   0.378   8.240  0.4799  0.3034 -0.3075
 6351TIP3    H140612   3.432   0.294   8.281 -0.0457 -0.6574 -1.9166
 6351TIP3    H240613   3.492   0.407   8.199  0.3868  0.0177 -0.6964
 6352TIP3   OH240614   6.364   0.420   0.731  0.8225 -0.1391  0.5114
 6352TIP3    H140615   6.425   0.479   0.687  1.6538 -1.7746 -0.6320
 6352TIP3    H240616   6.297   0.400   0.666 -0.1685  0.5180  1.2993
 6353TIP3   OH240617   3.839   4.907   8.451  0.1703 -0.4602 -0.0504
 6353TIP3    H140618   3.754   4.870   8.478 -0.4252  0.6203 -0.3910
 6353TIP3    H240619   3.899   4.883   8.521 -0.1798 -2.0540 -0.2439
 6354TIP3   OH240620   0.796   5.381   0.492 -0.4338 -0.6911 -0.0675
 6354TIP3    H140621   0.753   5.299   0.471  0.8912 -1.4173 -0.0760
 6354TIP3    H240622   0.740   5.422   0.557 -1.9024 -0.8639 -1.1563
 6355TIP3   OH240623   0.630   3.704   8.174  0.3329 -0.3136 -1.2217
 6355TIP3    H140624   0.556   3.744   8.127 -0.5310 -1.8461 -1.2253
 6355TIP3    H240625   0.672   3.778   8.218 -3.5192  0.2964  2.0772
 6356TIP3   OH240626   2.567   5.895   6.728  0.2532  0.0986 -0.2799
 6356TIP3    H140627   2.640   5.870   6.784  1.5756 -2.7411 -2.9774
 6356TIP3    H240628   2.606   5.950   6.660 -1.1461  2.6631  0.8163
 6357TIP3   OH240629   0.491   5.017   1.863 -0.5572 -0.1496  0.5649
 6357TIP3    H140630   0.412   5.070   1.849  1.1260  2.3882 -0.1782
 6357TIP3    H240631   0.509   5.025   1.956 -1.1154 -0.6963  0.7282
 6358TIP3   OH240632   3.266   4.225   0.992  0.2708  0.7148  0.0505
 6358TIP3    H140633   3.266   4.144   1.044 -3.0312  0.3110 -0.3553
 6358TIP3    H240634   3.243   4.294   1.055  1.9459  1.2033  0.1699
 6359TIP3   OH240635   2.416   0.365   0.312  0.4315 -0.1054 -0.1779
 6359TIP3    H140636   2.335   0.415   0.321  1.2933  1.0343  1.9201
 6359TIP3    H240637   2.388   0.280   0.278 -1.7587 -0.0185  1.2234
 6360TIP3   OH240638   1.651   2.749   7.931 -0.4481 -0.0684 -0.1165
 6360TIP3    H140639   1.634   2.778   8.021  0.0314 -1.6603  0.5116
 6360TIP3    H240640   1.613   2.818   7.877 -0.5688  1.0296  1.2964
 6361TIP3   OH240641   3.699   4.510   7.808  0.2109 -0.0815 -0.6402
 6361TIP3    H140642   3.705   4.602   7.832 -0.0961  0.2794 -1.8854
 6361TIP3    H240643   3.745   4.464   7.878 -0.5505  0.9118  0.5635
 6362TIP3   OH240644   1.296   1.728   0.489 -0.0281  0.1465  0.0600
 6362TIP3    H140645   1.390   1.715   0.477  0.3134  1.7636  0.8186
 6362TIP3    H240646   1.256   1.652   0.445  1.5571  0.1376 -1.4898
 6363TIP3   OH240647   3.315   5.746   0.520  0.1060 -0.0706  0.7497
 6363TIP3    H140648   3.369   5.805   0.467  0.8406 -1.0171  0.4151
 6363TIP3    H240649   3.378   5.703   0.579 -0.1314 -1.7452 -0.1483
 6364TIP3   OH240650   6.251   6.714   0.285 -0.6353 -0.0199  0.2307
 6364TIP3    H140651   6.199   6.643   0.247  1.0222 -0.4283 -1.4542
 6364TIP3    H240652   6.291   6.676   0.363 -0.9558 -0.4629  0.1823
 6365TIP3   OH240653   2.262   0.635   8.796 -0.0967  0.1181  0.3774
 6365TIP3    H140654   2.226   0.681   8.871 -0.3142  0.4537  0.0739
 6365TIP3    H240655   2.216   0.673   8.721 -0.7548 -1.0597  0.1628
 6366TIP3   OH240656   1.205   3.784   7.801  0.3235 -0.8167  0.1864
 6366TIP3    H140657   1.256   3.723   7.747 -0.6233 -0.4884 -1.0945
 6366TIP3    H240658   1.267   3.855   7.821  0.6458 -0.8698 -0.5805
 6367TIP3   OH240659   0.044   2.628   0.948  0.1369  0.1677  0.0505
 6367TIP3    H140660  -0.016   2.671   0.887  0.4526  0.4345 -0.0778
 6367TIP3    H240661   0.047   2.537   0.919 -0.6414  0.0279  0.4047
 6368TIP3   OH240662   3.103   3.613   6.568  0.5173 -0.6777  0.7553
 6368TIP3    H140663   3.047   3.575   6.636 -1.0753  0.1235 -0.0564
 6368TIP3    H240664   3.044   3.633   6.496  1.6421  1.2672  0.2907
 6369TIP3   OH240665   0.212   2.580   2.415  0.0184 -0.3386  0.3303
 6369TIP3    H140666   0.232   2.535   2.333 -2.4249  0.5726 -0.8659
 6369TIP3    H240667   0.267   2.658   2.414  1.0186 -1.0393  0.2504
 6370TIP3   OH240668   4.430   2.744   2.033  0.1173 -0.8214 -0.0495
 6370TIP3    H140669   4.377   2.667   2.054  0.7238 -1.1192  0.4199
 6370TIP3    H240670   4.519   2.711   2.023  0.2037 -0.3406 -0.9442
 6371TIP3   OH240671   6.347   1.479   7.719 -0.6550  0.4584 -0.0834
 6371TIP3    H140672   6.393   1.431   7.787 -0.9252  0.1630 -0.1078
 6371TIP3    H240673   6.256   1.482   7.748 -1.0470 -0.8688 -1.0704
 6372TIP3   OH240674   4.370   6.657   8.071  0.3966 -0.5819  0.2758
 6372TIP3    H140675   4.431   6.619   8.134  0.4456 -0.9587  0.0043
 6372TIP3    H240676   4.422   6.720   8.022  0.5424 -0.8340  0.1081
 6373TIP3   OH240677   6.590   4.513   7.857  0.1076 -0.1072  0.0894
 6373TIP3    H140678   6.585   4.529   7.952 -0.6647 -1.0812  0.2245
 6373TIP3    H240679   6.506   4.543   7.823  0.8456  1.3880 -0.4907
 6374TIP3   OH240680   3.996   6.570   6.909  0.1186 -0.2203  0.3532
 6374TIP3    H140681   3.983   6.487   6.954  0.2688  0.7190  2.2488
 6374TIP3    H240682   3.932   6.570   6.838  0.1022 -1.9177  0.3311
 6375TIP3   OH240683   3.861   6.008   7.213 -0.1729  0.2931 -0.3909
 6375TIP3    H140684   3.778   6.044   7.181 -1.4413 -1.5561  0.6185
 6375TIP3    H240685   3.836   5.954   7.287  1.7939 -1.3076 -0.8124
 6376TIP3   OH240686   5.427   1.313   8.431  0.3492 -0.4169  0.3192
 6376TIP3    H140687   5.508   1.337   8.385 -0.1841  1.0180  0.0795
 6376TIP3    H240688   5.401   1.230   8.390  2.0718 -1.2981  0.9186
 6377TIP3   OH240689   1.176   1.637   0.730 -0.1943 -0.1845  0.0582
 6377TIP3    H140690   1.193   1.544   0.714 -1.0674 -0.2458 -0.6155
 6377TIP3    H240691   1.234   1.682   0.668 -0.3686 -0.3096 -0.2017
 6378TIP3   OH240692   2.682   6.249   0.453  0.4833 -0.4067  0.4504
 6378TIP3    H140693   2.766   6.256   0.498  0.5395 -0.3756  0.3409
 6378TIP3    H240694   2.676   6.329   0.401  0.9952 -1.0200 -0.5769
 6379TIP3   OH240695   4.059   0.120   7.351 -0.2009 -0.3422 -0.2939
 6379TIP3    H140696   4.108   0.080   7.422  0.1280  1.2355  0.4105
 6379TIP3    H240697   3.967   0.110   7.375 -0.2599 -2.6273 -1.2459
 6380TIP3   OH240698   4.723   5.417   6.926  0.1481 -0.1287 -0.1350
 6380TIP3    H140699   4.632   5.446   6.925  0.4087  0.7670 -1.8087
 6380TIP3    H240700   4.738   5.382   6.838  1.6641  0.5726 -0.1943
 6381TIP3   OH240701   2.325   0.082   0.987  0.4968 -0.4410  0.1270
 6381TIP3    H140702   2.340   0.079   0.892 -2.8007  0.4896 -0.5387
 6381TIP3    H240703   2.384   0.150   1.018 -1.9771  3.1329 -2.2267
 6382TIP3   OH240704   0.025   0.538   8.513 -0.2436  0.8445  0.3877
 6382TIP3    H140705   0.062   0.462   8.468 -0.4874  0.4259  0.8741
 6382TIP3    H240706   0.063   0.614   8.469  0.8646  0.4333  0.6131
 6383TIP3   OH240707   0.157   6.741   2.255 -0.3425  0.0825 -0.4545
 6383TIP3    H140708   0.233   6.738   2.197 -0.1753  0.1018 -0.2383
 6383TIP3    H240709   0.182   6.687   2.330 -0.0609  1.0754  0.1848
 6384TIP3   OH240710   2.175   3.789   7.511 -0.4826 -0.2028  0.0967
 6384TIP3    H140711   2.228   3.821   7.585 -0.9040 -0.9725  0.7441
 6384TIP3    H240712   2.185   3.694   7.514  0.0212 -0.2040 -1.2585
 6385TIP3   OH240713   3.046   5.567   8.236  0.7192 -0.5191 -0.1699
 6385TIP3    H140714   3.099   5.510   8.292  0.4726  0.1780  0.7959
 6385TIP3    H240715   3.083   5.654   8.248  0.3801 -0.2930 -0.7543
 6386TIP3   OH240716   6.404   0.387   8.021 -0.2595 -0.0112  0.3295
 6386TIP3    H140717   6.404   0.393   8.117 -2.6451 -0.3006  0.3901
 6386TIP3    H240718   6.346   0.458   7.993  1.7936  1.2508 -1.0702
 6387TIP3   OH240719   4.729   0.912   0.314 -0.5906 -0.0927 -0.0831
 6387TIP3    H140720   4.814   0.945   0.285 -0.1787 -0.9606  0.1277
 6387TIP3    H240721   4.729   0.820   0.290 -1.4910 -0.0928 -0.1148
 6388TIP3   OH240722   1.389   0.573   0.708  0.2513 -0.0509 -0.3225
 6388TIP3    H140723   1.334   0.501   0.676  0.1788  0.1162 -0.5794
 6388TIP3    H240724   1.342   0.609   0.783  0.4790 -0.5228  0.0504
 6389TIP3   OH240725   0.771   3.863   0.501 -0.4001 -0.3508  0.5577
 6389TIP3    H140726   0.852   3.820   0.527 -0.7754 -1.8057 -0.4956
 6389TIP3    H240727   0.708   3.791   0.493 -1.5136  0.6221  0.3599
 6390TIP3   OH240728   0.834   5.965   6.765 -0.2388  0.4682  0.2601
 6390TIP3    H140729   0.749   6.009   6.766 -1.8477 -2.2618 -1.9306
 6390TIP3    H240730   0.825   5.898   6.697  2.6557 -1.9128  2.0018
 6391TIP3   OH240731   1.246   5.053   7.127 -0.4038 -0.3742 -0.0155
 6391TIP3    H140732   1.168   5.022   7.173  0.2899 -1.0762  0.7494
 6391TIP3    H240733   1.261   5.141   7.161 -0.6594 -0.3801  0.1108
 6392TIP3   OH240734   2.753   3.127   7.414  0.4161 -0.1288  0.0353
 6392TIP3    H140735   2.712   3.175   7.486 -2.1025 -0.5676 -1.0134
 6392TIP3    H240736   2.818   3.187   7.378 -0.8311  1.4827  0.3977
 6393TIP3   OH240737   1.815   2.919   0.895  0.3290  0.2850  0.2583
 6393TIP3    H140738   1.778   2.981   0.959 -0.0858  2.6610 -2.1080
 6393TIP3    H240739   1.751   2.918   0.824  1.5208 -1.0563 -0.8402
 6394TIP3   OH240740   5.274   1.546   7.719 -0.1057  0.3490  1.1603
 6394TIP3    H140741   5.225   1.565   7.799  0.0182  0.3674  1.2335
 6394TIP3    H240742   5.271   1.450   7.711 -0.1080  0.3464  1.1943
 6395TIP3   OH240743   3.945   5.580   8.207 -0.0996 -0.4237  0.1207
 6395TIP3    H140744   3.972   5.666   8.176  0.2472 -0.5263  0.1294
 6395TIP3    H240745   3.889   5.546   8.137  0.1588 -0.3897 -0.1059
 6396TIP3   OH240746   0.302   5.838   0.835  0.0244  0.2282  0.0934
 6396TIP3    H140747   0.312   5.923   0.877  1.1132 -0.0374  0.4128
 6396TIP3    H240748   0.321   5.854   0.743  0.8218  0.2316  0.2529
 6397TIP3   OH240749   2.480   0.807   1.307  0.0486 -0.5015 -0.2319
 6397TIP3    H140750   2.506   0.798   1.399 -0.6458  0.5997  0.0944
 6397TIP3    H240751   2.446   0.721   1.283  0.7359 -0.9499  0.3775
 6398TIP3   OH240752   1.657   2.761   1.832  0.4725  0.0718 -0.1916
 6398TIP3    H140753   1.578   2.731   1.876  0.7058 -0.0088  0.1792
 6398TIP3    H240754   1.729   2.731   1.888  0.6969  2.5625  0.9653
 6399TIP3   OH240755   4.787   2.834   1.239  0.0351 -0.2330 -0.1934
 6399TIP3    H140756   4.716   2.777   1.212  0.9854 -1.5958  0.0904
 6399TIP3    H240757   4.781   2.910   1.180 -3.2821  1.0457  1.5301
 6400TIP3   OH240758   0.387   0.815   0.253  0.1712  0.7113  0.7725
 6400TIP3    H140759   0.471   0.812   0.207 -0.5180 -1.3445 -0.5099
 6400TIP3    H240760   0.322   0.834   0.185 -0.5906  0.2482  1.3428
 6401TIP3   OH240761   0.667   6.221   8.146 -0.2332 -0.3845 -0.2325
 6401TIP3    H140762   0.628   6.281   8.210 -0.8960  0.6735 -1.5629
 6401TIP3    H240763   0.741   6.181   8.191 -0.3466  0.7480  0.9973
 6402TIP3   OH240764   3.634   1.182   1.665 -0.3055 -0.2211  0.2423
 6402TIP3    H140765   3.580   1.216   1.736 -0.7737 -0.5774  0.0614
 6402TIP3    H240766   3.580   1.114   1.625  0.2067 -0.4542 -0.0551
 6403TIP3   OH240767   5.630   4.996   8.667  0.1638 -0.3512 -0.5458
 6403TIP3    H140768   5.638   4.966   8.576  0.9625  0.2924 -0.7053
 6403TIP3    H240769   5.564   5.065   8.664 -0.1584 -0.6561 -0.5466
 6404TIP3   OH240770   4.097   2.618   1.181  0.4241 -0.3733 -0.3603
 6404TIP3    H140771   4.094   2.666   1.263  0.5159 -0.2387 -0.4345
 6404TIP3    H240772   4.090   2.526   1.206 -0.9833 -0.2748 -0.2916
 6405TIP3   OH240773   1.259   2.471   0.063 -0.5117 -0.3942 -0.9133
 6405TIP3    H140774   1.200   2.405   0.099  0.5967 -1.0551 -0.2779
 6405TIP3    H240775   1.223   2.490  -0.024 -1.7994 -0.5857 -0.4364
 6406TIP3   OH240776   2.534   5.373   1.827  0.6987  0.2643 -0.4724
 6406TIP3    H140777   2.580   5.378   1.911 -0.6070 -0.5377  0.3292
 6406TIP3    H240778   2.466   5.440   1.833  1.5147  1.2136 -1.5086
 6407TIP3   OH240779   2.685   3.187   0.678  0.0566  0.1260  0.2743
 6407TIP3    H140780   2.705   3.094   0.681 -1.9173 -0.3791 -0.3928
 6407TIP3    H240781   2.707   3.214   0.589 -0.3703  0.0251  0.1345
 6408TIP3   OH240782   3.305   5.959   0.938  0.8899 -0.1111 -0.3611
 6408TIP3    H140783   3.348   6.006   1.010  0.1573 -1.0182  0.7181
 6408TIP3    H240784   3.328   5.867   0.954  0.0082 -0.4099 -0.7905
 6409TIP3   OH240785   3.232   6.091   0.703  0.4007 -0.1879 -0.3996
 6409TIP3    H140786   3.228   6.016   0.762 -0.0683  0.4493  0.3939
 6409TIP3    H240787   3.316   6.134   0.724 -1.4403  2.3435  2.7629
 6410TIP3   OH240788   3.232   0.779   7.682 -0.5468 -0.2819  0.2329
 6410TIP3    H140789   3.221   0.688   7.653 -0.1096 -0.2404 -0.0764
 6410TIP3    H240790   3.172   0.788   7.756 -0.6473 -0.8028  0.2199
 6411TIP3   OH240791   3.621   4.767   7.817  0.0226 -0.0775 -0.3171
 6411TIP3    H140792   3.635   4.803   7.730 -2.6083 -0.5721 -1.0340
 6411TIP3    H240793   3.614   4.844   7.874  0.0101  0.3338 -0.8640
 6412TIP3   OH240794   2.083   0.101   7.270  0.4608  0.2618 -0.3716
 6412TIP3    H140795   1.999   0.131   7.304 -0.7524 -1.8668 -1.2487
 6412TIP3    H240796   2.090   0.143   7.184  0.5948  0.9231 -0.0388
 6413TIP3   OH240797   4.683   6.705   0.898  0.6970  0.2046 -0.0477
 6413TIP3    H140798   4.741   6.781   0.900 -0.5223  1.1660  1.2663
 6413TIP3    H240799   4.598   6.740   0.871 -0.4712 -0.1746  2.7239
 6414TIP3   OH240800   3.954   0.991   7.270  0.2420 -0.6608  0.1844
 6414TIP3    H140801   3.906   1.015   7.350  0.0361 -4.8296  1.5554
 6414TIP3    H240802   4.042   0.969   7.300  0.1886 -2.2202 -0.7065
 6415TIP3   OH240803   0.404   1.026   7.689  0.4113  0.2115 -0.1207
 6415TIP3    H140804   0.440   1.114   7.704  0.2256  0.2412  0.1558
 6415TIP3    H240805   0.478   0.967   7.702  0.3744  0.2744  0.4203
 6416TIP3   OH240806   2.171   6.403   8.839  0.4811  0.1578 -0.3056
 6416TIP3    H140807   2.116   6.360   8.774 -1.4760  2.7162 -0.4569
 6416TIP3    H240808   2.150   6.358   8.921 -1.1360  0.4386 -0.5391
 6417TIP3   OH240809   0.040   5.803   8.257  0.5317 -0.4078  0.1493
 6417TIP3    H140810   0.105   5.873   8.249  1.0058 -0.7621  0.8133
 6417TIP3    H240811  -0.009   5.806   8.175  0.6443  0.6027  0.1125
 6418TIP3   OH240812   3.360   5.157   0.128 -0.5069  0.3345  0.4809
 6418TIP3    H140813   3.374   5.132   0.037 -2.1911  0.1835  0.2296
 6418TIP3    H240814   3.346   5.252   0.125 -2.5810  0.0622  0.2711
 6419TIP3   OH240815   2.819   4.717   0.729 -0.2782  0.1718 -0.1060
 6419TIP3    H140816   2.754   4.778   0.763 -0.9340  0.3740 -1.6135
 6419TIP3    H240817   2.770   4.636   0.714 -0.2719  0.3972 -1.4730
 6420TIP3   OH240818   6.684   2.212   8.262 -0.3037  0.4954 -0.4530
 6420TIP3    H140819   6.664   2.144   8.326  0.0540  1.1132  0.3253
 6420TIP3    H240820   6.676   2.168   8.177  0.0564 -0.5537  0.0395
 6421TIP3   OH240821   1.825   1.363   1.899  0.0899  0.0608 -0.2920
 6421TIP3    H140822   1.790   1.343   1.813  1.4452 -1.5065 -0.5307
 6421TIP3    H240823   1.852   1.454   1.894 -2.4164  0.8620 -0.5737
 6422TIP3   OH240824   2.731   0.831   2.447  0.1991 -0.2052  0.6708
 6422TIP3    H140825   2.644   0.803   2.474 -0.1238  0.6818  0.5836
 6422TIP3    H240826   2.760   0.764   2.385 -1.8046  1.1179 -1.8889
 6423TIP3   OH240827   6.002   2.025   1.281 -0.1242 -0.3481 -0.4013
 6423TIP3    H140828   6.022   2.041   1.189  0.8454  3.0005  0.2273
 6423TIP3    H240829   6.087   2.027   1.324 -0.6695 -0.4304  0.7082
 6424TIP3   OH240830   2.969   4.798   8.010 -0.1395 -0.0952  0.1850
 6424TIP3    H140831   3.044   4.743   7.990  0.7388  1.3202 -0.5575
 6424TIP3    H240832   2.921   4.749   8.078  0.6087 -1.7169 -0.3967
 6425TIP3   OH240833   1.255   2.006   7.230 -0.2412  0.2383 -0.7478
 6425TIP3    H140834   1.167   2.000   7.192 -0.6440  1.8360 -0.1449
 6425TIP3    H240835   1.245   2.065   7.304  1.1042 -0.5779  0.1209
 6426TIP3   OH240836   5.877   4.831   7.591 -0.2780  0.7982  0.0467
 6426TIP3    H140837   5.802   4.789   7.549  0.1839 -0.1713  0.1794
 6426TIP3    H240838   5.942   4.840   7.522 -0.1465  0.7478  0.1642
 6427TIP3   OH240839   4.413   1.562   7.302  0.0612  0.0155  0.1487
 6427TIP3    H140840   4.430   1.656   7.290  0.3932  0.1715  1.6381
 6427TIP3    H240841   4.369   1.535   7.221  2.4160  0.8372 -1.4916
 6428TIP3   OH240842   5.243   1.820   1.138 -0.0498  0.4047  0.0091
 6428TIP3    H140843   5.189   1.898   1.152  1.1824  1.8586 -2.5818
 6428TIP3    H240844   5.195   1.768   1.074 -0.0842 -0.1930  0.5002
 6429TIP3   OH240845   3.695   2.030   1.585  0.2705 -0.3472  0.0062
 6429TIP3    H140846   3.649   2.110   1.557  1.3574  0.1525 -0.4158
 6429TIP3    H240847   3.757   2.061   1.651 -0.4302 -1.1156  1.0524
 6430TIP3   OH240848   5.968   3.398   0.622 -0.1399  0.0118 -0.2864
 6430TIP3    H140849   6.008   3.359   0.699 -1.6418  0.3082  0.6679
 6430TIP3    H240850   5.987   3.492   0.630 -2.9710  0.5485  1.4856
 6431TIP3   OH240851   5.345   2.975   1.782  0.6692 -0.1823 -0.1592
 6431TIP3    H140852   5.440   2.987   1.780  0.4671  2.2432  0.8061
 6431TIP3    H240853   5.310   3.056   1.746 -1.0702 -1.3738 -1.2916
 6432TIP3   OH240854   4.319   5.117   0.899  0.0411  0.2278 -0.2084
 6432TIP3    H140855   4.365   5.033   0.899  0.0041  0.1752 -1.8467
 6432TIP3    H240856   4.388   5.182   0.914  0.5890  0.0974 -1.9435
 6433TIP3   OH240857   2.730   2.171   2.213  0.0725 -0.0939 -0.3635
 6433TIP3    H140858   2.799   2.163   2.279  0.2457  2.4483 -0.1568
 6433TIP3    H240859   2.649   2.149   2.261  0.3922 -0.0175  0.2201
 6434TIP3   OH240860   6.459   1.022   0.983  0.5836 -0.1611 -0.1764
 6434TIP3    H140861   6.455   1.116   0.968  2.5510 -0.0039  0.1423
 6434TIP3    H240862   6.544   0.995   0.949 -0.0819 -1.9024 -0.5812
 6435TIP3   OH240863   4.697   4.287   1.636  0.6239 -0.0635 -0.5448
 6435TIP3    H140864   4.729   4.197   1.640 -1.6921 -0.9077  1.8364
 6435TIP3    H240865   4.677   4.309   1.727  0.3469  2.5987 -1.1673
 6436TIP3   OH240866   4.721   1.811   7.555 -0.4249 -0.1333  0.2732
 6436TIP3    H140867   4.732   1.865   7.477 -0.0296  0.7198  0.9079
 6436TIP3    H240868   4.793   1.835   7.612 -0.1862 -1.4085  0.5458
 6437TIP3   OH240869   4.628   6.348   8.271  0.6397  0.3908 -0.4739
 6437TIP3    H140870   4.672   6.274   8.231  0.9207  0.3663 -0.1270
 6437TIP3    H240871   4.639   6.420   8.209 -0.4474 -0.0858 -1.2530
 6438TIP3   OH240872   6.566   0.704   1.088  0.1541  0.2962 -0.2189
 6438TIP3    H140873   6.516   0.710   1.007 -0.2043  0.4653  0.0153
 6438TIP3    H240874   6.588   0.611   1.096  2.4746  0.6031 -1.8790
 6439TIP3   OH240875   2.322   3.356   0.373  0.4882  0.0819 -0.2915
 6439TIP3    H140876   2.262   3.301   0.323 -0.8699  0.2552  1.0770
 6439TIP3    H240877   2.382   3.294   0.415 -0.4745 -0.3135  0.5293
 6440TIP3   OH240878   3.772   1.690   8.265  0.0565 -0.1541 -0.1005
 6440TIP3    H140879   3.735   1.709   8.351  1.5906 -0.1432  0.5966
 6440TIP3    H240880   3.830   1.615   8.281  0.0152 -0.4321 -1.2207
 6441TIP3   OH240881   0.544   6.204   0.891  0.1326  0.6134 -0.0034
 6441TIP3    H140882   0.459   6.247   0.901  0.2326  0.8824 -0.2890
 6441TIP3    H240883   0.537   6.124   0.944  0.1198  1.2292  0.9511
 6442TIP3   OH240884   1.678   3.508   1.204 -1.1472 -0.5960 -1.1840
 6442TIP3    H140885   1.741   3.489   1.274 -0.0293  0.5637 -1.8380
 6442TIP3    H240886   1.717   3.468   1.126 -0.9636  0.5124 -1.6806
 6443TIP3   OH240887   2.477   5.747   1.381  0.2072  0.7829 -0.5523
 6443TIP3    H140888   2.548   5.719   1.439 -0.1513  0.1943 -0.3897
 6443TIP3    H240889   2.417   5.795   1.438 -0.8091 -0.9084 -0.1185
 6444TIP3   OH240890   3.219   1.885   7.703 -0.1935 -0.0773 -0.3930
 6444TIP3    H140891   3.128   1.897   7.731 -0.3107 -0.9443 -0.3639
 6444TIP3    H240892   3.235   1.957   7.642 -0.6552  0.5236  0.1877
 6445TIP3   OH240893   6.385   1.004   0.651 -0.2316  0.5300  0.1284
 6445TIP3    H140894   6.343   0.985   0.735  1.5691 -1.8772  0.5919
 6445TIP3    H240895   6.462   1.055   0.674  0.5129 -0.5167  0.0547
 6446TIP3   OH240896   0.717   1.396   7.868  0.3040 -0.0089  0.0854
 6446TIP3    H140897   0.732   1.483   7.830  2.6238  0.3799  1.6045
 6446TIP3    H240898   0.729   1.410   7.962 -1.7464 -1.5495  0.6355
 6447TIP3   OH240899   5.792   3.110   6.728  0.1987 -0.5863 -0.3560
 6447TIP3    H140900   5.719   3.059   6.762  0.2157  0.1540  0.8597
 6447TIP3    H240901   5.752   3.184   6.683  0.1424  0.3406  1.1201
 6448TIP3   OH240902   5.536   6.064   7.099  0.0731  0.1276  0.1809
 6448TIP3    H140903   5.542   6.101   7.010 -0.7860  0.3022  0.1944
 6448TIP3    H240904   5.488   6.130   7.149 -0.5564 -0.5370  0.4636
 6449TIP3   OH240905   4.551   2.943   7.634  1.0336 -0.0661 -0.3772
 6449TIP3    H140906   4.519   2.860   7.599  2.7903 -0.9223 -0.0823
 6449TIP3    H240907   4.591   2.987   7.559 -0.7870  1.0236 -0.7598
 6450TIP3   OH240908   2.615   0.937   7.252 -0.4083 -0.6381 -0.5910
 6450TIP3    H140909   2.654   0.876   7.314 -0.7343 -1.3070 -1.0298
 6450TIP3    H240910   2.520   0.928   7.267 -0.4708 -0.4906 -0.9023
 6451TIP3   OH240911   5.744   4.606   1.395 -0.1980  0.2057 -0.7182
 6451TIP3    H140912   5.655   4.599   1.362 -0.8659  1.9684  0.5942
 6451TIP3    H240913   5.741   4.678   1.458  1.7010 -0.9846  0.8399
 6452TIP3   OH240914   3.187   5.071   2.134  0.2383  0.2035 -0.0906
 6452TIP3    H140915   3.123   5.133   2.171  0.2604  0.9520 -1.2435
 6452TIP3    H240916   3.251   5.127   2.090  0.1343 -0.6303 -1.3662
 6453TIP3   OH240917   6.059   0.290   1.266  0.3613  0.4956  0.7327
 6453TIP3    H140918   6.051   0.273   1.360  1.5502 -0.4431  0.6871
 6453TIP3    H240919   6.153   0.301   1.251  0.4732 -1.6200 -0.6827
 6454TIP3   OH240920   3.963   3.138   8.315  0.3392  0.2234  0.2868
 6454TIP3    H140921   3.899   3.123   8.385  0.3828  0.3722  0.3594
 6454TIP3    H240922   3.970   3.054   8.271  0.1857  0.1729  0.3575
 6455TIP3   OH240923   4.117   1.599   8.084 -0.2774 -0.5377 -0.3440
 6455TIP3    H140924   4.190   1.539   8.096 -0.3052 -0.9457 -1.9429
 6455TIP3    H240925   4.084   1.579   7.996 -1.0667  0.9828 -0.4331
 6456TIP3   OH240926   4.861   4.634   7.167  0.2410 -0.1849 -0.0294
 6456TIP3    H140927   4.824   4.622   7.080 -0.2747 -0.5723  0.2397
 6456TIP3    H240928   4.786   4.651   7.224  0.3290 -1.9764  0.6981
 6457TIP3   OH240929   0.077   1.023   8.151  0.2785 -0.4670  0.1238
 6457TIP3    H140930   0.151   0.993   8.205  1.7426  2.6568  0.1286
 6457TIP3    H240931   0.117   1.047   8.067 -0.6204  1.5715  0.2214
 6458TIP3   OH240932   6.067   6.244   6.733 -0.8992  0.4088  0.8098
 6458TIP3    H140933   6.022   6.230   6.816 -1.2094  1.2546  0.7941
 6458TIP3    H240934   6.006   6.210   6.667  0.5076 -2.9356  1.0328
 6459TIP3   OH240935   0.188   4.971   8.805  0.0143 -0.3813 -0.5431
 6459TIP3    H140936   0.259   5.034   8.818 -0.1944 -0.1385 -0.5969
 6459TIP3    H240937   0.108   5.021   8.818 -0.1408 -1.0641  1.4287
 6460TIP3   OH240938   2.449   1.206   1.472  0.0422  0.2778  0.1822
 6460TIP3    H140939   2.389   1.244   1.407 -0.0410  0.4640  0.3668
 6460TIP3    H240940   2.413   1.120   1.490  0.1661  0.1536 -0.1520
 6461TIP3   OH240941   2.924   6.439   8.755  0.3236 -1.0406  0.2949
 6461TIP3    H140942   2.938   6.483   8.671 -1.9320 -3.7913 -1.7120
 6461TIP3    H240943   2.879   6.505   8.809 -2.1957 -0.4590 -2.2734
 6462TIP3   OH240944   1.803   2.298   6.704  0.1993 -0.3208 -0.1620
 6462TIP3    H140945   1.829   2.383   6.740  0.7227 -0.5572  0.0193
 6462TIP3    H240946   1.707   2.299   6.708  0.1214  0.9053 -1.6334
 6463TIP3   OH240947   0.215   1.445   1.973  0.2497 -0.0713 -0.1382
 6463TIP3    H140948   0.167   1.464   2.054 -0.9365  1.1807 -1.0908
 6463TIP3    H240949   0.217   1.349   1.969  0.4295 -0.1589  1.4216
 6464TIP3   OH240950   4.295   4.187   0.961 -0.2138  0.1910 -0.4774
 6464TIP3    H140951   4.217   4.240   0.946  0.2828  0.5198 -2.0496
 6464TIP3    H240952   4.368   4.243   0.937  0.4299 -0.6039 -0.4493
 6465TIP3   OH240953   2.736   0.893   1.175 -0.3828 -0.4683  0.7980
 6465TIP3    H140954   2.723   0.988   1.178 -0.1987 -0.4507  1.0692
 6465TIP3    H240955   2.652   0.857   1.205  0.0397 -0.3586  2.1735
 6466TIP3   OH240956   0.007   1.362   1.597 -0.3268  0.6367  0.5276
 6466TIP3    H140957   0.039   1.448   1.624  0.6517 -0.6708  4.0448
 6466TIP3    H240958  -0.089   1.371   1.601 -0.2500  1.2153  2.4470
 6467TIP3   OH240959   3.649   6.136   8.454 -0.5278  0.2910 -0.0839
 6467TIP3    H140960   3.686   6.220   8.428 -0.6320  0.0124 -1.2105
 6467TIP3    H240961   3.722   6.074   8.444 -0.5780  0.1750  0.2758
 6468TIP3   OH240962   1.532   0.406   8.451  0.1963 -0.3395 -0.0954
 6468TIP3    H140963   1.549   0.447   8.536 -0.0395  0.5303 -0.4642
 6468TIP3    H240964   1.542   0.312   8.468  1.1105 -0.1254  0.6769
 6469TIP3   OH240965   0.697   6.566   8.386  0.0369 -0.2286 -0.3685
 6469TIP3    H140966   0.762   6.509   8.426  2.3660  1.8689 -0.9107
 6469TIP3    H240967   0.715   6.653   8.423 -2.6731  0.4139 -0.3549
 6470TIP3   OH240968   0.860   1.239   7.655 -0.4589 -0.0509 -0.1109
 6470TIP3    H140969   0.862   1.265   7.747  1.3628  0.7825 -0.3360
 6470TIP3    H240970   0.771   1.208   7.640 -0.6548 -0.6669  2.0476
 6471TIP3   OH240971   6.014   3.375   7.566  0.9369 -0.5604 -0.2104
 6471TIP3    H140972   6.016   3.280   7.556 -0.1523 -0.6291  0.0974
 6471TIP3    H240973   6.052   3.390   7.652  1.7016 -0.6635 -0.5249
 6472TIP3   OH240974   5.575   0.486   0.231 -0.3632 -0.5114  0.4164
 6472TIP3    H140975   5.544   0.548   0.165 -1.7937  0.2143  1.7117
 6472TIP3    H240976   5.638   0.537   0.283 -1.8976  0.0936  1.7838
 6473TIP3   OH240977   4.798   5.529   0.728 -0.2093 -0.2883 -0.3646
 6473TIP3    H140978   4.886   5.496   0.744 -0.0728  0.5397  0.7376
 6473TIP3    H240979   4.801   5.620   0.758 -0.4982  0.8537 -3.4974
 6474TIP3   OH240980   0.924   2.159   8.336  0.4808  0.1711  0.1665
 6474TIP3    H140981   0.996   2.180   8.395  0.2860 -1.4465  1.0163
 6474TIP3    H240982   0.955   2.186   8.250  1.5836  0.6733  0.7006
 6475TIP3   OH240983   0.215   6.778   7.195  0.2412  0.0953  0.1669
 6475TIP3    H140984   0.176   6.760   7.109 -0.5153 -0.4805  0.6129
 6475TIP3    H240985   0.148   6.752   7.257  0.4675  1.2823  0.9316
 6476TIP3   OH240986   3.592   5.468   0.992  0.4292 -0.7726  0.4413
 6476TIP3    H140987   3.583   5.496   0.901 -1.1515  0.0135  0.8098
 6476TIP3    H240988   3.584   5.372   0.988  1.2536 -0.8315 -0.3173
 6477TIP3   OH240989   6.206   0.219   8.420 -0.4123 -0.2383  0.2428
 6477TIP3    H140990   6.245   0.137   8.389  1.9926  0.8083  0.3199
 6477TIP3    H240991   6.129   0.191   8.470 -1.9780 -2.2256 -2.8940
 6478TIP3   OH240992   4.665   0.874   1.635  0.4760  0.3713  0.3945
 6478TIP3    H140993   4.656   0.779   1.649  1.6958 -0.0157 -1.0761
 6478TIP3    H240994   4.575   0.905   1.628 -0.0566 -1.3665 -2.7422
 6479TIP3   OH240995   0.389   3.452   6.779  0.5966 -0.0450 -0.1495
 6479TIP3    H140996   0.304   3.443   6.822  0.9546 -0.9992  0.3815
 6479TIP3    H240997   0.416   3.542   6.797 -0.0904  0.1182  0.0730
 6480TIP3   OH240998   0.824   0.689   8.082  0.1803 -0.0668 -0.0157
 6480TIP3    H140999   0.792   0.622   8.142  1.1260 -0.0876  0.4812
 6480TIP3    H241000   0.840   0.642   8.000  0.6738 -0.4239  0.2800
 6481TIP3   OH241001   1.984   1.278   1.412 -0.7063  0.4131  0.0653
 6481TIP3    H141002   1.967   1.225   1.490 -1.1117  2.0118  1.1263
 6481TIP3    H241003   1.913   1.342   1.411  1.1006  2.5346  0.2986
 6482TIP3   OH241004   4.366   2.479   7.579  0.1229 -0.2272 -0.4652
 6482TIP3    H141005   4.291   2.539   7.583 -0.3856 -0.8747  0.1164
 6482TIP3    H241006   4.327   2.395   7.553  0.9270 -0.1601 -2.0021
 6483TIP3   OH241007   0.807   3.887   7.532 -0.2322 -0.0070 -0.2786
 6483TIP3    H141008   0.832   3.969   7.490  4.4138 -0.6303  0.7107
 6483TIP3    H241009   0.799   3.824   7.460  2.4804  0.0610 -0.7308
 6484TIP3   OH241010   3.697   5.791   1.800  0.3238 -0.7340 -0.5901
 6484TIP3    H141011   3.682   5.705   1.838  4.1959 -2.5584 -2.5323
 6484TIP3    H241012   3.624   5.803   1.739 -0.1778 -2.8096 -0.4901
 6485TIP3   OH241013   5.369   2.849   7.319 -0.4980 -0.1011  0.2424
 6485TIP3    H141014   5.375   2.792   7.395  1.0677  0.6574  0.7293
 6485TIP3    H241015   5.436   2.816   7.259  0.0173  0.8376  0.2805
 6486TIP3   OH241016   3.953   0.686   0.596  0.0431  0.0951 -0.3623
 6486TIP3    H141017   3.966   0.674   0.690 -0.7608  0.1491 -0.2352
 6486TIP3    H241018   3.896   0.763   0.590 -0.3483 -0.2296 -0.8669
 6487TIP3   OH241019   0.723   2.833   0.146  0.0668  0.2160  0.4777
 6487TIP3    H141020   0.766   2.804   0.065 -1.0555 -2.3484  0.6919
 6487TIP3    H241021   0.663   2.902   0.119  0.9337  0.5808 -0.5729
 6488TIP3   OH241022   5.334   6.421   1.469  0.0729  0.2319 -0.5989
 6488TIP3    H141023   5.308   6.367   1.545 -0.0868 -0.0045 -0.8177
 6488TIP3    H241024   5.390   6.489   1.506 -0.8177  0.7267 -0.1162
 6489TIP3   OH241025   6.658   4.830   0.487  0.5823 -0.4139  0.2931
 6489TIP3    H141026   6.737   4.818   0.434 -0.3113  2.3611 -1.9359
 6489TIP3    H241027   6.691   4.841   0.576  2.6125 -0.4577 -0.3843
 6490TIP3   OH241028   2.122   6.271   6.838 -0.1095 -0.0299 -0.4235
 6490TIP3    H141029   2.077   6.355   6.838 -0.7682 -0.3706 -0.8965
 6490TIP3    H241030   2.052   6.206   6.841  0.3987 -0.5610  0.2623
 6491TIP3   OH241031   5.356   2.982   0.761 -0.3820 -0.3903 -0.4711
 6491TIP3    H141032   5.325   2.910   0.816  1.3100  1.1274  2.7297
 6491TIP3    H241033   5.452   2.973   0.762 -0.1598  1.6103 -0.3745
 6492TIP3   OH241034   3.844   3.160   1.238  0.3020 -0.0871 -0.1885
 6492TIP3    H141035   3.851   3.254   1.224 -0.1357 -0.1529 -0.9119
 6492TIP3    H241036   3.914   3.139   1.299  0.9990  0.5620 -0.7534
 6493TIP3   OH241037   5.694   0.535   7.868  0.0718  0.2350 -0.0549
 6493TIP3    H141038   5.782   0.573   7.865  0.1887  0.0191  0.4282
 6493TIP3    H241039   5.701   0.465   7.932 -0.1023 -0.6862 -1.0085
 6494TIP3   OH241040   0.624   1.705   1.022 -0.0073 -0.5517  0.0056
 6494TIP3    H141041   0.607   1.788   1.065 -0.7621 -0.9649  0.5211
 6494TIP3    H241042   0.565   1.705   0.946  1.6040  0.3529 -1.3230
 6495TIP3   OH241043   0.333   1.124   8.371  0.5046  0.0053 -0.3518
 6495TIP3    H141044   0.383   1.069   8.311  3.6209  0.4280  1.5871
 6495TIP3    H241045   0.338   1.211   8.333  0.5540 -0.0886 -0.5650
 6496TIP3   OH241046   2.911   5.339   0.234  1.0066 -0.4868  0.4404
 6496TIP3    H141047   2.911   5.428   0.270  2.1594 -0.0235 -0.6433
 6496TIP3    H241048   2.988   5.298   0.273  1.5991 -0.3563 -0.5693
 6497TIP3   OH241049   1.750   4.146   0.323 -0.0360 -0.4108  0.7711
 6497TIP3    H141050   1.698   4.125   0.245  0.0336 -0.0344  0.6209
 6497TIP3    H241051   1.838   4.114   0.303 -0.4674 -2.2426  1.5402
 6498TIP3   OH241052   2.581   2.300   1.025  0.0730 -0.3803 -0.2426
 6498TIP3    H141053   2.502   2.278   0.976  0.1643 -0.4011 -0.3806
 6498TIP3    H241054   2.647   2.318   0.958 -0.0262  0.4168 -0.1331
 6499TIP3   OH241055   1.749   6.323   7.052 -0.4783 -0.2876  0.0036
 6499TIP3    H141056   1.720   6.235   7.073 -2.3436 -0.1739 -1.8002
 6499TIP3    H241057   1.827   6.311   6.998  0.6897 -0.6985  1.6796
 6500TIP3   OH241058   3.152   6.307   1.097 -0.1905  0.1022 -0.3328
 6500TIP3    H141059   3.078   6.356   1.134  0.8513  1.3779  0.1256
 6500TIP3    H241060   3.143   6.219   1.134 -1.6231  0.1489 -0.5037
 6501TIP3   OH241061   2.368   3.824   7.716  0.7175  0.1455  0.4785
 6501TIP3    H141062   2.294   3.818   7.776  0.6340 -0.2257  0.3434
 6501TIP3    H241063   2.445   3.810   7.771  0.5766 -1.5089  0.3169
 6502TIP3   OH241064   6.302   1.811   6.695 -0.0248  0.3098  0.3500
 6502TIP3    H141065   6.250   1.881   6.654 -0.7072  0.3758  1.2922
 6502TIP3    H241066   6.360   1.781   6.626 -1.1703  0.3888 -0.6865
 6503TIP3   OH241067   5.230   0.080   6.859  0.2477 -0.2433 -0.0474
 6503TIP3    H141068   5.215   0.150   6.922  0.2830  0.9398 -1.2939
 6503TIP3    H241069   5.310   0.105   6.813  0.9932 -1.7896  0.3429
 6504TIP3   OH241070   0.489   0.058   8.619  0.1718  0.3810  0.5161
 6504TIP3    H141071   0.400   0.032   8.644 -0.0014  0.4988  0.0118
 6504TIP3    H241072   0.544  -0.014   8.650 -0.2370 -0.2776 -0.2727
 6505TIP3   OH241073   3.566   0.346   8.535  0.0734  0.1373  0.3058
 6505TIP3    H141074   3.589   0.309   8.621 -2.5855  1.5432  1.7425
 6505TIP3    H241075   3.612   0.430   8.533 -1.9345  1.3565  1.6527
 6506TIP3   OH241076   0.170   3.719   8.674 -0.1403 -0.4714 -0.3210
 6506TIP3    H141077   0.196   3.805   8.642  0.7379 -0.8943 -0.7877
 6506TIP3    H241078   0.147   3.669   8.596 -0.5973 -0.6836 -0.0582
 6507TIP3   OH241079   4.409   0.054   7.319 -0.1466  0.2351  0.1272
 6507TIP3    H141080   4.437  -0.035   7.342 -1.9495  0.0593  1.9556
 6507TIP3    H241081   4.403   0.100   7.403 -3.1501  0.8257 -0.3077
 6508TIP3   OH241082   4.029   0.703   6.255 -0.6641 -0.7418  0.0260
 6508TIP3    H141083   4.124   0.689   6.253 -0.6352 -0.5878  0.3728
 6508TIP3    H241084   4.019   0.795   6.279 -0.8906 -0.5913 -0.6303
 6509TIP3   OH241085   2.656   6.791   7.653  0.0998  0.1430 -0.4630
 6509TIP3    H141086   2.710   6.867   7.676  0.0769  0.1452 -0.4165
 6509TIP3    H241087   2.677   6.725   7.718 -1.5984  0.9056  0.9465
 6510TIP3   OH241088   1.408   4.918   7.418  0.1321 -0.0242  0.2479
 6510TIP3    H141089   1.472   4.975   7.376 -0.3718 -0.3342 -0.9844
 6510TIP3    H241090   1.448   4.894   7.501  0.3881  2.0570  0.7866
 6511TIP3   OH241091   6.236   3.106   0.997  0.3032 -0.6881  0.3854
 6511TIP3    H141092   6.193   3.126   1.080 -1.9197 -1.9556 -0.3570
 6511TIP3    H241093   6.257   3.013   1.003  2.9296 -0.1299  0.6518
 6512TIP3   OH241094   1.796   1.018   1.257  0.0429  0.0431  0.6080
 6512TIP3    H141095   1.800   0.959   1.332  1.8459 -1.7796 -0.7913
 6512TIP3    H241096   1.807   0.961   1.181 -0.3273  1.9640 -0.9724
 6513TIP3   OH241097   5.019   5.507   7.824  0.5949  0.5279  0.2772
 6513TIP3    H141098   4.929   5.539   7.821 -0.0318 -1.2006 -1.1009
 6513TIP3    H241099   5.069   5.573   7.775  0.3279  2.0796  2.0005
 6514TIP3   OH241100   0.642   4.295   7.150  0.4132 -0.2714  0.5738
 6514TIP3    H141101   0.684   4.228   7.096  0.4920 -0.9269  1.4309
 6514TIP3    H241102   0.557   4.257   7.174 -0.6554  0.9754 -1.0044
 6515TIP3   OH241103   3.968   0.534   8.577 -0.8628 -0.2483  0.1532
 6515TIP3    H141104   4.043   0.481   8.551 -0.4679 -2.5008  4.7040
 6515TIP3    H241105   4.002   0.623   8.582  0.7659 -0.7946 -0.3701
 6516TIP3   OH241106   1.995   5.279   6.705 -0.3114  0.1876  0.0075
 6516TIP3    H141107   1.922   5.231   6.745  0.0115  0.4516  0.9435
 6516TIP3    H241108   2.043   5.213   6.656 -0.0598 -0.4070  1.0073
 6517TIP3   OH241109   6.773   6.691   1.519 -0.1148 -0.1421 -0.0138
 6517TIP3    H141110   6.712   6.617   1.513  1.2468 -1.2935 -0.1905
 6517TIP3    H241111   6.849   6.656   1.565  0.8732  0.9472 -0.7552
 6518TIP3   OH241112   6.179   5.670   1.798 -0.4308 -0.0598 -0.0042
 6518TIP3    H141113   6.248   5.668   1.732 -0.2447  1.6371  0.0791
 6518TIP3    H241114   6.218   5.630   1.876  0.6328  1.2319  0.1630
 6519TIP3   OH241115   5.618   2.680   2.298  0.0139 -0.0253 -0.1803
 6519TIP3    H141116   5.584   2.653   2.383 -0.0726  0.4750 -0.0573
 6519TIP3    H241117   5.570   2.759   2.276  0.3899  0.1286 -0.4646
 6520TIP3   OH241118   5.377   3.213   6.554 -0.1513 -0.7588 -0.0047
 6520TIP3    H141119   5.333   3.281   6.604 -0.1853 -1.6688  1.2466
 6520TIP3    H241120   5.364   3.238   6.462 -1.0551  0.3437  0.4063
 6521TIP3   OH241121   5.582   0.754   7.426 -0.0495 -0.2652  0.0561
 6521TIP3    H141122   5.547   0.678   7.380 -0.0709 -0.3674  0.2449
 6521TIP3    H241123   5.668   0.770   7.385 -0.2432 -0.1133 -0.2938
 6522TIP3   OH241124   0.589   3.665   0.446  0.2992  0.0232  0.6821
 6522TIP3    H141125   0.580   3.595   0.511  0.6501 -0.1035  0.5988
 6522TIP3    H241126   0.503   3.671   0.405  0.2420 -0.3027  0.7502
 6523TIP3   OH241127   0.854   6.163   1.149  0.4934  0.6093  0.1484
 6523TIP3    H141128   0.899   6.105   1.088  3.0428  1.8834  0.7062
 6523TIP3    H241129   0.914   6.171   1.223 -1.0332  1.7531  1.3267
 6524TIP3   OH241130   5.145   1.490   8.634  0.3617 -0.2194 -0.5881
 6524TIP3    H141131   5.078   1.510   8.699  0.3666  1.9078 -1.1729
 6524TIP3    H241132   5.222   1.539   8.663  1.5377 -2.1121 -0.2762
 6525TIP3   OH241133   3.527   5.897   2.480  0.0524  0.3301 -0.1330
 6525TIP3    H141134   3.621   5.904   2.463  0.2909 -0.0610  0.9787
 6525TIP3    H241135   3.489   5.876   2.394  1.0695 -0.3954 -0.4252
 6526TIP3   OH241136   6.291   5.038   7.897  0.7828 -0.1152  0.3239
 6526TIP3    H141137   6.365   5.092   7.867 -1.8955  2.7802 -1.7660
 6526TIP3    H241138   6.261   5.082   7.977 -0.4650  0.6727 -0.5360
 6527TIP3   OH241139   1.874   0.259   8.617 -0.3799 -0.0880  0.2370
 6527TIP3    H141140   1.941   0.249   8.550 -0.1788 -0.3855  0.4773
 6527TIP3    H241141   1.884   0.349   8.648 -0.1210 -0.1183  0.2425
 6528TIP3   OH241142   0.763   3.249   0.517 -0.0698 -0.1537  0.3309
 6528TIP3    H141143   0.739   3.250   0.610 -0.6940  0.8260  0.1695
 6528TIP3    H241144   0.684   3.278   0.472  0.5467  0.3581 -0.4402
 6529TIP3   OH241145   2.946   4.094   1.616  0.1767 -0.0874 -0.3697
 6529TIP3    H141146   2.978   4.183   1.631  0.5446 -0.4084  0.8412
 6529TIP3    H241147   2.892   4.075   1.693 -0.7603 -0.5397 -1.1221
 6530TIP3   OH241148   5.611   0.787   1.051 -0.2483  0.3665 -0.0328
 6530TIP3    H141149   5.587   0.844   1.124 -1.9956 -0.4297  0.0773
 6530TIP3    H241150   5.613   0.699   1.089  0.1078  0.0941 -0.6725
 6531TIP3   OH241151   0.619   3.852   1.092  0.2239 -0.1108  0.4691
 6531TIP3    H141152   0.614   3.938   1.052  0.2730 -0.4055 -0.1818
 6531TIP3    H241153   0.713   3.833   1.097  0.2684  0.3657  1.6957
 6532TIP3   OH241154   5.180   1.966   0.202 -0.2360  0.2884  0.3593
 6532TIP3    H141155   5.225   1.893   0.246  0.0262  0.9381  1.1995
 6532TIP3    H241156   5.103   1.926   0.161  0.9461 -0.8136 -0.8984
 6533TIP3   OH241157   2.856   5.545   1.389  0.3016 -0.0710 -0.0784
 6533TIP3    H141158   2.864   5.478   1.321  2.6899  0.6479 -0.6079
 6533TIP3    H241159   2.814   5.619   1.346 -0.6170 -0.5465 -0.0155
 6534TIP3   OH241160   6.351   2.245   1.530  0.0571  0.1685  0.5234
 6534TIP3    H141161   6.433   2.288   1.505 -0.4249  1.3163  0.8611
 6534TIP3    H241162   6.366   2.219   1.621  0.0032  0.5155  0.6352
 6535TIP3   OH241163   5.833   2.164   1.864  0.1807  0.2440  0.1814
 6535TIP3    H141164   5.798   2.100   1.802  0.8159 -1.0574  1.1049
 6535TIP3    H241165   5.810   2.128   1.950  2.0109  0.3612  0.7699
 6536TIP3   OH241166   4.943   1.842   8.439 -0.6454  0.0700 -0.0096
 6536TIP3    H141167   5.032   1.845   8.404 -1.3784  2.2411 -1.9417
 6536TIP3    H241168   4.910   1.756   8.414  0.6882 -0.5305  0.2210
 6537TIP3   OH241169   2.350   4.437   7.993  0.2510 -0.2367  0.0989
 6537TIP3    H141170   2.313   4.521   7.965 -0.6026 -0.8283 -0.6150
 6537TIP3    H241171   2.275   4.387   8.025  0.1033 -1.9278 -2.5073
 6538TIP3   OH241172   2.270   6.013   0.345 -0.0300  0.2647 -0.8448
 6538TIP3    H141173   2.271   5.982   0.255  1.0261 -1.0493 -0.4092
 6538TIP3    H241174   2.231   5.940   0.395  0.9447  0.2894 -0.0240
 6539TIP3   OH241175   2.672   1.936   0.378 -0.9109  0.0869  0.3358
 6539TIP3    H141176   2.717   1.857   0.348 -1.0881 -0.0992  0.5505
 6539TIP3    H241177   2.680   1.998   0.306 -2.0901 -0.6460 -0.4511
 6540TIP3   OH241178   4.404   3.596   8.523  0.3024  0.0237 -0.3993
 6540TIP3    H141179   4.466   3.582   8.452  0.0193  0.2746 -0.7010
 6540TIP3    H241180   4.351   3.671   8.494  1.5184  1.4902  0.9759
 6541TIP3   OH241181   4.845   5.801   7.514 -0.7033  0.3895  0.1365
 6541TIP3    H141182   4.901   5.788   7.437 -0.5614 -0.5623  0.3882
 6541TIP3    H241183   4.779   5.863   7.485  0.7194  1.9050 -0.0435
 6542TIP3   OH241184   5.040   3.727   0.224  0.1023  0.3590  0.2020
 6542TIP3    H141185   5.032   3.788   0.297 -0.7633  0.1395  0.2957
 6542TIP3    H241186   5.045   3.782   0.146  1.4366  0.6113  0.4382
 6543TIP3   OH241187   1.343   3.942   7.179 -0.4251  0.3920  0.5102
 6543TIP3    H141188   1.281   3.906   7.115 -0.7002  0.3312  0.8063
 6543TIP3    H241189   1.429   3.932   7.138 -0.2879 -2.0661  1.2178
 6544TIP3   OH241190   6.409   2.082   7.790 -0.6294 -0.3136  0.2520
 6544TIP3    H141191   6.374   2.004   7.834 -0.8688 -0.2911  0.1091
 6544TIP3    H241192   6.440   2.049   7.705 -2.3342  0.0144 -0.5485
 6545TIP3   OH241193   6.540   0.268   0.239  0.2307 -0.4185 -0.2702
 6545TIP3    H141194   6.621   0.219   0.256  0.8105  0.8099  0.6019
 6545TIP3    H241195   6.563   0.327   0.168 -0.0081 -0.2911 -0.2421
 6546TIP3   OH241196   1.630   0.320   7.828  0.1367 -0.0677  0.4116
 6546TIP3    H141197   1.576   0.397   7.813  1.8391  1.0467 -0.1885
 6546TIP3    H241198   1.665   0.297   7.742  0.3206 -1.0193  0.7225
 6547TIP3   OH241199   6.308   6.283   6.443 -0.2384 -0.2078  0.4939
 6547TIP3    H141200   6.229   6.313   6.397  0.5734  0.2741 -0.6247
 6547TIP3    H241201   6.375   6.348   6.420  0.6905 -1.0443  0.7901
 6548TIP3   OH241202   6.363   1.946   8.242  0.1543  0.1683  0.2604
 6548TIP3    H141203   6.440   1.938   8.299 -0.3793  1.1167  1.1420
 6548TIP3    H241204   6.331   1.857   8.234  0.6968 -0.0921  0.8106
 6549TIP3   OH241205   5.991   0.693   8.346  0.0188 -0.1100 -0.5719
 6549TIP3    H141206   6.053   0.621   8.357 -2.3624 -2.0231  1.4951
 6549TIP3    H241207   5.987   0.735   8.432 -0.1692  1.1924 -1.1932
 6550TIP3   OH241208   3.759   0.350   1.628 -0.8656 -0.0742 -0.6067
 6550TIP3    H141209   3.786   0.355   1.720  1.0578  0.6149 -1.1533
 6550TIP3    H241210   3.735   0.258   1.616  0.5764 -0.5892  0.1645
 6551TIP3   OH241211   0.386   4.961   7.665  0.2753 -0.3123  0.2488
 6551TIP3    H141212   0.348   5.043   7.698 -0.8031 -0.2263 -1.1231
 6551TIP3    H241213   0.435   4.926   7.739 -1.2256  0.3590  1.6209
 6552TIP3   OH241214   2.113   4.917   8.300 -0.4289  0.7396  0.0251
 6552TIP3    H141215   2.136   4.971   8.376 -0.3824  1.8811 -0.7737
 6552TIP3    H241216   2.079   4.836   8.338  0.1860  1.0226  1.2596
 6553TIP3   OH241217   6.386   5.285   8.667  0.0816 -0.2351  0.0717
 6553TIP3    H141218   6.363   5.295   8.760 -1.8429 -0.4790 -0.3402
 6553TIP3    H241219   6.482   5.291   8.666  0.0965  0.7156  1.9441
 6554TIP3   OH241220   0.346   4.902   7.398  0.3332  0.0520 -0.0460
 6554TIP3    H141221   0.310   4.991   7.388 -0.6722 -0.2862  0.4134
 6554TIP3    H241222   0.357   4.892   7.493 -0.5082 -0.6691 -0.0156
 6555TIP3   OH241223   5.969   0.969   1.655  0.4766  0.0933 -0.1107
 6555TIP3    H141224   5.999   0.976   1.564  1.9106  0.3929  0.3544
 6555TIP3    H241225   5.884   1.011   1.655  0.8138  0.8247 -1.1585
 6556TIP3   OH241226   3.565   6.466   0.405 -0.1630  0.2293  0.1743
 6556TIP3    H141227   3.471   6.450   0.400 -0.0649 -0.2333 -0.1841
 6556TIP3    H241228   3.588   6.441   0.495 -0.1820 -0.7430 -0.0823
 6557TIP3   OH241229   0.161   3.232   1.997 -0.3851  0.3974 -0.3221
 6557TIP3    H141230   0.204   3.165   1.943  1.3860  0.4174  0.9753
 6557TIP3    H241231   0.160   3.310   1.941  0.3153  0.1007 -0.7646
 6558TIP3   OH241232   0.937   3.033   0.501  0.2667 -0.0968  0.2825
 6558TIP3    H141233   0.881   3.107   0.525 -1.0540 -0.9449 -0.0642
 6558TIP3    H241234   1.026   3.067   0.510 -0.2840  1.3179  0.8027
 6559TIP3   OH241235   2.123   5.330   8.232  0.0253 -0.3465 -0.4196
 6559TIP3    H141236   2.147   5.417   8.199 -0.8750  0.0785  0.0076
 6559TIP3    H241237   2.199   5.275   8.212 -0.2362  0.0117 -2.6690
 6560TIP3   OH241238   4.197   4.917   8.168 -0.4875 -0.0861  0.2321
 6560TIP3    H141239   4.184   5.008   8.194 -0.7418 -0.1586  0.3603
 6560TIP3    H241240   4.153   4.866   8.237 -0.1874 -0.3097  0.2612
 6561TIP3   OH241241   0.321   2.513   8.322  0.3626 -0.3802 -0.5429
 6561TIP3    H141242   0.406   2.555   8.312  0.5895  0.9680  4.2651
 6561TIP3    H241243   0.340   2.433   8.372 -1.0258 -1.2885 -1.4009
 6562TIP3   OH241244   5.485   2.439   7.066 -0.7765 -0.3668  0.0849
 6562TIP3    H141245   5.501   2.461   7.158 -1.3151 -0.1662  0.1362
 6562TIP3    H241246   5.528   2.508   7.017  1.4385 -1.6549  0.1007
 6563TIP3   OH241247   6.050   6.778   1.233 -0.0283 -0.4082 -0.4696
 6563TIP3    H141248   5.977   6.833   1.262 -0.0287 -0.9070  0.5063
 6563TIP3    H241249   6.026   6.690   1.259  0.1213 -0.8464 -1.7497
 6564TIP3   OH241250   5.045   1.049   8.425  0.3641  0.6413  0.1758
 6564TIP3    H141251   5.094   1.117   8.470  0.8248  0.4835 -0.0822
 6564TIP3    H241252   5.060   0.970   8.478 -2.3750  1.2204  2.0801
 6565TIP3   OH241253   6.691   3.810   0.714 -0.6606 -0.6129 -0.1306
 6565TIP3    H141254   6.688   3.872   0.787 -0.1637 -1.0269  0.2482
 6565TIP3    H241255   6.659   3.861   0.639 -1.7290 -0.3495  0.4786
 6566TIP3   OH241256   2.334   6.173   8.121 -0.1032 -0.9445  0.5882
 6566TIP3    H141257   2.402   6.153   8.056 -0.0056  0.7674  0.1066
 6566TIP3    H241258   2.382   6.207   8.196 -0.4001  1.0886 -0.0698
 6567TIP3   OH241259   2.726   4.706   7.221 -0.5373  0.0026 -0.5758
 6567TIP3    H141260   2.784   4.629   7.220  0.9267  1.0694 -1.1099
 6567TIP3    H241261   2.688   4.706   7.308 -0.8873 -1.5446 -0.6856
 6568TIP3   OH241262   2.511   5.943   7.997 -0.2153  0.2238 -0.8131
 6568TIP3    H141263   2.482   5.896   7.918  1.6687 -0.4501 -1.1575
 6568TIP3    H241264   2.551   5.875   8.051 -0.9342  0.7933  0.4787
 6569TIP3   OH241265   6.365   4.548   7.631 -0.8626 -0.1009 -0.0410
 6569TIP3    H141266   6.276   4.563   7.599 -0.7187  0.0457 -0.3807
 6569TIP3    H241267   6.421   4.565   7.555 -0.4990  0.5183  0.3544
 6570TIP3   OH241268   4.566   1.594   6.733 -0.2893  0.1408 -0.0469
 6570TIP3    H141269   4.562   1.502   6.761 -0.2461 -0.2258 -1.1823
 6570TIP3    H241270   4.477   1.627   6.747 -0.7019 -0.5125 -1.0076
 6571TIP3   OH241271   3.258   4.576   8.141 -0.2356 -0.7026  0.1459
 6571TIP3    H141272   3.272   4.482   8.155  0.5085 -0.5146  0.7325
 6571TIP3    H241273   3.298   4.594   8.056 -0.8572 -1.0144 -0.2193
 6572TIP3   OH241274   6.074   4.840   2.006  0.2522  0.6191  0.2357
 6572TIP3    H141275   6.167   4.860   2.016  0.0284  2.7531 -1.3546
 6572TIP3    H241276   6.069   4.788   1.926  0.4244 -3.2748  2.5139
 6573TIP3   OH241277   2.364   2.413   6.588  0.3980 -0.4193  0.1730
 6573TIP3    H141278   2.354   2.506   6.609  0.1830 -0.7890  1.8631
 6573TIP3    H241279   2.364   2.410   6.493 -1.0675  1.1523  0.0706
 6574TIP3   OH241280   2.804   0.574   0.875 -0.1962  0.3359 -0.3040
 6574TIP3    H141281   2.779   0.579   0.967 -2.5820  0.6301 -0.9091
 6574TIP3    H241282   2.894   0.605   0.873  0.0618 -0.0998  1.9815
 6575TIP3   OH241283   4.295   3.261   7.754 -0.0830  0.4771 -0.2188
 6575TIP3    H141284   4.307   3.176   7.796  0.2631 -0.0238 -1.3073
 6575TIP3    H241285   4.293   3.323   7.827  2.0381 -0.1827  0.4731
 6576TIP3   OH241286   4.401   2.409   0.100 -0.2841  0.4809  0.0000
 6576TIP3    H141287   4.344   2.405   0.177 -1.9248  0.5539 -1.1625
 6576TIP3    H241288   4.342   2.399   0.026  1.5478 -2.8641 -1.2296
 6577TIP3   OH241289   3.689   2.865   7.517  0.2778  0.0439  0.3823
 6577TIP3    H141290   3.725   2.776   7.519  1.6498  0.5076 -1.4336
 6577TIP3    H241291   3.754   2.916   7.469 -1.5905  1.5273 -0.6917
 6578TIP3   OH241292   0.479   3.606   1.116  0.1336  0.6759  0.3024
 6578TIP3    H141293   0.386   3.624   1.111  0.1826  0.8475  0.0320
 6578TIP3    H241294   0.522   3.690   1.101  0.3119  1.0708  2.6293
 6579TIP3   OH241295   6.625   5.490   6.790  0.9449 -0.4088 -0.0686
 6579TIP3    H141296   6.599   5.417   6.846  1.6605 -0.9282 -0.4040
 6579TIP3    H241297   6.686   5.452   6.727 -0.3930  0.0159 -1.6767
 6580TIP3   OH241298   3.299   0.819   1.397  0.2569  0.3615 -0.8809
 6580TIP3    H141299   3.345   0.746   1.437 -0.0263 -1.0097 -2.8722
 6580TIP3    H241300   3.271   0.786   1.312 -2.5997  1.7812 -0.6333
 6581TIP3   OH241301   1.308   5.308   7.217  0.6017 -0.5952 -0.2569
 6581TIP3    H141302   1.218   5.335   7.232  1.0109  0.2548  0.8777
 6581TIP3    H241303   1.356   5.343   7.293  1.5716 -2.6392  0.1435
 6582TIP3   OH241304   6.081   6.161   6.050 -0.0461  0.1860 -0.1860
 6582TIP3    H141305   5.999   6.193   6.088 -0.4184 -0.7523 -0.1909
 6582TIP3    H241306   6.125   6.116   6.122  0.3952  0.5366 -0.2291
 6583TIP3   OH241307   3.821   6.748   0.205 -0.4603  0.0348  0.0363
 6583TIP3    H141308   3.828   6.675   0.143 -1.6918 -1.3008  1.4077
 6583TIP3    H241309   3.884   6.728   0.274 -0.2803  0.6574  0.0607
 6584TIP3   OH241310   4.122   4.038   8.752 -0.0885  0.1841 -0.2659
 6584TIP3    H141311   4.174   4.048   8.832 -2.7129 -0.6630  1.6887
 6584TIP3    H241312   4.112   3.943   8.742 -0.4273  0.3062 -1.1592
 6585TIP3   OH241313   1.162   6.351   0.093 -0.5378  0.0611  0.5185
 6585TIP3    H141314   1.147   6.257   0.083  0.3280  0.0079 -0.4904
 6585TIP3    H241315   1.111   6.391   0.022  0.3307  0.2220 -0.0261
 6586TIP3   OH241316   3.276   1.215   7.205 -0.1876  0.1456 -0.4557
 6586TIP3    H141317   3.312   1.219   7.294 -0.6674  1.1587 -0.3019
 6586TIP3    H241318   3.351   1.195   7.150  0.1198 -0.4717  0.1711
 6587TIP3   OH241319   1.850   4.839   6.814 -0.0708  0.7979 -0.5768
 6587TIP3    H141320   1.843   4.811   6.723  2.3500  0.4515 -0.7262
 6587TIP3    H241321   1.810   4.768   6.864 -0.3059  0.4081 -1.3085
 6588TIP3   OH241322   0.194   0.890   0.714  0.1184  0.4396  0.5792
 6588TIP3    H141323   0.244   0.809   0.704  0.1202  0.2801  1.7863
 6588TIP3    H241324   0.103   0.863   0.703  0.0313  0.0560  2.0942
 6589TIP3   OH241325   6.181   6.704   6.393 -0.1400 -0.1257  0.0936
 6589TIP3    H141326   6.261   6.708   6.447 -0.0364  0.5063 -0.0955
 6589TIP3    H241327   6.118   6.758   6.441 -0.2580 -0.1168 -0.0747
 6590TIP3   OH241328   4.865   2.387   8.550 -1.0641  0.0071 -0.2536
 6590TIP3    H141329   4.844   2.301   8.515 -2.4819  0.9079 -1.7371
 6590TIP3    H241330   4.927   2.370   8.621  0.2816 -2.0708 -1.8273
 6591TIP3   OH241331   3.859   3.268   0.911  0.0001  0.6979  0.4167
 6591TIP3    H141332   3.920   3.332   0.874 -1.6716  1.5084 -1.1025
 6591TIP3    H241333   3.834   3.304   0.996 -0.5973  1.8792 -0.2407
 6592TIP3   OH241334   4.630   2.838   8.701  0.2671  0.1312 -0.0451
 6592TIP3    H141335   4.615   2.932   8.693  0.7806  0.1661 -0.6806
 6592TIP3    H241336   4.617   2.804   8.612 -0.8064 -0.5320  0.3459
 6593TIP3   OH241337   2.346   1.239   6.819 -0.5038 -0.6563 -0.2904
 6593TIP3    H141338   2.340   1.217   6.912 -1.6220  1.3370  0.1656
 6593TIP3    H241339   2.431   1.283   6.810 -0.0009 -1.6171 -0.4279
 6594TIP3   OH241340   0.332   5.850   1.229  0.1954 -0.2653 -0.2607
 6594TIP3    H141341   0.273   5.799   1.174  1.4099  0.7861 -2.6617
 6594TIP3    H241342   0.350   5.793   1.303 -0.5898 -2.2322 -1.5081
 6595TIP3   OH241343   0.736   1.953   1.222 -0.2301 -0.3538  0.0644
 6595TIP3    H141344   0.788   2.024   1.259  0.1689  0.2132 -1.4789
 6595TIP3    H241345   0.706   1.903   1.297  0.9526  0.4264  1.0952
 6596TIP3   OH241346   6.042   4.122   6.807 -0.1433 -0.4488 -0.4939
 6596TIP3    H141347   5.999   4.142   6.890  0.8667 -0.0863 -0.0419
 6596TIP3    H241348   6.019   4.031   6.789  2.0136 -1.5299  1.7059
 6597TIP3   OH241349   3.281   5.860   1.336  0.0483 -0.5192 -0.0130
 6597TIP3    H141350   3.370   5.883   1.307  0.1294 -0.1480  0.5115
 6597TIP3    H241351   3.284   5.871   1.431 -1.0222  1.1164 -0.1356
 6598TIP3   OH241352   0.274   6.414   1.235 -0.2476 -0.5352 -0.1248
 6598TIP3    H141353   0.285   6.405   1.330  1.0806 -0.5757 -0.2689
 6598TIP3    H241354   0.225   6.496   1.224 -1.1281 -0.9425  0.6181
 6599TIP3   OH241355   3.561   1.356   0.201  0.5006 -0.0790 -0.2784
 6599TIP3    H141356   3.647   1.369   0.160 -0.0053  1.1563 -1.0015
 6599TIP3    H241357   3.538   1.442   0.236  0.3634 -0.8255  1.5660
 6600TIP3   OH241358   3.189   3.892   7.665 -0.1778 -0.0355  0.1480
 6600TIP3    H141359   3.162   3.801   7.653 -1.3629  0.4375 -1.0662
 6600TIP3    H241360   3.280   3.894   7.637 -0.1805 -0.8245  0.0491
 6601TIP3   OH241361   2.344   6.313   7.750 -0.4622  0.3284  0.2498
 6601TIP3    H141362   2.350   6.275   7.662 -1.7723  2.0675 -0.6579
 6601TIP3    H241363   2.254   6.346   7.756 -0.2426  0.6943  2.0571
 6602TIP3   OH241364   2.805   5.857   2.035 -0.7037 -0.4933 -0.2081
 6602TIP3    H141365   2.804   5.765   2.009  0.5215 -0.5497 -0.1083
 6602TIP3    H241366   2.762   5.858   2.121 -0.2529 -1.0602  0.0353
 6603TIP3   OH241367   5.588   3.606   0.572 -0.3163  0.5021 -0.2623
 6603TIP3    H141368   5.670   3.627   0.527  1.0882  0.5279  2.1503
 6603TIP3    H241369   5.599   3.515   0.600 -1.3444  0.3535 -0.2855
 6604TIP3   OH241370   4.294   5.703   0.302 -0.3440  0.1964  0.4325
 6604TIP3    H141371   4.363   5.765   0.279 -0.5173  0.1550 -0.2196
 6604TIP3    H241372   4.339   5.620   0.312 -0.4453 -0.1284 -1.3450
 6605TIP3   OH241373   2.201   4.824   7.070  0.1130 -0.1962 -0.2671
 6605TIP3    H141374   2.222   4.917   7.076  3.4165 -0.8719  0.3439
 6605TIP3    H241375   2.198   4.806   6.976  0.0831  0.3993 -0.3819
 6606TIP3   OH241376   0.226   6.005   8.819  0.4211 -0.2534 -0.5882
 6606TIP3    H141377   0.293   5.998   8.750  0.1136 -0.9369 -0.8264
 6606TIP3    H241378   0.144   6.019   8.771  0.3763  0.5258 -0.2977
 6607TIP3   OH241379   3.778   1.321   0.728  0.2395 -0.0823  0.6031
 6607TIP3    H141380   3.862   1.291   0.691  0.5042  0.0298  1.1062
 6607TIP3    H241381   3.803   1.382   0.797 -0.2802  1.8239 -0.8046
 6608TIP3   OH241382   5.514   1.944   7.469  0.1869  0.4756  0.3417
 6608TIP3    H141383   5.452   1.946   7.396  1.5263 -1.1187 -0.9160
 6608TIP3    H241384   5.460   1.926   7.546 -1.3089  2.6336 -0.1253
 6609TIP3   OH241385   2.207   0.494   0.567  0.8075 -0.1572 -0.0955
 6609TIP3    H141386   2.291   0.475   0.608  0.5578 -1.7207 -0.2533
 6609TIP3    H241387   2.184   0.414   0.520  0.2278  0.9646 -1.8373
 6610TIP3   OH241388   1.260   3.840   1.950  0.1415 -0.2267 -0.2149
 6610TIP3    H141389   1.264   3.785   2.028 -0.6634 -1.9032 -1.3085
 6610TIP3    H241390   1.285   3.782   1.878 -0.3052  0.9545 -1.3553
 6611TIP3   OH241391   0.724   1.353   1.527  0.2278 -0.6671  0.0473
 6611TIP3    H141392   0.698   1.296   1.600  2.5735  0.1923  1.7081
 6611TIP3    H241393   0.757   1.293   1.460 -0.1000 -1.3943  0.5233
 6612TIP3   OH241394   4.861   1.297   1.084 -0.0207  0.1827 -0.0097
 6612TIP3    H141395   4.849   1.349   1.004 -0.9593  1.7426  1.0834
 6612TIP3    H241396   4.953   1.272   1.083  0.1886  0.9116 -1.1367
 6613TIP3   OH241397   5.304   1.470   0.450 -0.0276  0.1189  0.0974
 6613TIP3    H141398   5.248   1.432   0.382  0.1350  1.1142 -0.6092
 6613TIP3    H241399   5.390   1.477   0.410  0.9392 -2.3687  1.5095
 6614TIP3   OH241400   2.813   2.900   8.860  0.2904  0.3332 -0.3524
 6614TIP3    H141401   2.857   2.819   8.887 -1.7773 -1.2046 -1.3201
 6614TIP3    H241402   2.775   2.934   8.942  1.6008  0.6328  0.1508
 6615TIP3   OH241403   6.115   5.983   0.085 -0.6897 -0.1913  0.2646
 6615TIP3    H141404   6.190   6.034   0.054  0.1436 -0.0420  2.3755
 6615TIP3    H241405   6.055   6.048   0.121  0.4481 -0.5764  3.1142
 6616TIP3   OH241406   0.265   3.995   1.823 -0.0527  0.2533 -0.4512
 6616TIP3    H141407   0.246   4.044   1.902  1.3263 -0.7483  0.5492
 6616TIP3    H241408   0.247   3.904   1.846  2.5599 -0.3589 -0.4677
 6617TIP3   OH241409   2.028   1.832   8.243 -0.2061 -0.3274  0.3338
 6617TIP3    H141410   2.092   1.877   8.188 -0.3789 -1.2852 -0.6592
 6617TIP3    H241411   1.961   1.801   8.183 -0.3353 -1.5094  1.0535
 6618TIP3   OH241412   0.747   4.601   7.726  0.3460 -0.8959  0.3309
 6618TIP3    H141413   0.653   4.599   7.744  0.0821  2.6329  0.0030
 6618TIP3    H241414   0.756   4.552   7.644 -0.9750 -2.3590  1.0128
 6619TIP3   OH241415   0.561   1.236   7.680 -0.5618  0.3659  0.5034
 6619TIP3    H141416   0.516   1.317   7.655  0.4265  0.5135 -0.9411
 6619TIP3    H241417   0.629   1.264   7.741 -1.8142  0.2517  2.0163
 6620TIP3   OH241418   0.930   1.719   6.304 -0.5949  0.0943 -0.7599
 6620TIP3    H141419   0.937   1.781   6.232 -2.1077  0.4012 -0.6735
 6620TIP3    H241420   0.848   1.672   6.289 -1.1565  0.4320  0.9450
 6621TIP3   OH241421   4.218   4.685   7.771  0.0215  0.6410  0.8534
 6621TIP3    H141422   4.285   4.634   7.815  0.0813  0.8033  0.9527
 6621TIP3    H241423   4.203   4.760   7.829 -1.2930 -0.1303  1.5674
 6622TIP3   OH241424   0.422   1.752   0.817  0.1707  0.3806  0.5140
 6622TIP3    H141425   0.347   1.701   0.786 -0.6744  1.8056  0.0974
 6622TIP3    H241426   0.436   1.818   0.748  1.2408  0.6926  1.0080
 6623TIP3   OH241427   0.540   2.667   1.075  0.5180 -0.1327  0.3734
 6623TIP3    H141428   0.455   2.699   1.106 -0.1531 -3.0608  1.8775
 6623TIP3    H241429   0.528   2.573   1.064  3.5236 -0.6225  0.4543
 6624TIP3   OH241430   5.290   3.293   1.281 -0.2966 -0.4889 -0.1059
 6624TIP3    H141431   5.341   3.363   1.319 -1.0693  0.0088  0.0383
 6624TIP3    H241432   5.208   3.335   1.254 -0.0732 -0.9685 -1.6332
 6625TIP3   OH241433   2.977   6.283   7.792  0.4459  0.5140  0.1081
 6625TIP3    H141434   2.954   6.199   7.831 -0.9828  0.8500  0.0292
 6625TIP3    H241435   3.053   6.312   7.842  1.9134 -1.4696 -0.8143
 6626TIP3   OH241436   1.998   2.862   1.749 -0.1227 -0.4630 -0.7065
 6626TIP3    H141437   2.033   2.949   1.772  0.2904 -0.5513 -0.9845
 6626TIP3    H241438   2.027   2.805   1.820 -0.2300 -0.4119 -0.6216
 6627TIP3   OH241439   6.385   6.136   0.407 -0.1473  0.6712 -0.9971
 6627TIP3    H141440   6.464   6.105   0.453 -0.1189  0.7128 -1.0165
 6627TIP3    H241441   6.322   6.065   0.416 -0.2943  0.8572 -0.5120
 6628TIP3   OH241442   4.250   1.764   0.462 -0.5709 -0.4853  0.6306
 6628TIP3    H141443   4.256   1.668   0.462 -0.9378 -0.5113  0.7921
 6628TIP3    H241444   4.191   1.785   0.390 -1.0108 -0.4224  1.0006
 6629TIP3   OH241445   6.755   0.209   8.591 -0.0263 -0.2990  0.3025
 6629TIP3    H141446   6.677   0.252   8.556 -0.2540 -1.3370 -0.5218
 6629TIP3    H241447   6.775   0.257   8.671  1.0018  2.7671 -1.6029
 6630TIP3   OH241448   3.447   4.751   8.747 -0.2789 -0.4243 -0.0238
 6630TIP3    H141449   3.468   4.703   8.827 -1.5313 -2.8690 -1.0748
 6630TIP3    H241450   3.366   4.798   8.767 -0.5242 -0.9283  0.1648
 6631TIP3   OH241451   0.116   2.306   0.193 -0.3833 -0.3987  0.0502
 6631TIP3    H141452   0.142   2.398   0.194  1.2393 -0.7663 -1.9240
 6631TIP3    H241453   0.025   2.307   0.164 -1.0818  0.6385  2.0462
 6632TIP3   OH241454   3.371   5.567   1.305  0.7071 -0.7122 -0.3042
 6632TIP3    H141455   3.447   5.508   1.308  2.2415  1.1953  0.1723
 6632TIP3    H241456   3.408   5.655   1.310 -1.4991  0.3420 -1.0725
 6633TIP3   OH241457   2.700   5.174   8.147  0.1858 -0.3110  0.2792
 6633TIP3    H141458   2.776   5.194   8.202 -0.6829 -0.5150  1.5947
 6633TIP3    H241459   2.626   5.214   8.193 -0.5679 -0.4357 -0.7867
 6634TIP3   OH241460   4.068   2.891   2.054  0.2089  0.7402 -0.7868
 6634TIP3    H141461   4.072   2.815   2.112 -0.9118  0.6526 -0.7962
 6634TIP3    H241462   4.122   2.957   2.096 -2.4765  1.5693  1.7411
 6635TIP3   OH241463   1.576   0.907   8.137  0.5973  0.7135 -0.0903
 6635TIP3    H141464   1.657   0.953   8.117 -0.0079  1.8019 -0.1107
 6635TIP3    H241465   1.587   0.878   8.228  1.2744  0.2638 -0.3116
 6636TIP3   OH241466   5.606   1.881   8.142 -0.1172  0.2142 -0.0340
 6636TIP3    H141467   5.582   1.802   8.094  1.2168  0.9543 -2.0598
 6636TIP3    H241468   5.553   1.950   8.102  0.8148  0.7994 -0.2856
 6637TIP3   OH241469   0.437   0.337   1.795  0.3041 -0.3216  0.6563
 6637TIP3    H141470   0.371   0.269   1.791  0.5889 -0.5658 -0.0302
 6637TIP3    H241471   0.415   0.387   1.873 -0.8021 -0.2813  0.3391
 6638TIP3   OH241472   6.619   3.549   8.487  0.0888 -0.1486  0.3901
 6638TIP3    H141473   6.670   3.628   8.473 -0.7984  0.4332  0.4163
 6638TIP3    H241474   6.681   3.488   8.528  0.4818  0.9165  1.4323
 6639TIP3   OH241475   3.269   1.647   1.051 -0.2813  0.3285 -0.7361
 6639TIP3    H141476   3.351   1.681   1.017 -0.0819  0.2294 -0.3588
 6639TIP3    H241477   3.202   1.705   1.015  0.0096  0.8088 -0.5039
 6640TIP3   OH241478   5.335   0.627   1.713 -0.2193 -0.3367 -0.0249
 6640TIP3    H141479   5.244   0.654   1.729 -0.3570  1.4125 -3.0369
 6640TIP3    H241480   5.368   0.603   1.800 -3.2960 -0.2936  1.2984
 6641TIP3   OH241481   4.147   3.309   6.629  0.1811 -0.2295  0.4867
 6641TIP3    H141482   4.067   3.258   6.640 -0.1046  0.0560 -0.2332
 6641TIP3    H241483   4.215   3.243   6.613  0.4128 -0.5849  2.6821
 6642TIP3   OH241484   0.963   0.127   8.673  0.1796 -0.1425 -0.0609
 6642TIP3    H141485   0.884   0.175   8.699 -2.1814 -2.7940 -1.7948
 6642TIP3    H241486   0.996   0.176   8.598  0.8827  1.5633  1.2829
 6643TIP3   OH241487   5.335   4.021   0.318 -0.2571  0.5207 -0.1305
 6643TIP3    H141488   5.418   3.976   0.338  0.5263  1.1059 -1.8185
 6643TIP3    H241489   5.312   3.988   0.231 -1.6076  0.6787  0.1544
 6644TIP3   OH241490   5.400   2.188   7.658 -0.2285 -0.1882 -0.0094
 6644TIP3    H141491   5.364   2.164   7.573 -1.3219  0.8841  0.1240
 6644TIP3    H241492   5.449   2.268   7.642  2.0109 -1.4825 -0.1382
 6645TIP3   OH241493   1.570   4.752   8.100  0.1750 -0.1746  0.4482
 6645TIP3    H141494   1.661   4.740   8.070  0.3757  0.4268  0.8014
 6645TIP3    H241495   1.576   4.750   8.195 -0.2231 -0.4025  0.4681
 6646TIP3   OH241496   1.547   4.696   6.662  0.4224  0.0044  0.0744
 6646TIP3    H141497   1.562   4.761   6.731 -0.0631  0.3975 -0.1836
 6646TIP3    H241498   1.634   4.676   6.629  0.6299  0.0595  0.5766
 6647TIP3   OH241499   3.232   4.204   7.559  0.9433  0.4722  0.2521
 6647TIP3    H141500   3.169   4.255   7.610 -0.0716  0.4874 -0.9601
 6647TIP3    H241501   3.309   4.197   7.615  0.6009  2.1770  0.9979
 6648TIP3   OH241502   0.270   6.506   7.418 -0.5126  0.5606  0.1693
 6648TIP3    H141503   0.210   6.500   7.492  1.0036 -0.0807  1.4237
 6648TIP3    H241504   0.317   6.588   7.431  1.8347 -0.8719  1.7114
 6649TIP3   OH241505   3.791   0.046   8.794 -0.5272 -0.1891  0.8863
 6649TIP3    H141506   3.767   0.034   8.886 -0.3862  2.9002  1.4584
 6649TIP3    H241507   3.802   0.141   8.785  3.9317 -0.6595 -1.2207
 6650TIP3   OH241508   5.185   6.106   0.792 -0.2493  0.4471 -0.2262
 6650TIP3    H141509   5.161   6.194   0.761 -2.2579 -0.2742 -0.9372
 6650TIP3    H241510   5.263   6.083   0.741 -1.3839  0.7315 -2.2300
 6651TIP3   OH241511   3.895   1.426   8.300 -1.0959 -0.2033 -0.3021
 6651TIP3    H141512   3.873   1.373   8.377 -1.1761  0.8082  0.3865
 6651TIP3    H241513   3.944   1.366   8.244  1.0964 -0.3626  1.6070
 6652TIP3   OH241514   4.608   3.315   0.186 -0.0853 -0.1222  0.0195
 6652TIP3    H141515   4.697   3.340   0.211 -0.4786  1.5963 -0.1994
 6652TIP3    H241516   4.552   3.367   0.243 -1.0040 -2.4564  1.3870
 6653TIP3   OH241517   3.553   3.073   1.063  0.2118 -0.3452 -0.0367
 6653TIP3    H141518   3.565   3.018   1.140  0.4416 -0.8261 -0.4101
 6653TIP3    H241519   3.472   3.121   1.080  0.4809 -0.1345  0.6824
 6654TIP3   OH241520   5.598   4.841   8.002 -0.6418 -0.0976 -0.1649
 6654TIP3    H141521   5.585   4.917   7.946 -1.3497 -0.1754 -0.1195
 6654TIP3    H241522   5.631   4.773   7.944  1.2706  0.5975  0.0239
 6655TIP3   OH241523   0.421   6.070   1.368 -0.0403 -0.3462  0.4707
 6655TIP3    H141524   0.399   6.006   1.301  1.9454 -0.1992 -0.4084
 6655TIP3    H241525   0.510   6.097   1.347  0.1090  0.8193  2.3156
 6656TIP3   OH241526   6.428   2.367   8.716 -0.2472  0.2656  0.2540
 6656TIP3    H141527   6.510   2.360   8.667  0.8535  2.1641  1.7029
 6656TIP3    H241528   6.433   2.453   8.759 -2.8475  0.2804  0.6711
 6657TIP3   OH241529   1.233   5.084   6.859 -0.1339  0.0484  0.1686
 6657TIP3    H141530   1.250   5.072   6.952 -0.0325 -0.3760  0.0993
 6657TIP3    H241531   1.315   5.060   6.816  0.4688  2.1104  0.0658
 6658TIP3   OH241532   5.884   3.590   0.213  0.2584 -0.2683  0.2573
 6658TIP3    H141533   5.849   3.655   0.153 -0.2964  0.2691  1.1404
 6658TIP3    H241534   5.824   3.516   0.207  0.0015 -0.0749  0.3950
 6659TIP3   OH241535   3.031   0.116   2.069 -0.0891 -0.3589 -0.3236
 6659TIP3    H141536   2.988   0.137   2.152 -2.2546 -0.0773 -1.4486
 6659TIP3    H241537   3.124   0.131   2.086 -0.5591  0.5715  1.7839
 6660TIP3   OH241538   3.153   3.422   1.033 -0.5876 -0.0740 -0.3876
 6660TIP3    H141539   3.068   3.443   0.994 -1.0125 -2.3006 -0.8265
 6660TIP3    H241540   3.135   3.417   1.127 -0.7649  0.2619 -0.4028
 6661TIP3   OH241541   1.079   4.416   6.343  0.0134  0.2852  0.3665
 6661TIP3    H141542   1.063   4.324   6.320  2.2113  0.1556 -0.8916
 6661TIP3    H241543   1.118   4.454   6.265  0.9537  1.7963  1.5192
 6662TIP3   OH241544   3.833   6.717   8.259  0.5527  0.1707  0.5135
 6662TIP3    H141545   3.922   6.731   8.289  0.2900  0.8426  1.0141
 6662TIP3    H241546   3.801   6.805   8.237 -0.1279 -0.0076  0.7588
 6663TIP3   OH241547   2.224   2.184   7.767  0.3950 -0.1203  0.1120
 6663TIP3    H141548   2.160   2.203   7.699  1.5279 -1.3576 -1.3735
 6663TIP3    H241549   2.243   2.269   7.807 -1.0454  0.4742 -0.4193
 6664TIP3   OH241550   3.646   4.086   7.399  0.4402 -0.1741  0.2685
 6664TIP3    H141551   3.679   4.047   7.480 -0.3175  0.0901  0.7128
 6664TIP3    H241552   3.555   4.058   7.394  0.7778 -1.1059 -1.0789
 6665TIP3   OH241553   6.486   2.855   1.145 -0.1642  0.3431 -0.0761
 6665TIP3    H141554   6.511   2.840   1.054 -0.2736  0.6710 -0.1625
 6665TIP3    H241555   6.447   2.943   1.144  0.3490  0.5743  0.3923
 6666TIP3   OH241556   0.828   2.421   7.064  0.0475  0.2121  0.7205
 6666TIP3    H141557   0.860   2.409   7.153 -0.1317  2.2448  1.1074
 6666TIP3    H241558   0.905   2.409   7.008  0.3348 -0.2338  1.2084
 6667TIP3   OH241559   0.153   4.515   0.780 -0.4403  0.0311 -0.3296
 6667TIP3    H141560   0.185   4.427   0.798  0.1234  0.5147  1.1507
 6667TIP3    H241561   0.130   4.551   0.866  0.2396  1.6596 -0.7802
 6668TIP3   OH241562   5.256   4.150   0.713 -0.0386 -0.0262  0.7749
 6668TIP3    H141563   5.331   4.101   0.678 -0.8811 -0.7901 -0.0347
 6668TIP3    H241564   5.197   4.158   0.638  0.7408  3.7072  0.3706
 6669TIP3   OH241565   5.607   3.624   6.481 -0.4406 -0.4562  0.7438
 6669TIP3    H141566   5.536   3.611   6.544 -0.5193 -1.9663  0.3788
 6669TIP3    H241567   5.686   3.629   6.535 -0.4687 -2.0436  0.9924
 6670TIP3   OH241568   5.216   1.398   1.036 -0.2739  0.3286 -1.0072
 6670TIP3    H141569   5.306   1.371   1.021 -0.2452 -1.1019  1.2021
 6670TIP3    H241570   5.164   1.321   1.015 -0.5238 -0.3953  1.8658
 6671TIP3   OH241571   3.386   0.680   8.817 -0.3583 -0.0644  0.2802
 6671TIP3    H141572   3.339   0.657   8.897  0.6012  0.5986  1.0602
 6671TIP3    H241573   3.318   0.711   8.758 -0.9187  0.9980  1.4248
 6672TIP3   OH241574   0.597   4.080   6.561  0.3132 -0.1517 -0.1182
 6672TIP3    H141575   0.668   4.143   6.570 -0.0214  0.4720 -1.6201
 6672TIP3    H241576   0.545   4.112   6.488 -0.9212 -1.1786  0.2680
 6673TIP3   OH241577   4.089   3.704   0.207  0.3590 -0.1463  0.3026
 6673TIP3    H141578   4.052   3.631   0.158  1.3028 -0.6234  0.2787
 6673TIP3    H241579   4.013   3.753   0.238 -0.2619 -0.1402 -1.1640
 6674TIP3   OH241580   2.011   3.248   7.554 -0.4579  0.3534  0.5974
 6674TIP3    H141581   2.024   3.284   7.642  0.0176 -2.1620  1.6437
 6674TIP3    H241582   1.916   3.250   7.542 -0.5314  0.7019  1.1989
 6675TIP3   OH241583   6.786   5.098   0.539  0.5741 -0.1292 -0.5935
 6675TIP3    H141584   6.775   5.019   0.592 -0.3288  1.5816  1.9536
 6675TIP3    H241585   6.705   5.105   0.488  0.0868 -0.1571  0.1699
 6676TIP3   OH241586   3.622   6.113   1.001  0.2493 -0.7757 -0.2937
 6676TIP3    H141587   3.569   6.138   0.926  0.0745 -0.4603 -0.0654
 6676TIP3    H241588   3.688   6.053   0.965 -0.6032 -1.6208 -0.4782
 6677TIP3   OH241589   6.201   2.573   8.082 -0.2308  0.0396  0.2769
 6677TIP3    H141590   6.106   2.581   8.082 -0.1227  1.9677  1.1937
 6677TIP3    H241591   6.219   2.494   8.032 -2.2389  0.5733 -1.3951
 6678TIP3   OH241592   4.808   0.405   2.069 -0.5633 -0.0492 -0.1610
 6678TIP3    H141593   4.800   0.400   2.164 -1.6703 -0.5165 -0.2658
 6678TIP3    H241594   4.791   0.316   2.038  0.4007 -0.0376 -0.7693
 6679TIP3   OH241595   3.825   4.048   6.687  0.0922 -0.0060  0.7271
 6679TIP3    H141596   3.911   4.081   6.714  0.8110 -2.4287  1.6748
 6679TIP3    H241597   3.843   3.999   6.607 -0.4691 -0.2890  0.7700
 6680TIP3   OH241598   2.878   3.988   8.517 -0.0338  0.1045  0.7545
 6680TIP3    H141599   2.933   3.963   8.443  1.6708  0.2874  1.8976
 6680TIP3    H241600   2.876   3.910   8.573 -2.1745 -0.3856  0.0669
 6681TIP3   OH241601   5.048   5.971   8.335  0.5476 -0.5215  0.2551
 6681TIP3    H141602   5.077   6.008   8.252  1.6012  0.0545  0.8647
 6681TIP3    H241603   5.037   6.047   8.393  0.3100 -0.9591  0.7949
 6682TIP3   OH241604   0.670   6.203   1.609  0.4541  0.2687  0.6186
 6682TIP3    H141605   0.598   6.247   1.563 -0.4399 -1.0814  0.6454
 6682TIP3    H241606   0.677   6.118   1.566  1.1575 -0.1313  1.4898
 6683TIP3   OH241607   2.190   1.490   7.603  0.4037  0.3715 -0.3490
 6683TIP3    H141608   2.239   1.530   7.531  2.1039 -1.0899 -0.0657
 6683TIP3    H241609   2.098   1.500   7.577  0.8771  1.8519 -1.6322
 6684TIP3   OH241610   3.049   3.823   1.212  0.4975  0.1696 -0.1931
 6684TIP3    H141611   3.006   3.901   1.247  0.7500  0.2695 -0.1038
 6684TIP3    H241612   2.978   3.759   1.201  0.7979 -0.9950  3.4156
 6685TIP3   OH241613   2.781   0.021   1.577  0.0757  0.4316  0.7538
 6685TIP3    H141614   2.841   0.093   1.559 -1.1768  1.5608  0.8758
 6685TIP3    H241615   2.696   0.054   1.548 -0.2948 -1.6336 -0.7266
 6686TIP3   OH241616   1.037   1.841   8.004  0.7644 -0.2488  0.8843
 6686TIP3    H141617   1.093   1.786   8.058  2.1214  1.1218  0.9373
 6686TIP3    H241618   1.010   1.783   7.932  0.6427 -1.4800  1.8761
 6687TIP3   OH241619   1.782   2.943   7.572  0.2061  0.3387  0.5212
 6687TIP3    H141620   1.811   3.034   7.568 -0.2107  0.4565  0.1074
 6687TIP3    H241621   1.864   2.892   7.574  0.4449  0.6937  0.0558
 6688TIP3   OH241622   5.107   0.696   1.829  0.0746 -0.1994  0.6812
 6688TIP3    H141623   5.098   0.770   1.888  0.1600  1.2538 -1.0341
 6688TIP3    H241624   5.039   0.709   1.763  3.0813  1.2271 -2.4911
 6689TIP3   OH241625   0.304   6.176   8.431  0.1894  0.1626 -0.0074
 6689TIP3    H141626   0.398   6.193   8.419  0.3700 -1.3139 -0.9593
 6689TIP3    H241627   0.282   6.114   8.361 -1.5381  0.6002  0.1109
 6690TIP3   OH241628   5.439   2.855   8.466  0.3762 -0.2830  0.1373
 6690TIP3    H141629   5.514   2.908   8.494  0.1781 -0.1401  0.3984
 6690TIP3    H241630   5.383   2.850   8.543  1.4953 -2.8591  0.9105
 6691TIP3   OH241631   0.342   0.199   7.284 -0.4681  0.0161 -0.1572
 6691TIP3    H141632   0.430   0.163   7.296 -0.8009 -0.2216  2.0547
 6691TIP3    H241633   0.298   0.136   7.227  0.6316 -0.1477 -0.8370
 6692TIP3   OH241634   1.410   5.762   7.799  0.0299  0.3273  0.0824
 6692TIP3    H141635   1.499   5.765   7.834  0.6000  0.3243 -1.3249
 6692TIP3    H241636   1.356   5.800   7.869  1.1002  0.1954  1.0121
 6693TIP3   OH241637   0.522   5.849   0.117 -0.2721 -0.0360  0.4410
 6693TIP3    H141638   0.491   5.813   0.034  0.9091  0.0880 -0.0733
 6693TIP3    H241639   0.459   5.819   0.182 -0.7781 -0.7890 -0.3884
 6694TIP3   OH241640   4.301   5.569   7.887  1.1764 -0.0942  0.1327
 6694TIP3    H141641   4.355   5.598   7.960  1.9610 -1.2054  0.0179
 6694TIP3    H241642   4.310   5.639   7.822  0.8397  0.6816  0.8929
 6695TIP3   OH241643   1.003   5.594   1.757  0.8544  0.0473  0.0333
 6695TIP3    H141644   1.086   5.557   1.726  0.8116 -0.0757  0.0655
 6695TIP3    H241645   1.000   5.570   1.850  0.4279 -0.6028 -0.1377
 6696TIP3   OH241646   3.433   2.349   6.114 -0.2159  0.4657 -0.1886
 6696TIP3    H141647   3.495   2.286   6.077  2.4134  2.3296  0.7288
 6696TIP3    H241648   3.442   2.338   6.209 -0.8888  1.1822 -0.0344
 6697TIP3   OH241649   2.616   0.684   0.480 -0.0207  0.0246 -0.4741
 6697TIP3    H141650   2.556   0.710   0.410  0.4587  2.6886 -0.0010
 6697TIP3    H241651   2.560   0.675   0.558 -0.0285  1.0519 -0.3521
 6698TIP3   OH241652   1.057   2.142   0.844  0.2751  0.1303 -0.3705
 6698TIP3    H141653   1.150   2.124   0.858  0.5628 -0.2663 -2.4349
 6698TIP3    H241654   1.015   2.056   0.853  0.3963 -0.0364 -1.2342
 6699TIP3   OH241655   0.663   4.215   8.517 -0.5266 -0.9991 -0.3556
 6699TIP3    H141656   0.749   4.217   8.558 -0.5610  0.0212 -0.2894
 6699TIP3    H241657   0.672   4.273   8.441 -1.2271 -0.6571 -0.1852
 6700TIP3   OH241658   5.800   6.270   1.105 -0.9445  0.5666  0.1201
 6700TIP3    H141659   5.782   6.333   1.036  0.5349 -0.5393 -1.3882
 6700TIP3    H241660   5.828   6.191   1.058 -1.3011 -0.7195  1.9611
 6701TIP3   OH241661   1.986   6.675   7.067 -0.4426  0.0874 -0.4790
 6701TIP3    H141662   2.029   6.749   7.112 -0.0076 -0.0622 -0.6464
 6701TIP3    H241663   2.055   6.609   7.059 -0.2874  0.4201 -2.0993
 6702TIP3   OH241664   6.482   1.290   8.680 -0.1925  0.0652 -0.6334
 6702TIP3    H141665   6.557   1.271   8.623  1.1414 -1.7781  1.5353
 6702TIP3    H241666   6.514   1.359   8.738  0.9148 -2.4775  1.9867
 6703TIP3   OH241667   4.319   3.658   8.138 -0.7583  0.1893 -0.6907
 6703TIP3    H141668   4.240   3.633   8.185 -0.9447  1.7349 -0.1267
 6703TIP3    H241669   4.318   3.753   8.138  0.2374  0.2389 -2.1701
 6704TIP3   OH241670   0.684   4.043   1.678 -0.3837  0.2449  0.0144
 6704TIP3    H141671   0.688   3.953   1.710  1.4916 -0.0204 -0.8011
 6704TIP3    H241672   0.674   4.035   1.583  2.1252  0.7696 -0.3684
 6705TIP3   OH241673   5.482   1.613   8.360 -0.1075 -0.4403 -0.1806
 6705TIP3    H141674   5.435   1.604   8.277  1.1653 -0.3158 -0.9378
 6705TIP3    H241675   5.561   1.560   8.349  0.2567 -0.1295  0.8170
 6706TIP3   OH241676   5.145   0.638   7.711  0.5195  0.0922  0.6129
 6706TIP3    H141677   5.145   0.690   7.791 -4.3629 -0.5112  1.3497
 6706TIP3    H241678   5.119   0.550   7.740 -2.7147  0.1572 -1.5167
 6707TIP3   OH241679   5.825   3.733   0.471 -0.5325 -0.3509  0.2535
 6707TIP3    H141680   5.848   3.826   0.461 -1.0563 -0.3889 -1.6537
 6707TIP3    H241681   5.818   3.700   0.381  0.7594 -2.5535  0.8912
 6708TIP3   OH241682   0.789   3.489   7.855  0.5733  0.3561 -0.3519
 6708TIP3    H141683   0.836   3.432   7.795 -0.1494  0.2279 -0.8137
 6708TIP3    H241684   0.769   3.567   7.804  1.5708  1.0376  0.2833
 6709TIP3   OH241685   6.043   0.164   8.648  0.2917  0.4867  0.1080
 6709TIP3    H141686   5.957   0.130   8.672  1.3376 -1.3025  1.5494
 6709TIP3    H241687   6.072   0.211   8.726 -0.1303  2.8549 -1.0506
 6710TIP3   OH241688   4.055   6.220   7.957  0.0217  0.1168 -0.2564
 6710TIP3    H141689   3.979   6.278   7.961  0.1798  0.2798  1.9047
 6710TIP3    H241690   4.129   6.278   7.938 -0.2280  0.1254 -1.2388
 6711TIP3   OH241691   3.131   1.974   8.720 -0.1426 -0.2071 -0.7547
 6711TIP3    H141692   3.215   2.020   8.729 -0.3797  0.2213 -0.6987
 6711TIP3    H241693   3.132   1.938   8.632 -0.0647  0.1385 -0.8965
 6712TIP3   OH241694   3.341   5.410   7.067 -0.7375  0.4716 -0.1005
 6712TIP3    H141695   3.308   5.367   6.988 -0.6508  0.7335 -0.2817
 6712TIP3    H241696   3.275   5.476   7.087 -0.6486  0.5560 -0.0858
 6713TIP3   OH241697   2.315   2.614   8.170  0.4579  0.7872  0.1938
 6713TIP3    H141698   2.286   2.601   8.080  2.9603  1.0982 -0.7549
 6713TIP3    H241699   2.338   2.527   8.201  0.1832  0.7593  0.3241
 6714TIP3   OH241700   3.906   3.430   7.636  0.5822 -0.0535  0.4407
 6714TIP3    H141701   3.978   3.446   7.575 -0.1298 -0.2388 -0.4716
 6714TIP3    H241702   3.921   3.342   7.669  1.0493  0.1000  0.6470
 6715TIP3   OH241703   3.901   6.295   7.077 -0.0175  0.0316  0.1832
 6715TIP3    H141704   3.824   6.246   7.103  0.7424 -0.7300  1.0343
 6715TIP3    H241705   3.935   6.247   7.001 -0.4971  0.5112 -0.3519
 6716TIP3   OH241706   5.937   0.001   8.342  0.0283  0.0029  0.6137
 6716TIP3    H141707   5.853  -0.043   8.353  0.5183 -1.2132 -0.2371
 6716TIP3    H241708   5.995  -0.039   8.407  0.2248  0.0645  0.4798
 6717TIP3   OH241709   4.903   2.263   7.606 -0.0483  0.0506  0.1523
 6717TIP3    H141710   4.958   2.267   7.528  0.4827 -2.1586  0.3284
 6717TIP3    H241711   4.817   2.293   7.577  0.2428 -0.3513 -1.1950
 6718TIP3   OH241712   1.464   2.323   8.438 -0.1585 -0.4501  0.3530
 6718TIP3    H141713   1.544   2.280   8.408 -0.5863 -1.7233  1.0006
 6718TIP3    H241714   1.494   2.383   8.507  0.5184  0.7917 -0.9624
 6719TIP3   OH241715   3.027   5.905   0.876 -0.2679  0.5539 -0.1085
 6719TIP3    H141716   3.098   5.875   0.933 -0.1921  1.8342  0.5206
 6719TIP3    H241717   3.059   5.888   0.787 -0.1069 -0.8656  0.1946
 6720TIP3   OH241718   4.722   5.197   7.961  0.3016 -0.1772 -0.5507
 6720TIP3    H141719   4.712   5.102   7.967  1.9171 -0.4962 -2.2265
 6720TIP3    H241720   4.639   5.228   7.924 -0.9999 -0.6364  1.7646
 6721TIP3   OH241721   3.115   0.736   7.956 -0.6084 -0.0081 -0.1512
 6721TIP3    H141722   3.126   0.829   7.974 -1.7894  0.0515  0.3981
 6721TIP3    H241723   3.030   0.731   7.911 -1.1222 -0.9239  0.8797
 6722TIP3   OH241724   4.721   4.968   6.543  0.9001 -0.1476  0.4912
 6722TIP3    H141725   4.684   4.887   6.580  0.6697  0.4416  1.5974
 6722TIP3    H241726   4.647   5.009   6.499  0.9185 -0.3424  0.2769
 6723TIP3   OH241727   2.481   3.968   8.618 -0.3406  0.0003 -0.3236
 6723TIP3    H141728   2.411   3.911   8.649  0.6629 -0.1314  1.8548
 6723TIP3    H241729   2.550   3.908   8.591  0.0337  0.1649  0.2702
 6724TIP3   OH241730   5.768   4.052   8.715 -0.0893 -0.0014 -0.4207
 6724TIP3    H141731   5.728   4.036   8.630 -0.2178 -0.6730 -0.2410
 6724TIP3    H241732   5.697   4.086   8.770 -0.2524 -0.5416 -0.2948
 6725TIP3   OH241733   4.702   1.790   0.825  0.0335 -0.6813  0.3375
 6725TIP3    H141734   4.737   1.750   0.745 -2.2315  0.3289 -1.2637
 6725TIP3    H241735   4.644   1.723   0.862  1.0934 -1.1555  1.2264
 6726TIP3   OH241736   6.130   3.637   8.566  0.0072 -0.7218  0.0010
 6726TIP3    H141737   6.089   3.712   8.524 -0.5150 -0.4026  1.0349
 6726TIP3    H241738   6.224   3.653   8.559 -0.0926 -0.2893 -0.3359
 6727TIP3   OH241739   2.081   1.214   8.443  0.4433  0.0223  0.0058
 6727TIP3    H141740   2.150   1.193   8.506 -0.0656  0.5216  0.7554
 6727TIP3    H241741   2.007   1.243   8.498  0.2324  1.1865 -0.8537
 6728TIP3   OH241742   0.154   1.448   7.329  0.1730 -0.3825  0.0978
 6728TIP3    H141743   0.125   1.538   7.312 -0.8028 -0.6630  0.1941
 6728TIP3    H241744   0.219   1.430   7.261 -0.4156  0.0260 -0.5890
 6729TIP3   OH241745   4.886   3.142   7.707  0.2198 -0.1556  0.7227
 6729TIP3    H141746   4.884   3.154   7.802 -0.5616 -2.0278  0.9786
 6729TIP3    H241747   4.795   3.152   7.679  0.5270  0.9517  0.0681
 6730TIP3   OH241748   5.292   3.388   7.792 -0.4115  0.2279  0.2867
 6730TIP3    H141749   5.333   3.455   7.847 -0.2013 -0.2602  0.7294
 6730TIP3    H241750   5.364   3.331   7.766 -0.8962 -1.1254  1.7571
 6731TIP3   OH241751   6.032   4.686   1.455 -0.8385  0.3426 -0.0152
 6731TIP3    H141752   6.076   4.604   1.432  0.8984  1.0014  0.8139
 6731TIP3    H241753   5.946   4.679   1.414 -0.8102 -1.9749  0.1835
 6732TIP3   OH241754   0.473   0.190   6.304 -0.5448  0.3252 -0.3448
 6732TIP3    H141755   0.480   0.103   6.344 -0.8359 -0.9465 -2.8529
 6732TIP3    H241756   0.381   0.197   6.279 -0.9650  2.2254  1.5198
 6733TIP3   OH241757   1.317   2.868   8.207  0.4666 -0.3523 -0.1107
 6733TIP3    H141758   1.412   2.857   8.200  0.6331  0.4776  0.6401
 6733TIP3    H241759   1.300   2.955   8.171 -0.0056 -0.4601 -0.1642
 6734TIP3   OH241760   0.404   2.338   7.871  0.5213  0.1219  0.3356
 6734TIP3    H141761   0.322   2.328   7.822  0.2791  2.9585  0.0221
 6734TIP3    H241762   0.471   2.349   7.803  0.4207  2.4651  0.5427
 6735TIP3   OH241763   4.350   0.162   7.969  0.4217  0.2685 -0.1056
 6735TIP3    H141764   4.318   0.252   7.970 -2.1459 -0.5249  1.8257
 6735TIP3    H241765   4.404   0.155   8.047 -0.9328 -0.2723  0.8267
 6736TIP3   OH241766   5.803   4.191   7.782 -1.0069 -0.2816 -0.2864
 6736TIP3    H141767   5.846   4.122   7.731  1.1047 -0.6296  1.7844
 6736TIP3    H241768   5.763   4.145   7.856  0.0181  0.6218  0.8685
 6737TIP3   OH241769   6.241   6.243   0.732 -0.9782 -0.2724  0.1276
 6737TIP3    H141770   6.222   6.176   0.666 -1.7521 -0.1091  0.1776
 6737TIP3    H241771   6.184   6.221   0.805  0.1874 -0.7152  0.9348
 6738TIP3   OH241772   1.186   1.493   8.426  1.0093 -0.2046  0.2505
 6738TIP3    H141773   1.220   1.427   8.366  0.0271 -0.7255  0.2515
 6738TIP3    H241774   1.228   1.575   8.398 -0.8009 -0.0357 -2.4094
 6739TIP3   OH241775   4.806   0.497   7.845 -0.0939  0.0298 -0.4023
 6739TIP3    H141776   4.819   0.449   7.763 -1.7240  0.1040 -0.7340
 6739TIP3    H241777   4.855   0.446   7.910  0.0444 -0.8285 -1.1552
 6740TIP3   OH241778   2.043   1.794   5.998  0.0594 -0.0395  0.4765
 6740TIP3    H141779   2.073   1.810   5.909  0.0344  0.4160  0.5447
 6740TIP3    H241780   2.026   1.881   6.033 -0.1022 -0.2251  0.8673
 6741TIP3   OH241781   2.430   6.518   8.710 -0.7090 -0.0392 -0.2296
 6741TIP3    H141782   2.507   6.481   8.754 -0.1374 -1.1778 -2.0897
 6741TIP3    H241783   2.357   6.464   8.741 -0.3677 -0.5880 -0.3514
 6742TIP3   OH241784   4.659   1.355   1.977 -0.0259 -0.9456  0.4608
 6742TIP3    H141785   4.717   1.422   2.013 -1.9746  0.8647  0.4110
 6742TIP3    H241786   4.717   1.298   1.926  1.4664  2.1099 -1.5690
 6743TIP3   OH241787   4.012   0.669   1.984 -0.1805  0.3084 -0.0268
 6743TIP3    H141788   3.945   0.711   1.930  0.2096  0.6211 -0.2781
 6743TIP3    H241789   4.055   0.742   2.029 -0.9110  0.0053  1.1973
 6744TIP3   OH241790   2.752   3.329   1.560 -0.2066  0.1462  0.0052
 6744TIP3    H141791   2.779   3.274   1.634 -0.6510 -0.5939 -0.3783
 6744TIP3    H241792   2.669   3.292   1.531 -0.4429  0.9315 -0.3601
 6745TIP3   OH241793   2.399   4.581   0.836 -0.3806 -0.1404 -0.1479
 6745TIP3    H141794   2.338   4.609   0.768 -1.3724  1.0996  1.1830
 6745TIP3    H241795   2.356   4.606   0.918  1.6404  0.1802  0.8633
 6746TIP3   OH241796   4.032   3.329   2.048  0.2581  0.4346 -0.3156
 6746TIP3    H141797   4.010   3.268   2.118  0.2845 -0.6058 -1.1888
 6746TIP3    H241798   4.127   3.338   2.052  0.4925 -1.1395 -1.3917
 6747TIP3   OH241799   3.626   5.638   0.341  0.2787  0.2467  0.0923
 6747TIP3    H141800   3.660   5.708   0.397 -0.5312  0.9541 -0.2814
 6747TIP3    H241801   3.600   5.682   0.260 -1.5516 -0.2430  0.3599
 6748TIP3   OH241802   1.213   1.167   7.724 -0.4909 -0.0877  0.2023
 6748TIP3    H141803   1.143   1.184   7.787 -0.0322  0.4676  0.5641
 6748TIP3    H241804   1.291   1.153   7.778  0.0637  1.1230 -0.2568
 6749TIP3   OH241805   0.155   2.552   0.468  0.7403  0.5757  0.4667
 6749TIP3    H141806   0.249   2.542   0.477  0.7371 -0.8405 -0.6695
 6749TIP3    H241807   0.144   2.609   0.392  0.7280 -0.8970 -0.7033
 6750TIP3   OH241808   4.157   1.607   1.159 -0.1679 -0.5978 -0.8439
 6750TIP3    H141809   4.110   1.675   1.206  2.0278 -1.2893  2.7196
 6750TIP3    H241810   4.195   1.653   1.084 -0.1667  1.7415  0.4802
 6751TIP3   OH241811   4.762   5.778   1.442  0.2731  0.1386  0.6180
 6751TIP3    H141812   4.681   5.822   1.417  0.1518 -0.6345 -0.3616
 6751TIP3    H241813   4.747   5.750   1.533 -0.5208  0.0581  0.4664
 6752TIP3   OH241814   6.111   3.663   1.897 -0.1910 -0.2148  0.5195
 6752TIP3    H141815   6.185   3.712   1.932 -0.3291  0.6926 -0.4197
 6752TIP3    H241816   6.062   3.726   1.845 -1.1563 -1.0140  0.4185
 6753TIP3   OH241817   0.143   1.562   0.108 -0.0821  0.0920 -0.1658
 6753TIP3    H141818   0.206   1.609   0.162 -0.2336 -0.4507  0.4878
 6753TIP3    H241819   0.129   1.620   0.033  1.2476  0.1855 -0.3667
 6754TIP3   OH241820   3.213   3.253   8.031 -0.2683 -0.2294 -0.7557
 6754TIP3    H141821   3.309   3.253   8.032 -0.2210  0.9873 -1.9220
 6754TIP3    H241822   3.189   3.162   8.049  1.0166 -0.1671  1.7660
 6755TIP3   OH241823   4.254   3.925   8.140  0.1877  0.2760  0.4294
 6755TIP3    H141824   4.230   3.913   8.048 -0.2519  0.7275  0.4771
 6755TIP3    H241825   4.227   4.015   8.160 -0.6568 -0.1559  1.2806
 6756TIP3   OH241826   3.851   3.090   8.071 -0.5903  0.1145 -0.6707
 6756TIP3    H141827   3.846   2.994   8.066 -0.6244  0.0769  0.0466
 6756TIP3    H241828   3.792   3.114   8.142  1.4209  0.4376  1.0018
 6757TIP3   OH241829   2.087   6.427   0.875 -0.0533  0.2322 -0.4668
 6757TIP3    H141830   2.118   6.354   0.929  1.8431  0.3871 -1.2544
 6757TIP3    H241831   1.992   6.416   0.872 -0.0619 -0.6690  1.5729
 6758TIP3   OH241832   0.045   6.269   8.120  0.7526 -0.3299  0.3173
 6758TIP3    H141833   0.027   6.355   8.158  1.6156  0.1249 -0.2676
 6758TIP3    H241834   0.140   6.261   8.124  0.9090 -0.1769 -1.8806
 6759TIP3   OH241835   0.368   3.962   6.673  0.1859 -0.3999 -0.5956
 6759TIP3    H141836   0.450   4.010   6.660 -0.9925  1.6698 -0.8295
 6759TIP3    H241837   0.314   3.985   6.598 -1.3284 -0.1300  0.5222
 6760TIP3   OH241838   5.519   1.642   1.849  0.3037  0.3028  0.0815
 6760TIP3    H141839   5.424   1.637   1.861  0.3833 -0.5526  0.4300
 6760TIP3    H241840   5.544   1.725   1.891 -0.3107  0.6456 -0.2083
 6761TIP3   OH241841   1.653   0.427   1.595  0.4447  0.3127 -0.0510
 6761TIP3    H141842   1.626   0.518   1.607  1.7065  0.6314  0.5408
 6761TIP3    H241843   1.606   0.378   1.664  0.0697  0.5706 -0.1214
 6762TIP3   OH241844   3.651   4.315   0.737  0.1167 -0.1189  0.5274
 6762TIP3    H141845   3.580   4.356   0.688  1.1686  0.9832 -0.1506
 6762TIP3    H241846   3.650   4.358   0.822  0.3063  0.2969  0.3230
 6763TIP3   OH241847   1.206   4.674   7.810  0.1171 -0.0746  0.1621
 6763TIP3    H141848   1.144   4.633   7.750 -0.2961  0.3251  0.3165
 6763TIP3    H241849   1.252   4.600   7.851  0.3702 -0.3503 -0.6040
 6764TIP3   OH241850   0.271   3.467   1.611 -0.0846 -0.0341 -0.7502
 6764TIP3    H141851   0.353   3.418   1.615  0.5640  0.9800 -1.2465
 6764TIP3    H241852   0.242   3.474   1.703  0.4796 -0.2266 -0.5570
 6765TIP3   OH241853   3.614   0.315   1.144  0.4226  0.4739  0.3708
 6765TIP3    H141854   3.670   0.241   1.166 -1.1839 -1.4116 -1.5109
 6765TIP3    H241855   3.551   0.319   1.216  0.1221 -0.4439  0.1740
 6766TIP3   OH241856   0.674   5.112   1.644 -0.1326 -0.1086 -0.0451
 6766TIP3    H141857   0.676   5.082   1.735 -1.7207  0.3127  0.1700
 6766TIP3    H241858   0.636   5.200   1.649 -0.7085 -0.2779 -1.1434
 6767TIP3   OH241859   5.484   2.155   0.161  0.7014 -0.3214 -0.2932
 6767TIP3    H141860   5.578   2.170   0.146  0.9489 -0.1909  1.1907
 6767TIP3    H241861   5.449   2.134   0.075  2.1928 -0.8787 -0.8010
 6768TIP3   OH241862   5.103   6.550   1.846 -0.1437 -0.2646  0.3064
 6768TIP3    H141863   5.146   6.630   1.879 -2.0787  1.8041 -1.8200
 6768TIP3    H241864   5.150   6.529   1.766 -0.5744 -0.3629  0.0774
 6769TIP3   OH241865   5.465   5.449   1.213 -0.3467 -0.3041  0.0216
 6769TIP3    H141866   5.384   5.399   1.221  0.3650 -1.8209 -1.4587
 6769TIP3    H241867   5.467   5.477   1.121 -0.0825  1.3544  0.5033
 6770TIP3   OH241868   2.794   1.779   8.071 -0.3392 -0.0663 -0.2914
 6770TIP3    H141869   2.775   1.808   7.982  1.4920 -0.9005 -1.0271
 6770TIP3    H241870   2.889   1.762   8.070 -0.6841 -2.5677  1.0471
 6771TIP3   OH241871   3.361   5.775   6.541  0.7544  0.7270  0.1681
 6771TIP3    H141872   3.281   5.736   6.576  2.0120 -0.2522  2.0979
 6771TIP3    H241873   3.401   5.706   6.487  1.0508  0.6799  0.4438
 6772TIP3   OH241874   5.069   5.377   8.120 -0.0340  0.2026 -0.4853
 6772TIP3    H141875   5.113   5.294   8.139  0.1492  0.4499  0.2324
 6772TIP3    H241876   5.073   5.386   8.025 -1.6272 -1.4687 -0.7639
 6773TIP3   OH241877   0.763   5.839   7.648 -0.1280  0.1654  1.0882
 6773TIP3    H141878   0.742   5.887   7.567  1.7583  1.7232  1.4595
 6773TIP3    H241879   0.775   5.749   7.619 -1.2693  0.3509 -0.0625
 6774TIP3   OH241880   4.587   2.269   8.313  0.1401 -0.0865  0.3398
 6774TIP3    H141881   4.603   2.175   8.305 -1.4552 -0.2024 -2.5862
 6774TIP3    H241882   4.669   2.303   8.350  1.7012 -2.3176 -0.8072
 6775TIP3   OH241883   5.400   1.582   1.422 -0.2478  0.2301  0.1947
 6775TIP3    H141884   5.441   1.510   1.470  2.1349  1.6289  0.4594
 6775TIP3    H241885   5.412   1.559   1.330  0.6317  0.3249  0.2759
 6776TIP3   OH241886   1.419   2.707   6.720 -0.4942 -0.0328 -0.2737
 6776TIP3    H141887   1.391   2.628   6.766 -1.0751 -0.0351 -0.6337
 6776TIP3    H241888   1.369   2.777   6.761  0.8082  0.3135  0.7913
 6777TIP3   OH241889   2.531   6.712   2.078 -0.4481  0.3585  0.2311
 6777TIP3    H141890   2.508   6.757   2.159  0.1582 -0.3669  0.8186
 6777TIP3    H241891   2.514   6.777   2.009  0.9116  1.6943  1.0959
 6778TIP3   OH241892   3.625   2.908   7.182 -0.4882  0.2225  0.1514
 6778TIP3    H141893   3.582   2.969   7.122  1.5019  1.2071 -0.3730
 6778TIP3    H241894   3.710   2.949   7.201 -0.1085 -1.1997  1.7876
 6779TIP3   OH241895   2.831   2.666   1.229  0.3766  0.1107 -0.0320
 6779TIP3    H141896   2.744   2.653   1.190 -0.6643 -1.3749  2.5378
 6779TIP3    H241897   2.824   2.750   1.274  1.7840  2.1493 -3.2397
 6780TIP3   OH241898   5.077   3.636   8.649 -0.6937 -0.3183  0.1150
 6780TIP3    H141899   5.116   3.647   8.562  0.8297 -1.3731  0.6372
 6780TIP3    H241900   5.005   3.575   8.634  0.0251 -1.0869 -0.2994
 6781TIP3   OH241901   5.422   0.667   0.585 -0.0248  0.6843  0.1649
 6781TIP3    H141902   5.392   0.722   0.656  0.3185 -0.1731  0.9967
 6781TIP3    H241903   5.487   0.608   0.625 -0.1404 -0.1012 -0.7507
 6782TIP3   OH241904   5.419   4.951   7.255  0.9164  0.0118  0.2576
 6782TIP3    H141905   5.446   4.964   7.346 -0.1004  0.6736  0.4733
 6782TIP3    H241906   5.480   5.005   7.204  0.2267  1.2716  0.7174
 6783TIP3   OH241907   6.323   0.126   8.016  0.5493  0.6858 -0.3156
 6783TIP3    H141908   6.318   0.220   8.037 -1.7115  0.3561  1.0458
 6783TIP3    H241909   6.254   0.114   7.950  0.2232 -0.1430  0.1677
 6784TIP3   OH241910   3.696   0.253   7.162  0.2157  0.2077 -0.5935
 6784TIP3    H141911   3.760   0.226   7.097  1.6452  1.9765 -0.0025
 6784TIP3    H241912   3.738   0.324   7.209 -1.1665 -0.3523  1.6261
 6785TIP3   OH241913   3.396   0.197   1.687  0.3839  0.2385  0.1817
 6785TIP3    H141914   3.303   0.186   1.667 -0.0263  0.2388  1.9496
 6785TIP3    H241915   3.409   0.292   1.688  0.3321  0.2452  0.2296
 6786TIP3   OH241916   3.878   3.966   6.227  0.3501  0.0435  0.0007
 6786TIP3    H141917   3.886   3.908   6.303 -0.6204  1.0629  0.9099
 6786TIP3    H241918   3.946   4.032   6.241  1.5713 -0.9317 -1.1231
 6787TIP3   OH241919   1.186   4.464   6.081  0.8355  0.3261  0.3395
 6787TIP3    H141920   1.105   4.435   6.038  0.9157 -0.4902  0.7142
 6787TIP3    H241921   1.255   4.415   6.037  0.9018 -0.6848  1.4962
 6788TIP3   OH241922   0.156   0.700   7.179 -0.6831  0.1091 -0.0042
 6788TIP3    H141923   0.168   0.670   7.089  0.2143 -1.1568  0.4970
 6788TIP3    H241924   0.208   0.638   7.231 -2.3073 -0.0325  1.5125
 6789TIP3   OH241925   2.691   0.429   7.818 -0.1804  0.1733 -0.1407
 6789TIP3    H141926   2.688   0.391   7.906  1.1914 -1.5210 -0.7680
 6789TIP3    H241927   2.679   0.354   7.759 -2.6366  1.4463 -1.4535
 6790TIP3   OH241928   4.119   1.924   2.448 -0.0232  0.0862 -0.2636
 6790TIP3    H141929   4.102   1.988   2.517  0.4483  0.3825 -0.4218
 6790TIP3    H241930   4.035   1.879   2.436 -0.3829  0.7308 -0.2125
 6791TIP3   OH241931   5.667   4.595   0.545 -0.4702 -0.2323 -0.8643
 6791TIP3    H141932   5.652   4.690   0.541  0.9068  0.0707  0.3996
 6791TIP3    H241933   5.584   4.559   0.574 -0.3017  0.8739  1.1744
 6792TIP3   OH241934   0.714   6.058   1.362 -0.2332  0.1797 -0.0257
 6792TIP3    H141935   0.769   5.980   1.352  1.0829  1.0572  0.1480
 6792TIP3    H241936   0.715   6.099   1.276  1.6209  1.6087  0.6204
 6793TIP3   OH241937   5.995   3.868   8.037 -0.3155  0.0181 -0.5592
 6793TIP3    H141938   5.953   3.785   8.014  1.6723 -1.7677  1.6366
 6793TIP3    H241939   6.062   3.881   7.970 -0.5073 -0.2486 -0.8053
 6794TIP3   OH241940   1.869   4.332   0.467 -0.6159  0.2013  0.0752
 6794TIP3    H141941   1.851   4.413   0.419 -0.4001 -0.3337 -0.9207
 6794TIP3    H241942   1.802   4.271   0.437 -0.6479 -0.0625  0.6713
 6795TIP3   OH241943   2.775   4.535   8.071  0.0939 -0.1019  0.5918
 6795TIP3    H141944   2.715   4.605   8.098  0.9360  0.6388  0.5790
 6795TIP3    H241945   2.841   4.533   8.140  0.7662 -0.0274 -0.0344
 6796TIP3   OH241946   5.830   6.108   6.212  0.1267 -0.8774 -0.0533
 6796TIP3    H141947   5.744   6.102   6.169  0.1294 -1.5518  0.0171
 6796TIP3    H241948   5.820   6.179   6.275  0.4205  0.8226 -1.8080
 6797TIP3   OH241949   3.726   1.500   6.377 -0.4812 -0.0684  0.2113
 6797TIP3    H141950   3.634   1.524   6.369 -0.0914  1.4317 -0.1099
 6797TIP3    H241951   3.763   1.565   6.436  0.2383 -1.1111  0.9509
 6798TIP3   OH241952   0.989   5.415   0.705 -0.2341 -0.2998  0.7197
 6798TIP3    H141953   0.928   5.364   0.652 -1.5574  2.4518 -0.6478
 6798TIP3    H241954   0.964   5.396   0.796 -0.1724 -2.5231  0.3216
 6799TIP3   OH241955   3.438   0.952   7.250 -0.2184 -0.5636 -0.2972
 6799TIP3    H141956   3.344   0.971   7.250 -0.1553 -0.2269  0.4125
 6799TIP3    H241957   3.479   1.029   7.289  0.0668 -1.9662  2.3867
 6800TIP3   OH241958   5.750   5.573   6.717  0.3988 -0.1411 -0.0601
 6800TIP3    H141959   5.761   5.668   6.707 -0.0921 -0.1746 -1.0479
 6800TIP3    H241960   5.713   5.562   6.804  0.9871  0.5328  0.2833
 6801TIP3   OH241961   2.404   3.797   8.837 -0.2110  0.3599  0.2665
 6801TIP3    H141962   2.347   3.770   8.909 -1.3587 -2.4059 -1.5260
 6801TIP3    H241963   2.488   3.756   8.855 -1.2570 -2.7013 -1.1847
 6802TIP3   OH241964   6.401   1.063   8.433 -0.6258  0.3089 -0.2593
 6802TIP3    H141965   6.334   1.081   8.367 -1.8868  1.0181  1.1604
 6802TIP3    H241966   6.459   1.139   8.430 -1.5813  1.0948  0.4889
 6803TIP3   OH241967   1.059   2.792   0.645 -0.3456 -0.1105  0.2303
 6803TIP3    H141968   1.061   2.876   0.690 -0.9064  0.6232 -1.0524
 6803TIP3    H241969   1.150   2.777   0.618 -0.5407  1.1298 -1.3102
 6804TIP3   OH241970   3.627   1.274   7.128  0.6052 -0.0905  0.0749
 6804TIP3    H141971   3.680   1.311   7.199 -0.1546 -0.7972  1.0429
 6804TIP3    H241972   3.681   1.204   7.091  1.1304  0.4843 -0.2604
 6805TIP3   OH241973   2.434   1.598   7.266  0.0394  0.1603  0.2594
 6805TIP3    H141974   2.403   1.629   7.351  1.3541 -0.6211  1.0671
 6805TIP3    H241975   2.418   1.671   7.206 -2.8521 -0.0342  0.6754
 6806TIP3   OH241976   1.189   0.392   0.599 -0.4290  0.0598 -0.8638
 6806TIP3    H141977   1.111   0.434   0.562  0.0961 -0.6616 -2.9420
 6806TIP3    H241978   1.156   0.335   0.667 -1.5024  1.2446 -0.3517
 6807TIP3   OH241979   6.654   3.272   0.086 -0.8580  0.3552 -0.0376
 6807TIP3    H141980   6.734   3.316   0.112 -0.7089  0.0616  0.0052
 6807TIP3    H241981   6.622   3.230   0.166 -1.1259  0.5816 -0.0241
 6808TIP3   OH241982   3.144   4.678   7.156 -0.5594  0.1952 -0.2857
 6808TIP3    H141983   3.123   4.693   7.063 -1.3537  1.3480  0.0664
 6808TIP3    H241984   3.112   4.756   7.201 -0.2451 -0.3877  0.9825
 6809TIP3   OH241985   3.447   4.661   2.150  0.0417  0.2084 -0.0681
 6809TIP3    H141986   3.412   4.723   2.213  0.5179 -1.0758  1.5256
 6809TIP3    H241987   3.415   4.692   2.065 -0.4554  2.0891  0.7631
 6810TIP3   OH241988   1.896   4.174   8.508  0.5742  0.2588  0.3502
 6810TIP3    H141989   1.943   4.171   8.592 -0.3090 -3.4003  0.8824
 6810TIP3    H241990   1.960   4.144   8.444  0.1354 -0.9608  0.4516
 6811TIP3   OH241991   5.705   2.803   1.198 -0.0509  0.4850  0.1706
 6811TIP3    H141992   5.723   2.854   1.276 -0.2421 -1.1113  1.3143
 6811TIP3    H241993   5.792   2.779   1.164  0.0691 -1.0194  1.4406
 6812TIP3   OH241994   0.564   5.066   1.196 -0.3192  0.2029 -0.0596
 6812TIP3    H141995   0.587   4.980   1.161 -0.3853 -0.1637  0.7739
 6812TIP3    H241996   0.629   5.082   1.264 -1.8052 -0.3649  1.5842
 6813TIP3   OH241997   2.856   0.556   0.597 -0.3778  0.5275 -0.3067
 6813TIP3    H141998   2.844   0.562   0.692 -1.2739  0.1285 -0.3796
 6813TIP3    H241999   2.772   0.585   0.561 -0.4374 -0.3975 -0.9447
 6814TIP3   OH242000   4.229   5.033   7.185  0.3835  0.0240 -0.4401
 6814TIP3    H142001   4.286   4.993   7.250  0.5973 -1.4501 -1.4938
 6814TIP3    H242002   4.284   5.102   7.146  0.4014  0.6191  0.5840
 6815TIP3   OH242003   0.146   1.299   7.788  0.2047  0.2573 -0.1102
 6815TIP3    H142004   0.181   1.305   7.699 -1.2843 -1.1197 -0.8237
 6815TIP3    H242005   0.060   1.340   7.782 -0.9488 -2.0010  0.0638
 6816TIP3   OH242006   2.900   5.729   6.907 -0.1895  0.2798  0.6160
 6816TIP3    H142007   2.898   5.728   6.811  3.3756  1.8926  0.3630
 6816TIP3    H242008   2.825   5.784   6.932  0.3015  2.0332 -1.4496
 6817TIP3   OH242009   0.511   5.534   7.633  0.0870  0.5425 -0.2757
 6817TIP3    H142010   0.496   5.592   7.707 -0.4540 -0.2304  0.2345
 6817TIP3    H242011   0.519   5.593   7.558  0.1746  1.3042  0.3182
 6818TIP3   OH242012   2.049   4.342   0.189 -0.2613  0.1586 -0.0025
 6818TIP3    H142013   1.961   4.376   0.170 -0.4065 -0.3385 -0.2562
 6818TIP3    H242014   2.037   4.247   0.194  0.1020  0.1560  0.8736
 6819TIP3   OH242015   2.586   3.315   6.587  0.2670  0.7451  0.4812
 6819TIP3    H142016   2.673   3.279   6.603 -0.6559 -1.0211  1.7749
 6819TIP3    H242017   2.558   3.350   6.672  0.0147  2.0732 -0.1164
 6820TIP3   OH242018   3.846   3.097   8.540 -0.6132 -0.4103 -0.3920
 6820TIP3    H142019   3.833   3.173   8.596 -0.1378 -0.0205 -0.7962
 6820TIP3    H242020   3.931   3.061   8.567  1.2509  1.6655 -2.9226
 6821TIP3   OH242021   2.454   5.926   2.083  0.4175  0.3219 -0.4930
 6821TIP3    H142022   2.507   5.895   2.157 -1.3279  1.9659  1.6197
 6821TIP3    H242023   2.454   6.021   2.092 -0.2115  0.5352 -2.3822
 6822TIP3   OH242024   3.008   6.437   0.403 -0.0066 -0.3555  0.0892
 6822TIP3    H142025   2.964   6.439   0.487  0.8354  1.6260  0.5351
 6822TIP3    H242026   2.974   6.512   0.355 -0.3085 -1.3222 -1.2738
 6823TIP3   OH242027   0.677   4.331   6.808  0.3791  0.0642  0.2930
 6823TIP3    H142028   0.657   4.404   6.867 -0.9038  0.4401 -0.5375
 6823TIP3    H242029   0.664   4.368   6.720 -2.6008 -1.6891 -0.1516
 6824TIP3   OH242030   3.440   6.764   2.036 -0.2634 -0.5321  0.1278
 6824TIP3    H142031   3.436   6.857   2.016 -2.4386 -0.3598  1.0848
 6824TIP3    H242032   3.393   6.722   1.964  2.5297 -1.1966 -1.4614
 6825TIP3   OH242033   5.066   2.404   1.688  0.1913 -0.0124  0.0074
 6825TIP3    H142034   5.123   2.396   1.611  2.3637  2.1226  1.2635
 6825TIP3    H242035   5.109   2.350   1.754 -0.8938 -0.6890  0.1904
 6826TIP3   OH242036   0.174   5.229   1.115  1.0840  0.2432 -0.0969
 6826TIP3    H142037   0.180   5.197   1.205  0.7252  1.0711  0.2329
 6826TIP3    H242038   0.125   5.311   1.122  0.2125 -0.1574 -1.1682
 6827TIP3   OH242039   1.798   4.567   0.766 -0.3062 -0.0458 -0.0730
 6827TIP3    H142040   1.849   4.486   0.770  0.0792  0.2382  1.4974
 6827TIP3    H242041   1.782   4.590   0.858 -1.3119  1.0979 -0.5084
 6828TIP3   OH242042   5.051   4.192   0.534 -0.4775 -0.0896 -0.1232
 6828TIP3    H142043   5.005   4.114   0.564 -0.4017 -0.4225 -0.8496
 6828TIP3    H242044   5.012   4.264   0.584  1.0249 -0.8293  2.2683
 6829TIP3   OH242045   4.931   1.978   7.618 -0.1933 -0.2996  0.2028
 6829TIP3    H142046   5.007   1.970   7.561  0.8997  0.1551  1.5348
 6829TIP3    H242047   4.921   2.072   7.632 -0.2396 -0.4148  1.0089
 6830TIP3   OH242048   0.255   0.863   1.688 -0.4250 -0.1384  0.0615
 6830TIP3    H142049   0.201   0.940   1.673 -0.0203 -0.0243 -0.8990
 6830TIP3    H242050   0.252   0.850   1.782 -2.3194 -0.2952  0.0088
 6831TIP3   OH242051   4.180   3.157   1.346  0.2695  0.6402  0.5838
 6831TIP3    H142052   4.101   3.168   1.399 -0.2147  0.4720 -0.0766
 6831TIP3    H242053   4.193   3.242   1.304 -1.1003 -0.0175 -1.3352
 6832TIP3   OH242054   2.784   5.322   2.415 -0.4837 -0.0945  0.1413
 6832TIP3    H142055   2.696   5.350   2.442  0.1806  1.3599  0.8877
 6832TIP3    H242056   2.795   5.236   2.456 -0.4831  0.9531  2.5047
 6833TIP3   OH242057   2.024   1.081   2.212 -0.1114  0.2244 -0.0872
 6833TIP3    H142058   2.112   1.116   2.226 -0.2496 -0.0188  1.6361
 6833TIP3    H242059   2.033   0.987   2.224 -0.4722  0.1058 -0.6955
 6834TIP3   OH242060   5.751   0.668   0.415 -0.2718  0.7416  0.1765
 6834TIP3    H142061   5.699   0.734   0.460 -1.5930  0.4147 -0.8294
 6834TIP3    H242062   5.841   0.687   0.441 -0.8956  1.0967  2.2352
 6835TIP3   OH242063   3.301   6.418   0.341  0.6567  0.3136  0.1182
 6835TIP3    H142064   3.210   6.438   0.364  0.0527  0.1208 -1.9724
 6835TIP3    H242065   3.297   6.329   0.307  1.8310 -0.0736  0.9331
 6836TIP3   OH242066   1.052   4.761   0.095  0.2754 -0.1293 -0.3984
 6836TIP3    H142067   0.973   4.709   0.112  0.5647 -0.1229  1.0889
 6836TIP3    H242068   1.023   4.852   0.106  0.2802 -0.0665 -0.8489
 6837TIP3   OH242069   1.156   1.140   1.612 -0.0775 -0.5212 -0.6239
 6837TIP3    H142070   1.189   1.224   1.581 -1.0199 -0.0959 -0.4844
 6837TIP3    H242071   1.090   1.115   1.547 -2.8398  0.8657  1.4474
 6838TIP3   OH242072   2.946   2.168   1.869  0.1614 -0.5163  0.0141
 6838TIP3    H142073   2.960   2.114   1.947 -1.1163  0.6096  1.0930
 6838TIP3    H242074   2.964   2.110   1.795  0.3484 -1.9440  1.1319
 6839TIP3   OH242075   5.026   3.636   0.657  0.0506  0.2831 -1.2690
 6839TIP3    H142076   5.073   3.705   0.704  0.1387  1.3610 -2.8600
 6839TIP3    H242077   5.087   3.563   0.654  0.2899  0.4279 -0.3004
 6840TIP3   OH242078   3.754   0.757   1.332  0.0749 -0.5069 -0.2375
 6840TIP3    H142079   3.728   0.683   1.387 -0.0668 -1.6493 -1.7852
 6840TIP3    H242080   3.739   0.727   1.242  1.4619  0.8382 -0.9684
 6841TIP3   OH242081   5.531   6.145   7.781 -0.3515 -0.0978  0.2367
 6841TIP3    H142082   5.501   6.117   7.868 -0.9315 -1.3175 -0.3415
 6841TIP3    H242083   5.571   6.230   7.797  2.6423 -1.7159  2.2981
 6842TIP3   OH242084   2.571   2.689   8.257  0.5120 -0.0317  0.4033
 6842TIP3    H142085   2.483   2.661   8.232  0.3853  1.2026 -0.6229
 6842TIP3    H242086   2.558   2.776   8.295  0.7726 -1.5200  4.3210
 6843TIP3   OH242087   6.590   3.151   0.579 -0.3746  0.1702  0.7982
 6843TIP3    H142088   6.529   3.094   0.625 -2.0215  0.8889 -0.4196
 6843TIP3    H242089   6.575   3.237   0.617 -1.5192  0.7117 -0.7602
 6844TIP3   OH242090   5.966   4.702   0.560  0.5490  0.2659 -0.6128
 6844TIP3    H142091   6.001   4.622   0.519  0.7097 -0.3985  0.7398
 6844TIP3    H242092   5.878   4.677   0.588  1.1935 -0.0390  1.3260
 6845TIP3   OH242093   1.378   4.812   8.518  0.2749 -0.2936 -0.4192
 6845TIP3    H142094   1.355   4.730   8.561 -0.6939  0.5125  0.6901
 6845TIP3    H242095   1.365   4.879   8.586  2.5033  0.6304 -0.8295
 6846TIP3   OH242096   0.375   4.773   0.216  0.6170  0.1175  0.3772
 6846TIP3    H142097   0.319   4.713   0.265  0.7165 -0.4085 -0.1397
 6846TIP3    H242098   0.385   4.849   0.273  1.2604 -0.7516  1.4429
 6847TIP3   OH242099   6.762   2.930   0.777  0.1864 -0.3080 -0.1006
 6847TIP3    H142100   6.800   2.930   0.689  2.0925 -1.5934  0.6656
 6847TIP3    H242101   6.799   3.008   0.819 -0.0981 -0.1338 -0.1672
 6848TIP3   OH242102   4.223   0.624   0.009  0.9322  0.2753 -0.0018
 6848TIP3    H142103   4.314   0.634   0.039  1.1828 -0.2564 -0.5562
 6848TIP3    H242104   4.215   0.685  -0.064  0.7779  0.4749  0.1814
 6849TIP3   OH242105   4.850   5.021   7.605  0.3141 -0.3289  0.5702
 6849TIP3    H142106   4.754   5.018   7.612  0.2260 -0.2059 -0.4615
 6849TIP3    H242107   4.877   5.080   7.676 -0.4658  0.5050  0.2010
 6850TIP3   OH242108   5.782   6.588   2.035  0.0421  0.0191  0.4366
 6850TIP3    H142109   5.860   6.640   2.020  0.4081 -0.5043  0.4986
 6850TIP3    H242110   5.713   6.652   2.054  0.5770  0.4518  0.9362
 6851TIP3   OH242111   0.398   2.964   7.429  0.4172  1.0271 -1.0906
 6851TIP3    H142112   0.437   3.005   7.352 -0.0907  0.9795 -1.3745
 6851TIP3    H242113   0.313   2.932   7.399 -0.4287  2.2801 -0.1459
 6852TIP3   OH242114   6.491   2.532   1.021  0.4206 -0.0364  0.5784
 6852TIP3    H142115   6.399   2.541   1.044  0.4120  0.8441  0.2217
 6852TIP3    H242116   6.521   2.621   1.005  0.9429 -0.4408 -0.8337
 6853TIP3   OH242117   4.726   6.354   7.897 -0.1078  0.5867 -0.0274
 6853TIP3    H142118   4.753   6.303   7.973 -1.5032 -0.1984 -0.0305
 6853TIP3    H242119   4.796   6.340   7.832 -0.6809 -1.7712 -0.2224
 6854TIP3   OH242120   5.014   0.907   1.996 -0.1327  0.2162  0.0788
 6854TIP3    H142121   4.921   0.892   1.982 -0.5770  1.6512  1.3007
 6854TIP3    H242122   5.034   0.984   1.943  0.2217  0.3051  0.3389
 6855TIP3   OH242123   2.532   0.909   0.870 -0.3553  0.0830 -0.6252
 6855TIP3    H142124   2.621   0.938   0.890 -0.8009  0.5723  0.7103
 6855TIP3    H242125   2.531   0.817   0.896  0.1465 -0.3346 -1.9691
 6856TIP3   OH242126   0.690   5.424   7.319 -0.2770 -0.1936 -0.3126
 6856TIP3    H142127   0.636   5.366   7.265  0.7655  0.7602 -2.5056
 6856TIP3    H242128   0.633   5.449   7.391 -2.1670 -0.6383 -1.5723
 6857TIP3   OH242129   2.696   4.894   8.412 -0.1970 -0.3357  0.0356
 6857TIP3    H142130   2.761   4.839   8.455 -1.1071 -0.5611  1.1490
 6857TIP3    H242131   2.748   4.962   8.368  0.7808 -0.3388  1.1501
 6858TIP3   OH242132   3.230   6.513   8.356 -0.1573 -0.2562  0.1687
 6858TIP3    H142133   3.265   6.445   8.299  1.2758  0.8704 -0.3494
 6858TIP3    H242134   3.290   6.515   8.431  1.3334  2.0696 -0.9911
 6859TIP3   OH242135   1.870   6.141   0.505  0.0790  0.0676 -0.4952
 6859TIP3    H142136   1.804   6.107   0.566 -0.2876  1.6771  0.0670
 6859TIP3    H242137   1.952   6.137   0.555 -0.3652  2.2581  0.5533
 6860TIP3   OH242138   2.752   0.990   8.531  0.1815 -0.2037 -0.1619
 6860TIP3    H142139   2.799   1.048   8.591 -0.1507 -0.2484  0.1492
 6860TIP3    H242140   2.761   0.903   8.569 -0.2646 -0.1932 -0.0218
 6861TIP3   OH242141   1.251   2.028   6.477 -0.7075  0.3002  0.3351
 6861TIP3    H142142   1.201   2.110   6.478 -0.2251  0.5997  0.9914
 6861TIP3    H242143   1.186   1.960   6.497 -0.7279  0.7809  2.1200
 6862TIP3   OH242144   2.395   5.140   2.300  0.3353  0.0058  0.3238
 6862TIP3    H142145   2.461   5.103   2.242 -0.8508 -0.3382 -0.8595
 6862TIP3    H242146   2.353   5.064   2.340  1.0131  0.2367  1.5180
 6863TIP3   OH242147   0.677   2.325   7.394  0.0341 -0.3448 -0.1873
 6863TIP3    H142148   0.660   2.302   7.485  1.8033 -1.3282 -0.0514
 6863TIP3    H242149   0.773   2.332   7.389  0.0751 -1.7185 -2.2692
 6864TIP3   OH242150   2.106   6.462   7.416  0.3389  0.1994  0.0314
 6864TIP3    H142151   2.086   6.519   7.490 -1.1120 -0.2956  0.0642
 6864TIP3    H242152   2.020   6.435   7.383  0.9343  0.4361 -1.8665
 6865TIP3   OH242153   0.549   3.323   0.341 -0.2121 -0.6038 -0.2886
 6865TIP3    H142154   0.490   3.392   0.310  0.6642  0.2572 -0.1204
 6865TIP3    H242155   0.497   3.243   0.338 -1.4720  0.1688  0.1162
 6866TIP3   OH242156   3.733   1.911   0.721 -0.0234 -0.2978 -0.8439
 6866TIP3    H142157   3.703   1.820   0.720  1.3439 -0.8812  1.9267
 6866TIP3    H242158   3.821   1.907   0.685 -0.1147  0.0031 -1.1006
 6867TIP3   OH242159   6.255   4.561   6.484 -0.3632  0.0445 -0.0537
 6867TIP3    H142160   6.171   4.521   6.460 -0.7551  0.7876  0.0367
 6867TIP3    H242161   6.231   4.630   6.546  0.3639 -0.0280  0.3081
 6868TIP3   OH242162   3.585   6.539   1.420 -0.7858  0.0470  0.4985
 6868TIP3    H142163   3.499   6.518   1.456 -0.7006  1.8209  1.8666
 6868TIP3    H242164   3.642   6.468   1.450 -1.3770 -0.1426  1.1928
 6869TIP3   OH242165   0.066   1.692   8.718  0.7459 -0.2206  0.3799
 6869TIP3    H142166   0.050   1.786   8.711  0.7487 -0.3415 -2.2530
 6869TIP3    H242167   0.162   1.684   8.714  0.6901 -0.3907 -0.7885
 6870TIP3   OH242168   2.899   5.837   0.310 -0.6580  0.0951  0.7074
 6870TIP3    H142169   2.964   5.848   0.241 -0.4080 -0.0505  0.9181
 6870TIP3    H242170   2.898   5.921   0.357  0.8557 -0.5461  1.9750
 6871TIP3   OH242171   4.719   3.788   7.010  0.0449  0.4429  0.1665
 6871TIP3    H142172   4.747   3.879   7.001  0.5187  0.1832 -1.4473
 6871TIP3    H242173   4.800   3.739   7.020 -0.0280  0.0106 -1.1764
 6872TIP3   OH242174   0.419   6.143   0.098 -0.1920 -0.2213  0.3342
 6872TIP3    H142175   0.372   6.205   0.154  0.4533  0.0091  0.6366
 6872TIP3    H242176   0.354   6.113   0.034 -0.1464  1.9366 -0.8036
 6873TIP3   OH242177   5.818   6.256   8.320  0.7124  0.4995 -0.1059
 6873TIP3    H142178   5.865   6.278   8.400  1.2951 -0.5186 -0.1420
 6873TIP3    H242179   5.808   6.161   8.324 -1.3871  0.6859 -0.0987
 6874TIP3   OH242180   5.161   1.098   0.718  0.2569  0.0185 -0.2624
 6874TIP3    H142181   5.162   1.194   0.713  2.1594  0.0606 -0.0014
 6874TIP3    H242182   5.123   1.070   0.635 -0.6010  0.9906 -0.2210
 6875TIP3   OH242183   3.097   0.737   1.923 -0.0938  0.2662  0.5828
 6875TIP3    H142184   3.080   0.724   2.016  1.4326 -1.2439  0.7064
 6875TIP3    H242185   3.065   0.657   1.882 -0.1937  0.6590 -0.1134
 6876TIP3   OH242186   5.731   0.299   1.136 -0.2115 -0.0610 -0.4724
 6876TIP3    H142187   5.812   0.331   1.097 -0.3786 -0.2447 -0.9933
 6876TIP3    H242188   5.758   0.241   1.206  0.1056  0.1041 -0.4590
 6877TIP3   OH242189   1.415   0.268   7.555  0.5882  0.0222 -0.4012
 6877TIP3    H142190   1.401   0.327   7.629 -0.9666  0.4730 -1.0078
 6877TIP3    H242191   1.443   0.326   7.484 -1.7155  0.2509 -1.2299
 6878TIP3   OH242192   0.920   5.938   0.964 -0.4021 -0.3331  0.1210
 6878TIP3    H142193   1.014   5.937   0.949 -0.6901 -1.6830 -2.1432
 6878TIP3    H242194   0.882   5.951   0.877 -2.3192  1.1463  1.1095
 6879TIP3   OH242195   2.341   0.488   2.074  0.0304 -0.7748 -0.2329
 6879TIP3    H142196   2.299   0.562   2.117 -0.6300  0.1919 -2.4135
 6879TIP3    H242197   2.293   0.411   2.105 -0.1854 -0.1688  0.9792
 6880TIP3   OH242198   5.045   1.530   8.385 -0.4897  0.2853 -0.2492
 6880TIP3    H142199   5.111   1.481   8.336 -1.2881 -0.7540 -0.3144
 6880TIP3    H242200   5.078   1.532   8.475  0.3154  1.0278 -0.5417
 6881TIP3   OH242201   2.134   6.604   7.642 -0.1251 -0.2975 -0.0636
 6881TIP3    H142202   2.085   6.677   7.682  0.4556  0.3031 -0.4392
 6881TIP3    H242203   2.159   6.550   7.716 -1.0461 -0.4271  0.1734
 6882TIP3   OH242204   1.113   4.363   7.436 -0.1298 -0.4562  0.4035
 6882TIP3    H142205   1.103   4.309   7.515  0.4910 -0.1081  0.7362
 6882TIP3    H242206   1.165   4.308   7.377 -0.8853 -0.8500  0.0964
 6883TIP3   OH242207   0.766   4.233   1.889  0.5141 -0.0807  1.0133
 6883TIP3    H142208   0.752   4.168   1.820  1.6556 -0.2618  0.9347
 6883TIP3    H242209   0.685   4.284   1.891 -0.2648 -1.2672  0.8281
 6884TIP3   OH242210   0.669   5.047   7.801  0.5087 -0.0592  0.5898
 6884TIP3    H142211   0.727   4.989   7.752 -2.5099 -2.3635 -0.6110
 6884TIP3    H242212   0.667   5.128   7.751  1.7417 -0.3448  0.0373
 6885TIP3   OH242213   5.735   6.440   0.907 -0.1063  0.1180 -0.3011
 6885TIP3    H142214   5.680   6.484   0.972  0.5777  0.7054 -0.1043
 6885TIP3    H242215   5.679   6.373   0.869 -0.8900  0.5672  0.0439
 6886TIP3   OH242216   3.349   5.473   0.770  0.2363  0.3815 -0.1342
 6886TIP3    H142217   3.288   5.523   0.824  0.5780  1.7270 -0.9306
 6886TIP3    H242218   3.360   5.390   0.815  1.4157  1.8572  2.4885
 6887TIP3   OH242219   0.490   0.774   1.276  0.5970  0.2056 -0.2636
 6887TIP3    H142220   0.402   0.740   1.292  0.3540  0.7253 -0.4945
 6887TIP3    H242221   0.478   0.867   1.259  0.9974  0.0125 -1.8188
 6888TIP3   OH242222   5.855   2.254   1.232  0.0076 -0.4399  0.0761
 6888TIP3    H142223   5.923   2.192   1.258 -0.8331 -0.4478  2.4298
 6888TIP3    H242224   5.791   2.201   1.184  0.1871 -1.0179  0.4657
 6889TIP3   OH242225   3.496   5.835   0.723 -0.1969 -0.2229 -0.0769
 6889TIP3    H142226   3.464   5.924   0.706 -0.7669 -0.1373  1.2714
 6889TIP3    H242227   3.481   5.822   0.817  0.3017 -1.5816 -0.1612
 6890TIP3   OH242228   2.031   6.644   8.711  0.4828 -0.8085  0.1502
 6890TIP3    H142229   2.091   6.578   8.744 -0.6262 -2.3036 -0.7120
 6890TIP3    H242230   2.059   6.660   8.621  0.6476 -0.2107  0.3028
 6891TIP3   OH242231   0.672   6.157   0.011  0.4960  0.5670 -0.4214
 6891TIP3    H142232   0.733   6.148   0.083 -1.1660  0.1700  1.0126
 6891TIP3    H242233   0.588   6.126   0.046 -0.5934  1.2965 -2.2068
 6892TIP3   OH242234   5.649   2.374   0.721  0.4051 -0.8012 -0.3825
 6892TIP3    H142235   5.635   2.469   0.729 -1.5241 -1.1574  1.1387
 6892TIP3    H242236   5.582   2.346   0.659  1.3640 -1.1170 -1.3000
 6893TIP3   OH242237   3.474   6.334   7.225  0.2938  0.6339  0.0739
 6893TIP3    H142238   3.390   6.369   7.253  0.6856  1.6373  0.0248
 6893TIP3    H242239   3.539   6.389   7.268  0.9175  0.8226 -1.0549
 6894TIP3   OH242240   2.727   2.314   0.777  0.4296  0.0215 -0.4439
 6894TIP3    H142241   2.682   2.230   0.785  2.3612 -1.2533 -1.9138
 6894TIP3    H242242   2.697   2.350   0.694 -0.5656  0.9519  0.2863
 6895TIP3   OH242243   5.027   5.086   7.220 -0.1559 -0.4337  0.1278
 6895TIP3    H142244   4.951   5.087   7.162 -0.8645  0.2085  1.0374
 6895TIP3    H242245   5.098   5.122   7.167 -0.1901 -2.0233 -1.0803
 6896TIP3   OH242246   1.797   5.035   8.494  0.3107  0.7535  0.2384
 6896TIP3    H142247   1.831   4.971   8.557 -0.2501  0.0506 -0.1606
 6896TIP3    H242248   1.872   5.091   8.475  1.3668 -0.9474 -0.8643
 6897TIP3   OH242249   2.203   0.692   1.625  0.4159 -0.3081  0.1372
 6897TIP3    H142250   2.226   0.619   1.683  2.2529 -1.1744 -1.5498
 6897TIP3    H242251   2.135   0.656   1.567 -0.2862  0.0620  0.7122
 6898TIP3   OH242252   0.688   2.269   0.435 -0.0940  0.0803 -0.3131
 6898TIP3    H142253   0.682   2.354   0.393  0.8659 -0.0119 -0.6603
 6898TIP3    H242254   0.640   2.279   0.518  2.2284  1.7691  0.9227
 6899TIP3   OH242255   4.481   4.680   7.168  0.3193 -0.4997  0.0923
 6899TIP3    H142256   4.528   4.632   7.099  1.7007  0.9811 -0.0638
 6899TIP3    H242257   4.390   4.677   7.140  0.6006 -1.5250 -0.8178
 6900TIP3   OH242258   0.995   2.282   1.055  0.0988  0.3857 -0.0124
 6900TIP3    H142259   0.904   2.306   1.070 -0.1512 -1.3659  1.6780
 6900TIP3    H242260   0.995   2.241   0.968 -0.8082  0.0848  0.1175
 6901TIP3   OH242261   6.244   1.363   1.292  0.3103  0.1144 -0.6162
 6901TIP3    H142262   6.286   1.449   1.287  1.7630 -0.4971  0.3802
 6901TIP3    H242263   6.154   1.381   1.317  0.9753  1.3018  1.1148
 6902TIP3   OH242264   6.092   2.670   7.434 -0.4345 -0.1677 -0.1267
 6902TIP3    H142265   6.099   2.583   7.395  0.3823 -0.0917 -0.1585
 6902TIP3    H242266   6.053   2.654   7.520 -4.9376 -0.1006 -1.8497
 6903TIP3   OH242267   5.795   2.466   7.073 -0.1604 -0.4842  0.0848
 6903TIP3    H142268   5.836   2.482   7.158  0.1868  0.2318 -0.2137
 6903TIP3    H242269   5.835   2.530   7.014  0.0706 -1.3833 -0.7742
 6904TIP3   OH242270   5.192   1.424   0.199  0.3089 -0.3210  0.1248
 6904TIP3    H142271   5.158   1.497   0.148  0.3864  0.4629  1.1708
 6904TIP3    H242272   5.214   1.357   0.133  1.6761  1.1504 -0.9948
 6905TIP3   OH242273   1.792   3.717   1.529  0.5616  0.1786 -0.1422
 6905TIP3    H142274   1.731   3.752   1.594  1.0891 -0.6909  0.8477
 6905TIP3    H242275   1.758   3.749   1.445  0.4575  2.2067  0.6074
 6906TIP3   OH242276   1.714   4.374   1.444  0.1633  0.4172 -0.5100
 6906TIP3    H142277   1.766   4.294   1.430 -0.6131 -0.2335  0.2036
 6906TIP3    H242278   1.715   4.386   1.539 -1.2074  0.2292 -0.4584
 6907TIP3   OH242279   6.159   6.042   7.512 -0.1932  0.0050  0.0876
 6907TIP3    H142280   6.233   6.043   7.453 -1.3598  0.5879 -1.4289
 6907TIP3    H242281   6.187   5.987   7.586  0.9332 -1.6261 -1.4805
 6908TIP3   OH242282   2.270   5.523   7.492 -0.3052 -0.5578 -0.3507
 6908TIP3    H142283   2.256   5.587   7.561 -1.4547  0.9203 -1.8592
 6908TIP3    H242284   2.182   5.489   7.472 -0.0222 -0.8427 -1.1802
 6909TIP3   OH242285   0.721   1.106   0.154 -0.1145  0.0678 -0.2650
 6909TIP3    H142286   0.701   1.119   0.247 -1.2390  0.3696 -0.5339
 6909TIP3    H242287   0.686   1.019   0.134 -2.0495  0.9425 -0.9445
 6910TIP3   OH242288   3.897   4.308   8.080 -0.5201  0.0288 -0.2567
 6910TIP3    H142289   3.931   4.253   8.151  0.2032  1.3601  0.4617
 6910TIP3    H242290   3.965   4.374   8.066 -1.2653  0.6132 -1.2584
 6911TIP3   OH242291   1.068   0.618   8.681 -0.0072  0.0841  0.5620
 6911TIP3    H142292   1.049   0.704   8.720  0.5314 -0.0556  1.1625
 6911TIP3    H242293   1.020   0.618   8.599  0.1001  1.0253  0.4799
 6912TIP3   OH242294   3.444   2.622   8.445  0.8823  0.3335 -0.1687
 6912TIP3    H142295   3.426   2.716   8.436  0.6572  0.3291  0.2017
 6912TIP3    H242296   3.359   2.581   8.427  0.7660  0.2519  0.5288
 6913TIP3   OH242297   0.306   5.793   7.347 -0.6396 -0.2064  1.1268
 6913TIP3    H142298   0.283   5.868   7.402 -0.6784  1.0942 -0.6055
 6913TIP3    H242299   0.332   5.831   7.263  2.3758 -1.9071  1.1260
 6914TIP3   OH242300   3.066   4.998   1.795 -0.3588 -0.2514 -0.7934
 6914TIP3    H142301   3.135   5.044   1.747 -0.3159 -1.5166 -2.0083
 6914TIP3    H242302   3.005   5.067   1.822  2.5076  1.3024  2.5166
 6915TIP3   OH242303   4.057   5.978   6.421 -0.1046  0.4622 -0.4754
 6915TIP3    H142304   4.136   5.933   6.390 -1.1590 -1.1382 -0.9666
 6915TIP3    H242305   4.027   6.029   6.346 -0.2418  0.0562 -0.6968
 6916TIP3   OH242306   5.161   6.333   7.025  0.6705 -0.9352 -0.2372
 6916TIP3    H142307   5.077   6.349   7.068  0.9876  0.0303  0.0441
 6916TIP3    H242308   5.138   6.289   6.943 -0.1922  0.0594 -0.5512
 6917TIP3   OH242309   5.567   0.775   7.898 -0.0159 -0.0391  0.1323
 6917TIP3    H142310   5.608   0.689   7.898 -0.5376 -0.3060 -0.9240
 6917TIP3    H242311   5.615   0.824   7.831 -0.8042 -0.0652 -0.4659
 6918TIP3   OH242312   3.162   3.684   7.918  0.1764  0.9508 -0.0519
 6918TIP3    H142313   3.180   3.654   7.829 -2.1775 -2.0066  0.2996
 6918TIP3    H242314   3.067   3.691   7.922  0.2281  0.9553  2.2494
 6919TIP3   OH242315   3.222   5.225   1.136  0.3561  0.0663 -0.2339
 6919TIP3    H142316   3.163   5.158   1.169  1.5519  0.1806  2.3653
 6919TIP3    H242317   3.164   5.299   1.114 -0.9188 -1.5162 -2.7521
 6920TIP3   OH242318   4.398   4.510   7.477 -0.2989 -0.6691  0.0067
 6920TIP3    H142319   4.487   4.533   7.452 -0.5246 -1.8356 -2.1209
 6920TIP3    H242320   4.345   4.586   7.454 -0.0402 -0.4932 -0.0064
 6921TIP3   OH242321   1.572   5.860   0.936 -0.3445 -0.5825 -0.0326
 6921TIP3    H142322   1.486   5.851   0.978 -0.5310 -1.4959 -0.5684
 6921TIP3    H242323   1.577   5.785   0.876  0.9738 -0.7550  0.2494
 6922TIP3   OH242324   1.743   1.554   7.245 -0.1048 -0.3797 -0.0266
 6922TIP3    H142325   1.685   1.591   7.179 -1.6842 -1.5916  0.6032
 6922TIP3    H242326   1.798   1.627   7.273 -1.4374  0.8678 -0.5369
 6923TIP3   OH242327   1.119   5.775   7.485 -0.0270  0.4371 -0.3579
 6923TIP3    H142328   1.041   5.768   7.430 -2.2848  2.1489  2.3232
 6923TIP3    H242329   1.106   5.709   7.553 -0.5998  2.4383  1.6050
 6924TIP3   OH242330   6.298   3.988   0.588  0.4624 -0.3127  0.2540
 6924TIP3    H142331   6.245   4.010   0.511 -0.8746 -2.6900  0.3976
 6924TIP3    H242332   6.386   4.017   0.565 -0.1628  0.3159 -1.5750
 6925TIP3   OH242333   0.819   1.566   6.849 -0.2629 -0.0674  0.0113
 6925TIP3    H142334   0.861   1.483   6.873  1.5374  0.4179 -1.2125
 6925TIP3    H242335   0.767   1.545   6.772 -1.2301 -0.4044  0.7471
 6926TIP3   OH242336   6.008   1.201   7.095 -0.5274  0.2287  0.1518
 6926TIP3    H142337   5.926   1.189   7.047 -0.8492  0.5683  0.5987
 6926TIP3    H242338   6.066   1.247   7.034 -0.1841 -1.2010 -0.6466
 6927TIP3   OH242339   3.542   4.588   1.456 -0.2005  0.4065  0.1930
 6927TIP3    H142340   3.564   4.514   1.399  1.8850 -1.0506  2.7022
 6927TIP3    H242341   3.447   4.580   1.469 -0.5309  0.0799 -2.0393
 6928TIP3   OH242342   1.499   5.036   0.788  0.5285  0.3787 -0.0622
 6928TIP3    H142343   1.511   5.101   0.857  1.9148  1.6701 -1.4389
 6928TIP3    H242344   1.558   4.964   0.811  2.0276  1.4129 -0.5713
 6929TIP3   OH242345   1.042   0.131   6.985 -0.2811 -0.6839 -0.2396
 6929TIP3    H142346   0.987   0.164   6.913  0.6520  1.6115  0.0102
 6929TIP3    H242347   1.108   0.077   6.941  0.6183  1.1334 -1.2455
 6930TIP3   OH242348   5.009   1.516   6.668  0.6951  0.2371 -0.0177
 6930TIP3    H142349   5.016   1.519   6.763  0.1802  0.7566  0.0044
 6930TIP3    H242350   5.096   1.486   6.638  0.8975  0.2018  0.6012
 6931TIP3   OH242351   5.178   2.879   1.548 -0.2224 -0.3464 -0.2201
 6931TIP3    H142352   5.111   2.898   1.482 -0.7062 -0.1133  0.3257
 6931TIP3    H242353   5.141   2.913   1.630  1.6321  2.1019 -0.2907
 6932TIP3   OH242354   0.648   4.269   0.516 -0.3205 -0.0817  0.1562
 6932TIP3    H142355   0.691   4.326   0.452 -0.6263  0.8825  0.7947
 6932TIP3    H242356   0.582   4.324   0.557 -0.9790 -1.0480  0.4367
 6933TIP3   OH242357   1.429   1.479   1.066 -0.6504  0.9901  0.2928
 6933TIP3    H142358   1.338   1.498   1.042 -1.4530 -1.0926  1.4293
 6933TIP3    H242359   1.437   1.384   1.058  1.0114  0.9783  1.5415
 6934TIP3   OH242360   0.873   6.752   8.495  0.3011 -0.2432 -0.0511
 6934TIP3    H142361   0.902   6.791   8.577 -4.3372  1.4324  1.0579
 6934TIP3    H242362   0.872   6.825   8.433  0.5429 -0.7649 -0.6788
 6935TIP3   OH242363   2.203   0.613   1.011  0.2186  0.4953 -0.1723
 6935TIP3    H142364   2.155   0.530   1.013 -1.2969  1.3486  1.0311
 6935TIP3    H242365   2.143   0.675   0.969  1.6183  0.8649 -1.7405
 6936TIP3   OH242366   4.298   6.077   0.101  0.6850 -0.0211  0.2826
 6936TIP3    H142367   4.295   6.064   0.196  0.3574 -2.2164  0.0300
 6936TIP3    H242368   4.330   5.994   0.066 -4.4178 -1.5548 -1.8274
 6937TIP3   OH242369   1.975   0.055   0.269 -0.2037 -0.1646  0.0098
 6937TIP3    H142370   1.919   0.032   0.195 -0.4841  0.1426  0.1219
 6937TIP3    H242371   2.030   0.127   0.235 -1.1800  0.8219  0.4577
 6938TIP3   OH242372   2.988   5.067   1.115 -0.0385 -0.0142  1.0295
 6938TIP3    H142373   2.902   5.083   1.156 -0.7379  0.9293 -0.7021
 6938TIP3    H242374   2.971   5.001   1.048  0.2920  1.0522 -0.1517
 6939TIP3   OH242375   1.183   5.814   0.178 -0.1035  0.2399 -0.2900
 6939TIP3    H142376   1.272   5.784   0.158  0.0696  0.0175  0.7487
 6939TIP3    H242377   1.182   5.825   0.273 -1.0186  0.8051 -0.3490
 6940TIP3   OH242378   0.191   4.986   8.485  0.2886 -0.1815  0.0401
 6940TIP3    H142379   0.267   4.928   8.496  0.2033 -0.1465  0.8466
 6940TIP3    H242380   0.228   5.074   8.493 -0.0149 -0.1802  1.7369
 6941TIP3   OH242381   1.119   0.581   1.438  0.0779  0.3561  0.8010
 6941TIP3    H142382   1.209   0.578   1.405 -0.7257 -0.5748 -1.4620
 6941TIP3    H242383   1.127   0.547   1.528  1.9764  0.2865  0.6620
 6942TIP3   OH242384   6.566   1.747   2.208 -0.0238  0.3319  0.2060
 6942TIP3    H142385   6.475   1.723   2.227 -0.1493  0.7703  0.1865
 6942TIP3    H242386   6.587   1.814   2.273  0.0133  0.8206 -0.3030
 6943TIP3   OH242387   2.144   4.134   2.127  0.0180  0.0630  0.5452
 6943TIP3    H142388   2.077   4.100   2.185 -1.7442 -0.2408 -1.5643
 6943TIP3    H242389   2.179   4.057   2.081  0.6663  0.3996  0.4523
 6944TIP3   OH242390   6.207   4.485   7.106  0.0460 -0.3336 -0.3280
 6944TIP3    H142391   6.212   4.483   7.011  2.7115 -0.9924 -0.2563
 6944TIP3    H242392   6.164   4.403   7.130 -2.6559  0.7858 -0.9269
 6945TIP3   OH242393   4.228   2.504   0.546 -0.0008 -0.3800 -0.2308
 6945TIP3    H142394   4.168   2.572   0.577  1.5801  0.5235  0.9564
 6945TIP3    H242395   4.309   2.550   0.526  1.0145 -1.8667  0.2992
 6946TIP3   OH242396   1.599   2.989   7.794  0.1110 -0.0311  0.5958
 6946TIP3    H142397   1.650   2.986   7.713 -1.1652  0.4268 -0.2584
 6946TIP3    H242398   1.512   2.960   7.769 -0.2600 -0.0795  1.8617
 6947TIP3   OH242399   5.069   1.792   2.569 -0.6208 -0.0740  0.5959
 6947TIP3    H142400   5.140   1.821   2.512  0.0122  0.2271  1.5128
 6947TIP3    H242401   5.072   1.696   2.565 -1.7801 -0.0778 -1.2964
 6948TIP3   OH242402   3.220   1.260   1.789  0.2102 -0.3407  0.5886
 6948TIP3    H142403   3.213   1.242   1.883  0.2183 -1.5744  0.3690
 6948TIP3    H242404   3.200   1.176   1.748  0.4663  0.1301 -0.5092
 6949TIP3   OH242405   3.233   5.416   1.482 -0.3522  0.3622 -0.4803
 6949TIP3    H142406   3.242   5.478   1.554 -2.6298  0.6879 -0.3929
 6949TIP3    H242407   3.267   5.462   1.406  2.3082 -0.0714  0.3499
 6950TIP3   OH242408   0.385   3.261   0.931  0.2224 -0.6443  0.7201
 6950TIP3    H142409   0.473   3.291   0.908  0.3142 -0.3842  1.3909
 6950TIP3    H242410   0.341   3.250   0.847  0.4421  0.6075  0.4119
 6951TIP3   OH242411   0.615   1.621   1.547  0.4771 -0.1563  0.4067
 6951TIP3    H142412   0.659   1.538   1.566  1.2028  0.0731 -0.1990
 6951TIP3    H242413   0.524   1.597   1.532  0.6284 -0.8078  0.4829
 6952TIP3   OH242414   3.561   3.087   1.899 -0.5838 -0.4965  0.5040
 6952TIP3    H142415   3.517   3.003   1.897 -1.2845 -0.2015  2.2263
 6952TIP3    H242416   3.654   3.067   1.887 -0.9347 -1.2975 -1.1255
 6953TIP3   OH242417   4.106   2.877   7.968  0.4266  0.2236 -0.1804
 6953TIP3    H142418   4.180   2.879   7.907  1.4270  3.2140  0.9579
 6953TIP3    H242419   4.145   2.859   8.053 -0.8809 -3.2110 -0.1429
 6954TIP3   OH242420   4.232   0.746   1.087  0.0655  0.2100 -0.3013
 6954TIP3    H142421   4.321   0.782   1.079  0.6457 -0.4036  2.4300
 6954TIP3    H242422   4.192   0.797   1.157 -0.9886 -0.9146 -0.0619
 6955TIP3   OH242423   2.136   5.700   0.016 -0.3305  0.2198  0.5271
 6955TIP3    H142424   2.225   5.675  -0.009 -0.5907  0.9181 -1.1849
 6955TIP3    H242425   2.142   5.792   0.041 -0.8647  0.8105 -1.3858
 6956TIP3   OH242426   4.918   4.010   0.994 -0.2994  0.5386  0.6705
 6956TIP3    H142427   4.877   4.071   0.933 -1.9973  0.3923  1.6084
 6956TIP3    H242428   4.856   4.002   1.066 -0.0129 -2.0344  0.7357
 6957TIP3   OH242429   3.259   0.871   1.757 -0.0248  0.2201  0.1628
 6957TIP3    H142430   3.193   0.840   1.695 -0.1816  0.2032  0.3333
 6957TIP3    H242431   3.220   0.852   1.843 -0.9160  2.4533  0.3119
 6958TIP3   OH242432   4.777   4.193   0.873  0.5429 -0.0275  0.1088
 6958TIP3    H142433   4.694   4.238   0.889  1.1418  1.7577 -1.4123
 6958TIP3    H242434   4.768   4.155   0.785  0.6670 -1.4758  0.6975
 6959TIP3   OH242435   6.636   3.422   1.417 -0.7298 -0.1195  0.2465
 6959TIP3    H142436   6.655   3.510   1.447 -1.5156 -0.0801  0.6439
 6959TIP3    H242437   6.572   3.434   1.346 -2.0181 -0.4417  1.3204
 6960TIP3   OH242438   0.333   0.372   1.481  0.1360  0.1189  0.6356
 6960TIP3    H142439   0.346   0.448   1.538  1.3794 -0.3066  0.9508
 6960TIP3    H242440   0.283   0.310   1.534  1.5762 -0.4145  1.4488
 6961TIP3   OH242441   2.286   1.524   8.183 -1.0617 -0.0861  0.0061
 6961TIP3    H142442   2.360   1.468   8.156 -0.9430  0.1588 -0.1796
 6961TIP3    H242443   2.268   1.578   8.106 -0.1504  1.2345  0.6932
 6962TIP3   OH242444   1.586   1.296   6.898 -0.2711  0.3515  0.2756
 6962TIP3    H142445   1.498   1.260   6.888 -0.3850 -0.2977  2.8417
 6962TIP3    H242446   1.583   1.343   6.981  1.8206  0.2617  0.4527
 6963TIP3   OH242447   5.054   2.202   1.339 -0.4579  0.1810  0.1426
 6963TIP3    H142448   5.094   2.125   1.379 -0.8735  0.5432  1.2747
 6963TIP3    H242449   5.118   2.271   1.348 -0.9787  0.5463  1.2084
 6964TIP3   OH242450   6.250   5.269   1.509  0.1374  0.3275 -0.6918
 6964TIP3    H142451   6.330   5.258   1.561 -0.3039  1.2524  0.2277
 6964TIP3    H242452   6.240   5.186   1.462  0.3713 -0.7008  0.9892
 6965TIP3   OH242453   5.182   3.743   8.398 -0.2040  0.4628  0.0566
 6965TIP3    H142454   5.114   3.811   8.393  0.3788  1.0181 -0.6520
 6965TIP3    H242455   5.196   3.717   8.307 -1.0253 -1.2519  0.3920
 6966TIP3   OH242456   1.446   0.235   8.058  0.0843 -0.1211  0.3604
 6966TIP3    H142457   1.397   0.200   7.983 -0.2994  0.5781  0.2792
 6966TIP3    H242458   1.526   0.270   8.019 -0.6110  1.2613  0.0967
 6967TIP3   OH242459   1.589   6.034   1.597  0.4408  0.3248 -0.1879
 6967TIP3    H142460   1.526   6.103   1.574  0.5322  0.5176  0.1239
 6967TIP3    H242461   1.575   6.020   1.691  0.6939  0.1956 -0.1685
 6968TIP3   OH242462   2.546   5.413   0.475 -0.3450 -0.3329 -0.0990
 6968TIP3    H142463   2.520   5.347   0.411  0.0193 -0.4007 -0.1804
 6968TIP3    H242464   2.637   5.434   0.452 -1.0401  1.6623 -1.3596
 6969TIP3   OH242465   2.098   6.082   7.211 -0.0884  0.8700  0.0003
 6969TIP3    H142466   2.033   6.020   7.178 -0.5391  1.9098 -1.1219
 6969TIP3    H242467   2.062   6.168   7.189  1.1378  1.4919  0.3820
 6970TIP3   OH242468   5.495   1.549   7.074  0.3947 -0.3776 -0.6353
 6970TIP3    H142469   5.416   1.554   7.020 -0.4106 -0.3152  0.5108
 6970TIP3    H242470   5.496   1.459   7.107  0.1213 -0.0436  0.3196
 6971TIP3   OH242471   5.622   3.640   6.795  0.5020 -0.0403 -0.1525
 6971TIP3    H142472   5.547   3.619   6.739 -2.2137  4.1501  1.4720
 6971TIP3    H242473   5.693   3.658   6.733 -1.1853  0.4714 -2.0621
 6972TIP3   OH242474   1.549   4.455   2.012  0.2886  0.4019  0.2449
 6972TIP3    H142475   1.564   4.361   2.015 -2.3551 -0.0758  1.1283
 6972TIP3    H242476   1.454   4.464   2.001  0.6333  2.9836 -1.5531
 6973TIP3   OH242477   2.730   3.625   7.694  0.3596 -0.0713  0.1644
 6973TIP3    H142478   2.742   3.711   7.653 -1.9418  0.9816  1.5183
 6973TIP3    H242479   2.786   3.627   7.772 -1.6124  1.2865  1.6156
 6974TIP3   OH242480   2.140   2.253   0.290  0.5044 -0.2123  0.0080
 6974TIP3    H142481   2.061   2.222   0.246 -0.6461  1.2319  0.9844
 6974TIP3    H242482   2.111   2.276   0.378  2.5862 -2.2944  1.3723
 6975TIP3   OH242483   3.747   0.191   0.283  0.2661 -0.2146 -0.2050
 6975TIP3    H142484   3.766   0.097   0.283  1.6534 -0.0074  1.8487
 6975TIP3    H242485   3.653   0.196   0.303  0.5786 -1.1752  1.7279
 6976TIP3   OH242486   4.542   0.749   7.746  0.3837 -0.6116 -0.1226
 6976TIP3    H142487   4.576   0.766   7.834 -0.2588  1.1145 -0.1614
 6976TIP3    H242488   4.454   0.713   7.761  0.4400 -0.7175 -0.0481
 6977TIP3   OH242489   1.481   5.455   8.198  0.3725  0.3526 -0.0473
 6977TIP3    H142490   1.560   5.400   8.206 -0.1330 -0.5186 -0.8801
 6977TIP3    H242491   1.462   5.456   8.104  0.5123  2.1932 -0.0890
 6978TIP3   OH242492   6.690   4.759   6.503  0.0003 -0.0107 -0.5271
 6978TIP3    H142493   6.629   4.688   6.481  1.2499 -0.9403 -1.1139
 6978TIP3    H242494   6.648   4.805   6.575 -0.4482 -1.9250  0.5082
 6979TIP3   OH242495   3.024   0.083   0.402 -0.3866  0.0572  0.0724
 6979TIP3    H142496   3.052   0.019   0.467  0.4130  1.6262  1.3371
 6979TIP3    H242497   2.951   0.041   0.358  0.0189 -1.6639  0.9568
 6980TIP3   OH242498   1.968   5.070   6.390  0.2511 -0.4154 -0.1024
 6980TIP3    H142499   1.913   5.012   6.444  0.1697 -1.2483 -1.0357
 6980TIP3    H242500   2.034   5.103   6.450 -0.3435 -0.6357  0.6986
 6981TIP3   OH242501   6.763   2.547   7.182  0.1544  0.5124  0.3268
 6981TIP3    H142502   6.792   2.476   7.125  0.7228 -0.2570  1.5362
 6981TIP3    H242503   6.837   2.562   7.241 -0.4605  1.2056  0.9366
 6982TIP3   OH242504   2.618   4.436   8.616 -0.4265  0.4933 -0.2318
 6982TIP3    H142505   2.574   4.364   8.661 -0.4557  1.3064  1.0957
 6982TIP3    H242506   2.559   4.510   8.625 -0.6041  0.6144 -1.9735
 6983TIP3   OH242507   0.706   4.320   0.913 -0.4393  0.7645 -0.1959
 6983TIP3    H142508   0.733   4.411   0.900 -1.2228  0.9628 -0.4784
 6983TIP3    H242509   0.758   4.271   0.848  0.1953  0.9627  0.1526
 6984TIP3   OH242510   6.692   2.168   0.957 -0.2778 -0.6106 -0.0960
 6984TIP3    H142511   6.618   2.188   1.014  0.7032 -0.1317  1.0435
 6984TIP3    H242512   6.654   2.169   0.869 -1.2006  2.0613  0.2203
 6985TIP3   OH242513   0.990   6.656   1.096  0.2152 -0.5657  0.0611
 6985TIP3    H142514   1.036   6.572   1.097 -0.8917 -1.2098 -0.8937
 6985TIP3    H242515   0.916   6.642   1.036 -0.3023  0.9199  0.3226
 6986TIP3   OH242516   2.695   0.646   0.017 -0.3386 -0.4522 -0.7893
 6986TIP3    H142517   2.606   0.647   0.052 -0.0013  1.1298  0.1058
 6986TIP3    H242518   2.739   0.578   0.067 -0.2392  0.8522  0.9685
 6987TIP3   OH242519   6.022   6.489   7.181 -0.0866  0.1119 -0.3955
 6987TIP3    H142520   5.949   6.429   7.196 -0.2253  0.4265  0.2439
 6987TIP3    H242521   6.094   6.433   7.152 -0.7950 -0.1127 -1.8022
 6988TIP3   OH242522   4.351   2.582   7.858 -0.4039  0.5594 -0.2837
 6988TIP3    H142523   4.306   2.526   7.795 -0.7534 -0.2774  0.6813
 6988TIP3    H242524   4.349   2.669   7.819  0.1873 -0.0929 -1.8468
 6989TIP3   OH242525   2.651   5.862   7.471  0.4592  0.5396 -0.6619
 6989TIP3    H142526   2.702   5.788   7.503 -0.4767 -0.3510 -1.1714
 6989TIP3    H242527   2.642   5.920   7.546 -0.0492 -0.5720  0.1525
 6990TIP3   OH242528   2.159   3.113   1.365 -1.1017  0.7293  0.0678
 6990TIP3    H142529   2.143   3.197   1.323  0.5857  1.1216  0.1423
 6990TIP3    H242530   2.229   3.073   1.314 -1.2315 -0.2209  0.5971
 6991TIP3   OH242531   5.650   2.015   8.569  0.1654 -0.0712  0.6890
 6991TIP3    H142532   5.732   2.023   8.519 -0.1168  0.6928  0.3325
 6991TIP3    H242533   5.586   1.984   8.505 -0.4361  1.8509  0.2784
 6992TIP3   OH242534   6.561   4.651   7.432  0.4835 -0.3975 -0.4937
 6992TIP3    H142535   6.647   4.672   7.395  0.3074 -0.8498 -1.1792
 6992TIP3    H242536   6.532   4.574   7.383 -0.1075 -0.5375  0.0593
 6993TIP3   OH242537   3.606   3.891   6.491 -0.2310  0.2795  0.0957
 6993TIP3    H142538   3.692   3.854   6.473 -0.3956 -3.0348  4.4174
 6993TIP3    H242539   3.545   3.835   6.444 -0.1749  0.9615 -0.8128
 6994TIP3   OH242540   2.424   6.352   6.910  0.3170 -0.2797  0.4703
 6994TIP3    H142541   2.374   6.346   6.829 -0.2383  0.8178  0.7095
 6994TIP3    H242542   2.386   6.286   6.968  1.4177 -1.8157 -0.5004
 6995TIP3   OH242543   6.750   1.346   1.120  0.5066 -0.0454 -0.5287
 6995TIP3    H142544   6.658   1.347   1.145  0.3837  1.0427 -0.9781
 6995TIP3    H242545   6.797   1.360   1.203  0.1403  2.3748 -0.6433
 6996TIP3   OH242546   1.410   0.184   1.244  0.1101  0.4374  0.4695
 6996TIP3    H142547   1.397   0.125   1.169  0.4999  0.3902  0.4371
 6996TIP3    H242548   1.376   0.135   1.319  1.2934 -0.2192  0.5939
 6997TIP3   OH242549   4.211   1.185   0.085  0.6803 -0.2568 -0.0440
 6997TIP3    H142550   4.166   1.164   0.167  0.5873  0.3898  0.0761
 6997TIP3    H242551   4.146   1.233   0.034  1.3194  0.9481  0.2516
 6998TIP3   OH242552   0.548   1.494   6.984  0.4800  0.2307  0.1660
 6998TIP3    H142553   0.630   1.479   6.936  0.8240  1.2518  0.3890
 6998TIP3    H242554   0.573   1.555   7.054 -0.5939  1.0899 -0.1692
 6999TIP3   OH242555   0.843   6.180   0.287  0.1821  0.8096 -0.2527
 6999TIP3    H142556   0.774   6.130   0.329  1.0336 -0.2946 -0.1199
 6999TIP3    H242557   0.902   6.114   0.251 -0.0559  1.6992 -2.4436
 7000TIP3   OH242558   0.308   6.752   7.839  0.3397 -0.1358  0.3055
 7000TIP3    H142559   0.331   6.673   7.888  0.1960 -0.1353  0.3738
 7000TIP3    H242560   0.298   6.819   7.906  1.2816  0.1379  0.1820
 7001TIP3   OH242561   3.750   1.639   7.530 -0.0273 -0.2196  0.1855
 7001TIP3    H142562   3.661   1.648   7.498  0.1309  0.5108 -0.0675
 7001TIP3    H242563   3.747   1.671   7.620  0.1846  0.7997 -0.1595
 7002TIP3   OH242564   0.807   3.286   6.345 -0.1845 -0.0047 -0.3837
 7002TIP3    H142565   0.894   3.251   6.326  0.2150  0.9072 -0.2820
 7002TIP3    H242566   0.801   3.285   6.441  0.0460  0.7043 -0.3579
 7003TIP3   OH242567   5.503   0.674   8.592  0.0671  0.1933 -0.1466
 7003TIP3    H142568   5.592   0.699   8.617  0.4516  0.2079 -1.4399
 7003TIP3    H242569   5.514   0.626   8.510 -1.2299  1.7981 -1.3340
 7004TIP3   OH242570   6.500   5.083   0.497 -0.4331 -0.6080  0.5731
 7004TIP3    H142571   6.436   5.083   0.426 -0.3035 -1.5581  0.4444
 7004TIP3    H242572   6.537   4.996   0.496  0.4207 -0.2616  1.0590
 7005TIP3   OH242573   6.563   2.781   0.891 -0.3845 -0.0594  1.1781
 7005TIP3    H142574   6.493   2.771   0.826 -1.8408  0.1313  2.6682
 7005TIP3    H242575   6.635   2.819   0.841 -0.4855 -2.3235 -0.9363
 7006TIP3   OH242576   1.616   5.073   8.113  0.2841 -0.3648 -0.2360
 7006TIP3    H142577   1.663   5.015   8.053 -1.3717 -0.8325 -1.1332
 7006TIP3    H242578   1.594   5.018   8.188 -0.6217 -0.7379 -0.7513
 7007TIP3   OH242579   5.407   5.275   7.447 -0.0655 -0.2493 -0.0739
 7007TIP3    H142580   5.322   5.316   7.435  0.3725  0.4958 -0.7085
 7007TIP3    H242581   5.453   5.332   7.509  1.1456  1.2101 -2.1918
 7008TIP3   OH242582   5.530   2.471   7.370  0.1820  0.0061  0.0633
 7008TIP3    H142583   5.452   2.526   7.371 -0.0879 -0.2367 -2.0269
 7008TIP3    H242584   5.601   2.529   7.396 -0.7090  0.1316  2.4095
 7009TIP3   OH242585   5.131   3.140   8.203 -0.1149  0.6209  0.5056
 7009TIP3    H142586   5.155   3.104   8.289  0.4468 -0.2430  0.0015
 7009TIP3    H242587   5.038   3.121   8.194 -0.4629  1.7504  1.4036
 7010TIP3   OH242588   3.747   0.719   0.322 -0.5942 -0.1134 -0.0352
 7010TIP3    H142589   3.658   0.737   0.293 -0.5897 -0.3960 -0.2337
 7010TIP3    H242590   3.751   0.623   0.329 -0.0144 -0.1696 -0.9791
 7011TIP3   OH242591   3.085   5.042   8.352  0.3111 -0.1037 -0.1626
 7011TIP3    H142592   3.171   5.038   8.311  0.1120 -1.2175 -0.4930
 7011TIP3    H242593   3.025   5.060   8.280 -0.0040 -1.7573 -0.3402
 7012TIP3   OH242594   3.564   2.090   0.899  0.0199  0.2579 -0.7646
 7012TIP3    H142595   3.538   2.042   0.978 -1.1604  0.0582 -1.2512
 7012TIP3    H242596   3.597   2.023   0.840 -1.1859  0.0725 -1.2642
 7013TIP3   OH242597   0.376   0.300   7.648  0.3626 -0.0930 -0.4654
 7013TIP3    H142598   0.361   0.355   7.725 -1.4504 -0.5902 -0.4273
 7013TIP3    H242599   0.395   0.363   7.578 -0.6192  0.5436 -0.1810
 7014TIP3   OH242600   5.006   3.481   8.282 -0.8933  0.1028 -0.2100
 7014TIP3    H142601   5.028   3.404   8.229 -1.2581 -0.4912  0.4704
 7014TIP3    H242602   5.090   3.512   8.315 -0.8676 -1.0721  0.9283
 7015TIP3   OH242603   5.940   2.137   7.215 -0.3949  0.1464  0.4027
 7015TIP3    H142604   5.866   2.083   7.190 -1.1570 -0.8992  4.3821
 7015TIP3    H242605   5.901   2.219   7.247  0.4695  1.0868 -0.8125
 7016TIP3   OH242606   5.482   3.422   0.131  0.1345 -0.6936  0.8823
 7016TIP3    H142607   5.391   3.451   0.139  0.7246  1.7045 -0.2476
 7016TIP3    H242608   5.491   3.355   0.199 -1.7922  0.8036  2.7937
 7017TIP3   OH242609   0.307   2.830   6.325  0.5455 -0.0946 -0.6892
 7017TIP3    H142610   0.266   2.913   6.299 -0.2416 -0.7235 -1.5193
 7017TIP3    H242611   0.386   2.856   6.372 -0.3817  1.1560  0.2659
 7018TIP3   OH242612   4.966   4.852   1.425 -0.4302 -0.4329  0.1542
 7018TIP3    H142613   4.897   4.894   1.477  0.1024 -0.0361  0.5594
 7018TIP3    H242614   4.979   4.766   1.466 -1.6122 -1.0621 -0.7556
 7019TIP3   OH242615   0.032   5.095   0.914  0.2755 -0.2253 -0.9216
 7019TIP3    H142616   0.104   5.140   0.958 -0.4553 -1.5238  1.8475
 7019TIP3    H242617  -0.047   5.132   0.955 -0.5171 -0.6227 -2.0699
 7020TIP3   OH242618   0.556   5.839   1.552  0.0971  0.0734  0.7103
 7020TIP3    H142619   0.468   5.804   1.534 -0.0642  0.2749  1.0912
 7020TIP3    H242620   0.601   5.768   1.597 -0.1370  0.2478  1.2293
 7021TIP3   OH242621   2.422   3.480   1.463  0.4087 -0.4397  0.1699
 7021TIP3    H142622   2.398   3.487   1.555  0.5747 -1.7832  0.3426
 7021TIP3    H242623   2.447   3.569   1.437 -3.1152  0.7526  0.3971
 7022TIP3   OH242624   1.872   3.640   7.078  0.2017  0.1090 -0.3363
 7022TIP3    H142625   1.807   3.575   7.104 -1.1378  1.2245 -0.7719
 7022TIP3    H242626   1.949   3.620   7.130 -0.6159 -1.0300  0.4639
 7023TIP3   OH242627   6.658   6.588   6.798 -0.2154 -0.3120  0.0234
 7023TIP3    H142628   6.720   6.658   6.780 -0.5337 -0.0917 -0.2182
 7023TIP3    H242629   6.711   6.508   6.798  0.1519 -0.0668  0.3371
 7024TIP3   OH242630   3.040   3.994   0.735 -0.1227  0.0211  0.3111
 7024TIP3    H142631   2.965   4.032   0.782  0.5058  1.0564  0.5054
 7024TIP3    H242632   3.116   4.022   0.785  0.4216 -0.7662 -0.0661
 7025TIP3   OH242633   0.168   2.376   7.037  0.4708  0.2309 -0.6883
 7025TIP3    H142634   0.095   2.314   7.034 -0.1702  0.9547 -0.4458
 7025TIP3    H242635   0.219   2.356   6.959 -0.8045  0.6771 -1.6899
 7026TIP3   OH242636   2.507   2.661   6.627  0.5021 -0.0384 -0.0668
 7026TIP3    H142637   2.566   2.610   6.572 -1.8799 -1.8131 -1.1983
 7026TIP3    H242638   2.470   2.727   6.568  1.8195  1.5317  0.8085
 7027TIP3   OH242639   4.906   4.196   0.007  0.2725  0.1903  0.3421
 7027TIP3    H142640   4.812   4.210   0.018 -0.4130 -2.7011 -0.7621
 7027TIP3    H242641   4.941   4.198   0.095 -1.6275 -2.7989  1.3325
 7028TIP3   OH242642   6.035   0.717   6.867  0.0494  0.4628 -0.1927
 7028TIP3    H142643   6.072   0.716   6.778  0.9445 -0.6722  0.1714
 7028TIP3    H242644   6.084   0.787   6.911  2.0293 -1.1848  0.3540
 7029TIP3   OH242645   5.356   2.614   8.288  0.0346 -0.1104 -0.0802
 7029TIP3    H142646   5.340   2.559   8.365 -1.1765  0.0565 -0.1851
 7029TIP3    H242647   5.406   2.688   8.322 -1.8876  0.8127  0.9370
 7030TIP3   OH242648   4.688   1.180   7.144 -0.3908  0.2070 -0.2977
 7030TIP3    H142649   4.627   1.214   7.078 -0.3799 -0.6198 -0.7479
 7030TIP3    H242650   4.756   1.137   7.093  0.2965  0.6593  0.2248
 7031TIP3   OH242651   5.995   0.733   0.931 -0.0308 -0.0740 -0.0086
 7031TIP3    H142652   6.020   0.650   0.972 -0.6550 -0.1682  0.1876
 7031TIP3    H242653   5.941   0.706   0.856 -1.8097  0.2027  1.1375
 7032TIP3   OH242654   4.295   6.123   7.301 -0.4949  0.1586 -0.2074
 7032TIP3    H142655   4.376   6.107   7.350 -0.9219 -0.7570  0.2275
 7032TIP3    H242656   4.307   6.210   7.263  1.2713 -0.4912 -1.2761
 7033TIP3   OH242657   0.229   3.918   8.323  0.0096 -0.2980 -0.5882
 7033TIP3    H142658   0.245   3.856   8.251  0.8175  1.0667 -1.6376
 7033TIP3    H242659   0.316   3.948   8.348 -0.0591 -2.2237  2.4081
 7034TIP3   OH242660   1.613   4.056   8.496 -0.4847 -0.2468  0.7172
 7034TIP3    H142661   1.704   4.081   8.512 -0.6787  0.6094  0.5271
 7034TIP3    H242662   1.563   4.110   8.557 -0.8550 -0.8883  0.9916
 7035TIP3   OH242663   3.493   3.151   0.514 -0.2315 -0.5418  0.2030
 7035TIP3    H142664   3.465   3.129   0.603 -0.8223  0.4401  0.2797
 7035TIP3    H242665   3.482   3.246   0.508  0.5663 -0.4862 -0.6646
 7036TIP3   OH242666   1.903   1.166   0.886  0.0995  0.8712 -0.3330
 7036TIP3    H142667   1.950   1.122   0.815  0.4027  0.9189 -0.1659
 7036TIP3    H242668   1.963   1.161   0.961 -1.6705 -2.5754  1.0899
 7037TIP3   OH242669   6.173   1.504   0.025  0.4692 -0.7007  0.1082
 7037TIP3    H142670   6.121   1.566   0.076  2.1249  0.0033  1.0138
 7037TIP3    H242671   6.158   1.420   0.068 -0.5580 -0.6741 -0.1666
 7038TIP3   OH242672   5.828   0.740   2.026 -0.6361 -0.2878  0.3799
 7038TIP3    H142673   5.800   0.689   2.102 -0.1767 -0.2645  0.5694
 7038TIP3    H242674   5.768   0.814   2.024 -3.5882 -2.5157 -1.9393
 7039TIP3   OH242675   2.841   2.575   0.366  0.6312 -0.0982  1.1385
 7039TIP3    H142676   2.851   2.625   0.284 -0.9273 -1.0040  0.3499
 7039TIP3    H242677   2.759   2.608   0.403 -1.2071 -2.9099 -0.1046
 7040TIP3   OH242678   4.209   0.823   0.528 -0.4601  0.7219  0.2799
 7040TIP3    H142679   4.150   0.753   0.554 -0.9930  0.9126 -0.3714
 7040TIP3    H242680   4.154   0.901   0.526  0.2367  1.2778  1.5250
 7041TIP3   OH242681   2.466   3.914   0.556  0.2710  0.2554  0.2325
 7041TIP3    H142682   2.501   3.999   0.528  0.8741 -0.4280 -1.2600
 7041TIP3    H242683   2.373   3.917   0.533  0.6753 -0.1474 -1.7028
 7042TIP3   OH242684   4.947   4.188   0.270 -0.7832 -0.5832 -0.0235
 7042TIP3    H142685   4.999   4.129   0.326 -1.7200 -1.2169  0.2069
 7042TIP3    H242686   4.857   4.160   0.284 -0.9998 -1.2843 -2.4374
 7043TIP3   OH242687   4.307   3.000   0.400 -0.1977 -0.3960 -0.1197
 7043TIP3    H142688   4.266   3.047   0.327  0.0321  1.3339  0.7988
 7043TIP3    H242689   4.244   2.933   0.426 -1.6102  0.9513  0.0232
 7044TIP3   OH242690   0.221   5.820   2.655 -0.0927  0.2646 -0.1897
 7044TIP3    H142691   0.221   5.885   2.725  2.3590 -1.2556  1.3773
 7044TIP3    H242692   0.182   5.865   2.580 -0.4942  2.7837  1.4237
 7045TIP3   OH242693   4.128   2.191   2.510 -0.3104 -0.8623  0.5612
 7045TIP3    H142694   4.068   2.266   2.510 -0.1130 -0.7034  0.4488
 7045TIP3    H242695   4.188   2.208   2.437 -0.6299 -1.4299  0.1622
 7046TIP3   OH242696   5.413   3.919   8.438  0.2829  0.1853 -0.1281
 7046TIP3    H142697   5.396   3.960   8.523 -0.8295  0.2432 -0.3629
 7046TIP3    H242698   5.347   3.850   8.430  2.8533 -2.5778  0.7983
 7047TIP3   OH242699   2.426   1.789   7.920 -0.0594 -0.1121  0.0182
 7047TIP3    H142700   2.468   1.717   7.874 -0.8602 -1.0388  0.7005
 7047TIP3    H242701   2.333   1.766   7.921 -0.0803 -0.1044  2.0014
 7048TIP3   OH242702   0.549   3.710   0.851 -0.0047  0.4555 -0.2517
 7048TIP3    H142703   0.473   3.737   0.903  0.2451 -0.2577  0.4895
 7048TIP3    H242704   0.594   3.792   0.830  0.1352  0.7207  1.0209
 7049TIP3   OH242705   2.040   3.295   1.562  0.5208  0.1597  0.2536
 7049TIP3    H142706   2.093   3.250   1.496  0.1987 -0.0550  0.1366
 7049TIP3    H242707   1.959   3.319   1.516  0.3353  0.0970  0.5422
 7050TIP3   OH242708   5.469   6.196   6.411 -0.2240  0.3215 -0.3421
 7050TIP3    H142709   5.454   6.288   6.430 -0.2281  0.3162 -0.3192
 7050TIP3    H242710   5.521   6.197   6.330  0.1333  0.3545 -0.1159
 7051TIP3   OH242711   2.383   2.335   0.229 -0.2858  0.5326  0.1249
 7051TIP3    H142712   2.422   2.264   0.177 -0.3972  0.3317  0.3122
 7051TIP3    H242713   2.294   2.306   0.244  0.8812 -1.6142  4.2457
 7052TIP3   OH242714   6.350   3.478   1.224 -0.6271  0.2263 -0.3757
 7052TIP3    H142715   6.370   3.386   1.235  0.6958  0.5220 -0.1349
 7052TIP3    H242716   6.287   3.481   1.151  2.8726 -0.5803 -3.7480
 7053TIP3   OH242717   5.378   3.977   7.652  0.0758 -0.0407  0.2566
 7053TIP3    H142718   5.283   3.986   7.663  0.1683  2.5758 -0.4208
 7053TIP3    H242719   5.389   3.891   7.611 -1.9009 -0.8188  1.2237
 7054TIP3   OH242720   2.669   6.478   0.036 -0.2543  0.2145 -0.1237
 7054TIP3    H142721   2.645   6.414   0.103  1.8558 -1.2540 -0.6582
 7054TIP3    H242722   2.716   6.546   0.083 -2.2940  1.3164  0.4143
 7055TIP3   OH242723   4.493   6.394   7.768 -0.3988 -0.6014 -0.0207
 7055TIP3    H142724   4.572   6.403   7.821 -0.6798  2.1639  0.0989
 7055TIP3    H242725   4.525   6.367   7.682  0.5649 -0.6077  0.3256
 7056TIP3   OH242726   0.066   1.709   7.276  0.0329  0.6078  0.3186
 7056TIP3    H142727   0.046   1.694   7.184 -0.6540 -0.6704  0.6455
 7056TIP3    H242728   0.006   1.778   7.304 -0.9787 -0.2285  0.2332
 7057TIP3   OH242729   6.574   0.417   8.467 -0.3211 -0.4606 -0.1432
 7057TIP3    H142730   6.649   0.470   8.438  0.0813 -0.8057  0.2559
 7057TIP3    H242731   6.529   0.473   8.531  0.3662 -0.7584  0.6282
 7058TIP3   OH242732   6.641   3.006   7.772  0.7234  0.6713 -0.4306
 7058TIP3    H142733   6.627   2.967   7.858  0.4278  0.1627 -0.6971
 7058TIP3    H242734   6.735   3.001   7.758  0.7841  0.8832 -0.0761
 7059TIP3   OH242735   5.002   2.627   8.488 -0.1625  0.2591 -0.1495
 7059TIP3    H142736   4.944   2.551   8.494  0.9269 -0.5748  0.1214
 7059TIP3    H242737   5.090   2.591   8.494  0.4561  1.3654 -1.7934
 7060TIP3   OH242738   0.138   5.541   8.108  0.6317  0.3349  0.0250
 7060TIP3    H142739   0.060   5.578   8.150  1.8801  1.5937  1.3215
 7060TIP3    H242740   0.206   5.607   8.121  1.8737 -0.6208 -1.3144
 7061TIP3   OH242741   3.946   0.485   6.890 -0.0965 -0.2255  0.3073
 7061TIP3    H142742   3.956   0.477   6.795  0.1160 -0.6347  0.3627
 7061TIP3    H242743   3.917   0.399   6.919  2.3736 -0.9198  0.9340
 7062TIP3   OH242744   6.083   0.754   7.434  0.2621  0.0663 -0.3952
 7062TIP3    H142745   6.096   0.698   7.512 -1.7123 -0.1492 -0.1839
 7062TIP3    H242746   6.172   0.771   7.403  0.9955 -2.1358  0.2928
 7063TIP3   OH242747   6.054   3.690   0.720  0.0229  0.1693  0.0629
 7063TIP3    H142748   6.029   3.781   0.705 -0.3343 -0.3512 -3.1857
 7063TIP3    H242749   6.146   3.694   0.745 -0.2638  1.4500  0.9906
 7064TIP3   OH242750   4.995   1.179   6.754 -0.6292 -0.1358  0.2075
 7064TIP3    H142751   4.987   1.084   6.744  0.3830 -0.1892 -0.1472
 7064TIP3    H242752   4.922   1.214   6.701  0.2677 -0.6627 -1.4492
 7065TIP3   OH242753   1.128   5.315   7.935  0.4847 -0.2566 -0.4418
 7065TIP3    H142754   1.033   5.324   7.946  0.4248 -1.0924 -0.1983
 7065TIP3    H242755   1.156   5.267   8.013  1.3572  1.3912  0.3075
 7066TIP3   OH242756   4.420   3.032   1.298 -0.4888  0.6532 -0.2968
 7066TIP3    H142757   4.436   3.066   1.210 -0.6420  1.1158 -0.1466
 7066TIP3    H242758   4.329   3.056   1.318 -1.4092 -1.8332 -1.0882
 7067TIP3   OH242759   1.460   4.245   1.761  0.3329  0.0848  0.1861
 7067TIP3    H142760   1.381   4.249   1.814 -0.2681  1.9312 -0.7792
 7067TIP3    H242761   1.459   4.156   1.724 -1.7312  0.3378 -0.4583
 7068TIP3   OH242762   4.631   3.523   1.459 -0.3402 -0.0951  0.0129
 7068TIP3    H142763   4.597   3.597   1.408 -0.4603 -0.2440 -0.1246
 7068TIP3    H242764   4.708   3.558   1.504  0.3197 -0.2167 -1.0030
 7069TIP3   OH242765   1.785   1.478   8.268 -0.0206 -0.0906 -0.2036
 7069TIP3    H142766   1.874   1.455   8.239  0.7447 -0.5606  2.2570
 7069TIP3    H242767   1.770   1.565   8.230  2.5732  1.1658  1.3051
 7070TIP3   OH242768   5.627   1.497   0.484 -0.4189  0.4498  0.1386
 7070TIP3    H142769   5.617   1.420   0.540 -0.8762 -0.5679 -1.2830
 7070TIP3    H242770   5.679   1.466   0.410  0.6180  1.8964  0.2188
 7071TIP3   OH242771   6.420   3.391   7.489  0.6475 -0.3116 -0.2077
 7071TIP3    H142772   6.452   3.394   7.399  0.6845  0.1063 -0.1856
 7071TIP3    H242773   6.343   3.448   7.489  1.0740  0.2791  0.1834
 7072TIP3   OH242774   6.349   6.075   7.329 -0.2283 -0.3200 -0.4732
 7072TIP3    H142775   6.392   6.049   7.248 -1.4188 -2.2607 -0.5441
 7072TIP3    H242776   6.413   6.130   7.375  0.5672  0.5999 -2.5735
 7073LIG     C142777   4.638   4.275   8.385  0.0454 -0.4524  0.6708
 7073LIG     C242778   4.665   4.188   8.507  0.4553 -0.1309  0.4042
 7073LIG     C342779   4.590   4.231   8.629 -0.0033 -0.1311  0.9471
 7073LIG      O42780   4.801   4.209   8.528 -0.2155  0.1733 -0.2771
 7073LIG     H142781   4.663   4.384   8.386 -1.4980 -0.0607 -0.1273
 7073LIG     H242782   4.533   4.274   8.348  0.2608  1.3295 -0.1036
 7073LIG     H342783   4.693   4.235   8.298 -1.4863  0.3554 -0.7166
 7073LIG     H442784   4.645   4.080   8.489 -0.4080  0.2114 -0.7388
 7073LIG     H542785   4.623   4.336   8.648  1.8493 -0.4598 -0.2886
 7073LIG     H642786   4.606   4.170   8.721 -1.2944  1.4189  2.2847
 7073LIG     H742787   4.483   4.216   8.604  0.0468 -0.4683  0.9365
 7073LIG     H842788   4.800   4.304   8.518  0.2513  0.1072 -1.0571
   6.80204   6.80204   8.86474
