Title
42788
    1SAPS     N    1   1.582   0.050   7.141 -0.5359  0.3359 -0.0723
    1SAPS   HN1    2   1.591  -0.053   7.126  0.8497  0.5322 -0.7989
    1SAPS   HN2    3   1.656   0.071   7.211 -1.1387  0.6989  0.4570
    1SAPS   HN3    4   1.488   0.085   7.168 -1.6239 -1.5121 -1.2131
    1SAPS   C12    5   1.633   0.117   7.016 -0.5635 -0.4739  0.4684
    1SAPS  H12A    6   1.549   0.128   6.949  0.3605  2.1674 -0.3867
    1SAPS   C13    7   1.689   0.259   7.038 -0.5328  0.4068 -0.4481
    1SAPS  O13A    8   1.681   0.310   7.147 -0.6574 -0.8889  0.4995
    1SAPS  O13B    9   1.714   0.323   6.931 -0.3761  0.3608  0.1808
    1SAPS   C11   10   1.740   0.029   6.949  0.2088 -0.6828 -1.0641
    1SAPS  H11A   11   1.820  -0.002   7.020 -0.7951  0.1208  0.4910
    1SAPS  H11B   12   1.786   0.077   6.860 -1.6624 -0.1482 -1.7892
    1SAPS     P   13   1.704  -0.173   6.789 -0.5344 -0.0043  0.3960
    1SAPS   O13   14   1.814  -0.253   6.830 -0.8073  0.7234  0.2096
    1SAPS   O14   15   1.582  -0.240   6.747  0.4297  1.0148  0.3529
    1SAPS   O12   16   1.664  -0.081   6.908 -0.4186 -0.0659  0.3269
    1SAPS   O11   17   1.763  -0.079   6.680  0.1276 -0.4693 -0.3415
    1SAPS    C1   18   1.672   0.005   6.605 -0.7558  0.1832 -0.1751
    1SAPS    HA   19   1.566  -0.013   6.636  0.2517 -1.9257  2.4653
    1SAPS    HB   20   1.697   0.111   6.624 -1.6193  0.0970  1.6375
    1SAPS    C2   21   1.683  -0.032   6.452 -0.0412 -0.0432  0.3500
    1SAPS    HS   22   1.785  -0.008   6.416 -0.1789  0.7954  0.5044
    1SAPS   O21   23   1.583   0.040   6.383  0.1848  0.4922 -0.3387
    1SAPS   C21   24   1.617   0.156   6.331  0.3115 -0.0841 -0.5204
    1SAPS   O22   25   1.714   0.223   6.360  0.3940 -0.4527 -0.3328
    1SAPS   C22   26   1.512   0.183   6.218 -0.3879 -0.0176 -0.6726
    1SAPS   H2R   27   1.519   0.096   6.150  1.8987  0.1014 -0.6548
    1SAPS   H2S   28   1.412   0.182   6.266  1.4731 -0.0033  3.6814
    1SAPS    C3   29   1.670  -0.184   6.432  0.0491  0.3558 -0.0221
    1SAPS    HX   30   1.564  -0.208   6.457  0.4015 -0.9405  0.2847
    1SAPS    HY   31   1.747  -0.234   6.495  0.5585  1.9402  0.6549
    1SAPS   O31   32   1.702  -0.220   6.290 -0.4450  0.4231 -0.3918
    1SAPS   C31   33   1.653  -0.342   6.264 -0.5133  0.5092 -0.0937
    1SAPS   O32   34   1.603  -0.417   6.347 -0.2908 -0.0199 -0.1702
    1SAPS   C32   35   1.715  -0.395   6.134  0.3818 -0.2582  0.3752
    1SAPS   H2X   36   1.725  -0.506   6.141 -2.9079 -0.9431 -2.8164
    1SAPS   H2Y   37   1.811  -0.341   6.124  1.5270 -2.0857  1.0497
    1SAPS   C23   38   1.543   0.315   6.144  0.4376  0.1227 -0.2406
    1SAPS   H3R   39   1.643   0.316   6.096  0.1042  0.4917 -0.9343
    1SAPS   H3S   40   1.557   0.391   6.224  2.4267 -0.7390  0.3066
    1SAPS   C24   41   1.432   0.360   6.051  0.3587 -1.3639 -0.5787
    1SAPS   H4R   42   1.451   0.467   6.032 -0.3534 -0.6473  2.2376
    1SAPS   H4S   43   1.336   0.364   6.107  1.3779  1.4402  1.1737
    1SAPS   C25   44   1.425   0.280   5.930 -0.1621 -0.4355  0.7774
    1SAPS   H5R   45   1.422   0.172   5.948  1.8945 -0.7280 -0.3711
    1SAPS   C26   46   1.417   0.329   5.805 -0.7520 -0.4696  0.4277
    1SAPS   H6R   47   1.394   0.259   5.722 -2.7119  0.6147 -0.0194
    1SAPS   C27   48   1.419   0.473   5.762  0.0913  0.1460 -0.1427
    1SAPS   H7R   49   1.370   0.528   5.845  1.1858  1.8633 -0.5778
    1SAPS   H7S   50   1.375   0.486   5.661 -1.4553 -0.9075  0.3636
    1SAPS   C28   51   1.562   0.523   5.752  0.0653 -0.2544  0.8969
    1SAPS   H8R   52   1.615   0.557   5.842  1.4251 -1.4678  0.5919
    1SAPS   C29   53   1.636   0.510   5.642  0.0497 -0.8613 -0.0355
    1SAPS   H9R   54   1.741   0.542   5.642  0.5296 -2.3330  1.3104
    1SAPS  C210   55   1.578   0.470   5.504 -0.5485  0.2365  0.3875
    1SAPS  H10R   56   1.538   0.564   5.461  1.8981  0.9000 -0.6440
    1SAPS  H10S   57   1.501   0.391   5.517  0.3732 -0.7430  0.0861
    1SAPS  C211   58   1.678   0.428   5.399 -0.4731  0.2744 -0.4425
    1SAPS  H11R   59   1.784   0.444   5.423 -0.1001 -1.1719 -1.0242
    1SAPS  C212   60   1.652   0.355   5.295 -0.1652 -0.2748  0.1319
    1SAPS  H12R   61   1.731   0.358   5.218  2.6359 -0.8809  2.7911
    1SAPS  C213   62   1.514   0.315   5.248  0.2274 -0.4789  0.1464
    1SAPS  H13R   63   1.439   0.397   5.241  0.5591 -0.3236 -1.9498
    1SAPS  H13S   64   1.468   0.247   5.324 -0.5316  1.2071  1.2725
    1SAPS  C214   65   1.516   0.253   5.109  0.4011 -0.3142  0.6325
    1SAPS  H14R   66   1.611   0.250   5.053 -0.8591 -0.2894 -1.6575
    1SAPS  C215   67   1.411   0.219   5.034 -0.1859 -0.0373 -0.5536
    1SAPS  H15R   68   1.425   0.184   4.931  1.0267 -0.3126 -0.3151
    1SAPS  C216   69   1.264   0.222   5.073  0.0821 -0.0792  0.1929
    1SAPS  H16R   70   1.246   0.330   5.055  2.7687  0.2949 -0.6489
    1SAPS  H16S   71   1.245   0.210   5.182  0.9186 -0.7505  0.2764
    1SAPS  C217   72   1.183   0.157   4.964 -0.2296  0.0877  0.2326
    1SAPS  H17R   73   1.222   0.189   4.865 -2.4528 -2.0250 -1.4484
    1SAPS  H17S   74   1.078   0.191   4.953 -0.2336 -0.1217 -0.4307
    1SAPS  C218   75   1.182   0.003   4.973 -0.5705 -0.9425  0.2947
    1SAPS  H18R   76   1.128  -0.035   5.063  2.6363 -0.5152  2.5612
    1SAPS  H18S   77   1.290  -0.023   4.983 -0.2571 -0.0234 -0.5680
    1SAPS  C219   78   1.119  -0.062   4.850 -0.8353  0.1346 -0.1555
    1SAPS  H19R   79   1.011  -0.036   4.849 -0.9547 -0.3436 -1.3033
    1SAPS  H19S   80   1.119  -0.170   4.873  0.1780  0.9121  4.3449
    1SAPS  C220   81   1.185  -0.040   4.719  0.5428  0.5421 -0.8041
    1SAPS  H20R   82   1.293  -0.061   4.731  0.2734  0.2448  1.9452
    1SAPS  H20S   83   1.171   0.066   4.690  3.5282  0.8326 -1.4943
    1SAPS  H20T   84   1.145  -0.106   4.639  2.6288 -1.6684 -0.1236
    1SAPS   C33   85   1.635  -0.373   6.000  0.7075  0.2806  0.3254
    1SAPS   H3X   86   1.640  -0.263   5.981  2.1162  0.2286  0.2592
    1SAPS   H3Y   87   1.530  -0.403   6.017 -0.1582  1.6004 -2.1084
    1SAPS   C34   88   1.679  -0.462   5.883 -0.4400  0.0748  0.2273
    1SAPS   H4X   89   1.680  -0.565   5.924  2.2275 -1.0285 -2.2506
    1SAPS   H4Y   90   1.785  -0.434   5.865 -1.6228  4.0076 -1.6846
    1SAPS   C35   91   1.599  -0.452   5.762  0.6610 -0.2200 -0.0086
    1SAPS   H5X   92   1.568  -0.350   5.730 -1.0886 -0.9749 -0.8702
    1SAPS   H5Y   93   1.505  -0.505   5.789 -0.3446  1.2224 -0.5433
    1SAPS   C36   94   1.650  -0.528   5.641  0.5406 -0.0864 -0.2800
    1SAPS   H6X   95   1.641  -0.635   5.671 -0.4288 -0.2609 -1.1579
    1SAPS   H6Y   96   1.761  -0.521   5.629  0.8565  0.5065  2.3726
    1SAPS   C37   97   1.571  -0.491   5.511 -0.4665  0.4200  0.5854
    1SAPS   H7X   98   1.577  -0.381   5.498  1.3961  0.4705  1.5208
    1SAPS   H7Y   99   1.462  -0.513   5.515 -0.2475 -0.5278  1.8316
    1SAPS   C38  100   1.618  -0.548   5.382 -0.7168 -0.0492 -0.2260
    1SAPS   H8X  101   1.541  -0.518   5.309 -0.4986 -2.8027 -1.7317
    1SAPS   H8Y  102   1.612  -0.658   5.370 -2.4581  0.0770 -0.7132
    1SAPS   C39  103   1.754  -0.491   5.332 -0.3916 -0.7567 -0.2135
    1SAPS   H9X  104   1.828  -0.471   5.412  0.8573 -0.8847 -1.2892
    1SAPS   H9Y  105   1.730  -0.387   5.301 -1.1489 -1.5080 -2.3701
    1SAPS  C310  106   1.814  -0.586   5.230  0.5327  0.5330 -0.3856
    1SAPS  H10X  107   1.744  -0.621   5.151  0.3246 -2.8531  1.1119
    1SAPS  H10Y  108   1.837  -0.677   5.289 -0.8856 -0.7282 -1.6713
    1SAPS  C311  109   1.932  -0.536   5.149 -0.1340 -0.5273 -0.3251
    1SAPS  H11X  110   2.000  -0.619   5.119  0.3810 -1.3695  2.8130
    1SAPS  H11Y  111   1.990  -0.474   5.221  0.6043 -2.5864  0.9572
    1SAPS  C312  112   1.871  -0.456   5.038  0.0145 -0.5486  0.4020
    1SAPS  H12X  113   1.818  -0.368   5.081 -0.6029 -0.3453 -0.7423
    1SAPS  H12Y  114   1.796  -0.521   4.988 -0.3428  0.1521  0.0219
    1SAPS  C313  115   1.981  -0.408   4.937 -0.9390 -0.4021  0.0666
    1SAPS  H13X  116   2.069  -0.476   4.938 -1.2901 -0.8523  0.5767
    1SAPS  H13Y  117   2.024  -0.317   4.984 -1.5601 -1.2959  2.4810
    1SAPS  C314  118   1.924  -0.398   4.803 -0.2757 -0.5712  0.3296
    1SAPS  H14X  119   1.834  -0.335   4.813  0.4981  0.4886  0.7796
    1SAPS  H14Y  120   1.907  -0.495   4.750  1.3496 -0.3137 -0.7429
    1SAPS  C315  121   2.015  -0.324   4.701  0.0312  0.1583  0.8961
    1SAPS  H15X  122   2.079  -0.395   4.645 -0.9514  0.4659 -0.6973
    1SAPS  H15Y  123   2.086  -0.249   4.742  1.1739  0.0225 -0.7537
    1SAPS  C316  124   1.937  -0.252   4.586 -0.3615  0.4219  0.1160
    1SAPS  H16X  125   2.016  -0.209   4.521  2.1361 -0.4021  2.4169
    1SAPS  H16Y  126   1.870  -0.173   4.625 -0.0934 -0.0087  1.5069
    1SAPS  C317  127   1.838  -0.343   4.512  0.2035  0.1338 -0.6751
    1SAPS  H17X  128   1.759  -0.374   4.584  0.7990  2.7360  1.2666
    1SAPS  H17Y  129   1.883  -0.440   4.481 -1.3931 -0.9193  0.1565
    1SAPS  C318  130   1.796  -0.284   4.375  0.1410  0.0967 -0.1100
    1SAPS  H18X  131   1.880  -0.225   4.334  0.3498 -0.1252 -0.0087
    1SAPS  H18Y  132   1.710  -0.214   4.379  0.1276  0.0744  0.0078
    1SAPS  H18Z  133   1.759  -0.355   4.298 -0.9254  0.2304  0.2543
    2SAPS     N  134   5.591   4.074   6.575  0.1731 -0.3971 -0.3884
    2SAPS   HN1  135   5.510   4.027   6.529  0.5768 -1.0967 -0.4035
    2SAPS   HN2  136   5.550   4.157   6.623  0.9836  0.0539 -0.4557
    2SAPS   HN3  137   5.654   4.105   6.498  0.2090 -0.0256 -0.2121
    2SAPS   C12  138   5.643   3.974   6.664  0.4302  0.1963  0.4425
    2SAPS  H12A  139   5.726   4.014   6.719  0.7065  0.4365 -0.1472
    2SAPS   C13  140   5.543   3.920   6.767  0.3657 -0.4161 -0.2098
    2SAPS  O13A  141   5.427   3.956   6.770  0.3074  0.2192  0.2590
    2SAPS  O13B  142   5.577   3.820   6.843 -0.2828  0.2562 -0.5586
    2SAPS   C11  143   5.706   3.863   6.582  0.0873 -0.3882 -0.0386
    2SAPS  H11A  144   5.620   3.817   6.529  0.2106  0.4083 -0.9404
    2SAPS  H11B  145   5.745   3.795   6.661 -0.4298  1.0876  1.5346
    2SAPS     P  146   5.877   3.809   6.399 -0.0642  0.3267  0.0310
    2SAPS   O13  147   6.003   3.872   6.363 -0.6336  0.1422  0.5693
    2SAPS   O14  148   5.881   3.680   6.470 -0.3755 -0.0375  0.6634
    2SAPS   O12  149   5.809   3.919   6.496 -0.1785 -0.1450  0.3639
    2SAPS   O11  150   5.782   3.805   6.272  0.0712  0.7391  0.0816
    2SAPS    C1  151   5.754   3.925   6.199  0.1563  0.1156 -0.5161
    2SAPS    HA  152   5.644   3.941   6.198  0.2863  1.5263  1.3638
    2SAPS    HB  153   5.807   4.014   6.239 -0.2897  0.8522 -1.5397
    2SAPS    C2  154   5.806   3.920   6.050 -0.1111  1.2770 -0.2904
    2SAPS    HS  155   5.746   3.993   5.991 -0.3500  1.5721  0.2990
    2SAPS   O21  156   5.785   3.786   5.995  0.2903  0.7891  0.7060
    2SAPS   C21  157   5.665   3.757   5.939 -0.5757  0.1334 -0.0960
    2SAPS   O22  158   5.570   3.830   5.947  0.4611 -0.2264 -1.0055
    2SAPS   C22  159   5.670   3.622   5.887 -0.3980 -0.0545 -0.4066
    2SAPS   H2R  160   5.740   3.623   5.801  0.3430 -2.8345  0.0803
    2SAPS   H2S  161   5.705   3.555   5.968 -1.5757 -0.6687 -0.3881
    2SAPS    C3  162   5.950   3.964   6.038 -0.0093 -0.1253 -0.4695
    2SAPS    HX  163   6.007   3.889   6.096 -1.0159  0.3227  1.1726
    2SAPS    HY  164   5.968   4.066   6.078  0.2064 -0.3579  0.0217
    2SAPS   O31  165   5.987   3.959   5.899  0.2160 -0.2510  0.6694
    2SAPS   C31  166   5.959   4.064   5.819  0.6446 -0.1948 -0.1015
    2SAPS   O32  167   5.902   4.164   5.855 -0.3762  0.1481 -0.3070
    2SAPS   C32  168   6.005   4.040   5.675  0.2610 -0.0638  0.3017
    2SAPS   H2X  169   5.920   3.996   5.618 -1.1428  0.2553  2.0746
    2SAPS   H2Y  170   6.087   3.965   5.678 -1.3374 -2.1173 -2.2664
    2SAPS   C23  171   5.527   3.580   5.843  0.2983  0.0800  0.2601
    2SAPS   H3R  172   5.441   3.608   5.908 -0.6348 -0.0156 -0.9033
    2SAPS   H3S  173   5.526   3.472   5.817 -0.2235  0.8604 -3.5306
    2SAPS   C24  174   5.477   3.637   5.709  0.1525  0.1311  0.1715
    2SAPS   H4R  175   5.482   3.746   5.727  1.6641  0.0614  0.3271
    2SAPS   H4S  176   5.367   3.628   5.692  0.0808  0.1615  0.5867
    2SAPS   C25  177   5.548   3.592   5.588 -0.5100  0.2621 -0.0881
    2SAPS   H5R  178   5.524   3.490   5.553  2.4773 -0.8426  0.8238
    2SAPS   C26  179   5.656   3.648   5.529  0.1922  0.1601 -0.1200
    2SAPS   H6R  180   5.674   3.603   5.430 -2.5811 -1.6086  0.0423
    2SAPS   C27  181   5.717   3.786   5.556  0.3299 -0.0832  0.0521
    2SAPS   H7R  182   5.825   3.773   5.578  0.3993 -1.5702 -1.0732
    2SAPS   H7S  183   5.676   3.828   5.651  0.1758 -0.4684  0.1570
    2SAPS   C28  184   5.723   3.885   5.439 -0.2045  0.0424 -0.1998
    2SAPS   H8R  185   5.787   3.852   5.356 -2.0111 -1.9490 -0.9141
    2SAPS   C29  186   5.676   4.009   5.452  0.7416 -0.9186  0.7300
    2SAPS   H9R  187   5.679   4.077   5.365 -0.9658  1.7661  2.6137
    2SAPS  C210  188   5.603   4.068   5.568  0.0289 -0.6197 -0.0271
    2SAPS  H10R  189   5.683   4.097   5.641  0.1038  0.4216 -0.5037
    2SAPS  H10S  190   5.540   3.990   5.615  2.2307 -1.9155  0.9235
    2SAPS  C211  191   5.526   4.191   5.536  0.3054 -0.1664  0.0840
    2SAPS  H11R  192   5.419   4.191   5.562  0.5851  2.5854  1.5985
    2SAPS  C212  193   5.560   4.307   5.480  0.1647  0.3397  0.3421
    2SAPS  H12R  194   5.485   4.387   5.484 -0.2933 -0.0079 -0.8497
    2SAPS  C213  195   5.696   4.346   5.425 -0.3703 -0.2387  0.1380
    2SAPS  H13R  196   5.734   4.286   5.339  1.0239  1.5698 -0.5646
    2SAPS  H13S  197   5.777   4.330   5.498  1.0383 -0.7467 -1.4649
    2SAPS  C214  198   5.688   4.497   5.396 -0.1737  0.7415 -0.1740
    2SAPS  H14R  199   5.694   4.557   5.488  3.4299  1.2309 -0.6012
    2SAPS  C215  200   5.667   4.556   5.277  0.2319  0.1329 -0.1466
    2SAPS  H15R  201   5.665   4.666   5.274  1.9279  0.1813 -0.8298
    2SAPS  C216  202   5.653   4.483   5.141 -0.5188  0.4700  0.1286
    2SAPS  H16R  203   5.555   4.508   5.094 -0.2113 -2.3501 -2.3360
    2SAPS  H16S  204   5.667   4.374   5.158  1.2711  0.5071 -0.8803
    2SAPS  C217  205   5.764   4.518   5.037 -0.3101 -0.0923 -0.3634
    2SAPS  H17R  206   5.866   4.488   5.069 -0.5947 -1.7680 -0.9764
    2SAPS  H17S  207   5.767   4.629   5.046  1.6991 -0.1374 -0.0302
    2SAPS  C218  208   5.758   4.485   4.886  0.2829  0.1386 -0.0729
    2SAPS  H18R  209   5.852   4.534   4.853  0.7815 -0.0440  1.0476
    2SAPS  H18S  210   5.665   4.530   4.844 -0.3719  0.3533  1.5550
    2SAPS  C219  211   5.745   4.327   4.873 -0.0561  0.4770 -0.4523
    2SAPS  H19R  212   5.650   4.285   4.911  0.1221 -0.1672 -0.6951
    2SAPS  H19S  213   5.832   4.284   4.927 -0.6169  0.5042  0.4931
    2SAPS  C220  214   5.762   4.290   4.718  0.0241  0.3547  0.1877
    2SAPS  H20R  215   5.798   4.185   4.709  1.7923  0.8311  1.1903
    2SAPS  H20S  216   5.841   4.342   4.659 -0.0145 -0.9523 -1.0868
    2SAPS  H20T  217   5.663   4.305   4.669 -0.8956  1.6971  2.3170
    2SAPS   C33  218   6.069   4.166   5.598  0.1672  0.0003 -0.3473
    2SAPS   H3X  219   6.157   4.201   5.657 -0.2317 -0.5200  0.5860
    2SAPS   H3Y  220   5.996   4.249   5.609  0.1547  0.0523 -0.8092
    2SAPS   C34  221   6.110   4.133   5.456  0.2511 -0.2240  0.7791
    2SAPS   H4X  222   6.030   4.069   5.414 -0.6352  0.2717  1.6365
    2SAPS   H4Y  223   6.205   4.076   5.454 -0.3808 -1.2778 -0.6580
    2SAPS   C35  224   6.121   4.257   5.368  0.1681  0.0489  0.3804
    2SAPS   H5X  225   6.195   4.318   5.423 -0.4198  0.3597  0.8292
    2SAPS   H5Y  226   6.026   4.314   5.364 -0.6748 -1.2392  1.1084
    2SAPS   C36  227   6.148   4.217   5.226  0.2909 -0.0853  0.2760
    2SAPS   H6X  228   6.249   4.171   5.213  1.3025  2.0072  0.2717
    2SAPS   H6Y  229   6.161   4.316   5.175 -1.0662  0.8710  1.7177
    2SAPS   C37  230   6.025   4.140   5.166  0.1726  0.1350  0.1568
    2SAPS   H7X  231   5.934   4.201   5.179  1.1235  1.4920  0.7156
    2SAPS   H7Y  232   5.999   4.048   5.223  0.1668 -1.0797 -1.7052
    2SAPS   C38  233   6.058   4.101   5.015  0.7652 -0.1697 -0.5310
    2SAPS   H8X  234   6.070   4.194   4.955 -1.0478  1.6628  1.7832
    2SAPS   H8Y  235   5.965   4.051   4.979 -1.4725  1.3457  2.6916
    2SAPS   C39  236   6.172   4.009   4.983 -0.4846  0.2153  0.2221
    2SAPS   H9X  237   6.173   3.921   5.051  0.4075 -0.2403 -0.3606
    2SAPS   H9Y  238   6.266   4.067   4.991 -1.6920  2.5749 -1.6685
    2SAPS  C310  239   6.161   3.956   4.840  0.7302  0.2055  0.2540
    2SAPS  H10X  240   6.127   4.027   4.763  0.9244 -1.5503 -1.5512
    2SAPS  H10Y  241   6.077   3.883   4.833  0.7800  0.1117  0.5890
    2SAPS  C311  242   6.280   3.879   4.789  0.3453  0.0662 -0.2480
    2SAPS  H11X  243   6.314   3.803   4.862 -0.5670 -0.1055  0.0087
    2SAPS  H11Y  244   6.375   3.935   4.780  0.1980  0.2874 -0.4827
    2SAPS  C312  245   6.253   3.820   4.657 -0.3725 -0.1385 -0.0349
    2SAPS  H12X  246   6.255   3.894   4.575  0.0100 -0.3375 -0.2099
    2SAPS  H12Y  247   6.160   3.760   4.655  0.4531 -1.5259  0.7195
    2SAPS  C313  248   6.359   3.716   4.624 -0.3508  0.3018  0.0171
    2SAPS  H13X  249   6.392   3.660   4.714  0.2794  1.0279  0.2507
    2SAPS  H13Y  250   6.449   3.766   4.582  1.9768 -0.8564  3.2697
    2SAPS  C314  251   6.301   3.616   4.512 -0.4123  0.5119 -0.1174
    2SAPS  H14X  252   6.293   3.674   4.417 -0.3096  3.3274  1.4869
    2SAPS  H14Y  253   6.202   3.577   4.545  0.4724 -2.0443 -0.2050
    2SAPS  C315  254   6.398   3.492   4.488 -0.3336  0.5917  0.0826
    2SAPS  H15X  255   6.506   3.519   4.494 -0.4105  0.6786  1.3813
    2SAPS  H15Y  256   6.378   3.467   4.382  0.6165  1.8490 -0.4103
    2SAPS  C316  257   6.373   3.374   4.588 -0.3107  0.7601  0.0306
    2SAPS  H16X  258   6.266   3.348   4.573 -0.9154  3.1361 -0.1580
    2SAPS  H16Y  259   6.398   3.415   4.689  0.8365  0.9043 -0.2885
    2SAPS  C317  260   6.473   3.258   4.555 -0.1797 -0.3337 -0.2860
    2SAPS  H17X  261   6.574   3.294   4.584 -0.4377 -0.5277  0.9144
    2SAPS  H17Y  262   6.493   3.257   4.446  2.6439 -3.3737  0.1027
    2SAPS  C318  263   6.438   3.124   4.611  0.2713  0.4506 -0.9558
    2SAPS  H18X  264   6.507   3.050   4.566  2.7312  1.6690  0.6146
    2SAPS  H18Y  265   6.336   3.091   4.583 -1.1457  2.3627  1.5834
    2SAPS  H18Z  266   6.452   3.114   4.720  1.9901 -1.6409 -1.2944
    3SAPS     N  267   0.271   1.997   7.092 -0.7934  0.1458  0.0114
    3SAPS   HN1  268   0.360   1.998   7.145 -0.2294 -2.8060 -0.6945
    3SAPS   HN2  269   0.204   1.948   7.155 -0.5543  0.8679  0.8318
    3SAPS   HN3  270   0.275   1.948   7.000 -1.9485  0.0527 -0.0144
    3SAPS   C12  271   0.237   2.139   7.063 -0.4690  0.9462  0.7841
    3SAPS  H12A  272   0.134   2.149   7.095 -1.2865  0.3211 -1.4410
    3SAPS   C13  273   0.311   2.237   7.144 -0.0432  0.7899  0.4125
    3SAPS  O13A  274   0.425   2.209   7.191 -0.2201 -0.5355  0.7012
    3SAPS  O13B  275   0.272   2.358   7.135 -0.7656 -0.2183  0.3656
    3SAPS   C11  276   0.255   2.164   6.911 -0.4899  0.1293 -0.1959
    3SAPS  H11A  277   0.214   2.266   6.895  1.2568  1.0702  0.9177
    3SAPS  H11B  278   0.186   2.097   6.856 -0.1749  0.3742 -0.8915
    3SAPS     P  279   0.436   2.231   6.740 -0.3115 -0.0165 -0.2001
    3SAPS   O13  280   0.426   2.374   6.781  0.3683 -0.5008 -0.2056
    3SAPS   O14  281   0.566   2.174   6.699 -0.1383  0.2423  0.6081
    3SAPS   O12  282   0.381   2.136   6.858  0.4324 -0.3778 -0.1715
    3SAPS   O11  283   0.331   2.202   6.621  0.3326  0.8137 -0.5965
    3SAPS    C1  284   0.311   2.068   6.573  0.0849  0.2761  0.6035
    3SAPS    HA  285   0.402   2.023   6.528 -1.1001 -1.4493 -0.1926
    3SAPS    HB  286   0.275   2.004   6.656 -0.2219 -2.1517 -1.2852
    3SAPS    C2  287   0.193   2.080   6.469  0.2198  0.7796 -0.3097
    3SAPS    HS  288   0.168   1.973   6.450 -0.5126  1.2526 -2.3184
    3SAPS   O21  289   0.233   2.153   6.349 -0.2611  0.3721 -0.5212
    3SAPS   C21  290   0.310   2.076   6.269 -0.0294 -0.8039 -0.6135
    3SAPS   O22  291   0.337   1.963   6.288 -0.1219  0.4431 -0.1925
    3SAPS   C22  292   0.345   2.161   6.145 -0.0583 -0.5793 -0.1580
    3SAPS   H2R  293   0.266   2.225   6.101  0.7795  0.1651 -0.6211
    3SAPS   H2S  294   0.426   2.225   6.186  0.0971 -2.3168  2.5035
    3SAPS    C3  295   0.065   2.152   6.523  0.1564  0.2152 -0.4994
    3SAPS    HX  296   0.086   2.261   6.522  0.2907  0.1957 -0.0124
    3SAPS    HY  297   0.053   2.126   6.630 -0.5533  1.4791 -0.2532
    3SAPS   O31  298  -0.052   2.123   6.443  0.0544 -0.2306 -0.5681
    3SAPS   C31  299  -0.107   2.006   6.458 -0.3572 -0.5380 -1.1026
    3SAPS   O32  300  -0.081   1.927   6.546  0.0485  0.1501 -0.4637
    3SAPS   C32  301  -0.217   1.997   6.358  0.9285 -0.0417  0.3218
    3SAPS   H2X  302  -0.232   2.100   6.318 -1.6756  0.1788  1.7141
    3SAPS   H2Y  303  -0.313   1.965   6.404  1.3123 -1.0170  0.4620
    3SAPS   C23  304   0.391   2.079   6.026 -0.5733  0.1979 -0.2798
    3SAPS   H3R  305   0.477   2.025   6.071 -2.0238 -0.8687  1.3431
    3SAPS   H3S  306   0.427   2.145   5.944  1.0140  0.2168  0.3991
    3SAPS   C24  307   0.293   1.988   5.959 -0.0504 -0.4650 -0.0302
    3SAPS   H4R  308   0.258   1.917   6.037 -0.3700 -1.1230 -0.7516
    3SAPS   H4S  309   0.344   1.925   5.882 -1.8477 -0.2764 -1.4477
    3SAPS   C25  310   0.173   2.062   5.899 -0.8860  0.5808 -0.3161
    3SAPS   H5R  311   0.107   2.105   5.975 -1.3421  1.6311 -1.2766
    3SAPS   C26  312   0.173   2.107   5.767 -0.1269  0.2262  0.6359
    3SAPS   H6R  313   0.086   2.165   5.731  0.1760  1.2612  1.5092
    3SAPS   C27  314   0.275   2.076   5.655  0.3733 -0.9107 -1.3100
    3SAPS   H7R  315   0.377   2.061   5.697 -0.0553  0.2817  0.2847
    3SAPS   H7S  316   0.293   2.165   5.590 -1.1277 -0.4433 -1.1218
    3SAPS   C28  317   0.238   1.965   5.569  0.0580  0.4127  0.2720
    3SAPS   H8R  318   0.183   1.886   5.622 -1.3713 -2.2964 -4.6417
    3SAPS   C29  319   0.262   1.940   5.439  0.3486 -0.2107 -0.3463
    3SAPS   H9R  320   0.237   1.840   5.403  0.6763 -1.7651  3.2627
    3SAPS  C210  321   0.325   2.036   5.338  0.5114 -0.2259 -0.1865
    3SAPS  H10R  322   0.380   1.974   5.264  0.3459  0.6131 -1.0377
    3SAPS  H10S  323   0.407   2.100   5.378 -0.4965  0.0312  1.5772
    3SAPS  C211  324   0.225   2.136   5.280  0.0358 -0.0459 -0.1737
    3SAPS  H11R  325   0.153   2.173   5.354  0.4404  0.1580  0.1256
    3SAPS  C212  326   0.200   2.161   5.150 -0.8545  0.5952  0.1657
    3SAPS  H12R  327   0.122   2.235   5.129 -2.5202 -0.8825  0.8813
    3SAPS  C213  328   0.290   2.132   5.037  0.0296  0.1030  0.3344
    3SAPS  H13R  329   0.242   2.142   4.937 -1.6923  0.0080  1.1173
    3SAPS  H13S  330   0.322   2.026   5.051  1.2254  0.6065  1.7379
    3SAPS  C214  331   0.422   2.211   5.031  0.2342  0.2048  0.5366
    3SAPS  H14R  332   0.475   2.191   5.125 -2.0723 -1.0213  1.6804
    3SAPS  C215  333   0.462   2.298   4.936 -0.7879  0.4444 -0.6020
    3SAPS  H15R  334   0.558   2.347   4.955 -0.8635 -0.0577  1.2046
    3SAPS  C216  335   0.401   2.326   4.802 -0.5889 -0.0503 -0.1934
    3SAPS  H16R  336   0.415   2.433   4.777  1.9368 -0.3761 -0.4417
    3SAPS  H16S  337   0.295   2.295   4.796 -0.1470 -1.5430 -0.8042
    3SAPS  C217  338   0.493   2.247   4.700 -0.0412  0.2311 -0.9100
    3SAPS  H17R  339   0.505   2.143   4.738 -0.8158  0.2047 -0.7341
    3SAPS  H17S  340   0.597   2.287   4.700  0.0374  0.5619  3.4523
    3SAPS  C218  341   0.442   2.259   4.558 -0.8482  0.5535  0.5189
    3SAPS  H18R  342   0.410   2.366   4.549 -3.3761 -0.2474 -1.3110
    3SAPS  H18S  343   0.344   2.209   4.545  0.0277 -0.5585 -2.6109
    3SAPS  C219  344   0.547   2.224   4.459 -0.1703  0.1249 -0.2946
    3SAPS  H19R  345   0.632   2.295   4.465  0.5866 -0.7098 -0.9362
    3SAPS  H19S  346   0.587   2.125   4.488 -0.7997  0.1369  0.6560
    3SAPS  C220  347   0.505   2.215   4.311  0.4404  0.1033  0.0670
    3SAPS  H20R  348   0.465   2.314   4.279 -1.1760 -0.3538  0.5732
    3SAPS  H20S  349   0.421   2.142   4.300 -0.5337  1.4097 -1.5815
    3SAPS  H20T  350   0.601   2.188   4.261  0.4768  1.4593 -0.6257
    3SAPS   C33  351  -0.183   1.906   6.234 -0.1623  0.3278  0.0950
    3SAPS   H3X  352  -0.204   1.803   6.271 -0.4822  0.5675  0.5876
    3SAPS   H3Y  353  -0.076   1.913   6.204  0.7225 -1.5404  2.4527
    3SAPS   C34  354  -0.273   1.921   6.106  0.3682  0.3945 -0.2775
    3SAPS   H4X  355  -0.369   1.867   6.122  0.0638  0.8555 -0.5476
    3SAPS   H4Y  356  -0.224   1.860   6.028 -1.1276 -1.4125  0.1137
    3SAPS   C35  357  -0.301   2.064   6.062 -0.3802  0.4632 -0.9521
    3SAPS   H5X  358  -0.373   2.107   6.136  0.3525 -0.4649  0.3381
    3SAPS   H5Y  359  -0.203   2.115   6.063  0.1442 -0.5236 -0.4892
    3SAPS   C36  360  -0.357   2.070   5.920 -0.2172 -0.3077  1.0368
    3SAPS   H6X  361  -0.412   2.164   5.899 -0.5376 -0.8064 -0.4584
    3SAPS   H6Y  362  -0.431   1.988   5.919 -0.8739  0.2451 -1.1221
    3SAPS   C37  363  -0.245   2.043   5.817 -0.7748  0.0812  0.4294
    3SAPS   H7X  364  -0.198   1.943   5.826  0.2812  0.6759  1.8201
    3SAPS   H7Y  365  -0.168   2.120   5.839 -1.9898  1.3206  0.4706
    3SAPS   C38  366  -0.289   2.066   5.667  0.2864  0.0018  0.5782
    3SAPS   H8X  367  -0.326   2.170   5.656  2.3340  0.5930 -1.5264
    3SAPS   H8Y  368  -0.379   2.002   5.656  0.8324 -0.7479  0.4196
    3SAPS   C39  369  -0.179   2.037   5.568 -0.5411 -0.2611  0.4982
    3SAPS   H9X  370  -0.156   1.929   5.557 -1.6967 -0.5877  1.1540
    3SAPS   H9Y  371  -0.082   2.083   5.597  0.0388 -0.9851 -0.2680
    3SAPS  C310  372  -0.225   2.074   5.429  0.0283  0.4681  0.5281
    3SAPS  H10X  373  -0.245   2.183   5.423  1.7535  0.7867 -0.2474
    3SAPS  H10Y  374  -0.325   2.027   5.421  0.0585  0.3829  0.6640
    3SAPS  C311  375  -0.151   2.009   5.310 -0.3929 -0.8001 -0.4275
    3SAPS  H11X  376  -0.153   1.899   5.317 -0.9693 -0.9137 -1.9958
    3SAPS  H11Y  377  -0.048   2.052   5.307 -1.0273  0.9953  1.1992
    3SAPS  C312  378  -0.218   2.042   5.178  0.1856 -0.8059  0.1850
    3SAPS  H12X  379  -0.200   2.149   5.156  2.2846 -1.1474  0.0321
    3SAPS  H12Y  380  -0.327   2.024   5.183  0.4382 -2.2587  1.3901
    3SAPS  C313  381  -0.149   1.959   5.072 -0.8010 -0.0405  0.0887
    3SAPS  H13X  382  -0.160   1.849   5.085  0.8616 -0.2063  0.4031
    3SAPS  H13Y  383  -0.039   1.974   5.078 -0.4154 -1.1054 -2.5387
    3SAPS  C314  384  -0.196   1.998   4.930  0.3164 -0.2236 -0.4726
    3SAPS  H14X  385  -0.188   2.109   4.926  2.9089 -0.3877 -2.7247
    3SAPS  H14Y  386  -0.302   1.972   4.912 -0.5206 -0.7209  4.0658
    3SAPS  C315  387  -0.106   1.973   4.809 -0.0334  0.4918  0.3724
    3SAPS  H15X  388  -0.128   1.866   4.789 -2.3295  1.0339 -0.2011
    3SAPS  H15Y  389   0.001   1.993   4.831  0.2284  0.4589 -0.7851
    3SAPS  C316  390  -0.159   2.042   4.687  0.2798 -0.5230  0.4463
    3SAPS  H16X  391  -0.131   2.149   4.698 -0.9986 -0.0993 -0.1745
    3SAPS  H16Y  392  -0.269   2.030   4.684  0.3243 -2.4243  2.9521
    3SAPS  C317  393  -0.104   1.980   4.548  0.5318 -0.3010 -0.8913
    3SAPS  H17X  394  -0.173   2.006   4.466 -0.3877 -0.9316 -0.3369
    3SAPS  H17Y  395  -0.121   1.871   4.558 -0.2269  0.0340  2.4995
    3SAPS  C318  396   0.047   1.996   4.514  0.1640 -0.8824 -0.2030
    3SAPS  H18X  397   0.069   2.104   4.500 -1.0175 -0.7188 -0.9230
    3SAPS  H18Y  398   0.084   1.944   4.424 -0.0786 -1.1189 -0.1664
    3SAPS  H18Z  399   0.105   1.962   4.603 -0.9020 -2.8693 -0.2051
    4SAPS     N  400   0.651   1.433   6.544 -0.3770  0.1516  0.3409
    4SAPS   HN1  401   0.700   1.520   6.573  1.7733 -0.8255 -0.2248
    4SAPS   HN2  402   0.589   1.461   6.465 -2.9585 -0.6901  1.9409
    4SAPS   HN3  403   0.595   1.391   6.621  1.4863 -0.9474  1.1597
    4SAPS   C12  404   0.751   1.324   6.518 -0.2213  0.0804  0.3768
    4SAPS  H12A  405   0.812   1.361   6.437 -0.7761 -1.1235 -0.6184
    4SAPS   C13  406   0.857   1.302   6.632  0.7287  0.0499 -0.0984
    4SAPS  O13A  407   0.845   1.368   6.733  0.3005  0.1172 -0.1730
    4SAPS  O13B  408   0.959   1.228   6.616  0.6611  0.4178 -0.1575
    4SAPS   C11  409   0.670   1.192   6.481  0.8967 -0.0027  0.4113
    4SAPS  H11A  410   0.741   1.119   6.438 -0.0790 -1.3122  0.9747
    4SAPS  H11B  411   0.599   1.214   6.398 -1.0185  1.9003  2.4207
    4SAPS     P  412   0.598   0.988   6.655  0.2469 -0.2652  0.1664
    4SAPS   O13  413   0.704   0.988   6.748 -0.1997  0.1792  0.6556
    4SAPS   O14  414   0.468   0.938   6.708 -0.0261 -0.2781 -0.1090
    4SAPS   O12  415   0.588   1.136   6.587  0.0476 -0.1405  0.3492
    4SAPS   O11  416   0.643   0.886   6.541  0.0025  0.8233  0.1160
    4SAPS    C1  417   0.569   0.774   6.505  0.8930 -0.4318  0.4016
    4SAPS    HA  418   0.548   0.711   6.594 -2.2034  2.1620  1.7284
    4SAPS    HB  419   0.471   0.817   6.472  0.8886  0.3361  1.3571
    4SAPS    C2  420   0.633   0.695   6.395  0.4879 -0.2940  0.4777
    4SAPS    HS  421   0.737   0.674   6.426  0.3337  0.5888  1.6621
    4SAPS   O21  422   0.637   0.779   6.276  0.1645 -0.0843  0.5661
    4SAPS   C21  423   0.742   0.861   6.266  0.7150 -0.2347  0.3893
    4SAPS   O22  424   0.834   0.858   6.339 -0.4271 -0.0594  0.4448
    4SAPS   C22  425   0.708   0.978   6.170  0.6330 -0.3099 -0.1920
    4SAPS   H2R  426   0.624   0.946   6.104 -0.9640  3.1614 -0.0728
    4SAPS   H2S  427   0.667   1.059   6.235 -2.0291 -1.5712 -0.1425
    4SAPS    C3  428   0.567   0.559   6.370  0.4224 -0.5933  0.1385
    4SAPS    HX  429   0.460   0.573   6.345  0.3323  3.7866  2.1167
    4SAPS    HY  430   0.585   0.511   6.468  3.7720  1.8328  0.9041
    4SAPS   O31  431   0.635   0.469   6.276  0.2832 -0.2365  0.1811
    4SAPS   C31  432   0.584   0.348   6.271  0.7505 -0.5810 -0.0826
    4SAPS   O32  433   0.488   0.310   6.339 -0.0020  0.2828 -0.2727
    4SAPS   C32  434   0.660   0.266   6.166  0.1025  0.0333 -0.6976
    4SAPS   H2X  435   0.641   0.161   6.195  1.8304 -0.1030  0.0464
    4SAPS   H2Y  436   0.769   0.288   6.169  0.5458 -1.9448 -0.6471
    4SAPS   C23  437   0.826   1.013   6.081 -0.1130  0.1762 -0.0124
    4SAPS   H3R  438   0.840   0.918   6.024 -1.0539 -0.0045  0.0348
    4SAPS   H3S  439   0.914   1.034   6.145 -0.1177 -3.5667  1.4859
    4SAPS   C24  440   0.815   1.132   5.983  0.7450 -0.5989  0.0923
    4SAPS   H4R  441   0.735   1.113   5.908 -0.7474 -0.0667  1.4922
    4SAPS   H4S  442   0.908   1.151   5.926  0.8360 -2.0013 -0.2630
    4SAPS   C25  443   0.787   1.257   6.059 -0.0733  0.0214 -0.5352
    4SAPS   H5R  444   0.872   1.286   6.123  0.5409 -2.3648 -0.1749
    4SAPS   C26  445   0.664   1.319   6.071 -0.1689 -0.3639  0.8921
    4SAPS   H6R  446   0.677   1.402   6.141  0.9812 -0.9008  1.3454
    4SAPS   C27  447   0.540   1.292   5.998  0.8884  0.4312 -0.0460
    4SAPS   H7R  448   0.486   1.205   6.040 -0.1775  0.8490 -0.5036
    4SAPS   H7S  449   0.557   1.272   5.890  0.9875  0.3847 -0.0218
    4SAPS   C28  450   0.433   1.401   6.024 -0.4465  0.9059  0.1859
    4SAPS   H8R  451   0.412   1.415   6.131  0.4824  5.0708  0.0049
    4SAPS   C29  452   0.355   1.463   5.936 -0.1476 -0.2286 -0.6349
    4SAPS   H9R  453   0.291   1.542   5.981 -0.1518  0.2511 -1.4674
    4SAPS  C210  454   0.354   1.471   5.785 -0.0645 -0.5206 -0.2767
    4SAPS  H10R  455   0.250   1.437   5.765 -0.3231  0.7501 -1.2998
    4SAPS  H10S  456   0.420   1.406   5.724 -1.3229 -1.8754 -0.2454
    4SAPS  C211  457   0.366   1.614   5.732  0.0878  0.3048 -0.2340
    4SAPS  H11R  458   0.346   1.689   5.809  0.7155  2.6325 -2.2140
    4SAPS  C212  459   0.442   1.651   5.626  0.2727 -0.0798 -0.1140
    4SAPS  H12R  460   0.453   1.760   5.613  0.8197 -0.3304 -1.9680
    4SAPS  C213  461   0.506   1.573   5.519 -0.2427  0.2972 -0.0618
    4SAPS  H13R  462   0.571   1.498   5.569 -1.2642  0.1859  1.1676
    4SAPS  H13S  463   0.570   1.639   5.457  0.7271 -0.1255  0.4530
    4SAPS  C214  464   0.419   1.493   5.425  0.1588  0.0547  0.1451
    4SAPS  H14R  465   0.329   1.454   5.476 -1.7714  1.6442 -1.8565
    4SAPS  C215  466   0.443   1.461   5.298 -0.5339 -0.0231 -0.1964
    4SAPS  H15R  467   0.369   1.400   5.244 -0.3078 -0.2854 -0.2133
    4SAPS  C216  468   0.562   1.503   5.210 -0.5672  0.3996  0.4983
    4SAPS  H16R  469   0.636   1.572   5.255 -0.9641  1.5035 -0.4832
    4SAPS  H16S  470   0.520   1.566   5.128 -2.8639  1.8687  2.6699
    4SAPS  C217  471   0.639   1.372   5.180  0.2966 -0.7565 -0.0602
    4SAPS  H17R  472   0.663   1.324   5.277 -0.8099  1.1313  1.2223
    4SAPS  H17S  473   0.733   1.410   5.134 -0.1936  1.3377  0.5541
    4SAPS  C218  474   0.570   1.279   5.076  0.0181  0.4728 -0.0632
    4SAPS  H18R  475   0.536   1.342   4.991  0.1350  2.3728  1.2267
    4SAPS  H18S  476   0.476   1.236   5.118  0.3421  0.5357  0.7615
    4SAPS  C219  477   0.658   1.163   5.027 -0.1801 -0.0689 -0.1239
    4SAPS  H19R  478   0.600   1.072   5.001  0.9105 -0.0143 -3.1126
    4SAPS  H19S  479   0.720   1.134   5.114  0.2235  0.4161 -0.2460
    4SAPS  C220  480   0.744   1.205   4.911  0.5467  1.1740  1.1782
    4SAPS  H20R  481   0.686   1.278   4.850 -1.4508  0.2701  1.9035
    4SAPS  H20S  482   0.761   1.114   4.850  0.8324  1.0045  1.5091
    4SAPS  H20T  483   0.839   1.254   4.939  1.2289  0.3197  0.4281
    4SAPS   C33  484   0.620   0.294   6.019  0.5456  0.2316  0.1304
    4SAPS   H3X  485   0.674   0.388   5.995  0.1944 -0.0512 -1.9958
    4SAPS   H3Y  486   0.512   0.311   5.999  0.1089 -1.1213  1.1708
    4SAPS   C34  487   0.661   0.181   5.924  0.0282  0.5665  0.3768
    4SAPS   H4X  488   0.592   0.096   5.942  1.5753 -0.3757  2.1040
    4SAPS   H4Y  489   0.763   0.143   5.945 -0.1110  0.0425  0.1165
    4SAPS   C35  490   0.665   0.236   5.776 -0.0021  0.5222  0.0288
    4SAPS   H5X  491   0.734   0.323   5.778 -0.2551  0.7146  1.7243
    4SAPS   H5Y  492   0.562   0.265   5.746 -0.5134 -0.8944  0.3419
    4SAPS   C36  493   0.733   0.133   5.677  0.2614  0.0391  0.2048
    4SAPS   H6X  494   0.680   0.036   5.664 -0.2034  0.5523 -2.1287
    4SAPS   H6Y  495   0.840   0.117   5.703  0.3554  0.1864 -0.0787
    4SAPS   C37  496   0.764   0.189   5.536  0.1690 -0.2660 -0.1660
    4SAPS   H7X  497   0.840   0.270   5.544  1.2980 -1.2414 -0.6769
    4SAPS   H7Y  498   0.675   0.235   5.488  1.0941  0.5354 -1.1863
    4SAPS   C38  499   0.839   0.087   5.451  0.3149  0.0396  0.1289
    4SAPS   H8X  500   0.779  -0.007   5.446  0.8492 -0.2960 -0.0139
    4SAPS   H8Y  501   0.933   0.072   5.508 -1.6874  0.1359  3.7678
    4SAPS   C39  502   0.865   0.138   5.308  0.5693 -0.7091  0.0859
    4SAPS   H9X  503   0.953   0.092   5.259 -1.0851 -1.2408 -2.5964
    4SAPS   H9Y  504   0.883   0.248   5.306  3.2306 -1.1063 -1.1129
    4SAPS  C310  505   0.737   0.102   5.221 -0.8031  0.1353  0.2480
    4SAPS  H10X  506   0.649   0.167   5.241  0.9194  2.3345  1.1344
    4SAPS  H10Y  507   0.718  -0.006   5.242 -0.0543 -0.3494 -1.4344
    4SAPS  C311  508   0.761   0.105   5.069  0.4174 -0.1747  0.0987
    4SAPS  H11X  509   0.803   0.007   5.037 -1.7564 -0.8126 -1.0219
    4SAPS  H11Y  510   0.841   0.172   5.031  0.3438  0.0924  0.4134
    4SAPS  C312  511   0.634   0.135   4.985  0.1432  0.1793  0.3243
    4SAPS  H12X  512   0.578   0.229   5.004  1.6282  1.2108 -0.1191
    4SAPS  H12Y  513   0.557   0.058   5.002  1.6061 -1.6187 -0.7492
    4SAPS  C313  514   0.662   0.149   4.832 -0.2982 -0.5241  0.2334
    4SAPS  H13X  515   0.730   0.236   4.820  0.4111 -1.3518 -2.4231
    4SAPS  H13Y  516   0.568   0.178   4.782  0.7606  1.4916 -0.7044
    4SAPS  C314  517   0.707   0.020   4.770 -0.1917  0.0976 -0.0414
    4SAPS  H14X  518   0.637  -0.062   4.799  1.8556 -1.6435  0.2765
    4SAPS  H14Y  519   0.810  -0.018   4.791 -1.1282 -2.8440 -0.3163
    4SAPS  C315  520   0.724   0.032   4.619  0.0964  0.0644 -0.2905
    4SAPS  H15X  521   0.756   0.136   4.596 -1.4940  0.9491  1.3273
    4SAPS  H15Y  522   0.625   0.014   4.572 -0.9926  1.3686  1.3811
    4SAPS  C316  523   0.820  -0.077   4.561 -0.8197 -0.6474 -0.7500
    4SAPS  H16X  524   0.776  -0.170   4.605 -0.7931  0.0398  0.8040
    4SAPS  H16Y  525   0.915  -0.058   4.614 -0.2916 -3.6640 -0.4110
    4SAPS  C317  526   0.842  -0.090   4.416  0.6784  0.0274  0.1170
    4SAPS  H17X  527   0.894   0.002   4.380 -1.0522  1.0404  0.1045
    4SAPS  H17Y  528   0.745  -0.106   4.364  0.8833  1.0885 -0.6330
    4SAPS  C318  529   0.934  -0.208   4.386 -0.1047 -0.2422  0.6663
    4SAPS  H18X  530   0.929  -0.210   4.275  0.0620 -1.0906  0.6700
    4SAPS  H18Y  531   0.899  -0.307   4.422  1.1015 -1.0693 -0.3549
    4SAPS  H18Z  532   1.037  -0.188   4.422  0.5090 -1.9914 -0.0208
    5SAPS     N  533   2.676   1.951   7.238 -0.1005 -0.0746  0.3479
    5SAPS   HN1  534   2.700   1.989   7.331 -0.3703 -1.2047  0.8948
    5SAPS   HN2  535   2.604   1.876   7.243 -0.0768  0.0086  3.4628
    5SAPS   HN3  536   2.763   1.910   7.198  0.9381  1.9556  0.3959
    5SAPS   C12  537   2.637   2.050   7.141 -0.6872 -0.6650  0.5792
    5SAPS  H12A  538   2.557   2.104   7.189 -0.4241  2.1584 -1.9021
    5SAPS   C13  539   2.747   2.158   7.102 -0.1497 -0.1997  0.5560
    5SAPS  O13A  540   2.868   2.145   7.142  0.1624  0.5674 -0.0880
    5SAPS  O13B  541   2.708   2.250   7.025 -0.2547 -0.3637  0.3083
    5SAPS   C11  542   2.587   1.979   7.011  0.3077  0.2386  0.4330
    5SAPS  H11A  543   2.669   1.938   6.948  0.3036  2.1686 -0.9410
    5SAPS  H11B  544   2.547   2.047   6.932  0.0426 -1.1942 -0.7151
    5SAPS     P  545   2.453   1.770   6.954  0.1037 -0.4064 -0.5376
    5SAPS   O13  546   2.576   1.694   6.968 -0.7342  0.6520 -0.0543
    5SAPS   O14  547   2.329   1.704   7.010 -0.5272  0.2072 -0.1611
    5SAPS   O12  548   2.475   1.904   7.038  0.4570 -0.0261  0.0117
    5SAPS   O11  549   2.427   1.803   6.799  0.0459  0.1566  0.4723
    5SAPS    C1  550   2.346   1.911   6.762  0.7503 -0.0148 -0.3290
    5SAPS    HA  551   2.292   1.955   6.849  1.4131 -0.8644  0.5205
    5SAPS    HB  552   2.407   1.987   6.707  2.5768 -0.5801  0.8432
    5SAPS    C2  553   2.231   1.859   6.671  1.5708 -0.1488  0.3297
    5SAPS    HS  554   2.172   1.781   6.724  1.5398 -2.8921 -3.3324
    5SAPS   O21  555   2.291   1.809   6.554 -0.5462  0.2738 -0.8375
    5SAPS   C21  556   2.267   1.680   6.520  0.2009  0.0765 -0.0989
    5SAPS   O22  557   2.206   1.601   6.591 -0.0341 -0.0621  0.1358
    5SAPS   C22  558   2.318   1.646   6.377  0.0163 -0.3291  0.4289
    5SAPS   H2R  559   2.271   1.718   6.307 -0.4608  0.3718  1.4534
    5SAPS   H2S  560   2.428   1.658   6.364 -0.0630 -1.3081 -1.6372
    5SAPS    C3  561   2.133   1.972   6.629  0.8617 -0.0965 -0.2808
    5SAPS    HX  562   2.111   2.026   6.723  3.1148  0.0404  0.2048
    5SAPS    HY  563   2.032   1.934   6.602 -0.9042  2.7031  1.7945
    5SAPS   O31  564   2.181   2.067   6.534  0.2304  0.5026  0.3053
    5SAPS   C31  565   2.153   2.030   6.405 -0.9854 -0.0102 -0.2971
    5SAPS   O32  566   2.087   1.935   6.369  0.1370  0.2362  0.1484
    5SAPS   C32  567   2.227   2.127   6.313 -0.3502  0.0394 -0.7972
    5SAPS   H2X  568   2.335   2.109   6.333 -0.6772 -0.9613  0.1766
    5SAPS   H2Y  569   2.198   2.232   6.333 -2.0054 -0.1799 -1.8668
    5SAPS   C23  570   2.287   1.498   6.342  0.0315 -0.4800 -0.0907
    5SAPS   H3R  571   2.176   1.494   6.340 -0.0967  1.3708  0.9453
    5SAPS   H3S  572   2.327   1.427   6.417  1.6918 -1.5728 -1.9190
    5SAPS   C24  573   2.343   1.451   6.210  0.0228  0.1794  0.3399
    5SAPS   H4R  574   2.328   1.341   6.217  0.4815  0.1130  0.3215
    5SAPS   H4S  575   2.450   1.479   6.204 -0.1033  0.6381  0.2436
    5SAPS   C25  576   2.262   1.529   6.110 -1.1311 -0.5823  0.9244
    5SAPS   H5R  577   2.229   1.630   6.140 -0.9217 -0.3720  0.4541
    5SAPS   C26  578   2.253   1.506   5.981  0.4471 -0.2906  0.8032
    5SAPS   H6R  579   2.207   1.586   5.921 -0.5702 -0.5415  1.2117
    5SAPS   C27  580   2.321   1.392   5.903  0.3811  0.0284  0.2289
    5SAPS   H7R  581   2.394   1.338   5.967 -2.0992 -3.5735  0.2662
    5SAPS   H7S  582   2.379   1.431   5.816 -0.8227 -0.7766 -0.9679
    5SAPS   C28  583   2.215   1.299   5.852 -0.1120  0.1725 -0.4493
    5SAPS   H8R  584   2.160   1.252   5.935  0.3503 -0.9969 -0.7872
    5SAPS   C29  585   2.171   1.277   5.729  0.6265 -0.7744  0.0410
    5SAPS   H9R  586   2.097   1.199   5.706  1.8820 -1.9149 -0.2979
    5SAPS  C210  587   2.232   1.343   5.603  0.1211 -0.2298  0.0619
    5SAPS  H10R  588   2.304   1.420   5.637  2.3698 -2.3645  0.3694
    5SAPS  H10S  589   2.152   1.400   5.550 -1.8363 -2.0817  0.9069
    5SAPS  C211  590   2.302   1.246   5.511 -0.0954 -0.0743  0.1023
    5SAPS  H11R  591   2.404   1.225   5.547 -0.7024  0.4893  2.2843
    5SAPS  C212  592   2.269   1.228   5.389 -0.1752  0.1290 -0.1651
    5SAPS  H12R  593   2.335   1.160   5.333 -0.5040 -1.7192  1.5984
    5SAPS  C213  594   2.143   1.270   5.304  0.6371  0.3824  0.4062
    5SAPS  H13R  595   2.161   1.366   5.250 -0.7693  1.2520  1.4170
    5SAPS  H13S  596   2.050   1.274   5.365 -0.3215 -1.0954 -0.8801
    5SAPS  C214  597   2.118   1.158   5.199  0.3531  0.4721 -0.0617
    5SAPS  H14R  598   2.110   1.058   5.244  1.3175  0.6895  0.6093
    5SAPS  C215  599   2.098   1.174   5.068  0.4636 -0.4492  0.7475
    5SAPS  H15R  600   2.081   1.085   5.006 -0.2390  0.7810 -0.9098
    5SAPS  C216  601   2.106   1.313   4.995  0.2088  0.3035 -0.2976
    5SAPS  H16R  602   2.093   1.396   5.068  0.9847 -2.3093  3.0625
    5SAPS  H16S  603   2.029   1.313   4.915 -1.0292 -0.3470  0.8481
    5SAPS  C217  604   2.246   1.320   4.931  0.3266  0.0593 -0.0358
    5SAPS  H17R  605   2.273   1.220   4.893 -1.1465 -0.2200 -0.4212
    5SAPS  H17S  606   2.313   1.354   5.013  0.0603  0.3472  0.0656
    5SAPS  C218  607   2.251   1.417   4.813  0.0356 -0.7808  0.1768
    5SAPS  H18R  608   2.222   1.521   4.841 -0.1958 -0.7513 -0.1646
    5SAPS  H18S  609   2.172   1.380   4.744 -0.7819  0.4773  0.3938
    5SAPS  C219  610   2.386   1.414   4.737  0.2755  0.0770  0.7935
    5SAPS  H19R  611   2.407   1.314   4.695 -1.5684  0.0654 -0.2415
    5SAPS  H19S  612   2.458   1.458   4.809 -1.6946  2.2016  1.5858
    5SAPS  C220  613   2.383   1.529   4.631 -0.1307  0.8295  0.1692
    5SAPS  H20R  614   2.366   1.622   4.690  0.1737 -0.7130  2.8403
    5SAPS  H20S  615   2.307   1.508   4.553  0.7433  0.0702 -0.4923
    5SAPS  H20T  616   2.483   1.544   4.585  0.7331 -0.7052  1.4393
    5SAPS   C33  617   2.204   2.100   6.166 -0.3216 -0.7236  0.5164
    5SAPS   H3X  618   2.212   2.195   6.109 -0.1722 -0.7849  0.4341
    5SAPS   H3Y  619   2.100   2.078   6.135 -0.5158  1.2332 -0.3623
    5SAPS   C34  620   2.303   2.005   6.094  0.3606 -0.9153  0.2296
    5SAPS   H4X  621   2.297   1.918   6.162  1.0057  0.2845  1.8982
    5SAPS   H4Y  622   2.409   2.041   6.089  0.2978 -0.5474  1.3346
    5SAPS   C35  623   2.250   1.973   5.956 -0.3061 -1.0994  0.7193
    5SAPS   H5X  624   2.229   2.071   5.908 -0.9678 -1.7852 -0.4210
    5SAPS   H5Y  625   2.147   1.936   5.977 -1.4499  1.7111  0.4671
    5SAPS   C36  626   2.332   1.882   5.865 -0.3524 -0.8601  0.3496
    5SAPS   H6X  627   2.324   1.774   5.887  0.3633 -0.6738  1.6650
    5SAPS   H6Y  628   2.441   1.904   5.857 -0.6881  0.2612 -1.8935
    5SAPS   C37  629   2.267   1.890   5.725 -0.0188 -0.3730  0.3946
    5SAPS   H7X  630   2.299   1.993   5.696  1.8876 -0.7924  0.8854
    5SAPS   H7Y  631   2.157   1.876   5.728  0.2227 -2.9813 -0.6608
    5SAPS   C38  632   2.327   1.785   5.625 -0.2141 -0.7045 -0.4983
    5SAPS   H8X  633   2.319   1.677   5.651  0.2345 -0.5360  0.3681
    5SAPS   H8Y  634   2.437   1.796   5.617 -0.1622  0.6540  1.4667
    5SAPS   C39  635   2.286   1.808   5.481  0.7649  0.1190  0.7195
    5SAPS   H9X  636   2.318   1.912   5.460  2.0818 -0.6807 -1.5582
    5SAPS   H9Y  637   2.176   1.796   5.476  0.6393  0.8885  1.4973
    5SAPS  C310  638   2.342   1.694   5.395 -0.3711 -0.2703 -0.5020
    5SAPS  H10X  639   2.300   1.599   5.434  0.3925  0.2088  1.6361
    5SAPS  H10Y  640   2.452   1.696   5.414 -0.4386 -2.4580  0.4528
    5SAPS  C311  641   2.315   1.706   5.250 -0.2898  0.3563  0.0664
    5SAPS  H11X  642   2.205   1.703   5.236  0.0299 -2.9142 -3.3546
    5SAPS  H11Y  643   2.353   1.616   5.197 -0.5192 -0.5858  1.4429
    5SAPS  C312  644   2.377   1.823   5.170 -0.2327  0.0344 -0.7389
    5SAPS  H12X  645   2.414   1.907   5.233 -4.0673  2.1850 -1.0112
    5SAPS  H12Y  646   2.298   1.875   5.112  1.0764  0.2784 -2.3768
    5SAPS  C313  647   2.494   1.781   5.075 -0.9740  0.3833  0.6903
    5SAPS  H13X  648   2.443   1.701   5.017 -0.0301 -0.2056  0.6404
    5SAPS  H13Y  649   2.579   1.734   5.130  0.7236 -0.4873 -2.4080
    5SAPS  C314  650   2.547   1.890   4.980  0.3804  0.2120  0.0798
    5SAPS  H14X  651   2.648   1.921   5.015  0.4314 -0.0379  0.1574
    5SAPS  H14Y  652   2.485   1.982   4.995 -0.4805 -0.6152  1.8934
    5SAPS  C315  653   2.546   1.843   4.832  0.1147  0.4619 -1.1846
    5SAPS  H15X  654   2.443   1.810   4.805  0.3524 -0.8741 -0.5149
    5SAPS  H15Y  655   2.611   1.754   4.826 -1.2983 -0.6764 -0.3187
    5SAPS  C316  656   2.589   1.946   4.731  0.2106  0.3743  0.5758
    5SAPS  H16X  657   2.700   1.952   4.742  0.3042  1.7265 -0.7578
    5SAPS  H16Y  658   2.552   2.046   4.763 -2.5623  0.0509 -1.2656
    5SAPS  C317  659   2.546   1.916   4.583  0.2141  0.3624 -0.0415
    5SAPS  H17X  660   2.554   2.006   4.517  0.4198 -0.8853 -1.8076
    5SAPS  H17Y  661   2.438   1.893   4.590  0.1442  0.5899 -0.3208
    5SAPS  C318  662   2.623   1.805   4.512 -0.2959 -0.3614 -0.0103
    5SAPS  H18X  663   2.609   1.706   4.561 -0.9900 -0.5622 -0.6100
    5SAPS  H18Y  664   2.731   1.831   4.518 -0.0980 -1.1915  0.2844
    5SAPS  H18Z  665   2.600   1.793   4.405 -1.9899 -1.6829  0.4622
    6SAPS     N  666   4.765   3.342   6.899  0.2483 -0.2009  0.0310
    6SAPS   HN1  667   4.754   3.436   6.943 -1.5314 -0.6762  0.6977
    6SAPS   HN2  668   4.787   3.269   6.969  0.1439  0.1362  0.4189
    6SAPS   HN3  669   4.844   3.355   6.833 -0.7853  2.2676 -0.8463
    6SAPS   C12  670   4.642   3.293   6.830 -0.0702 -0.1417 -0.2405
    6SAPS  H12A  671   4.583   3.238   6.902  0.1901 -0.5796 -0.3545
    6SAPS   C13  672   4.549   3.403   6.780 -0.3227  0.2620  0.5621
    6SAPS  O13A  673   4.588   3.524   6.779 -0.3744  0.1064 -0.0148
    6SAPS  O13B  674   4.428   3.367   6.751  0.2672 -0.2700  0.8350
    6SAPS   C11  675   4.693   3.208   6.709 -0.4134 -0.5207  0.3767
    6SAPS  H11A  676   4.749   3.273   6.639 -1.4702 -0.3783 -0.3465
    6SAPS  H11B  677   4.603   3.174   6.655 -0.6452  1.3909 -0.5371
    6SAPS     P  678   4.718   2.946   6.756  0.1377 -0.3751  0.3137
    6SAPS   O13  679   4.831   2.852   6.736 -0.4932 -0.7312 -0.4006
    6SAPS   O14  680   4.643   2.935   6.885  0.4982  0.0404  0.1857
    6SAPS   O12  681   4.771   3.097   6.752  0.2315  0.2440  0.2268
    6SAPS   O11  682   4.624   2.933   6.640  0.2015 -0.1924  0.4325
    6SAPS    C1  683   4.530   2.828   6.633  1.1214  0.0395 -0.5104
    6SAPS    HA  684   4.478   2.807   6.728  2.1790  2.0099  0.5720
    6SAPS    HB  685   4.455   2.869   6.562 -0.7148  0.9062  1.8257
    6SAPS    C2  686   4.588   2.696   6.577  0.0080 -0.1894 -0.1292
    6SAPS    HS  687   4.674   2.664   6.639  0.9700 -0.4927 -1.5692
    6SAPS   O21  688   4.637   2.714   6.439 -0.0582 -0.2171 -0.1616
    6SAPS   C21  689   4.732   2.632   6.411  0.1347  0.0162  0.2455
    6SAPS   O22  690   4.780   2.546   6.479  0.2584  0.1297 -0.2556
    6SAPS   C22  691   4.781   2.669   6.269  0.3787 -0.0805 -0.5016
    6SAPS   H2R  692   4.689   2.704   6.218 -0.4292  0.7799  1.4665
    6SAPS   H2S  693   4.849   2.756   6.285  1.0138 -0.8254  1.0329
    6SAPS    C3  694   4.491   2.575   6.578  0.2293  0.0922  0.6770
    6SAPS    HX  695   4.457   2.555   6.682  0.7557 -0.5627  0.7265
    6SAPS    HY  696   4.545   2.482   6.551  1.3531  0.1091  2.6962
    6SAPS   O31  697   4.373   2.600   6.491 -0.6220 -0.1312 -0.5985
    6SAPS   C31  698   4.365   2.532   6.374  0.0806  0.0936 -0.0578
    6SAPS   O32  699   4.433   2.436   6.348 -0.8683 -0.0244 -0.0095
    6SAPS   C32  700   4.250   2.584   6.307  0.1157 -0.2580  0.3563
    6SAPS   H2X  701   4.160   2.576   6.372 -0.7734 -1.3176 -0.9488
    6SAPS   H2Y  702   4.234   2.508   6.228  2.7275 -0.1953 -0.3178
    6SAPS   C23  703   4.857   2.562   6.188  0.1107  0.6585 -0.4040
    6SAPS   H3R  704   4.947   2.529   6.243 -0.0162  0.2015 -0.4646
    6SAPS   H3S  705   4.912   2.619   6.110  0.4616  2.3304  1.0199
    6SAPS   C24  706   4.768   2.448   6.141  0.1993 -0.0848 -0.6225
    6SAPS   H4R  707   4.689   2.492   6.077  0.5686  3.6737  1.2242
    6SAPS   H4S  708   4.706   2.410   6.225  0.9263 -2.4836 -1.0733
    6SAPS   C25  709   4.845   2.345   6.074  0.7848  0.3270  0.3029
    6SAPS   H5R  710   4.896   2.271   6.137  0.6656  1.3443  1.6489
    6SAPS   C26  711   4.862   2.344   5.947 -0.4300  0.0637  0.5547
    6SAPS   H6R  712   4.938   2.272   5.914 -1.5624 -0.4614 -1.0043
    6SAPS   C27  713   4.808   2.427   5.836  0.2293  0.0793  0.6087
    6SAPS   H7R  714   4.896   2.478   5.790  0.1479 -0.3769 -0.0647
    6SAPS   H7S  715   4.741   2.503   5.880 -0.1640 -1.0255  1.9977
    6SAPS   C28  716   4.713   2.337   5.750  0.7429 -0.2417 -0.1856
    6SAPS   H8R  717   4.641   2.276   5.806  0.3330  0.3366 -0.0747
    6SAPS   C29  718   4.698   2.349   5.619  0.2390 -0.8142  0.1999
    6SAPS   H9R  719   4.619   2.287   5.574 -1.7442 -1.0462  3.6472
    6SAPS  C210  720   4.779   2.440   5.528  1.1799  0.2084  0.4237
    6SAPS  H10R  721   4.888   2.423   5.511  2.2276  3.9015  2.3927
    6SAPS  H10S  722   4.777   2.535   5.586 -2.3178  0.2466  0.4020
    6SAPS  C211  723   4.718   2.463   5.389 -0.7740  0.3114  0.2384
    6SAPS  H11R  724   4.641   2.540   5.380  2.1533  3.3675 -0.7505
    6SAPS  C212  725   4.761   2.401   5.272  0.6730 -0.3588  0.7418
    6SAPS  H12R  726   4.701   2.409   5.181  1.9069 -0.3062 -0.0988
    6SAPS  C213  727   4.863   2.285   5.261 -0.7687 -0.0189  0.0239
    6SAPS  H13R  728   4.814   2.204   5.202 -1.0955 -1.0381  1.6386
    6SAPS  H13S  729   4.918   2.241   5.347 -0.7383 -1.5155 -0.7156
    6SAPS  C214  730   4.977   2.357   5.183  0.1787  0.6665  0.0728
    6SAPS  H14R  731   5.036   2.427   5.244 -0.7487  0.1886  1.5557
    6SAPS  C215  732   5.019   2.329   5.057 -0.4727  0.5758 -0.0357
    6SAPS  H15R  733   5.104   2.387   5.018 -2.4269  2.0080 -2.5241
    6SAPS  C216  734   4.964   2.236   4.960  0.3237  0.3491 -0.1591
    6SAPS  H16R  735   4.879   2.285   4.907 -0.8923 -1.6654 -0.1437
    6SAPS  H16S  736   4.905   2.157   5.011 -0.0283  0.6628 -0.0722
    6SAPS  C217  737   5.072   2.178   4.868 -0.2371  0.2423 -0.3751
    6SAPS  H17R  738   5.020   2.105   4.802 -0.9879 -0.7651  1.2766
    6SAPS  H17S  739   5.145   2.115   4.923 -0.7974 -0.8700 -0.8706
    6SAPS  C218  740   5.149   2.277   4.777  0.0642 -0.6223  0.6641
    6SAPS  H18R  741   5.215   2.337   4.844 -0.3243 -0.1022  0.5886
    6SAPS  H18S  742   5.077   2.342   4.723  0.3182 -1.3617 -0.6082
    6SAPS  C219  743   5.237   2.206   4.675 -0.2295  0.4594 -0.6545
    6SAPS  H19R  744   5.170   2.140   4.616 -0.4540 -0.5535  0.6789
    6SAPS  H19S  745   5.308   2.147   4.736 -1.3138  0.4293  0.6218
    6SAPS  C220  746   5.311   2.292   4.577 -0.7081  0.0848  0.1325
    6SAPS  H20R  747   5.383   2.360   4.627 -0.6058 -0.4398  0.7102
    6SAPS  H20S  748   5.238   2.349   4.515 -1.6590  0.1323  1.2685
    6SAPS  H20T  749   5.369   2.231   4.503 -0.1155  1.5805 -0.6793
    6SAPS   C33  750   4.275   2.722   6.238  0.6028  0.1143 -0.1039
    6SAPS   H3X  751   4.273   2.803   6.314  0.5508  0.9664 -0.9990
    6SAPS   H3Y  752   4.187   2.745   6.175 -0.0713  0.8801  1.0700
    6SAPS   C34  753   4.407   2.723   6.159  0.6937  0.5960  0.5190
    6SAPS   H4X  754   4.415   2.622   6.113 -0.9131  0.4147  0.5681
    6SAPS   H4Y  755   4.486   2.745   6.233  1.4966  3.4737 -1.0440
    6SAPS   C35  756   4.420   2.833   6.052 -0.5223  1.1338  0.7628
    6SAPS   H5X  757   4.424   2.929   6.106  2.1459  0.0297  2.7358
    6SAPS   H5Y  758   4.334   2.838   5.980  2.0641  1.8739 -2.5235
    6SAPS   C36  759   4.543   2.818   5.970  0.4781  0.0045  0.2174
    6SAPS   H6X  760   4.542   2.726   5.908  0.6246  0.9147 -1.1745
    6SAPS   H6Y  761   4.640   2.827   6.023 -0.0836  0.9311  1.1299
    6SAPS   C37  762   4.543   2.931   5.868  0.0156 -0.5872 -0.6886
    6SAPS   H7X  763   4.652   2.937   5.848  0.7162 -0.8762  2.4421
    6SAPS   H7Y  764   4.492   3.024   5.903  0.7537 -0.5866  0.4203
    6SAPS   C38  765   4.476   2.893   5.739 -0.2447 -0.0079  0.1616
    6SAPS   H8X  766   4.371   2.869   5.766  0.7708 -2.7287  2.0592
    6SAPS   H8Y  767   4.506   2.791   5.710 -4.2380 -1.1877 -0.3268
    6SAPS   C39  768   4.496   2.993   5.630 -0.2782  0.4385 -0.2905
    6SAPS   H9X  769   4.591   2.991   5.573 -0.3422  1.2954 -0.4342
    6SAPS   H9Y  770   4.493   3.096   5.670 -1.3921  1.2068 -2.1987
    6SAPS  C310  771   4.378   3.002   5.524 -0.4447  0.4771  0.0521
    6SAPS  H10X  772   4.399   3.101   5.478 -0.1804  0.8994  1.0458
    6SAPS  H10Y  773   4.280   3.009   5.576 -1.3361 -0.4709 -1.4594
    6SAPS  C311  774   4.381   2.897   5.408 -0.1999  0.4818  0.5805
    6SAPS  H11X  775   4.284   2.893   5.354  0.6159 -4.0819 -0.9793
    6SAPS  H11Y  776   4.399   2.794   5.445  0.3223  1.3891  3.0864
    6SAPS  C312  777   4.493   2.931   5.309 -0.1647  0.4150 -0.3594
    6SAPS  H12X  778   4.586   2.941   5.369 -0.2152  2.0737 -0.5101
    6SAPS  H12Y  779   4.482   3.028   5.256  0.1655  0.7810  0.2267
    6SAPS  C313  780   4.522   2.814   5.206  0.5221 -0.2442  1.1042
    6SAPS  H13X  781   4.445   2.832   5.128 -0.6288 -0.4980  2.1426
    6SAPS  H13Y  782   4.509   2.723   5.268 -0.9188 -0.8531 -0.0339
    6SAPS  C314  783   4.661   2.808   5.139 -0.0344  0.2368 -0.0727
    6SAPS  H14X  784   4.724   2.787   5.228 -1.7618 -2.3574  0.6670
    6SAPS  H14Y  785   4.683   2.906   5.090 -1.4618 -0.3215 -1.9327
    6SAPS  C315  786   4.669   2.700   5.033  1.1809  0.4115  0.3574
    6SAPS  H15X  787   4.605   2.739   4.951  1.7030 -1.1220 -0.8354
    6SAPS  H15Y  788   4.612   2.608   5.058 -0.8949  0.8250 -2.3580
    6SAPS  C316  789   4.806   2.671   4.965  0.4392  0.1304  0.2419
    6SAPS  H16X  790   4.859   2.612   5.043 -0.1744 -1.2179 -0.3156
    6SAPS  H16Y  791   4.859   2.767   4.955  0.7663 -0.0081  0.6138
    6SAPS  C317  792   4.790   2.602   4.834  0.6546  0.0435  0.4584
    6SAPS  H17X  793   4.739   2.505   4.851  0.8653  0.1136  1.5726
    6SAPS  H17Y  794   4.890   2.573   4.795  1.4290  2.7343  0.2536
    6SAPS  C318  795   4.708   2.676   4.725 -0.3809 -1.0751  0.6295
    6SAPS  H18X  796   4.711   2.786   4.738 -2.9983 -0.9765  0.9383
    6SAPS  H18Y  797   4.601   2.646   4.732 -0.2652 -2.4058 -1.9691
    6SAPS  H18Z  798   4.744   2.647   4.624 -0.3837 -3.2041  1.1859
    7SAPS     N  799   0.299   4.316   6.796 -0.2162  0.7937 -0.2489
    7SAPS   HN1  800   0.241   4.352   6.875  1.5947  0.1678  1.4664
    7SAPS   HN2  801   0.372   4.383   6.765 -0.8389  1.1312 -1.0102
    7SAPS   HN3  802   0.230   4.290   6.722  2.4266 -2.9693 -1.6767
    7SAPS   C12  803   0.365   4.196   6.870 -0.3513  0.4012 -0.3926
    7SAPS  H12A  804   0.452   4.166   6.813  0.5986 -1.2440  1.7863
    7SAPS   C13  805   0.414   4.236   7.010  0.2730 -0.9846  0.2257
    7SAPS  O13A  806   0.386   4.354   7.043  0.2657 -0.7735 -0.0069
    7SAPS  O13B  807   0.495   4.163   7.072 -0.3755 -0.4002  0.1691
    7SAPS   C11  808   0.275   4.080   6.883  0.0920 -0.2307 -0.0602
    7SAPS  H11A  809   0.189   4.107   6.947 -0.1744 -2.6317  0.6807
    7SAPS  H11B  810   0.327   3.997   6.937 -2.2749 -1.4791  0.4446
    7SAPS     P  811   0.242   3.912   6.673  0.0704  0.3909  0.2453
    7SAPS   O13  812   0.382   3.867   6.679  0.6685 -0.0254  0.2716
    7SAPS   O14  813   0.140   3.822   6.726  0.0349  0.4156 -0.1864
    7SAPS   O12  814   0.225   4.042   6.754  0.0245  0.3158 -0.2786
    7SAPS   O11  815   0.199   3.964   6.528  0.2755 -0.1777 -0.2206
    7SAPS    C1  816   0.064   4.002   6.510 -0.8452  0.5738 -0.8962
    7SAPS    HA  817   0.013   3.904   6.509  1.6146 -0.7940 -0.8444
    7SAPS    HB  818   0.025   4.081   6.578  1.4589 -0.3013  1.6448
    7SAPS    C2  819   0.045   4.060   6.365 -0.5031  0.1576  0.2063
    7SAPS    HS  820  -0.050   4.022   6.321 -0.3345 -0.2322  0.1723
    7SAPS   O21  821   0.148   4.009   6.270 -0.1287  0.0386  0.6872
    7SAPS   C21  822   0.139   3.886   6.238  0.3569 -0.0784 -0.6368
    7SAPS   O22  823   0.053   3.804   6.266 -0.2280 -0.9666 -0.0395
    7SAPS   C22  824   0.263   3.849   6.152 -0.3733 -0.7532 -0.8596
    7SAPS   H2R  825   0.332   3.933   6.132  0.8706 -2.0608 -2.3000
    7SAPS   H2S  826   0.316   3.771   6.211  1.5292 -0.7335 -2.4303
    7SAPS    C3  827   0.027   4.217   6.346 -0.2174  0.1872  0.2810
    7SAPS    HX  828   0.129   4.258   6.361  1.1065 -2.2848 -1.1524
    7SAPS    HY  829  -0.039   4.246   6.431 -0.3903 -2.1112  1.0220
    7SAPS   O31  830  -0.027   4.247   6.210  0.3509 -0.0127 -0.3695
    7SAPS   C31  831   0.011   4.362   6.152  0.2388 -0.4447  0.4314
    7SAPS   O32  832   0.087   4.443   6.198 -0.7372 -0.0740  0.3448
    7SAPS   C32  833  -0.054   4.376   6.020  0.1122  0.0052  0.5713
    7SAPS   H2X  834  -0.154   4.330   6.032 -1.3292  2.9132  0.7214
    7SAPS   H2Y  835   0.008   4.320   5.947 -0.6630  0.5118 -0.5176
    7SAPS   C23  836   0.224   3.783   6.016  0.3974 -0.4852  0.4958
    7SAPS   H3R  837   0.159   3.851   5.955 -1.4164 -1.8445  0.8318
    7SAPS   H3S  838   0.160   3.694   6.034 -1.3753  0.7070  0.4052
    7SAPS   C24  839   0.357   3.754   5.937  0.4596  0.3788  0.0873
    7SAPS   H4R  840   0.331   3.670   5.869 -0.8827  2.1471 -1.7060
    7SAPS   H4S  841   0.435   3.723   6.010  0.5131 -1.3807 -0.6798
    7SAPS   C25  842   0.390   3.870   5.845  0.0027 -0.1985 -0.1249
    7SAPS   H5R  843   0.451   3.948   5.891  0.5835 -0.3002 -0.7130
    7SAPS   C26  844   0.355   3.889   5.710 -0.7861 -0.0378  0.7141
    7SAPS   H6R  845   0.387   3.987   5.673 -1.2201 -0.0968  0.1764
    7SAPS   C27  846   0.276   3.797   5.620  0.0305  0.1956  0.1140
    7SAPS   H7R  847   0.235   3.858   5.537  0.1914 -1.2289 -1.0583
    7SAPS   H7S  848   0.180   3.768   5.669 -0.9461  1.4307 -0.9764
    7SAPS   C28  849   0.355   3.678   5.581  0.5865 -0.1452  0.0009
    7SAPS   H8R  850   0.385   3.606   5.657  0.3185 -0.7990 -0.4979
    7SAPS   C29  851   0.389   3.649   5.454 -0.1354  0.0577 -0.6431
    7SAPS   H9R  852   0.448   3.559   5.435 -0.3279 -0.3316  0.5493
    7SAPS  C210  853   0.360   3.730   5.333  0.7876 -0.4236  0.7081
    7SAPS  H10R  854   0.432   3.691   5.258 -0.5757  2.6966 -2.5313
    7SAPS  H10S  855   0.398   3.832   5.355 -0.4757  0.6030 -1.4199
    7SAPS  C211  856   0.226   3.725   5.269 -0.0258  0.2133 -0.5635
    7SAPS  H11R  857   0.136   3.723   5.333  0.0574 -0.5939 -0.4684
    7SAPS  C212  858   0.206   3.739   5.139  1.3759  0.1376  0.0632
    7SAPS  H12R  859   0.103   3.741   5.099  0.8704 -0.8428  1.2346
    7SAPS  C213  860   0.304   3.757   5.031 -0.2188 -0.0507 -0.5354
    7SAPS  H13R  861   0.316   3.660   4.978 -0.3014 -0.2727 -0.1495
    7SAPS  H13S  862   0.406   3.778   5.069 -0.7764  0.5546  0.6899
    7SAPS  C214  863   0.286   3.877   4.937 -0.3789  0.8802 -0.5124
    7SAPS  H14R  864   0.222   3.959   4.972 -1.8647  0.5683 -2.3595
    7SAPS  C215  865   0.336   3.883   4.808  0.4532 -0.4684 -0.5870
    7SAPS  H15R  866   0.302   3.972   4.752  0.4011 -0.1335 -0.0316
    7SAPS  C216  867   0.415   3.791   4.725  0.1851 -0.3867  0.2434
    7SAPS  H16R  868   0.409   3.690   4.771 -0.7572 -0.4315  0.0411
    7SAPS  H16S  869   0.520   3.826   4.724 -0.3845  1.4340 -1.2812
    7SAPS  C217  870   0.370   3.783   4.576 -0.2994  0.2726 -0.0213
    7SAPS  H17R  871   0.438   3.844   4.513 -0.5708 -1.2151 -1.8684
    7SAPS  H17S  872   0.272   3.835   4.569  0.0914  0.9813 -0.3629
    7SAPS  C218  873   0.395   3.640   4.518  0.2464  0.3056  0.1051
    7SAPS  H18R  874   0.327   3.558   4.550  1.5777 -1.1771 -0.7247
    7SAPS  H18S  875   0.495   3.604   4.547 -0.5599 -0.6786  1.8120
    7SAPS  C219  876   0.401   3.632   4.360 -0.3241  0.6585  0.2146
    7SAPS  H19R  877   0.315   3.686   4.316 -0.4784  1.2993  1.2707
    7SAPS  H19S  878   0.393   3.523   4.340  1.0716  0.7366 -0.9055
    7SAPS  C220  879   0.535   3.671   4.296 -0.3868 -0.1691 -0.5803
    7SAPS  H20R  880   0.602   3.589   4.330 -2.1930 -2.1636 -1.5605
    7SAPS  H20S  881   0.564   3.773   4.328 -0.5184 -0.3768  0.2162
    7SAPS  H20T  882   0.537   3.665   4.185  0.6327  0.7326 -0.6284
    7SAPS   C33  883  -0.083   4.520   5.971 -0.6960 -0.2140  0.3673
    7SAPS   H3X  884   0.011   4.579   5.980 -1.3184  1.1367 -1.4697
    7SAPS   H3Y  885  -0.157   4.572   6.036 -0.3050  1.6320 -0.5984
    7SAPS   C34  886  -0.130   4.523   5.823  0.1993  0.3996 -0.5811
    7SAPS   H4X  887  -0.221   4.462   5.807  0.8582 -0.5591 -0.7752
    7SAPS   H4Y  888  -0.060   4.465   5.759 -2.1251 -1.7928 -1.2956
    7SAPS   C35  889  -0.165   4.655   5.767 -0.0751  0.2809 -0.6727
    7SAPS   H5X  890  -0.079   4.724   5.757 -1.6124  2.3964 -0.0892
    7SAPS   H5Y  891  -0.226   4.702   5.847 -1.2995  0.3424 -1.6018
    7SAPS   C36  892  -0.235   4.646   5.631  0.2694 -0.1090 -0.9515
    7SAPS   H6X  893  -0.240   4.751   5.597 -0.8697 -0.6993 -2.7669
    7SAPS   H6Y  894  -0.340   4.617   5.654 -0.2909  0.8916 -2.1703
    7SAPS   C37  895  -0.171   4.558   5.522 -0.3016 -0.5319  0.3813
    7SAPS   H7X  896  -0.207   4.453   5.534  0.4553 -0.8041  0.3259
    7SAPS   H7Y  897  -0.064   4.560   5.551 -0.5788  0.4476  1.4252
    7SAPS   C38  898  -0.200   4.603   5.378  0.5324 -0.2378 -0.1067
    7SAPS   H8X  899  -0.160   4.706   5.368 -0.1883  0.2553  1.7459
    7SAPS   H8Y  900  -0.311   4.602   5.367  0.5441 -0.9018 -0.1870
    7SAPS   C39  901  -0.157   4.496   5.281 -0.7984 -0.3118  0.6976
    7SAPS   H9X  902  -0.228   4.411   5.277 -2.1089  0.5534  3.3116
    7SAPS   H9Y  903  -0.062   4.447   5.312 -1.8718 -2.5560  0.6117
    7SAPS  C310  904  -0.122   4.555   5.138 -0.1844  0.2441  0.2024
    7SAPS  H10X  905  -0.032   4.620   5.141  0.7095 -0.9347 -0.3777
    7SAPS  H10Y  906  -0.207   4.625   5.124 -0.8438 -0.0259  2.4550
    7SAPS  C311  907  -0.096   4.456   5.028 -0.4135  0.1995 -0.8514
    7SAPS  H11X  908  -0.182   4.385   5.033 -0.5327  0.1552 -2.6420
    7SAPS  H11Y  909  -0.003   4.400   5.050  0.0148  0.6956 -1.3893
    7SAPS  C312  910  -0.081   4.519   4.885 -0.2900 -0.0887 -0.2312
    7SAPS  H12X  911  -0.167   4.589   4.877  1.2026  1.9320  0.5100
    7SAPS  H12Y  912  -0.089   4.439   4.808  0.0115 -1.2286  0.8904
    7SAPS  C313  913   0.049   4.613   4.871  0.2493  0.0867  0.3276
    7SAPS  H13X  914   0.138   4.546   4.875  0.0501 -0.4362 -2.4314
    7SAPS  H13Y  915   0.037   4.678   4.960  0.9688  1.0580 -0.2626
    7SAPS  C314  916   0.059   4.700   4.739  0.5511  0.0579 -0.0639
    7SAPS  H14X  917   0.129   4.783   4.763  0.4051  0.5105 -1.1535
    7SAPS  H14Y  918  -0.043   4.741   4.720  1.0024  0.6672 -1.2346
    7SAPS  C315  919   0.086   4.615   4.612 -0.1656  0.2746 -0.5781
    7SAPS  H15X  920   0.005   4.540   4.598 -1.9335  1.8510  0.7292
    7SAPS  H15Y  921   0.181   4.559   4.629  0.1231  0.3966 -1.7308
    7SAPS  C316  922   0.109   4.703   4.497  0.2037  0.5740  0.3059
    7SAPS  H16X  923   0.178   4.645   4.432  0.1064  1.2979 -0.4662
    7SAPS  H16Y  924   0.162   4.795   4.529 -0.0592  1.4206 -1.5305
    7SAPS  C317  925  -0.016   4.750   4.423 -0.1725  0.1028  0.6524
    7SAPS  H17X  926  -0.076   4.813   4.493  1.9087  0.2526  2.4110
    7SAPS  H17Y  927  -0.073   4.664   4.385  1.5819  0.5420 -3.4771
    7SAPS  C318  928   0.016   4.843   4.300 -0.0711 -0.0006 -0.1546
    7SAPS  H18X  929   0.096   4.916   4.323  0.1242  0.9848 -3.4503
    7SAPS  H18Y  930  -0.066   4.916   4.285 -2.5168 -2.2375  1.4154
    7SAPS  H18Z  931   0.031   4.785   4.206 -0.6790  1.8332 -1.4345
    8SAPS     N  932   0.714   4.089   6.939 -0.6029  0.1152  0.2484
    8SAPS   HN1  933   0.752   4.018   7.006 -0.8235 -0.0881  0.1584
    8SAPS   HN2  934   0.630   4.132   6.983 -0.5547  0.6479 -0.1723
    8SAPS   HN3  935   0.679   4.033   6.859  1.3802  1.7096 -1.8927
    8SAPS   C12  936   0.802   4.200   6.887 -0.4753 -0.5348  0.7846
    8SAPS  H12A  937   0.782   4.292   6.940 -2.1196 -0.5309  0.2348
    8SAPS   C13  938   0.957   4.172   6.889 -0.2273  1.0180  0.2492
    8SAPS  O13A  939   0.995   4.069   6.956 -0.1726  0.0523  0.6216
    8SAPS  O13B  940   1.021   4.283   6.895 -0.5473  0.0117  0.2234
    8SAPS   C11  941   0.763   4.229   6.743 -0.4613 -0.5457  0.4929
    8SAPS  H11A  942   0.753   4.129   6.694 -0.1855 -0.3506  0.0398
    8SAPS  H11B  943   0.840   4.288   6.690 -2.7749  1.8805 -0.4137
    8SAPS     P  944   0.620   4.443   6.684  0.1096 -0.8400 -0.1547
    8SAPS   O13  945   0.478   4.480   6.709 -0.5926 -0.1171  0.2790
    8SAPS   O14  946   0.726   4.530   6.733  0.2535 -0.2054  0.0333
    8SAPS   O12  947   0.636   4.299   6.745 -0.9628 -0.0227 -0.7034
    8SAPS   O11  948   0.638   4.418   6.537  0.4769  0.0513 -0.4079
    8SAPS    C1  949   0.534   4.370   6.452  0.2659  0.0082 -0.4124
    8SAPS    HA  950   0.433   4.370   6.497  0.7066  3.0463  0.7592
    8SAPS    HB  951   0.524   4.434   6.362 -1.1660 -0.4376 -0.5951
    8SAPS    C2  952   0.563   4.226   6.403  0.6771  0.1733  0.2351
    8SAPS    HS  953   0.575   4.165   6.495  0.4825 -1.3894 -0.7354
    8SAPS   O21  954   0.680   4.221   6.319  0.6322 -0.9135 -0.3241
    8SAPS   C21  955   0.745   4.116   6.347 -0.6837 -0.5403  0.0499
    8SAPS   O22  956   0.704   4.012   6.396 -0.3434 -0.3076 -0.2548
    8SAPS   C22  957   0.890   4.136   6.297 -0.1475 -0.2918 -0.1219
    8SAPS   H2R  958   0.927   4.238   6.322  0.2663 -0.5048  0.1521
    8SAPS   H2S  959   0.958   4.074   6.359 -0.7940 -1.4167 -0.5185
    8SAPS    C3  960   0.438   4.169   6.325  0.0192  0.0219  0.3838
    8SAPS    HX  961   0.359   4.172   6.404  0.2787  0.6370  0.6261
    8SAPS    HY  962   0.441   4.060   6.304  0.1499  0.1018 -0.0089
    8SAPS   O31  963   0.398   4.249   6.214 -0.2136  0.2980 -0.1201
    8SAPS   C31  964   0.454   4.215   6.095  0.1393 -0.4511 -0.7686
    8SAPS   O32  965   0.517   4.114   6.079 -0.3778 -0.3814  0.4346
    8SAPS   C32  966   0.425   4.314   5.979 -0.0733 -0.5453 -0.2893
    8SAPS   H2X  967   0.519   4.331   5.922  2.3254 -2.5203  2.7534
    8SAPS   H2Y  968   0.379   4.404   6.025  0.1285 -1.4501  1.7845
    8SAPS   C23  969   0.907   4.089   6.148 -0.4496  0.0491 -0.1833
    8SAPS   H3R  970   0.843   4.001   6.125 -3.6519  2.9471 -3.5586
    8SAPS   H3S  971   1.012   4.055   6.139 -1.0531 -3.2854  2.7489
    8SAPS   C24  972   0.873   4.192   6.041 -0.3634 -0.0758 -0.2558
    8SAPS   H4R  973   0.917   4.288   6.076  0.7272 -0.4191 -0.6695
    8SAPS   H4S  974   0.763   4.204   6.031 -0.3761 -1.2525 -1.9078
    8SAPS   C25  975   0.935   4.168   5.908 -0.1483 -0.0947 -0.1525
    8SAPS   H5R  976   1.044   4.187   5.904 -0.3486  1.2148  0.3263
    8SAPS   C26  977   0.865   4.129   5.802  0.0608 -0.2903  0.5009
    8SAPS   H6R  978   0.923   4.114   5.709  0.1281  0.1441  0.4696
    8SAPS   C27  979   0.726   4.084   5.780  0.3779  0.5756  0.0252
    8SAPS   H7R  980   0.672   4.065   5.875 -1.2649  1.8550 -0.5977
    8SAPS   H7S  981   0.724   3.982   5.734 -1.2583  0.6998 -0.2519
    8SAPS   C28  982   0.654   4.195   5.703 -0.3086 -0.5571  0.0538
    8SAPS   H8R  983   0.635   4.289   5.756 -0.2192  0.4268 -1.6083
    8SAPS   C29  984   0.608   4.188   5.577 -0.3806  0.2673  0.3980
    8SAPS   H9R  985   0.560   4.273   5.526 -0.7342 -0.7628 -1.0431
    8SAPS  C210  986   0.633   4.082   5.477 -0.2699 -0.3047  0.7944
    8SAPS  H10R  987   0.558   4.102   5.397  1.0264  2.1308  0.0942
    8SAPS  H10S  988   0.606   3.982   5.517 -1.1084 -0.7241 -0.7096
    8SAPS  C211  989   0.770   4.092   5.412 -0.6521  0.3830 -0.0494
    8SAPS  H11R  990   0.853   4.068   5.480 -0.7773 -2.1427 -0.6652
    8SAPS  C212  991   0.804   4.107   5.283 -0.5047  0.1727  0.0813
    8SAPS  H12R  992   0.909   4.093   5.253 -1.1061 -4.5994 -0.5325
    8SAPS  C213  993   0.712   4.138   5.174  0.0435 -0.0125 -0.4296
    8SAPS  H13R  994   0.751   4.197   5.088 -1.8730  0.0891 -1.2793
    8SAPS  H13S  995   0.639   4.217   5.202  0.4586 -0.3795  1.8278
    8SAPS  C214  996   0.641   4.024   5.117  0.0401  0.2781  1.2972
    8SAPS  H14R  997   0.579   3.975   5.194  1.7559 -3.1092  0.7409
    8SAPS  C215  998   0.646   3.981   4.991  0.0324 -0.1562 -0.4004
    8SAPS  H15R  999   0.586   3.891   4.968  0.5169 -0.7705  0.6196
    8SAPS  C216 1000   0.727   4.034   4.875 -0.5444  0.0350 -0.2978
    8SAPS  H16R 1001   0.720   4.145   4.867 -3.3940  0.1769  2.2240
    8SAPS  H16S 1002   0.688   3.984   4.784 -0.6410  0.2905 -0.3974
    8SAPS  C217 1003   0.878   3.985   4.891  0.2607  0.1452 -0.6240
    8SAPS  H17R 1004   0.860   3.881   4.859  0.8774  0.3509 -1.6915
    8SAPS  H17S 1005   0.897   3.975   5.000  0.5590 -2.3359 -0.8494
    8SAPS  C218 1006   0.983   4.071   4.827  0.6665  0.7456 -0.6664
    8SAPS  H18R 1007   1.005   4.152   4.899 -1.2053  1.2309 -0.5900
    8SAPS  H18S 1008   0.942   4.105   4.729  1.4420  0.0718 -1.2459
    8SAPS  C219 1009   1.111   4.007   4.780  0.8315  0.3232 -0.3108
    8SAPS  H19R 1010   1.145   3.981   4.882  0.6391  2.4163  0.3431
    8SAPS  H19S 1011   1.179   4.088   4.744 -1.3044  2.6688  0.6605
    8SAPS  C220 1012   1.099   3.897   4.675  0.5143 -0.6093  0.0997
    8SAPS  H20R 1013   1.068   3.798   4.715 -0.6944 -0.3535 -0.1569
    8SAPS  H20S 1014   1.184   3.905   4.604 -0.1905  1.0811 -0.6266
    8SAPS  H20T 1015   1.015   3.935   4.613  2.2729  1.9420 -0.8977
    8SAPS   C33 1016   0.319   4.248   5.900  0.1105  0.1567  0.3046
    8SAPS   H3X 1017   0.235   4.208   5.960 -1.3833  2.2198 -0.2659
    8SAPS   H3Y 1018   0.349   4.158   5.843 -1.4022  0.4917 -1.1212
    8SAPS   C34 1019   0.239   4.342   5.800 -0.5123 -0.2159 -0.0405
    8SAPS   H4X 1020   0.230   4.438   5.855 -2.7712 -0.1200 -0.4745
    8SAPS   H4Y 1021   0.139   4.293   5.792 -0.1616 -1.0614  0.5324
    8SAPS   C35 1022   0.295   4.349   5.660 -1.0308  0.2404 -0.0987
    8SAPS   H5X 1023   0.288   4.246   5.617 -1.5103  1.0121 -1.9873
    8SAPS   H5Y 1024   0.400   4.385   5.648 -1.0956  0.8596  1.1026
    8SAPS   C36 1025   0.205   4.433   5.564 -0.1101  0.0074  0.7363
    8SAPS   H6X 1026   0.170   4.523   5.619 -0.4054  0.3211  0.0614
    8SAPS   H6Y 1027   0.114   4.373   5.540 -1.4702  2.3285 -0.3056
    8SAPS   C37 1028   0.263   4.482   5.432  0.4342  0.3951  0.1729
    8SAPS   H7X 1029   0.355   4.540   5.456 -1.0033  2.3016  1.3598
    8SAPS   H7Y 1030   0.190   4.541   5.373 -2.6984 -3.5218 -0.2308
    8SAPS   C38 1031   0.302   4.371   5.330 -0.7725  0.2457  0.4497
    8SAPS   H8X 1032   0.210   4.311   5.315 -0.8577  0.8399 -1.7897
    8SAPS   H8Y 1033   0.387   4.305   5.358  3.0155  3.1735 -2.8274
    8SAPS   C39 1034   0.336   4.418   5.192  0.2604  0.4056 -0.0656
    8SAPS   H9X 1035   0.440   4.456   5.198  1.8977 -3.7356  2.2494
    8SAPS   H9Y 1036   0.260   4.482   5.142 -0.7461 -2.5872 -2.7237
    8SAPS  C310 1037   0.331   4.303   5.100 -0.2188  0.6843 -0.0190
    8SAPS  H10X 1038   0.236   4.246   5.098  0.2657 -0.1934  1.1677
    8SAPS  H10Y 1039   0.418   4.236   5.115  0.4768  1.5233 -0.2109
    8SAPS  C311 1040   0.343   4.348   4.951 -0.0193  0.1731 -0.1985
    8SAPS  H11X 1041   0.416   4.432   4.946  1.1032 -0.5859  2.1757
    8SAPS  H11Y 1042   0.244   4.390   4.923 -0.3443 -0.3799  0.1043
    8SAPS  C312 1043   0.383   4.238   4.850 -0.0244  0.4261  0.9426
    8SAPS  H12X 1044   0.300   4.169   4.824  2.4486 -1.6139 -2.3530
    8SAPS  H12Y 1045   0.465   4.176   4.893  1.6933  2.3089  0.5415
    8SAPS  C313 1046   0.420   4.300   4.714  0.2617  0.5400 -0.2131
    8SAPS  H13X 1047   0.519   4.343   4.740 -0.9349  2.6935  1.0595
    8SAPS  H13Y 1048   0.335   4.359   4.674 -0.2770 -0.7295 -1.0064
    8SAPS  C314 1049   0.437   4.174   4.624 -0.0396 -0.2203 -0.6014
    8SAPS  H14X 1050   0.344   4.114   4.612 -0.7237  0.7499 -0.3319
    8SAPS  H14Y 1051   0.519   4.116   4.671  1.4409  2.6683  0.6260
    8SAPS  C315 1052   0.465   4.212   4.478 -0.3166 -0.3796 -0.2831
    8SAPS  H15X 1053   0.544   4.289   4.494 -0.0257 -1.0381  1.8034
    8SAPS  H15Y 1054   0.384   4.262   4.421  0.6012 -0.4735 -1.7135
    8SAPS  C316 1055   0.517   4.103   4.386 -0.0630 -0.0286 -0.2524
    8SAPS  H16X 1056   0.430   4.041   4.355 -0.4145 -0.4352  1.4446
    8SAPS  H16Y 1057   0.594   4.053   4.449 -0.5274  0.8029  1.0340
    8SAPS  C317 1058   0.579   4.148   4.254  0.4253  0.0253 -0.0776
    8SAPS  H17X 1059   0.678   4.187   4.288  0.0920 -0.2354  1.2523
    8SAPS  H17Y 1060   0.507   4.223   4.215  0.9552  0.3321 -0.4779
    8SAPS  C318 1061   0.608   4.037   4.160  0.0355 -0.1509 -0.1576
    8SAPS  H18X 1062   0.676   3.966   4.214 -0.0707 -1.4221 -1.6236
    8SAPS  H18Y 1063   0.654   4.061   4.062  1.2463 -2.6912 -0.2947
    8SAPS  H18Z 1064   0.515   3.977   4.147  0.6083 -1.1467  0.2315
    9SAPS     N 1065   3.085   1.991   7.183  0.3429 -0.2467 -0.2083
    9SAPS   HN1 1066   3.166   2.055   7.191 -0.5446  1.0263 -0.9912
    9SAPS   HN2 1067   2.993   2.033   7.158 -0.5564 -2.2804 -0.5976
    9SAPS   HN3 1068   3.078   1.959   7.282 -1.3277  1.1846  0.1981
    9SAPS   C12 1069   3.108   1.884   7.084  0.4626  0.1108 -0.0313
    9SAPS  H12A 1070   3.178   1.807   7.114  1.4112  0.3661 -1.4980
    9SAPS   C13 1071   2.979   1.807   7.044 -0.5076 -0.2076  0.0885
    9SAPS  O13A 1072   2.867   1.832   7.100  0.0529  0.8746 -0.1541
    9SAPS  O13B 1073   2.986   1.719   6.948 -0.3329  0.5628  0.1214
    9SAPS   C11 1074   3.168   1.935   6.953 -0.6234 -0.4059  0.2299
    9SAPS  H11A 1075   3.087   1.973   6.887  0.2943  0.0434 -0.6714
    9SAPS  H11B 1076   3.219   1.860   6.889  1.3803  1.7937 -0.9415
    9SAPS     P 1077   3.278   2.157   6.890  0.2885  0.1077 -0.3248
    9SAPS   O13 1078   3.176   2.245   6.950  0.3955 -0.4628 -0.6814
    9SAPS   O14 1079   3.420   2.210   6.898  0.2440 -0.6233  0.4283
    9SAPS   O12 1080   3.279   2.027   6.979 -0.8059 -0.6682  0.6336
    9SAPS   O11 1081   3.244   2.103   6.749 -0.3387 -0.1228  0.4166
    9SAPS    C1 1082   3.337   2.074   6.645  0.3108 -0.1789 -0.1931
    9SAPS    HA 1083   3.427   2.022   6.686 -0.9070 -1.5572  0.8303
    9SAPS    HB 1084   3.292   2.002   6.572 -1.1061  1.5064 -1.0532
    9SAPS    C2 1085   3.373   2.199   6.557 -0.3477  0.1240 -0.5524
    9SAPS    HS 1086   3.389   2.283   6.628  1.9346 -0.2928 -0.5028
    9SAPS   O21 1087   3.271   2.230   6.467  0.6709  0.2877  0.6390
    9SAPS   C21 1088   3.165   2.301   6.513 -0.1258  0.1196 -0.0092
    9SAPS   O22 1089   3.165   2.359   6.626  0.0728  0.7096  1.0965
    9SAPS   C22 1090   3.061   2.307   6.408  0.2172  0.5235 -0.0526
    9SAPS   H2R 1091   3.057   2.222   6.336  0.1967 -2.4258  3.2056
    9SAPS   H2S 1092   2.965   2.298   6.463  0.8098  0.2095  0.9442
    9SAPS    C3 1093   3.515   2.178   6.489  0.0592  0.7181 -0.9592
    9SAPS    HX 1094   3.520   2.070   6.467  0.0693  0.8185 -1.4509
    9SAPS    HY 1095   3.601   2.207   6.555  0.7077 -3.4559  0.2871
    9SAPS   O31 1096   3.539   2.238   6.361 -0.3471  0.3239  0.5877
    9SAPS   C31 1097   3.532   2.370   6.343 -0.6995 -0.5434 -0.5489
    9SAPS   O32 1098   3.516   2.447   6.435 -0.0145 -0.1384 -0.4507
    9SAPS   C32 1099   3.554   2.403   6.193 -0.2096  0.7706  0.0828
    9SAPS   H2X 1100   3.471   2.355   6.137  1.1775 -1.8163  0.1097
    9SAPS   H2Y 1101   3.645   2.358   6.148 -1.6691 -1.5854 -0.6724
    9SAPS   C23 1102   3.054   2.443   6.343  0.0459 -0.8200  0.1427
    9SAPS   H3R 1103   3.064   2.519   6.424  1.5090 -0.1190 -0.6500
    9SAPS   H3S 1104   2.960   2.460   6.286  1.3403  2.5496 -1.2782
    9SAPS   C24 1105   3.162   2.461   6.236 -0.1576 -0.0698  0.5790
    9SAPS   H4R 1106   3.144   2.393   6.150  0.7619  1.3177 -0.7737
    9SAPS   H4S 1107   3.263   2.444   6.279 -0.5495  0.9331  1.9380
    9SAPS   C25 1108   3.181   2.602   6.175  0.5467 -0.1928 -0.4699
    9SAPS   H5R 1109   3.212   2.680   6.246  1.8452 -0.3732 -0.8131
    9SAPS   C26 1110   3.152   2.650   6.052  0.2766 -0.2472  0.3302
    9SAPS   H6R 1111   3.181   2.753   6.028 -0.4984 -0.3704 -1.3002
    9SAPS   C27 1112   3.103   2.569   5.935  0.1202 -0.7889  0.4008
    9SAPS   H7R 1113   3.011   2.517   5.967  0.0963 -0.0617  1.5632
    9SAPS   H7S 1114   3.186   2.498   5.915  1.3193  0.4788  0.7123
    9SAPS   C28 1115   3.078   2.644   5.810  0.4432  0.2889 -0.3398
    9SAPS   H8R 1116   3.169   2.680   5.760  1.4303 -0.4168  0.9158
    9SAPS   C29 1117   2.955   2.647   5.746 -0.3559 -0.0347 -0.6560
    9SAPS   H9R 1118   2.950   2.680   5.641 -2.8728 -0.2490 -0.6689
    9SAPS  C210 1119   2.822   2.580   5.784  0.9310  0.5259 -0.4285
    9SAPS  H10R 1120   2.841   2.474   5.809 -2.0885 -0.6320 -2.3968
    9SAPS  H10S 1121   2.752   2.580   5.698 -1.0579  1.0398  1.1012
    9SAPS  C211 1122   2.757   2.644   5.902 -0.7134  0.4764  0.5125
    9SAPS  H11R 1123   2.831   2.662   5.981  1.4715  0.2071 -1.3773
    9SAPS  C212 1124   2.625   2.654   5.932  0.3791 -0.0902  0.9407
    9SAPS  H12R 1125   2.596   2.702   6.027  1.7124  0.9902  0.8237
    9SAPS  C213 1126   2.518   2.610   5.838 -0.0556 -0.2971  0.1375
    9SAPS  H13R 1127   2.553   2.607   5.732  0.7633  0.0398  0.3946
    9SAPS  H13S 1128   2.453   2.700   5.834  0.9102  0.5012  1.6063
    9SAPS  C214 1129   2.437   2.487   5.873  0.5497  0.5269 -0.0625
    9SAPS  H14R 1130   2.398   2.488   5.976 -1.8723 -1.7606 -0.8471
    9SAPS  C215 1131   2.414   2.387   5.790 -0.9028 -0.6182  0.5044
    9SAPS  H15R 1132   2.360   2.295   5.817 -3.6018  1.0202  1.0103
    9SAPS  C216 1133   2.471   2.388   5.650  0.6464  0.0853  0.5536
    9SAPS  H16R 1134   2.582   2.389   5.647  0.7149  2.5482 -2.8202
    9SAPS  H16S 1135   2.439   2.485   5.606 -2.6295 -0.8449  0.5675
    9SAPS  C217 1136   2.428   2.276   5.557  0.0438 -0.6303  0.7018
    9SAPS  H17R 1137   2.319   2.284   5.537  0.4276 -2.0769 -2.7287
    9SAPS  H17S 1138   2.448   2.176   5.602 -2.7182 -0.6770  2.0691
    9SAPS  C218 1139   2.502   2.299   5.425 -0.4460  0.2206  0.2869
    9SAPS  H18R 1140   2.611   2.286   5.440 -0.0749  1.7666 -0.8936
    9SAPS  H18S 1141   2.476   2.398   5.382  0.9754  0.3083 -0.4073
    9SAPS  C219 1142   2.451   2.197   5.316  0.4639  0.1903 -0.4272
    9SAPS  H19R 1143   2.347   2.228   5.293 -0.6766  0.2571  3.8282
    9SAPS  H19S 1144   2.461   2.098   5.365  1.5831 -0.0472 -1.0989
    9SAPS  C220 1145   2.532   2.207   5.179 -1.2972  0.6094  0.1848
    9SAPS  H20R 1146   2.620   2.139   5.178 -0.2800  1.8520 -2.1858
    9SAPS  H20S 1147   2.566   2.310   5.157  1.0423  0.0427  0.8493
    9SAPS  H20T 1148   2.476   2.171   5.090  2.3597 -1.2970 -1.5663
    9SAPS   C33 1149   3.549   2.555   6.152  0.7845 -0.0993  0.8399
    9SAPS   H3X 1150   3.632   2.613   6.196  0.4061  0.4276  0.8595
    9SAPS   H3Y 1151   3.454   2.605   6.181  1.2578  1.8140 -0.6939
    9SAPS   C34 1152   3.556   2.574   5.998  0.0447 -0.2455  0.2615
    9SAPS   H4X 1153   3.465   2.537   5.946 -1.6671  0.0864  2.8273
    9SAPS   H4Y 1154   3.644   2.516   5.964 -0.2495  0.0120 -0.9940
    9SAPS   C35 1155   3.567   2.721   5.957  0.3906  0.0254  0.8927
    9SAPS   H5X 1156   3.666   2.757   5.992  1.0407 -1.4390  0.6344
    9SAPS   H5Y 1157   3.476   2.775   5.991 -1.9184 -2.8055 -0.3231
    9SAPS   C36 1158   3.567   2.737   5.809  0.5297  0.0089  0.2144
    9SAPS   H6X 1159   3.639   2.670   5.757 -0.2493 -0.6244 -0.0764
    9SAPS   H6Y 1160   3.605   2.840   5.790 -1.3574  0.6602 -0.2480
    9SAPS   C37 1161   3.428   2.729   5.734  0.1997  0.0389  0.5730
    9SAPS   H7X 1162   3.344   2.789   5.775  0.1732  0.9507 -0.7610
    9SAPS   H7Y 1163   3.385   2.626   5.728 -0.9035  0.5709 -1.3594
    9SAPS   C38 1164   3.450   2.773   5.588  0.6416  0.3224 -0.8826
    9SAPS   H8X 1165   3.516   2.701   5.535  1.6779  1.1655 -0.7846
    9SAPS   H8Y 1166   3.508   2.868   5.589  0.4706  0.4275 -0.2558
    9SAPS   C39 1167   3.328   2.789   5.502 -0.2144 -0.1980  0.0293
    9SAPS   H9X 1168   3.271   2.876   5.541  1.4861  0.7357  0.5123
    9SAPS   H9Y 1169   3.264   2.700   5.523  0.5791 -0.4149  1.7522
    9SAPS  C310 1170   3.358   2.809   5.348 -0.1054 -0.2075  0.5041
    9SAPS  H10X 1171   3.403   2.716   5.309 -0.2527 -0.1946  0.3002
    9SAPS  H10Y 1172   3.422   2.900   5.339 -0.8451  0.2591 -0.1978
    9SAPS  C311 1173   3.231   2.832   5.274 -0.0456  0.3869  0.3438
    9SAPS  H11X 1174   3.181   2.913   5.332  3.5506  2.6413  0.6355
    9SAPS  H11Y 1175   3.179   2.734   5.268  0.6060  0.1300 -1.9594
    9SAPS  C312 1176   3.251   2.888   5.132 -0.3150 -0.0467  0.0408
    9SAPS  H12X 1177   3.317   2.816   5.078 -1.3549  0.8189 -2.5809
    9SAPS  H12Y 1178   3.303   2.986   5.139  0.0890 -0.0871 -1.7174
    9SAPS  C313 1179   3.128   2.916   5.052  0.0954  0.0982 -0.5398
    9SAPS  H13X 1180   3.129   3.010   4.994 -3.1875  1.0213  0.6554
    9SAPS  H13Y 1181   3.033   2.924   5.110  0.1015  1.1722 -0.6688
    9SAPS  C314 1182   3.095   2.794   4.958 -0.4851  0.0456 -0.3225
    9SAPS  H14X 1183   3.102   2.708   5.028  0.9503  1.5859  1.5507
    9SAPS  H14Y 1184   3.176   2.789   4.883 -0.8666  0.6676 -0.7904
    9SAPS  C315 1185   2.956   2.801   4.894  0.3225 -0.6129 -0.3449
    9SAPS  H15X 1186   2.935   2.906   4.864 -0.0112  0.1648  2.3411
    9SAPS  H15Y 1187   2.876   2.772   4.965 -0.2539 -2.0717 -1.5331
    9SAPS  C316 1188   2.944   2.698   4.779  0.4300 -0.3202  0.3073
    9SAPS  H16X 1189   2.956   2.602   4.834 -0.1028 -1.6390 -1.7552
    9SAPS  H16Y 1190   3.032   2.717   4.713 -0.4916  3.2500 -0.1272
    9SAPS  C317 1191   2.803   2.707   4.709 -0.4604 -0.6445  0.3507
    9SAPS  H17X 1192   2.774   2.813   4.693  1.5701 -0.0612  0.3023
    9SAPS  H17Y 1193   2.732   2.670   4.786  0.3765  0.1599  1.5410
    9SAPS  C318 1194   2.777   2.631   4.576 -0.0644 -0.6352 -0.3772
    9SAPS  H18X 1195   2.839   2.676   4.495 -1.1022 -0.2954 -1.0007
    9SAPS  H18Y 1196   2.671   2.640   4.542 -0.7698  2.5681  2.1969
    9SAPS  H18Z 1197   2.791   2.521   4.587 -0.7677 -0.7672 -0.7174
   10SAPS     N 1198   4.219   3.330   6.904 -0.6981 -0.2361  0.7498
   10SAPS   HN1 1199   4.157   3.405   6.868  0.1397  0.5627  0.9224
   10SAPS   HN2 1200   4.265   3.381   6.982  1.6617  0.3968 -0.9410
   10SAPS   HN3 1201   4.288   3.309   6.829 -2.7416 -0.4727 -1.1740
   10SAPS   C12 1202   4.142   3.215   6.967  0.3650 -0.0807  0.2673
   10SAPS  H12A 1203   4.220   3.160   7.017  1.3054 -0.8341 -1.9344
   10SAPS   C13 1204   4.044   3.267   7.072  0.1644 -0.1372  0.3915
   10SAPS  O13A 1205   4.012   3.387   7.093 -0.1193  0.0347  0.0483
   10SAPS  O13B 1206   3.978   3.169   7.118  0.1285  0.0340 -0.4770
   10SAPS   C11 1207   4.053   3.142   6.860  0.3100 -0.3843 -0.0364
   10SAPS  H11A 1208   3.972   3.202   6.813  0.3852 -1.1049 -1.1361
   10SAPS  H11B 1209   4.004   3.054   6.908  0.1234  0.9096  2.3080
   10SAPS     P 1210   4.152   2.962   6.688 -0.1008  0.3326 -0.1941
   10SAPS   O13 1211   4.229   2.864   6.770  0.2268 -0.0006  0.2846
   10SAPS   O14 1212   4.014   2.922   6.644  0.0610 -0.5606  0.3581
   10SAPS   O12 1213   4.148   3.096   6.767 -0.2628 -0.4160 -0.3114
   10SAPS   O11 1214   4.233   2.997   6.557 -0.2276  0.0670 -0.4327
   10SAPS    C1 1215   4.289   3.127   6.539 -0.6172  0.2431  0.1762
   10SAPS    HA 1216   4.208   3.199   6.562 -0.7886  0.0990  0.0309
   10SAPS    HB 1217   4.377   3.135   6.606  0.9506 -0.3145 -1.6904
   10SAPS    C2 1218   4.335   3.148   6.388  0.5495  0.7188  0.2208
   10SAPS    HS 1219   4.340   3.258   6.373  0.5865  0.7781  0.6734
   10SAPS   O21 1220   4.243   3.080   6.297  0.2493  0.5909 -0.5664
   10SAPS   C21 1221   4.124   3.135   6.295  0.3161  0.2322 -0.1234
   10SAPS   O22 1222   4.086   3.229   6.363  0.8138 -0.1714  0.3441
   10SAPS   C22 1223   4.027   3.047   6.200 -0.2234  0.6731 -0.5206
   10SAPS   H2R 1224   4.037   2.943   6.237 -0.2092  0.6425 -0.6109
   10SAPS   H2S 1225   3.923   3.084   6.205 -0.4196  0.1351 -0.5824
   10SAPS    C3 1226   4.472   3.101   6.362 -0.2359 -0.6926  0.9218
   10SAPS    HX 1227   4.477   2.990   6.357  0.5984 -0.6189 -0.7706
   10SAPS    HY 1228   4.545   3.125   6.443  0.7162 -0.7821  0.1199
   10SAPS   O31 1229   4.523   3.148   6.238  0.8432  0.2353  0.4683
   10SAPS   C31 1230   4.600   3.258   6.215 -0.0826  0.2430 -0.2845
   10SAPS   O32 1231   4.652   3.324   6.308  0.9377 -0.3513  0.3307
   10SAPS   C32 1232   4.590   3.309   6.072  0.1324  0.4615 -0.0156
   10SAPS   H2X 1233   4.659   3.241   6.017 -0.3191  1.3319 -1.7432
   10SAPS   H2Y 1234   4.626   3.413   6.061 -1.8431  1.0848 -1.2585
   10SAPS   C23 1235   4.068   3.049   6.052 -0.3246 -0.8146 -0.3783
   10SAPS   H3R 1236   4.171   3.007   6.056 -0.1858 -0.4513 -0.0466
   10SAPS   H3S 1237   4.077   3.151   6.009 -1.2554 -1.2878 -1.7468
   10SAPS   C24 1238   3.984   2.954   5.963 -0.6089 -0.1086 -0.0690
   10SAPS   H4R 1239   3.990   2.853   6.009  0.6818  0.2451  0.6066
   10SAPS   H4S 1240   4.025   2.941   5.861 -0.2776  1.2148 -0.1278
   10SAPS   C25 1241   3.840   2.994   5.954 -0.6063  0.0717 -0.2401
   10SAPS   H5R 1242   3.766   2.955   6.025 -1.6137 -1.3931 -2.0122
   10SAPS   C26 1243   3.791   3.078   5.865 -0.0677 -0.0379  0.8718
   10SAPS   H6R 1244   3.682   3.089   5.872 -0.1720 -1.6035  1.9555
   10SAPS   C27 1245   3.867   3.146   5.746  0.0866  0.0859  0.3540
   10SAPS   H7R 1246   3.966   3.097   5.733 -0.9102 -1.7427 -0.8038
   10SAPS   H7S 1247   3.883   3.249   5.783  1.0185 -0.0523  0.3614
   10SAPS   C28 1248   3.788   3.132   5.616  0.5147 -0.0039 -0.2925
   10SAPS   H8R 1249   3.787   3.029   5.579  0.1001  0.0451 -0.4171
   10SAPS   C29 1250   3.718   3.232   5.552 -0.0171 -1.2698  0.7217
   10SAPS   H9R 1251   3.675   3.212   5.453  0.2444  1.1758  0.0518
   10SAPS  C210 1252   3.713   3.380   5.589  0.0359 -0.0826  0.2094
   10SAPS  H10R 1253   3.701   3.443   5.499 -1.7069  0.1050  0.5395
   10SAPS  H10S 1254   3.811   3.412   5.631  0.0248  1.7231 -1.0505
   10SAPS  C211 1255   3.604   3.416   5.682  0.1998 -0.3902 -0.4894
   10SAPS  H11R 1256   3.599   3.346   5.767  1.0524 -0.2626 -0.3185
   10SAPS  C212 1257   3.522   3.520   5.657  0.1613  0.0369  0.2975
   10SAPS  H12R 1258   3.442   3.536   5.731 -1.2682 -0.9533 -0.9879
   10SAPS  C213 1259   3.517   3.617   5.538 -0.0069 -0.4929 -0.3254
   10SAPS  H13R 1260   3.425   3.680   5.535  0.6911  0.5005 -1.9715
   10SAPS  H13S 1261   3.515   3.559   5.444 -1.2924  0.1239 -0.7043
   10SAPS  C214 1262   3.624   3.727   5.546 -0.2896 -0.6766  0.2324
   10SAPS  H14R 1263   3.630   3.771   5.647  0.4612 -1.7098  0.6562
   10SAPS  C215 1264   3.705   3.773   5.452  0.6508 -0.0432  0.5245
   10SAPS  H15R 1265   3.775   3.857   5.467 -1.0330  1.5790 -0.2735
   10SAPS  C216 1266   3.719   3.720   5.310 -0.6502 -0.1121  0.2203
   10SAPS  H16R 1267   3.636   3.649   5.288 -1.0671 -0.1006  1.6349
   10SAPS  H16S 1268   3.814   3.663   5.304 -2.2737 -2.9658 -0.1403
   10SAPS  C217 1269   3.696   3.831   5.205  0.5694  0.3973  0.6996
   10SAPS  H17R 1270   3.797   3.875   5.193  2.3384 -2.9460  1.8258
   10SAPS  H17S 1271   3.615   3.897   5.239 -0.4964 -1.5071  2.0488
   10SAPS  C218 1272   3.649   3.784   5.065 -0.3980 -1.4649 -0.0505
   10SAPS  H18R 1273   3.727   3.725   5.013  0.4103  0.6665 -1.4025
   10SAPS  H18S 1274   3.638   3.876   5.003  0.2689 -1.1671  0.2636
   10SAPS  C219 1275   3.509   3.734   5.048 -0.0427 -0.1997  0.7795
   10SAPS  H19R 1276   3.442   3.796   5.111 -0.0903 -1.4995  2.0540
   10SAPS  H19S 1277   3.481   3.631   5.077 -1.3876 -0.1656 -0.3028
   10SAPS  C220 1278   3.460   3.733   4.903 -0.0672 -0.6559  0.6413
   10SAPS  H20R 1279   3.353   3.705   4.913 -0.6793  0.6617 -1.6024
   10SAPS  H20S 1280   3.518   3.657   4.847  1.9261  1.4295 -0.2910
   10SAPS  H20T 1281   3.476   3.826   4.845 -0.9882 -1.1918 -0.5202
   10SAPS   C33 1282   4.447   3.299   6.011  0.3076 -0.6158  0.0703
   10SAPS   H3X 1283   4.362   3.337   6.072  0.6409 -0.2396  0.3100
   10SAPS   H3Y 1284   4.430   3.190   5.995  1.3612 -0.8600  0.5344
   10SAPS   C34 1285   4.436   3.370   5.872  0.0959 -0.5272  0.0242
   10SAPS   H4X 1286   4.526   3.353   5.809  0.4823 -1.0771  0.7027
   10SAPS   H4Y 1287   4.437   3.480   5.885  1.7036 -0.6100  0.8699
   10SAPS   C35 1288   4.312   3.328   5.790  0.1722  0.0400  0.4799
   10SAPS   H5X 1289   4.227   3.368   5.849  1.1923 -0.8296  2.6913
   10SAPS   H5Y 1290   4.305   3.217   5.795  2.4611 -0.2096 -0.4832
   10SAPS   C36 1291   4.285   3.377   5.644 -0.1924  0.2821  0.3158
   10SAPS   H6X 1292   4.379   3.362   5.586  1.2919 -1.5983  3.0232
   10SAPS   H6Y 1293   4.262   3.485   5.648  0.7724  0.4712  1.2108
   10SAPS   C37 1294   4.164   3.317   5.576 -0.2425 -0.1789  0.0887
   10SAPS   H7X 1295   4.076   3.369   5.618  0.5242  2.2298 -1.0669
   10SAPS   H7Y 1296   4.149   3.211   5.603  0.3409 -0.5955 -1.1440
   10SAPS   C38 1297   4.169   3.321   5.424 -0.0516 -0.3453  0.9152
   10SAPS   H8X 1298   4.254   3.261   5.384 -1.4370 -1.3948 -0.5857
   10SAPS   H8Y 1299   4.185   3.428   5.399 -1.3647 -0.0902  1.1028
   10SAPS   C39 1300   4.045   3.274   5.347  0.0423 -0.7775 -0.0144
   10SAPS   H9X 1301   4.043   3.325   5.248 -1.0018  0.5406  0.6550
   10SAPS   H9Y 1302   3.953   3.315   5.394  0.8085  0.9150  0.0769
   10SAPS  C310 1303   4.023   3.122   5.324  0.3221 -0.2942  0.3435
   10SAPS  H10X 1304   3.920   3.106   5.285  0.8356  0.0042 -1.2168
   10SAPS  H10Y 1305   4.039   3.059   5.413  0.7663 -0.8284 -0.1105
   10SAPS  C311 1306   4.125   3.068   5.221 -0.6419 -0.3189  0.3797
   10SAPS  H11X 1307   4.105   2.959   5.212 -2.9310  0.1739 -2.1416
   10SAPS  H11Y 1308   4.224   3.107   5.253 -1.5706  2.1238  0.4936
   10SAPS  C312 1309   4.108   3.113   5.075  0.6902  0.7066  0.2208
   10SAPS  H12X 1310   4.004   3.143   5.051  0.9075  0.2071 -1.4838
   10SAPS  H12Y 1311   4.133   3.032   5.003  0.6339  1.2539 -0.4260
   10SAPS  C313 1312   4.195   3.238   5.040  0.2556  0.4167 -0.5417
   10SAPS  H13X 1313   4.203   3.308   5.126  2.3984  1.4414 -1.4757
   10SAPS  H13Y 1314   4.157   3.311   4.965  1.9874  1.2490 -0.6560
   10SAPS  C314 1315   4.338   3.201   4.996  0.4334  0.0898 -0.6740
   10SAPS  H14X 1316   4.330   3.130   4.911 -0.6980 -0.0360 -0.4805
   10SAPS  H14Y 1317   4.381   3.142   5.079 -1.1743  0.7789  0.7078
   10SAPS  C315 1318   4.419   3.321   4.951 -0.1974  0.1416  0.4669
   10SAPS  H15X 1319   4.353   3.378   4.882 -3.3072 -1.1641  2.1850
   10SAPS  H15Y 1320   4.502   3.289   4.885 -0.2681 -0.5933  0.7291
   10SAPS  C316 1321   4.475   3.410   5.060 -0.4437  0.2762 -0.5947
   10SAPS  H16X 1322   4.382   3.460   5.092 -2.1479 -3.3587  0.7111
   10SAPS  H16Y 1323   4.538   3.495   5.027 -1.3770  1.7489  1.2304
   10SAPS  C317 1324   4.545   3.340   5.174  0.0562 -0.1111 -0.1595
   10SAPS  H17X 1325   4.642   3.305   5.131  0.5693  0.1002  0.8096
   10SAPS  H17Y 1326   4.494   3.248   5.208  1.5469 -0.8069  0.2662
   10SAPS  C318 1327   4.552   3.435   5.291  0.2334 -0.1473 -0.4799
   10SAPS  H18X 1328   4.580   3.373   5.379 -1.5141  1.8151  1.6064
   10SAPS  H18Y 1329   4.450   3.470   5.317  0.6255 -0.3164  1.4241
   10SAPS  H18Z 1330   4.631   3.511   5.276  2.4527 -1.7332  2.2132
   11SAPS     N 1331   2.270   0.790   1.860  0.6460 -0.6164  0.2673
   11SAPS   HN1 1332   2.217   0.717   1.913 -1.2735 -0.2000 -0.9496
   11SAPS   HN2 1333   2.259   0.883   1.904 -2.5191  0.8302 -3.0646
   11SAPS   HN3 1334   2.225   0.792   1.766 -1.8679 -0.6212  1.3733
   11SAPS   C12 1335   2.415   0.753   1.839  0.7433  0.1757 -1.0706
   11SAPS  H12A 1336   2.419   0.654   1.795 -0.4965  0.3652 -1.6702
   11SAPS   C13 1337   2.483   0.840   1.733  0.1026 -0.0538 -0.2661
   11SAPS  O13A 1338   2.417   0.933   1.680 -0.0887 -0.0740  0.4461
   11SAPS  O13B 1339   2.590   0.801   1.691  0.6117  0.2805 -0.2664
   11SAPS   C11 1340   2.481   0.776   1.979 -0.1405 -0.3682 -0.5597
   11SAPS  H11A 1341   2.448   0.874   2.020  0.9265 -0.8476  1.5755
   11SAPS  H11B 1342   2.591   0.783   1.966  0.2585  0.0627  2.4025
   11SAPS     P 1343   2.531   0.581   2.142 -0.0815 -0.1112 -0.2819
   11SAPS   O13 1344   2.481   0.442   2.111  0.0701  1.0601  0.2866
   11SAPS   O14 1345   2.674   0.614   2.094  0.7252  0.2757 -0.4107
   11SAPS   O12 1346   2.438   0.683   2.070  0.0172  0.5990 -0.0834
   11SAPS   O11 1347   2.517   0.599   2.300  0.5821 -0.2654  0.1326
   11SAPS    C1 1348   2.560   0.721   2.357 -0.2262  0.4744 -0.2234
   11SAPS    HA 1349   2.670   0.730   2.345  0.0084 -1.5360  0.1955
   11SAPS    HB 1350   2.497   0.805   2.319 -2.3160  0.0404  1.9968
   11SAPS    C2 1351   2.539   0.711   2.513  0.0008 -0.2197 -0.1979
   11SAPS    HS 1352   2.596   0.617   2.528 -0.6892 -0.3695  1.7403
   11SAPS   O21 1353   2.406   0.700   2.558  0.1721  0.2478  0.6059
   11SAPS   C21 1354   2.396   0.624   2.661 -0.3063 -0.6559  0.4823
   11SAPS   O22 1355   2.486   0.571   2.721  0.2861  0.5699 -0.4956
   11SAPS   C22 1356   2.247   0.620   2.695  0.5910 -0.4678 -0.3898
   11SAPS   H2R 1357   2.212   0.725   2.689  0.0832 -0.3566  2.6874
   11SAPS   H2S 1358   2.194   0.561   2.617 -0.8434  0.3174 -0.0376
   11SAPS    C3 1359   2.616   0.827   2.582  0.4658 -0.5129 -0.4748
   11SAPS    HX 1360   2.551   0.917   2.572 -0.5321 -1.1545 -0.0162
   11SAPS    HY 1361   2.710   0.849   2.527  0.8436  0.4572  0.5069
   11SAPS   O31 1362   2.648   0.816   2.727 -0.2343 -0.2679  0.9201
   11SAPS   C31 1363   2.752   0.738   2.754  0.5628  0.2570  0.6146
   11SAPS   O32 1364   2.819   0.675   2.669 -0.0468 -1.0451  0.5649
   11SAPS   C32 1365   2.785   0.741   2.905  0.2663 -0.1560 -0.2834
   11SAPS   H2X 1366   2.692   0.767   2.960 -1.0429  0.5160 -2.6705
   11SAPS   H2Y 1367   2.856   0.825   2.922 -0.6398  0.7541 -0.9302
   11SAPS   C23 1368   2.204   0.570   2.835 -0.6223 -0.7117 -0.3276
   11SAPS   H3R 1369   2.101   0.605   2.859 -0.9346  0.7577 -3.2592
   11SAPS   H3S 1370   2.271   0.624   2.904 -0.6255  1.0838 -1.6700
   11SAPS   C24 1371   2.209   0.417   2.861 -0.3351 -0.0123  0.3777
   11SAPS   H4R 1372   2.154   0.366   2.779 -0.9104  1.8789 -0.4635
   11SAPS   H4S 1373   2.157   0.389   2.955 -0.9780  2.3187  0.7828
   11SAPS   C25 1374   2.346   0.355   2.858 -0.1223 -0.0846 -0.0884
   11SAPS   H5R 1375   2.362   0.289   2.771  0.6133 -2.5817  1.8117
   11SAPS   C26 1376   2.430   0.325   2.953  0.3076  0.3797 -0.4016
   11SAPS   H6R 1377   2.514   0.260   2.927 -0.7785 -1.4557  0.4363
   11SAPS   C27 1378   2.418   0.364   3.100  0.5850  0.8905  0.3108
   11SAPS   H7R 1379   2.443   0.279   3.166 -0.7973 -1.5065 -2.0721
   11SAPS   H7S 1380   2.314   0.373   3.138  0.4389  1.8908 -0.2861
   11SAPS   C28 1381   2.503   0.481   3.145  0.1763 -0.4547  0.5162
   11SAPS   H8R 1382   2.551   0.536   3.062 -1.3150  0.0886 -0.0218
   11SAPS   C29 1383   2.506   0.534   3.266 -0.2232  0.3516  0.1600
   11SAPS   H9R 1384   2.570   0.621   3.284 -0.5275  1.4463 -3.3720
   11SAPS  C210 1385   2.436   0.481   3.394 -0.4398  0.0838  0.0070
   11SAPS  H10R 1386   2.338   0.435   3.371 -0.6351  0.7511 -0.5303
   11SAPS  H10S 1387   2.417   0.564   3.465  0.5961  0.4675 -0.1478
   11SAPS  C211 1388   2.506   0.367   3.472 -0.7344 -0.5573  0.1831
   11SAPS  H11R 1389   2.578   0.307   3.416 -1.4180 -1.1528 -0.0736
   11SAPS  C212 1390   2.503   0.342   3.602  0.8666  0.3158  0.0347
   11SAPS  H12R 1391   2.554   0.259   3.654 -1.6893  0.2148  2.6596
   11SAPS  C213 1392   2.420   0.433   3.688 -0.0582  0.0684 -0.1376
   11SAPS  H13R 1393   2.341   0.492   3.637 -1.3527 -0.8989  0.7211
   11SAPS  H13S 1394   2.490   0.515   3.716  2.0375 -2.0704  1.3450
   11SAPS  C214 1395   2.372   0.373   3.813  0.9424  0.7239 -0.8055
   11SAPS  H14R 1396   2.295   0.295   3.802  0.5819  0.2717  3.1799
   11SAPS  C215 1397   2.381   0.407   3.944 -0.3354 -0.3204 -0.0390
   11SAPS  H15R 1398   2.368   0.327   4.018 -0.9577 -0.6584 -0.5039
   11SAPS  C216 1399   2.463   0.523   3.996 -0.3578 -0.4053  0.6628
   11SAPS  H16R 1400   2.387   0.594   4.038 -0.5523 -1.1736  1.6445
   11SAPS  H16S 1401   2.522   0.565   3.912  0.4818  0.6553  1.7372
   11SAPS  C217 1402   2.554   0.488   4.110  0.4024 -0.6868  0.2032
   11SAPS  H17R 1403   2.639   0.424   4.079  1.4215 -1.0142  3.3127
   11SAPS  H17S 1404   2.507   0.418   4.182  0.5084 -2.3101 -1.2534
   11SAPS  C218 1405   2.613   0.610   4.183  0.7980  0.1398  0.3503
   11SAPS  H18R 1406   2.534   0.687   4.197  0.2353 -0.0664 -1.3709
   11SAPS  H18S 1407   2.685   0.662   4.117  2.3669  0.7917  2.4959
   11SAPS  C219 1408   2.682   0.571   4.317  0.0290 -0.2060  0.7746
   11SAPS  H19R 1409   2.766   0.503   4.291 -0.1835 -0.2163  0.0954
   11SAPS  H19S 1410   2.613   0.517   4.385 -0.5976 -1.4826 -0.8161
   11SAPS  C220 1411   2.730   0.697   4.392 -0.4911  0.5351  0.1547
   11SAPS  H20R 1412   2.757   0.676   4.498 -0.7497  2.1933  0.5721
   11SAPS  H20S 1413   2.638   0.759   4.402 -0.7725  0.3105 -0.9444
   11SAPS  H20T 1414   2.811   0.751   4.338  1.3079 -0.9489  1.2577
   11SAPS   C33 1415   2.851   0.605   2.949 -0.2795  0.4867  0.7730
   11SAPS   H3X 1416   2.940   0.570   2.892 -0.8881  0.2936 -0.0782
   11SAPS   H3Y 1417   2.779   0.521   2.940  0.2685  0.0372  0.4339
   11SAPS   C34 1418   2.876   0.609   3.102 -0.2728 -1.3392 -0.6185
   11SAPS   H4X 1419   2.887   0.505   3.141  3.4616 -1.1473 -0.8821
   11SAPS   H4Y 1420   2.789   0.657   3.152  1.5396  0.0987  1.3270
   11SAPS   C35 1421   3.002   0.688   3.146 -0.4277 -0.1652 -0.0317
   11SAPS   H5X 1422   2.985   0.788   3.102  0.3345 -0.7066 -1.6771
   11SAPS   H5Y 1423   3.083   0.633   3.093 -1.1847 -3.7559  2.1743
   11SAPS   C36 1424   3.022   0.690   3.295 -0.0786  0.4749 -0.4940
   11SAPS   H6X 1425   3.052   0.587   3.324 -1.6580  0.0702 -0.2436
   11SAPS   H6Y 1426   2.922   0.715   3.335 -0.0838 -1.1338  0.5912
   11SAPS   C37 1427   3.129   0.797   3.326  0.5024  0.7176  0.4770
   11SAPS   H7X 1428   3.114   0.895   3.278  0.5009 -0.1207 -1.3128
   11SAPS   H7Y 1429   3.223   0.759   3.281 -0.2853 -0.4737 -0.2145
   11SAPS   C38 1430   3.140   0.810   3.476 -0.2703 -0.3930  0.5073
   11SAPS   H8X 1431   3.123   0.712   3.526 -0.1700 -0.2685  0.7871
   11SAPS   H8Y 1432   3.059   0.879   3.510 -2.0335 -1.2321 -1.7497
   11SAPS   C39 1433   3.272   0.873   3.523  0.1800  0.4197 -0.1505
   11SAPS   H9X 1434   3.257   0.919   3.623  2.0209  4.0627 -1.3840
   11SAPS   H9Y 1435   3.300   0.955   3.454 -2.0488  0.8381 -0.6549
   11SAPS  C310 1436   3.382   0.769   3.522  0.2816  0.6068 -0.7122
   11SAPS  H10X 1437   3.373   0.705   3.431 -1.3166 -0.7278  0.3270
   11SAPS  H10Y 1438   3.365   0.707   3.612  0.4009  1.0607 -0.3752
   11SAPS  C311 1439   3.528   0.826   3.545 -0.1532  0.5151  0.0431
   11SAPS  H11X 1440   3.521   0.887   3.638  0.8325 -0.5819  0.8688
   11SAPS  H11Y 1441   3.561   0.896   3.464 -0.4060  0.8548  0.2297
   11SAPS  C312 1442   3.629   0.720   3.593 -0.4492 -0.7840  0.3006
   11SAPS  H12X 1443   3.653   0.665   3.500 -0.9213 -0.0238 -0.2786
   11SAPS  H12Y 1444   3.585   0.656   3.673 -1.9934 -1.4063 -1.0004
   11SAPS  C313 1445   3.759   0.784   3.654 -0.0594 -0.3588  0.1720
   11SAPS  H13X 1446   3.771   0.887   3.615 -1.9332 -0.2478 -0.2182
   11SAPS  H13Y 1447   3.848   0.724   3.625  0.5222  1.4043 -1.9510
   11SAPS  C314 1448   3.763   0.792   3.813  0.4057 -0.0194 -0.4495
   11SAPS  H14X 1449   3.753   0.687   3.849  1.4759 -0.0073 -0.1020
   11SAPS  H14Y 1450   3.673   0.847   3.849 -0.2618 -1.5832  0.3999
   11SAPS  C315 1451   3.887   0.842   3.893 -0.7462 -0.3438 -0.2971
   11SAPS  H15X 1452   3.881   0.952   3.903 -0.6909 -0.2824 -0.8817
   11SAPS  H15Y 1453   3.975   0.818   3.830  0.2393  2.9873 -0.3670
   11SAPS  C316 1454   3.894   0.778   4.035  0.0449  0.0351  0.1416
   11SAPS  H16X 1455   3.795   0.768   4.086  0.5578 -0.3125  1.0893
   11SAPS  H16Y 1456   3.948   0.856   4.092 -1.3861  0.4349  1.0337
   11SAPS  C317 1457   3.970   0.645   4.046  0.1308 -0.6441 -0.2163
   11SAPS  H17X 1458   4.064   0.633   3.988 -2.1169 -4.9574 -3.5801
   11SAPS  H17Y 1459   3.900   0.568   4.007 -0.1537 -0.0753 -0.8585
   11SAPS  C318 1460   3.996   0.604   4.184  0.1983  0.3397 -0.3152
   11SAPS  H18X 1461   3.905   0.609   4.248 -0.3945  0.2803 -1.1448
   11SAPS  H18Y 1462   4.075   0.663   4.235 -1.9756  0.6844  2.9605
   11SAPS  H18Z 1463   4.036   0.501   4.198  0.9141  0.6938  0.3006
   12SAPS     N 1464   4.247   6.538   1.864 -0.1916 -0.1154 -0.3428
   12SAPS   HN1 1465   4.192   6.589   1.792 -1.6665 -0.0798  0.7574
   12SAPS   HN2 1466   4.347   6.557   1.839 -0.4193  1.1696 -0.3583
   12SAPS   HN3 1467   4.228   6.437   1.877  0.3629  0.0692  2.8258
   12SAPS   C12 1468   4.215   6.585   2.000 -0.5820 -0.2094 -0.8701
   12SAPS  H12A 1469   4.296   6.563   2.068 -0.8289 -1.1009 -0.8592
   12SAPS   C13 1470   4.197   6.739   2.010  0.0416  0.8404 -0.0640
   12SAPS  O13A 1471   4.202   6.810   1.908 -0.2901  0.1783  0.8394
   12SAPS  O13B 1472   4.155   6.786   2.120  0.3750  0.1652 -0.3733
   12SAPS   C11 1473   4.096   6.512   2.067 -0.5949  0.1985  0.6559
   12SAPS  H11A 1474   4.011   6.542   2.003  0.8420 -0.0569 -1.4501
   12SAPS  H11B 1475   4.093   6.528   2.177 -0.4862 -1.0640  0.8579
   12SAPS     P 1476   4.150   6.272   2.153 -0.5495 -0.3546 -0.0049
   12SAPS   O13 1477   4.187   6.141   2.088  0.3585  0.2071  0.4184
   12SAPS   O14 1478   4.255   6.335   2.238 -0.0307 -1.0650 -0.1749
   12SAPS   O12 1479   4.111   6.372   2.040 -0.5884 -0.3477  0.8636
   12SAPS   O11 1480   4.026   6.267   2.241  0.6701  0.3435  0.2915
   12SAPS    C1 1481   4.026   6.183   2.360  0.2064 -0.1535  0.2645
   12SAPS    HA 1482   3.919   6.163   2.382  0.2116 -0.7729 -0.2338
   12SAPS    HB 1483   4.086   6.090   2.345  1.9730  1.0905 -0.7598
   12SAPS    C2 1484   4.081   6.266   2.487  0.3748  0.1721  0.3279
   12SAPS    HS 1485   4.184   6.305   2.468 -0.1339  0.4205 -2.4120
   12SAPS   O21 1486   4.070   6.189   2.613 -0.2816  0.4297  0.4977
   12SAPS   C21 1487   4.183   6.122   2.649 -0.0144  0.4484  0.4646
   12SAPS   O22 1488   4.281   6.114   2.579 -0.0662 -0.0122 -0.1649
   12SAPS   C22 1489   4.160   6.057   2.778  0.2840 -0.5759 -0.1250
   12SAPS   H2R 1490   4.159   6.128   2.864  1.2021 -0.4391 -0.2146
   12SAPS   H2S 1491   4.066   6.000   2.761 -0.9229  1.4978 -0.8793
   12SAPS    C3 1492   3.995   6.392   2.499  0.5574  0.3282  0.2384
   12SAPS    HX 1493   3.890   6.355   2.499  1.3412 -2.5880  4.3341
   12SAPS    HY 1494   4.016   6.446   2.404  1.8809 -1.6026 -0.6069
   12SAPS   O31 1495   4.039   6.468   2.619 -0.0042  0.3458  0.6767
   12SAPS   C31 1496   3.955   6.486   2.714  0.2585 -0.2513 -0.0754
   12SAPS   O32 1497   3.832   6.458   2.723 -0.2210 -0.1493  0.0952
   12SAPS   C32 1498   4.022   6.596   2.793 -0.2720 -0.0840 -0.2710
   12SAPS   H2X 1499   3.938   6.632   2.857  0.5328  1.4957 -0.0528
   12SAPS   H2Y 1500   4.056   6.677   2.725 -0.3295  1.8520  1.8985
   12SAPS   C23 1501   4.267   5.945   2.813 -0.1420  0.2433 -0.1088
   12SAPS   H3R 1502   4.370   5.987   2.806  0.0529 -0.4916 -2.6747
   12SAPS   H3S 1503   4.283   5.868   2.734 -0.3003  0.3798 -0.2757
   12SAPS   C24 1504   4.242   5.889   2.958  0.6028 -0.5418  0.7334
   12SAPS   H4R 1505   4.212   5.969   3.028 -0.0578  1.7076 -1.9353
   12SAPS   H4S 1506   4.343   5.868   2.999  0.9289  0.9546  0.7227
   12SAPS   C25 1507   4.151   5.768   2.956  0.0349 -0.0492 -0.4430
   12SAPS   H5R 1508   4.100   5.741   2.862  0.5342 -0.0095 -0.7292
   12SAPS   C26 1509   4.111   5.698   3.066  1.0269 -0.3615 -0.6105
   12SAPS   H6R 1510   4.052   5.608   3.045 -0.3151  0.5281 -0.7665
   12SAPS   C27 1511   4.161   5.714   3.207  0.0840 -0.3781 -0.8271
   12SAPS   H7R 1512   4.228   5.802   3.211  2.9665 -2.4876 -0.1511
   12SAPS   H7S 1513   4.221   5.624   3.233  0.4247 -0.9826 -3.4522
   12SAPS   C28 1514   4.042   5.741   3.301  0.8427 -0.1640  0.0907
   12SAPS   H8R 1515   3.964   5.806   3.257  0.3699 -2.0825 -2.1078
   12SAPS   C29 1516   4.029   5.694   3.428  0.6118  0.2730 -0.6752
   12SAPS   H9R 1517   3.926   5.705   3.465  0.2043 -0.9194 -1.3790
   12SAPS  C210 1518   4.135   5.610   3.498  0.2472  0.4788 -0.1213
   12SAPS  H10R 1519   4.235   5.659   3.502  0.6498 -0.1158 -1.9147
   12SAPS  H10S 1520   4.146   5.513   3.445  0.4056  0.4700 -0.0729
   12SAPS  C211 1521   4.098   5.570   3.641  0.0895  0.0100 -0.7147
   12SAPS  H11R 1522   4.091   5.462   3.661  0.0181 -0.0083 -0.8381
   12SAPS  C212 1523   4.067   5.652   3.749  0.0245 -0.0569 -0.0955
   12SAPS  H12R 1524   4.049   5.604   3.847 -1.8650 -0.7575 -0.7427
   12SAPS  C213 1525   4.050   5.804   3.738 -1.0780  0.4200 -0.6769
   12SAPS  H13R 1526   4.015   5.830   3.636  2.3099 -0.4039 -2.2091
   12SAPS  H13S 1527   4.144   5.860   3.760 -1.0038 -0.6791  2.2097
   12SAPS  C214 1528   3.956   5.865   3.839 -0.4809 -0.3478  0.3182
   12SAPS  H14R 1529   3.866   5.905   3.790  2.2820  2.5241 -2.9525
   12SAPS  C215 1530   3.967   5.877   3.972  0.7637  0.5377 -0.5135
   12SAPS  H15R 1531   3.890   5.940   4.017 -0.0227  1.1935 -2.6345
   12SAPS  C216 1532   4.081   5.830   4.057 -0.3437 -0.8335 -0.8375
   12SAPS  H16R 1533   4.161   5.790   3.990  0.0124  0.7036 -1.3598
   12SAPS  H16S 1534   4.053   5.754   4.133  0.3626 -1.6884 -1.3964
   12SAPS  C217 1535   4.150   5.944   4.131 -0.0178 -0.2634  0.2091
   12SAPS  H17R 1536   4.079   5.991   4.202 -1.2558  2.2105 -2.4665
   12SAPS  H17S 1537   4.174   6.022   4.055 -2.5182 -1.4707 -2.0231
   12SAPS  C218 1538   4.278   5.896   4.203  0.7407  0.4924  0.3582
   12SAPS  H18R 1539   4.285   5.787   4.184 -1.7550  0.7284 -2.8509
   12SAPS  H18S 1540   4.267   5.913   4.312  0.1042 -0.7676  0.5115
   12SAPS  C219 1541   4.402   5.967   4.154  0.2480  0.8493  0.2742
   12SAPS  H19R 1542   4.372   6.074   4.147 -0.2450  0.6140 -3.2759
   12SAPS  H19S 1543   4.422   5.926   4.053  0.4825 -0.3519  0.7921
   12SAPS  C220 1544   4.514   5.969   4.259 -0.5013 -0.4584 -0.0005
   12SAPS  H20R 1545   4.602   6.001   4.200 -1.6348  0.2416 -1.3771
   12SAPS  H20S 1546   4.531   5.868   4.302 -0.2851 -0.3560  0.1598
   12SAPS  H20T 1547   4.491   6.038   4.344  3.0849 -0.1094  0.8475
   12SAPS   C33 1548   4.137   6.548   2.887 -0.1296  0.5670  0.8122
   12SAPS   H3X 1549   4.185   6.644   2.916  0.8718  0.3022  0.0775
   12SAPS   H3Y 1550   4.209   6.496   2.821 -1.5331 -0.1878 -0.1927
   12SAPS   C34 1551   4.082   6.469   2.997  0.0694  0.1143  0.5758
   12SAPS   H4X 1552   4.013   6.389   2.963  2.2842 -1.3614 -0.6829
   12SAPS   H4Y 1553   4.029   6.529   3.074  0.1146 -0.0915  0.7687
   12SAPS   C35 1554   4.186   6.394   3.080 -0.1411 -0.4232  0.7027
   12SAPS   H5X 1555   4.240   6.475   3.133 -2.7278  0.5534  2.0217
   12SAPS   H5Y 1556   4.249   6.338   3.007  0.6007 -1.0588  1.8006
   12SAPS   C36 1557   4.131   6.292   3.181  0.7617 -0.7717 -0.3536
   12SAPS   H6X 1558   4.061   6.224   3.127 -1.3340  1.4223 -0.5637
   12SAPS   H6Y 1559   4.062   6.339   3.254  2.6075  0.1741  0.8398
   12SAPS   C37 1560   4.236   6.221   3.251  0.3857  0.4406 -0.0502
   12SAPS   H7X 1561   4.283   6.283   3.331  2.1837  0.8157 -1.3134
   12SAPS   H7Y 1562   4.324   6.208   3.184  0.4476  2.4683 -0.4257
   12SAPS   C38 1563   4.188   6.085   3.320 -0.3345  0.0997 -0.8607
   12SAPS   H8X 1564   4.278   6.033   3.359 -0.4313 -1.5001 -2.6277
   12SAPS   H8Y 1565   4.148   6.028   3.233  0.5988 -0.3264 -1.0173
   12SAPS   C39 1566   4.070   6.101   3.427  0.2618 -0.0185 -0.4386
   12SAPS   H9X 1567   4.022   6.004   3.450 -0.1024  0.6028  1.6316
   12SAPS   H9Y 1568   4.020   6.182   3.371  3.8276  2.6613 -0.1206
   12SAPS  C310 1569   4.124   6.164   3.564 -0.2924  0.0705 -0.4838
   12SAPS  H10X 1570   4.192   6.247   3.537 -0.3936  0.5739  0.7612
   12SAPS  H10Y 1571   4.187   6.086   3.611  1.1928  1.7418  0.4065
   12SAPS  C311 1572   4.019   6.219   3.653 -0.6094  0.5593  0.1137
   12SAPS  H11X 1573   3.946   6.138   3.669  1.8505 -2.0112 -0.8397
   12SAPS  H11Y 1574   3.973   6.304   3.597  0.6702  0.3625 -1.2940
   12SAPS  C312 1575   4.083   6.282   3.777  0.4034 -0.3075  0.4726
   12SAPS  H12X 1576   4.157   6.361   3.749 -0.1421  0.0154 -0.0789
   12SAPS  H12Y 1577   4.129   6.200   3.836  1.0200  0.6420  1.3531
   12SAPS  C313 1578   3.985   6.345   3.870  1.3436  0.9811  0.2484
   12SAPS  H13X 1579   3.912   6.277   3.918 -0.0115  0.1412 -2.7402
   12SAPS  H13Y 1580   3.926   6.424   3.819 -0.4399  0.0796  0.8081
   12SAPS  C314 1581   4.045   6.435   3.982 -0.2821  0.1775  0.1054
   12SAPS  H14X 1582   3.960   6.491   4.026 -0.9485 -1.0993  0.4894
   12SAPS  H14Y 1583   4.117   6.514   3.950 -2.0200  2.3219  1.2420
   12SAPS  C315 1584   4.108   6.348   4.096 -0.0317  0.8989  0.4412
   12SAPS  H15X 1585   4.196   6.292   4.058 -0.6044  0.2157  0.1230
   12SAPS  H15Y 1586   4.026   6.276   4.113  0.5394 -0.3405 -1.7335
   12SAPS  C316 1587   4.161   6.428   4.216 -0.1224  0.4977  0.0993
   12SAPS  H16X 1588   4.081   6.476   4.278 -1.6435 -2.6441  0.7591
   12SAPS  H16Y 1589   4.219   6.513   4.173 -1.4248  0.7074 -1.3617
   12SAPS  C317 1590   4.256   6.342   4.303  0.8592 -0.5636 -0.1905
   12SAPS  H17X 1591   4.324   6.286   4.235 -0.4751 -0.0295 -2.0369
   12SAPS  H17Y 1592   4.195   6.267   4.358  0.9372  0.5481  1.5050
   12SAPS  C318 1593   4.348   6.425   4.404  0.1909 -0.3949 -0.5273
   12SAPS  H18X 1594   4.374   6.353   4.485 -1.8598 -2.4153 -1.5328
   12SAPS  H18Y 1595   4.300   6.515   4.447  1.0300  1.0631 -2.5234
   12SAPS  H18Z 1596   4.440   6.450   4.348 -1.2068 -0.4774 -3.0351
   13SAPS     N 1597   5.349   1.108   1.863  0.0566  0.0031  0.2380
   13SAPS   HN1 1598   5.398   1.181   1.808  0.5145  0.0686  0.7232
   13SAPS   HN2 1599   5.248   1.097   1.838  0.1922 -1.5265  0.2581
   13SAPS   HN3 1600   5.362   1.126   1.964 -0.4816  1.6342  0.0503
   13SAPS   C12 1601   5.436   0.996   1.832  0.4112  0.2875 -0.5469
   13SAPS  H12A 1602   5.379   0.906   1.843  1.5029 -0.5220 -1.3199
   13SAPS   C13 1603   5.493   0.988   1.690 -0.0450 -0.3043  0.0853
   13SAPS  O13A 1604   5.464   1.091   1.617  0.0733 -0.4865  0.0832
   13SAPS  O13B 1605   5.563   0.889   1.649  0.0435  0.1503  0.3432
   13SAPS   C11 1606   5.554   1.009   1.931  0.5381 -0.5305 -0.4227
   13SAPS  H11A 1607   5.611   1.104   1.919  0.2153 -0.2954 -0.1097
   13SAPS  H11B 1608   5.632   0.933   1.910  1.1887  0.4409 -1.6916
   13SAPS     P 1609   5.524   0.887   2.158  0.3923  0.0608  0.3878
   13SAPS   O13 1610   5.594   0.787   2.080 -0.5661 -0.3210  0.3507
   13SAPS   O14 1611   5.580   0.914   2.289  0.1542 -0.2542  0.1805
   13SAPS   O12 1612   5.504   1.015   2.067  0.2720  0.0082 -0.0594
   13SAPS   O11 1613   5.380   0.838   2.165  0.6086  0.0124 -0.0675
   13SAPS    C1 1614   5.258   0.919   2.161 -0.3102  0.4769 -0.2324
   13SAPS    HA 1615   5.269   1.020   2.115 -0.4603  1.0267  0.9082
   13SAPS    HB 1616   5.173   0.872   2.108 -0.7224  2.3533 -1.3256
   13SAPS    C2 1617   5.213   0.941   2.305  0.1196  0.9724 -0.7940
   13SAPS    HS 1618   5.301   0.988   2.355 -0.7090  1.0387  0.6762
   13SAPS   O21 1619   5.175   0.821   2.362  0.1471  0.0630 -0.2034
   13SAPS   C21 1620   5.219   0.782   2.477 -0.3516  0.1987  0.2628
   13SAPS   O22 1621   5.313   0.828   2.538 -0.6083 -0.2398  0.1712
   13SAPS   C22 1622   5.142   0.667   2.523  0.2168  0.8258  0.0662
   13SAPS   H2R 1623   5.112   0.604   2.437  0.2785 -1.7291  1.8282
   13SAPS   H2S 1624   5.212   0.603   2.580 -0.0144 -0.5826 -1.1826
   13SAPS    C3 1625   5.095   1.040   2.337  0.2218  0.0905 -0.1626
   13SAPS    HX 1626   5.005   0.991   2.292  0.8065 -0.9957 -0.1942
   13SAPS    HY 1627   5.111   1.129   2.274 -1.2884  1.8143  1.7600
   13SAPS   O31 1628   5.075   1.074   2.479 -0.6819  0.3144 -0.8260
   13SAPS   C31 1629   5.164   1.156   2.531  0.8405  0.6429  0.8348
   13SAPS   O32 1630   5.259   1.203   2.472 -0.0400  0.1327 -0.4323
   13SAPS   C32 1631   5.147   1.180   2.684  0.0638  0.0797  0.1190
   13SAPS   H2X 1632   5.235   1.152   2.745 -1.1273  0.5088  2.1015
   13SAPS   H2Y 1633   5.062   1.119   2.722  0.8855 -1.3856 -0.3386
   13SAPS   C23 1634   5.011   0.698   2.594 -1.3135 -0.9341 -0.0969
   13SAPS   H3R 1635   4.955   0.606   2.622 -0.4686 -1.8067 -1.1415
   13SAPS   H3S 1636   4.944   0.742   2.517 -1.0144 -0.3841 -0.0495
   13SAPS   C24 1637   5.030   0.809   2.706 -0.6982  0.2984 -0.2881
   13SAPS   H4R 1638   5.068   0.902   2.659 -2.0462  0.6367 -0.7338
   13SAPS   H4S 1639   5.113   0.766   2.768  0.2981  0.3729 -1.5230
   13SAPS   C25 1640   4.900   0.828   2.777 -0.0719 -0.2688  0.0656
   13SAPS   H5R 1641   4.819   0.814   2.705 -0.7166 -0.7524  0.8689
   13SAPS   C26 1642   4.873   0.871   2.897  0.2493 -0.5666 -0.0576
   13SAPS   H6R 1643   4.766   0.888   2.919  0.2195 -1.5094  0.6459
   13SAPS   C27 1644   4.964   0.910   3.004  0.2143  0.8989  0.3564
   13SAPS   H7R 1645   5.049   0.953   2.947  0.8674 -1.6488 -0.7225
   13SAPS   H7S 1646   5.007   0.812   3.037 -1.6721 -0.4370 -0.9494
   13SAPS   C28 1647   4.931   0.991   3.124 -0.5384 -0.4055  0.4836
   13SAPS   H8R 1648   4.961   1.097   3.122  0.2246 -0.6293 -0.4909
   13SAPS   C29 1649   4.863   0.943   3.234 -0.0079 -0.5156  0.0156
   13SAPS   H9R 1650   4.829   1.014   3.310 -0.1558 -1.5362  0.9202
   13SAPS  C210 1651   4.805   0.804   3.247 -0.0868 -0.0382 -0.4867
   13SAPS  H10R 1652   4.874   0.729   3.291  1.4222  2.5485  1.8969
   13SAPS  H10S 1653   4.795   0.760   3.146 -0.4272  0.2402 -0.5766
   13SAPS  C211 1654   4.673   0.793   3.318 -0.1376  0.0552 -0.5428
   13SAPS  H11R 1655   4.589   0.758   3.257  0.0348 -0.7122 -0.3532
   13SAPS  C212 1656   4.650   0.819   3.449  0.1392 -0.3748 -0.0820
   13SAPS  H12R 1657   4.549   0.798   3.489 -0.9291  2.5042 -0.9671
   13SAPS  C213 1658   4.745   0.859   3.555 -0.4513  0.5923 -0.4951
   13SAPS  H13R 1659   4.692   0.898   3.645  0.0320  0.0202  0.0411
   13SAPS  H13S 1660   4.792   0.955   3.522  0.8499 -0.5045 -1.9515
   13SAPS  C214 1661   4.846   0.752   3.591 -0.6277  0.0768 -0.1880
   13SAPS  H14R 1662   4.923   0.742   3.513 -0.8382 -0.9801 -0.2772
   13SAPS  C215 1663   4.840   0.657   3.684 -0.1909  0.0375 -0.2095
   13SAPS  H15R 1664   4.925   0.589   3.700 -1.7343 -1.6762  0.9606
   13SAPS  C216 1665   4.731   0.632   3.783 -0.1503 -0.3933  0.2624
   13SAPS  H16R 1666   4.704   0.525   3.770 -1.1082  0.0652 -1.9730
   13SAPS  H16S 1667   4.646   0.702   3.768  1.5556  1.5765 -0.6573
   13SAPS  C217 1668   4.794   0.637   3.920  0.9199  0.0535  0.4656
   13SAPS  H17R 1669   4.859   0.727   3.929 -3.0405  3.0497  2.2210
   13SAPS  H17S 1670   4.838   0.538   3.943 -0.7735 -1.1578 -1.1721
   13SAPS  C218 1671   4.681   0.656   4.026  0.4029  0.1995  0.6991
   13SAPS  H18R 1672   4.621   0.739   3.983  2.3832  0.8596 -0.9487
   13SAPS  H18S 1673   4.725   0.694   4.120  0.7086 -0.9125  1.0166
   13SAPS  C219 1674   4.604   0.534   4.065  0.2636 -0.4881 -0.0320
   13SAPS  H19R 1675   4.663   0.449   4.108  0.7991 -0.8559 -1.4363
   13SAPS  H19S 1676   4.580   0.474   3.975  0.3527 -0.6925  0.0784
   13SAPS  C220 1677   4.480   0.555   4.152 -0.1287 -0.3461 -0.1693
   13SAPS  H20R 1678   4.435   0.456   4.177  1.4842 -0.8879  0.7383
   13SAPS  H20S 1679   4.405   0.611   4.093  0.2020 -1.6723 -1.9056
   13SAPS  H20T 1680   4.494   0.610   4.248 -0.2756 -0.7125  0.0663
   13SAPS   C33 1681   5.111   1.330   2.709  0.4723  0.6397  0.2737
   13SAPS   H3X 1682   5.040   1.374   2.636 -2.4760  0.0721  2.5743
   13SAPS   H3Y 1683   5.208   1.380   2.691  1.8863 -1.5832  1.1758
   13SAPS   C34 1684   5.056   1.353   2.851 -0.0671 -0.2398 -0.0204
   13SAPS   H4X 1685   4.963   1.294   2.865  1.0327 -2.1941 -0.4657
   13SAPS   H4Y 1686   5.040   1.463   2.853  2.1304  0.1491 -0.6243
   13SAPS   C35 1687   5.145   1.316   2.967  0.0864  0.4168 -0.3964
   13SAPS   H5X 1688   5.234   1.381   2.957  0.9665 -0.4963  1.1902
   13SAPS   H5Y 1689   5.176   1.209   2.969 -0.0996  0.3751  0.5076
   13SAPS   C36 1690   5.087   1.350   3.104  0.4557 -0.0368  0.4517
   13SAPS   H6X 1691   4.984   1.308   3.107  0.5210 -0.6001 -2.2787
   13SAPS   H6Y 1692   5.074   1.460   3.116  0.0343 -0.1096  0.6846
   13SAPS   C37 1693   5.162   1.284   3.219 -0.3035  0.2754  0.1276
   13SAPS   H7X 1694   5.258   1.341   3.227 -0.0853  0.7355 -3.9281
   13SAPS   H7Y 1695   5.172   1.174   3.200  0.5339  0.3731 -0.0533
   13SAPS   C38 1696   5.092   1.304   3.353  0.3195  0.6012  0.2505
   13SAPS   H8X 1697   5.003   1.239   3.350  0.0747  0.8824  1.1553
   13SAPS   H8Y 1698   5.067   1.411   3.372 -1.0272  0.1429  1.1734
   13SAPS   C39 1699   5.188   1.256   3.462 -0.0266 -0.3797 -0.9671
   13SAPS   H9X 1700   5.282   1.315   3.458  0.4766 -1.2114 -1.7006
   13SAPS   H9Y 1701   5.208   1.147   3.455 -2.9887 -1.0899 -0.1639
   13SAPS  C310 1702   5.122   1.278   3.603 -0.2210 -0.8439 -0.4232
   13SAPS  H10X 1703   5.028   1.219   3.614 -0.0985 -0.6382  2.6931
   13SAPS  H10Y 1704   5.078   1.380   3.601  0.0574 -0.6327  1.6377
   13SAPS  C311 1705   5.214   1.248   3.723 -0.0214 -0.7201 -0.4902
   13SAPS  H11X 1706   5.316   1.292   3.719  0.1942 -1.2300 -0.7384
   13SAPS  H11Y 1707   5.234   1.140   3.712  0.2596 -0.6912 -0.2543
   13SAPS  C312 1708   5.149   1.280   3.860 -0.1456  0.1739 -0.4325
   13SAPS  H12X 1709   5.053   1.224   3.854  0.4809 -1.0043  0.1645
   13SAPS  H12Y 1710   5.142   1.391   3.864  4.6503  0.7004 -0.7116
   13SAPS  C313 1711   5.235   1.243   3.981 -0.1490  0.4878  0.6679
   13SAPS  H13X 1712   5.333   1.293   3.969 -0.3624  0.7802  0.1192
   13SAPS  H13Y 1713   5.259   1.135   3.966  0.7648  0.8868 -0.9839
   13SAPS  C314 1714   5.173   1.278   4.108  0.4044 -0.8417  0.5032
   13SAPS  H14X 1715   5.064   1.253   4.114 -0.1441  1.3985  0.6227
   13SAPS  H14Y 1716   5.170   1.389   4.104  1.3958 -0.7855  1.1390
   13SAPS  C315 1717   5.259   1.229   4.222  0.6086 -0.1928 -0.5037
   13SAPS  H15X 1718   5.362   1.271   4.231  1.0666 -1.3365 -0.2637
   13SAPS  H15Y 1719   5.270   1.119   4.214 -0.9358 -0.3134 -1.3142
   13SAPS  C316 1720   5.195   1.259   4.364 -0.6338 -0.0969 -0.2490
   13SAPS  H16X 1721   5.119   1.181   4.385 -1.8508  1.3874  1.1401
   13SAPS  H16Y 1722   5.137   1.354   4.355  0.9538  0.9141 -0.1837
   13SAPS  C317 1723   5.292   1.261   4.483 -0.2271 -0.5095 -0.2613
   13SAPS  H17X 1724   5.373   1.187   4.465 -1.7208 -2.4905  0.6524
   13SAPS  H17Y 1725   5.237   1.226   4.574  1.0718 -0.8940  0.4028
   13SAPS  C318 1726   5.342   1.398   4.514 -0.0045 -0.6742 -0.1232
   13SAPS  H18X 1727   5.253   1.464   4.518 -0.0662 -0.7500  3.9812
   13SAPS  H18Y 1728   5.405   1.432   4.428 -0.5454  2.6708  0.6535
   13SAPS  H18Z 1729   5.404   1.403   4.606  0.6003 -2.6759 -0.3715
   14SAPS     N 1730   5.117   2.996   2.150  0.0852  0.3501 -0.3310
   14SAPS   HN1 1731   5.193   2.964   2.213  0.7506 -0.9028 -1.6977
   14SAPS   HN2 1732   5.162   3.033   2.063 -1.2966 -1.3943 -1.8509
   14SAPS   HN3 1733   5.069   3.072   2.203 -1.1218 -0.7020  0.1269
   14SAPS   C12 1734   5.014   2.895   2.123  0.6217 -0.1830 -0.0952
   14SAPS  H12A 1735   4.960   2.882   2.215  2.5238  1.2671  1.3134
   14SAPS   C13 1736   4.925   2.947   2.012  0.2871  0.6266  0.2758
   14SAPS  O13A 1737   4.945   3.067   1.962  0.6085  0.2607 -0.1394
   14SAPS  O13B 1738   4.830   2.874   1.971 -0.1976 -0.4848  0.3332
   14SAPS   C11 1739   5.083   2.757   2.084 -0.7458  0.1847  0.1324
   14SAPS  H11A 1740   5.136   2.762   1.987  0.5488 -0.7809  0.7641
   14SAPS  H11B 1741   4.994   2.691   2.088 -1.1753  0.7876  2.5788
   14SAPS     P 1742   5.226   2.568   2.190 -0.4253 -0.0665  0.1143
   14SAPS   O13 1743   5.107   2.485   2.198  0.1704  0.2957  0.0643
   14SAPS   O14 1744   5.306   2.552   2.068 -0.0886 -0.0388  0.2795
   14SAPS   O12 1745   5.174   2.718   2.184 -0.2881 -0.0230 -0.1800
   14SAPS   O11 1746   5.320   2.560   2.319 -0.0222 -0.0202 -0.2462
   14SAPS    C1 1747   5.404   2.678   2.360 -0.9650  0.6558  0.8554
   14SAPS    HA 1748   5.509   2.643   2.349 -1.0289  0.6530  0.1875
   14SAPS    HB 1749   5.395   2.762   2.288 -1.0980  2.2304  2.6558
   14SAPS    C2 1750   5.376   2.725   2.499 -0.1812 -0.4211  0.7006
   14SAPS    HS 1751   5.432   2.820   2.511  0.7053 -0.9885  1.1297
   14SAPS   O21 1752   5.402   2.637   2.610  0.0015 -0.7705  0.4108
   14SAPS   C21 1753   5.532   2.617   2.635  0.0300 -0.6899 -0.5057
   14SAPS   O22 1754   5.627   2.657   2.572  0.4309 -0.1394  0.3898
   14SAPS   C22 1755   5.542   2.534   2.769 -0.2059  0.0464  0.2587
   14SAPS   H2R 1756   5.501   2.607   2.842 -1.9301  1.4431 -1.9742
   14SAPS   H2S 1757   5.481   2.441   2.757  0.5283 -0.6475  1.6013
   14SAPS    C3 1758   5.222   2.763   2.503  0.0941 -0.1405 -1.1441
   14SAPS    HX 1759   5.163   2.671   2.485 -2.2060  1.0019  0.1154
   14SAPS    HY 1760   5.197   2.827   2.416 -0.5415  1.6262  0.2677
   14SAPS   O31 1761   5.183   2.818   2.631  0.5704 -0.6263 -0.3335
   14SAPS   C31 1762   5.206   2.940   2.659 -0.6371  0.4181 -0.0531
   14SAPS   O32 1763   5.286   3.011   2.599 -0.8478  0.3818  0.2181
   14SAPS   C32 1764   5.113   2.977   2.769  0.1196  0.2519  0.4235
   14SAPS   H2X 1765   5.016   2.974   2.714  1.5687 -1.5614 -2.2668
   14SAPS   H2Y 1766   5.137   3.075   2.814 -2.2248  1.3953 -0.6359
   14SAPS   C23 1767   5.688   2.493   2.800  0.2945 -0.1828 -0.0152
   14SAPS   H3R 1768   5.733   2.590   2.832  1.2403 -0.8651  0.7899
   14SAPS   H3S 1769   5.732   2.450   2.708  0.9295 -2.0017  1.0807
   14SAPS   C24 1770   5.695   2.398   2.923 -0.2470 -0.1317  0.4080
   14SAPS   H4R 1771   5.632   2.440   3.004 -2.0887 -0.0891 -0.9553
   14SAPS   H4S 1772   5.804   2.390   2.943  0.1837 -0.4734 -1.8180
   14SAPS   C25 1773   5.634   2.257   2.897 -0.2623  1.1964 -0.4063
   14SAPS   H5R 1774   5.601   2.236   2.794 -3.1754  1.2250  0.4436
   14SAPS   C26 1775   5.610   2.155   2.988 -0.2300 -0.7154  0.9255
   14SAPS   H6R 1776   5.559   2.067   2.946 -0.1733 -1.9514  3.2380
   14SAPS   C27 1777   5.671   2.149   3.121 -0.1522 -0.1587  1.1828
   14SAPS   H7R 1778   5.704   2.251   3.150 -2.8212  1.3482 -0.6724
   14SAPS   H7S 1779   5.770   2.101   3.110  1.0615  2.2348  0.9223
   14SAPS   C28 1780   5.594   2.075   3.223  0.4094 -0.5530 -0.2545
   14SAPS   H8R 1781   5.502   2.025   3.190  0.1621  0.0894 -0.5373
   14SAPS   C29 1782   5.609   2.080   3.357 -0.1701  0.5357 -0.2056
   14SAPS   H9R 1783   5.539   2.030   3.425  1.2631 -1.1998  0.0505
   14SAPS  C210 1784   5.730   2.152   3.417  0.0108  0.6391  0.0430
   14SAPS  H10R 1785   5.685   2.207   3.503  3.6002  1.1257  1.8047
   14SAPS  H10S 1786   5.778   2.227   3.350 -1.2104  1.1114 -0.3332
   14SAPS  C211 1787   5.844   2.062   3.457 -0.3951  0.1311 -0.4439
   14SAPS  H11R 1788   5.883   2.005   3.371  0.7676 -0.1757  0.2713
   14SAPS  C212 1789   5.895   2.043   3.582 -0.0448  0.6368 -0.6140
   14SAPS  H12R 1790   5.983   1.978   3.593 -0.9843 -0.5299  0.2772
   14SAPS  C213 1791   5.863   2.119   3.707  0.0021  0.4230  0.0157
   14SAPS  H13R 1792   5.836   2.219   3.668 -0.1165 -0.2130 -1.6253
   14SAPS  H13S 1793   5.957   2.136   3.764 -0.3431 -0.9442  1.0353
   14SAPS  C214 1794   5.756   2.058   3.792 -0.0770 -0.4526  0.0988
   14SAPS  H14R 1795   5.658   2.066   3.742  0.1642 -0.3707 -0.3700
   14SAPS  C215 1796   5.765   1.989   3.909 -0.2721 -0.5606  0.1285
   14SAPS  H15R 1797   5.672   1.949   3.950 -0.1698  0.1457  1.0916
   14SAPS  C216 1798   5.889   1.970   3.994  0.6107 -1.0500  0.5458
   14SAPS  H16R 1799   5.980   1.993   3.934 -1.2257 -0.3392 -2.1592
   14SAPS  H16S 1800   5.888   1.869   4.038 -0.1922 -2.1110 -1.7485
   14SAPS  C217 1801   5.890   2.075   4.103 -0.0746  0.1567  0.7717
   14SAPS  H17R 1802   5.923   2.177   4.075  0.9062 -0.7809 -1.7508
   14SAPS  H17S 1803   5.979   2.051   4.165  0.0647 -1.0601  0.1363
   14SAPS  C218 1804   5.770   2.070   4.191  0.9691 -0.1253 -0.4087
   14SAPS  H18R 1805   5.728   1.967   4.195  0.1159  0.1894 -0.9411
   14SAPS  H18S 1806   5.685   2.129   4.149  0.5643 -1.8803 -2.2404
   14SAPS  C219 1807   5.790   2.103   4.341  0.1488  0.2821 -0.4024
   14SAPS  H19R 1808   5.889   2.069   4.378  1.2648  1.9748 -1.6823
   14SAPS  H19S 1809   5.709   2.064   4.406 -0.2827 -1.0750 -1.7062
   14SAPS  C220 1810   5.787   2.250   4.371  0.5630 -0.5910 -0.0029
   14SAPS  H20R 1811   5.690   2.290   4.335  1.3278  0.9035 -0.4599
   14SAPS  H20S 1812   5.858   2.317   4.317  0.6926 -1.0610 -0.4236
   14SAPS  H20T 1813   5.798   2.269   4.480 -0.8951 -0.8864  0.2205
   14SAPS   C33 1814   5.088   2.874   2.877 -0.0215 -0.1319  0.2007
   14SAPS   H3X 1815   5.179   2.817   2.905  0.5327  0.1061 -1.0966
   14SAPS   H3Y 1816   5.002   2.812   2.843 -0.7295  2.4875 -3.2956
   14SAPS   C34 1817   5.045   2.941   3.007 -0.2315 -0.4137  0.1310
   14SAPS   H4X 1818   4.945   2.988   3.002  0.2018  0.7429  1.5124
   14SAPS   H4Y 1819   5.109   3.019   3.055 -0.7581  1.1145 -1.5329
   14SAPS   C35 1820   5.027   2.837   3.120  0.7649  0.3143  0.6112
   14SAPS   H5X 1821   5.118   2.775   3.110  1.7387  1.3661  2.4633
   14SAPS   H5Y 1822   4.946   2.761   3.114  2.0625 -1.1467  1.1445
   14SAPS   C36 1823   5.018   2.895   3.266 -0.5771  0.5120 -0.1909
   14SAPS   H6X 1824   4.925   2.948   3.295 -0.9427 -1.3169  2.3340
   14SAPS   H6Y 1825   5.112   2.953   3.274  1.7953 -3.2024  1.8635
   14SAPS   C37 1826   5.040   2.792   3.379  0.0212 -0.5729 -0.7576
   14SAPS   H7X 1827   5.124   2.722   3.360  0.6177  0.2719 -1.2594
   14SAPS   H7Y 1828   4.948   2.730   3.387 -1.4079  1.1670 -2.6521
   14SAPS   C38 1829   5.083   2.864   3.506  0.7328 -0.4598 -0.1405
   14SAPS   H8X 1830   5.008   2.931   3.554  1.3560 -0.3166  0.6532
   14SAPS   H8Y 1831   5.164   2.935   3.478 -0.7087  1.2636 -0.1477
   14SAPS   C39 1832   5.143   2.768   3.617  0.5243 -0.3752  0.5601
   14SAPS   H9X 1833   5.216   2.698   3.571  0.6103  0.5444 -0.7501
   14SAPS   H9Y 1834   5.064   2.705   3.662 -1.4202  0.3912 -1.6051
   14SAPS  C310 1835   5.200   2.820   3.746  0.1402  0.4400 -0.5076
   14SAPS  H10X 1836   5.163   2.922   3.768 -1.6750 -0.4255  0.7828
   14SAPS  H10Y 1837   5.310   2.818   3.733 -0.1281 -1.4880 -3.2087
   14SAPS  C311 1838   5.173   2.737   3.871  0.2826  0.7324 -0.7335
   14SAPS  H11X 1839   5.220   2.637   3.861  0.6370  0.4713  2.3684
   14SAPS  H11Y 1840   5.065   2.713   3.876  0.4714 -0.0026  2.6829
   14SAPS  C312 1841   5.212   2.804   4.003  0.7350  0.0953 -0.1239
   14SAPS  H12X 1842   5.169   2.744   4.087  0.4390  2.0243  1.1709
   14SAPS  H12Y 1843   5.168   2.905   4.010 -0.4779 -0.4656  0.9300
   14SAPS  C313 1844   5.363   2.800   4.023 -0.3580 -0.0340  0.2867
   14SAPS  H13X 1845   5.402   2.861   3.939 -2.3670 -0.3825 -0.9735
   14SAPS  H13Y 1846   5.408   2.699   4.006 -0.5024  0.3960 -3.6823
   14SAPS  C314 1847   5.414   2.852   4.155  0.5521 -0.7847 -0.5993
   14SAPS  H14X 1848   5.523   2.873   4.150  0.3035  1.5448  1.6374
   14SAPS  H14Y 1849   5.394   2.771   4.228  2.3681  0.1555  1.0318
   14SAPS  C315 1850   5.347   2.980   4.205  0.7090 -0.1887  0.2383
   14SAPS  H15X 1851   5.407   3.005   4.296  1.6312 -4.7128  1.1053
   14SAPS  H15Y 1852   5.244   2.947   4.233  0.5106 -0.4968 -0.8281
   14SAPS  C316 1853   5.345   3.092   4.108  0.2302 -0.0682  0.0854
   14SAPS  H16X 1854   5.312   3.062   4.006 -0.2583 -0.3803  0.3353
   14SAPS  H16Y 1855   5.442   3.146   4.095 -0.6128  1.6088  0.4892
   14SAPS  C317 1856   5.240   3.192   4.146 -0.9978  0.2957  0.0294
   14SAPS  H17X 1857   5.147   3.142   4.112 -0.3768 -0.5846 -0.4095
   14SAPS  H17Y 1858   5.256   3.283   4.083 -0.5906 -0.1509 -0.5233
   14SAPS  C318 1859   5.212   3.226   4.293  0.6117 -0.2581 -0.6482
   14SAPS  H18X 1860   5.185   3.138   4.355  0.2792 -0.0286 -0.4692
   14SAPS  H18Y 1861   5.126   3.296   4.295 -0.4626 -1.5309 -1.2755
   14SAPS  H18Z 1862   5.295   3.273   4.350 -0.5483 -0.6306  1.4472
   15SAPS     N 1863   4.953   6.755   2.068  0.6042  0.3703 -0.3837
   15SAPS   HN1 1864   4.935   6.825   2.143 -0.0155  0.4226 -0.5777
   15SAPS   HN2 1865   5.017   6.679   2.098  0.2427 -0.8773 -2.5499
   15SAPS   HN3 1866   4.998   6.801   1.986  0.7784  1.3220  0.2346
   15SAPS   C12 1867   4.826   6.700   2.011 -0.7366 -0.5201  0.2679
   15SAPS  H12A 1868   4.761   6.783   1.991 -0.4488  0.3181  2.5440
   15SAPS   C13 1869   4.845   6.623   1.876  0.5504 -0.7360 -0.1699
   15SAPS  O13A 1870   4.962   6.616   1.832  0.0610 -0.5267  0.0951
   15SAPS  O13B 1871   4.749   6.564   1.828  0.0589  0.2983 -1.2453
   15SAPS   C11 1872   4.768   6.604   2.124  0.4841  0.1782  0.2972
   15SAPS  H11A 1873   4.847   6.532   2.154  0.4740  0.0726  0.0707
   15SAPS  H11B 1874   4.681   6.546   2.084 -0.4638  0.9072  1.2477
   15SAPS     P 1875   4.582   6.729   2.256 -0.3280 -0.4164  0.0113
   15SAPS   O13 1876   4.562   6.830   2.156 -1.1458 -0.0616  0.1957
   15SAPS   O14 1877   4.494   6.615   2.257  0.0563 -0.0738 -0.3901
   15SAPS   O12 1878   4.727   6.680   2.234 -0.2011 -0.4242 -0.3692
   15SAPS   O11 1879   4.575   6.799   2.396  0.8136  0.4947  0.3014
   15SAPS    C1 1880   4.688   6.832   2.466 -0.4494  0.1819  0.0410
   15SAPS    HA 1881   4.733   6.743   2.514 -0.7405 -0.6427 -1.1681
   15SAPS    HB 1882   4.764   6.878   2.399 -0.4771 -0.3050 -0.3344
   15SAPS    C2 1883   4.648   6.931   2.573 -0.1098  0.5577 -1.0313
   15SAPS    HS 1884   4.743   6.949   2.627 -1.1663  1.5047  0.5845
   15SAPS   O21 1885   4.540   6.886   2.661  0.0500 -0.5563  0.5200
   15SAPS   C21 1886   4.577   6.786   2.732 -0.1519  0.8958  0.0866
   15SAPS   O22 1887   4.691   6.744   2.738 -0.2671  0.3161 -0.3438
   15SAPS   C22 1888   4.459   6.728   2.807  0.5889  0.1899  0.0083
   15SAPS   H2R 1889   4.374   6.798   2.795  3.2736  4.1643  1.8324
   15SAPS   H2S 1890   4.439   6.623   2.777 -2.2806  1.0090 -1.2819
   15SAPS    C3 1891   4.616   7.071   2.523  0.5973  0.2223  0.3621
   15SAPS    HX 1892   4.532   7.053   2.453  1.6746  2.3122 -1.5782
   15SAPS    HY 1893   4.682   7.128   2.455 -0.6805  2.1301  0.6325
   15SAPS   O31 1894   4.553   7.166   2.613 -0.3512 -0.4107  0.3419
   15SAPS   C31 1895   4.647   7.222   2.692  0.5283 -0.0955  0.3027
   15SAPS   O32 1896   4.770   7.191   2.682 -0.6166 -1.2439  0.4344
   15SAPS   C32 1897   4.582   7.330   2.774  0.1426 -0.6163 -0.1849
   15SAPS   H2X 1898   4.479   7.297   2.799  0.0188  1.1297  1.9910
   15SAPS   H2Y 1899   4.584   7.425   2.716 -0.6850 -1.4069 -1.5610
   15SAPS   C23 1900   4.507   6.734   2.950  0.6628  0.7428 -0.0798
   15SAPS   H3R 1901   4.601   6.676   2.959  1.5339  1.3138 -3.7245
   15SAPS   H3S 1902   4.435   6.684   3.019  1.6830  0.9004  1.1137
   15SAPS   C24 1903   4.531   6.880   3.008  0.6727 -0.6205  0.3465
   15SAPS   H4R 1904   4.600   6.938   2.942  1.2451 -2.0834 -0.3773
   15SAPS   H4S 1905   4.582   6.868   3.106 -0.0881  1.4571  1.0591
   15SAPS   C25 1906   4.395   6.953   3.015 -0.1149 -0.4529 -0.2061
   15SAPS   H5R 1907   4.375   7.021   2.931  1.3011  0.7979  0.4174
   15SAPS   C26 1908   4.311   6.948   3.125 -0.0331 -0.4420 -0.3466
   15SAPS   H6R 1909   4.217   7.003   3.115 -1.7327 -2.7921  1.5348
   15SAPS   C27 1910   4.324   6.868   3.252 -0.1131  0.7938  0.1573
   15SAPS   H7R 1911   4.273   6.921   3.335 -1.2614  1.7285 -1.1123
   15SAPS   H7S 1912   4.431   6.850   3.278  0.5752  1.6409 -1.9109
   15SAPS   C28 1913   4.246   6.739   3.225  1.3073 -0.3801 -0.1938
   15SAPS   H8R 1914   4.239   6.692   3.126 -0.5925 -0.0467 -0.2456
   15SAPS   C29 1915   4.158   6.684   3.320 -0.3183 -0.0847  0.2140
   15SAPS   H9R 1916   4.114   6.587   3.290  1.1781 -1.2872  1.6976
   15SAPS  C210 1917   4.129   6.714   3.464  0.2268  0.5353  0.6890
   15SAPS  H10R 1918   4.019   6.725   3.468  0.3934  3.2866 -0.0755
   15SAPS  H10S 1919   4.160   6.818   3.488 -0.3882  0.9883 -0.3936
   15SAPS  C211 1920   4.162   6.621   3.573 -0.0901  0.3154 -0.4815
   15SAPS  H11R 1921   4.129   6.518   3.550  1.8171 -0.2948 -0.6430
   15SAPS  C212 1922   4.232   6.648   3.685 -0.0408 -0.1471 -0.8451
   15SAPS  H12R 1923   4.240   6.565   3.756  1.7840  0.0794 -0.7509
   15SAPS  C213 1924   4.293   6.773   3.740  0.6854 -0.0012 -0.3426
   15SAPS  H13R 1925   4.299   6.765   3.851  2.3329 -0.1917 -0.4212
   15SAPS  H13S 1926   4.222   6.853   3.712  1.3684  0.5470 -0.5344
   15SAPS  C214 1927   4.429   6.791   3.677  0.6935 -0.4836 -0.0607
   15SAPS  H14R 1928   4.424   6.800   3.567 -0.8041  0.3462  0.0610
   15SAPS  C215 1929   4.549   6.811   3.740 -0.0288 -0.4177  0.5059
   15SAPS  H15R 1930   4.637   6.810   3.674  1.1566  1.3527  1.9573
   15SAPS  C216 1931   4.560   6.783   3.883 -0.2136 -0.0931 -0.3436
   15SAPS  H16R 1932   4.622   6.694   3.903 -0.7850 -0.4111  0.0435
   15SAPS  H16S 1933   4.463   6.784   3.938 -1.0957 -1.4508 -1.7829
   15SAPS  C217 1934   4.616   6.911   3.957  0.1622 -0.0737  0.2198
   15SAPS  H17R 1935   4.555   6.995   3.918 -1.0650 -1.1858 -0.2917
   15SAPS  H17S 1936   4.721   6.929   3.925  0.3880 -2.1176 -0.2865
   15SAPS  C218 1937   4.603   6.897   4.108 -0.0651  0.4964  0.0152
   15SAPS  H18R 1938   4.498   6.867   4.129  0.0083 -0.4313 -0.8632
   15SAPS  H18S 1939   4.629   6.994   4.154  0.6786  0.4725 -0.3335
   15SAPS  C219 1940   4.701   6.782   4.151 -0.1213 -0.3787 -0.2044
   15SAPS  H19R 1941   4.805   6.808   4.121  0.0231 -2.4148 -1.6580
   15SAPS  H19S 1942   4.677   6.682   4.109 -1.2662  0.7119 -2.2801
   15SAPS  C220 1943   4.697   6.759   4.303 -0.1771  0.6070  0.3650
   15SAPS  H20R 1944   4.742   6.663   4.338 -1.5563 -0.6655 -1.1824
   15SAPS  H20S 1945   4.590   6.750   4.332 -0.6810  0.7274 -1.3572
   15SAPS  H20T 1946   4.753   6.833   4.364  2.6333 -1.2388  0.2335
   15SAPS   C33 1947   4.656   7.351   2.910 -0.1737 -0.0664 -0.5469
   15SAPS   H3X 1948   4.611   7.430   2.973  2.6040 -1.3972  3.5447
   15SAPS   H3Y 1949   4.763   7.376   2.891  0.2485  0.2352  1.9206
   15SAPS   C34 1950   4.648   7.231   3.001 -0.5494  0.1160 -0.0115
   15SAPS   H4X 1951   4.727   7.156   2.981  0.3050  0.7458  0.8966
   15SAPS   H4Y 1952   4.555   7.171   2.985 -1.0104  0.4246  1.3887
   15SAPS   C35 1953   4.653   7.271   3.147  0.1437 -0.2557  0.2341
   15SAPS   H5X 1954   4.582   7.351   3.176  1.3852  0.8639  0.2787
   15SAPS   H5Y 1955   4.758   7.307   3.159 -0.1745  0.7481  0.0947
   15SAPS   C36 1956   4.628   7.153   3.250  0.4359  0.4939  0.5107
   15SAPS   H6X 1957   4.711   7.081   3.235  0.3526  0.3398  0.7823
   15SAPS   H6Y 1958   4.532   7.105   3.220  0.8337  0.0485 -0.0758
   15SAPS   C37 1959   4.607   7.192   3.395  0.4209 -0.0479  0.2141
   15SAPS   H7X 1960   4.579   7.300   3.391 -0.8845 -0.3701  0.2510
   15SAPS   H7Y 1961   4.709   7.181   3.437 -0.3017 -4.6877  1.2852
   15SAPS   C38 1962   4.525   7.092   3.480  0.7466  0.2170  0.3787
   15SAPS   H8X 1963   4.577   6.995   3.491 -1.7282 -1.5233 -2.0820
   15SAPS   H8Y 1964   4.431   7.075   3.424  0.3164 -2.1457  1.6890
   15SAPS   C39 1965   4.491   7.144   3.616  0.1123 -0.5734 -0.9272
   15SAPS   H9X 1966   4.584   7.178   3.667 -0.6843  0.6182 -0.1781
   15SAPS   H9Y 1967   4.447   7.058   3.671 -0.7540  1.0644  1.1166
   15SAPS  C310 1968   4.391   7.263   3.631  0.3622 -0.0331 -0.4602
   15SAPS  H10X 1969   4.307   7.251   3.559 -1.4083  0.8594  1.3724
   15SAPS  H10Y 1970   4.448   7.357   3.613  1.6575 -0.0392  2.8736
   15SAPS  C311 1971   4.327   7.278   3.768  0.6468 -0.2425  0.4969
   15SAPS  H11X 1972   4.271   7.371   3.792 -0.6514 -1.7558  3.9872
   15SAPS  H11Y 1973   4.406   7.270   3.846  1.6143 -0.3572 -0.4750
   15SAPS  C312 1974   4.232   7.152   3.793 -0.8378 -0.3309  0.3239
   15SAPS  H12X 1975   4.276   7.057   3.756 -1.7938 -1.0205  0.8928
   15SAPS  H12Y 1976   4.131   7.168   3.749 -0.1282 -0.7861 -1.5477
   15SAPS  C313 1977   4.225   7.123   3.946 -0.8545  0.2320  0.7812
   15SAPS  H13X 1978   4.198   7.214   4.002 -1.1828  0.2160  0.6510
   15SAPS  H13Y 1979   4.326   7.086   3.974 -1.1509 -0.7980  0.5372
   15SAPS  C314 1980   4.115   7.018   3.965 -0.3359 -0.4805 -0.9304
   15SAPS  H14X 1981   4.152   6.935   3.902  1.2353  0.3477 -1.1475
   15SAPS  H14Y 1982   4.024   7.070   3.927 -0.7627  0.6500  1.4179
   15SAPS  C315 1983   4.090   6.992   4.111  0.2248  0.2863  0.2097
   15SAPS  H15X 1984   4.010   6.915   4.120  0.5218  0.0356  0.7434
   15SAPS  H15Y 1985   4.058   7.080   4.170  1.3041  0.6053  0.3217
   15SAPS  C316 1986   4.207   6.930   4.186 -0.4066  0.2257 -0.8811
   15SAPS  H16X 1987   4.274   7.018   4.201  0.5289 -0.6749  0.4022
   15SAPS  H16Y 1988   4.260   6.855   4.123  6.3920  3.0751  0.4924
   15SAPS  C317 1989   4.171   6.871   4.325 -0.3203 -0.3060  0.5583
   15SAPS  H17X 1990   4.097   6.791   4.303 -0.6629 -0.1656  1.1817
   15SAPS  H17Y 1991   4.112   6.954   4.370 -1.5765  0.3530 -2.0933
   15SAPS  C318 1992   4.288   6.813   4.399 -0.4335 -0.0155  0.6562
   15SAPS  H18X 1993   4.262   6.788   4.504  3.6518  1.7381  2.2817
   15SAPS  H18Y 1994   4.374   6.883   4.400  0.7728 -1.4622  1.0362
   15SAPS  H18Z 1995   4.324   6.725   4.342 -0.0253  0.3998  0.2706
   16SAPS     N 1996   5.060   4.065   1.935 -1.0060 -0.1183  0.0872
   16SAPS   HN1 1997   5.147   4.109   1.897 -1.2911 -0.5618 -1.0962
   16SAPS   HN2 1998   5.066   3.962   1.927 -0.5512 -0.0542 -0.4945
   16SAPS   HN3 1999   4.988   4.103   1.871  1.5022  3.2584 -1.0859
   16SAPS   C12 2000   5.030   4.120   2.069 -0.3543 -0.2060  0.8215
   16SAPS  H12A 2001   5.122   4.105   2.124  0.3014  1.0928  0.1220
   16SAPS   C13 2002   5.004   4.273   2.058 -0.9487  0.2440  0.3445
   16SAPS  O13A 2003   5.030   4.339   1.953  0.3725  0.0505 -0.5103
   16SAPS  O13B 2004   4.994   4.328   2.169 -0.4737  0.5176 -0.2653
   16SAPS   C11 2005   4.900   4.050   2.134 -0.1889 -0.3569 -0.1797
   16SAPS  H11A 2006   4.867   4.093   2.231 -2.7611 -4.9291  1.2598
   16SAPS  H11B 2007   4.923   3.944   2.156  0.8977 -0.2844 -0.8758
   16SAPS     P 2008   4.647   4.023   2.084 -0.1379  0.2042  0.0349
   16SAPS   O13 2009   4.560   4.132   2.056  0.1120 -0.4646  0.3414
   16SAPS   O14 2010   4.613   3.890   2.029 -0.3373  0.2910 -0.1062
   16SAPS   O12 2011   4.795   4.049   2.042 -0.3453  0.0425  0.5009
   16SAPS   O11 2012   4.650   4.003   2.238  0.3547 -0.3417 -0.3101
   16SAPS    C1 2013   4.549   3.959   2.321 -0.0230  0.1780  0.5664
   16SAPS    HA 2014   4.471   4.036   2.333 -1.0170 -0.9400  1.4909
   16SAPS    HB 2015   4.501   3.864   2.291 -0.3957  0.5031  0.1345
   16SAPS    C2 2016   4.589   3.940   2.468  0.1078  0.9420  0.2562
   16SAPS    HS 2017   4.499   3.946   2.532  0.4815 -2.1870  1.2762
   16SAPS   O21 2018   4.690   4.033   2.512 -0.1637  0.1944 -0.2010
   16SAPS   C21 2019   4.653   4.163   2.508  0.2468  0.2213 -0.8687
   16SAPS   O22 2020   4.546   4.213   2.472 -0.2336  0.7116  0.2499
   16SAPS   C22 2021   4.776   4.245   2.549  0.4385  0.2893 -0.5852
   16SAPS   H2R 2022   4.869   4.186   2.533  0.3727 -0.2999  1.0363
   16SAPS   H2S 2023   4.786   4.324   2.471  2.1634 -0.0731 -0.7683
   16SAPS    C3 2024   4.624   3.792   2.504 -0.1586 -0.1883  0.5610
   16SAPS    HX 2025   4.697   3.774   2.423 -0.9821  1.2308 -0.5580
   16SAPS    HY 2026   4.534   3.729   2.487 -0.4739  0.4043 -0.0199
   16SAPS   O31 2027   4.670   3.788   2.640  0.0201  0.6707  0.5777
   16SAPS   C31 2028   4.735   3.681   2.665 -0.2653 -0.3854 -0.1646
   16SAPS   O32 2029   4.755   3.586   2.594  0.5511 -0.3411 -0.3205
   16SAPS   C32 2030   4.788   3.687   2.809  0.2498  0.1291 -0.3918
   16SAPS   H2X 2031   4.839   3.785   2.821 -1.1275  0.7708  0.5652
   16SAPS   H2Y 2032   4.861   3.606   2.831  0.3330  0.2139 -0.3593
   16SAPS   C23 2033   4.761   4.312   2.690  0.0207  0.2100  0.4344
   16SAPS   H3R 2034   4.739   4.241   2.773  1.8221 -0.3069  0.5269
   16SAPS   H3S 2035   4.665   4.366   2.679 -0.1205  0.0614  0.9257
   16SAPS   C24 2036   4.873   4.404   2.736  0.2112  0.3677  0.4181
   16SAPS   H4R 2037   4.839   4.452   2.830  3.3059  0.8149  1.4181
   16SAPS   H4S 2038   4.888   4.494   2.672  1.5810  0.1087  0.3489
   16SAPS   C25 2039   5.001   4.324   2.738 -0.0968  0.2978 -0.1327
   16SAPS   H5R 2040   5.034   4.304   2.635 -0.8289 -3.7131  0.2727
   16SAPS   C26 2041   5.062   4.266   2.840 -0.8764  0.7652 -0.5687
   16SAPS   H6R 2042   5.165   4.233   2.821 -0.5966  1.3598 -0.1409
   16SAPS   C27 2043   5.001   4.273   2.984  0.0869  0.0445  0.0467
   16SAPS   H7R 2044   4.925   4.192   2.989 -0.7376  0.7762 -0.1605
   16SAPS   H7S 2045   4.939   4.364   3.000 -0.1679  0.1294 -1.2902
   16SAPS   C28 2046   5.114   4.259   3.080  0.2834 -0.1572 -0.4122
   16SAPS   H8R 2047   5.213   4.299   3.052  1.7473 -1.2100  2.7667
   16SAPS   C29 2048   5.103   4.195   3.197  0.1035  0.7122  0.1372
   16SAPS   H9R 2049   5.193   4.176   3.258  1.3053  0.2054 -1.6997
   16SAPS  C210 2050   4.985   4.126   3.257 -0.4791  0.2379 -1.0440
   16SAPS  H10R 2051   4.885   4.155   3.219 -1.7894 -1.5289  0.8508
   16SAPS  H10S 2052   4.975   4.153   3.365 -1.9257 -2.0302 -0.5393
   16SAPS  C211 2053   4.988   3.977   3.264 -0.0575  0.1164  0.1266
   16SAPS  H11R 2054   4.911   3.932   3.199  1.3083 -1.0311 -0.7307
   16SAPS  C212 2055   5.073   3.899   3.337  0.7842 -0.0888  0.8316
   16SAPS  H12R 2056   5.052   3.791   3.335  1.1829 -0.1629 -0.2548
   16SAPS  C213 2057   5.178   3.930   3.437  0.1980 -0.8806 -0.1087
   16SAPS  H13R 2058   5.171   4.034   3.477 -1.3276 -0.2828 -1.8088
   16SAPS  H13S 2059   5.277   3.917   3.387  0.7761  0.1400  0.7248
   16SAPS  C214 2060   5.184   3.832   3.555 -0.1035 -0.1608  0.0735
   16SAPS  H14R 2061   5.258   3.754   3.530  0.0071 -0.1131  0.2503
   16SAPS  C215 2062   5.125   3.846   3.673  0.7396  0.0900  0.3550
   16SAPS  H15R 2063   5.139   3.773   3.755  1.4439  2.0343  2.0349
   16SAPS  C216 2064   5.031   3.959   3.713  0.5216 -0.1227  0.6799
   16SAPS  H16R 2065   4.926   3.934   3.736  0.5209  0.3891  1.2659
   16SAPS  H16S 2066   5.000   4.032   3.635 -0.0835  0.2159  1.2269
   16SAPS  C217 2067   5.087   4.038   3.827 -0.2079  0.4011 -0.3622
   16SAPS  H17R 2068   5.022   4.127   3.844 -2.1346 -0.9112 -0.5580
   16SAPS  H17S 2069   5.190   4.072   3.805 -0.3347  0.5628 -0.7136
   16SAPS  C218 2070   5.079   3.944   3.954  0.8628 -0.6648  0.0461
   16SAPS  H18R 2071   5.152   3.860   3.949 -1.7208 -3.1082  0.6411
   16SAPS  H18S 2072   4.976   3.903   3.962  0.1100  1.2602  0.9616
   16SAPS  C219 2073   5.097   4.020   4.087 -0.5718  0.5576  0.1306
   16SAPS  H19R 2074   5.186   4.084   4.070 -1.4384  1.6419 -0.4220
   16SAPS  H19S 2075   5.139   3.947   4.160 -1.4351  0.0448  0.1175
   16SAPS  C220 2076   4.976   4.100   4.133 -0.0463 -0.1135 -0.3250
   16SAPS  H20R 2077   4.904   4.034   4.186 -0.0763  0.8665  0.8739
   16SAPS  H20S 2078   4.929   4.153   4.047 -0.7055 -0.7187 -0.3439
   16SAPS  H20T 2079   5.010   4.178   4.204 -1.3670 -0.0304  0.2349
   16SAPS   C33 2080   4.680   3.666   2.914 -0.5345  0.1601 -0.5402
   16SAPS   H3X 2081   4.634   3.565   2.905  0.1885 -0.1308 -1.0047
   16SAPS   H3Y 2082   4.602   3.745   2.917 -0.1569  0.5862  2.7555
   16SAPS   C34 2083   4.742   3.670   3.055  0.6484 -0.1058 -0.1569
   16SAPS   H4X 2084   4.775   3.772   3.083  2.0462 -1.1256  2.1537
   16SAPS   H4Y 2085   4.822   3.593   3.045 -0.5439 -1.2188 -1.5095
   16SAPS   C35 2086   4.645   3.636   3.168 -0.5624 -0.0639 -0.8253
   16SAPS   H5X 2087   4.584   3.545   3.153  0.6152 -1.1882  0.9541
   16SAPS   H5Y 2088   4.580   3.722   3.197  1.2744  0.9321  0.5400
   16SAPS   C36 2089   4.727   3.592   3.288 -0.7241  0.5262 -0.1365
   16SAPS   H6X 2090   4.822   3.648   3.295 -0.1599 -0.3670 -0.3646
   16SAPS   H6Y 2091   4.761   3.489   3.263  0.5723  0.4726  1.6821
   16SAPS   C37 2092   4.649   3.602   3.421 -0.5126 -0.7110  0.5378
   16SAPS   H7X 2093   4.561   3.534   3.418  0.3730 -1.8861 -1.5657
   16SAPS   H7Y 2094   4.616   3.708   3.430  2.4780  0.4308 -0.5684
   16SAPS   C38 2095   4.737   3.575   3.545  0.3964 -0.7182 -0.0518
   16SAPS   H8X 2096   4.822   3.646   3.558 -1.9954  2.2116  1.0557
   16SAPS   H8Y 2097   4.774   3.471   3.538 -2.9484 -1.9225 -1.9339
   16SAPS   C39 2098   4.659   3.577   3.673  0.3685 -0.1025  0.3029
   16SAPS   H9X 2099   4.594   3.487   3.670 -1.9056  1.4718 -0.0433
   16SAPS   H9Y 2100   4.598   3.669   3.661  0.1328 -0.4176 -1.0532
   16SAPS  C310 2101   4.747   3.577   3.793 -0.9151 -0.0614 -0.0804
   16SAPS  H10X 2102   4.814   3.664   3.809  1.4565 -1.8229  0.0401
   16SAPS  H10Y 2103   4.821   3.495   3.782 -0.5632  0.1344  0.7219
   16SAPS  C311 2104   4.664   3.542   3.916 -0.4069  0.0200 -0.2664
   16SAPS  H11X 2105   4.624   3.439   3.907 -0.4983  0.1428 -1.3809
   16SAPS  H11Y 2106   4.571   3.600   3.933 -0.6702 -0.5623  0.3592
   16SAPS  C312 2107   4.739   3.537   4.053 -0.9030  0.0358  0.4855
   16SAPS  H12X 2108   4.769   3.644   4.059  0.1921 -0.3069  1.4002
   16SAPS  H12Y 2109   4.825   3.470   4.031 -0.1198  0.8234  1.0803
   16SAPS  C313 2110   4.673   3.485   4.171  0.2274  0.1960  0.0560
   16SAPS  H13X 2111   4.646   3.380   4.145  1.9728 -0.0683 -0.8403
   16SAPS  H13Y 2112   4.574   3.532   4.185  0.2576  0.2810 -0.0122
   16SAPS  C314 2113   4.751   3.496   4.302 -0.2382 -0.3345 -0.4055
   16SAPS  H14X 2114   4.794   3.598   4.298  1.0550 -0.7876  1.0851
   16SAPS  H14Y 2115   4.829   3.417   4.302 -0.5936 -0.6937 -0.1275
   16SAPS  C315 2116   4.669   3.467   4.432 -0.0888  0.3023  0.1905
   16SAPS  H15X 2117   4.641   3.359   4.430 -3.2841  1.0602 -0.1612
   16SAPS  H15Y 2118   4.578   3.530   4.429  0.0110  0.6604  2.8458
   16SAPS  C316 2119   4.739   3.488   4.561 -0.9726 -0.3465  0.2850
   16SAPS  H16X 2120   4.791   3.583   4.583 -0.8860 -0.1999 -0.5402
   16SAPS  H16Y 2121   4.819   3.412   4.575 -1.9060 -1.0615  2.2062
   16SAPS  C317 2122   4.641   3.462   4.684 -0.7596 -0.0751  0.0644
   16SAPS  H17X 2123   4.709   3.450   4.771  1.3118  1.2455 -1.2714
   16SAPS  H17Y 2124   4.589   3.366   4.667  0.8001 -1.1162  0.9304
   16SAPS  C318 2125   4.533   3.568   4.711 -0.7969 -0.3687 -0.2640
   16SAPS  H18X 2126   4.555   3.667   4.667 -1.9342 -0.0959 -0.2541
   16SAPS  H18Y 2127   4.515   3.594   4.817 -1.0740  1.6114 -0.7507
   16SAPS  H18Z 2128   4.438   3.534   4.664 -0.8359  1.6535 -1.7465
   17SAPS     N 2129   0.909   4.417   1.823 -0.5521 -0.2169  0.0165
   17SAPS   HN1 2130   0.926   4.514   1.788  2.5788 -1.2393 -1.7474
   17SAPS   HN2 2131   0.906   4.419   1.927 -2.8328  0.3972 -0.0063
   17SAPS   HN3 2132   0.991   4.356   1.802 -0.7317 -0.6941  0.6930
   17SAPS   C12 2133   0.785   4.359   1.771 -0.2778  0.4510 -0.6421
   17SAPS  H12A 2134   0.726   4.422   1.706 -0.7646  0.4375 -0.2264
   17SAPS   C13 2135   0.801   4.231   1.690  1.0356 -0.1479 -0.8808
   17SAPS  O13A 2136   0.913   4.182   1.662  0.4327 -0.4523 -0.3213
   17SAPS  O13B 2137   0.691   4.184   1.640  0.0526  0.3239 -0.2740
   17SAPS   C11 2138   0.689   4.341   1.894  0.2690  0.0236 -0.2341
   17SAPS  H11A 2139   0.722   4.251   1.950  0.7384  1.3350  1.7020
   17SAPS  H11B 2140   0.583   4.322   1.869  0.1762  2.1847 -1.8449
   17SAPS     P 2141   0.616   4.582   1.946 -0.2493 -0.4998  0.4010
   17SAPS   O13 2142   0.672   4.640   1.824  0.0400  0.0246  0.0139
   17SAPS   O14 2143   0.471   4.552   1.956 -0.3745  0.3302 -0.1278
   17SAPS   O12 2144   0.694   4.451   1.987  0.2433 -0.0454  0.0043
   17SAPS   O11 2145   0.657   4.684   2.060 -0.5712 -0.3373 -0.4234
   17SAPS    C1 2146   0.786   4.693   2.115 -0.2814 -0.4383 -0.0846
   17SAPS    HA 2147   0.860   4.633   2.057 -0.6969  0.5385 -1.6931
   17SAPS    HB 2148   0.819   4.796   2.141 -2.5519 -0.1088  1.8279
   17SAPS    C2 2149   0.791   4.626   2.251  0.7255  0.4545  0.3320
   17SAPS    HS 2150   0.738   4.529   2.235  2.4801 -0.1856 -2.2030
   17SAPS   O21 2151   0.726   4.708   2.351  0.2595 -0.0900  0.0265
   17SAPS   C21 2152   0.622   4.660   2.413  0.3726  0.1315 -0.0674
   17SAPS   O22 2153   0.562   4.558   2.378  0.1503  0.3263 -0.0852
   17SAPS   C22 2154   0.588   4.751   2.533  0.1371  0.1307 -0.3462
   17SAPS   H2R 2155   0.610   4.858   2.510 -2.3416  0.1782 -3.0210
   17SAPS   H2S 2156   0.481   4.726   2.554  0.9292 -3.4965 -0.1246
   17SAPS    C3 2157   0.935   4.601   2.304 -0.1391  0.0065  0.3894
   17SAPS    HX 2158   0.990   4.697   2.313 -1.0901  0.6707 -0.5913
   17SAPS    HY 2159   0.987   4.544   2.225 -1.5537 -1.5191  0.4974
   17SAPS   O31 2160   0.934   4.528   2.427  0.0549 -0.2997  1.0928
   17SAPS   C31 2161   0.913   4.397   2.420  0.2108 -0.6106  0.3902
   17SAPS   O32 2162   0.915   4.326   2.325  0.0728  0.3633  0.1641
   17SAPS   C32 2163   0.876   4.345   2.557  0.0285 -0.4648 -0.0818
   17SAPS   H2X 2164   0.824   4.249   2.540  1.2078 -1.0445 -0.5247
   17SAPS   H2Y 2165   0.811   4.420   2.607 -0.0160  2.3100 -3.9068
   17SAPS   C23 2166   0.667   4.717   2.663  0.6282 -0.6119 -0.1335
   17SAPS   H3R 2167   0.686   4.817   2.707  3.0887 -0.4882 -1.3430
   17SAPS   H3S 2168   0.756   4.657   2.635  0.9085  0.2370 -1.1393
   17SAPS   C24 2169   0.583   4.648   2.771  0.3837 -0.0700  0.5019
   17SAPS   H4R 2170   0.651   4.624   2.856  2.8097 -0.4690 -1.4430
   17SAPS   H4S 2171   0.549   4.548   2.734  0.8604 -0.3379  0.7826
   17SAPS   C25 2172   0.468   4.736   2.811  0.1155 -0.6696 -0.3463
   17SAPS   H5R 2173   0.436   4.822   2.750  0.8617 -0.9070 -1.0831
   17SAPS   C26 2174   0.423   4.746   2.935 -0.2642 -0.4214  0.2208
   17SAPS   H6R 2175   0.339   4.817   2.943 -0.9343 -1.1671 -0.0718
   17SAPS   C27 2176   0.457   4.670   3.064 -0.1035 -0.7252 -0.6630
   17SAPS   H7R 2177   0.502   4.747   3.131 -0.9403 -0.6113 -0.2126
   17SAPS   H7S 2178   0.528   4.586   3.051  1.2172  0.3314 -0.5018
   17SAPS   C28 2179   0.341   4.607   3.135  0.5934  0.3741 -0.6905
   17SAPS   H8R 2180   0.264   4.558   3.074 -1.5715  0.5002  1.7419
   17SAPS   C29 2181   0.334   4.573   3.264  0.6757 -0.0606  0.2950
   17SAPS   H9R 2182   0.235   4.540   3.299  0.3765  0.2244 -0.2582
   17SAPS  C210 2183   0.420   4.628   3.372 -0.0324  0.3338  0.0787
   17SAPS  H10R 2184   0.378   4.723   3.410  0.8620  0.3090  1.1694
   17SAPS  H10S 2185   0.516   4.666   3.332 -0.1398 -0.2566 -0.7684
   17SAPS  C211 2186   0.437   4.534   3.484 -0.3748  0.0938  0.1724
   17SAPS  H11R 2187   0.534   4.484   3.499 -0.8276 -0.3187  1.9288
   17SAPS  C212 2188   0.347   4.500   3.580 -0.2264  0.7419  0.6220
   17SAPS  H12R 2189   0.390   4.443   3.664 -0.5794  0.1742  0.4230
   17SAPS  C213 2190   0.204   4.554   3.596  0.0956 -0.2203  0.2071
   17SAPS  H13R 2191   0.126   4.476   3.602  0.8948 -0.9939  0.8702
   17SAPS  H13S 2192   0.178   4.626   3.516  2.0061  0.5307  0.2043
   17SAPS  C214 2193   0.200   4.637   3.725 -0.1518  0.3027 -0.1290
   17SAPS  H14R 2194   0.221   4.744   3.710  1.2908  0.0177 -0.2729
   17SAPS  C215 2195   0.190   4.579   3.846 -0.1481 -0.4696 -0.1172
   17SAPS  H15R 2196   0.180   4.647   3.932  0.6447 -1.6343  0.9276
   17SAPS  C216 2197   0.157   4.435   3.879 -0.7346  0.1646  0.2073
   17SAPS  H16R 2198   0.248   4.390   3.925  0.0820  0.3132 -1.1962
   17SAPS  H16S 2199   0.151   4.376   3.785  2.2811  0.3133 -0.1781
   17SAPS  C217 2200   0.047   4.420   3.980  0.1134  1.0557 -0.5930
   17SAPS  H17R 2201   0.048   4.313   4.010  4.3894  0.8657 -0.8161
   17SAPS  H17S 2202  -0.053   4.445   3.938  0.2280  1.7414 -0.4588
   17SAPS  C218 2203   0.062   4.491   4.120  0.1347 -0.2071  0.1435
   17SAPS  H18R 2204   0.041   4.600   4.113  0.7283  0.0189  1.6089
   17SAPS  H18S 2205   0.172   4.491   4.130  0.1467 -0.6024  0.0072
   17SAPS  C219 2206  -0.012   4.426   4.238  0.8712  0.0614 -0.3380
   17SAPS  H19R 2207   0.025   4.474   4.331 -0.6682  1.6684 -0.4895
   17SAPS  H19S 2208   0.025   4.322   4.245  1.4756  0.3405  0.7908
   17SAPS  C220 2209  -0.166   4.446   4.242  0.3924 -0.3072  0.9004
   17SAPS  H20R 2210  -0.209   4.392   4.155 -1.4286 -0.3293  1.7660
   17SAPS  H20S 2211  -0.197   4.553   4.246 -0.9049 -0.4861 -1.9400
   17SAPS  H20T 2212  -0.223   4.396   4.323  2.2312 -2.4641  0.9690
   17SAPS   C33 2213   1.004   4.322   2.643  0.2214 -0.4891 -0.5642
   17SAPS   H3X 2214   1.063   4.415   2.661 -1.0341  0.4577 -1.1894
   17SAPS   H3Y 2215   1.073   4.260   2.582 -0.1546  0.1645 -1.6982
   17SAPS   C34 2216   0.980   4.252   2.779  0.0662  0.5910  0.9030
   17SAPS   H4X 2217   1.080   4.239   2.827  0.7639 -0.6142 -0.7575
   17SAPS   H4Y 2218   0.953   4.149   2.749  1.2898  0.2463  0.9047
   17SAPS   C35 2219   0.872   4.319   2.869  0.1549 -0.2857 -0.0495
   17SAPS   H5X 2220   0.863   4.245   2.951  2.0580  0.9235  1.3279
   17SAPS   H5Y 2221   0.778   4.328   2.810 -0.8242  1.9269  1.7128
   17SAPS   C36 2222   0.909   4.451   2.928  0.7414 -1.1579 -0.6070
   17SAPS   H6X 2223   0.905   4.541   2.863  1.5621 -0.9263 -0.3423
   17SAPS   H6Y 2224   1.014   4.438   2.962 -0.1488 -1.2247  2.4260
   17SAPS   C37 2225   0.815   4.473   3.052 -0.0581 -0.5028  0.1088
   17SAPS   H7X 2226   0.716   4.444   3.011  0.6408 -2.4346 -0.2850
   17SAPS   H7Y 2227   0.815   4.582   3.074 -1.7429 -0.5834  0.6944
   17SAPS   C38 2228   0.849   4.411   3.185 -0.3829  0.2726 -0.4468
   17SAPS   H8X 2229   0.953   4.438   3.216  0.9031 -2.1144 -2.3914
   17SAPS   H8Y 2230   0.843   4.301   3.194  0.0760  0.3937  2.4014
   17SAPS   C39 2231   0.758   4.469   3.292  0.5453 -0.0650  0.9098
   17SAPS   H9X 2232   0.653   4.442   3.266  0.0937  1.4531  1.0482
   17SAPS   H9Y 2233   0.755   4.579   3.277 -1.9777 -0.1094  0.5742
   17SAPS  C310 2234   0.797   4.417   3.435  0.0293  0.5175 -0.0736
   17SAPS  H10X 2235   0.785   4.306   3.442 -0.2968  0.6402  1.9446
   17SAPS  H10Y 2236   0.743   4.470   3.515  0.5664  0.7549  0.1352
   17SAPS  C311 2237   0.937   4.442   3.476 -0.1575 -0.3843 -0.7168
   17SAPS  H11X 2238   0.965   4.547   3.455 -1.6448  0.3420  0.6910
   17SAPS  H11Y 2239   1.007   4.383   3.413  0.7752  0.8792 -0.8883
   17SAPS  C312 2240   0.957   4.417   3.629  0.6386 -0.4445  0.0291
   17SAPS  H12X 2241   1.066   4.425   3.648  1.3270 -1.8712 -2.7592
   17SAPS  H12Y 2242   0.927   4.312   3.652  0.6419 -0.7883 -1.4318
   17SAPS  C313 2243   0.886   4.524   3.716 -0.3853 -0.2764 -0.0363
   17SAPS  H13X 2244   0.776   4.513   3.712 -0.6793  1.7408 -4.6274
   17SAPS  H13Y 2245   0.899   4.625   3.669 -1.6351 -1.1212 -2.3774
   17SAPS  C314 2246   0.923   4.527   3.865  0.1055  0.3832 -0.3787
   17SAPS  H14X 2247   1.029   4.560   3.863  0.2459 -0.0621 -0.2672
   17SAPS  H14Y 2248   0.926   4.421   3.897  0.9144  0.4292 -0.2804
   17SAPS  C315 2249   0.820   4.614   3.948  0.1007 -0.1597  0.0441
   17SAPS  H15X 2250   0.783   4.696   3.883 -1.1987 -1.9772 -1.6204
   17SAPS  H15Y 2251   0.870   4.642   4.044  0.5243  1.8152 -0.6930
   17SAPS  C316 2252   0.700   4.533   3.986 -0.6485 -0.0792  0.2894
   17SAPS  H16X 2253   0.733   4.441   4.038  1.6803 -0.2603 -1.3579
   17SAPS  H16Y 2254   0.642   4.491   3.901  1.2899  1.2499 -1.8112
   17SAPS  C317 2255   0.621   4.615   4.085 -0.4208  0.7971  0.2908
   17SAPS  H17X 2256   0.595   4.712   4.036  1.6012  1.2420  0.0259
   17SAPS  H17Y 2257   0.690   4.637   4.169  2.1471  0.8647 -1.7424
   17SAPS  C318 2258   0.491   4.547   4.133 -0.1491 -0.1545  0.2239
   17SAPS  H18X 2259   0.414   4.551   4.052  0.5962 -3.5926 -0.8052
   17SAPS  H18Y 2260   0.459   4.600   4.226  2.3265  0.5966  0.7169
   17SAPS  H18Z 2261   0.517   4.443   4.160  1.3121  0.5131  1.5694
   18SAPS     N 2262   6.104   4.668   2.395 -0.2409  0.3082 -0.4282
   18SAPS   HN1 2263   6.130   4.705   2.488  0.0210  2.0788 -1.1747
   18SAPS   HN2 2264   6.035   4.594   2.423 -1.6426  0.9777 -1.9694
   18SAPS   HN3 2265   6.184   4.625   2.344  0.0933  1.8263 -1.2488
   18SAPS   C12 2266   6.041   4.775   2.317 -0.8894  0.0340  0.0288
   18SAPS  H12A 2267   6.103   4.863   2.320 -0.0482 -0.5577  1.5132
   18SAPS   C13 2268   6.022   4.765   2.162  0.0392 -0.3175  0.1419
   18SAPS  O13A 2269   6.053   4.660   2.094  0.1401  0.0302 -0.4228
   18SAPS  O13B 2270   5.988   4.871   2.104 -0.6009  1.0721 -0.1441
   18SAPS   C11 2271   5.899   4.809   2.373 -0.0525 -0.0518  0.2284
   18SAPS  H11A 2272   5.854   4.900   2.329 -1.2234 -0.6459  0.1465
   18SAPS  H11B 2273   5.921   4.839   2.477  1.9335  2.3696 -0.7867
   18SAPS     P 2274   5.775   4.596   2.460  0.1477 -0.1976  0.1677
   18SAPS   O13 2275   5.651   4.525   2.428 -0.2085  0.2674 -0.6834
   18SAPS   O14 2276   5.897   4.519   2.465  0.3504 -0.3227 -0.1564
   18SAPS   O12 2277   5.796   4.705   2.352  0.5105  0.2988  0.4341
   18SAPS   O11 2278   5.754   4.676   2.590 -0.0767 -0.2497 -1.1535
   18SAPS    C1 2279   5.632   4.751   2.610  0.5294 -0.3677  0.1267
   18SAPS    HA 2280   5.551   4.691   2.563  1.4517  0.0533 -2.1166
   18SAPS    HB 2281   5.609   4.760   2.718 -0.7948  0.2535 -0.1864
   18SAPS    C2 2282   5.636   4.898   2.559  0.1625 -0.2618 -0.4411
   18SAPS    HS 2283   5.685   4.895   2.459  0.4933 -0.9997 -0.2641
   18SAPS   O21 2284   5.731   4.972   2.644  0.1068  0.0662  0.3879
   18SAPS   C21 2285   5.780   5.087   2.589  0.2977  0.1471 -0.4633
   18SAPS   O22 2286   5.750   5.133   2.482 -0.5388 -0.6641 -0.0127
   18SAPS   C22 2287   5.885   5.153   2.681  0.3164  0.1131 -0.7624
   18SAPS   H2R 2288   5.981   5.097   2.675  0.2545  0.1247 -1.8860
   18SAPS   H2S 2289   5.903   5.254   2.638 -0.8001  0.6423 -0.0438
   18SAPS    C3 2290   5.499   4.968   2.555 -0.4564 -0.0189 -0.6041
   18SAPS    HX 2291   5.441   4.905   2.485 -1.9275  1.9376 -1.2285
   18SAPS    HY 2292   5.496   5.070   2.510 -0.7234  0.4247  0.3793
   18SAPS   O31 2293   5.422   4.962   2.683 -0.2007  0.3298  0.3742
   18SAPS   C31 2294   5.452   5.065   2.767  0.1181  0.7854  0.6327
   18SAPS   O32 2295   5.513   5.168   2.738 -0.4900  0.7564 -0.2670
   18SAPS   C32 2296   5.410   5.029   2.906  0.4449 -0.4478  1.0929
   18SAPS   H2X 2297   5.472   4.953   2.957  1.8922  0.1667  0.2952
   18SAPS   H2Y 2298   5.313   4.976   2.912  1.3049 -2.0759  1.0007
   18SAPS   C23 2299   5.845   5.151   2.829  0.2658  0.0190 -0.0295
   18SAPS   H3R 2300   5.903   5.067   2.873 -0.5334 -0.7227 -0.3577
   18SAPS   H3S 2301   5.736   5.135   2.842  0.1075  0.6372 -0.5474
   18SAPS   C24 2302   5.889   5.278   2.906 -0.1342 -0.1969  0.0863
   18SAPS   H4R 2303   5.994   5.288   2.871 -0.9127 -0.5116 -2.5488
   18SAPS   H4S 2304   5.889   5.260   3.015 -0.1953 -0.0121  0.1176
   18SAPS   C25 2305   5.819   5.407   2.879  0.3200  0.1552 -0.0963
   18SAPS   H5R 2306   5.793   5.434   2.776  1.3424  2.2179  0.1253
   18SAPS   C26 2307   5.793   5.504   2.965 -0.6671 -0.3676 -0.4878
   18SAPS   H6R 2308   5.732   5.588   2.929  0.4201  0.1124 -1.2668
   18SAPS   C27 2309   5.836   5.516   3.109 -0.9197  0.6052 -0.3667
   18SAPS   H7R 2310   5.852   5.624   3.130 -0.8712  0.1846  1.9847
   18SAPS   H7S 2311   5.929   5.458   3.129 -1.6200 -0.2195  0.5987
   18SAPS   C28 2312   5.731   5.459   3.209  0.8182 -0.8100  0.4908
   18SAPS   H8R 2313   5.674   5.370   3.177 -1.5114  0.0462  1.9869
   18SAPS   C29 2314   5.684   5.524   3.321 -0.3237  0.3933  0.1062
   18SAPS   H9R 2315   5.605   5.474   3.378 -1.4833  3.3069  1.2328
   18SAPS  C210 2316   5.742   5.642   3.391  0.7679 -0.4862  0.2830
   18SAPS  H10R 2317   5.712   5.735   3.338 -1.5444 -1.1980  0.2516
   18SAPS  H10S 2318   5.853   5.643   3.393  0.7641  0.6703  1.4048
   18SAPS  C211 2319   5.686   5.663   3.529 -0.5831  0.1762 -0.3218
   18SAPS  H11R 2320   5.643   5.761   3.557 -0.4598 -0.1794  1.1882
   18SAPS  C212 2321   5.699   5.575   3.632  0.3250  0.6684 -0.2098
   18SAPS  H12R 2322   5.646   5.594   3.726 -0.6365 -0.5960 -0.4572
   18SAPS  C213 2323   5.749   5.429   3.626 -0.0449 -0.3407 -0.0135
   18SAPS  H13R 2324   5.779   5.399   3.524 -0.8694  1.0864 -0.7096
   18SAPS  H13S 2325   5.662   5.366   3.656  0.5280 -1.3406 -0.4199
   18SAPS  C214 2326   5.869   5.403   3.714 -0.6058  0.2773 -0.6547
   18SAPS  H14R 2327   5.961   5.399   3.653 -1.7559  2.2708 -2.6890
   18SAPS  C215 2328   5.885   5.372   3.846 -0.1258 -0.1176  0.3247
   18SAPS  H15R 2329   5.987   5.371   3.888  1.4164  0.6242 -3.0497
   18SAPS  C216 2330   5.785   5.363   3.956 -0.2296 -0.1418  0.1575
   18SAPS  H16R 2331   5.779   5.254   3.978  1.5513 -0.3927 -0.4103
   18SAPS  H16S 2332   5.683   5.399   3.932  0.0549  0.7122  0.1870
   18SAPS  C217 2333   5.840   5.439   4.073  0.4392  0.1995  0.3367
   18SAPS  H17R 2334   5.837   5.546   4.043 -0.3455 -0.2368 -1.2740
   18SAPS  H17S 2335   5.942   5.411   4.104  0.1075 -0.5130  0.8148
   18SAPS  C218 2336   5.754   5.434   4.199  0.1422  0.4165 -0.0250
   18SAPS  H18R 2337   5.650   5.472   4.191 -0.4962 -0.8975  1.4909
   18SAPS  H18S 2338   5.793   5.487   4.288  0.7433  0.7232 -0.4692
   18SAPS  C219 2339   5.748   5.282   4.248  0.5393 -0.2345  0.7820
   18SAPS  H19R 2340   5.688   5.224   4.175 -1.3371 -1.2011  2.9592
   18SAPS  H19S 2341   5.692   5.278   4.344 -1.5688 -0.9980 -0.4156
   18SAPS  C220 2342   5.881   5.214   4.269 -0.0856  0.7096  0.5452
   18SAPS  H20R 2343   5.863   5.115   4.315 -1.5721  0.3240 -0.7656
   18SAPS  H20S 2344   5.941   5.284   4.330 -0.8580  0.0452  2.1256
   18SAPS  H20T 2345   5.921   5.202   4.166 -0.2377  0.5153  0.5074
   18SAPS   C33 2346   5.390   5.165   2.988 -0.4680  0.7401 -0.1262
   18SAPS   H3X 2347   5.296   5.207   2.946  0.7300  1.0652 -2.7095
   18SAPS   H3Y 2348   5.473   5.237   2.972  0.0970  0.2473  0.5562
   18SAPS   C34 2349   5.390   5.157   3.144 -0.3747  0.0404 -0.0397
   18SAPS   H4X 2350   5.295   5.108   3.175  0.2542 -0.5003  1.1073
   18SAPS   H4Y 2351   5.385   5.262   3.180  0.0447  0.6291 -1.6169
   18SAPS   C35 2352   5.513   5.104   3.216  0.3051  0.3411  0.7739
   18SAPS   H5X 2353   5.601   5.136   3.156  0.7025  1.5400  1.9437
   18SAPS   H5Y 2354   5.502   4.994   3.222 -1.4238  0.4943  1.0275
   18SAPS   C36 2355   5.522   5.168   3.356 -0.3709 -0.4197 -0.4794
   18SAPS   H6X 2356   5.532   5.279   3.356  2.2439 -0.5737  1.0066
   18SAPS   H6Y 2357   5.609   5.116   3.401 -0.4110 -1.0674 -1.1410
   18SAPS   C37 2358   5.398   5.136   3.446 -0.4812  0.3297 -0.0271
   18SAPS   H7X 2359   5.419   5.039   3.495  2.4587  0.1444 -1.4282
   18SAPS   H7Y 2360   5.293   5.127   3.409  0.5041 -2.0355 -2.6200
   18SAPS   C38 2361   5.386   5.240   3.554 -0.3308 -0.4706  0.1993
   18SAPS   H8X 2362   5.344   5.337   3.519  0.2260 -0.2267  0.1857
   18SAPS   H8Y 2363   5.491   5.265   3.582 -1.2133  2.7881  1.0647
   18SAPS   C39 2364   5.306   5.183   3.672  0.6047 -0.0931  0.4566
   18SAPS   H9X 2365   5.351   5.101   3.731  0.9981  0.1699  0.5274
   18SAPS   H9Y 2366   5.208   5.146   3.635  0.8019  0.5952 -0.8341
   18SAPS  C310 2367   5.286   5.293   3.772 -0.1747 -0.3265 -0.3370
   18SAPS  H10X 2368   5.217   5.258   3.852  0.3130  1.5771  0.9899
   18SAPS  H10Y 2369   5.234   5.378   3.722  2.2308  2.0863  0.9547
   18SAPS  C311 2370   5.413   5.356   3.831  0.7103  0.1407  0.4670
   18SAPS  H11X 2371   5.453   5.419   3.748  0.2690 -3.3432 -2.6867
   18SAPS  H11Y 2372   5.491   5.277   3.844 -0.8209 -1.3911  0.6161
   18SAPS  C312 2373   5.390   5.417   3.965  0.8564 -0.2112 -0.2342
   18SAPS  H12X 2374   5.289   5.464   3.965  1.4785  1.3281  2.3314
   18SAPS  H12Y 2375   5.467   5.494   3.982  0.2149  0.2296  0.8251
   18SAPS  C313 2376   5.384   5.315   4.077  0.2538 -0.0772 -0.0180
   18SAPS  H13X 2377   5.487   5.281   4.100  1.0944  0.8863 -2.1068
   18SAPS  H13Y 2378   5.310   5.233   4.069 -1.6188  1.3998  1.1309
   18SAPS  C314 2379   5.336   5.395   4.204  0.5437 -0.4169 -0.2151
   18SAPS  H14X 2380   5.231   5.424   4.182 -0.2972 -3.1784 -0.2032
   18SAPS  H14Y 2381   5.395   5.486   4.227 -1.5321  0.8200  0.3713
   18SAPS  C315 2382   5.342   5.309   4.332  0.5544  0.4250 -0.0286
   18SAPS  H15X 2383   5.448   5.286   4.357 -0.5051 -2.6024  2.2744
   18SAPS  H15Y 2384   5.308   5.206   4.308  0.2023  0.5390 -0.0130
   18SAPS  C316 2385   5.275   5.356   4.460 -0.5205  0.6421  0.1381
   18SAPS  H16X 2386   5.167   5.333   4.472 -0.6202  1.3252  0.6160
   18SAPS  H16Y 2387   5.275   5.467   4.466 -1.5952  0.5909  1.3661
   18SAPS  C317 2388   5.354   5.327   4.596  0.1076  0.4056  0.5357
   18SAPS  H17X 2389   5.321   5.398   4.675  1.0010 -0.1188  1.4144
   18SAPS  H17Y 2390   5.464   5.334   4.585  0.8669 -5.2805  1.2955
   18SAPS  C318 2391   5.339   5.188   4.646  0.3474  0.5787 -0.3067
   18SAPS  H18X 2392   5.380   5.114   4.574 -0.6767 -0.7677  0.4290
   18SAPS  H18Y 2393   5.233   5.157   4.661  0.7171 -0.9990 -0.7425
   18SAPS  H18Z 2394   5.395   5.178   4.742 -0.1552  1.4910  0.0874
   19SAPS     N 2395   2.620   3.569   1.858 -0.2424  0.3468  0.5043
   19SAPS   HN1 2396   2.615   3.671   1.840  0.2095  1.1260  4.0248
   19SAPS   HN2 2397   2.707   3.541   1.807 -2.0504 -0.0297 -2.6389
   19SAPS   HN3 2398   2.537   3.520   1.820  0.0929 -0.9736  1.3797
   19SAPS   C12 2399   2.626   3.562   2.003 -0.5832  0.6621 -0.0426
   19SAPS  H12A 2400   2.598   3.462   2.031  0.3225  0.7686  1.3593
   19SAPS   C13 2401   2.764   3.589   2.060  0.9870  0.7287 -0.1107
   19SAPS  O13A 2402   2.861   3.617   1.982  0.3321  0.1398  0.2862
   19SAPS  O13B 2403   2.787   3.592   2.185 -0.4361 -0.0203 -0.2963
   19SAPS   C11 2404   2.516   3.665   2.050 -0.3034 -0.2687  0.8991
   19SAPS  H11A 2405   2.543   3.769   2.023 -0.5266 -0.9847 -2.6184
   19SAPS  H11B 2406   2.528   3.651   2.159  1.5963  1.0050  0.9158
   19SAPS     P 2407   2.303   3.517   2.069  0.0061  0.0750 -0.9045
   19SAPS   O13 2408   2.161   3.544   2.049  0.5306  0.3762  0.2899
   19SAPS   O14 2409   2.347   3.391   2.021 -0.6096  0.0191 -0.5242
   19SAPS   O12 2410   2.386   3.635   2.005 -0.2557  0.1153 -0.3994
   19SAPS   O11 2411   2.324   3.517   2.217  0.1531 -0.0242 -0.5521
   19SAPS    C1 2412   2.434   3.445   2.280  0.1361  0.1511 -0.1566
   19SAPS    HA 2413   2.458   3.344   2.243 -4.7027 -1.3266 -0.0100
   19SAPS    HB 2414   2.533   3.495   2.283  0.9717 -1.4822  0.0779
   19SAPS    C2 2415   2.398   3.424   2.431 -0.2309 -0.0975  0.0380
   19SAPS    HS 2416   2.299   3.374   2.434 -0.4899  0.4112  0.0321
   19SAPS   O21 2417   2.393   3.558   2.487  0.7622  0.2384 -0.5943
   19SAPS   C21 2418   2.300   3.572   2.585  0.3807  0.8431  0.8577
   19SAPS   O22 2419   2.210   3.489   2.607  0.0305 -1.0178 -0.1727
   19SAPS   C22 2420   2.320   3.695   2.662 -0.1912  0.1967 -0.1549
   19SAPS   H2R 2421   2.369   3.770   2.596  3.1407 -1.8988 -0.3096
   19SAPS   H2S 2422   2.219   3.724   2.699  0.5465  2.0477  0.5144
   19SAPS    C3 2423   2.505   3.338   2.507  0.3030  0.2009  0.4822
   19SAPS    HX 2424   2.604   3.388   2.500  1.1325 -1.5684 -3.5009
   19SAPS    HY 2425   2.522   3.243   2.450  2.4669 -0.0259  1.3841
   19SAPS   O31 2426   2.471   3.326   2.649  0.1103  0.0609  0.3132
   19SAPS   C31 2427   2.412   3.214   2.681  0.1704  0.0167 -0.0258
   19SAPS   O32 2428   2.399   3.115   2.611  0.3606 -0.0030 -0.8165
   19SAPS   C32 2429   2.358   3.221   2.826 -0.2132 -0.7609 -0.4921
   19SAPS   H2X 2430   2.304   3.126   2.847  1.5336 -2.1091 -1.8390
   19SAPS   H2Y 2431   2.284   3.303   2.841 -1.6242 -1.8475 -1.2388
   19SAPS   C23 2432   2.407   3.667   2.792 -0.0154  0.0281  0.5005
   19SAPS   H3R 2433   2.486   3.595   2.759  0.4857  1.1695 -0.8986
   19SAPS   H3S 2434   2.357   3.623   2.881  0.0664 -1.9262 -0.3623
   19SAPS   C24 2435   2.497   3.797   2.822 -0.4784  0.4536 -0.4234
   19SAPS   H4R 2436   2.549   3.817   2.726 -0.9336 -0.3758 -0.8577
   19SAPS   H4S 2437   2.567   3.768   2.903  0.7829 -0.0049 -1.6548
   19SAPS   C25 2438   2.396   3.902   2.852 -0.3180 -0.4361 -0.2300
   19SAPS   H5R 2439   2.399   3.967   2.764  0.5288 -1.5585 -1.0615
   19SAPS   C26 2440   2.307   3.915   2.956 -0.6321  0.1312 -0.4837
   19SAPS   H6R 2441   2.231   3.995   2.958 -2.4314 -1.5181  0.1569
   19SAPS   C27 2442   2.314   3.820   3.075 -0.4467 -0.6691  0.5834
   19SAPS   H7R 2443   2.277   3.720   3.041  0.6916 -0.8274 -0.2630
   19SAPS   H7S 2444   2.241   3.858   3.149  0.1654  0.4252  0.6412
   19SAPS   C28 2445   2.445   3.811   3.144  0.7107  0.4629  0.2692
   19SAPS   H8R 2446   2.509   3.900   3.137 -0.5731  1.3033 -1.5096
   19SAPS   C29 2447   2.499   3.707   3.206  0.2121  0.1829 -0.6730
   19SAPS   H9R 2448   2.583   3.730   3.272 -2.7872  3.1059  2.5176
   19SAPS  C210 2449   2.434   3.572   3.229  0.5194  0.0193  0.4632
   19SAPS  H10R 2450   2.395   3.537   3.131  2.5613 -0.2928 -0.2969
   19SAPS  H10S 2451   2.347   3.583   3.297  0.3502  0.9904  0.1008
   19SAPS  C211 2452   2.533   3.474   3.280 -0.2224  0.7570  0.0242
   19SAPS  H11R 2453   2.621   3.473   3.213 -0.7338  1.2560 -0.6706
   19SAPS  C212 2454   2.538   3.403   3.393  0.5402  0.4107  0.2954
   19SAPS  H12R 2455   2.625   3.340   3.421  0.5298  0.0511 -0.4516
   19SAPS  C213 2456   2.422   3.407   3.482  0.1844 -0.0467 -0.3527
   19SAPS  H13R 2457   2.342   3.349   3.430  0.2215  1.3973 -2.1066
   19SAPS  H13S 2458   2.376   3.506   3.503 -0.2376 -0.6483  1.7661
   19SAPS  C214 2459   2.443   3.347   3.616  0.4653 -0.1373  0.0730
   19SAPS  H14R 2460   2.358   3.284   3.647 -0.2971  2.0483  2.9908
   19SAPS  C215 2461   2.540   3.356   3.710  0.5266 -0.2489  0.2421
   19SAPS  H15R 2462   2.542   3.285   3.794  0.8410  0.6880  1.0344
   19SAPS  C216 2463   2.672   3.429   3.694 -0.4893  0.7631 -0.5807
   19SAPS  H16R 2464   2.664   3.512   3.621 -0.5636  0.4027 -0.9896
   19SAPS  H16S 2465   2.734   3.346   3.653 -1.4099  0.3386 -1.1534
   19SAPS  C217 2466   2.740   3.475   3.819 -0.1711  0.1891  0.1581
   19SAPS  H17R 2467   2.671   3.550   3.863 -1.1855 -0.4026 -0.3928
   19SAPS  H17S 2468   2.825   3.539   3.788 -0.8031  0.2324 -1.5335
   19SAPS  C218 2469   2.783   3.359   3.911  1.1535  0.5838 -0.2225
   19SAPS  H18R 2470   2.838   3.280   3.855 -1.5004 -1.9692  0.5499
   19SAPS  H18S 2471   2.688   3.309   3.941  1.7587 -0.0171  0.7594
   19SAPS  C219 2472   2.876   3.406   4.021  0.4583  0.3709 -0.1560
   19SAPS  H19R 2473   2.828   3.462   4.105 -0.5190 -0.9469  0.1943
   19SAPS  H19S 2474   2.954   3.472   3.979  0.7003  0.3363  0.2365
   19SAPS  C220 2475   2.951   3.290   4.089 -0.3398 -0.4511  0.6311
   19SAPS  H20R 2476   2.978   3.226   4.003  0.3687  0.9461 -0.2156
   19SAPS  H20S 2477   2.888   3.233   4.161  0.3626 -0.6722  1.0864
   19SAPS  H20T 2478   3.043   3.330   4.137 -0.6390  0.9103  0.1125
   19SAPS   C33 2479   2.487   3.227   2.911  0.2286  0.0698 -0.1483
   19SAPS   H3X 2480   2.534   3.327   2.909  1.5062 -0.3696  2.6439
   19SAPS   H3Y 2481   2.560   3.149   2.879 -2.1038 -1.5414 -1.8785
   19SAPS   C34 2482   2.455   3.200   3.062  0.0761 -0.1415 -0.4961
   19SAPS   H4X 2483   2.377   3.276   3.085  0.5795  0.4514 -0.7050
   19SAPS   H4Y 2484   2.557   3.216   3.103  1.0384 -2.6026 -1.7467
   19SAPS   C35 2485   2.412   3.060   3.092  0.0275  0.1798  0.5514
   19SAPS   H5X 2486   2.493   2.986   3.077  0.4423  0.5810  0.8085
   19SAPS   H5Y 2487   2.329   3.028   3.024 -1.1200  0.2693  1.8621
   19SAPS   C36 2488   2.378   3.044   3.245 -0.1418  0.7581 -1.0260
   19SAPS   H6X 2489   2.301   3.120   3.273 -1.1062  0.2631 -2.2247
   19SAPS   H6Y 2490   2.465   3.063   3.312  0.3506 -0.2258 -1.3707
   19SAPS   C37 2491   2.350   2.895   3.278  1.1591  0.7142 -0.7187
   19SAPS   H7X 2492   2.441   2.832   3.265 -0.4166 -1.9965  0.4916
   19SAPS   H7Y 2493   2.280   2.855   3.202  1.0895 -1.3958  0.3857
   19SAPS   C38 2494   2.277   2.877   3.413  0.2427 -0.3019  0.0608
   19SAPS   H8X 2495   2.257   2.769   3.430 -0.7611 -0.0255  0.6845
   19SAPS   H8Y 2496   2.182   2.934   3.407  0.1313 -0.4318  0.5738
   19SAPS   C39 2497   2.367   2.932   3.533  0.4056 -0.1959  0.2461
   19SAPS   H9X 2498   2.391   3.036   3.505 -1.3729  0.7655  1.9957
   19SAPS   H9Y 2499   2.453   2.863   3.543  0.0036 -0.6021  0.9947
   19SAPS  C310 2500   2.285   2.915   3.664  0.1387  0.2019  0.0936
   19SAPS  H10X 2501   2.269   2.808   3.688  0.8416 -0.2670 -1.3815
   19SAPS  H10Y 2502   2.184   2.959   3.648  0.1224  0.2006  0.1906
   19SAPS  C311 2503   2.353   2.992   3.778  0.2591  0.3213 -0.0571
   19SAPS  H11X 2504   2.339   3.099   3.751  2.6907  0.7497  0.1399
   19SAPS  H11Y 2505   2.463   2.983   3.791  0.1364  0.0475  0.8701
   19SAPS  C312 2506   2.299   2.962   3.921 -0.6085  0.1817  0.0429
   19SAPS  H12X 2507   2.380   2.964   3.997 -0.3249 -2.0655 -0.1256
   19SAPS  H12Y 2508   2.263   2.857   3.923 -1.5155  0.4894  0.7688
   19SAPS  C313 2509   2.193   3.057   3.969 -0.0152 -0.1031  0.0828
   19SAPS  H13X 2510   2.095   3.023   3.932  0.2181 -2.4591  1.4231
   19SAPS  H13Y 2511   2.214   3.163   3.944 -3.4262  0.9627  1.2532
   19SAPS  C314 2512   2.192   3.053   4.123  1.4678  0.3698  0.5357
   19SAPS  H14X 2513   2.291   3.092   4.155  1.5313 -0.1215  0.9587
   19SAPS  H14Y 2514   2.183   2.944   4.144 -0.6288  0.4882  0.4062
   19SAPS  C315 2515   2.070   3.120   4.184  0.7634  0.1694  0.2233
   19SAPS  H15X 2516   1.995   3.084   4.112  1.1197 -1.5126  0.6438
   19SAPS  H15Y 2517   2.086   3.230   4.182  0.0407  0.2848  0.4895
   19SAPS  C316 2518   2.044   3.066   4.326  0.6341  0.1850  0.4363
   19SAPS  H16X 2519   2.137   3.073   4.387  1.7162  0.3944 -1.1709
   19SAPS  H16Y 2520   2.024   2.957   4.315  1.0950  0.1056  0.3550
   19SAPS  C317 2521   1.925   3.135   4.386  0.2183 -0.7627  0.0562
   19SAPS  H17X 2522   1.946   3.242   4.367  1.8891 -1.4038 -2.0366
   19SAPS  H17Y 2523   1.930   3.119   4.496  3.4052 -0.3166  0.0563
   19SAPS  C318 2524   1.788   3.092   4.328  0.9290 -0.3216 -0.0149
   19SAPS  H18X 2525   1.791   3.123   4.221 -1.4832 -1.3745 -0.4636
   19SAPS  H18Y 2526   1.703   3.153   4.365  1.2249  0.5026 -0.6487
   19SAPS  H18Z 2527   1.761   2.985   4.332 -0.3254 -0.0242 -0.0203
   20SAPS     N 2528   3.413   2.255   2.208  0.3064  0.0315  0.3880
   20SAPS   HN1 2529   3.507   2.214   2.228  1.4051  1.0280 -2.2300
   20SAPS   HN2 2530   3.366   2.296   2.291 -0.7193  0.7534 -0.5286
   20SAPS   HN3 2531   3.350   2.178   2.180 -1.3762  1.5506 -0.1571
   20SAPS   C12 2532   3.438   2.361   2.112 -0.0929 -0.4470  0.3456
   20SAPS  H12A 2533   3.496   2.332   2.025 -0.9726  0.7458 -0.6739
   20SAPS   C13 2534   3.304   2.408   2.047 -0.4566  0.0629  0.3259
   20SAPS  O13A 2535   3.200   2.335   2.061 -0.5549  0.4129  0.4242
   20SAPS  O13B 2536   3.303   2.504   1.966 -0.7190  0.0905  0.7839
   20SAPS   C11 2537   3.505   2.474   2.182  0.3818 -0.5556  0.5465
   20SAPS  H11A 2538   3.456   2.505   2.277 -1.0859  0.8076 -0.6086
   20SAPS  H11B 2539   3.491   2.563   2.117  0.7490  0.0731  1.3027
   20SAPS     P 2540   3.746   2.552   2.231  0.2282  0.1403 -0.1421
   20SAPS   O13 2541   3.871   2.485   2.237 -0.1941  0.0570 -0.1520
   20SAPS   O14 2542   3.742   2.662   2.136  0.5597 -0.2797 -0.4875
   20SAPS   O12 2543   3.646   2.439   2.199 -0.1225  0.1541  0.6766
   20SAPS   O11 2544   3.696   2.598   2.381  0.2110 -0.6139  0.6343
   20SAPS    C1 2545   3.627   2.509   2.468  0.3128  0.2654  0.4624
   20SAPS    HA 2546   3.520   2.539   2.463  0.5622  1.0559 -0.6152
   20SAPS    HB 2547   3.632   2.405   2.431  1.1776  0.6504 -0.5724
   20SAPS    C2 2548   3.679   2.514   2.615  0.6057  0.1917  1.1938
   20SAPS    HS 2549   3.667   2.622   2.637  1.1165  0.2921  0.9979
   20SAPS   O21 2550   3.815   2.471   2.620  0.2495  0.2427 -0.1754
   20SAPS   C21 2551   3.900   2.571   2.640  0.0758  0.6134  0.4490
   20SAPS   O22 2552   3.873   2.688   2.643 -0.3375  0.0396 -0.2068
   20SAPS   C22 2553   4.032   2.518   2.684 -0.4319 -0.0505 -0.3025
   20SAPS   H2R 2554   4.024   2.408   2.691  0.4023 -0.1861 -1.3455
   20SAPS   H2S 2555   4.088   2.548   2.594 -0.3670  0.8169  0.0143
   20SAPS    C3 2556   3.592   2.441   2.728  0.0281  0.5838  0.9486
   20SAPS    HX 2557   3.574   2.334   2.707  0.7435  0.7035 -0.3656
   20SAPS    HY 2558   3.496   2.493   2.706  0.4668  1.0741  0.1637
   20SAPS   O31 2559   3.627   2.471   2.866 -0.4540  0.6774  0.4970
   20SAPS   C31 2560   3.590   2.390   2.959  0.0818  0.4604 -0.1797
   20SAPS   O32 2561   3.521   2.291   2.942  0.0433 -0.1669  0.0899
   20SAPS   C32 2562   3.635   2.436   3.089  0.2599  0.3056 -0.3288
   20SAPS   H2X 2563   3.593   2.538   3.104 -1.5237 -0.4671  0.1579
   20SAPS   H2Y 2564   3.746   2.432   3.091  0.2671 -1.3490 -1.5312
   20SAPS   C23 2565   4.081   2.589   2.811 -0.6700  0.1616 -0.1999
   20SAPS   H3R 2566   4.026   2.556   2.901 -2.4746 -0.5622 -1.5129
   20SAPS   H3S 2567   4.076   2.700   2.801 -0.3559  0.1065 -1.0573
   20SAPS   C24 2568   4.234   2.558   2.832 -0.4625 -0.8158  0.5538
   20SAPS   H4R 2569   4.276   2.644   2.888 -0.2833 -1.4620  1.4446
   20SAPS   H4S 2570   4.275   2.567   2.729 -0.7477  0.6541  0.5405
   20SAPS   C25 2571   4.259   2.427   2.891  0.5844 -0.4130 -0.3743
   20SAPS   H5R 2572   4.266   2.344   2.819  0.1363 -0.5945 -0.2154
   20SAPS   C26 2573   4.265   2.403   3.024  0.2951 -0.3364  0.3998
   20SAPS   H6R 2574   4.287   2.300   3.056 -0.8213 -0.2724  1.4485
   20SAPS   C27 2575   4.230   2.507   3.132  0.0964 -0.3639  0.7360
   20SAPS   H7R 2576   4.199   2.595   3.072  2.0128 -0.2568 -0.1631
   20SAPS   H7S 2577   4.322   2.529   3.190 -0.2798 -1.7638  1.9407
   20SAPS   C28 2578   4.113   2.456   3.227  0.0542 -0.2858  0.4981
   20SAPS   H8R 2579   4.015   2.429   3.183 -0.6268  2.1053  0.4049
   20SAPS   C29 2580   4.119   2.445   3.361  0.0909  0.1462 -0.3547
   20SAPS   H9R 2581   4.029   2.417   3.417  0.6211 -0.3234  0.2697
   20SAPS  C210 2582   4.238   2.478   3.449  0.7475 -0.5416 -0.2106
   20SAPS  H10R 2583   4.209   2.567   3.508  2.3895  0.8685 -1.4077
   20SAPS  H10S 2584   4.322   2.520   3.389  1.3118  0.0439  0.9387
   20SAPS  C211 2585   4.271   2.361   3.536  0.4039  0.2364 -0.1227
   20SAPS  H11R 2586   4.336   2.286   3.486  0.2291 -1.2291  1.7425
   20SAPS  C212 2587   4.243   2.342   3.667 -0.3999 -0.6777 -0.1526
   20SAPS  H12R 2588   4.281   2.250   3.715  1.9360  0.0221 -0.5536
   20SAPS  C213 2589   4.189   2.445   3.755  0.0717 -0.5586 -0.2757
   20SAPS  H13R 2590   4.114   2.505   3.700 -1.1587 -0.9725  0.8750
   20SAPS  H13S 2591   4.266   2.513   3.796 -0.7426  0.8178 -0.9660
   20SAPS  C214 2592   4.100   2.388   3.867  0.0264  0.4929  0.0407
   20SAPS  H14R 2593   4.004   2.347   3.831 -0.6954  1.3852  0.8919
   20SAPS  C215 2594   4.109   2.380   4.002 -0.3052 -0.2510  0.0481
   20SAPS  H15R 2595   4.014   2.354   4.050 -1.0580  1.0983 -0.6558
   20SAPS  C216 2596   4.219   2.425   4.099 -0.2049 -0.8958  0.2707
   20SAPS  H16R 2597   4.184   2.475   4.192  0.7845 -1.3332  0.8988
   20SAPS  H16S 2598   4.300   2.487   4.056  0.1824 -0.8643  1.0243
   20SAPS  C217 2599   4.303   2.295   4.143 -0.5126  0.1787  0.2607
   20SAPS  H17R 2600   4.390   2.326   4.205  1.6489 -1.4768 -1.7209
   20SAPS  H17S 2601   4.339   2.261   4.043 -1.2295  0.7193 -0.1895
   20SAPS  C218 2602   4.231   2.187   4.223  0.0040  0.3189  1.0392
   20SAPS  H18R 2603   4.151   2.137   4.164 -0.4486 -0.0047  1.9172
   20SAPS  H18S 2604   4.183   2.235   4.310  0.3083  2.2563  0.1912
   20SAPS  C219 2605   4.334   2.063   4.250 -0.6580 -0.2975  0.7443
   20SAPS  H19R 2606   4.440   2.094   4.241 -0.4963 -1.3914 -2.9203
   20SAPS  H19S 2607   4.333   1.982   4.174  0.5364 -1.3235  1.7805
   20SAPS  C220 2608   4.327   1.999   4.389 -0.6337  0.5227  0.2047
   20SAPS  H20R 2609   4.417   1.935   4.403 -0.3740  1.0363  0.9904
   20SAPS  H20S 2610   4.240   1.932   4.400  1.2479 -2.2805 -0.8284
   20SAPS  H20T 2611   4.327   2.079   4.467 -0.0319  0.3069  0.4358
   20SAPS   C33 2612   3.575   2.352   3.202 -0.1694 -0.7553  0.1632
   20SAPS   H3X 2613   3.604   2.246   3.188  2.4008 -0.5611  2.9408
   20SAPS   H3Y 2614   3.465   2.369   3.202  0.2873  3.5826 -2.2831
   20SAPS   C34 2615   3.645   2.391   3.339  0.0882  0.2114 -0.4371
   20SAPS   H4X 2616   3.623   2.494   3.374 -2.8375 -0.6181  0.4577
   20SAPS   H4Y 2617   3.755   2.393   3.328  0.1055  1.1468 -0.1717
   20SAPS   C35 2618   3.636   2.293   3.446  0.5219  0.8459 -1.1109
   20SAPS   H5X 2619   3.679   2.196   3.411  2.1611  1.8521 -2.0416
   20SAPS   H5Y 2620   3.526   2.280   3.453  0.5004  0.9079 -1.3171
   20SAPS   C36 2621   3.692   2.331   3.588  0.5243  0.2331  0.4966
   20SAPS   H6X 2622   3.670   2.439   3.601 -1.1135  0.0565 -0.4728
   20SAPS   H6Y 2623   3.803   2.326   3.594  0.4828 -1.9757  0.1192
   20SAPS   C37 2624   3.622   2.254   3.703  0.3821  1.0321 -0.1452
   20SAPS   H7X 2625   3.650   2.147   3.693 -1.5222  0.2528  2.0807
   20SAPS   H7Y 2626   3.511   2.251   3.689  0.2373 -0.1575  1.1138
   20SAPS   C38 2627   3.672   2.304   3.838 -0.3386  0.6955  0.2112
   20SAPS   H8X 2628   3.655   2.414   3.849 -0.4072  0.6664  0.3852
   20SAPS   H8Y 2629   3.782   2.287   3.829 -0.5223 -0.8421  0.7821
   20SAPS   C39 2630   3.631   2.241   3.968 -0.4237 -0.0230 -0.4305
   20SAPS   H9X 2631   3.639   2.130   3.959  0.3234 -0.1214  1.1711
   20SAPS   H9Y 2632   3.522   2.250   3.984 -0.5551  0.1038 -1.3205
   20SAPS  C310 2633   3.711   2.290   4.085  0.5021  0.0985 -0.1816
   20SAPS  H10X 2634   3.707   2.400   4.100 -1.2224  0.1678 -0.9612
   20SAPS  H10Y 2635   3.817   2.261   4.070  0.2476 -1.4478  0.7838
   20SAPS  C311 2636   3.665   2.216   4.215  0.4297  0.9263  0.3462
   20SAPS  H11X 2637   3.655   2.107   4.198 -0.6831  0.8682  1.2426
   20SAPS  H11Y 2638   3.568   2.263   4.243 -0.5533  0.5073 -2.0510
   20SAPS  C312 2639   3.758   2.244   4.332 -0.5462 -0.3510  0.4706
   20SAPS  H12X 2640   3.824   2.328   4.304  1.1774 -2.1471 -1.2135
   20SAPS  H12Y 2641   3.829   2.159   4.336 -0.1917 -0.1788 -1.2468
   20SAPS  C313 2642   3.691   2.266   4.470 -0.0651  0.1545 -0.0057
   20SAPS  H13X 2643   3.772   2.266   4.547 -0.1021 -0.6502  0.0398
   20SAPS  H13Y 2644   3.624   2.180   4.489  1.9290 -1.7147 -1.0327
   20SAPS  C314 2645   3.612   2.399   4.492 -0.1398 -0.5204 -0.0389
   20SAPS  H14X 2646   3.531   2.400   4.416 -0.3365  0.2863  0.1681
   20SAPS  H14Y 2647   3.685   2.481   4.474  0.8640 -1.1358  1.0783
   20SAPS  C315 2648   3.530   2.406   4.621  0.2491  0.6233  0.7965
   20SAPS  H15X 2649   3.598   2.387   4.707  2.0567  2.4940 -0.1444
   20SAPS  H15Y 2650   3.450   2.328   4.629 -0.2310  1.1211  0.9181
   20SAPS  C316 2651   3.473   2.546   4.637  0.3530 -0.1611 -0.2063
   20SAPS  H16X 2652   3.405   2.557   4.550  2.3163  0.8902 -1.7032
   20SAPS  H16Y 2653   3.563   2.612   4.633  0.0196  0.2942 -0.3600
   20SAPS  C317 2654   3.403   2.567   4.771 -0.1936  0.0812  0.3937
   20SAPS  H17X 2655   3.373   2.674   4.782  0.3985  0.4675 -1.4524
   20SAPS  H17Y 2656   3.478   2.559   4.853 -0.1972  1.8838  0.6156
   20SAPS  C318 2657   3.280   2.476   4.805 -0.3412  0.4029 -0.6501
   20SAPS  H18X 2658   3.225   2.495   4.899  0.3510 -0.0708 -0.1413
   20SAPS  H18Y 2659   3.316   2.371   4.812 -3.1387 -0.6753 -0.9542
   20SAPS  H18Z 2660   3.200   2.487   4.729  0.4982  3.0382 -1.2615
   21CHL1    C3 2661   5.731   1.647   6.114  0.0497 -0.1274  0.2611
   21CHL1    H3 2662   5.839   1.669   6.102  0.8004 -3.4485 -0.0299
   21CHL1    O3 2663   5.712   1.652   6.249  0.1700 -0.5682  0.0854
   21CHL1   H3' 2664   5.783   1.599   6.286  0.1886  0.0181  0.9342
   21CHL1    C4 2665   5.637   1.751   6.048 -0.4751  0.1242  0.2185
   21CHL1   H4A 2666   5.537   1.705   6.063  0.4030 -1.7246  0.7675
   21CHL1   H4B 2667   5.640   1.844   6.108  1.5412 -0.0371  0.4250
   21CHL1    C5 2668   5.660   1.763   5.891  0.3172  0.4066 -0.4009
   21CHL1    C6 2669   5.682   1.880   5.829  0.1076 -0.7435  0.0959
   21CHL1    H6 2670   5.694   1.971   5.890  0.5395 -0.4475 -0.4180
   21CHL1    C7 2671   5.699   1.892   5.680 -0.4246 -0.7118 -0.1246
   21CHL1   H7A 2672   5.639   1.974   5.636  0.4997  0.9453  1.5409
   21CHL1   H7B 2673   5.802   1.921   5.653 -0.3722 -0.4679  0.3276
   21CHL1    C8 2674   5.660   1.761   5.604 -0.3001  0.6432  0.8775
   21CHL1    H8 2675   5.549   1.764   5.595 -0.4066 -0.5245  1.5572
   21CHL1   C14 2676   5.711   1.759   5.464 -0.1905  0.3484 -0.1105
   21CHL1   H14 2677   5.820   1.741   5.476 -0.2120 -0.4087 -0.9324
   21CHL1   C15 2678   5.698   1.891   5.386 -0.5838 -0.1030  0.1893
   21CHL1  H15A 2679   5.599   1.938   5.402  0.6449  2.4124  0.9828
   21CHL1  H15B 2680   5.775   1.969   5.406  0.3836 -0.7464 -0.9040
   21CHL1   C16 2681   5.702   1.848   5.235  0.1290 -0.6259 -0.4868
   21CHL1  H16A 2682   5.600   1.866   5.195 -0.0882  1.1619  0.7209
   21CHL1  H16B 2683   5.769   1.900   5.163 -0.6225 -0.9122 -1.4121
   21CHL1   C17 2684   5.734   1.694   5.234 -0.9370  0.1012 -0.1739
   21CHL1   H17 2685   5.843   1.679   5.248  0.0230  1.2399 -4.6978
   21CHL1   C13 2686   5.670   1.647   5.368 -0.4356  0.5516  0.0569
   21CHL1   C18 2687   5.518   1.638   5.371 -0.3004 -0.5705  0.4051
   21CHL1  H18A 2688   5.472   1.735   5.341  2.0320  0.2914 -0.5970
   21CHL1  H18B 2689   5.471   1.559   5.309 -1.2770 -0.7937  1.3916
   21CHL1  H18C 2690   5.476   1.624   5.473 -0.7702 -0.1576  0.2743
   21CHL1   C12 2691   5.732   1.514   5.429 -0.0217 -0.3634  0.4493
   21CHL1  H12A 2692   5.714   1.416   5.380  1.4024 -0.2653 -0.3375
   21CHL1  H12B 2693   5.841   1.533   5.425 -0.0386 -0.3660 -0.1644
   21CHL1   C11 2694   5.688   1.505   5.578  0.2909 -0.3619 -0.5506
   21CHL1  H11A 2695   5.581   1.473   5.578  1.2636 -4.0071 -0.2255
   21CHL1  H11B 2696   5.750   1.417   5.603  1.6477  0.1311 -1.9885
   21CHL1    C9 2697   5.708   1.632   5.674  0.1660  0.1522  0.5745
   21CHL1    H9 2698   5.817   1.647   5.683  0.0668  3.0639 -1.3758
   21CHL1   C10 2699   5.653   1.627   5.819 -0.0879  0.5080 -0.1124
   21CHL1   C19 2700   5.502   1.586   5.808 -0.6887  0.5204 -0.2308
   21CHL1  H19A 2701   5.443   1.661   5.752 -1.1023 -0.3936 -1.0308
   21CHL1  H19B 2702   5.483   1.480   5.781  0.3113 -0.2437  1.8154
   21CHL1  H19C 2703   5.449   1.591   5.906 -0.0515 -1.0215  0.2235
   21CHL1    C1 2704   5.725   1.514   5.896 -0.6067 -0.5094  0.3804
   21CHL1   H1A 2705   5.696   1.420   5.844  1.3000 -0.9256 -0.0346
   21CHL1   H1B 2706   5.835   1.517   5.878 -0.5820 -0.0534  0.5893
   21CHL1    C2 2707   5.698   1.514   6.045  0.3623 -0.1778 -0.1678
   21CHL1   H2A 2708   5.757   1.432   6.091 -1.5138 -1.6277 -0.2517
   21CHL1   H2B 2709   5.595   1.480   6.067  0.1462  0.5444 -0.0150
   21CHL1   C20 2710   5.696   1.623   5.101 -0.4995  0.1920 -0.3026
   21CHL1   H20 2711   5.590   1.646   5.076 -0.5403 -0.2829 -0.5578
   21CHL1   C21 2712   5.714   1.474   5.123 -0.5324  0.3624  0.3405
   21CHL1  H21A 2713   5.635   1.446   5.197 -1.3953  3.6032  0.7899
   21CHL1  H21B 2714   5.819   1.441   5.134 -1.4013 -2.0266  2.7796
   21CHL1  H21C 2715   5.676   1.420   5.033 -0.3686  2.0720 -0.7972
   21CHL1   C22 2716   5.773   1.686   4.980  0.0690 -0.6045 -0.6766
   21CHL1  H22A 2717   5.799   1.792   4.995 -1.1455 -0.5144  1.0693
   21CHL1  H22B 2718   5.870   1.632   4.978 -0.1278 -0.9600 -0.7593
   21CHL1   C23 2719   5.709   1.655   4.844  0.0222  0.4040  0.3869
   21CHL1  H23A 2720   5.688   1.546   4.840  0.0655  0.3783  0.8446
   21CHL1  H23B 2721   5.610   1.704   4.843  0.3528  1.1550  1.8511
   21CHL1   C24 2722   5.799   1.692   4.723  0.1931 -0.2515  0.0743
   21CHL1  H24A 2723   5.799   1.801   4.704 -2.1960 -0.8499 -4.6229
   21CHL1  H24B 2724   5.899   1.648   4.743  0.0697 -0.5116  0.1220
   21CHL1   C25 2725   5.759   1.627   4.584  0.1098 -0.1020  0.7804
   21CHL1   H25 2726   5.761   1.517   4.597 -0.0521 -0.3728 -1.2050
   21CHL1   C26 2727   5.618   1.676   4.555  0.5674  0.0358 -0.3273
   21CHL1  H26A 2728   5.625   1.787   4.559 -2.6958  0.3157  0.2152
   21CHL1  H26B 2729   5.586   1.642   4.454 -2.5999  0.8810  0.2922
   21CHL1  H26C 2730   5.547   1.648   4.635 -1.0534  2.1823 -0.8932
   21CHL1   C27 2731   5.862   1.657   4.468  0.8100 -0.2257  0.0741
   21CHL1  H27A 2732   5.964   1.622   4.493  0.8189 -1.2097 -1.2279
   21CHL1  H27B 2733   5.829   1.598   4.380 -1.8249  1.8276 -0.4422
   21CHL1  H27C 2734   5.858   1.765   4.445  1.2373 -0.2022  0.1055
   22CHL1    C3 2735   2.313   6.592   6.128 -0.2639 -0.5738 -0.0676
   22CHL1    H3 2736   2.423   6.607   6.118  0.0546 -1.2312  2.0099
   22CHL1    O3 2737   2.288   6.587   6.264  0.2994  0.0655 -0.0320
   22CHL1   H3' 2738   2.201   6.550   6.279  0.5448 -0.1101  1.0753
   22CHL1    C4 2739   2.235   6.702   6.057  0.0981 -0.8359 -0.3184
   22CHL1   H4A 2740   2.126   6.704   6.077 -0.1446 -0.9788 -1.5499
   22CHL1   H4B 2741   2.278   6.796   6.096  2.8580 -2.4713  0.8388
   22CHL1    C5 2742   2.240   6.699   5.905 -0.9022 -0.3422 -0.7781
   22CHL1    C6 2743   2.278   6.809   5.841  0.1272 -0.6822  0.2325
   22CHL1    H6 2744   2.307   6.903   5.889  1.9361 -1.9522  1.7788
   22CHL1    C7 2745   2.304   6.817   5.697  0.8786  0.2023  0.6994
   22CHL1   H7A 2746   2.271   6.916   5.658 -0.2907 -0.0901  0.9131
   22CHL1   H7B 2747   2.412   6.808   5.672  0.6598  0.7341 -0.5215
   22CHL1    C8 2748   2.234   6.702   5.617 -0.2758  0.3924 -1.2785
   22CHL1    H8 2749   2.123   6.711   5.621 -0.5141 -2.1119 -0.1727
   22CHL1   C14 2750   2.297   6.685   5.477  0.4192 -0.2117  0.2000
   22CHL1   H14 2751   2.402   6.654   5.497  0.4532  0.1676  0.6315
   22CHL1   C15 2752   2.312   6.819   5.394  0.1537  0.1186  0.1389
   22CHL1  H15A 2753   2.222   6.879   5.416 -0.6147 -1.6900  2.3542
   22CHL1  H15B 2754   2.401   6.882   5.418 -1.0979  1.8721  0.3010
   22CHL1   C16 2755   2.322   6.758   5.249 -0.3026 -0.7426 -1.1155
   22CHL1  H16A 2756   2.236   6.795   5.189 -0.1759  0.1070 -0.7937
   22CHL1  H16B 2757   2.410   6.799   5.194  0.5658 -0.3655  0.4778
   22CHL1   C17 2758   2.319   6.605   5.256 -0.3732  0.5755  0.2604
   22CHL1   H17 2759   2.422   6.565   5.271 -0.5460 -0.1003 -0.3233
   22CHL1   C13 2760   2.241   6.579   5.387 -0.2991  0.4743 -0.3030
   22CHL1   C18 2761   2.088   6.601   5.357 -0.0050 -0.4747 -0.1765
   22CHL1  H18A 2762   2.060   6.534   5.273  0.4073  0.7839 -1.3501
   22CHL1  H18B 2763   2.028   6.572   5.446 -1.9696  0.0778 -1.2872
   22CHL1  H18C 2764   2.056   6.706   5.340  0.1671 -0.3686  0.1328
   22CHL1   C12 2765   2.264   6.448   5.460  0.5307  0.0923 -0.5357
   22CHL1  H12A 2766   2.208   6.366   5.409 -0.1393  0.1886  0.0244
   22CHL1  H12B 2767   2.371   6.436   5.434 -0.2873 -0.7530 -4.2284
   22CHL1   C11 2768   2.233   6.447   5.608 -0.5844  0.5439 -0.0711
   22CHL1  H11A 2769   2.124   6.428   5.615 -0.5154 -1.3894 -2.6530
   22CHL1  H11B 2770   2.283   6.357   5.650  1.5050  0.4195 -2.5829
   22CHL1    C9 2771   2.270   6.565   5.693 -0.0960 -0.4586  1.3294
   22CHL1    H9 2772   2.381   6.557   5.691  0.0579  0.3431 -2.9051
   22CHL1   C10 2773   2.218   6.562   5.844 -0.0220  0.3989  0.3937
   22CHL1   C19 2774   2.070   6.510   5.857  0.3360 -0.0244  0.1404
   22CHL1  H19A 2775   2.030   6.514   5.961 -2.1598 -1.2659 -0.7074
   22CHL1  H19B 2776   2.002   6.578   5.801  0.9339  1.6323  1.3375
   22CHL1  H19C 2777   2.053   6.405   5.828  0.4584 -1.1512  3.7005
   22CHL1    C1 2778   2.312   6.462   5.914  0.3623 -0.4768 -0.2417
   22CHL1   H1A 2779   2.287   6.360   5.876  0.7815 -1.9428  3.1121
   22CHL1   H1B 2780   2.421   6.476   5.897  0.6316 -1.3673  0.7058
   22CHL1    C2 2781   2.298   6.452   6.069  0.1832 -0.5291  0.4932
   22CHL1   H2A 2782   2.360   6.375   6.120  0.0878  0.0331  1.4776
   22CHL1   H2B 2783   2.192   6.432   6.097  0.6404  0.8865  3.5429
   22CHL1   C20 2784   2.274   6.543   5.127  0.3554 -0.6773  0.1015
   22CHL1   H20 2785   2.167   6.565   5.107 -0.3163 -0.1051  3.7554
   22CHL1   C21 2786   2.280   6.387   5.128  0.3408 -0.5655  0.4361
   22CHL1  H21A 2787   2.256   6.341   5.030  1.0904 -2.5790  1.1356
   22CHL1  H21B 2788   2.207   6.345   5.201 -1.1134  2.2976  0.7450
   22CHL1  H21C 2789   2.383   6.354   5.154  0.8582 -0.4328 -1.3213
   22CHL1   C22 2790   2.352   6.589   5.002 -0.1305 -0.1691 -0.6585
   22CHL1  H22A 2791   2.297   6.537   4.921  1.1697 -0.4926 -1.3512
   22CHL1  H22B 2792   2.351   6.700   4.994  1.1375 -0.1319 -0.5055
   22CHL1   C23 2793   2.499   6.544   4.994 -0.2638  0.3461  1.1416
   22CHL1  H23A 2794   2.548   6.572   5.090  0.9207  1.8732  0.1474
   22CHL1  H23B 2795   2.511   6.435   4.977  0.2965  0.5915 -0.1770
   22CHL1   C24 2796   2.576   6.609   4.881  0.2945 -0.2771  0.4979
   22CHL1  H24A 2797   2.505   6.601   4.796  2.7078 -0.6143 -1.6245
   22CHL1  H24B 2798   2.588   6.716   4.909 -5.1809  0.5400  0.6810
   22CHL1   C25 2799   2.711   6.543   4.845  0.4974  0.3677 -0.6028
   22CHL1   H25 2800   2.771   6.523   4.936  0.0180 -0.9865 -0.5562
   22CHL1   C26 2801   2.698   6.404   4.775 -0.3088  0.0339 -0.2684
   22CHL1  H26A 2802   2.653   6.332   4.847 -0.8496  2.0094  1.4703
   22CHL1  H26B 2803   2.631   6.399   4.686  0.1725 -1.2159 -0.5788
   22CHL1  H26C 2804   2.794   6.351   4.759 -0.1996  0.4438 -1.0146
   22CHL1   C27 2805   2.791   6.632   4.750 -0.1746  0.9200 -0.3997
   22CHL1  H27A 2806   2.889   6.587   4.725  0.7961  1.7414  1.6557
   22CHL1  H27B 2807   2.731   6.640   4.657 -0.7045  0.0445 -0.1430
   22CHL1  H27C 2808   2.805   6.728   4.804  2.2600 -0.4946  1.6994
   23CHL1    C3 2809   5.865   0.261   6.129  0.4354 -0.5649 -0.4942
   23CHL1    H3 2810   5.775   0.208   6.091  0.0006  0.7803 -1.4532
   23CHL1    O3 2811   5.863   0.268   6.272  0.5503  0.6634 -0.2585
   23CHL1   H3' 2812   5.880   0.359   6.298 -0.6562  1.2148 -1.3273
   23CHL1    C4 2813   5.990   0.181   6.070  0.2912  0.1841  0.0785
   23CHL1   H4A 2814   6.083   0.226   6.110  1.4264 -1.3407 -0.7405
   23CHL1   H4B 2815   5.980   0.082   6.119  2.0892  0.1622  0.4543
   23CHL1    C5 2816   5.993   0.169   5.916 -0.3461 -0.8309 -0.5801
   23CHL1    C6 2817   6.003   0.056   5.846  0.1618 -0.1590 -0.3109
   23CHL1    H6 2818   6.011  -0.045   5.889 -1.0432 -1.3690 -2.7446
   23CHL1    C7 2819   5.998   0.059   5.698 -0.1249 -0.5044  0.2614
   23CHL1   H7A 2820   6.068  -0.014   5.653  1.1285  0.1114  1.1501
   23CHL1   H7B 2821   5.892   0.041   5.672  0.0096  1.4668 -2.0606
   23CHL1    C8 2822   6.012   0.196   5.627  0.0850  0.2089 -0.4189
   23CHL1    H8 2823   6.119   0.227   5.629  0.1109  0.1514  2.0937
   23CHL1   C14 2824   5.964   0.184   5.481 -0.2092 -0.1222 -0.0544
   23CHL1   H14 2825   5.856   0.162   5.486 -0.0381 -0.7589  1.1127
   23CHL1   C15 2826   6.008   0.075   5.387  0.1619 -0.2326  0.5140
   23CHL1  H15A 2827   6.113   0.055   5.418  0.7138 -0.5126 -1.4409
   23CHL1  H15B 2828   5.946  -0.016   5.399  0.4264 -0.4724  0.0856
   23CHL1   C16 2829   5.993   0.142   5.246  0.1488  0.4848  0.3731
   23CHL1  H16A 2830   6.096   0.141   5.203  0.2059 -1.2592  0.4608
   23CHL1  H16B 2831   5.927   0.071   5.191 -1.3633  2.3637 -0.3480
   23CHL1   C17 2832   5.937   0.283   5.267 -0.3893 -0.0970 -0.2146
   23CHL1   H17 2833   5.827   0.275   5.270 -0.3281 -1.1665 -0.4375
   23CHL1   C13 2834   5.973   0.323   5.408  0.2126  0.3120  0.3551
   23CHL1   C18 2835   6.122   0.370   5.411 -0.4241  0.1231 -0.2685
   23CHL1  H18A 2836   6.196   0.314   5.350  0.2390  0.4344  0.2483
   23CHL1  H18B 2837   6.121   0.476   5.377 -1.3566 -0.0544 -0.8338
   23CHL1  H18C 2838   6.159   0.379   5.515  0.2091 -2.1637 -0.2388
   23CHL1   C12 2839   5.876   0.429   5.481  0.4060  0.8806  0.1152
   23CHL1  H12A 2840   5.882   0.526   5.428 -0.9083  2.7849  3.1840
   23CHL1  H12B 2841   5.773   0.388   5.475  0.3432  1.0967 -0.2682
   23CHL1   C11 2842   5.922   0.434   5.627 -0.2978 -1.3445  0.4399
   23CHL1  H11A 2843   6.017   0.492   5.629 -0.2636 -1.3861  0.0688
   23CHL1  H11B 2844   5.852   0.506   5.675 -0.5047 -1.8687  0.9345
   23CHL1    C9 2845   5.928   0.298   5.700  0.0704 -0.3508 -0.3753
   23CHL1    H9 2846   5.821   0.267   5.698 -0.9621  2.9243 -0.8305
   23CHL1   C10 2847   5.963   0.316   5.852 -0.4675  0.3241  0.0720
   23CHL1   C19 2848   6.101   0.394   5.867 -0.5279 -1.0114 -0.2056
   23CHL1  H19A 2849   6.155   0.390   5.964  1.0094 -0.9681 -1.0306
   23CHL1  H19B 2850   6.180   0.340   5.810  1.1092 -0.6249  1.5966
   23CHL1  H19C 2851   6.090   0.498   5.829 -1.2422 -0.1031  2.3290
   23CHL1    C1 2852   5.849   0.396   5.914 -0.6007 -0.5498 -0.2100
   23CHL1   H1A 2853   5.868   0.499   5.877  0.1007 -0.5551  0.1223
   23CHL1   H1B 2854   5.749   0.356   5.886 -1.4541 -0.2333  2.1062
   23CHL1    C2 2855   5.861   0.409   6.070 -0.1532  0.3495  0.5205
   23CHL1   H2A 2856   5.772   0.458   6.114 -1.6909 -1.8821  0.0840
   23CHL1   H2B 2857   5.958   0.458   6.091  0.4466 -1.4217  2.0800
   23CHL1   C20 2858   5.960   0.395   5.162  0.8761 -0.0128 -0.2110
   23CHL1   H20 2859   6.001   0.486   5.210  1.4270 -0.3535 -0.0230
   23CHL1   C21 2860   5.818   0.423   5.102  0.1343  0.0003 -0.6824
   23CHL1  H21A 2861   5.745   0.453   5.180 -1.9863  0.9939 -2.9112
   23CHL1  H21B 2862   5.797   0.328   5.049 -1.1917  0.2595 -0.6449
   23CHL1  H21C 2863   5.826   0.508   5.031 -0.2700 -0.1042 -0.8569
   23CHL1   C22 2864   6.064   0.355   5.050 -0.1151  0.3696 -0.0469
   23CHL1  H22A 2865   6.148   0.310   5.107 -1.6575 -5.4990 -1.7401
   23CHL1  H22B 2866   6.020   0.269   4.996  2.3711  1.0625 -3.5378
   23CHL1   C23 2867   6.103   0.466   4.952  0.1221 -0.1930  0.1769
   23CHL1  H23A 2868   6.008   0.515   4.923 -1.0920 -2.5193 -0.0229
   23CHL1  H23B 2869   6.164   0.543   5.004 -1.1145 -0.6623  2.4175
   23CHL1   C24 2870   6.179   0.417   4.829  0.1313 -0.1579  0.1514
   23CHL1  H24A 2871   6.281   0.387   4.862  0.1881  0.2742  0.3826
   23CHL1  H24B 2872   6.126   0.326   4.794 -2.2670  1.7849 -1.7129
   23CHL1   C25 2873   6.190   0.514   4.707  0.0203 -0.2124  0.0374
   23CHL1   H25 2874   6.084   0.540   4.683  0.0252  0.0084  0.2476
   23CHL1   C26 2875   6.261   0.641   4.750  0.2726 -0.2829  0.8784
   23CHL1  H26A 2876   6.362   0.624   4.792  0.0306 -0.6120  1.3350
   23CHL1  H26B 2877   6.259   0.719   4.671  0.6159 -2.2036 -1.1077
   23CHL1  H26C 2878   6.199   0.694   4.826 -0.3085 -1.5501  1.3151
   23CHL1   C27 2879   6.261   0.460   4.584 -0.3593  0.6889  0.2251
   23CHL1  H27A 2880   6.261   0.539   4.506  0.0800  0.5476  0.0842
   23CHL1  H27B 2881   6.366   0.440   4.611 -0.4533 -3.5198 -1.7246
   23CHL1  H27C 2882   6.225   0.367   4.536 -0.0776  1.4330 -1.5029
   24CHL1    C3 2883   6.058   1.011   6.174  0.2536  0.3539  0.2758
   24CHL1    H3 2884   6.127   1.095   6.150  0.1669  0.4088  0.2168
   24CHL1    O3 2885   6.043   0.992   6.313 -0.3696  0.2679  0.0072
   24CHL1   H3' 2886   5.956   1.026   6.339 -0.4892 -0.5285  0.7043
   24CHL1    C4 2887   5.923   1.037   6.120 -0.5056 -0.3736  0.3919
   24CHL1   H4A 2888   5.856   0.958   6.160  0.9769 -2.1958 -0.5360
   24CHL1   H4B 2889   5.898   1.135   6.165  1.2961  0.8453 -1.0796
   24CHL1    C5 2890   5.924   1.043   5.970 -0.0348  0.8625 -0.4267
   24CHL1    C6 2891   5.899   1.159   5.903 -0.2831  0.0083  0.0888
   24CHL1    H6 2892   5.879   1.245   5.969  2.8868  0.6637  0.3471
   24CHL1    C7 2893   5.906   1.173   5.752 -0.6460 -0.0655 -0.7102
   24CHL1   H7A 2894   5.826   1.234   5.705 -1.0375 -1.1418 -1.4781
   24CHL1   H7B 2895   6.005   1.224   5.740  0.6381 -1.9796  1.0657
   24CHL1    C8 2896   5.900   1.041   5.687  0.3457  0.3302  0.8390
   24CHL1    H8 2897   5.795   1.008   5.698  0.8080 -1.4817  0.2716
   24CHL1   C14 2898   5.922   1.059   5.530  0.6551  0.7382  0.1756
   24CHL1   H14 2899   6.026   1.099   5.525  0.5877  0.9299  0.3336
   24CHL1   C15 2900   5.829   1.147   5.448 -0.5420 -0.0694 -0.7517
   24CHL1  H15A 2901   5.725   1.123   5.477  0.2825 -3.2453 -0.0312
   24CHL1  H15B 2902   5.832   1.254   5.476  1.0822 -0.4203  0.5612
   24CHL1   C16 2903   5.855   1.111   5.303  0.8457  0.0924  1.0291
   24CHL1  H16A 2904   5.761   1.088   5.249  1.5579  0.4153 -0.3811
   24CHL1  H16B 2905   5.885   1.207   5.256  1.6409  0.2478  1.8159
   24CHL1   C17 2906   5.952   0.987   5.309  0.2409  0.2530 -0.1510
   24CHL1   H17 2907   6.058   1.021   5.310  0.5918 -0.8079 -0.2769
   24CHL1   C13 2908   5.930   0.924   5.450 -0.2027 -0.8366 -0.3182
   24CHL1   C18 2909   5.796   0.848   5.449  0.1178 -0.0761  0.2894
   24CHL1  H18A 2910   5.714   0.908   5.404 -1.7245 -0.8649  2.3923
   24CHL1  H18B 2911   5.819   0.757   5.389  0.0094 -0.0932  0.2725
   24CHL1  H18C 2912   5.769   0.799   5.545  1.6421  1.4181  1.5364
   24CHL1   C12 2913   6.041   0.844   5.518 -0.4415  1.0148  0.2046
   24CHL1  H12A 2914   6.052   0.746   5.466 -0.6193  1.1525 -0.0960
   24CHL1  H12B 2915   6.139   0.896   5.517  0.2619 -0.2260  1.2578
   24CHL1   C11 2916   6.015   0.809   5.662  0.1555  0.4434 -0.3514
   24CHL1  H11A 2917   5.924   0.745   5.662  0.8587 -0.6447 -2.0306
   24CHL1  H11B 2918   6.093   0.745   5.710  1.7692  1.9018 -0.8941
   24CHL1    C9 2919   5.997   0.943   5.750 -0.3692  0.0058 -1.0183
   24CHL1    H9 2920   6.091   1.001   5.739  0.9646 -1.8537 -0.1701
   24CHL1   C10 2921   5.981   0.921   5.901  0.1401 -0.4359 -0.2140
   24CHL1   C19 2922   5.873   0.812   5.927  0.1522  0.3517  0.2350
   24CHL1  H19A 2923   5.855   0.787   6.034  0.0147 -0.7386 -0.0239
   24CHL1  H19B 2924   5.775   0.846   5.887  0.6202 -0.4163 -1.6903
   24CHL1  H19C 2925   5.896   0.717   5.872  1.7563  1.4475 -1.0797
   24CHL1    C1 2926   6.118   0.878   5.969  0.3880  0.1998 -0.1380
   24CHL1   H1A 2927   6.130   0.773   5.936 -0.1947  0.1443 -0.1817
   24CHL1   H1B 2928   6.193   0.948   5.925  1.0220 -0.8270 -0.7305
   24CHL1    C2 2929   6.118   0.876   6.119  0.0688  0.1746  0.5465
   24CHL1   H2A 2930   6.213   0.854   6.171 -1.3498 -1.1784  2.7866
   24CHL1   H2B 2931   6.057   0.793   6.162 -1.8685  0.6535 -1.1204
   24CHL1   C20 2932   5.944   0.895   5.183 -0.4061  0.4360 -0.0714
   24CHL1   H20 2933   5.841   0.863   5.156  0.2013  0.1509 -2.2381
   24CHL1   C21 2934   6.027   0.769   5.202  0.6348  0.0494 -0.1799
   24CHL1  H21A 2935   5.972   0.698   5.267 -1.2263  1.2174 -0.3885
   24CHL1  H21B 2936   6.127   0.789   5.245  0.0568  1.3862  0.6077
   24CHL1  H21C 2937   6.039   0.704   5.112 -0.2436 -2.8368  1.6591
   24CHL1   C22 2938   5.992   0.966   5.052  0.1246 -0.1186  0.2325
   24CHL1  H22A 2939   5.980   0.896   4.967 -0.2015 -1.2201  1.1508
   24CHL1  H22B 2940   5.929   1.056   5.032  1.1080  0.3026 -1.0704
   24CHL1   C23 2941   6.142   1.012   5.042 -0.0308  0.4346 -0.5065
   24CHL1  H23A 2942   6.164   1.106   5.096 -1.4264  1.4342 -1.5923
   24CHL1  H23B 2943   6.206   0.933   5.087  0.3852  1.5344  0.9021
   24CHL1   C24 2944   6.172   1.038   4.891 -0.1198 -0.5655  0.4110
   24CHL1  H24A 2945   6.148   0.952   4.825 -0.9409 -0.1715  0.1933
   24CHL1  H24B 2946   6.097   1.114   4.862 -0.0967 -0.6473  0.1312
   24CHL1   C25 2947   6.316   1.082   4.853  0.0229 -0.8704 -0.6556
   24CHL1   H25 2948   6.339   1.176   4.908 -0.8384 -1.5105  0.8611
   24CHL1   C26 2949   6.429   0.973   4.877  0.3482 -0.5991  0.0594
   24CHL1  H26A 2950   6.435   0.949   4.985 -0.1154 -0.2325  0.1712
   24CHL1  H26B 2951   6.411   0.880   4.818  1.5989 -2.0552  1.8745
   24CHL1  H26C 2952   6.529   1.005   4.840  0.1192 -1.5117 -1.4687
   24CHL1   C27 2953   6.322   1.129   4.708 -0.2208 -0.4957  0.1690
   24CHL1  H27A 2954   6.409   1.192   4.683  1.4978 -2.6558  0.3973
   24CHL1  H27B 2955   6.318   1.043   4.637 -1.9623 -2.5859  2.5654
   24CHL1  H27C 2956   6.233   1.193   4.693 -1.7746 -2.9178 -1.9534
   25CHL1    C3 2957   0.261   2.656   6.164 -0.2420  0.3611 -0.0230
   25CHL1    H3 2958   0.181   2.583   6.137  1.7917 -1.7713 -0.6045
   25CHL1    O3 2959   0.259   2.668   6.307 -0.4367 -0.0545  0.3130
   25CHL1   H3' 2960   0.285   2.581   6.337  0.8791  0.6745  1.4316
   25CHL1    C4 2961   0.391   2.584   6.106 -0.1340 -0.1921  0.2413
   25CHL1   H4A 2962   0.486   2.620   6.151 -0.6061 -2.9416  3.8567
   25CHL1   H4B 2963   0.394   2.478   6.138 -0.0114  0.3640  2.1635
   25CHL1    C5 2964   0.409   2.585   5.953  0.0224 -0.1225 -0.3600
   25CHL1    C6 2965   0.422   2.472   5.887 -0.0045  0.4205  0.1206
   25CHL1    H6 2966   0.419   2.377   5.943 -1.5126  0.5070  0.2436
   25CHL1    C7 2967   0.455   2.469   5.738 -0.0453 -0.2285  0.0627
   25CHL1   H7A 2968   0.523   2.388   5.706 -0.1245 -0.4476  0.4400
   25CHL1   H7B 2969   0.357   2.436   5.698 -1.0054  2.2979  0.1575
   25CHL1    C8 2970   0.492   2.605   5.681  0.0186 -0.2490 -0.0699
   25CHL1    H8 2971   0.595   2.628   5.715 -0.9659  2.5159  1.3061
   25CHL1   C14 2972   0.488   2.600   5.531  0.1977 -0.2904 -0.6433
   25CHL1   H14 2973   0.389   2.565   5.497 -0.0498 -0.8874  0.6537
   25CHL1   C15 2974   0.594   2.508   5.463 -0.5290 -0.0941 -0.3164
   25CHL1  H15A 2975   0.694   2.526   5.509 -1.0743 -1.1490  1.3979
   25CHL1  H15B 2976   0.570   2.402   5.485 -1.1406 -0.3135 -1.9029
   25CHL1   C16 2977   0.573   2.541   5.315  0.4909  0.4119 -0.1789
   25CHL1  H16A 2978   0.670   2.523   5.265  0.1731  0.8292 -0.9732
   25CHL1  H16B 2979   0.507   2.469   5.261 -1.2076  0.4057  1.7953
   25CHL1   C17 2980   0.512   2.684   5.308 -0.1678 -0.3407 -0.4051
   25CHL1   H17 2981   0.404   2.678   5.282 -0.1445  0.4192 -0.7091
   25CHL1   C13 2982   0.521   2.735   5.454 -0.1112  0.7656  0.2913
   25CHL1   C18 2983   0.665   2.782   5.491 -0.0944  0.7421 -0.0801
   25CHL1  H18A 2984   0.681   2.880   5.441 -0.8787  0.7411 -0.3386
   25CHL1  H18B 2985   0.674   2.793   5.601 -1.5174  0.1145  0.1095
   25CHL1  H18C 2986   0.745   2.715   5.452 -0.0863 -1.6201  3.4996
   25CHL1   C12 2987   0.427   2.835   5.507 -0.2814  0.4902  0.0995
   25CHL1  H12A 2988   0.450   2.938   5.471 -1.3236  1.3686  1.8525
   25CHL1  H12B 2989   0.330   2.799   5.466  0.3860 -1.3612  0.0485
   25CHL1   C11 2990   0.412   2.849   5.661  0.0400  0.1252  0.5478
   25CHL1  H11A 2991   0.501   2.904   5.697  0.1010  0.7089 -0.4735
   25CHL1  H11B 2992   0.325   2.914   5.686 -2.0347 -1.8571 -1.0390
   25CHL1    C9 2993   0.399   2.713   5.735  0.0734 -0.3109 -0.8593
   25CHL1    H9 2994   0.303   2.662   5.710  0.5216 -1.3045 -0.6073
   25CHL1   C10 2995   0.396   2.722   5.891  0.3830  0.1872  0.2293
   25CHL1   C19 2996   0.516   2.811   5.942 -0.3069  0.9367 -0.3814
   25CHL1  H19A 2997   0.502   2.920   5.922  0.6066  1.3016  0.8206
   25CHL1  H19B 2998   0.520   2.816   6.053  0.5010 -0.3365 -0.3363
   25CHL1  H19C 2999   0.616   2.778   5.907 -0.7225  0.3045 -0.9983
   25CHL1    C1 3000   0.269   2.807   5.939 -0.7622  0.3434  0.5808
   25CHL1   H1A 3001   0.275   2.913   5.905  0.3714  0.0011 -0.3565
   25CHL1   H1B 3002   0.182   2.752   5.898  0.5493 -1.0396 -0.4585
   25CHL1    C2 3003   0.254   2.802   6.096 -0.0980 -0.2826  0.4228
   25CHL1   H2A 3004   0.170   2.864   6.134  0.5889  0.7014  0.3719
   25CHL1   H2B 3005   0.337   2.862   6.137 -1.0636 -0.5852  2.9723
   25CHL1   C20 3006   0.568   2.769   5.193  0.2599 -0.4378  0.2451
   25CHL1   H20 3007   0.674   2.794   5.215  0.6312 -0.0702 -1.7496
   25CHL1   C21 3008   0.478   2.889   5.168  0.7980  0.0038 -0.9175
   25CHL1  H21A 3009   0.473   2.952   5.259 -1.7911 -0.6021 -0.5829
   25CHL1  H21B 3010   0.374   2.861   5.143  0.2255  0.6745  0.6233
   25CHL1  H21C 3011   0.505   2.956   5.083  1.8018  1.1819  0.2726
   25CHL1   C22 3012   0.578   2.690   5.059 -0.0510  0.1710 -1.1008
   25CHL1  H22A 3013   0.652   2.607   5.063  1.6763  1.6687 -0.4841
   25CHL1  H22B 3014   0.477   2.644   5.057  0.3335 -0.7103 -0.8840
   25CHL1   C23 3015   0.607   2.769   4.930 -0.2511 -0.0999  0.1373
   25CHL1  H23A 3016   0.519   2.834   4.916 -0.7332 -0.5077  1.1543
   25CHL1  H23B 3017   0.700   2.831   4.934 -0.4164  0.1679 -0.1781
   25CHL1   C24 3018   0.615   2.679   4.798 -0.3456 -0.2104  0.7440
   25CHL1  H24A 3019   0.695   2.602   4.798 -1.0755 -1.1950 -2.9165
   25CHL1  H24B 3020   0.523   2.617   4.794  0.0626 -0.8041  0.2324
   25CHL1   C25 3021   0.638   2.773   4.672  0.5634 -0.2317 -0.7010
   25CHL1   H25 3022   0.558   2.848   4.685  1.7529  1.0652 -0.6923
   25CHL1   C26 3023   0.780   2.841   4.659  0.2518  0.0380 -0.2279
   25CHL1  H26A 3024   0.778   2.905   4.569 -3.5883 -0.8020 -0.9069
   25CHL1  H26B 3025   0.804   2.910   4.742  0.0658  1.2600 -1.1654
   25CHL1  H26C 3026   0.855   2.760   4.648  0.0762 -0.3372  1.0864
   25CHL1   C27 3027   0.617   2.696   4.544 -0.1675 -0.1639 -0.3695
   25CHL1  H27A 3028   0.699   2.623   4.526 -2.9505 -3.3472 -1.2159
   25CHL1  H27B 3029   0.530   2.628   4.557  0.8099 -1.4295 -0.1515
   25CHL1  H27C 3030   0.601   2.761   4.456 -0.2694 -0.9860 -0.9727
   26CHL1    C3 3031   1.522   1.506   6.171  1.2375 -0.3212  0.0561
   26CHL1    H3 3032   1.417   1.495   6.136  1.1848 -0.6363  0.3050
   26CHL1    O3 3033   1.522   1.507   6.310  0.0526  0.2388 -0.2471
   26CHL1   H3' 3034   1.614   1.514   6.336 -0.3793  1.0936  1.1490
   26CHL1    C4 3035   1.615   1.393   6.127  0.4135  0.0386 -0.0878
   26CHL1   H4A 3036   1.717   1.405   6.171  0.6226 -0.2280 -0.4985
   26CHL1   H4B 3037   1.581   1.298   6.174  1.5833 -0.4888 -0.2674
   26CHL1    C5 3038   1.630   1.380   5.974  0.0174  0.4319  0.4967
   26CHL1    C6 3039   1.593   1.266   5.912  0.1339 -0.4083  0.2080
   26CHL1    H6 3040   1.572   1.185   5.983 -1.5905 -1.9039 -1.8402
   26CHL1    C7 3041   1.589   1.238   5.760 -0.6048 -0.2251 -0.8131
   26CHL1   H7A 3042   1.642   1.142   5.739  0.1574 -0.0621  0.2395
   26CHL1   H7B 3043   1.483   1.228   5.728 -0.9305  0.7034 -0.0846
   26CHL1    C8 3044   1.657   1.354   5.683  0.3669 -0.6213  0.2916
   26CHL1    H8 3045   1.765   1.338   5.704  0.5760  0.5438  0.1543
   26CHL1   C14 3046   1.622   1.352   5.531  0.3642 -0.4829 -0.3341
   26CHL1   H14 3047   1.511   1.366   5.529  0.5503  1.2395 -1.1974
   26CHL1   C15 3048   1.660   1.220   5.449 -0.4737 -0.0521 -1.0506
   26CHL1  H15A 3049   1.756   1.182   5.491  0.3901  0.8005 -2.1951
   26CHL1  H15B 3050   1.581   1.145   5.470 -1.6429  1.4583  0.1809
   26CHL1   C16 3051   1.675   1.268   5.302 -0.4691  0.5154 -0.6826
   26CHL1  H16A 3052   1.780   1.252   5.269 -0.8396 -4.7202 -0.2515
   26CHL1  H16B 3053   1.608   1.203   5.243 -0.8304  0.3040 -0.0516
   26CHL1   C17 3054   1.631   1.416   5.309 -0.2270 -0.6784  0.2653
   26CHL1   H17 3055   1.520   1.409   5.313 -0.1653 -1.8704  0.3241
   26CHL1   C13 3056   1.671   1.470   5.447  0.1106  0.5259 -0.0637
   26CHL1   C18 3057   1.822   1.481   5.445 -0.3422  0.8325  0.1328
   26CHL1  H18A 3058   1.841   1.572   5.385 -1.8989  0.9034 -0.2810
   26CHL1  H18B 3059   1.866   1.493   5.547  1.3742 -0.2123 -0.4373
   26CHL1  H18C 3060   1.874   1.391   5.405 -3.0445 -0.2983 -1.0420
   26CHL1   C12 3061   1.604   1.596   5.510  0.4462 -0.0215 -0.5617
   26CHL1  H12A 3062   1.642   1.686   5.458  0.5093  0.6450  0.5958
   26CHL1  H12B 3063   1.494   1.588   5.498  0.3887  0.9875 -0.7766
   26CHL1   C11 3064   1.655   1.616   5.658  0.1486  0.2199  0.1537
   26CHL1  H11A 3065   1.765   1.627   5.670 -0.0228  0.3429  1.9899
   26CHL1  H11B 3066   1.611   1.706   5.706  1.8960 -0.6243  3.6613
   26CHL1    C9 3067   1.620   1.491   5.744  0.0169  0.3892 -0.0882
   26CHL1    H9 3068   1.511   1.493   5.765  0.2967 -1.9586  2.0693
   26CHL1   C10 3069   1.656   1.512   5.898 -0.3119  0.1866 -0.3684
   26CHL1   C19 3070   1.802   1.544   5.911  0.1706 -0.2185 -0.4053
   26CHL1  H19A 3071   1.834   1.549   6.017 -1.5828 -0.6706  0.1742
   26CHL1  H19B 3072   1.868   1.476   5.853 -0.2480 -0.7935 -0.2195
   26CHL1  H19C 3073   1.816   1.646   5.869 -0.8043 -0.1930 -0.6930
   26CHL1    C1 3074   1.583   1.635   5.961  0.2406  0.7494  0.2489
   26CHL1   H1A 3075   1.640   1.726   5.932 -0.3507  1.4527  1.2524
   26CHL1   H1B 3076   1.483   1.636   5.913  1.6636  1.8941 -3.0323
   26CHL1    C2 3077   1.566   1.638   6.118  0.4366  0.6155 -0.5158
   26CHL1   H2A 3078   1.486   1.713   6.137 -1.2275 -1.1813 -0.1152
   26CHL1   H2B 3079   1.665   1.659   6.163  0.6630  0.2887 -0.8507
   26CHL1   C20 3080   1.667   1.487   5.177  0.4066 -0.6295 -0.3706
   26CHL1   H20 3081   1.777   1.504   5.173  0.4615 -1.0061 -0.4884
   26CHL1   C21 3082   1.583   1.613   5.176  0.6217 -0.2609  0.0970
   26CHL1  H21A 3083   1.585   1.671   5.081 -1.9623 -2.8945 -1.7178
   26CHL1  H21B 3084   1.630   1.683   5.248  1.1409 -0.6194  0.1186
   26CHL1  H21C 3085   1.478   1.592   5.203  0.8894 -0.5120  1.0128
   26CHL1   C22 3086   1.647   1.402   5.047  0.0224  0.3919  0.2977
   26CHL1  H22A 3087   1.713   1.313   5.034  1.6641  1.5907  0.2106
   26CHL1  H22B 3088   1.545   1.358   5.056 -0.4934  1.8433  1.9202
   26CHL1   C23 3089   1.676   1.485   4.920  0.1596 -0.9530 -0.2562
   26CHL1  H23A 3090   1.594   1.558   4.904  1.0993  0.2154  0.1192
   26CHL1  H23B 3091   1.772   1.538   4.934 -0.0731 -0.8202  1.0012
   26CHL1   C24 3092   1.691   1.394   4.798  0.1133  0.1410  0.7449
   26CHL1  H24A 3093   1.741   1.302   4.832 -0.7902 -0.1314  1.3802
   26CHL1  H24B 3094   1.590   1.384   4.751  0.9502 -0.4908 -1.0113
   26CHL1   C25 3095   1.778   1.462   4.687 -0.5757 -0.4656  0.3478
   26CHL1   H25 3096   1.878   1.488   4.728 -1.4328  0.4842  1.9203
   26CHL1   C26 3097   1.812   1.363   4.574 -0.3508  0.2496 -0.7995
   26CHL1  H26A 3098   1.729   1.373   4.501 -0.9620  2.6030  0.1222
   26CHL1  H26B 3099   1.907   1.385   4.522 -0.1098  0.9275 -0.0956
   26CHL1  H26C 3100   1.827   1.260   4.613  1.6022  0.8345  0.0881
   26CHL1   C27 3101   1.714   1.586   4.623  0.4743 -0.4361  0.7880
   26CHL1  H27A 3102   1.682   1.657   4.703  3.9882  2.3321 -0.0178
   26CHL1  H27B 3103   1.786   1.636   4.556  0.7911 -0.1521  1.3326
   26CHL1  H27C 3104   1.621   1.557   4.570  0.3651  1.9345 -0.4366
   27CHL1    C3 3105   6.530   0.552   6.058  0.1852 -0.0669  0.0932
   27CHL1    H3 3106   6.625   0.497   6.069  0.2396  0.2047  1.0577
   27CHL1    O3 3107   6.493   0.575   6.193 -0.3918  0.3478  0.2130
   27CHL1   H3' 3108   6.401   0.600   6.188 -1.1275 -2.2524 -2.8352
   27CHL1    C4 3109   6.545   0.681   5.990 -0.4239  0.0283  0.3277
   27CHL1   H4A 3110   6.444   0.729   5.991 -0.7845 -0.4521 -2.6252
   27CHL1   H4B 3111   6.608   0.746   6.053 -0.3378 -0.2901  0.5727
   27CHL1    C5 3112   6.580   0.672   5.840 -0.2759  0.8802 -0.5903
   27CHL1    C6 3113   6.690   0.723   5.783 -0.0215  0.5451  0.5181
   27CHL1    H6 3114   6.759   0.786   5.842 -0.3525  1.0246  0.3976
   27CHL1    C7 3115   6.722   0.702   5.635  0.2119 -0.7280 -0.2612
   27CHL1   H7A 3116   6.775   0.795   5.604  0.1037 -0.2741  0.8477
   27CHL1   H7B 3117   6.796   0.620   5.638  0.2918 -0.7382 -1.6665
   27CHL1    C8 3118   6.607   0.661   5.546  0.2514 -0.4119 -0.1442
   27CHL1    H8 3119   6.534   0.742   5.524 -0.3794 -0.9736 -0.1932
   27CHL1   C14 3120   6.672   0.611   5.421 -0.1227 -0.3308  0.6095
   27CHL1   H14 3121   6.732   0.520   5.442  2.0296  0.8782 -0.0835
   27CHL1   C15 3122   6.760   0.713   5.347  0.5256  0.8646 -0.9005
   27CHL1  H15A 3123   6.717   0.815   5.348 -0.7256  0.4901 -4.1621
   27CHL1  H15B 3124   6.859   0.705   5.397 -0.9028  0.5425  2.0755
   27CHL1   C16 3125   6.767   0.664   5.198 -0.4290 -0.2847  0.5688
   27CHL1  H16A 3126   6.730   0.741   5.127  0.2506 -0.2059  0.2902
   27CHL1  H16B 3127   6.872   0.640   5.172  0.3028  1.8367  1.3665
   27CHL1   C17 3128   6.675   0.539   5.193 -0.2363 -0.0788 -0.3341
   27CHL1   H17 3129   6.742   0.453   5.216 -0.1462  0.2026  0.4822
   27CHL1   C13 3130   6.573   0.560   5.311 -0.2174  0.6831  0.2350
   27CHL1   C18 3131   6.464   0.666   5.269  0.4639 -0.7916  0.3382
   27CHL1  H18A 3132   6.497   0.763   5.226 -1.0988 -0.6801 -0.6933
   27CHL1  H18B 3133   6.392   0.627   5.194 -0.4542  2.1403 -0.4080
   27CHL1  H18C 3134   6.399   0.686   5.357  0.7930  0.0623  0.3965
   27CHL1   C12 3135   6.505   0.441   5.382 -0.1994 -0.3524 -0.6452
   27CHL1  H12A 3136   6.417   0.403   5.325  0.1693 -1.6141 -0.4100
   27CHL1  H12B 3137   6.574   0.355   5.386  1.0378  0.6586  1.3338
   27CHL1   C11 3138   6.446   0.467   5.524 -0.0761 -0.4478 -0.1294
   27CHL1  H11A 3139   6.350   0.520   5.509  0.8353  0.9346 -1.4168
   27CHL1  H11B 3140   6.429   0.367   5.568 -1.2125  0.2537  1.0795
   27CHL1    C9 3141   6.546   0.545   5.619 -0.0476  0.8070 -0.2863
   27CHL1    H9 3142   6.626   0.468   5.629  2.1360  2.6697 -2.1193
   27CHL1   C10 3143   6.490   0.576   5.757 -0.1540 -0.1594  0.6519
   27CHL1   C19 3144   6.355   0.658   5.747 -0.0968  0.2291  0.3725
   27CHL1  H19A 3145   6.277   0.587   5.713  1.5992 -0.0441 -3.5257
   27CHL1  H19B 3146   6.328   0.705   5.844  0.6440 -0.3835  0.8905
   27CHL1  H19C 3147   6.363   0.727   5.661 -3.2264 -1.3814 -1.3474
   27CHL1    C1 3148   6.462   0.442   5.830  0.8870 -0.3427 -0.5525
   27CHL1   H1A 3149   6.372   0.390   5.791  0.1203  0.1214  0.5406
   27CHL1   H1B 3150   6.547   0.372   5.831 -0.6435 -2.2873  0.2247
   27CHL1    C2 3151   6.428   0.461   5.980 -0.2777  0.1398  0.6578
   27CHL1   H2A 3152   6.422   0.363   6.032  0.8721 -1.0063 -1.2592
   27CHL1   H2B 3153   6.335   0.519   5.963  1.0380  1.7056 -1.8973
   27CHL1   C20 3154   6.626   0.520   5.049 -0.7093  0.0622  0.5766
   27CHL1   H20 3155   6.552   0.597   5.018 -1.1575 -0.1698  1.0436
   27CHL1   C21 3156   6.562   0.378   5.044  0.1304 -0.0998  0.3318
   27CHL1  H21A 3157   6.638   0.302   5.017  0.5128  0.5204 -0.3870
   27CHL1  H21B 3158   6.498   0.363   4.955  1.4538  0.0884 -0.6780
   27CHL1  H21C 3159   6.507   0.358   5.138  2.3750  3.5500  2.6974
   27CHL1   C22 3160   6.737   0.526   4.937 -0.3824  0.0158  0.8663
   27CHL1  H22A 3161   6.792   0.621   4.949 -1.7191  0.9569 -0.1925
   27CHL1  H22B 3162   6.818   0.455   4.965  0.2512  0.8357  1.1595
   27CHL1   C23 3163   6.692   0.507   4.794 -0.0442 -0.2616  0.8162
   27CHL1  H23A 3164   6.670   0.403   4.763 -0.0117  0.0038 -0.1320
   27CHL1  H23B 3165   6.608   0.578   4.781  1.1917  1.2911  0.9363
   27CHL1   C24 3166   6.793   0.538   4.688  0.5914  0.3460  0.1224
   27CHL1  H24A 3167   6.872   0.462   4.711  0.7762  0.6598  0.5240
   27CHL1  H24B 3168   6.770   0.519   4.581  0.2095 -0.6165  0.3661
   27CHL1   C25 3169   6.836   0.690   4.687  0.5809  0.3471  0.4252
   27CHL1   H25 3170   6.883   0.706   4.787  0.4582  0.2787  0.4952
   27CHL1   C26 3171   6.947   0.707   4.595 -0.5547 -0.3980  0.2628
   27CHL1  H26A 3172   7.017   0.621   4.592  0.3703  0.3526 -0.4146
   27CHL1  H26B 3173   6.907   0.708   4.491  1.5500 -0.3131 -0.5869
   27CHL1  H26C 3174   7.022   0.784   4.624 -0.5456  0.4068 -1.7084
   27CHL1   C27 3175   6.714   0.778   4.654  0.2552 -0.0901 -0.0934
   27CHL1  H27A 3176   6.751   0.883   4.646 -2.1318  0.9765  1.7833
   27CHL1  H27B 3177   6.646   0.756   4.738  0.8321 -0.0406  0.3912
   27CHL1  H27C 3178   6.661   0.752   4.560  2.2807 -1.7365 -0.8508
   28CHL1    C3 3179   3.248   6.593   6.325 -0.6116  0.1325  0.1010
   28CHL1    H3 3180   3.160   6.660   6.310  0.5555  1.5297 -0.8180
   28CHL1    O3 3181   3.286   6.590   6.461 -0.3291 -0.1002 -0.2295
   28CHL1   H3' 3182   3.361   6.531   6.468 -0.2846 -0.0476 -0.2584
   28CHL1    C4 3183   3.228   6.448   6.288  0.9674 -0.5717  0.3185
   28CHL1   H4A 3184   3.314   6.381   6.312 -0.4764 -2.7453 -0.3102
   28CHL1   H4B 3185   3.140   6.402   6.337 -2.4588  3.2010 -1.6852
   28CHL1    C5 3186   3.208   6.421   6.139  0.3882 -0.0283  0.1128
   28CHL1    C6 3187   3.104   6.348   6.090 -0.1593  0.7159 -0.1899
   28CHL1    H6 3188   3.041   6.296   6.163 -0.8214 -1.4865 -2.2073
   28CHL1    C7 3189   3.069   6.323   5.947  0.3861 -0.1243  0.1857
   28CHL1   H7A 3190   3.059   6.213   5.937  0.6471 -0.3407  1.9043
   28CHL1   H7B 3191   2.970   6.364   5.920 -0.8132 -1.7493  1.8327
   28CHL1    C8 3192   3.175   6.364   5.849  0.4632  0.6509  0.1719
   28CHL1    H8 3193   3.252   6.284   5.852 -1.5334 -1.3929  0.1370
   28CHL1   C14 3194   3.132   6.367   5.706  1.0066  0.7716 -0.5527
   28CHL1   H14 3195   3.059   6.450   5.702  0.0729  0.1029  1.4847
   28CHL1   C15 3196   3.039   6.253   5.650 -0.2929  0.2701 -0.3185
   28CHL1  H15A 3197   3.064   6.151   5.687 -0.5202  0.1845 -0.4006
   28CHL1  H15B 3198   2.935   6.282   5.676  0.3131  2.9798 -0.6569
   28CHL1   C16 3199   3.061   6.272   5.495 -0.5966 -0.2446 -0.1155
   28CHL1  H16A 3200   3.103   6.177   5.454  0.5144 -0.2749  1.0291
   28CHL1  H16B 3201   2.959   6.286   5.455 -0.6435  1.2851  0.4886
   28CHL1   C17 3202   3.163   6.383   5.471  0.3136 -0.1610 -0.8776
   28CHL1   H17 3203   3.099   6.473   5.458 -0.9664 -0.9993 -0.5712
   28CHL1   C13 3204   3.244   6.393   5.606  0.1993 -0.3997 -0.3628
   28CHL1   C18 3205   3.350   6.294   5.613 -0.1685  0.8836 -0.2475
   28CHL1  H18A 3206   3.416   6.293   5.702 -1.5888 -3.4315  1.0051
   28CHL1  H18B 3207   3.308   6.192   5.602 -0.9473  0.7331  3.1266
   28CHL1  H18C 3208   3.410   6.294   5.519  0.1140 -2.5120 -0.1593
   28CHL1   C12 3209   3.293   6.544   5.635 -0.5621  0.0926 -0.1399
   28CHL1  H12A 3210   3.381   6.566   5.571  0.1249 -1.2463  0.2918
   28CHL1  H12B 3211   3.213   6.612   5.600  1.7711  2.0541 -1.9713
   28CHL1   C11 3212   3.340   6.553   5.783  0.2044 -0.4250  0.1789
   28CHL1  H11A 3213   3.431   6.488   5.788  0.1971 -0.7598 -2.3123
   28CHL1  H11B 3214   3.371   6.658   5.801  1.5768 -0.8274  0.2696
   28CHL1    C9 3215   3.239   6.504   5.889  0.0249 -0.4975  0.1419
   28CHL1    H9 3216   3.161   6.583   5.887  1.0723  0.5865  0.6260
   28CHL1   C10 3217   3.301   6.507   6.040 -0.2076 -0.1079  0.2280
   28CHL1   C19 3218   3.432   6.421   6.035 -0.2570 -0.1555  0.8123
   28CHL1  H19A 3219   3.423   6.327   5.976  1.4663  0.9735 -1.4422
   28CHL1  H19B 3220   3.516   6.477   5.988  2.4293 -1.2932  3.8828
   28CHL1  H19C 3221   3.471   6.408   6.138  0.2700 -1.1894  0.4926
   28CHL1    C1 3222   3.316   6.655   6.093  0.7062 -0.6795 -0.4991
   28CHL1   H1A 3223   3.402   6.703   6.041  1.1888  0.3138  1.1217
   28CHL1   H1B 3224   3.223   6.713   6.077  0.7744 -0.3386  0.2821
   28CHL1    C2 3225   3.365   6.659   6.241  0.1718  0.9568 -0.4320
   28CHL1   H2A 3226   3.386   6.764   6.272  2.0830  0.0706  1.5580
   28CHL1   H2B 3227   3.467   6.615   6.241  0.4446  1.5576  0.6445
   28CHL1   C20 3228   3.242   6.366   5.342  0.3202  0.4270  0.4715
   28CHL1   H20 3229   3.303   6.273   5.345 -0.3697 -0.1460 -1.5370
   28CHL1   C21 3230   3.322   6.492   5.326 -0.6351 -0.5048  0.2034
   28CHL1  H21A 3231   3.252   6.578   5.331  0.2916  0.2012  1.5559
   28CHL1  H21B 3232   3.374   6.492   5.228 -2.6394 -0.2554 -0.9173
   28CHL1  H21C 3233   3.409   6.493   5.395  1.9148 -0.3856 -2.8112
   28CHL1   C22 3234   3.132   6.341   5.223  0.0939 -0.3026 -0.1856
   28CHL1  H22A 3235   3.082   6.243   5.235 -1.3411  0.1685 -1.8867
   28CHL1  H22B 3236   3.048   6.415   5.230 -0.5586 -0.9737 -0.7972
   28CHL1   C23 3237   3.204   6.345   5.092  0.3651 -0.0049 -0.2809
   28CHL1  H23A 3238   3.233   6.451   5.075 -1.0534  0.2740 -1.1255
   28CHL1  H23B 3239   3.295   6.287   5.117  0.6314  0.8370  0.7839
   28CHL1   C24 3240   3.120   6.290   4.973 -0.1495  0.5543  0.2093
   28CHL1  H24A 3241   3.113   6.183   5.005  3.3899  0.5999  1.7149
   28CHL1  H24B 3242   3.022   6.342   4.973 -0.4274  0.0470 -0.8315
   28CHL1   C25 3243   3.185   6.309   4.836 -0.6503 -0.5362  0.7929
   28CHL1   H25 3244   3.290   6.275   4.847 -1.0075 -1.4642  1.4699
   28CHL1   C26 3245   3.117   6.222   4.740  0.2896  0.2420  0.0980
   28CHL1  H26A 3246   3.113   6.118   4.778  1.8588  0.5612  1.2529
   28CHL1  H26B 3247   3.012   6.252   4.717  0.7398  0.9166 -1.1528
   28CHL1  H26C 3248   3.174   6.224   4.645 -1.6931 -0.2110 -1.1581
   28CHL1   C27 3249   3.192   6.450   4.791  0.2698  0.0909  0.4723
   28CHL1  H27A 3250   3.255   6.461   4.700  0.0394  2.8948  0.5545
   28CHL1  H27B 3251   3.088   6.489   4.786 -0.2180 -1.2070 -0.0263
   28CHL1  H27C 3252   3.241   6.512   4.869  0.5221 -0.6588  0.9207
   29CHL1    C3 3253   3.813   6.460   6.286 -0.8744 -0.2759 -0.2241
   29CHL1    H3 3254   3.705   6.473   6.267 -0.8132 -1.0740 -1.1931
   29CHL1    O3 3255   3.838   6.461   6.427 -0.0697  0.1137 -0.1983
   29CHL1   H3' 3256   3.933   6.474   6.436  0.4952 -3.2502  0.1607
   29CHL1    C4 3257   3.879   6.330   6.228  0.2295  1.3592  0.1858
   29CHL1   H4A 3258   3.989   6.328   6.239  0.3309  2.3730 -0.4273
   29CHL1   H4B 3259   3.833   6.245   6.282  0.1582  0.5684 -1.0750
   29CHL1    C5 3260   3.843   6.312   6.080  0.1399  0.5274 -0.8805
   29CHL1    C6 3261   3.781   6.205   6.024  0.4128 -0.5957 -0.1388
   29CHL1    H6 3262   3.751   6.126   6.095  0.7690 -0.6073  0.0018
   29CHL1    C7 3263   3.733   6.187   5.885 -0.3226  0.6298 -0.7112
   29CHL1   H7A 3264   3.748   6.078   5.867 -4.4433 -0.7742  2.6325
   29CHL1   H7B 3265   3.626   6.216   5.880 -1.4899 -2.7513  1.3907
   29CHL1    C8 3266   3.816   6.280   5.793  0.4480  0.5026 -0.0121
   29CHL1    H8 3267   3.919   6.243   5.774 -0.1693 -1.1243 -0.2738
   29CHL1   C14 3268   3.751   6.274   5.653  0.3375 -0.0447  0.0727
   29CHL1   H14 3269   3.646   6.307   5.669  0.0113 -1.2829  0.5847
   29CHL1   C15 3270   3.755   6.143   5.587 -0.1289  0.1419 -0.2436
   29CHL1  H15A 3271   3.852   6.090   5.591 -0.0663  0.3008  0.5318
   29CHL1  H15B 3272   3.676   6.077   5.629 -0.6290  0.1793 -1.1045
   29CHL1   C16 3273   3.704   6.177   5.443 -0.0409 -0.5420  0.5967
   29CHL1  H16A 3274   3.762   6.124   5.364  0.6809  0.0548  0.7108
   29CHL1  H16B 3275   3.599   6.143   5.431 -0.2394 -0.5012  2.0891
   29CHL1   C17 3276   3.712   6.334   5.432  0.9353 -1.1393  0.4166
   29CHL1   H17 3277   3.611   6.371   5.459  0.6415 -0.1997 -1.7921
   29CHL1   C13 3278   3.806   6.377   5.545  0.9850 -0.0195 -0.4893
   29CHL1   C18 3279   3.954   6.334   5.511  0.4291  0.5504 -0.5719
   29CHL1  H18A 3280   4.012   6.325   5.605  0.1768 -1.0528 -0.5455
   29CHL1  H18B 3281   3.954   6.245   5.445 -1.8657  1.6567 -2.2358
   29CHL1  H18C 3282   3.995   6.403   5.433  0.4261 -0.3387 -1.3747
   29CHL1   C12 3283   3.787   6.519   5.606 -0.1078 -0.1219 -0.3245
   29CHL1  H12A 3284   3.820   6.593   5.530 -0.0595  0.5399  0.3229
   29CHL1  H12B 3285   3.680   6.545   5.622  0.7932  3.9096  0.3389
   29CHL1   C11 3286   3.857   6.534   5.738 -0.6947  0.5576  0.6891
   29CHL1  H11A 3287   3.965   6.523   5.716 -0.9157 -1.2695  0.3744
   29CHL1  H11B 3288   3.844   6.638   5.776  0.4854  0.6082  1.0013
   29CHL1    C9 3289   3.814   6.425   5.841  0.4821  0.4017 -0.4572
   29CHL1    H9 3290   3.706   6.443   5.861 -0.0972 -2.3596 -0.7161
   29CHL1   C10 3291   3.876   6.436   5.982 -0.4535 -0.6645  0.2233
   29CHL1   C19 3292   4.027   6.427   5.975 -0.2104 -0.1888 -0.2778
   29CHL1  H19A 3293   4.076   6.418   6.074  0.4621  1.2170 -0.4600
   29CHL1  H19B 3294   4.066   6.351   5.904  1.9885  1.8106 -1.3238
   29CHL1  H19C 3295   4.063   6.519   5.924 -0.0028 -0.5324 -0.7539
   29CHL1    C1 3296   3.833   6.572   6.054  0.6133 -0.2528  0.3284
   29CHL1   H1A 3297   3.862   6.665   6.001 -0.1507  0.1943  0.6777
   29CHL1   H1B 3298   3.722   6.583   6.053  0.7299  1.0885  0.9060
   29CHL1    C2 3299   3.864   6.586   6.201 -1.0863  0.0083  0.1835
   29CHL1   H2A 3300   3.833   6.681   6.248 -0.3312  0.2902  0.1271
   29CHL1   H2B 3301   3.974   6.600   6.214 -1.2841  1.4503  0.4591
   29CHL1   C20 3302   3.746   6.383   5.286  0.3688 -0.2660 -0.6059
   29CHL1   H20 3303   3.840   6.335   5.252 -0.2586 -1.2372 -0.9901
   29CHL1   C21 3304   3.773   6.528   5.279 -0.4685 -0.8546 -0.0314
   29CHL1  H21A 3305   3.690   6.593   5.313  1.5380  1.9552 -0.0764
   29CHL1  H21B 3306   3.808   6.567   5.181 -1.8005  2.4826  0.6695
   29CHL1  H21C 3307   3.865   6.541   5.341  0.2542  0.0499 -1.2343
   29CHL1   C22 3308   3.644   6.336   5.179  0.0436  0.0379  0.3730
   29CHL1  H22A 3309   3.640   6.226   5.197  0.3268  0.2058  1.4975
   29CHL1  H22B 3310   3.543   6.380   5.189  0.4010  0.3595  3.1733
   29CHL1   C23 3311   3.672   6.359   5.028  0.9800 -0.0920  0.3184
   29CHL1  H23A 3312   3.653   6.465   4.999  1.2851 -0.0699  0.1978
   29CHL1  H23B 3313   3.777   6.333   5.006  0.7282 -0.3053 -0.6874
   29CHL1   C24 3314   3.578   6.293   4.923 -0.0963  0.9370 -0.6634
   29CHL1  H24A 3315   3.592   6.185   4.942  3.0718  1.5792  1.6062
   29CHL1  H24B 3316   3.470   6.313   4.936 -0.2870  0.6719 -1.8165
   29CHL1   C25 3317   3.618   6.315   4.780  0.4617  0.4283 -0.3232
   29CHL1   H25 3318   3.557   6.245   4.719  0.0738  0.6864 -0.2361
   29CHL1   C26 3319   3.587   6.453   4.729 -0.0028  0.0422  0.0978
   29CHL1  H26A 3320   3.605   6.469   4.620  0.8000 -0.8151  0.0849
   29CHL1  H26B 3321   3.481   6.479   4.749 -0.0050 -0.1172  0.2984
   29CHL1  H26C 3322   3.658   6.519   4.783  1.7312 -0.1099 -1.8642
   29CHL1   C27 3323   3.770   6.283   4.759  1.2669 -0.1779 -0.8263
   29CHL1  H27A 3324   3.828   6.351   4.826 -0.2035  0.5101 -0.2045
   29CHL1  H27B 3325   3.786   6.178   4.793  0.1705  0.4115  1.7206
   29CHL1  H27C 3326   3.791   6.288   4.650  1.7249  0.0846 -0.7243
   30CHL1    C3 3327   1.162   1.557   5.951 -0.0214  0.3821  0.4083
   30CHL1    H3 3328   1.242   1.612   5.898 -1.4432  1.4403 -0.7475
   30CHL1    O3 3329   1.140   1.597   6.082 -0.0964 -0.5476 -0.0516
   30CHL1   H3' 3330   1.136   1.692   6.095  1.0174 -0.7209  2.1051
   30CHL1    C4 3331   1.038   1.605   5.871 -0.1632 -0.2033  0.1993
   30CHL1   H4A 3332   0.942   1.561   5.907  0.2552 -1.5341 -0.2331
   30CHL1   H4B 3333   1.032   1.715   5.882 -0.2817 -0.2338  0.4416
   30CHL1    C5 3334   1.057   1.569   5.722 -0.0143 -0.0953 -0.1856
   30CHL1    C6 3335   1.061   1.669   5.629  1.3227 -1.0190  0.1571
   30CHL1    H6 3336   1.016   1.764   5.659  2.2922 -0.5978  0.3144
   30CHL1    C7 3337   1.084   1.652   5.486 -0.4158  0.2371 -0.1318
   30CHL1   H7A 3338   1.004   1.705   5.429 -1.2925  0.0597  0.9077
   30CHL1   H7B 3339   1.182   1.690   5.449 -0.8835  0.7096 -0.9230
   30CHL1    C8 3340   1.100   1.495   5.453  0.2005 -0.0562 -0.7596
   30CHL1    H8 3341   0.996   1.456   5.461 -0.6214  1.9618 -0.8118
   30CHL1   C14 3342   1.163   1.473   5.319 -0.2542  0.0422 -0.1398
   30CHL1   H14 3343   1.265   1.517   5.326 -0.9291  2.0716 -1.7709
   30CHL1   C15 3344   1.106   1.549   5.198  0.0811  0.0535  0.6246
   30CHL1  H15A 3345   0.995   1.544   5.193  0.0557 -0.2681  1.4012
   30CHL1  H15B 3346   1.144   1.652   5.215 -2.5965  1.1923  0.2081
   30CHL1   C16 3347   1.163   1.486   5.075 -0.1894 -0.0212  0.0756
   30CHL1  H16A 3348   1.080   1.459   5.006 -0.1880  0.2056 -0.0140
   30CHL1  H16B 3349   1.218   1.560   5.013  0.3126 -0.6057 -0.1944
   30CHL1   C17 3350   1.241   1.354   5.122  0.5504 -0.6833  0.6121
   30CHL1   H17 3351   1.348   1.384   5.126  0.6544 -0.2770 -2.6888
   30CHL1   C13 3352   1.178   1.330   5.265 -0.1604 -0.5915 -0.9849
   30CHL1   C18 3353   1.035   1.262   5.265  0.5646  0.1826 -0.7379
   30CHL1  H18A 3354   0.973   1.323   5.196 -1.5993 -1.2912 -0.1838
   30CHL1  H18B 3355   1.030   1.158   5.226 -2.8937  0.0682 -0.2486
   30CHL1  H18C 3356   0.990   1.255   5.366  1.5779  0.9467 -0.2205
   30CHL1   C12 3357   1.266   1.258   5.376  0.0948  0.3724  0.3589
   30CHL1  H12A 3358   1.282   1.154   5.340  0.6918  0.9966 -1.2420
   30CHL1  H12B 3359   1.364   1.310   5.378  0.9208 -1.1471  1.6080
   30CHL1   C11 3360   1.214   1.274   5.517  0.2162  0.0646  0.0282
   30CHL1  H11A 3361   1.124   1.209   5.523  0.1476  0.1040 -0.5486
   30CHL1  H11B 3362   1.288   1.223   5.583  0.8673 -2.2827 -2.3349
   30CHL1    C9 3363   1.175   1.418   5.563  0.2271 -0.4137 -0.4694
   30CHL1    H9 3364   1.271   1.473   5.572  1.7004 -3.1206  2.4163
   30CHL1   C10 3365   1.101   1.424   5.701 -0.2511  0.4109  0.1619
   30CHL1   C19 3366   0.967   1.345   5.697  0.1868 -0.1472  0.0830
   30CHL1  H19A 3367   0.944   1.330   5.805  0.1178  1.1723  0.2687
   30CHL1  H19B 3368   0.883   1.397   5.645  1.0640  3.1866  1.6647
   30CHL1  H19C 3369   0.977   1.242   5.658  1.6606 -1.3183  3.2054
   30CHL1    C1 3370   1.193   1.360   5.811 -0.9181  0.5800 -0.0935
   30CHL1   H1A 3371   1.186   1.250   5.806  2.0362  0.2651  0.9610
   30CHL1   H1B 3372   1.296   1.394   5.787 -1.0403  1.5916  0.7276
   30CHL1    C2 3373   1.163   1.411   5.950 -0.1083 -0.0614 -0.0185
   30CHL1   H2A 3374   1.230   1.365   6.025 -0.2658  0.6040  0.5391
   30CHL1   H2B 3375   1.064   1.370   5.978  0.1257 -1.6506 -1.3819
   30CHL1   C20 3376   1.235   1.234   5.021  0.6317 -0.2419  0.1615
   30CHL1   H20 3377   1.131   1.194   5.015  1.2981 -2.2046  0.7794
   30CHL1   C21 3378   1.333   1.124   5.054 -0.0810  0.6518  0.4864
   30CHL1  H21A 3379   1.287   1.033   5.009 -4.2240  2.1956  1.0839
   30CHL1  H21B 3380   1.342   1.108   5.164 -1.4935  1.3334  0.7236
   30CHL1  H21C 3381   1.436   1.150   5.024  0.6397  1.3359  3.2640
   30CHL1   C22 3382   1.259   1.280   4.869  0.5719 -0.4923  0.2114
   30CHL1  H22A 3383   1.182   1.359   4.854 -1.5642 -2.8559 -2.4318
   30CHL1  H22B 3384   1.363   1.318   4.860  1.4849 -2.9660 -0.6179
   30CHL1   C23 3385   1.250   1.196   4.743  0.5807  0.6672  0.3801
   30CHL1  H23A 3386   1.260   1.261   4.654  1.8467  2.1800  1.5734
   30CHL1  H23B 3387   1.326   1.115   4.745  0.7908  0.8718  1.2983
   30CHL1   C24 3388   1.106   1.126   4.730 -0.5833  0.4524  0.3118
   30CHL1  H24A 3389   1.109   1.052   4.812 -0.3227  0.1475  0.0273
   30CHL1  H24B 3390   1.022   1.199   4.734  0.1156  1.2211  1.6578
   30CHL1   C25 3391   1.090   1.034   4.605 -0.6529 -0.6986  0.1710
   30CHL1   H25 3392   1.099   1.092   4.510 -2.8103 -0.9105 -0.2049
   30CHL1   C26 3393   1.188   0.919   4.597  0.1192  0.5562 -0.1506
   30CHL1  H26A 3394   1.153   0.838   4.530  2.2947  0.0963 -0.8201
   30CHL1  H26B 3395   1.292   0.945   4.568 -0.0632 -1.1107 -2.5541
   30CHL1  H26C 3396   1.178   0.864   4.693 -4.5054 -1.7273 -1.6419
   30CHL1   C27 3397   0.952   0.982   4.598 -0.3218 -0.1895  0.1932
   30CHL1  H27A 3398   0.890   1.071   4.622  1.3464  1.2689 -0.6545
   30CHL1  H27B 3399   0.936   0.932   4.501  1.2521  0.8231 -0.6356
   30CHL1  H27C 3400   0.939   0.906   4.678 -0.0182 -1.1183 -0.6232
   31CHL1    C3 3401   5.006   0.954   6.068 -0.1289  0.1534  0.2351
   31CHL1    H3 3402   4.966   0.851   6.078 -2.4073  1.0633  1.1611
   31CHL1    O3 3403   5.055   1.005   6.194  0.0429  0.3229 -0.3139
   31CHL1   H3' 3404   5.130   0.948   6.212 -0.3598  0.1290  0.8868
   31CHL1    C4 3405   5.123   0.942   5.964  0.4084  0.1178  0.4268
   31CHL1   H4A 3406   5.177   1.038   5.969 -0.4351  0.7682 -1.6367
   31CHL1   H4B 3407   5.197   0.866   5.998 -0.2423  0.6411  3.2540
   31CHL1    C5 3408   5.078   0.915   5.820  0.7680  0.0707 -0.2496
   31CHL1    C6 3409   5.129   0.810   5.758  0.2448  0.8516 -0.2958
   31CHL1    H6 3410   5.208   0.753   5.808 -0.0906  1.4032  0.8962
   31CHL1    C7 3411   5.093   0.774   5.614 -0.3725 -0.7312 -0.4209
   31CHL1   H7A 3412   5.188   0.750   5.562  1.3256  2.5388  0.8852
   31CHL1   H7B 3413   5.027   0.684   5.617 -2.1759  0.5679  2.0575
   31CHL1    C8 3414   5.020   0.890   5.542  0.6579 -0.4700  0.6376
   31CHL1    H8 3415   5.095   0.970   5.524  1.4281 -1.0362  1.2799
   31CHL1   C14 3416   4.964   0.827   5.414 -0.2178 -0.0553  0.2891
   31CHL1   H14 3417   4.894   0.746   5.445  1.8556 -2.1631 -0.2551
   31CHL1   C15 3418   5.050   0.736   5.319 -0.5483 -0.0768 -0.0360
   31CHL1  H15A 3419   5.151   0.778   5.299 -0.4655 -0.7621 -1.0987
   31CHL1  H15B 3420   5.064   0.632   5.357 -0.2847  0.7171  2.2531
   31CHL1   C16 3421   4.980   0.731   5.185 -0.4142  0.0345  0.0185
   31CHL1  H16A 3422   5.054   0.762   5.108 -2.0625  1.8615 -0.9062
   31CHL1  H16B 3423   4.940   0.632   5.154  1.7441 -1.1919  0.8903
   31CHL1   C17 3424   4.864   0.838   5.192 -0.2432  0.1934 -0.6789
   31CHL1   H17 3425   4.776   0.780   5.227  0.7482 -0.4939  0.7955
   31CHL1   C13 3426   4.893   0.930   5.321  0.7794  0.8144  0.5396
   31CHL1   C18 3427   4.992   1.044   5.280 -0.5209  0.0893 -0.0873
   31CHL1  H18A 3428   4.954   1.115   5.203 -2.7532 -0.7015  0.2000
   31CHL1  H18B 3429   5.005   1.106   5.372  0.4724 -0.7261  0.3473
   31CHL1  H18C 3430   5.093   1.013   5.248  0.1958  1.3471  0.8343
   31CHL1   C12 3431   4.771   0.978   5.397  0.0574 -0.2454 -0.0838
   31CHL1  H12A 3432   4.705   1.052   5.347 -0.6059  1.0120  2.4593
   31CHL1  H12B 3433   4.704   0.893   5.420  0.8438 -0.3387  2.0622
   31CHL1   C11 3434   4.808   1.028   5.546 -0.2035 -0.3601  0.2384
   31CHL1  H11A 3435   4.842   1.133   5.533 -0.0055 -0.4759 -0.2393
   31CHL1  H11B 3436   4.714   1.036   5.604 -1.2238 -0.0401 -1.3765
   31CHL1    C9 3437   4.904   0.945   5.628 -0.3278  0.0585  0.2044
   31CHL1    H9 3438   4.847   0.858   5.667 -1.3785  0.3740 -0.6100
   31CHL1   C10 3439   4.963   1.010   5.761 -0.3590 -0.6088  0.0295
   31CHL1   C19 3440   5.015   1.151   5.733  0.2951  0.2604 -0.2327
   31CHL1  H19A 3441   5.086   1.162   5.649  0.4172 -1.5330 -0.4120
   31CHL1  H19B 3442   4.927   1.218   5.730 -1.0440 -1.4400 -0.5785
   31CHL1  H19C 3443   5.071   1.189   5.822  1.9766  3.1080 -2.3256
   31CHL1    C1 3444   4.848   1.027   5.867  0.0749  0.5839 -0.2761
   31CHL1   H1A 3445   4.769   1.096   5.833 -0.6858 -0.1161  0.0344
   31CHL1   H1B 3446   4.789   0.933   5.864  0.4840  0.3305 -0.7512
   31CHL1    C2 3447   4.891   1.050   6.010 -0.1877 -1.0533 -0.9006
   31CHL1   H2A 3448   4.807   1.033   6.081 -0.3749 -0.5876 -1.0067
   31CHL1   H2B 3449   4.919   1.157   6.023  0.9702 -1.6079  2.0001
   31CHL1   C20 3450   4.827   0.899   5.057 -0.0369  0.3837  0.5110
   31CHL1   H20 3451   4.914   0.963   5.032 -0.6424  1.3138  0.7609
   31CHL1   C21 3452   4.705   0.994   5.082 -0.1390  0.5038  0.3071
   31CHL1  H21A 3453   4.663   1.031   4.987 -0.7021 -2.6481 -0.7953
   31CHL1  H21B 3454   4.741   1.070   5.154  4.5433 -1.5710  0.5546
   31CHL1  H21C 3455   4.631   0.926   5.130  1.0209 -0.8537  0.2723
   31CHL1   C22 3456   4.790   0.802   4.941  0.0283  0.3154 -0.0010
   31CHL1  H22A 3457   4.855   0.713   4.949 -0.7917 -0.4138 -1.1778
   31CHL1  H22B 3458   4.686   0.777   4.968 -0.4522  2.1319 -0.0125
   31CHL1   C23 3459   4.800   0.857   4.797  0.4201  0.1200  0.1634
   31CHL1  H23A 3460   4.740   0.950   4.789 -1.2941 -0.8988  0.6079
   31CHL1  H23B 3461   4.906   0.871   4.766  1.0052  0.8040  2.2794
   31CHL1   C24 3462   4.745   0.756   4.694 -0.1697 -0.3138  0.3768
   31CHL1  H24A 3463   4.804   0.662   4.686 -1.5728 -1.2244  0.3898
   31CHL1  H24B 3464   4.651   0.722   4.742 -0.0614  0.4793  1.1741
   31CHL1   C25 3465   4.727   0.816   4.556 -0.2889 -0.0693  0.9140
   31CHL1   H25 3466   4.685   0.919   4.551 -1.1031 -0.4558 -1.4446
   31CHL1   C26 3467   4.857   0.828   4.481 -0.1348 -0.3861 -0.2360
   31CHL1  H26A 3468   4.929   0.744   4.491  1.9482  1.5141  2.4109
   31CHL1  H26B 3469   4.836   0.850   4.374  1.2939  0.2080 -0.4147
   31CHL1  H26C 3470   4.920   0.914   4.511  1.5349 -0.8503 -2.1843
   31CHL1   C27 3471   4.624   0.731   4.480  0.0321  0.3862  0.6666
   31CHL1  H27A 3472   4.659   0.626   4.471 -1.7116 -0.0724 -2.7415
   31CHL1  H27B 3473   4.524   0.733   4.528 -0.0231 -0.6993  0.6314
   31CHL1  H27C 3474   4.618   0.779   4.380 -1.7325  1.7241  1.3377
   32CHL1    C3 3475   2.686   6.070   6.082  0.1321  0.2414  0.2210
   32CHL1    H3 3476   2.721   6.171   6.052 -0.4940  0.3689 -0.1006
   32CHL1    O3 3477   2.666   6.068   6.221  0.3441 -0.0435 -0.4620
   32CHL1   H3' 3478   2.739   6.112   6.265  0.6592 -1.3787  0.4070
   32CHL1    C4 3479   2.564   6.035   5.996  0.1444  0.1754  0.0128
   32CHL1   H4A 3480   2.534   5.936   6.035  0.0722  0.2763  0.2142
   32CHL1   H4B 3481   2.482   6.103   6.028 -0.2498  0.8859 -2.2625
   32CHL1    C5 3482   2.589   6.053   5.844  0.4001 -0.2196  0.5562
   32CHL1    C6 3483   2.532   6.155   5.771  1.0251  0.3882 -0.2011
   32CHL1    H6 3484   2.466   6.228   5.820 -1.5070 -2.4593  0.9299
   32CHL1    C7 3485   2.559   6.174   5.625 -0.3629  0.1665  0.1249
   32CHL1   H7A 3486   2.464   6.196   5.572 -0.7463  0.0961  0.7667
   32CHL1   H7B 3487   2.617   6.263   5.594  0.6607 -0.4902  0.0926
   32CHL1    C8 3488   2.633   6.056   5.563 -0.4328 -0.2134  0.0809
   32CHL1    H8 3489   2.567   5.970   5.539  1.5967 -1.1046 -2.8950
   32CHL1   C14 3490   2.694   6.088   5.424 -0.5225  0.4485 -0.8247
   32CHL1   H14 3491   2.778   6.156   5.449 -0.1117 -1.0064  2.2333
   32CHL1   C15 3492   2.599   6.162   5.326 -0.2976  0.5763  0.0976
   32CHL1  H15A 3493   2.500   6.111   5.319 -0.8793  1.8028 -1.5185
   32CHL1  H15B 3494   2.577   6.267   5.356 -4.8224 -0.1822  0.2305
   32CHL1   C16 3495   2.661   6.142   5.190 -0.1500 -0.4892 -0.3317
   32CHL1  H16A 3496   2.584   6.081   5.138  1.5290  0.2415 -3.9753
   32CHL1  H16B 3497   2.687   6.234   5.133 -0.6054 -0.2511 -0.1666
   32CHL1   C17 3498   2.787   6.054   5.207  0.1886  0.4340  0.4582
   32CHL1   H17 3499   2.873   6.123   5.216 -0.2679  1.0789 -0.0197
   32CHL1   C13 3500   2.760   5.973   5.344  0.0206 -0.1445  0.1732
   32CHL1   C18 3501   2.668   5.843   5.325 -0.8221 -0.1960  0.1154
   32CHL1  H18A 3502   2.593   5.863   5.245  1.1382 -1.2288 -2.0722
   32CHL1  H18B 3503   2.727   5.763   5.276 -1.6542 -0.6900 -0.1189
   32CHL1  H18C 3504   2.626   5.802   5.420  0.5174  0.8823  1.2028
   32CHL1   C12 3505   2.878   5.937   5.434 -0.2527 -0.6865 -0.1932
   32CHL1  H12A 3506   2.933   5.845   5.405 -0.6126 -1.8404  2.4528
   32CHL1  H12B 3507   2.955   6.017   5.427 -0.1992 -0.8705 -2.2666
   32CHL1   C11 3508   2.830   5.898   5.575  0.7221 -0.2854 -0.0590
   32CHL1  H11A 3509   2.781   5.799   5.565 -0.2283  0.4105 -3.1761
   32CHL1  H11B 3510   2.927   5.882   5.628  0.3817 -2.0865  0.0889
   32CHL1    C9 3511   2.747   6.007   5.653 -0.1762  0.5013  0.0653
   32CHL1    H9 3512   2.810   6.098   5.662  0.4159  0.5768 -3.3447
   32CHL1   C10 3513   2.694   5.964   5.794 -0.6912 -0.0392  0.7197
   32CHL1   C19 3514   2.631   5.822   5.779 -0.2711 -0.0151 -0.1470
   32CHL1  H19A 3515   2.710   5.745   5.770 -1.3768 -0.9843 -2.7469
   32CHL1  H19B 3516   2.577   5.787   5.870 -0.7492  1.3499  0.1149
   32CHL1  H19C 3517   2.559   5.813   5.694  0.3538 -0.2684 -0.6581
   32CHL1    C1 3518   2.818   5.965   5.895  0.6292  0.3425  0.6264
   32CHL1   H1A 3519   2.883   5.879   5.868 -0.9167  0.4359 -4.2568
   32CHL1   H1B 3520   2.878   6.056   5.875  2.8905 -1.1805  0.1285
   32CHL1    C2 3521   2.797   5.966   6.050  0.5011 -0.1033 -0.3966
   32CHL1   H2A 3522   2.890   5.992   6.105  0.0128  0.1442  0.3360
   32CHL1   H2B 3523   2.761   5.870   6.092  1.4879 -0.2863  0.0751
   32CHL1   C20 3524   2.808   5.975   5.079  0.1798 -0.2739 -0.0767
   32CHL1   H20 3525   2.727   5.901   5.068  0.4613 -0.3993 -1.5413
   32CHL1   C21 3526   2.944   5.904   5.093  0.1439 -0.5470 -0.4169
   32CHL1  H21A 3527   2.982   5.849   5.004  4.8263 -0.5900  1.3672
   32CHL1  H21B 3528   2.932   5.837   5.180 -0.9659  2.2285  1.7281
   32CHL1  H21C 3529   3.024   5.974   5.124  1.8192 -1.4567 -2.4476
   32CHL1   C22 3530   2.821   6.058   4.950 -0.2920 -0.6370  0.3987
   32CHL1  H22A 3531   2.722   6.109   4.943  0.3940  0.8999  1.2835
   32CHL1  H22B 3532   2.907   6.128   4.949 -1.6530  1.0971 -0.0847
   32CHL1   C23 3533   2.826   5.968   4.824 -1.1175  0.1749 -0.3017
   32CHL1  H23A 3534   2.932   5.941   4.802 -1.1008  0.0001 -0.0097
   32CHL1  H23B 3535   2.777   5.869   4.842 -0.3011 -0.3969 -1.0959
   32CHL1   C24 3536   2.760   6.031   4.702 -0.5830  0.1286  0.3476
   32CHL1  H24A 3537   2.651   6.042   4.719 -0.5555  0.1476  0.5108
   32CHL1  H24B 3538   2.800   6.133   4.682 -2.8153  0.9496 -0.1454
   32CHL1   C25 3539   2.771   5.954   4.558 -0.6835 -0.1808  0.3494
   32CHL1   H25 3540   2.767   5.845   4.578 -0.2632 -0.7066 -2.0928
   32CHL1   C26 3541   2.645   5.995   4.477 -0.1328  0.2168  0.7211
   32CHL1  H26A 3542   2.553   5.976   4.536 -0.8008  3.7808  1.0566
   32CHL1  H26B 3543   2.644   6.100   4.441  2.1460  0.0684  0.0622
   32CHL1  H26C 3544   2.619   5.934   4.388 -3.5568  1.2826  0.8281
   32CHL1   C27 3545   2.897   5.996   4.479 -0.3848  0.5690  0.2599
   32CHL1  H27A 3546   2.887   5.966   4.373 -1.6171 -1.7079  0.9399
   32CHL1  H27B 3547   2.896   6.107   4.486 -3.5191  0.5782  1.0905
   32CHL1  H27C 3548   2.989   5.960   4.530 -0.1888  0.7780  0.0566
   33CHL1    C3 3549   0.225   0.103   6.361  0.1267 -0.2482 -0.3144
   33CHL1    H3 3550   0.279   0.200   6.368 -1.1319  0.4946 -0.6389
   33CHL1    O3 3551   0.202   0.059   6.495 -0.0268 -0.1302 -0.4405
   33CHL1   H3' 3552   0.180  -0.035   6.491 -1.6318  0.0806  1.5863
   33CHL1    C4 3553   0.096   0.138   6.285 -0.3983  0.4200 -0.4852
   33CHL1   H4A 3554   0.036   0.047   6.304 -1.2952  0.6261 -2.1501
   33CHL1   H4B 3555   0.033   0.210   6.342 -0.7592 -1.6483  1.8960
   33CHL1    C5 3556   0.108   0.154   6.136 -0.0354 -0.0246 -0.3830
   33CHL1    C6 3557   0.043   0.249   6.081  0.3111 -0.2771  0.1568
   33CHL1    H6 3558  -0.026   0.307   6.145 -0.6102 -0.9622 -0.1806
   33CHL1    C7 3559   0.035   0.271   5.926  0.0962 -0.4859 -0.9329
   33CHL1   H7A 3560  -0.067   0.296   5.889  1.4026  0.3471 -4.3455
   33CHL1   H7B 3561   0.093   0.363   5.904 -1.2171  1.5346  3.0966
   33CHL1    C8 3562   0.089   0.154   5.842  0.3797 -0.2095  0.2452
   33CHL1    H8 3563   0.004   0.083   5.832  0.0027  0.3596 -0.7379
   33CHL1   C14 3564   0.133   0.207   5.709 -0.3855 -0.1421  0.6616
   33CHL1   H14 3565   0.213   0.283   5.722 -0.6160  0.2918 -0.3006
   33CHL1   C15 3566   0.035   0.283   5.623 -0.2030 -0.4257  0.3587
   33CHL1  H15A 3567  -0.066   0.248   5.654 -1.0679  1.4807 -0.1439
   33CHL1  H15B 3568   0.036   0.393   5.639 -0.1302 -0.7115  2.6849
   33CHL1   C16 3569   0.080   0.255   5.473 -0.5138  0.1646 -0.6013
   33CHL1  H16A 3570   0.002   0.192   5.425  0.6733 -0.5664 -1.6376
   33CHL1  H16B 3571   0.077   0.345   5.408  0.6272  0.0620 -0.8170
   33CHL1   C17 3572   0.220   0.179   5.482  0.4910 -0.3748  0.8849
   33CHL1   H17 3573   0.300   0.247   5.518 -0.5792 -0.0267  2.7229
   33CHL1   C13 3574   0.197   0.104   5.623 -0.5505  0.0023  0.5174
   33CHL1   C18 3575   0.091  -0.013   5.597  0.1389 -0.3208  0.5546
   33CHL1  H18A 3576  -0.004   0.018   5.547 -0.3620 -0.1200  1.6146
   33CHL1  H18B 3577   0.132  -0.092   5.530 -4.3778 -0.2564 -2.7483
   33CHL1  H18C 3578   0.070  -0.070   5.690  0.9738 -1.1842  0.2309
   33CHL1   C12 3579   0.328   0.053   5.696 -0.7002 -0.1333  0.8956
   33CHL1  H12A 3580   0.368  -0.029   5.632 -0.7282  0.4647  0.0920
   33CHL1  H12B 3581   0.408   0.130   5.698 -1.1267  0.3606 -0.1628
   33CHL1   C11 3582   0.289  -0.001   5.828  0.0280  0.4609  0.2741
   33CHL1  H11A 3583   0.240  -0.100   5.823 -1.1124  1.0507 -0.5672
   33CHL1  H11B 3584   0.381  -0.021   5.887 -0.6047 -0.2784  1.0351
   33CHL1    C9 3585   0.210   0.101   5.911 -0.4104 -0.3207  1.3513
   33CHL1    H9 3586   0.282   0.185   5.917 -0.6907  0.1055 -0.6614
   33CHL1   C10 3587   0.192   0.060   6.053  0.0521  0.6405 -0.6965
   33CHL1   C19 3588   0.112  -0.071   6.063 -0.1577  0.5061  0.0525
   33CHL1  H19A 3589   0.171  -0.158   6.026  0.9894  1.3223 -0.0921
   33CHL1  H19B 3590   0.092  -0.098   6.169  1.7861 -0.7617  0.1638
   33CHL1  H19C 3591   0.018  -0.069   6.004 -1.0481  0.6491  1.4349
   33CHL1    C1 3592   0.328   0.041   6.136 -0.0141  0.7727  0.3298
   33CHL1   H1A 3593   0.382  -0.046   6.094 -0.8375 -2.0394  4.4992
   33CHL1   H1B 3594   0.388   0.134   6.132 -0.2668  0.9181 -0.1644
   33CHL1    C2 3595   0.313  -0.000   6.284 -0.1938 -0.6270 -0.2778
   33CHL1   H2A 3596   0.416  -0.008   6.327  0.5167  2.3214 -1.1881
   33CHL1   H2B 3597   0.272  -0.103   6.296 -0.5032 -0.4277  0.4087
   33CHL1   C20 3598   0.270   0.104   5.358  0.4799 -0.1369  0.1440
   33CHL1   H20 3599   0.245  -0.005   5.363  2.5396 -0.6106  1.1683
   33CHL1   C21 3600   0.420   0.101   5.366 -0.3114 -0.3273  0.4333
   33CHL1  H21A 3601   0.470   0.196   5.338  0.0829 -0.2436  1.3675
   33CHL1  H21B 3602   0.463   0.025   5.297 -0.9023  0.7406 -1.1488
   33CHL1  H21C 3603   0.447   0.086   5.473 -1.1009 -2.6364  0.3777
   33CHL1   C22 3604   0.216   0.171   5.234 -0.0406  0.1175 -0.0502
   33CHL1  H22A 3605   0.107   0.195   5.240 -0.0696 -0.2809  1.3696
   33CHL1  H22B 3606   0.262   0.268   5.205  1.8191 -0.5461  0.5484
   33CHL1   C23 3607   0.232   0.085   5.110 -0.3511 -0.6962 -0.7478
   33CHL1  H23A 3608   0.342   0.066   5.107 -0.7101 -2.9648 -1.4518
   33CHL1  H23B 3609   0.176  -0.011   5.108  1.0476 -1.5601 -0.0624
   33CHL1   C24 3610   0.182   0.167   4.989 -0.0461  0.4413  0.1348
   33CHL1  H24A 3611   0.080   0.205   5.010 -0.0418  0.0650  0.8778
   33CHL1  H24B 3612   0.241   0.261   4.990 -0.1761  0.5209  0.3659
   33CHL1   C25 3613   0.179   0.097   4.856  0.5217  0.0291  0.0578
   33CHL1   H25 3614   0.278   0.052   4.831  1.0504  1.1170  0.1402
   33CHL1   C26 3615   0.076  -0.016   4.840  0.1556 -0.1778 -0.4900
   33CHL1  H26A 3616  -0.026   0.021   4.864 -1.1780 -2.4351 -2.1718
   33CHL1  H26B 3617   0.072  -0.060   4.738  1.5173 -0.1724 -0.5661
   33CHL1  H26C 3618   0.089  -0.096   4.915 -0.0808  2.0819  2.1243
   33CHL1   C27 3619   0.153   0.194   4.740 -0.1546  0.3338  0.0678
   33CHL1  H27A 3620   0.069   0.264   4.759 -1.0476 -0.7546  0.2132
   33CHL1  H27B 3621   0.247   0.247   4.713  0.4949  0.1041  1.7675
   33CHL1  H27C 3622   0.120   0.137   4.650 -1.3707  2.1764 -0.7247
   34CHL1    C3 3623   4.709   1.864   6.160 -0.0189 -0.2226  0.0749
   34CHL1    H3 3624   4.633   1.926   6.212  1.9279  2.7919 -0.4260
   34CHL1    O3 3625   4.809   1.814   6.253  0.1290 -0.0201  0.6724
   34CHL1   H3' 3626   4.759   1.739   6.286 -1.3767  0.0246 -1.3725
   34CHL1    C4 3627   4.650   1.750   6.084  1.1997 -0.1155 -0.3775
   34CHL1   H4A 3628   4.728   1.672   6.069  0.6893 -0.5949 -0.5772
   34CHL1   H4B 3629   4.576   1.708   6.155  1.2060  1.5669  0.6568
   34CHL1    C5 3630   4.577   1.775   5.949 -0.1780 -0.7176 -0.9608
   34CHL1    C6 3631   4.443   1.750   5.932  0.5577  0.2858  0.8258
   34CHL1    H6 3632   4.392   1.696   6.014  0.9999  0.7929  1.4463
   34CHL1    C7 3633   4.379   1.780   5.800  0.1177 -0.1055  0.5311
   34CHL1   H7A 3634   4.312   1.698   5.766  0.9078 -1.1040  1.3031
   34CHL1   H7B 3635   4.315   1.869   5.811  0.6238  0.2186  0.9103
   34CHL1    C8 3636   4.481   1.809   5.679  1.0556  0.7178 -0.1926
   34CHL1    H8 3637   4.524   1.710   5.653  2.1000  0.6280  1.6986
   34CHL1   C14 3638   4.404   1.860   5.560  0.9219  0.7600 -0.3310
   34CHL1   H14 3639   4.354   1.957   5.578  1.7387  1.3123 -0.9381
   34CHL1   C15 3640   4.291   1.767   5.511  0.2270  0.1277  0.3496
   34CHL1  H15A 3641   4.323   1.661   5.500 -0.1755 -0.0350  0.7526
   34CHL1  H15B 3642   4.200   1.794   5.569  0.3089  0.8421  0.1485
   34CHL1   C16 3643   4.260   1.832   5.375  0.8501  0.3375 -0.0339
   34CHL1  H16A 3644   4.270   1.749   5.301  0.9976 -0.2186  0.5909
   34CHL1  H16B 3645   4.159   1.875   5.392 -0.5785 -3.3163  1.9529
   34CHL1   C17 3646   4.368   1.942   5.352  0.7080 -0.5281  0.4058
   34CHL1   H17 3647   4.335   2.040   5.393 -1.5106 -2.2695  3.1392
   34CHL1   C13 3648   4.489   1.901   5.443 -0.7989 -0.5244 -0.1396
   34CHL1   C18 3649   4.568   1.787   5.388  0.0391 -0.4349  0.4768
   34CHL1  H18A 3650   4.494   1.717   5.343 -3.9761  1.3857  3.5930
   34CHL1  H18B 3651   4.633   1.832   5.310 -1.2699  0.1532 -0.2977
   34CHL1  H18C 3652   4.628   1.718   5.451 -2.2498 -1.5554  1.5261
   34CHL1   C12 3653   4.593   2.009   5.495  0.2352 -0.1571 -0.0809
   34CHL1  H12A 3654   4.655   2.059   5.418 -2.2110  0.7451 -1.5770
   34CHL1  H12B 3655   4.524   2.083   5.540  0.3406  0.0572 -0.2662
   34CHL1   C11 3656   4.680   1.960   5.615  0.8263  0.4801  0.2854
   34CHL1  H11A 3657   4.747   1.885   5.568 -1.2575  0.5848 -3.1061
   34CHL1  H11B 3658   4.745   2.049   5.627  0.9270  0.6377 -1.2967
   34CHL1    C9 3659   4.591   1.904   5.726 -0.3536 -0.4347 -0.0261
   34CHL1    H9 3660   4.543   1.996   5.764 -0.8197  0.0477 -1.6880
   34CHL1   C10 3661   4.663   1.859   5.857  0.1240 -0.3626 -0.1521
   34CHL1   C19 3662   4.793   1.780   5.819 -0.1021  0.4301 -0.7162
   34CHL1  H19A 3663   4.870   1.846   5.773  0.6045  1.3813  1.7061
   34CHL1  H19B 3664   4.841   1.736   5.908 -2.3387  1.4762  1.0939
   34CHL1  H19C 3665   4.771   1.704   5.741 -1.3083 -0.8745  0.8504
   34CHL1    C1 3666   4.707   1.986   5.935  0.4144 -0.2729 -0.2444
   34CHL1   H1A 3667   4.759   2.057   5.867 -1.8677  1.0962 -0.6678
   34CHL1   H1B 3668   4.611   2.038   5.957 -0.6270 -1.7037 -1.2451
   34CHL1    C2 3669   4.788   1.954   6.058  0.0275 -0.0912  0.1552
   34CHL1   H2A 3670   4.824   2.046   6.109 -0.2994 -0.6204  1.4036
   34CHL1   H2B 3671   4.885   1.911   6.023 -0.1976 -0.0085 -0.5769
   34CHL1   C20 3672   4.398   1.947   5.201 -0.0362 -0.7200  0.1800
   34CHL1   H20 3673   4.439   1.853   5.158 -0.7413 -1.2497  0.6414
   34CHL1   C21 3674   4.502   2.061   5.174 -0.0622 -0.5163 -0.0808
   34CHL1  H21A 3675   4.596   2.030   5.225 -0.4464 -0.2809  0.7735
   34CHL1  H21B 3676   4.477   2.161   5.215  1.0710 -1.0389  2.0421
   34CHL1  H21C 3677   4.512   2.077   5.064  2.5805 -0.5561  0.0883
   34CHL1   C22 3678   4.264   1.986   5.128 -0.1121 -0.0033  0.8618
   34CHL1  H22A 3679   4.194   1.899   5.135 -0.5524  0.3966  1.6016
   34CHL1  H22B 3680   4.219   2.083   5.157 -0.8269  0.2238 -0.8486
   34CHL1   C23 3681   4.283   1.995   4.969 -0.1731 -0.0473  0.0573
   34CHL1  H23A 3682   4.341   2.083   4.935  0.3627 -1.1233 -1.9186
   34CHL1  H23B 3683   4.326   1.900   4.931 -0.7729 -1.7687  3.2613
   34CHL1   C24 3684   4.146   2.006   4.905  0.3116 -0.1612 -0.4496
   34CHL1  H24A 3685   4.078   1.922   4.926 -1.5731  1.5178  0.5175
   34CHL1  H24B 3686   4.095   2.101   4.933 -1.0795 -0.5859 -1.4597
   34CHL1   C25 3687   4.153   1.998   4.749 -0.2089  0.5793 -0.6440
   34CHL1   H25 3688   4.256   2.029   4.724  0.0627 -0.3883 -0.7234
   34CHL1   C26 3689   4.144   1.847   4.704  0.2461  0.3230 -0.3374
   34CHL1  H26A 3690   4.173   1.841   4.597  0.9528 -0.1799 -0.1310
   34CHL1  H26B 3691   4.213   1.791   4.771 -0.0965  1.5300  1.0792
   34CHL1  H26C 3692   4.043   1.802   4.714  0.2304  0.3487 -0.3809
   34CHL1   C27 3693   4.072   2.108   4.670  0.0080 -0.4745  0.4787
   34CHL1  H27A 3694   4.111   2.093   4.567 -1.6991 -1.3751 -0.0625
   34CHL1  H27B 3695   3.964   2.085   4.679  0.0444 -1.6700 -1.4833
   34CHL1  H27C 3696   4.085   2.210   4.712  0.1873  0.5514 -1.8985
   35CHL1    C3 3697   6.619   2.894   6.255  0.1049 -0.3655  0.1270
   35CHL1    H3 3698   6.687   2.809   6.234 -1.7308 -1.7709 -0.3269
   35CHL1    O3 3699   6.629   2.903   6.401 -0.1361  0.6445 -0.1736
   35CHL1   H3' 3700   6.724   2.887   6.407  0.3446  3.2788  0.1246
   35CHL1    C4 3701   6.664   3.025   6.182 -0.5708  0.3125 -0.6710
   35CHL1   H4A 3702   6.618   3.115   6.227 -1.1191 -0.0858 -0.4176
   35CHL1   H4B 3703   6.770   3.044   6.209 -0.2859 -0.0261 -1.5201
   35CHL1    C5 3704   6.651   3.013   6.028 -0.7980  0.5209  0.0238
   35CHL1    C6 3705   6.752   3.024   5.934 -0.6019  0.5295 -0.1276
   35CHL1    H6 3706   6.849   3.057   5.974 -1.0214 -0.4106  1.7598
   35CHL1    C7 3707   6.740   3.007   5.786  0.2266  0.5710  0.2386
   35CHL1   H7A 3708   6.782   3.092   5.728  0.4742 -0.9513 -1.9143
   35CHL1   H7B 3709   6.793   2.915   5.754  0.9898  1.3690 -0.8875
   35CHL1    C8 3710   6.594   3.009   5.734  0.0168  0.2015 -0.0952
   35CHL1    H8 3711   6.567   3.116   5.740 -0.4410  0.0503  0.6889
   35CHL1   C14 3712   6.581   2.955   5.591 -0.1189 -0.1592  0.1051
   35CHL1   H14 3713   6.607   2.847   5.599 -1.4753 -0.4375  1.1543
   35CHL1   C15 3714   6.668   3.027   5.489  1.0362  1.2335 -0.3818
   35CHL1  H15A 3715   6.680   3.137   5.500  1.5306  1.1776 -0.3435
   35CHL1  H15B 3716   6.769   2.982   5.485  1.2253  1.6520 -0.4049
   35CHL1   C16 3717   6.607   2.987   5.352 -0.8560  0.5179 -0.1997
   35CHL1  H16A 3718   6.602   3.079   5.290  0.6129  1.7451  1.4069
   35CHL1  H16B 3719   6.672   2.912   5.301 -1.8224 -0.1060 -0.5459
   35CHL1   C17 3720   6.466   2.925   5.388  0.4929 -0.7377  0.4453
   35CHL1   H17 3721   6.468   2.816   5.371  0.7735 -0.5427 -0.8688
   35CHL1   C13 3722   6.441   2.953   5.539  0.0494  0.8516  0.2402
   35CHL1   C18 3723   6.378   3.087   5.553 -0.2029  0.0453 -0.2422
   35CHL1  H18A 3724   6.400   3.123   5.656  1.7626 -0.6549 -0.3766
   35CHL1  H18B 3725   6.419   3.167   5.488 -1.2990  0.0810 -0.9103
   35CHL1  H18C 3726   6.267   3.080   5.553 -0.2027 -0.0207 -0.9383
   35CHL1   C12 3727   6.364   2.847   5.619 -0.1070  0.0529 -0.1583
   35CHL1  H12A 3728   6.260   2.827   5.585  0.2633  0.7043 -1.7553
   35CHL1  H12B 3729   6.415   2.749   5.606 -0.2626 -0.1968  0.9724
   35CHL1   C11 3730   6.369   2.879   5.770  0.3739  0.2488 -0.1019
   35CHL1  H11A 3731   6.300   2.965   5.780  2.2537  1.7034  1.0229
   35CHL1  H11B 3732   6.314   2.798   5.823  1.5114 -1.2598 -1.1513
   35CHL1    C9 3733   6.513   2.920   5.826 -0.2221 -0.0100  0.5343
   35CHL1    H9 3734   6.569   2.824   5.831  3.0469  1.8166  2.1301
   35CHL1   C10 3735   6.515   2.967   5.980  0.0555  0.5509 -0.2542
   35CHL1   C19 3736   6.428   3.096   5.998  0.5504 -0.1669 -0.0838
   35CHL1  H19A 3737   6.323   3.077   5.969  0.4895 -0.8204  0.5267
   35CHL1  H19B 3738   6.429   3.134   6.103 -2.6351 -1.4883  0.5261
   35CHL1  H19C 3739   6.469   3.174   5.931 -0.7964 -1.4002 -2.4762
   35CHL1    C1 3740   6.465   2.839   6.062  0.0864 -0.1460  0.1675
   35CHL1   H1A 3741   6.356   2.819   6.049 -0.0163 -0.3779  1.2571
   35CHL1   H1B 3742   6.518   2.749   6.023  0.6505  0.4237 -0.3826
   35CHL1    C2 3743   6.489   2.844   6.212  0.5470  0.0698  0.3396
   35CHL1   H2A 3744   6.467   2.739   6.244 -0.8026 -0.2465 -1.4537
   35CHL1   H2B 3745   6.402   2.903   6.249 -0.5385 -1.5636  0.5443
   35CHL1   C20 3746   6.354   2.968   5.290 -0.2906  0.0386  1.1470
   35CHL1   H20 3747   6.334   3.077   5.289 -2.7274 -0.2382 -2.4116
   35CHL1   C21 3748   6.216   2.905   5.315 -0.3975  0.0364 -0.2738
   35CHL1  H21A 3749   6.190   2.802   5.282  2.2995 -0.4583 -1.1228
   35CHL1  H21B 3750   6.148   2.981   5.271 -0.8495  0.4030  0.9986
   35CHL1  H21C 3751   6.200   2.919   5.424 -1.7032  1.5407 -0.6161
   35CHL1   C22 3752   6.399   2.929   5.145 -0.0862  0.5131  0.0004
   35CHL1  H22A 3753   6.502   2.964   5.120  0.1492 -0.1322  0.0477
   35CHL1  H22B 3754   6.405   2.818   5.139  1.6765  0.5455  0.6018
   35CHL1   C23 3755   6.299   2.973   5.030  0.0171  0.2673 -0.9239
   35CHL1  H23A 3756   6.348   2.962   4.931  0.0210  1.4420 -1.0674
   35CHL1  H23B 3757   6.209   2.909   5.030 -1.2242  1.9407 -1.0400
   35CHL1   C24 3758   6.269   3.122   5.043  0.1147  0.2699  0.2307
   35CHL1  H24A 3759   6.201   3.139   5.130  0.5565  0.8945  0.4599
   35CHL1  H24B 3760   6.364   3.176   5.060  1.2786 -1.3723 -0.7939
   35CHL1   C25 3761   6.200   3.199   4.921 -0.0506 -0.3925 -0.5526
   35CHL1   H25 3762   6.259   3.171   4.831  0.1827  0.0056 -0.5248
   35CHL1   C26 3763   6.056   3.168   4.891  0.1541 -0.4863 -0.2468
   35CHL1  H26A 3764   6.026   3.063   4.909  0.8617 -0.9350 -1.5274
   35CHL1  H26B 3765   5.994   3.233   4.958 -0.3082 -2.9267  1.8243
   35CHL1  H26C 3766   6.038   3.191   4.783 -0.2286  1.2284  0.1454
   35CHL1   C27 3767   6.234   3.355   4.934  0.0182  0.1531  1.1402
   35CHL1  H27A 3768   6.192   3.394   5.029  3.1367 -1.2042  3.2322
   35CHL1  H27B 3769   6.344   3.359   4.943 -0.0895  3.8550  2.2007
   35CHL1  H27C 3770   6.202   3.414   4.846  0.1352 -0.2934  0.7949
   36CHL1    C3 3771   4.627   0.558   6.126 -0.2030 -0.2684 -0.2874
   36CHL1    H3 3772   4.556   0.641   6.148  0.1823 -0.0946  0.3446
   36CHL1    O3 3773   4.669   0.533   6.259 -0.0139 -0.0714 -0.3403
   36CHL1   H3' 3774   4.581   0.529   6.298 -0.4338  1.8870 -0.9998
   36CHL1    C4 3775   4.563   0.430   6.067  0.0288  0.0860  0.3087
   36CHL1   H4A 3776   4.640   0.350   6.066  0.2618  0.1641  2.9636
   36CHL1   H4B 3777   4.487   0.390   6.138  1.0995 -0.3574  1.2411
   36CHL1    C5 3778   4.512   0.452   5.927  0.1212  0.3582  0.4301
   36CHL1    C6 3779   4.380   0.427   5.901 -0.7824  0.6414 -0.0696
   36CHL1    H6 3780   4.316   0.369   5.969 -0.4875  0.0956 -0.2502
   36CHL1    C7 3781   4.314   0.441   5.774 -0.0228 -0.0771  0.6548
   36CHL1   H7A 3782   4.248   0.353   5.758 -0.5915  0.3685  0.5400
   36CHL1   H7B 3783   4.246   0.529   5.777  1.0119  0.8128 -0.5013
   36CHL1    C8 3784   4.412   0.470   5.659 -1.0717 -0.7047 -0.7506
   36CHL1    H8 3785   4.457   0.370   5.639  1.0775  0.1250 -0.3741
   36CHL1   C14 3786   4.353   0.536   5.539 -0.6785 -0.2378  0.0090
   36CHL1   H14 3787   4.323   0.638   5.573 -2.4837 -0.0599 -1.9679
   36CHL1   C15 3788   4.219   0.486   5.494 -0.6724  0.0190  0.1080
   36CHL1  H15A 3789   4.203   0.377   5.504  2.6973 -0.5642  0.2641
   36CHL1  H15B 3790   4.137   0.540   5.547  0.4505  2.0600 -0.1237
   36CHL1   C16 3791   4.209   0.527   5.352  0.1748 -0.3973  0.0847
   36CHL1  H16A 3792   4.199   0.438   5.286  2.3191 -0.0727 -0.7578
   36CHL1  H16B 3793   4.133   0.606   5.335 -0.5588 -1.6495 -3.1351
   36CHL1   C17 3794   4.341   0.598   5.312  0.0843  0.3804  0.2306
   36CHL1   H17 3795   4.331   0.709   5.318  0.0936  0.4190 -0.4160
   36CHL1   C13 3796   4.443   0.549   5.417  0.4281  0.8003  0.3338
   36CHL1   C18 3797   4.503   0.411   5.367  0.5021 -0.0685  0.1611
   36CHL1  H18A 3798   4.571   0.379   5.448 -0.4763  0.2879  1.1542
   36CHL1  H18B 3799   4.420   0.337   5.355 -1.4596  1.8860  1.0291
   36CHL1  H18C 3800   4.550   0.423   5.267 -1.6035 -0.4630 -0.9368
   36CHL1   C12 3801   4.565   0.642   5.452  0.5074 -0.0402 -0.2948
   36CHL1  H12A 3802   4.635   0.644   5.366 -1.0091 -1.7251 -1.6451
   36CHL1  H12B 3803   4.520   0.743   5.463  0.0478 -0.3292  0.6323
   36CHL1   C11 3804   4.631   0.595   5.581 -0.0586 -0.8487  0.2065
   36CHL1  H11A 3805   4.683   0.502   5.549  0.0308 -0.8036  0.2207
   36CHL1  H11B 3806   4.682   0.686   5.619 -1.0542 -0.7909  1.4989
   36CHL1    C9 3807   4.532   0.568   5.706  0.4673  0.5219  0.1866
   36CHL1    H9 3808   4.477   0.659   5.737  2.2065  1.9183 -0.6272
   36CHL1   C10 3809   4.614   0.522   5.833 -0.3024 -0.0874  0.0748
   36CHL1   C19 3810   4.722   0.418   5.798 -0.1964  0.0498 -0.1055
   36CHL1  H19A 3811   4.795   0.453   5.722 -1.4158  0.0761 -1.3043
   36CHL1  H19B 3812   4.789   0.401   5.886  1.5134  0.9410 -1.1705
   36CHL1  H19C 3813   4.680   0.324   5.758 -1.7295  0.9035 -0.5858
   36CHL1    C1 3814   4.700   0.645   5.896  0.6531 -0.3947  0.5858
   36CHL1   H1A 3815   4.783   0.662   5.824  0.8058  1.7450  1.2001
   36CHL1   H1B 3816   4.631   0.733   5.891  0.9639 -0.0687  1.7801
   36CHL1    C2 3817   4.744   0.615   6.040  0.0294  0.5433  0.3451
   36CHL1   H2A 3818   4.790   0.703   6.088 -0.3390  1.2430 -0.5388
   36CHL1   H2B 3819   4.826   0.540   6.040  1.1196  1.5418 -2.9181
   36CHL1   C20 3820   4.371   0.596   5.156 -0.1181  0.9125  0.1247
   36CHL1   H20 3821   4.386   0.492   5.120 -4.1479  0.3291 -0.4213
   36CHL1   C21 3822   4.488   0.691   5.125 -0.6206  0.5114 -0.1285
   36CHL1  H21A 3823   4.587   0.655   5.161 -1.9546 -2.2756  1.0541
   36CHL1  H21B 3824   4.458   0.796   5.145 -2.8089  0.0385 -0.6444
   36CHL1  H21C 3825   4.505   0.690   5.015 -0.6740  0.2806 -0.1354
   36CHL1   C22 3826   4.247   0.638   5.077 -0.3494  0.2867 -0.9478
   36CHL1  H22A 3827   4.156   0.581   5.104  0.2307 -0.6366 -0.8714
   36CHL1  H22B 3828   4.231   0.746   5.100 -0.8356  0.1732 -0.7539
   36CHL1   C23 3829   4.263   0.620   4.923  0.1536 -0.0035  0.0765
   36CHL1  H23A 3830   4.342   0.689   4.886 -0.6385  1.8776  1.6926
   36CHL1  H23B 3831   4.299   0.515   4.912  2.4943  0.4345  2.4447
   36CHL1   C24 3832   4.131   0.652   4.846  0.8530  0.0234 -0.1084
   36CHL1  H24A 3833   4.053   0.582   4.883 -0.8238  1.6609 -0.3935
   36CHL1  H24B 3834   4.096   0.755   4.867  1.1954  0.1869 -0.3323
   36CHL1   C25 3835   4.147   0.616   4.700  0.1881  0.3479  0.4060
   36CHL1   H25 3836   4.173   0.508   4.708 -3.4509 -0.5387  2.7714
   36CHL1   C26 3837   4.014   0.623   4.615  0.1344 -0.4034 -0.0651
   36CHL1  H26A 3838   3.934   0.579   4.677  0.8100  0.2339  1.3228
   36CHL1  H26B 3839   3.997   0.733   4.610  2.2654 -0.0118  0.1319
   36CHL1  H26C 3840   4.017   0.589   4.509  1.1374 -0.5582  0.0028
   36CHL1   C27 3841   4.255   0.698   4.626 -0.3056  0.1193 -0.6919
   36CHL1  H27A 3842   4.354   0.676   4.670 -0.9145 -1.0303  0.1404
   36CHL1  H27B 3843   4.274   0.663   4.522  1.4079  0.4844 -0.5217
   36CHL1  H27C 3844   4.241   0.808   4.619  0.2918  0.1005 -3.0638
   37CHL1    C3 3845   6.442   3.894   6.172 -0.1782 -0.0721  0.6865
   37CHL1    H3 3846   6.511   3.808   6.157  1.3288  1.4143 -1.4526
   37CHL1    O3 3847   6.405   3.894   6.305 -0.3218 -0.0248 -0.1528
   37CHL1   H3' 3848   6.339   3.963   6.297 -0.7576 -0.4780 -0.6230
   37CHL1    C4 3849   6.518   4.019   6.128 -0.8072 -1.1168 -0.3403
   37CHL1   H4A 3850   6.455   4.110   6.140  1.1844  0.0788  1.8630
   37CHL1   H4B 3851   6.601   4.043   6.199 -1.5145  0.2662  0.0593
   37CHL1    C5 3852   6.564   4.017   5.980 -0.0419  0.2784 -0.3837
   37CHL1    C6 3853   6.695   4.028   5.948 -0.2246  0.7365  0.1367
   37CHL1    H6 3854   6.776   4.054   6.018 -0.1811  0.2578  0.2680
   37CHL1    C7 3855   6.744   4.012   5.806 -1.0231 -0.5248  0.0167
   37CHL1   H7A 3856   6.815   4.093   5.779  0.2791 -1.0875  1.5902
   37CHL1   H7B 3857   6.793   3.914   5.789 -0.1938 -0.0793 -0.2320
   37CHL1    C8 3858   6.631   4.033   5.708 -0.3037  0.2567 -0.4056
   37CHL1    H8 3859   6.600   4.139   5.721  2.7805  1.1197  0.7710
   37CHL1   C14 3860   6.678   4.011   5.566 -0.3459 -0.2598 -0.3725
   37CHL1   H14 3861   6.734   3.916   5.575  2.0437  1.2675  3.0385
   37CHL1   C15 3862   6.802   4.101   5.506  0.1195  0.7567 -0.0625
   37CHL1  H15A 3863   6.783   4.209   5.520  1.3146  1.0761 -0.8163
   37CHL1  H15B 3864   6.895   4.069   5.556  0.7641 -0.2602 -1.8172
   37CHL1   C16 3865   6.797   4.051   5.361  0.0144 -0.4218 -0.1457
   37CHL1  H16A 3866   6.817   4.141   5.299  4.6184 -1.0476  0.1325
   37CHL1  H16B 3867   6.876   3.976   5.342  0.6193  0.3766 -0.8746
   37CHL1   C17 3868   6.662   3.985   5.329  0.0632  0.7627 -0.6252
   37CHL1   H17 3869   6.664   3.874   5.326  0.0021  0.7482 -0.2241
   37CHL1   C13 3870   6.571   4.010   5.457 -0.0933 -0.6396 -0.2287
   37CHL1   C18 3871   6.508   4.151   5.453 -0.6159 -0.1388  0.0667
   37CHL1  H18A 3872   6.569   4.240   5.426  0.2727 -0.4025  1.1010
   37CHL1  H18B 3873   6.424   4.135   5.382 -0.4340 -1.0775  0.0472
   37CHL1  H18C 3874   6.459   4.178   5.549 -2.0705 -0.1892 -0.6462
   37CHL1   C12 3875   6.463   3.904   5.491 -0.0968 -0.3531 -0.2488
   37CHL1  H12A 3876   6.379   3.899   5.419  0.1866 -0.5945 -0.5678
   37CHL1  H12B 3877   6.522   3.810   5.489 -0.1896 -0.4393  0.8319
   37CHL1   C11 3878   6.409   3.926   5.633 -0.3341 -0.3694  0.1465
   37CHL1  H11A 3879   6.352   4.021   5.633  0.3150  0.0239  0.0720
   37CHL1  H11B 3880   6.342   3.839   5.651 -2.6407  1.0253 -1.1078
   37CHL1    C9 3881   6.510   3.942   5.748 -0.3829 -0.5162 -0.2360
   37CHL1    H9 3882   6.562   3.845   5.763  1.1694  0.5490  1.6002
   37CHL1   C10 3883   6.450   3.990   5.882 -0.0008  0.2515 -0.1271
   37CHL1   C19 3884   6.358   4.120   5.870 -0.7849 -0.0330 -0.1243
   37CHL1  H19A 3885   6.336   4.168   5.968 -2.2300  0.3050 -0.5938
   37CHL1  H19B 3886   6.408   4.199   5.810  0.0459 -0.2514  0.2616
   37CHL1  H19C 3887   6.258   4.093   5.829 -0.4886 -0.2519 -0.7107
   37CHL1    C1 3888   6.361   3.872   5.936  0.5316  0.7278  0.4158
   37CHL1   H1A 3889   6.276   3.868   5.866  3.3084  0.9200 -3.2483
   37CHL1   H1B 3890   6.412   3.776   5.911  1.1356  1.2211 -0.3058
   37CHL1    C2 3891   6.316   3.877   6.079 -0.0924  0.2811 -0.0133
   37CHL1   H2A 3892   6.255   3.791   6.113  0.3836 -0.6797 -1.4837
   37CHL1   H2B 3893   6.250   3.966   6.089 -0.8407  0.3447 -3.8320
   37CHL1   C20 3894   6.614   4.027   5.197  0.4169 -0.4925  0.1720
   37CHL1   H20 3895   6.619   4.138   5.197 -0.2919 -0.4542 -0.4526
   37CHL1   C21 3896   6.475   3.963   5.176 -0.0399 -0.4703  0.0197
   37CHL1  H21A 3897   6.477   3.864   5.227  2.3159  0.1153  1.2023
   37CHL1  H21B 3898   6.458   3.957   5.067  0.8198 -0.0183 -0.1502
   37CHL1  H21C 3899   6.394   4.024   5.221 -0.0980  0.2634 -1.0580
   37CHL1   C22 3900   6.707   3.970   5.090  0.0168  0.3898  0.3756
   37CHL1  H22A 3901   6.814   3.975   5.120  0.9359  1.0107 -2.6201
   37CHL1  H22B 3902   6.680   3.863   5.076 -0.1221  0.3465  0.9740
   37CHL1   C23 3903   6.693   4.037   4.949 -0.1028 -0.0547 -0.0402
   37CHL1  H23A 3904   6.595   4.087   4.943  0.1124  0.4009  0.1861
   37CHL1  H23B 3905   6.774   4.113   4.948 -1.1771  1.1149  0.1540
   37CHL1   C24 3906   6.718   3.935   4.843  0.7724  0.4751  0.0938
   37CHL1  H24A 3907   6.814   3.881   4.856 -0.9262 -3.1010 -1.0016
   37CHL1  H24B 3908   6.638   3.864   4.871 -0.8005  2.9235  2.3292
   37CHL1   C25 3909   6.713   4.005   4.698  0.3699  0.8420  0.3055
   37CHL1   H25 3910   6.792   4.083   4.693  2.9479 -1.6405 -0.6305
   37CHL1   C26 3911   6.761   3.906   4.585  0.3023 -0.2132 -0.5222
   37CHL1  H26A 3912   6.808   3.963   4.502  0.3061 -0.9815 -1.0670
   37CHL1  H26B 3913   6.842   3.832   4.603  0.0178 -0.3877  0.0668
   37CHL1  H26C 3914   6.669   3.861   4.541 -1.8432  1.4460  1.9676
   37CHL1   C27 3915   6.570   4.066   4.656 -0.9741  0.7170 -0.5670
   37CHL1  H27A 3916   6.585   4.137   4.572  1.8828  0.9231  0.0207
   37CHL1  H27B 3917   6.509   3.976   4.634  1.6295 -1.3588  0.1732
   37CHL1  H27C 3918   6.524   4.124   4.739  0.9535  1.4249  0.0635
   38CHL1    C3 3919   1.051   6.244   6.254  0.2874 -0.8095 -1.0346
   38CHL1    H3 3920   0.945   6.211   6.254 -1.0390  2.7252  2.3044
   38CHL1    O3 3921   1.068   6.298   6.382  0.1758  0.1498 -0.1230
   38CHL1   H3' 3922   1.030   6.238   6.448  1.4258  0.5612  1.0209
   38CHL1    C4 3923   1.160   6.139   6.227  0.0384  1.0916  0.0869
   38CHL1   H4A 3924   1.259   6.189   6.219  0.3155  0.7002  0.9502
   38CHL1   H4B 3925   1.152   6.059   6.304 -1.1332  1.3384  0.2451
   38CHL1    C5 3926   1.125   6.084   6.089  0.1405  0.7616 -0.3915
   38CHL1    C6 3927   1.078   5.957   6.074  0.0924  0.1109 -0.1718
   38CHL1    H6 3928   1.051   5.890   6.157  1.3538 -2.7420 -1.9301
   38CHL1    C7 3929   1.051   5.887   5.938 -0.0429  0.5075  0.2497
   38CHL1   H7A 3930   1.090   5.783   5.943  0.7979  0.8503  1.1607
   38CHL1   H7B 3931   0.944   5.870   5.914 -0.9616  3.6258  1.6669
   38CHL1    C8 3932   1.121   5.967   5.823 -0.7704 -0.3553 -0.7444
   38CHL1    H8 3933   1.228   5.939   5.813 -0.8353 -0.0508 -2.8224
   38CHL1   C14 3934   1.069   5.933   5.691 -0.4969  0.4156  0.2096
   38CHL1   H14 3935   0.965   5.971   5.696 -0.4520  0.8514 -1.3887
   38CHL1   C15 3936   1.074   5.774   5.662 -0.6681  0.0261  0.2056
   38CHL1  H15A 3937   1.169   5.724   5.689 -1.8868 -2.1716  0.6287
   38CHL1  H15B 3938   0.991   5.728   5.718 -3.0630  2.7927 -0.8193
   38CHL1   C16 3939   1.039   5.772   5.514 -0.0410  0.6840 -0.2166
   38CHL1  H16A 3940   1.117   5.723   5.452 -1.1676  0.3939 -1.4381
   38CHL1  H16B 3941   0.938   5.731   5.494 -0.7680  2.3869 -0.1756
   38CHL1   C17 3942   1.043   5.919   5.460 -0.9872  0.1090 -0.0618
   38CHL1   H17 3943   0.938   5.954   5.464 -2.0127 -2.7248  0.3337
   38CHL1   C13 3944   1.126   5.996   5.567  0.0234  0.4180  0.2335
   38CHL1   C18 3945   1.269   5.963   5.549  0.2787  0.1177 -0.1658
   38CHL1  H18A 3946   1.332   6.013   5.626  3.1552 -0.0026 -2.2776
   38CHL1  H18B 3947   1.300   5.856   5.546  3.2859  0.9145 -0.3796
   38CHL1  H18C 3948   1.309   6.012   5.458  0.7693  2.8621  1.4242
   38CHL1   C12 3949   1.113   6.148   5.582  0.4426 -0.1628  0.7378
   38CHL1  H12A 3950   1.171   6.190   5.497 -0.8648 -2.0354 -1.1867
   38CHL1  H12B 3951   1.005   6.170   5.567  0.4468 -0.6423 -0.0490
   38CHL1   C11 3952   1.168   6.205   5.713  0.4792  0.6177  0.1600
   38CHL1  H11A 3953   1.277   6.183   5.710  0.3637  0.0885 -0.6176
   38CHL1  H11B 3954   1.149   6.314   5.719  0.6819  0.6266  0.6709
   38CHL1    C9 3955   1.108   6.118   5.833 -0.4035 -0.7254  0.1817
   38CHL1    H9 3956   0.999   6.137   5.838 -0.1379  1.2790 -0.7766
   38CHL1   C10 3957   1.151   6.177   5.970  0.1644  0.1654 -0.0892
   38CHL1   C19 3958   1.300   6.222   5.961  0.2375 -0.0903  0.1622
   38CHL1  H19A 3959   1.306   6.319   5.908  0.9053 -0.1796  0.0679
   38CHL1  H19B 3960   1.348   6.232   6.061  0.1073  2.3882  0.0330
   38CHL1  H19C 3961   1.358   6.142   5.910 -1.3389 -0.8205 -0.5420
   38CHL1    C1 3962   1.061   6.303   6.008 -0.2882  0.4196 -0.2983
   38CHL1   H1A 3963   1.088   6.389   5.943 -0.6471  0.0144 -1.0075
   38CHL1   H1B 3964   0.954   6.280   5.985 -0.4373 -0.0505  0.8149
   38CHL1    C2 3965   1.065   6.356   6.157 -0.6146 -0.4564  0.1901
   38CHL1   H2A 3966   0.984   6.430   6.169 -0.7835 -0.2670 -1.7457
   38CHL1   H2B 3967   1.163   6.405   6.173  0.0594 -1.7168  0.0241
   38CHL1   C20 3968   1.092   5.922   5.311 -0.2167 -0.7468  0.4267
   38CHL1   H20 3969   1.194   5.879   5.314 -0.2606 -0.8260  0.8373
   38CHL1   C21 3970   1.084   6.068   5.256  0.6651 -0.4792 -0.5983
   38CHL1  H21A 3971   0.979   6.103   5.268  0.7929  0.1622 -1.2427
   38CHL1  H21B 3972   1.095   6.068   5.145 -0.0830 -0.6610 -0.6827
   38CHL1  H21C 3973   1.163   6.128   5.306 -0.7790 -0.2829  1.5899
   38CHL1   C22 3974   1.010   5.830   5.213 -0.1627 -0.3899 -0.6647
   38CHL1  H22A 3975   1.011   5.728   5.256  0.5641 -0.1702 -0.1315
   38CHL1  H22B 3976   0.905   5.865   5.222  0.3204  0.6470  2.1059
   38CHL1   C23 3977   1.077   5.812   5.078 -0.3427 -0.0105  0.4198
   38CHL1  H23A 3978   1.104   5.906   5.025  0.0993  0.3999  1.3507
   38CHL1  H23B 3979   1.176   5.763   5.094 -1.6641 -2.5143  1.5001
   38CHL1   C24 3980   0.999   5.725   4.972  0.0512  0.1158  0.4386
   38CHL1  H24A 3981   0.981   5.630   5.027 -0.6572 -0.8393 -1.3619
   38CHL1  H24B 3982   0.904   5.779   4.956  1.1689  1.5966 -1.6614
   38CHL1   C25 3983   1.086   5.694   4.847  0.0278 -0.3332 -0.3544
   38CHL1   H25 3984   1.189   5.681   4.887 -0.1387  0.4526  0.3432
   38CHL1   C26 3985   1.035   5.570   4.770  0.4593  0.0421  0.0433
   38CHL1  H26A 3986   0.926   5.562   4.754  0.9132 -4.0822 -2.4427
   38CHL1  H26B 3987   1.064   5.564   4.663 -1.7156 -0.6069 -0.5500
   38CHL1  H26C 3988   1.067   5.476   4.819  2.6124  0.2136 -0.9270
   38CHL1   C27 3989   1.096   5.812   4.753  0.1527  0.0271  0.2389
   38CHL1  H27A 3990   1.011   5.819   4.683  1.7668  0.3349 -1.7956
   38CHL1  H27B 3991   1.111   5.914   4.794  0.9456  0.0620 -0.1209
   38CHL1  H27C 3992   1.183   5.793   4.686  0.9868 -0.1867  1.3518
   39CHL1    C3 3993   0.974   5.209   6.048  1.0322 -0.6564  0.0638
   39CHL1    H3 3994   1.077   5.230   6.013  0.4105 -0.9814 -2.0678
   39CHL1    O3 3995   0.962   5.221   6.190 -0.0249  0.5829 -0.6527
   39CHL1   H3' 3996   0.891   5.161   6.216  0.2171  0.2946 -0.6403
   39CHL1    C4 3997   0.877   5.321   5.990 -0.1895 -0.0552 -0.4315
   39CHL1   H4A 3998   0.778   5.295   6.031 -0.0513 -0.4450 -0.3372
   39CHL1   H4B 3999   0.914   5.418   6.029  3.7914 -1.5619  0.0233
   39CHL1    C5 4000   0.872   5.311   5.834 -0.2114  0.1413 -0.3774
   39CHL1    C6 4001   0.912   5.418   5.762  0.1043  0.3929 -0.2224
   39CHL1    H6 4002   0.946   5.508   5.815 -1.2583  2.3556 -2.4882
   39CHL1    C7 4003   0.911   5.420   5.609 -0.2409 -0.0622  0.0616
   39CHL1   H7A 4004   0.858   5.512   5.576 -1.7270 -0.5760  0.9498
   39CHL1   H7B 4005   1.016   5.413   5.572  0.0898 -0.9055  1.1206
   39CHL1    C8 4006   0.838   5.305   5.548  0.3737  0.9324 -0.1954
   39CHL1    H8 4007   0.729   5.323   5.555 -0.2511 -1.5383 -1.8923
   39CHL1   C14 4008   0.871   5.290   5.400 -0.5027  0.7711  0.3247
   39CHL1   H14 4009   0.974   5.248   5.391 -2.1691 -3.8928  0.0881
   39CHL1   C15 4010   0.861   5.418   5.319  0.1337  0.0702  0.4852
   39CHL1  H15A 4011   0.774   5.484   5.340  0.5131  0.6923  0.1370
   39CHL1  H15B 4012   0.952   5.480   5.331 -0.1737  0.7993 -0.7306
   39CHL1   C16 4013   0.861   5.378   5.174  0.5262  0.0622  0.1194
   39CHL1  H16A 4014   0.773   5.422   5.122 -0.2891  0.3617  1.6773
   39CHL1  H16B 4015   0.953   5.407   5.120 -0.0861  1.0127 -0.4419
   39CHL1   C17 4016   0.851   5.218   5.180  0.3367  0.1614 -0.6949
   39CHL1   H17 4017   0.950   5.172   5.159  0.3725  0.2477 -0.7131
   39CHL1   C13 4018   0.805   5.179   5.322  0.6910  0.5623  0.8576
   39CHL1   C18 4019   0.648   5.203   5.332  1.0679 -0.2524  0.2499
   39CHL1  H18A 4020   0.616   5.290   5.272  1.9279  0.1589  0.3681
   39CHL1  H18B 4021   0.590   5.110   5.313 -3.5301  1.6781  3.0683
   39CHL1  H18C 4022   0.608   5.224   5.434 -2.2714  1.7512 -1.3115
   39CHL1   C12 4023   0.843   5.050   5.386 -0.1641  0.8633  0.1914
   39CHL1  H12A 4024   0.784   4.962   5.350 -0.1159  0.7634  0.3542
   39CHL1  H12B 4025   0.948   5.024   5.363 -0.2913  0.1766  0.3624
   39CHL1   C11 4026   0.814   5.047   5.538 -0.1621  0.8355  0.2446
   39CHL1  H11A 4027   0.703   5.056   5.536 -0.1350  1.2224  0.3919
   39CHL1  H11B 4028   0.845   4.950   5.582 -0.4887  0.4971 -0.2629
   39CHL1    C9 4029   0.863   5.167   5.616 -0.1492 -0.9037 -0.6093
   39CHL1    H9 4030   0.972   5.162   5.594 -0.0234  1.5135 -0.7425
   39CHL1   C10 4031   0.836   5.170   5.767  0.0327 -0.0611  0.0587
   39CHL1   C19 4032   0.690   5.134   5.795  0.7095 -0.7852  0.2430
   39CHL1  H19A 4033   0.663   5.142   5.903  2.0928 -2.6942  0.7904
   39CHL1  H19B 4034   0.626   5.204   5.737  0.9621 -0.3792  0.4490
   39CHL1  H19C 4035   0.664   5.032   5.762 -0.9003 -0.2119 -0.3482
   39CHL1    C1 4036   0.920   5.066   5.837 -0.3123 -0.2498 -0.1146
   39CHL1   H1A 4037   0.887   4.965   5.803 -1.4048  0.1057 -0.1512
   39CHL1   H1B 4038   1.029   5.075   5.817 -0.2912 -0.0574  0.0855
   39CHL1    C2 4039   0.921   5.076   5.997 -0.0600  0.1884  0.4739
   39CHL1   H2A 4040   0.986   4.997   6.040 -2.1024 -0.9309  1.6597
   39CHL1   H2B 4041   0.815   5.067   6.030 -0.0293  0.6948  0.7106
   39CHL1   C20 4042   0.764   5.162   5.074  0.7154  0.6176 -0.6836
   39CHL1   H20 4043   0.661   5.204   5.076  0.8575  0.9911 -1.0452
   39CHL1   C21 4044   0.763   5.002   5.075 -0.1513  0.1278  0.0957
   39CHL1  H21A 4045   0.704   4.967   5.162 -1.2692 -0.4042 -0.8506
   39CHL1  H21B 4046   0.863   4.954   5.085 -0.3830 -1.0210 -2.3112
   39CHL1  H21C 4047   0.720   4.967   4.979 -0.1340 -1.7816  0.7344
   39CHL1   C22 4048   0.821   5.196   4.932  0.0967 -0.1331  0.2149
   39CHL1  H22A 4049   0.850   5.303   4.933 -1.9196  0.4831  3.0535
   39CHL1  H22B 4050   0.912   5.138   4.906  0.5105 -0.4482  2.1972
   39CHL1   C23 4051   0.720   5.181   4.814  0.1188 -0.6435  0.0095
   39CHL1  H23A 4052   0.718   5.080   4.768  3.7326  0.0138 -1.9658
   39CHL1  H23B 4053   0.619   5.194   4.858 -0.1184 -1.9886 -0.1032
   39CHL1   C24 4054   0.767   5.273   4.698  0.0114 -0.7488  0.6805
   39CHL1  H24A 4055   0.766   5.375   4.744  0.5473 -0.3478 -0.1779
   39CHL1  H24B 4056   0.871   5.246   4.671 -0.0901  0.5580 -1.1965
   39CHL1   C25 4057   0.690   5.266   4.573  0.3760 -0.1388  0.2105
   39CHL1   H25 4058   0.707   5.359   4.515  2.4562 -1.0464 -0.7058
   39CHL1   C26 4059   0.746   5.156   4.485  0.5679  0.4572 -0.4275
   39CHL1  H26A 4060   0.747   5.054   4.529  1.3118  0.2962 -0.8060
   39CHL1  H26B 4061   0.693   5.150   4.387 -1.7043  0.7655  0.7302
   39CHL1  H26C 4062   0.854   5.169   4.461  1.3169 -0.9517  1.8588
   39CHL1   C27 4063   0.535   5.251   4.596  0.1015 -0.3317 -0.4366
   39CHL1  H27A 4064   0.506   5.153   4.640 -1.1725 -0.0232 -0.5659
   39CHL1  H27B 4065   0.505   5.325   4.673  1.5090  0.3053 -0.4719
   39CHL1  H27C 4066   0.484   5.255   4.497  0.1136 -1.1759 -0.4815
   40CHL1    C3 4067   5.357   2.427   6.342 -0.2985 -0.3593 -0.5840
   40CHL1    H3 4068   5.388   2.321   6.352 -1.2703 -0.4912  1.7926
   40CHL1    O3 4069   5.318   2.484   6.458  0.4283  0.2630 -0.2728
   40CHL1   H3' 4070   5.330   2.577   6.441 -1.7269  0.5180 -0.7451
   40CHL1    C4 4071   5.481   2.505   6.283 -0.1236 -0.3174  0.6265
   40CHL1   H4A 4072   5.459   2.614   6.295  2.6269  0.3428  0.2688
   40CHL1   H4B 4073   5.562   2.491   6.357 -0.5551  2.5326  1.7748
   40CHL1    C5 4074   5.514   2.485   6.138  0.3661 -0.6650 -0.7435
   40CHL1    C6 4075   5.636   2.443   6.098 -0.6382 -0.3620  0.6677
   40CHL1    H6 4076   5.715   2.416   6.168  0.6077 -0.0883 -0.5909
   40CHL1    C7 4077   5.665   2.420   5.949 -0.2262  0.1898  0.8928
   40CHL1   H7A 4078   5.754   2.480   5.918 -0.3255 -0.2099 -0.2092
   40CHL1   H7B 4079   5.703   2.317   5.932 -0.0766  0.4331 -0.3347
   40CHL1    C8 4080   5.560   2.469   5.844  0.9071 -0.2365 -0.1615
   40CHL1    H8 4081   5.557   2.580   5.843 -0.5776 -0.2680 -0.5136
   40CHL1   C14 4082   5.579   2.403   5.708  0.1806  0.6496  0.6206
   40CHL1   H14 4083   5.564   2.294   5.719 -0.2067  0.5131 -1.0270
   40CHL1   C15 4084   5.724   2.414   5.647  0.3630  0.1571 -0.0159
   40CHL1  H15A 4085   5.755   2.520   5.656  2.2123 -0.2034 -1.4491
   40CHL1  H15B 4086   5.797   2.347   5.699  0.6416  0.7033  0.3039
   40CHL1   C16 4087   5.690   2.369   5.503  0.0677 -0.0278 -0.3518
   40CHL1  H16A 4088   5.741   2.445   5.440 -0.2048 -1.2809 -2.1536
   40CHL1  H16B 4089   5.735   2.271   5.478 -1.9891 -0.8717 -0.9913
   40CHL1   C17 4090   5.537   2.368   5.484  0.3238  0.3840 -0.0337
   40CHL1   H17 4091   5.507   2.261   5.489  0.2359  0.3580 -0.9649
   40CHL1   C13 4092   5.481   2.448   5.598 -1.0546  0.2919 -0.3738
   40CHL1   C18 4093   5.507   2.603   5.571 -0.1827  0.0842  0.3997
   40CHL1  H18A 4094   5.431   2.649   5.504  0.7126  1.8973  0.5687
   40CHL1  H18B 4095   5.488   2.659   5.666 -0.7432 -1.4590  1.2233
   40CHL1  H18C 4096   5.608   2.631   5.533 -0.6698  1.4293  0.0326
   40CHL1   C12 4097   5.342   2.406   5.648 -0.4082 -0.3958 -0.1061
   40CHL1  H12A 4098   5.263   2.431   5.574  0.2590 -0.6285 -0.9024
   40CHL1  H12B 4099   5.342   2.295   5.655  1.7520 -0.5822 -1.9305
   40CHL1   C11 4100   5.306   2.460   5.789 -0.6368  0.0939  0.4242
   40CHL1  H11A 4101   5.281   2.567   5.777 -0.7510  0.0203 -0.0090
   40CHL1  H11B 4102   5.223   2.395   5.825 -0.1270 -1.2387 -0.6945
   40CHL1    C9 4103   5.421   2.428   5.895 -0.4781  0.5697  0.2836
   40CHL1    H9 4104   5.436   2.318   5.905  1.3311  0.8293  0.8380
   40CHL1   C10 4105   5.392   2.484   6.036 -0.5137 -0.4563 -0.3498
   40CHL1   C19 4106   5.347   2.629   6.013  0.3865  0.0561 -0.6016
   40CHL1  H19A 4107   5.239   2.642   5.987  0.6311  3.5192 -0.3654
   40CHL1  H19B 4108   5.370   2.684   6.107  1.7988 -2.5126  0.6713
   40CHL1  H19C 4109   5.406   2.692   5.944  1.3841 -0.7992 -0.5389
   40CHL1    C1 4110   5.280   2.398   6.105  0.4397 -0.1876  0.1784
   40CHL1   H1A 4111   5.198   2.395   6.030 -0.4085  0.9021  1.0434
   40CHL1   H1B 4112   5.306   2.290   6.113  0.6264 -0.1075  0.6497
   40CHL1    C2 4113   5.233   2.438   6.243 -0.7900  0.3786 -1.0326
   40CHL1   H2A 4114   5.147   2.379   6.281 -1.2377  2.2050  1.0037
   40CHL1   H2B 4115   5.197   2.543   6.228  0.9291  0.7227 -3.3211
   40CHL1   C20 4116   5.493   2.420   5.345 -0.9774  0.1721 -0.5915
   40CHL1   H20 4117   5.518   2.528   5.340 -1.2298  0.2386 -0.4098
   40CHL1   C21 4118   5.342   2.410   5.326  0.2986  0.5091  0.2908
   40CHL1  H21A 4119   5.299   2.485   5.396  2.0070  0.6536  1.2387
   40CHL1  H21B 4120   5.295   2.310   5.337 -0.8492  0.7102 -2.0984
   40CHL1  H21C 4121   5.318   2.442   5.223 -0.0380  0.0404  0.2241
   40CHL1   C22 4122   5.571   2.341   5.230 -0.4401 -0.2975 -0.4256
   40CHL1  H22A 4123   5.676   2.377   5.234  0.2202 -2.1054 -0.6228
   40CHL1  H22B 4124   5.567   2.235   5.263 -1.2145  0.3012  1.6005
   40CHL1   C23 4125   5.518   2.361   5.092  0.3137 -0.6587 -0.2526
   40CHL1  H23A 4126   5.418   2.315   5.086  0.9922 -2.1157 -0.8950
   40CHL1  H23B 4127   5.524   2.468   5.062  1.5633 -0.6737 -0.1285
   40CHL1   C24 4128   5.613   2.292   4.989 -0.7888 -0.1331 -0.3557
   40CHL1  H24A 4129   5.591   2.322   4.884  0.3051 -0.2162 -0.6192
   40CHL1  H24B 4130   5.708   2.345   5.012 -1.7602  0.2832  3.3790
   40CHL1   C25 4131   5.628   2.145   4.994 -0.1256 -0.1546 -0.2170
   40CHL1   H25 4132   5.679   2.108   5.086  0.5511  1.2399 -0.0110
   40CHL1   C26 4133   5.491   2.080   4.997 -0.0184  0.4090 -0.6440
   40CHL1  H26A 4134   5.435   2.110   4.906 -1.2350 -0.9029 -0.3625
   40CHL1  H26B 4135   5.511   1.971   4.999 -0.1369  0.3948  0.9693
   40CHL1  H26C 4136   5.436   2.111   5.088  0.0927  0.2842 -0.5336
   40CHL1   C27 4137   5.706   2.093   4.873  0.3083  0.2401 -0.3628
   40CHL1  H27A 4138   5.731   1.985   4.880  3.0790  0.8180 -0.1460
   40CHL1  H27B 4139   5.649   2.104   4.778 -1.5060  2.4525  0.8930
   40CHL1  H27C 4140   5.795   2.158   4.858  1.2990 -0.9099  0.3509
   41CHL1    C3 4141   2.713   1.633   6.251  0.6981 -0.0812 -0.6626
   41CHL1    H3 4142   2.627   1.565   6.264 -0.1257  0.9405 -0.6476
   41CHL1    O3 4143   2.755   1.702   6.366 -0.2727 -0.0362 -0.0412
   41CHL1   H3' 4144   2.698   1.772   6.398 -0.4546 -0.3991  0.4575
   41CHL1    C4 4145   2.824   1.545   6.200  0.3575 -0.2036 -0.4533
   41CHL1   H4A 4146   2.907   1.616   6.178 -0.5886  1.1597  0.2598
   41CHL1   H4B 4147   2.866   1.478   6.278  1.1452  0.4300 -0.3172
   41CHL1    C5 4148   2.777   1.485   6.074 -0.3988 -0.4098 -0.4332
   41CHL1    C6 4149   2.767   1.350   6.065  0.2902  0.6510 -0.6348
   41CHL1    H6 4150   2.786   1.291   6.156  2.0349  3.6001  1.0349
   41CHL1    C7 4151   2.740   1.274   5.937 -0.3150  0.0433 -0.2355
   41CHL1   H7A 4152   2.812   1.190   5.926 -0.0906  0.2276 -0.1734
   41CHL1   H7B 4153   2.638   1.233   5.920 -0.3954  0.0881  0.1261
   41CHL1    C8 4154   2.773   1.373   5.818 -0.3936 -0.2587 -0.2428
   41CHL1    H8 4155   2.882   1.392   5.808 -0.3871 -0.5347 -0.7203
   41CHL1   C14 4156   2.728   1.304   5.687  0.1076 -0.3261 -0.3362
   41CHL1   H14 4157   2.623   1.272   5.704  0.3220 -1.0078 -0.2490
   41CHL1   C15 4158   2.797   1.176   5.646  0.4401  0.3884  0.1360
   41CHL1  H15A 4159   2.907   1.186   5.659  0.2362  1.4061  1.2875
   41CHL1  H15B 4160   2.766   1.090   5.709  0.2701  0.7237  0.5175
   41CHL1   C16 4161   2.762   1.161   5.496 -0.5093  0.0157  0.2725
   41CHL1  H16A 4162   2.857   1.147   5.439 -0.4695 -1.9200  0.7662
   41CHL1  H16B 4163   2.697   1.072   5.491 -0.9962  0.4432 -1.5000
   41CHL1   C17 4164   2.690   1.286   5.448  0.2199  0.5865 -0.1167
   41CHL1   H17 4165   2.583   1.271   5.474  0.1283 -0.7845 -1.1367
   41CHL1   C13 4166   2.726   1.391   5.557 -0.1606 -0.8614  0.0954
   41CHL1   C18 4167   2.871   1.438   5.523  0.3302  0.5512 -0.1749
   41CHL1  H18A 4168   2.912   1.521   5.583  1.6095  0.6741 -1.1697
   41CHL1  H18B 4169   2.948   1.358   5.531 -0.6977 -0.4853 -0.4914
   41CHL1  H18C 4170   2.872   1.476   5.418 -0.7070  0.2309 -0.3106
   41CHL1   C12 4171   2.633   1.508   5.578  0.1272  0.1677  0.6751
   41CHL1  H12A 4172   2.652   1.577   5.493  2.3092  0.7329  1.5398
   41CHL1  H12B 4173   2.527   1.484   5.597  0.2638 -0.7474  0.3497
   41CHL1   C11 4174   2.679   1.591   5.700  0.5746  0.2615 -0.0562
   41CHL1  H11A 4175   2.777   1.640   5.682  0.4106  0.4889 -0.3274
   41CHL1  H11B 4176   2.613   1.679   5.719  0.9871  0.7407 -0.8185
   41CHL1    C9 4177   2.693   1.507   5.835 -0.3534  0.8450 -1.0495
   41CHL1    H9 4178   2.597   1.466   5.873  0.5861 -0.3742  0.1084
   41CHL1   C10 4179   2.747   1.587   5.956 -0.6899  0.3735  0.3415
   41CHL1   C19 4180   2.879   1.659   5.914  0.0714 -0.6347  0.0657
   41CHL1  H19A 4181   2.950   1.577   5.891 -1.9909 -2.8711  1.0817
   41CHL1  H19B 4182   2.869   1.732   5.832  0.2165  1.4645  1.8281
   41CHL1  H19C 4183   2.913   1.727   5.996  1.7546  0.8105 -1.7506
   41CHL1    C1 4184   2.653   1.702   6.002 -0.2579 -0.7707  0.9110
   41CHL1   H1A 4185   2.653   1.783   5.927  1.2359 -0.4943  1.1752
   41CHL1   H1B 4186   2.551   1.657   6.002  0.1599 -1.8862 -2.1183
   41CHL1    C2 4187   2.675   1.742   6.147  0.3848  0.5293  0.6490
   41CHL1   H2A 4188   2.583   1.789   6.188  0.0453 -0.1528  0.6709
   41CHL1   H2B 4189   2.753   1.821   6.157 -0.0941  0.8751  1.9588
   41CHL1   C20 4190   2.691   1.314   5.296 -0.3752 -0.2251  0.0954
   41CHL1   H20 4191   2.795   1.340   5.266 -0.3807 -2.4749 -2.1680
   41CHL1   C21 4192   2.591   1.430   5.263 -0.1026  0.1898 -0.1575
   41CHL1  H21A 4193   2.554   1.417   5.159 -0.0279 -1.6911  0.0069
   41CHL1  H21B 4194   2.631   1.533   5.276  0.2914  0.1649 -1.1353
   41CHL1  H21C 4195   2.503   1.422   5.331 -1.3428  0.9242 -1.6268
   41CHL1   C22 4196   2.662   1.181   5.226  0.1089 -0.7652 -0.2683
   41CHL1  H22A 4197   2.743   1.110   5.253  0.7399 -0.2971 -0.9081
   41CHL1  H22B 4198   2.565   1.145   5.268  0.2064 -1.3101 -0.5081
   41CHL1   C23 4199   2.661   1.190   5.074  0.0137 -1.2255  0.1931
   41CHL1  H23A 4200   2.622   1.098   5.027 -1.0369  0.3107 -2.1540
   41CHL1  H23B 4201   2.585   1.269   5.056  0.5515 -0.0952  2.4894
   41CHL1   C24 4202   2.797   1.208   5.006  0.4843 -0.1241 -0.4915
   41CHL1  H24A 4203   2.843   1.308   5.017  1.3115 -0.4024 -1.3778
   41CHL1  H24B 4204   2.866   1.137   5.056  1.5701  1.3276  0.1087
   41CHL1   C25 4205   2.799   1.193   4.850 -0.6040  0.0014  0.4483
   41CHL1   H25 4206   2.779   1.088   4.820  1.4225 -1.2291  2.9828
   41CHL1   C26 4207   2.707   1.286   4.771 -0.4695 -0.1757 -0.0216
   41CHL1  H26A 4208   2.602   1.287   4.808 -0.0832  2.5613  1.3298
   41CHL1  H26B 4209   2.741   1.391   4.788 -0.2664 -0.2588  0.0887
   41CHL1  H26C 4210   2.701   1.268   4.662  2.2592  2.2353 -0.6866
   41CHL1   C27 4211   2.946   1.210   4.801  0.5210  0.6518 -0.0456
   41CHL1  H27A 4212   3.001   1.114   4.815  1.5348  1.5030  2.1893
   41CHL1  H27B 4213   2.952   1.215   4.690  0.0449  0.0892 -0.1012
   41CHL1  H27C 4214   2.994   1.287   4.865 -0.8637  0.7340  0.9312
   42CHL1    C3 4215   1.669   3.047   6.269  0.1142 -0.0003  0.0921
   42CHL1    H3 4216   1.560   3.044   6.249 -0.1667 -0.6550  1.5326
   42CHL1    O3 4217   1.693   3.050   6.409 -0.4470  0.2592 -0.0243
   42CHL1   H3' 4218   1.788   3.036   6.413 -0.6053 -1.3214 -1.1810
   42CHL1    C4 4219   1.733   2.916   6.209 -0.1377 -0.6664 -0.3598
   42CHL1   H4A 4220   1.842   2.912   6.229 -0.0169 -3.1772 -1.2055
   42CHL1   H4B 4221   1.690   2.828   6.261  0.6594 -1.0610 -0.3513
   42CHL1    C5 4222   1.717   2.912   6.059  0.1358 -0.1103  0.2630
   42CHL1    C6 4223   1.644   2.820   5.995  0.0138 -0.0035  0.3852
   42CHL1    H6 4224   1.598   2.736   6.049 -1.8665  0.7796  0.0704
   42CHL1    C7 4225   1.615   2.817   5.843 -0.4730 -1.2620  0.2047
   42CHL1   H7A 4226   1.636   2.713   5.808 -0.4579 -0.9674 -0.7021
   42CHL1   H7B 4227   1.507   2.831   5.821 -0.1285  2.1147  0.1660
   42CHL1    C8 4228   1.698   2.923   5.764  0.0548  0.2964  0.0424
   42CHL1    H8 4229   1.800   2.879   5.752  0.3623  0.0107  3.0959
   42CHL1   C14 4230   1.635   2.938   5.619  0.2112  0.0009  0.2857
   42CHL1   H14 4231   1.533   2.977   5.641  0.5168 -0.1097  2.0810
   42CHL1   C15 4232   1.628   2.812   5.530  0.2563 -0.3294 -0.7071
   42CHL1  H15A 4233   1.728   2.765   5.527  0.7033  0.6306 -1.8626
   42CHL1  H15B 4234   1.542   2.748   5.560  1.6698 -2.2672 -0.6067
   42CHL1   C16 4235   1.600   2.873   5.395 -0.6718  0.2767 -0.0732
   42CHL1  H16A 4236   1.665   2.826   5.318  2.1384 -0.6625  2.6328
   42CHL1  H16B 4237   1.493   2.872   5.366 -1.1747  3.0128  1.3476
   42CHL1   C17 4238   1.628   3.035   5.402 -0.1456  0.0295  0.3091
   42CHL1   H17 4239   1.531   3.087   5.417 -0.5194 -0.9709  1.5665
   42CHL1   C13 4240   1.696   3.051   5.533  0.6707  0.1692 -0.8291
   42CHL1   C18 4241   1.845   3.015   5.514 -0.1668  0.3012  0.1938
   42CHL1  H18A 4242   1.862   2.919   5.461  0.8254 -0.5986  2.0220
   42CHL1  H18B 4243   1.902   3.102   5.474  0.2632  0.1787  0.5260
   42CHL1  H18C 4244   1.892   3.004   5.615  1.3441  0.4605 -0.4611
   42CHL1   C12 4245   1.675   3.181   5.607  0.1079 -0.3441  0.5196
   42CHL1  H12A 4246   1.723   3.265   5.552  0.6108 -0.0670  1.3767
   42CHL1  H12B 4247   1.566   3.203   5.606  0.1326  0.2789 -3.1278
   42CHL1   C11 4248   1.734   3.175   5.748 -0.0849  0.3338  0.0833
   42CHL1  H11A 4249   1.844   3.188   5.759 -0.4310  2.1925  2.0966
   42CHL1  H11B 4250   1.691   3.264   5.799  2.4891  2.2702 -0.8880
   42CHL1    C9 4251   1.694   3.055   5.838  0.4739 -0.3732  0.0882
   42CHL1    H9 4252   1.587   3.077   5.857  0.2989 -1.9443  1.0899
   42CHL1   C10 4253   1.755   3.044   5.977 -0.5170  0.0010 -0.3137
   42CHL1   C19 4254   1.905   3.038   5.968 -0.6603 -0.1829 -0.4888
   42CHL1  H19A 4255   1.942   2.945   5.919  2.5411  2.1703 -2.9945
   42CHL1  H19B 4256   1.955   3.120   5.912 -1.2621  1.2807  1.0285
   42CHL1  H19C 4257   1.951   3.034   6.070  2.5309  1.7101 -1.6817
   42CHL1    C1 4258   1.711   3.171   6.059 -0.0013  0.1435 -0.1960
   42CHL1   H1A 4259   1.756   3.263   6.014  1.8046 -0.7314 -0.2787
   42CHL1   H1B 4260   1.601   3.178   6.044 -0.1612 -2.3616 -0.6167
   42CHL1    C2 4261   1.729   3.178   6.212  0.4499  0.5096 -0.4632
   42CHL1   H2A 4262   1.679   3.271   6.245  1.1541 -0.0022  2.2796
   42CHL1   H2B 4263   1.838   3.172   6.236 -0.1413 -2.8687  2.1434
   42CHL1   C20 4264   1.694   3.096   5.278 -0.3656  0.1071  0.1514
   42CHL1   H20 4265   1.790   3.042   5.269  0.3991  1.4111  0.2488
   42CHL1   C21 4266   1.752   3.244   5.282  0.2467  0.4611 -0.2678
   42CHL1  H21A 4267   1.808   3.272   5.190 -2.1333  2.2650 -1.2786
   42CHL1  H21B 4268   1.807   3.288   5.368 -2.0740  2.3265  0.3769
   42CHL1  H21C 4269   1.659   3.305   5.274  0.3366  0.3586 -2.6670
   42CHL1   C22 4270   1.604   3.089   5.145 -0.0685  0.1547  0.0217
   42CHL1  H22A 4271   1.543   2.996   5.148  1.4917 -0.9106  1.0603
   42CHL1  H22B 4272   1.538   3.177   5.136 -0.3697 -0.0779 -0.0447
   42CHL1   C23 4273   1.691   3.088   5.017 -0.1588  0.8060  0.2108
   42CHL1  H23A 4274   1.742   3.186   5.009  2.0278 -0.0445  2.5718
   42CHL1  H23B 4275   1.767   3.014   5.047 -0.4534 -0.5212 -2.1086
   42CHL1   C24 4276   1.612   3.037   4.894 -0.1947  0.7335 -0.1882
   42CHL1  H24A 4277   1.592   2.929   4.912 -1.4364  0.7277 -1.4073
   42CHL1  H24B 4278   1.518   3.095   4.887 -0.4326  0.4088  0.2237
   42CHL1   C25 4279   1.685   3.052   4.759  0.7073 -0.7977  0.0882
   42CHL1   H25 4280   1.604   3.021   4.689  1.1606 -1.6294 -0.0773
   42CHL1   C26 4281   1.734   3.193   4.721  0.0048  0.2808 -0.1659
   42CHL1  H26A 4282   1.787   3.202   4.624  1.9514 -1.5675  0.6651
   42CHL1  H26B 4283   1.648   3.264   4.725 -1.5888 -1.4709 -1.5894
   42CHL1  H26C 4284   1.802   3.236   4.798 -1.7102 -0.0247  1.6201
   42CHL1   C27 4285   1.807   2.957   4.744  1.0081 -0.2035  0.1095
   42CHL1  H27A 4286   1.872   2.978   4.832 -1.0268  1.8664  1.2402
   42CHL1  H27B 4287   1.770   2.852   4.750 -2.9297  0.8042 -2.3748
   42CHL1  H27C 4288   1.878   2.969   4.660  0.9494  0.3787  0.1410
   43CHL1    C3 4289   6.079   6.346   6.032  0.3679  0.0236  0.1750
   43CHL1    H3 4290   6.137   6.252   6.025 -0.8066 -0.6520 -0.8558
   43CHL1    O3 4291   6.065   6.392   6.161 -0.2262  0.2569 -0.0749
   43CHL1   H3' 4292   5.999   6.462   6.162 -0.0173  0.4590  0.8839
   43CHL1    C4 4293   6.148   6.458   5.949 -0.4314  0.3137 -0.3767
   43CHL1   H4A 4294   6.090   6.551   5.971 -1.6570 -0.9007  1.8939
   43CHL1   H4B 4295   6.250   6.475   5.990 -0.8393 -0.9668  1.2852
   43CHL1    C5 4296   6.154   6.413   5.796  0.4747  0.6668 -0.0867
   43CHL1    C6 4297   6.269   6.417   5.724 -0.0364 -0.6153 -0.8002
   43CHL1    H6 4298   6.359   6.459   5.771 -0.5360 -0.9140  0.4651
   43CHL1    C7 4299   6.275   6.399   5.574 -0.3515  0.4950 -0.4622
   43CHL1   H7A 4300   6.324   6.488   5.529 -1.3217  0.9673 -0.6020
   43CHL1   H7B 4301   6.337   6.307   5.565  2.3156  2.2079 -0.7129
   43CHL1    C8 4302   6.133   6.390   5.512  0.1080 -0.0248  1.0087
   43CHL1    H8 4303   6.093   6.493   5.497 -2.7492 -0.8163  2.6137
   43CHL1   C14 4304   6.147   6.336   5.369  0.1110  0.2521  0.1093
   43CHL1   H14 4305   6.201   6.240   5.381  0.6232  0.1230 -2.6308
   43CHL1   C15 4306   6.228   6.423   5.274 -0.0486 -0.3813 -0.1763
   43CHL1  H15A 4307   6.197   6.529   5.264  0.9277  0.5626  4.3804
   43CHL1  H15B 4308   6.335   6.441   5.297 -0.0802 -0.2628 -0.1213
   43CHL1   C16 4309   6.205   6.355   5.137 -0.5245  0.7697  0.3312
   43CHL1  H16A 4310   6.183   6.430   5.058 -1.0816 -0.5865 -0.8504
   43CHL1  H16B 4311   6.297   6.297   5.112 -0.9968 -0.0497  0.4426
   43CHL1   C17 4312   6.083   6.253   5.149 -0.2214 -0.3863 -0.0160
   43CHL1   H17 4313   6.111   6.149   5.173 -1.9278 -0.8578  0.0104
   43CHL1   C13 4314   6.020   6.303   5.289  0.3078 -0.2460  0.3678
   43CHL1   C18 4315   5.943   6.439   5.265 -0.3764 -0.3635 -0.0723
   43CHL1  H18A 4316   5.932   6.489   5.364  0.1764  1.2493 -0.7876
   43CHL1  H18B 4317   6.006   6.512   5.209 -1.5852  1.1916  0.5144
   43CHL1  H18C 4318   5.846   6.423   5.213 -1.4274 -0.6285  1.8858
   43CHL1   C12 4319   5.947   6.206   5.379 -0.0364 -0.1667 -0.3864
   43CHL1  H12A 4320   5.852   6.190   5.324  0.6037 -3.9416 -0.6711
   43CHL1  H12B 4321   5.997   6.106   5.382 -0.5555 -0.4174  0.1011
   43CHL1   C11 4322   5.918   6.259   5.516 -0.2937  0.6331  0.9661
   43CHL1  H11A 4323   5.858   6.351   5.496  2.4781  2.1292 -1.1096
   43CHL1  H11B 4324   5.861   6.175   5.562  2.1152 -2.2163 -0.9528
   43CHL1    C9 4325   6.045   6.303   5.593  0.5389  0.0899 -0.2578
   43CHL1    H9 4326   6.107   6.212   5.608  0.9652  0.4681  0.2962
   43CHL1   C10 4327   6.016   6.359   5.743 -0.4307 -0.5479  0.3341
   43CHL1   C19 4328   5.927   6.481   5.724  0.3592  0.8899  0.5801
   43CHL1  H19A 4329   5.909   6.542   5.815  1.6959  1.5800  0.4059
   43CHL1  H19B 4330   5.972   6.556   5.656 -1.0291  0.4357 -0.8996
   43CHL1  H19C 4331   5.825   6.443   5.701  1.1458 -2.6982  2.2984
   43CHL1    C1 4332   5.951   6.252   5.831 -0.4127 -0.2517  0.6414
   43CHL1   H1A 4333   5.849   6.226   5.795 -0.1284 -2.0179  1.0062
   43CHL1   H1B 4334   6.021   6.166   5.833  0.0251  0.0970  0.5673
   43CHL1    C2 4335   5.944   6.315   5.972  0.3596  0.0645  0.0790
   43CHL1   H2A 4336   5.900   6.240   6.042  0.7051 -0.4976 -0.3039
   43CHL1   H2B 4337   5.879   6.405   5.968 -1.2380 -0.9831  1.1654
   43CHL1   C20 4338   6.008   6.253   5.011  0.2422 -0.5387  0.4592
   43CHL1   H20 4339   5.996   6.354   4.965  2.3179 -0.5504 -0.2242
   43CHL1   C21 4340   5.871   6.177   5.039 -0.2252 -0.2105  0.2356
   43CHL1  H21A 4341   5.807   6.236   5.108  0.3599 -0.7688  1.2815
   43CHL1  H21B 4342   5.888   6.077   5.084 -1.7491 -0.6300 -0.0596
   43CHL1  H21C 4343   5.812   6.171   4.945  0.8175 -1.7825 -0.3481
   43CHL1   C22 4344   6.087   6.172   4.903  0.8049 -0.0231 -0.2373
   43CHL1  H22A 4345   6.179   6.235   4.898  0.2864  0.7884  0.2919
   43CHL1  H22B 4346   6.105   6.066   4.930 -1.1799  0.0358  1.5678
   43CHL1   C23 4347   6.025   6.178   4.767  0.2389  0.0503 -0.1042
   43CHL1  H23A 4348   5.943   6.107   4.743 -0.3761  0.3417  1.0676
   43CHL1  H23B 4349   5.990   6.283   4.756  1.3167  0.5150  0.7356
   43CHL1   C24 4350   6.123   6.161   4.650  0.2356 -0.3410  0.0027
   43CHL1  H24A 4351   6.209   6.230   4.666  0.5223 -1.0412  1.6505
   43CHL1  H24B 4352   6.176   6.065   4.666 -1.6966 -1.3014  0.8631
   43CHL1   C25 4353   6.081   6.166   4.499 -0.5369 -0.1640 -0.0185
   43CHL1   H25 4354   6.022   6.257   4.476 -2.6368 -1.4700 -0.0637
   43CHL1   C26 4355   6.202   6.150   4.408  0.0171 -1.0769 -0.3390
   43CHL1  H26A 4356   6.241   6.047   4.422  1.4767 -0.6256 -0.9489
   43CHL1  H26B 4357   6.177   6.158   4.300 -0.1119 -0.2778 -0.2597
   43CHL1  H26C 4358   6.273   6.230   4.439 -1.6084  0.8297 -1.2961
   43CHL1   C27 4359   5.972   6.058   4.464 -0.1687  0.3535 -0.8206
   43CHL1  H27A 4360   5.885   6.077   4.531  0.6672 -0.6942  0.6191
   43CHL1  H27B 4361   5.942   6.074   4.358 -1.9307  0.4859 -0.3304
   43CHL1  H27C 4362   5.992   5.949   4.473 -1.5764 -0.1506 -3.0049
   44CHL1    C3 4363   5.385   0.154   6.205  0.6273 -0.6260  0.4812
   44CHL1    H3 4364   5.296   0.200   6.158  2.4186  2.6368  0.0395
   44CHL1    O3 4365   5.397   0.194   6.338  0.2666  0.7593  0.2474
   44CHL1   H3' 4366   5.476   0.159   6.380  0.1262  2.4882  2.1267
   44CHL1    C4 4367   5.384   0.004   6.191 -0.9429 -0.5267 -0.3390
   44CHL1   H4A 4368   5.479  -0.028   6.237 -0.3724 -0.1112 -1.1939
   44CHL1   H4B 4369   5.303  -0.039   6.253  0.7211 -1.1274  1.5161
   44CHL1    C5 4370   5.385  -0.046   6.048  0.8368  0.1729  0.9180
   44CHL1    C6 4371   5.297  -0.131   5.993  0.0587  0.1961 -0.3180
   44CHL1    H6 4372   5.220  -0.176   6.058  1.8726  0.7153  2.3652
   44CHL1    C7 4373   5.306  -0.167   5.844 -0.0563 -0.6784  0.8166
   44CHL1   H7A 4374   5.303  -0.278   5.839 -0.3927 -0.6547  0.4343
   44CHL1   H7B 4375   5.229  -0.118   5.780  1.4076 -0.4962 -0.8698
   44CHL1    C8 4376   5.440  -0.135   5.771 -0.6108 -0.0508  0.4345
   44CHL1    H8 4377   5.516  -0.211   5.800  0.1703  0.3243 -0.5783
   44CHL1   C14 4378   5.425  -0.143   5.620  0.1299  0.6790  0.1423
   44CHL1   H14 4379   5.340  -0.077   5.592  0.8459  1.6221  0.1231
   44CHL1   C15 4380   5.386  -0.277   5.553 -0.5018  0.0244 -0.5523
   44CHL1  H15A 4381   5.457  -0.360   5.575 -1.1307 -0.6046 -0.8387
   44CHL1  H15B 4382   5.288  -0.311   5.592 -1.0758  0.8474 -1.2541
   44CHL1   C16 4383   5.408  -0.245   5.402 -0.5363 -0.2979  0.3288
   44CHL1  H16A 4384   5.463  -0.328   5.354  1.9995  0.6707  1.4036
   44CHL1  H16B 4385   5.316  -0.250   5.339  0.4147  0.2560 -1.1699
   44CHL1   C17 4386   5.472  -0.104   5.386 -0.6651  0.6721 -0.8781
   44CHL1   H17 4387   5.386  -0.035   5.376 -0.4029  1.2413  0.5735
   44CHL1   C13 4388   5.535  -0.077   5.531  0.1252 -0.3154  0.0842
   44CHL1   C18 4389   5.664  -0.160   5.535 -0.0611 -0.5575 -0.4548
   44CHL1  H18A 4390   5.687  -0.172   5.643 -2.5739 -0.0311  0.1778
   44CHL1  H18B 4391   5.648  -0.255   5.479 -2.1966  0.2331 -1.2409
   44CHL1  H18C 4392   5.750  -0.113   5.483  0.5223 -0.1768  0.8171
   44CHL1   C12 4393   5.560   0.070   5.570 -0.0913  0.0355 -1.4982
   44CHL1  H12A 4394   5.648   0.115   5.518 -0.2670  3.6303  0.9191
   44CHL1  H12B 4395   5.467   0.127   5.546 -0.9069  0.3495  1.9146
   44CHL1   C11 4396   5.584   0.078   5.724 -0.1400  0.4127 -0.0200
   44CHL1  H11A 4397   5.681   0.030   5.744 -0.5499 -0.2646  0.3687
   44CHL1  H11B 4398   5.587   0.185   5.753  0.3176  0.2383  0.5847
   44CHL1    C9 4399   5.476   0.009   5.808  0.0000  0.1804 -0.2733
   44CHL1    H9 4400   5.384   0.065   5.778 -0.5378 -1.2896 -1.4709
   44CHL1   C10 4401   5.493   0.025   5.961  0.7617 -1.0639  0.5633
   44CHL1   C19 4402   5.633  -0.031   5.992 -0.0041  1.2805  0.0059
   44CHL1  H19A 4403   5.717   0.027   5.949  0.1705  1.7815  0.9763
   44CHL1  H19B 4404   5.657  -0.023   6.101  0.2450  3.2635 -0.1590
   44CHL1  H19C 4405   5.648  -0.134   5.954  0.7667  0.8421  1.4048
   44CHL1    C1 4406   5.500   0.180   5.992  0.2885 -0.6696 -0.1995
   44CHL1   H1A 4407   5.585   0.231   5.943 -0.0029 -0.3516 -0.3722
   44CHL1   H1B 4408   5.412   0.226   5.944  2.2965 -1.2912 -5.0604
   44CHL1    C2 4409   5.507   0.218   6.138  0.0990  0.1120 -0.1761
   44CHL1   H2A 4410   5.509   0.329   6.147 -1.2877 -0.0112  3.4644
   44CHL1   H2B 4411   5.604   0.187   6.181  0.1709 -0.5156 -0.7739
   44CHL1   C20 4412   5.573  -0.084   5.267 -0.1489  0.9081 -0.4801
   44CHL1   H20 4413   5.677  -0.112   5.296 -0.4102 -1.8104 -1.8328
   44CHL1   C21 4414   5.564   0.062   5.224  0.2190 -0.7315 -0.1317
   44CHL1  H21A 4415   5.459   0.092   5.207  0.1756  1.2649  2.9486
   44CHL1  H21B 4416   5.623   0.101   5.137 -0.0093  3.0377  1.2094
   44CHL1  H21C 4417   5.587   0.129   5.310 -0.7505  0.3037 -0.6606
   44CHL1   C22 4418   5.540  -0.168   5.143  0.0063 -0.5240  0.2608
   44CHL1  H22A 4419   5.523  -0.278   5.154 -0.7442 -0.6938 -2.1318
   44CHL1  H22B 4420   5.444  -0.122   5.115 -0.4753 -1.2436  0.6926
   44CHL1   C23 4421   5.642  -0.147   5.028  0.1430 -0.2233 -0.2460
   44CHL1  H23A 4422   5.649  -0.041   4.996 -0.6488  0.5662  1.9821
   44CHL1  H23B 4423   5.735  -0.192   5.071 -0.7265 -0.6003  1.3208
   44CHL1   C24 4424   5.595  -0.226   4.908  0.4101 -0.1721 -0.2565
   44CHL1  H24A 4425   5.604  -0.331   4.941 -0.0626  0.0371  0.5515
   44CHL1  H24B 4426   5.495  -0.189   4.876  1.7322  3.8673 -0.2862
   44CHL1   C25 4427   5.694  -0.191   4.796  0.0792  0.0296  0.5543
   44CHL1   H25 4428   5.711  -0.081   4.793 -0.2146  0.0587 -0.7652
   44CHL1   C26 4429   5.830  -0.267   4.813  0.3257 -0.1023 -0.2713
   44CHL1  H26A 4430   5.815  -0.375   4.788 -1.4176  0.3221 -1.2310
   44CHL1  H26B 4431   5.909  -0.233   4.743  0.5657 -1.5722 -0.7667
   44CHL1  H26C 4432   5.872  -0.253   4.915  2.7877  1.1431 -1.3772
   44CHL1   C27 4433   5.633  -0.227   4.661 -0.4516  0.1576  0.0685
   44CHL1  H27A 4434   5.539  -0.170   4.668 -0.1166  0.4711  3.2996
   44CHL1  H27B 4435   5.699  -0.206   4.574 -0.2731  0.0746  0.1831
   44CHL1  H27C 4436   5.608  -0.335   4.666 -4.2444  0.8191 -1.5196
   45CHL1    C3 4437   4.847   0.137   6.225  0.0252  0.2059 -0.3665
   45CHL1    H3 4438   4.826   0.242   6.194 -2.0354 -0.4964 -1.5572
   45CHL1    O3 4439   4.869   0.133   6.363  0.2541  0.1828 -0.1290
   45CHL1   H3' 4440   4.962   0.157   6.372  0.7329 -1.2772 -0.8917
   45CHL1    C4 4441   4.732   0.036   6.192  0.2881 -0.6365 -0.4822
   45CHL1   H4A 4442   4.755  -0.068   6.226 -1.0283 -1.7395 -2.7590
   45CHL1   H4B 4443   4.640   0.053   6.252  0.8663  0.4845  0.1298
   45CHL1    C5 4444   4.713   0.018   6.040 -0.1911  0.3288  0.8943
   45CHL1    C6 4445   4.600   0.048   5.981  0.4588  0.6682  0.5701
   45CHL1    H6 4446   4.517   0.085   6.042 -0.7689 -0.8446 -0.1278
   45CHL1    C7 4447   4.568   0.039   5.835 -0.2051 -0.7378 -0.0120
   45CHL1   H7A 4448   4.470  -0.010   5.818 -0.8714  1.0979 -2.0450
   45CHL1   H7B 4449   4.557   0.143   5.797  0.2247  0.2597  2.4142
   45CHL1    C8 4450   4.683  -0.030   5.751  0.1384 -0.0552  0.1896
   45CHL1    H8 4451   4.659  -0.136   5.775 -0.7634  0.5813  2.4338
   45CHL1   C14 4452   4.666   0.005   5.603  0.0017 -0.4680 -0.2553
   45CHL1   H14 4453   4.691   0.113   5.593 -0.3147 -0.1386  1.9675
   45CHL1   C15 4454   4.532  -0.022   5.539 -0.4437  0.1254  0.2082
   45CHL1  H15A 4455   4.488  -0.117   5.576 -1.2516  0.7549  0.8914
   45CHL1  H15B 4456   4.471   0.068   5.564  2.0088  1.5137  1.5652
   45CHL1   C16 4457   4.562  -0.031   5.392 -0.2804 -0.2116  0.1035
   45CHL1  H16A 4458   4.505  -0.109   5.337  1.5748 -2.8978  1.7745
   45CHL1  H16B 4459   4.537   0.061   5.335 -1.7099 -1.6626 -1.7436
   45CHL1   C17 4460   4.714  -0.039   5.366  0.2549  0.5534 -0.5713
   45CHL1   H17 4461   4.759   0.061   5.345  1.0954  0.8413  2.2357
   45CHL1   C13 4462   4.762  -0.074   5.513  0.5753  0.0693 -0.1862
   45CHL1   C18 4463   4.736  -0.225   5.529 -1.0472  0.2811  0.7348
   45CHL1  H18A 4464   4.738  -0.267   5.632  1.9923  0.0693  0.6787
   45CHL1  H18B 4465   4.645  -0.256   5.473 -0.6689 -0.0106  0.2859
   45CHL1  H18C 4466   4.830  -0.269   5.489 -1.1217  1.5904 -0.9751
   45CHL1   C12 4467   4.899  -0.023   5.558  0.3991  0.3891  0.1208
   45CHL1  H12A 4468   4.988  -0.060   5.504  0.8623  0.4127  0.8457
   45CHL1  H12B 4469   4.907   0.087   5.558  1.5358  0.3157 -0.0926
   45CHL1   C11 4470   4.923  -0.062   5.707  0.1189  0.1730 -0.4192
   45CHL1  H11A 4471   4.911  -0.172   5.710 -1.7810  0.3621  0.7667
   45CHL1  H11B 4472   5.028  -0.042   5.739  0.2504  1.5800 -1.5984
   45CHL1    C9 4473   4.823   0.007   5.801 -0.3813  0.0721  0.1755
   45CHL1    H9 4474   4.838   0.117   5.797  0.2543  0.0150  0.8272
   45CHL1   C10 4475   4.837  -0.018   5.958 -0.1273 -0.3669  0.3678
   45CHL1   C19 4476   4.881  -0.158   5.982 -0.2150  0.2452 -0.7400
   45CHL1  H19A 4477   4.977  -0.174   5.927 -0.5143  1.2430 -1.5809
   45CHL1  H19B 4478   4.905  -0.182   6.088  1.5224 -2.7334 -1.6679
   45CHL1  H19C 4479   4.794  -0.224   5.959 -0.0503 -0.5704  0.8407
   45CHL1    C1 4480   4.954   0.070   6.012 -0.1515 -0.4875  0.9255
   45CHL1   H1A 4481   5.044   0.032   5.959 -0.3566  1.1659 -0.7018
   45CHL1   H1B 4482   4.939   0.171   5.968 -1.0732 -0.9610  0.1152
   45CHL1    C2 4483   4.981   0.084   6.162  0.2140 -0.0507  0.5243
   45CHL1   H2A 4484   5.059   0.159   6.188  0.0699  0.5139 -0.6175
   45CHL1   H2B 4485   5.001  -0.018   6.202 -0.8407  0.1948  1.7424
   45CHL1   C20 4486   4.757  -0.125   5.241  0.6407  0.7387  0.4596
   45CHL1   H20 4487   4.713  -0.227   5.248  0.8888  0.6366  0.5530
   45CHL1   C21 4488   4.912  -0.138   5.230 -0.1509  0.0193 -0.5264
   45CHL1  H21A 4489   4.951  -0.197   5.316  2.1360 -1.7256 -2.6081
   45CHL1  H21B 4490   4.966  -0.040   5.232 -0.1559  0.0921 -2.4214
   45CHL1  H21C 4491   4.942  -0.189   5.136 -0.9293  3.6951 -2.9872
   45CHL1   C22 4492   4.702  -0.060   5.105 -0.1453 -0.2761 -0.1410
   45CHL1  H22A 4493   4.592  -0.046   5.109 -0.0878  0.2509 -0.4181
   45CHL1  H22B 4494   4.744   0.042   5.109 -1.2873  0.1902  0.3903
   45CHL1   C23 4495   4.749  -0.138   4.972 -0.1241 -0.3109 -0.8192
   45CHL1  H23A 4496   4.859  -0.130   4.957 -0.1186 -2.1373 -2.0391
   45CHL1  H23B 4497   4.732  -0.247   4.985 -0.4241 -0.1822 -0.0895
   45CHL1   C24 4498   4.665  -0.084   4.857 -0.0340  0.2234 -0.3309
   45CHL1  H24A 4499   4.558  -0.112   4.867 -0.4332  0.8915 -2.2102
   45CHL1  H24B 4500   4.663   0.027   4.846 -1.3004  0.0240 -2.9410
   45CHL1   C25 4501   4.710  -0.135   4.721 -0.0195 -0.3098  1.1449
   45CHL1   H25 4502   4.719  -0.245   4.735  0.7502 -0.4593 -0.2355
   45CHL1   C26 4503   4.599  -0.116   4.609  0.0413  0.5245 -0.4435
   45CHL1  H26A 4504   4.498  -0.149   4.642 -0.3890  1.8868 -0.3237
   45CHL1  H26B 4505   4.596  -0.006   4.592 -2.7849  0.3125 -1.9191
   45CHL1  H26C 4506   4.611  -0.173   4.515 -1.5191 -1.0753  0.2689
   45CHL1   C27 4507   4.843  -0.059   4.680  0.1204  0.2378  0.4759
   45CHL1  H27A 4508   4.823   0.050   4.689  0.7050  0.2981  1.1604
   45CHL1  H27B 4509   4.922  -0.087   4.752 -0.6778  1.0261  1.6832
   45CHL1  H27C 4510   4.877  -0.100   4.582  0.1556  0.2495  0.4835
   46CHL1    C3 4511   3.314   1.799   6.226 -0.1590  1.1188  0.4236
   46CHL1    H3 4512   3.396   1.725   6.217 -0.3232  1.1126 -1.2374
   46CHL1    O3 4513   3.237   1.785   6.344  0.0332 -1.0731  0.3613
   46CHL1   H3' 4514   3.303   1.800   6.412  0.6555  1.2859 -0.6507
   46CHL1    C4 4515   3.375   1.944   6.209  0.2571 -0.0546 -0.8241
   46CHL1   H4A 4516   3.311   2.010   6.272  1.1692 -0.5150  0.6419
   46CHL1   H4B 4517   3.473   1.935   6.260  0.1987 -0.7140 -0.8099
   46CHL1    C5 4518   3.383   1.998   6.067 -0.0554 -0.4894  0.0371
   46CHL1    C6 4519   3.486   2.080   6.028  0.6777 -0.0770 -0.3041
   46CHL1    H6 4520   3.562   2.086   6.107  0.9994 -0.7344 -0.5606
   46CHL1    C7 4521   3.489   2.141   5.894  0.4737 -0.4500  0.0197
   46CHL1   H7A 4522   3.508   2.251   5.899 -1.4771 -0.1291  1.5526
   46CHL1   H7B 4523   3.578   2.094   5.846  1.3874  1.2918 -0.0836
   46CHL1    C8 4524   3.363   2.130   5.814 -0.3106 -0.4951  0.2068
   46CHL1    H8 4525   3.294   2.207   5.854  0.3773  0.1508  0.1561
   46CHL1   C14 4526   3.392   2.177   5.674 -0.0414  0.1977  0.1211
   46CHL1   H14 4527   3.481   2.125   5.631  0.1277  0.4652  0.1459
   46CHL1   C15 4528   3.444   2.325   5.652 -0.0513 -0.2906  0.4178
   46CHL1  H15A 4529   3.377   2.387   5.715 -1.4994 -0.0341 -1.3054
   46CHL1  H15B 4530   3.551   2.338   5.680  0.2722  1.2425 -1.3607
   46CHL1   C16 4531   3.427   2.338   5.499 -0.6814  0.1009 -0.3380
   46CHL1  H16A 4532   3.367   2.429   5.478  1.2107  1.8675  1.4519
   46CHL1  H16B 4533   3.524   2.362   5.450  0.9328 -3.2031  0.9445
   46CHL1   C17 4534   3.355   2.217   5.446  0.2057  0.8985 -0.1502
   46CHL1   H17 4535   3.433   2.139   5.430  0.5422  0.8881  1.4144
   46CHL1   C13 4536   3.276   2.164   5.572 -0.4681 -0.2351 -0.2893
   46CHL1   C18 4537   3.157   2.257   5.612  0.6064  0.2332 -0.7516
   46CHL1  H18A 4538   3.060   2.253   5.559 -0.7006  0.9979  1.4820
   46CHL1  H18B 4539   3.122   2.224   5.712  2.4338  0.0842 -0.1130
   46CHL1  H18C 4540   3.191   2.363   5.610 -0.1027  0.4488 -1.8584
   46CHL1   C12 4541   3.230   2.017   5.571 -0.0180 -0.4742  0.8441
   46CHL1  H12A 4542   3.132   2.007   5.518 -2.0095  1.6655  3.7468
   46CHL1  H12B 4543   3.304   1.948   5.526 -0.9668 -1.2276  0.3878
   46CHL1   C11 4544   3.198   1.964   5.709 -0.2588  0.2203  0.2014
   46CHL1  H11A 4545   3.103   2.009   5.746  0.5351 -1.3927  4.8976
   46CHL1  H11B 4546   3.174   1.857   5.690  2.0822 -0.2048 -0.7107
   46CHL1    C9 4547   3.311   1.989   5.816 -0.3787 -0.1477  0.0599
   46CHL1    H9 4548   3.395   1.922   5.785 -1.5092 -1.0987 -1.0634
   46CHL1   C10 4549   3.275   1.960   5.963  0.7062  0.3652  0.5165
   46CHL1   C19 4550   3.148   2.041   5.999  0.4860  0.4058 -0.0615
   46CHL1  H19A 4551   3.165   2.150   6.009 -1.3315  0.6575  0.7758
   46CHL1  H19B 4552   3.058   2.020   5.937  0.4412  0.5051 -0.0304
   46CHL1  H19C 4553   3.122   2.009   6.102  1.6946  0.1973  0.1943
   46CHL1    C1 4554   3.259   1.805   5.976  0.0201 -0.5170 -0.4688
   46CHL1   H1A 4555   3.176   1.772   5.910 -1.4979  0.3658  0.9283
   46CHL1   H1B 4556   3.358   1.761   5.951 -0.0196 -0.3373 -0.9420
   46CHL1    C2 4557   3.210   1.757   6.120  0.2033  0.0091  0.7967
   46CHL1   H2A 4558   3.201   1.647   6.105 -1.8322  0.2042  0.2473
   46CHL1   H2B 4559   3.108   1.799   6.135 -0.4887 -0.5053 -1.8799
   46CHL1   C20 4560   3.285   2.231   5.308 -0.5132 -0.7790  0.0622
   46CHL1   H20 4561   3.222   2.140   5.298 -1.7564  0.2083 -1.8715
   46CHL1   C21 4562   3.388   2.240   5.193  1.2714 -0.2781  0.6877
   46CHL1  H21A 4563   3.350   2.245   5.088  2.1097 -2.4592  0.2257
   46CHL1  H21B 4564   3.449   2.147   5.199  2.6761  0.5282 -0.4618
   46CHL1  H21C 4565   3.454   2.328   5.209  0.9606  0.5865 -2.2372
   46CHL1   C22 4566   3.188   2.352   5.285  0.1323  0.0827 -0.0585
   46CHL1  H22A 4567   3.146   2.363   5.387  1.6747 -3.5039  1.1294
   46CHL1  H22B 4568   3.235   2.453   5.284 -1.8626  1.1116  1.4628
   46CHL1   C23 4569   3.103   2.348   5.161  0.6592  0.3675  0.1320
   46CHL1  H23A 4570   3.058   2.449   5.152 -0.6912 -0.2565 -0.3638
   46CHL1  H23B 4571   3.158   2.333   5.065  1.2447  0.0106  0.5171
   46CHL1   C24 4572   2.998   2.230   5.157  0.2630  0.4535  0.5205
   46CHL1  H24A 4573   3.046   2.130   5.156 -2.3897 -0.9612 -2.3612
   46CHL1  H24B 4574   2.934   2.234   5.247  1.6506 -0.7841  1.6231
   46CHL1   C25 4575   2.908   2.229   5.038 -0.1643 -0.2469  0.1007
   46CHL1   H25 4576   2.826   2.157   5.060  0.5998 -0.4199  2.6388
   46CHL1   C26 4577   2.850   2.362   4.993 -0.4162  0.0225  0.3595
   46CHL1  H26A 4578   2.798   2.344   4.897  0.9270 -3.3368  0.1213
   46CHL1  H26B 4579   2.772   2.405   5.059 -0.6856 -0.7566  0.5570
   46CHL1  H26C 4580   2.933   2.436   4.993 -0.2835 -0.1238  0.1294
   46CHL1   C27 4581   2.987   2.167   4.917 -0.1800  0.5479  0.1529
   46CHL1  H27A 4582   3.014   2.063   4.943  4.1266  0.8257 -2.3341
   46CHL1  H27B 4583   2.931   2.181   4.822  2.2534 -0.4206 -1.5169
   46CHL1  H27C 4584   3.080   2.226   4.907 -0.5238  1.0214 -0.3629
   47CHL1    C3 4585   5.982   3.468   6.173  0.0829 -0.5189 -0.1169
   47CHL1    H3 4586   5.895   3.534   6.153 -0.2305 -0.9628 -0.2432
   47CHL1    O3 4587   5.980   3.443   6.313  0.0526 -0.4565  0.8855
   47CHL1   H3' 4588   5.950   3.528   6.346  0.2082 -0.6738  1.5985
   47CHL1    C4 4589   5.974   3.334   6.102  0.2909 -0.0346  0.1261
   47CHL1   H4A 4590   6.052   3.262   6.135 -0.4552 -0.8360  0.1797
   47CHL1   H4B 4591   5.885   3.280   6.141 -0.9824 -1.1304 -3.8719
   47CHL1    C5 4592   5.971   3.354   5.953  0.8492  0.3100  0.6287
   47CHL1    C6 4593   5.866   3.316   5.880  0.3222 -0.8871 -0.0673
   47CHL1    H6 4594   5.795   3.246   5.928  1.2863 -0.8397  1.4748
   47CHL1    C7 4595   5.851   3.327   5.730 -0.0576 -0.0435 -0.2630
   47CHL1   H7A 4596   5.826   3.225   5.693 -1.9356  0.6764 -1.1165
   47CHL1   H7B 4597   5.762   3.387   5.703 -0.1250 -0.2043 -0.3999
   47CHL1    C8 4598   5.987   3.376   5.655 -0.0022  0.1952  0.0315
   47CHL1    H8 4599   6.053   3.288   5.638 -0.1362 -0.0647  0.8479
   47CHL1   C14 4600   5.945   3.433   5.523  0.5946 -0.3105  0.6329
   47CHL1   H14 4601   5.888   3.525   5.547  1.7249  0.9874 -1.3455
   47CHL1   C15 4602   5.857   3.348   5.422  0.3113 -0.0554 -0.0259
   47CHL1  H15A 4603   5.881   3.241   5.411 -0.9605 -0.4800  1.0239
   47CHL1  H15B 4604   5.755   3.355   5.465 -0.3522 -1.5413 -1.2901
   47CHL1   C16 4605   5.872   3.420   5.289 -0.0424 -0.2118  0.3701
   47CHL1  H16A 4606   5.906   3.358   5.203  0.3541  1.9973 -1.1469
   47CHL1  H16B 4607   5.769   3.454   5.264 -0.6414 -0.2338  2.6000
   47CHL1   C17 4608   5.976   3.535   5.311 -0.5603 -0.6130  0.3249
   47CHL1   H17 4609   5.916   3.626   5.336  0.0051 -0.2900  0.5383
   47CHL1   C13 4610   6.054   3.495   5.439  0.2181  0.2019  0.6483
   47CHL1   C18 4611   6.160   3.390   5.406  0.1490 -0.5412 -0.4039
   47CHL1  H18A 4612   6.254   3.438   5.369  0.6688  0.0734  1.5503
   47CHL1  H18B 4613   6.193   3.338   5.499  2.2548  1.2359 -0.0574
   47CHL1  H18C 4614   6.119   3.307   5.346 -1.8578 -0.1003  0.2710
   47CHL1   C12 4615   6.117   3.610   5.523 -1.0426 -0.0294 -0.1357
   47CHL1  H12A 4616   6.211   3.641   5.472 -1.9193 -0.1102 -1.8934
   47CHL1  H12B 4617   6.047   3.696   5.523 -1.2113 -0.0824  2.5209
   47CHL1   C11 4618   6.155   3.571   5.669 -0.2403 -1.3882 -0.6500
   47CHL1  H11A 4619   6.252   3.517   5.665  0.7143 -0.1200  2.4449
   47CHL1  H11B 4620   6.172   3.660   5.734 -2.0098 -1.9291  0.6108
   47CHL1    C9 4621   6.049   3.486   5.741 -0.1983 -0.2296 -0.0720
   47CHL1    H9 4622   5.965   3.557   5.757  0.8378  0.8059  1.0404
   47CHL1   C10 4623   6.088   3.435   5.884  0.8150  0.2020 -0.2916
   47CHL1   C19 4624   6.217   3.345   5.884  0.2455  0.1300  0.0729
   47CHL1  H19A 4625   6.294   3.401   5.827  1.0060 -0.8367  0.1322
   47CHL1  H19B 4626   6.251   3.318   5.986 -2.1938 -2.8468  0.2265
   47CHL1  H19C 4627   6.211   3.246   5.834  0.2983 -0.3712  1.0373
   47CHL1    C1 4628   6.121   3.558   5.984  0.3398 -0.0841  0.0426
   47CHL1   H1A 4629   6.218   3.603   5.952  0.0484  0.4483 -0.1129
   47CHL1   H1B 4630   6.044   3.638   5.976 -1.4563 -1.6859  0.5237
   47CHL1    C2 4631   6.119   3.525   6.131  0.4976 -0.8024 -0.0124
   47CHL1   H2A 4632   6.143   3.615   6.191  1.1838 -1.3817  0.6014
   47CHL1   H2B 4633   6.202   3.455   6.154 -1.0772 -2.3332  1.2682
   47CHL1   C20 4634   6.056   3.567   5.186  0.1278  0.3471  0.2060
   47CHL1   H20 4635   6.116   3.474   5.174 -0.2731  0.0201  0.7393
   47CHL1   C21 4636   6.143   3.689   5.229  0.3277 -0.3930  0.3579
   47CHL1  H21A 4637   6.072   3.762   5.274 -0.4847 -1.3253  0.6287
   47CHL1  H21B 4638   6.179   3.740   5.136 -2.5182 -0.0257 -0.6312
   47CHL1  H21C 4639   6.237   3.668   5.283  1.8147  1.6092 -1.2590
   47CHL1   C22 4640   5.968   3.592   5.058  0.0946  0.2032  0.6489
   47CHL1  H22A 4641   6.032   3.625   4.973  0.9414 -0.1147  1.1542
   47CHL1  H22B 4642   5.925   3.494   5.027  1.0814  0.1496 -0.6103
   47CHL1   C23 4643   5.849   3.692   5.068 -0.6858  0.1371 -0.3804
   47CHL1  H23A 4644   5.763   3.647   5.121 -0.4494 -0.1025 -0.2002
   47CHL1  H23B 4645   5.873   3.786   5.122 -0.2140  0.2482 -0.7831
   47CHL1   C24 4646   5.789   3.748   4.937  0.1622 -0.7640 -0.7164
   47CHL1  H24A 4647   5.710   3.823   4.962  1.4146  0.4042 -0.1838
   47CHL1  H24B 4648   5.876   3.803   4.896 -0.1349 -0.6322 -1.1714
   47CHL1   C25 4649   5.714   3.652   4.843  0.2737  0.5076 -0.5802
   47CHL1   H25 4650   5.782   3.568   4.817 -1.3693 -1.3977  0.9959
   47CHL1   C26 4651   5.601   3.574   4.923  0.2218  0.1547  0.7564
   47CHL1  H26A 4652   5.511   3.636   4.947 -0.5363 -1.1548  1.4181
   47CHL1  H26B 4653   5.558   3.497   4.855 -0.4512  0.9241  0.2822
   47CHL1  H26C 4654   5.640   3.518   5.011  3.8894 -2.6577 -2.3316
   47CHL1   C27 4655   5.667   3.715   4.715  0.8241 -0.4136  0.5237
   47CHL1  H27A 4656   5.760   3.753   4.668 -0.5792 -0.2926 -2.3482
   47CHL1  H27B 4657   5.618   3.640   4.649  1.4813  0.5019 -1.0732
   47CHL1  H27C 4658   5.594   3.797   4.729 -0.3839 -1.4923  0.7523
   48CHL1    C3 4659   1.363   4.920   6.259 -0.3206 -0.6304  0.2978
   48CHL1    H3 4660   1.272   4.983   6.250 -1.8582 -2.6405  1.0536
   48CHL1    O3 4661   1.393   4.910   6.396 -0.2872  0.0253 -0.0318
   48CHL1   H3' 4662   1.311   4.873   6.430 -1.1002 -1.7382 -3.4659
   48CHL1    C4 4663   1.322   4.786   6.196 -0.8511 -0.1156 -0.5582
   48CHL1   H4A 4664   1.419   4.734   6.213  0.2217  0.1596 -4.6877
   48CHL1   H4B 4665   1.239   4.734   6.248 -3.1078  0.4368 -3.3954
   48CHL1    C5 4666   1.283   4.786   6.047  0.0416 -0.9535 -0.0300
   48CHL1    C6 4667   1.163   4.742   6.001  0.4714  0.6436 -0.3548
   48CHL1    H6 4668   1.089   4.700   6.070 -0.2885  0.1323 -1.4656
   48CHL1    C7 4669   1.121   4.741   5.857 -0.1327  0.7738 -0.2160
   48CHL1   H7A 4670   1.073   4.647   5.822 -0.4575  0.2641  1.5196
   48CHL1   H7B 4671   1.030   4.804   5.846 -1.1983 -0.6118  0.3780
   48CHL1    C8 4672   1.235   4.778   5.761  0.3705 -0.2816  0.0517
   48CHL1    H8 4673   1.289   4.683   5.744  0.5564 -0.3297  0.9146
   48CHL1   C14 4674   1.180   4.827   5.622 -0.4799 -0.2593 -0.1466
   48CHL1   H14 4675   1.120   4.919   5.638  0.6421  0.6551 -0.9982
   48CHL1   C15 4676   1.097   4.727   5.547 -0.0848  0.3998 -0.7443
   48CHL1  H15A 4677   1.143   4.626   5.557  1.1373  1.1064  1.4090
   48CHL1  H15B 4678   0.991   4.722   5.581  0.6139  1.4795  1.8491
   48CHL1   C16 4679   1.094   4.786   5.405  0.0535  0.8906 -0.5122
   48CHL1  H16A 4680   1.130   4.694   5.353  3.5473  1.5275  0.5090
   48CHL1  H16B 4681   0.994   4.816   5.368 -0.4371  2.0637  1.6047
   48CHL1   C17 4682   1.196   4.905   5.397 -0.0024 -0.2637  0.2704
   48CHL1   H17 4683   1.152   5.000   5.433  1.5661  0.1087  1.3538
   48CHL1   C13 4684   1.289   4.869   5.518  0.0994  0.3440 -0.0751
   48CHL1   C18 4685   1.384   4.745   5.493  0.0477  0.9230 -0.3616
   48CHL1  H18A 4686   1.325   4.656   5.462 -0.6549  1.5352 -0.8118
   48CHL1  H18B 4687   1.456   4.759   5.409  0.5810 -1.2508 -0.3194
   48CHL1  H18C 4688   1.443   4.728   5.585 -0.7327  1.7147  0.2948
   48CHL1   C12 4689   1.355   4.990   5.585 -0.2745  0.8559  0.0334
   48CHL1  H12A 4690   1.437   5.014   5.513 -0.8598  2.0170 -0.2677
   48CHL1  H12B 4691   1.296   5.083   5.600  1.6830  1.9816  1.1319
   48CHL1   C11 4692   1.412   4.945   5.715  0.0966 -0.5845 -0.2511
   48CHL1  H11A 4693   1.501   4.880   5.707  2.1451  1.5036  3.0312
   48CHL1  H11B 4694   1.456   5.037   5.759  0.2030 -1.6825  2.1072
   48CHL1    C9 4695   1.316   4.887   5.821 -0.2990 -1.0155  0.4494
   48CHL1    H9 4696   1.242   4.966   5.842 -0.2205 -0.2795 -1.8249
   48CHL1   C10 4697   1.383   4.859   5.963  0.1040 -0.5272  0.6384
   48CHL1   C19 4698   1.500   4.755   5.938 -0.5293 -0.1421 -0.9222
   48CHL1  H19A 4699   1.583   4.799   5.878 -1.1592 -0.8030 -2.3300
   48CHL1  H19B 4700   1.556   4.732   6.031 -2.2198 -0.4400  0.0644
   48CHL1  H19C 4701   1.489   4.663   5.877  2.4580 -0.3569 -1.2865
   48CHL1    C1 4702   1.432   4.993   6.029  0.6524  0.8470  0.0787
   48CHL1   H1A 4703   1.513   5.039   5.969 -0.3273  2.2410 -0.1996
   48CHL1   H1B 4704   1.342   5.058   6.037  0.4302  0.6467 -0.6767
   48CHL1    C2 4705   1.475   4.986   6.178  0.0094 -0.5815  0.1272
   48CHL1   H2A 4706   1.481   5.093   6.209  0.1089 -0.8937  1.2273
   48CHL1   H2B 4707   1.576   4.945   6.198  1.4807  2.2226 -0.9919
   48CHL1   C20 4708   1.257   4.907   5.250 -0.9631 -0.6334  0.3830
   48CHL1   H20 4709   1.318   4.818   5.227 -0.8209 -0.2073 -1.0077
   48CHL1   C21 4710   1.358   5.018   5.245 -1.0610  0.4098  0.3325
   48CHL1  H21A 4711   1.449   5.009   5.308 -0.2052  0.7504 -0.8427
   48CHL1  H21B 4712   1.378   5.068   5.148 -1.0603 -0.5498 -0.1721
   48CHL1  H21C 4713   1.308   5.106   5.292  0.7094  3.3583 -2.8309
   48CHL1   C22 4714   1.150   4.906   5.135  0.3093  0.0762 -1.0381
   48CHL1  H22A 4715   1.097   4.809   5.143 -1.9172  1.3366  0.7758
   48CHL1  H22B 4716   1.073   4.982   5.162 -0.1799 -1.2912  1.7752
   48CHL1   C23 4717   1.203   4.920   4.993  0.6117  0.1101  0.3882
   48CHL1  H23A 4718   1.249   5.020   4.982 -0.8490  0.7564 -0.2443
   48CHL1  H23B 4719   1.290   4.854   4.971  1.0114  0.6343  0.4004
   48CHL1   C24 4720   1.094   4.888   4.889 -0.0029  0.4589 -0.5367
   48CHL1  H24A 4721   1.060   4.784   4.907  0.8096 -0.4222 -3.5214
   48CHL1  H24B 4722   1.006   4.954   4.901 -0.5921 -0.3951 -0.0583
   48CHL1   C25 4723   1.146   4.884   4.745 -0.3595 -0.2012 -0.7017
   48CHL1   H25 4724   1.209   4.794   4.731 -0.8208 -0.3144 -2.1887
   48CHL1   C26 4725   1.025   4.857   4.661  0.3484 -0.1003 -0.0407
   48CHL1  H26A 4726   0.943   4.931   4.672 -0.3590 -0.8907  0.1701
   48CHL1  H26B 4727   1.059   4.842   4.556 -1.3822 -0.1040 -0.6379
   48CHL1  H26C 4728   0.979   4.759   4.688 -1.5588  0.3345 -1.4672
   48CHL1   C27 4729   1.202   5.014   4.700  0.0484 -0.1180  0.3647
   48CHL1  H27A 4730   1.115   5.083   4.706 -1.3941 -1.6749 -1.3442
   48CHL1  H27B 4731   1.296   5.042   4.752  0.7518 -1.3956 -0.1868
   48CHL1  H27C 4732   1.221   5.014   4.591 -0.9445  1.8902  0.1374
   49CHL1    C3 4733   3.750   2.963   2.815  0.0021  0.7970 -0.4866
   49CHL1    H3 4734   3.703   3.063   2.827 -0.1488  0.5508  1.2565
   49CHL1    O3 4735   3.772   2.932   2.678  0.0851  0.1795 -0.3383
   49CHL1   H3' 4736   3.820   2.850   2.680 -0.1687 -0.0070 -1.3000
   49CHL1    C4 4737   3.882   2.957   2.895 -0.4287  0.1530  0.3943
   49CHL1   H4A 4738   3.936   2.867   2.860  0.9637  0.5603  1.4410
   49CHL1   H4B 4739   3.942   3.046   2.870  0.1795 -0.5786 -0.8321
   49CHL1    C5 4740   3.870   2.967   3.047  0.2870 -0.8038  0.5223
   49CHL1    C6 4741   3.933   3.062   3.121  0.4259 -0.3329  0.0288
   49CHL1    H6 4742   3.991   3.143   3.075  0.4782  1.2305  2.6445
   49CHL1    C7 4743   3.926   3.076   3.266  0.6280  0.5911 -0.7629
   49CHL1   H7A 4744   4.027   3.077   3.311  0.6631 -1.5542 -0.7030
   49CHL1   H7B 4745   3.867   3.163   3.303  1.0811  1.3749 -1.8348
   49CHL1    C8 4746   3.858   2.940   3.329  0.0367  0.2365  1.0495
   49CHL1    H8 4747   3.930   2.856   3.321 -1.3939 -1.1538  2.0513
   49CHL1   C14 4748   3.837   2.961   3.475  0.7072 -0.6714 -0.2450
   49CHL1   H14 4749   3.766   3.047   3.474  1.3455 -0.1441 -0.9186
   49CHL1   C15 4750   3.958   3.010   3.558 -0.8353  0.0928  0.1779
   49CHL1  H15A 4751   4.050   2.954   3.530 -0.1257  1.5135 -0.3885
   49CHL1  H15B 4752   3.982   3.117   3.542  1.2989 -0.2940  0.4271
   49CHL1   C16 4753   3.911   2.975   3.698 -0.2110 -0.6076 -0.6210
   49CHL1  H16A 4754   3.994   2.925   3.753 -0.9991 -0.9235  0.3219
   49CHL1  H16B 4755   3.906   3.061   3.768  1.0135 -1.9441  1.2061
   49CHL1   C17 4756   3.778   2.893   3.696 -0.1659 -0.4829  0.8442
   49CHL1   H17 4757   3.687   2.958   3.704 -0.1324 -0.5728  2.1442
   49CHL1   C13 4758   3.776   2.844   3.550  0.6195  0.5102  0.1867
   49CHL1   C18 4759   3.870   2.725   3.536 -0.6340 -0.0709 -0.8659
   49CHL1  H18A 4760   3.888   2.697   3.430 -0.4814  1.8480 -1.3882
   49CHL1  H18B 4761   3.976   2.747   3.563 -0.3700 -0.2057 -1.7257
   49CHL1  H18C 4762   3.826   2.643   3.595 -1.8740 -0.5839 -2.4443
   49CHL1   C12 4763   3.644   2.812   3.485  0.9078  0.3138 -0.2179
   49CHL1  H12A 4764   3.590   2.728   3.534 -2.3231  0.7906 -2.5699
   49CHL1  H12B 4765   3.577   2.899   3.507 -0.6508 -0.7832 -0.4303
   49CHL1   C11 4766   3.652   2.784   3.333  0.0777 -0.0747 -0.2668
   49CHL1  H11A 4767   3.696   2.682   3.331  0.2289 -0.0039 -0.6595
   49CHL1  H11B 4768   3.546   2.786   3.301  0.4095  0.4929 -1.3831
   49CHL1    C9 4769   3.729   2.896   3.250 -0.0892  0.6185 -0.4104
   49CHL1    H9 4770   3.665   2.986   3.249 -0.4229  0.4456  1.4770
   49CHL1   C10 4771   3.757   2.866   3.099 -0.1207  0.1616 -0.1472
   49CHL1   C19 4772   3.827   2.726   3.095 -0.2911 -1.0347  0.8943
   49CHL1  H19A 4773   3.858   2.705   2.991 -2.5232  0.6354 -0.1912
   49CHL1  H19B 4774   3.928   2.730   3.142 -0.1193 -0.2311  0.4679
   49CHL1  H19C 4775   3.767   2.637   3.125  2.7282 -3.0292  1.4523
   49CHL1    C1 4776   3.620   2.869   3.020 -0.3130  0.4330 -0.2985
   49CHL1   H1A 4777   3.547   2.790   3.049 -1.2835  1.5437  0.3890
   49CHL1   H1B 4778   3.567   2.962   3.051  0.4356  0.7940 -0.0645
   49CHL1    C2 4779   3.637   2.867   2.864  0.0200  0.0204 -0.1770
   49CHL1   H2A 4780   3.541   2.887   2.812  1.6977  1.9538 -2.7388
   49CHL1   H2B 4781   3.659   2.763   2.832 -1.1827 -0.3938  0.2671
   49CHL1   C20 4782   3.769   2.791   3.809  0.1641  0.3501  0.0408
   49CHL1   H20 4783   3.846   2.711   3.802 -2.3642 -2.1647 -1.3175
   49CHL1   C21 4784   3.631   2.721   3.813  0.2967 -0.3673  0.0009
   49CHL1  H21A 4785   3.631   2.662   3.907 -0.6673  1.8822  1.4930
   49CHL1  H21B 4786   3.628   2.658   3.721  1.8387  2.0152 -1.8343
   49CHL1  H21C 4787   3.560   2.806   3.802  2.1510  1.2362 -0.2073
   49CHL1   C22 4788   3.783   2.864   3.950  0.4410 -0.7068 -0.1924
   49CHL1  H22A 4789   3.880   2.918   3.940  1.2274 -2.3557 -2.2640
   49CHL1  H22B 4790   3.717   2.953   3.957  2.8453  1.1395  0.3324
   49CHL1   C23 4791   3.799   2.784   4.081  0.1092 -0.2373  0.4379
   49CHL1  H23A 4792   3.709   2.721   4.094  1.1829 -2.1229 -0.7602
   49CHL1  H23B 4793   3.881   2.709   4.079  0.0033 -0.3972 -2.8984
   49CHL1   C24 4794   3.823   2.870   4.203  0.2126 -0.3098 -0.3664
   49CHL1  H24A 4795   3.919   2.926   4.198 -0.9167  1.7505 -0.1078
   49CHL1  H24B 4796   3.735   2.937   4.207 -0.7687 -1.5978  0.8295
   49CHL1   C25 4797   3.829   2.796   4.331  0.1841 -0.1487 -0.3061
   49CHL1   H25 4798   3.737   2.742   4.363  0.3021 -0.0239  0.2624
   49CHL1   C26 4799   3.951   2.702   4.343 -0.0464 -0.8675 -0.3000
   49CHL1  H26A 4800   4.046   2.755   4.321  0.3819 -1.2641  0.5148
   49CHL1  H26B 4801   3.976   2.665   4.445  1.7883  0.3724 -0.2577
   49CHL1  H26C 4802   3.950   2.622   4.266 -0.8774 -1.2286  0.0755
   49CHL1   C27 4803   3.830   2.895   4.448 -0.4471 -0.4709 -0.0145
   49CHL1  H27A 4804   3.894   2.981   4.418  1.3920 -1.8764 -0.2899
   49CHL1  H27B 4805   3.727   2.923   4.480 -0.2710  1.5969 -1.0888
   49CHL1  H27C 4806   3.879   2.854   4.539 -0.6707 -0.5622  0.0648
   50CHL1    C3 4807   5.780   0.377   3.212  0.4383 -0.4420  0.4208
   50CHL1    H3 4808   5.863   0.304   3.228 -0.2103 -1.5812 -1.1410
   50CHL1    O3 4809   5.742   0.393   3.073  0.3648 -0.6995 -0.3975
   50CHL1   H3' 4810   5.659   0.441   3.068  2.0578  2.4739 -0.7354
   50CHL1    C4 4811   5.647   0.324   3.281  0.0471  0.0831 -0.0944
   50CHL1   H4A 4812   5.558   0.386   3.261 -0.1882 -0.9240 -2.5374
   50CHL1   H4B 4813   5.630   0.225   3.234  0.7448  0.3610 -0.9606
   50CHL1    C5 4814   5.679   0.305   3.428 -0.3441  0.9632  0.9364
   50CHL1    C6 4815   5.682   0.183   3.475  0.5033  0.0383  0.7991
   50CHL1    H6 4816   5.643   0.103   3.410  0.8775  0.7297 -0.3104
   50CHL1    C7 4817   5.710   0.155   3.622  0.0445 -0.1309 -0.5405
   50CHL1   H7A 4818   5.622   0.092   3.647 -1.5354  1.5235 -1.6271
   50CHL1   H7B 4819   5.806   0.102   3.638 -0.8541 -1.3374  1.1708
   50CHL1    C8 4820   5.708   0.287   3.709  0.2387 -0.8744  0.0181
   50CHL1    H8 4821   5.605   0.318   3.734  0.6791  1.2286 -0.5484
   50CHL1   C14 4822   5.779   0.262   3.838  0.1479  0.0031  0.1249
   50CHL1   H14 4823   5.883   0.236   3.808  0.3351 -2.2925  2.3947
   50CHL1   C15 4824   5.742   0.139   3.929  0.2151 -0.1789 -0.2903
   50CHL1  H15A 4825   5.634   0.144   3.956  0.5767  0.3456  1.1798
   50CHL1  H15B 4826   5.770   0.041   3.888 -0.8527  0.5042 -2.8678
   50CHL1   C16 4827   5.814   0.160   4.060  0.0974 -0.3887 -0.2619
   50CHL1  H16A 4828   5.741   0.138   4.141  0.3487  2.2632  0.8064
   50CHL1  H16B 4829   5.907   0.102   4.078  0.9566  0.8546 -0.5497
   50CHL1   C17 4830   5.870   0.307   4.050  0.1386  0.3507  0.3631
   50CHL1   H17 4831   5.974   0.290   4.015 -0.1536  0.0284 -0.3736
   50CHL1   C13 4832   5.794   0.374   3.934  0.1174 -0.6778 -0.3782
   50CHL1   C18 4833   5.649   0.411   3.990  0.2269 -0.3196 -0.0284
   50CHL1  H18A 4834   5.577   0.440   3.911 -0.5740  3.0655  1.7531
   50CHL1  H18B 4835   5.599   0.342   4.062 -1.4240  2.4879  1.6843
   50CHL1  H18C 4836   5.668   0.502   4.050  0.6227  0.1302 -0.8262
   50CHL1   C12 4837   5.858   0.491   3.863 -0.0618 -0.4573 -0.5590
   50CHL1  H12A 4838   5.867   0.594   3.905 -1.6589 -0.0787 -1.0797
   50CHL1  H12B 4839   5.962   0.466   3.833 -0.1272 -1.4179 -0.0231
   50CHL1   C11 4840   5.790   0.531   3.732  0.0708 -0.2454  0.0039
   50CHL1  H11A 4841   5.690   0.569   3.763  0.7117  0.5042  1.2293
   50CHL1  H11B 4842   5.845   0.611   3.677 -0.8237  0.9210  0.7611
   50CHL1    C9 4843   5.779   0.405   3.642  0.0764  0.2673 -0.0265
   50CHL1    H9 4844   5.882   0.367   3.626  0.6047  2.1405 -1.4841
   50CHL1   C10 4845   5.727   0.434   3.502  0.2094 -0.1710 -0.8345
   50CHL1   C19 4846   5.608   0.527   3.500 -0.0866 -0.0498 -0.8810
   50CHL1  H19A 4847   5.537   0.511   3.584  1.1290 -2.4089 -0.1848
   50CHL1  H19B 4848   5.640   0.624   3.544 -1.5221 -0.0111  0.1675
   50CHL1  H19C 4849   5.564   0.542   3.400  1.2625 -1.3212 -1.7072
   50CHL1    C1 4850   5.838   0.503   3.423 -0.7103 -1.1522 -0.0923
   50CHL1   H1A 4851   5.865   0.604   3.461  0.2779 -0.9317 -1.3109
   50CHL1   H1B 4852   5.932   0.444   3.432  1.2936  1.9342  0.7470
   50CHL1    C2 4853   5.819   0.513   3.266  0.1758  0.2673 -0.2380
   50CHL1   H2A 4854   5.914   0.547   3.219 -0.3969  0.1995 -1.4651
   50CHL1   H2B 4855   5.751   0.597   3.242  0.2107  0.5467  0.5956
   50CHL1   C20 4856   5.869   0.375   4.191  0.0078 -0.3610 -0.1165
   50CHL1   H20 4857   5.764   0.391   4.223 -0.2341 -2.7036  0.4769
   50CHL1   C21 4858   5.938   0.520   4.174  0.1021  0.1164 -0.0101
   50CHL1  H21A 4859   6.024   0.510   4.104 -1.3318  0.4352 -1.9240
   50CHL1  H21B 4860   5.978   0.545   4.274 -0.4264  1.0126 -0.0071
   50CHL1  H21C 4861   5.864   0.596   4.139 -0.5640 -0.8654 -0.8018
   50CHL1   C22 4862   5.930   0.295   4.310  0.1425  0.1922  0.5875
   50CHL1  H22A 4863   5.888   0.193   4.320  1.1573 -0.3279 -0.2899
   50CHL1  H22B 4864   6.037   0.273   4.286  0.2751  0.9865  0.4156
   50CHL1   C23 4865   5.915   0.350   4.455  0.3502  0.0250  0.1920
   50CHL1  H23A 4866   5.966   0.277   4.521 -0.5504 -1.3221 -0.5404
   50CHL1  H23B 4867   5.975   0.440   4.479  1.1043 -0.5141  0.3617
   50CHL1   C24 4868   5.778   0.383   4.511 -0.3000 -0.2715  0.3500
   50CHL1  H24A 4869   5.751   0.486   4.481 -1.4560  0.1090  2.4731
   50CHL1  H24B 4870   5.708   0.307   4.470 -1.8525  1.8201 -1.0926
   50CHL1   C25 4871   5.791   0.375   4.668 -0.2439  0.4607  0.0956
   50CHL1   H25 4872   5.897   0.402   4.684  0.0617  0.7342 -2.1250
   50CHL1   C26 4873   5.697   0.468   4.743 -0.0373  0.4438 -0.5833
   50CHL1  H26A 4874   5.712   0.572   4.706  0.4836  0.3139 -0.7411
   50CHL1  H26B 4875   5.596   0.428   4.718 -0.2422  0.4827  0.1674
   50CHL1  H26C 4876   5.715   0.465   4.852 -1.2106 -1.0218 -0.4019
   50CHL1   C27 4877   5.777   0.229   4.712 -0.0408 -0.2144  0.1776
   50CHL1  H27A 4878   5.843   0.164   4.651 -1.4771 -0.1591 -1.5235
   50CHL1  H27B 4879   5.807   0.232   4.819  2.3961  0.1797 -0.4708
   50CHL1  H27C 4880   5.674   0.193   4.692 -0.1126 -0.2000  0.5090
   51CHL1    C3 4881   5.183   0.177   2.764  0.4716  0.2180  0.0380
   51CHL1    H3 4882   5.212   0.073   2.787 -1.0609 -0.0041  1.0688
   51CHL1    O3 4883   5.185   0.197   2.621 -0.6899  0.2377  0.3128
   51CHL1   H3' 4884   5.243   0.272   2.605 -1.3278  0.6365 -0.2316
   51CHL1    C4 4885   5.037   0.199   2.819  0.6587 -0.1744 -0.6307
   51CHL1   H4A 4886   4.985   0.289   2.782 -0.5982 -1.7904 -3.0947
   51CHL1   H4B 4887   4.981   0.110   2.783 -0.2684 -0.3939  1.2705
   51CHL1    C5 4888   5.032   0.187   2.966 -0.2304 -0.0669 -0.5466
   51CHL1    C6 4889   4.951   0.100   3.033 -0.3360 -0.3951  0.3147
   51CHL1    H6 4890   4.868   0.047   2.983 -0.5001 -0.9563  1.1634
   51CHL1    C7 4891   4.943   0.087   3.187  0.3122  0.5454 -0.3461
   51CHL1   H7A 4892   4.837   0.085   3.220  0.5999 -0.0644  0.5571
   51CHL1   H7B 4893   4.989  -0.011   3.210 -0.7270  0.4033  1.2995
   51CHL1    C8 4894   5.012   0.205   3.263 -0.2329 -1.1123 -0.3174
   51CHL1    H8 4895   4.950   0.297   3.254 -0.3552 -1.1380  0.2291
   51CHL1   C14 4896   5.030   0.180   3.411  0.0422  0.5066 -0.1441
   51CHL1   H14 4897   5.081   0.081   3.415 -2.3849 -0.8393 -0.7094
   51CHL1   C15 4898   4.907   0.147   3.488  0.2184  0.0960  0.1280
   51CHL1  H15A 4899   4.825   0.219   3.467 -1.1613 -1.5401 -0.3811
   51CHL1  H15B 4900   4.861   0.050   3.460  0.9018 -0.4834  0.9568
   51CHL1   C16 4901   4.950   0.165   3.632  0.7690 -0.1197 -0.1145
   51CHL1  H16A 4902   4.880   0.237   3.679  3.9805  1.5978  2.4762
   51CHL1  H16B 4903   4.944   0.065   3.681 -1.1809  1.3303  2.9220
   51CHL1   C17 4904   5.091   0.213   3.637 -0.4412 -0.2297 -0.3473
   51CHL1   H17 4905   5.162   0.127   3.640  1.7840  1.4993  1.8955
   51CHL1   C13 4906   5.112   0.281   3.500 -0.1490 -0.7576 -0.3681
   51CHL1   C18 4907   5.041   0.420   3.497 -0.3118  0.0490 -0.8559
   51CHL1  H18A 4908   5.019   0.461   3.396 -0.2681  3.6226  0.4423
   51CHL1  H18B 4909   4.942   0.421   3.546  0.8012 -1.1606  1.6222
   51CHL1  H18C 4910   5.105   0.499   3.541  1.3708 -1.0488 -1.2180
   51CHL1   C12 4911   5.258   0.275   3.431  0.3452  0.1652  0.0874
   51CHL1  H12A 4912   5.335   0.338   3.480  0.0516  1.1149 -0.6504
   51CHL1  H12B 4913   5.298   0.171   3.430  0.2024  0.0394  2.4060
   51CHL1   C11 4914   5.249   0.324   3.283  0.6830  0.2329 -0.0679
   51CHL1  H11A 4915   5.204   0.425   3.290 -0.1376 -0.1296 -0.0797
   51CHL1  H11B 4916   5.346   0.338   3.230  1.0278 -1.2668  0.1210
   51CHL1    C9 4917   5.155   0.229   3.196 -0.0286  0.2982 -0.4628
   51CHL1    H9 4918   5.202   0.129   3.192 -0.8771 -0.0845 -3.0416
   51CHL1   C10 4919   5.145   0.270   3.047  0.2833  0.9040  0.2442
   51CHL1   C19 4920   5.106   0.420   3.040  0.3915  0.0961 -0.9687
   51CHL1  H19A 4921   5.025   0.443   3.113 -1.3110 -0.0522 -2.7108
   51CHL1  H19B 4922   5.195   0.482   3.061 -0.1417 -0.0433  2.2077
   51CHL1  H19C 4923   5.067   0.440   2.938 -0.1668 -1.5926 -1.1082
   51CHL1    C1 4924   5.280   0.240   2.972  0.5348  0.2262 -0.2026
   51CHL1   H1A 4925   5.360   0.295   3.026 -0.1390  0.5072  0.5414
   51CHL1   H1B 4926   5.302   0.134   2.994  0.0073  0.6610  2.9176
   51CHL1    C2 4927   5.280   0.273   2.833  0.0397  0.2990 -0.3327
   51CHL1   H2A 4928   5.376   0.248   2.782 -0.4312 -2.1655 -0.1192
   51CHL1   H2B 4929   5.250   0.379   2.817 -1.4162  0.2482  1.6823
   51CHL1   C20 4930   5.125   0.293   3.765 -0.9057 -0.2525  0.3352
   51CHL1   H20 4931   5.060   0.383   3.761 -1.9462 -0.9376  1.2926
   51CHL1   C21 4932   5.271   0.326   3.763 -0.0187 -0.2024 -0.2913
   51CHL1  H21A 4933   5.337   0.237   3.758 -0.5752 -0.6642  0.3617
   51CHL1  H21B 4934   5.304   0.380   3.854  1.6799  2.9050 -2.5964
   51CHL1  H21C 4935   5.289   0.391   3.675  0.0311 -0.4682 -0.4792
   51CHL1   C22 4936   5.080   0.220   3.902  0.1292 -0.0271 -0.2879
   51CHL1  H22A 4937   4.969   0.212   3.896  0.2137 -1.0104 -0.8243
   51CHL1  H22B 4938   5.129   0.120   3.914 -1.2588 -0.7779 -0.6455
   51CHL1   C23 4939   5.111   0.293   4.039 -0.2587  0.6340 -0.1542
   51CHL1  H23A 4940   5.222   0.292   4.050 -0.3967 -1.0420  1.6248
   51CHL1  H23B 4941   5.088   0.401   4.025 -1.0676  0.4515 -0.2338
   51CHL1   C24 4942   5.056   0.224   4.165 -0.5354  0.8711  0.6707
   51CHL1  H24A 4943   4.945   0.226   4.170 -0.7943 -0.6233 -2.3852
   51CHL1  H24B 4944   5.090   0.119   4.174 -2.1420  0.4328  2.2392
   51CHL1   C25 4945   5.108   0.281   4.298  0.7861  0.2180  0.5856
   51CHL1   H25 4946   5.217   0.302   4.297  0.9491 -0.2653 -2.4897
   51CHL1   C26 4947   5.035   0.411   4.330  0.0698 -0.5997  0.4284
   51CHL1  H26A 4948   5.041   0.438   4.437 -0.9684  0.5645  0.2190
   51CHL1  H26B 4949   5.074   0.488   4.260  1.7161 -0.7847  1.0888
   51CHL1  H26C 4950   4.926   0.403   4.306  0.2698 -2.3063 -0.0591
   51CHL1   C27 4951   5.083   0.183   4.417 -0.2676 -0.1812  0.1107
   51CHL1  H27A 4952   5.112   0.220   4.517 -2.6134  0.2729  0.6927
   51CHL1  H27B 4953   4.977   0.148   4.426 -0.2913  0.0645  0.8557
   51CHL1  H27C 4954   5.127   0.085   4.387 -0.2999  0.8705 -3.9024
   52CHL1    C3 4955   2.475   1.532   3.034  0.2891 -0.1029 -0.2370
   52CHL1    H3 4956   2.508   1.628   3.080  1.8300 -0.8516  0.3106
   52CHL1    O3 4957   2.490   1.519   2.894 -0.1597  0.5624  1.2026
   52CHL1   H3' 4958   2.585   1.510   2.884 -0.4987 -2.5006 -0.4211
   52CHL1    C4 4959   2.554   1.425   3.107 -0.7331  0.2800 -0.2592
   52CHL1   H4A 4960   2.538   1.321   3.072 -1.5461  0.2047  0.2954
   52CHL1   H4B 4961   2.663   1.446   3.095 -0.3761 -0.9747  0.5690
   52CHL1    C5 4962   2.524   1.420   3.253  0.4923 -0.0978  0.7494
   52CHL1    C6 4963   2.620   1.434   3.344  0.6887 -0.0816  0.5558
   52CHL1    H6 4964   2.724   1.450   3.311  1.1919 -0.2706  1.9749
   52CHL1    C7 4965   2.599   1.435   3.492  0.1377  0.3135 -0.7712
   52CHL1   H7A 4966   2.687   1.387   3.540  2.9559  3.7111 -2.0688
   52CHL1   H7B 4967   2.611   1.540   3.528  0.3552  0.0937 -0.1875
   52CHL1    C8 4968   2.459   1.368   3.525 -0.1408 -0.1393 -0.5569
   52CHL1    H8 4969   2.459   1.263   3.487 -2.8632  0.1718 -1.6339
   52CHL1   C14 4970   2.442   1.376   3.672 -0.7947  0.2349 -0.0905
   52CHL1   H14 4971   2.445   1.483   3.703 -1.6321  0.1734  0.2276
   52CHL1   C15 4972   2.542   1.307   3.773 -0.1580  0.5204 -0.1853
   52CHL1  H15A 4973   2.562   1.202   3.742 -1.6713  0.6840 -1.7922
   52CHL1  H15B 4974   2.639   1.358   3.790 -0.0724 -0.5912  3.6713
   52CHL1   C16 4975   2.466   1.310   3.906 -0.7599  0.0475 -0.0364
   52CHL1  H16A 4976   2.494   1.223   3.969  2.7229  0.1078 -1.2711
   52CHL1  H16B 4977   2.495   1.397   3.968 -1.5842  0.4418 -0.2032
   52CHL1   C17 4978   2.317   1.325   3.876 -0.0308  0.0939  0.3769
   52CHL1   H17 4979   2.292   1.429   3.908  0.9860  0.6431 -0.5652
   52CHL1   C13 4980   2.306   1.326   3.723 -0.0876  0.5432 -0.3231
   52CHL1   C18 4981   2.291   1.175   3.685  0.1060 -0.1440 -0.3123
   52CHL1  H18A 4982   2.335   1.109   3.763  0.3233 -0.0176 -0.3264
   52CHL1  H18B 4983   2.181   1.162   3.695  0.1660 -0.1531  0.3822
   52CHL1  H18C 4984   2.323   1.148   3.582  2.0850 -0.4959  0.3475
   52CHL1   C12 4985   2.190   1.403   3.646 -0.5362  0.4991 -0.6030
   52CHL1  H12A 4986   2.094   1.357   3.677 -0.3592  0.3884 -0.2248
   52CHL1  H12B 4987   2.196   1.510   3.675  1.0235  0.0872  0.7708
   52CHL1   C11 4988   2.208   1.400   3.493  0.0104 -0.0687 -0.2904
   52CHL1  H11A 4989   2.173   1.299   3.463 -1.1091  0.3729 -0.5460
   52CHL1  H11B 4990   2.140   1.479   3.453  0.4928 -0.1961 -1.4078
   52CHL1    C9 4991   2.347   1.443   3.450  0.4637 -0.4359  0.4502
   52CHL1    H9 4992   2.361   1.550   3.477 -2.7067  0.8535 -2.3761
   52CHL1   C10 4993   2.372   1.419   3.296  0.1876  0.5620  0.0582
   52CHL1   C19 4994   2.318   1.276   3.253  0.2076  0.3135 -0.0089
   52CHL1  H19A 4995   2.366   1.193   3.308  0.5789  1.6514  1.7897
   52CHL1  H19B 4996   2.208   1.268   3.265 -0.0724  1.1254 -1.7166
   52CHL1  H19C 4997   2.327   1.264   3.143  1.7678 -1.5785  0.2769
   52CHL1    C1 4998   2.300   1.524   3.213 -0.5499 -0.0775 -0.7539
   52CHL1   H1A 4999   2.190   1.518   3.218 -0.8248  3.7152  0.7893
   52CHL1   H1B 5000   2.317   1.626   3.254 -0.5859  0.6858 -2.5417
   52CHL1    C2 5001   2.329   1.510   3.061 -0.4676 -0.7124  1.1021
   52CHL1   H2A 5002   2.262   1.578   3.005  0.3084  1.0460  2.2212
   52CHL1   H2B 5003   2.293   1.415   3.017 -4.5553  1.4161 -0.6534
   52CHL1   C20 5004   2.220   1.246   3.965 -0.4922  0.4238 -0.3646
   52CHL1   H20 5005   2.222   1.138   3.941 -0.1331 -0.1495  1.9796
   52CHL1   C21 5006   2.084   1.307   3.946  0.9512 -0.4603 -0.3888
   52CHL1  H21A 5007   2.016   1.309   4.034  1.9641  1.0376  0.3824
   52CHL1  H21B 5008   2.035   1.234   3.877  2.8654 -1.8262 -0.3792
   52CHL1  H21C 5009   2.075   1.413   3.913  0.4699 -0.0239  1.0853
   52CHL1   C22 5010   2.263   1.231   4.117  0.4691 -0.2735 -0.6987
   52CHL1  H22A 5011   2.352   1.164   4.116  1.8027  1.2322  2.2247
   52CHL1  H22B 5012   2.311   1.324   4.155  1.5236 -1.6171  1.4259
   52CHL1   C23 5013   2.157   1.177   4.220 -0.7428  0.3560  0.1072
   52CHL1  H23A 5014   2.074   1.249   4.230 -1.7190 -0.9476  1.8524
   52CHL1  H23B 5015   2.103   1.083   4.193 -0.9882  1.1390 -2.3827
   52CHL1   C24 5016   2.237   1.163   4.356  0.3346 -0.3300 -0.5393
   52CHL1  H24A 5017   2.277   1.263   4.381 -0.0166 -0.7016  1.6922
   52CHL1  H24B 5018   2.158   1.143   4.431 -1.7488 -0.1454 -2.5915
   52CHL1   C25 5019   2.333   1.047   4.361  0.1476 -0.9215  0.5957
   52CHL1   H25 5020   2.413   1.085   4.294 -0.5400  1.5517  1.0748
   52CHL1   C26 5021   2.404   1.042   4.498  0.3039 -0.3674  0.0806
   52CHL1  H26A 5022   2.493   0.982   4.469  0.2995 -0.2462 -0.1937
   52CHL1  H26B 5023   2.437   1.143   4.529 -1.6983  0.0316  1.1189
   52CHL1  H26C 5024   2.343   0.998   4.580  2.2544 -0.3524  1.6093
   52CHL1   C27 5025   2.285   0.910   4.325  0.4174  0.3071 -0.4097
   52CHL1  H27A 5026   2.230   0.908   4.229 -0.7438  0.2943  0.2434
   52CHL1  H27B 5027   2.377   0.848   4.311  0.0515 -0.0222 -1.4226
   52CHL1  H27C 5028   2.209   0.866   4.393  0.8312 -1.2381 -0.8946
   53CHL1    C3 5029   2.003   1.205   2.995 -0.2609 -0.4062  0.1929
   53CHL1    H3 5030   2.091   1.261   3.033 -0.3324 -0.9012  1.1003
   53CHL1    O3 5031   1.989   1.238   2.862 -0.6230 -0.3432  0.8887
   53CHL1   H3' 5032   1.895   1.235   2.845 -0.1188  0.5239 -3.0300
   53CHL1    C4 5033   2.031   1.048   3.003 -0.1918 -0.4510 -0.1346
   53CHL1   H4A 5034   1.936   1.003   2.967 -0.8100  1.4142 -0.9323
   53CHL1   H4B 5035   2.107   1.012   2.930 -0.1503 -0.4266 -0.1038
   53CHL1    C5 5036   2.058   1.003   3.146 -0.0815 -0.6880 -0.7867
   53CHL1    C6 5037   2.170   0.936   3.177 -0.2475  0.3746  0.1051
   53CHL1    H6 5038   2.248   0.909   3.104  0.2844  1.0725  0.3991
   53CHL1    C7 5039   2.182   0.863   3.302 -0.4152  0.0475  0.0116
   53CHL1   H7A 5040   2.188   0.756   3.272  0.2533  0.0309  0.1912
   53CHL1   H7B 5041   2.275   0.904   3.348 -0.0699 -0.0891 -0.5465
   53CHL1    C8 5042   2.052   0.879   3.389  0.3354 -0.0657  0.6628
   53CHL1    H8 5043   1.970   0.815   3.347 -0.7587  1.3848  0.5046
   53CHL1   C14 5044   2.096   0.845   3.533  0.0151  0.2144  0.6773
   53CHL1   H14 5045   2.168   0.926   3.557  0.1193  1.9925 -4.5495
   53CHL1   C15 5046   2.180   0.721   3.569 -0.4723  0.1124 -0.2615
   53CHL1  H15A 5047   2.153   0.633   3.505 -1.1513  0.8345 -0.9842
   53CHL1  H15B 5048   2.287   0.747   3.553  1.2154 -3.1778  3.8114
   53CHL1   C16 5049   2.155   0.694   3.721  0.4405  0.3141 -0.1448
   53CHL1  H16A 5050   2.107   0.594   3.725 -2.0660  1.4753  1.2490
   53CHL1  H16B 5051   2.246   0.691   3.785 -0.0709  0.3731  0.6025
   53CHL1   C17 5052   2.057   0.803   3.770 -0.3587  0.1428 -0.5056
   53CHL1   H17 5053   2.134   0.882   3.783 -0.7186  0.2458  1.2278
   53CHL1   C13 5054   1.986   0.854   3.642 -0.3647 -0.7733  0.6781
   53CHL1   C18 5055   1.868   0.748   3.613 -0.2553 -0.3532  0.8220
   53CHL1  H18A 5056   1.910   0.653   3.651  0.4577 -1.5366 -2.6394
   53CHL1  H18B 5057   1.786   0.778   3.683 -0.1670 -0.1830  0.8526
   53CHL1  H18C 5058   1.837   0.745   3.506 -1.4097 -1.1631  1.1514
   53CHL1   C12 5059   1.932   0.997   3.642 -0.9772  0.2655 -0.0181
   53CHL1  H12A 5060   1.844   0.999   3.709  0.0019 -2.1222  1.4834
   53CHL1  H12B 5061   2.018   1.061   3.670  0.7864 -1.9352 -0.1160
   53CHL1   C11 5062   1.885   1.036   3.502  0.1179  0.3048 -0.4170
   53CHL1  H11A 5063   1.791   0.982   3.477  0.6556 -1.8293  1.8037
   53CHL1  H11B 5064   1.867   1.145   3.488  2.7857  0.6061 -2.3887
   53CHL1    C9 5065   1.987   1.015   3.389 -0.5608  0.4098 -0.0790
   53CHL1    H9 5066   2.072   1.085   3.404  0.0772 -0.1113 -1.1207
   53CHL1   C10 5067   1.943   1.048   3.247  0.2200 -0.1801  0.0823
   53CHL1   C19 5068   1.805   0.980   3.216 -0.1440  0.4108 -0.0024
   53CHL1  H19A 5069   1.798   0.874   3.248 -0.5486  0.2339 -0.6770
   53CHL1  H19B 5070   1.735   1.048   3.268 -0.6834 -0.1435 -0.0005
   53CHL1  H19C 5071   1.782   0.995   3.109  1.2741  0.3025 -0.3520
   53CHL1    C1 5072   1.914   1.206   3.234 -0.7899  0.3788  0.0485
   53CHL1   H1A 5073   1.836   1.245   3.302  0.1891 -0.3434  1.6319
   53CHL1   H1B 5074   2.008   1.256   3.267 -0.7237 -0.9467  2.0125
   53CHL1    C2 5075   1.886   1.248   3.086  0.4452  0.4304  0.2818
   53CHL1   H2A 5076   1.867   1.358   3.086 -0.8971  0.2767 -2.2531
   53CHL1   H2B 5077   1.793   1.203   3.046 -0.4866  2.5679 -0.1108
   53CHL1   C20 5078   1.991   0.776   3.905 -0.2516  0.2978  0.2737
   53CHL1   H20 5079   1.888   0.737   3.887 -0.1913 -0.2884  1.1515
   53CHL1   C21 5080   1.985   0.907   3.980  0.2446 -0.5030  0.0447
   53CHL1  H21A 5081   1.895   0.908   4.045  0.2222 -2.9380  0.1460
   53CHL1  H21B 5082   1.972   0.990   3.908  0.5874 -1.4447 -1.1407
   53CHL1  H21C 5083   2.075   0.920   4.045 -0.5687 -0.9379  1.3056
   53CHL1   C22 5084   2.073   0.678   3.988 -0.2320  0.1220  0.6342
   53CHL1  H22A 5085   2.064   0.577   3.942 -1.1676  0.9799 -1.1224
   53CHL1  H22B 5086   2.182   0.701   3.992 -0.6038  2.3835 -0.7154
   53CHL1   C23 5087   2.024   0.648   4.134 -0.1480  0.3992 -0.2036
   53CHL1  H23A 5088   2.052   0.730   4.205  4.1634 -1.8521  1.1074
   53CHL1  H23B 5089   1.918   0.617   4.142 -0.0934  0.0857 -0.6841
   53CHL1   C24 5090   2.113   0.531   4.190  0.1026 -0.3376 -0.3644
   53CHL1  H24A 5091   2.093   0.443   4.124 -0.0227 -0.4868 -0.1328
   53CHL1  H24B 5092   2.222   0.550   4.182  0.3500 -1.9628 -1.2476
   53CHL1   C25 5093   2.088   0.498   4.338 -0.6153 -0.9789 -0.1983
   53CHL1   H25 5094   2.139   0.401   4.354 -0.4853 -0.9762 -0.6069
   53CHL1   C26 5095   2.149   0.607   4.428  0.0449  0.0660 -0.4019
   53CHL1  H26A 5096   2.084   0.697   4.429 -0.7401 -0.4262  2.7503
   53CHL1  H26B 5097   2.146   0.570   4.533 -1.1853  1.0883 -0.0532
   53CHL1  H26C 5098   2.253   0.636   4.402  0.0564  1.5578  1.1066
   53CHL1   C27 5099   1.943   0.479   4.385  0.0354 -0.3832  0.2926
   53CHL1  H27A 5100   1.897   0.389   4.338 -2.7987  1.0247  0.1674
   53CHL1  H27B 5101   1.959   0.457   4.493  0.8346  0.4944  0.3581
   53CHL1  H27C 5102   1.878   0.567   4.370 -1.3118 -1.5454 -1.0260
   54CHL1    C3 5103   3.135   2.355   2.849 -0.6226 -0.3101 -0.0825
   54CHL1    H3 5104   3.194   2.261   2.862 -0.1431 -0.2831 -1.8062
   54CHL1    O3 5105   3.109   2.362   2.712  0.9690  0.5115 -0.3066
   54CHL1   H3' 5106   3.091   2.453   2.687  0.6355  0.5696  0.1143
   54CHL1    C4 5107   2.996   2.346   2.928 -0.5952 -0.6214  0.5952
   54CHL1   H4A 5108   2.936   2.434   2.898 -0.3064 -1.2757 -2.1400
   54CHL1   H4B 5109   2.939   2.257   2.893 -0.8398 -0.2125 -0.0498
   54CHL1    C5 5110   3.015   2.348   3.076 -0.0434  0.5997  0.4234
   54CHL1    C6 5111   2.972   2.244   3.151  0.3930  0.4381 -0.5837
   54CHL1    H6 5112   2.924   2.157   3.106 -0.7198  1.9699 -2.5474
   54CHL1    C7 5113   2.990   2.243   3.301  0.1676 -0.5478  0.6932
   54CHL1   H7A 5114   2.897   2.214   3.354 -0.0461 -0.1148  0.5588
   54CHL1   H7B 5115   3.049   2.155   3.336 -1.0586 -2.0657 -0.9183
   54CHL1    C8 5116   3.043   2.376   3.363  0.2693  0.4583 -0.3888
   54CHL1    H8 5117   2.957   2.447   3.362 -0.2000 -0.0977 -1.9875
   54CHL1   C14 5118   3.091   2.342   3.505 -0.4777 -0.5882 -0.0964
   54CHL1   H14 5119   3.170   2.267   3.480 -0.6486 -1.3101  1.4021
   54CHL1   C15 5120   2.996   2.275   3.611  0.1571 -0.3957  0.1633
   54CHL1  H15A 5121   2.899   2.329   3.619  0.3021 -0.0051 -0.5942
   54CHL1  H15B 5122   2.967   2.171   3.584 -1.1812  0.7163 -3.2754
   54CHL1   C16 5123   3.075   2.290   3.741 -0.4207  0.0569  0.3548
   54CHL1  H16A 5124   3.003   2.349   3.802 -2.2833 -1.7788  0.0346
   54CHL1  H16B 5125   3.096   2.199   3.801  1.0126  0.6716  0.8443
   54CHL1   C17 5126   3.204   2.387   3.711  0.4514 -0.6641  0.2587
   54CHL1   H17 5127   3.297   2.329   3.694  1.2393  0.3644  0.9281
   54CHL1   C13 5128   3.161   2.457   3.579  0.1715  0.4729 -0.2150
   54CHL1   C18 5129   3.059   2.576   3.613  0.2435  0.2994 -0.2608
   54CHL1  H18A 5130   3.115   2.671   3.630  0.4954 -0.1464  1.6391
   54CHL1  H18B 5131   2.987   2.595   3.531 -2.4290 -0.2587  1.8230
   54CHL1  H18C 5132   2.987   2.542   3.690 -1.3666  3.1861 -0.3438
   54CHL1   C12 5133   3.270   2.514   3.481  0.4375 -0.1883  0.1927
   54CHL1  H12A 5134   3.338   2.592   3.521  1.4785  0.1290 -2.0636
   54CHL1  H12B 5135   3.346   2.438   3.450  0.8601  0.7137 -1.0392
   54CHL1   C11 5136   3.211   2.562   3.350 -0.1603 -0.5061  0.0460
   54CHL1  H11A 5137   3.128   2.634   3.367 -0.4296 -0.9935  0.8506
   54CHL1  H11B 5138   3.297   2.606   3.296  0.7590 -2.8434 -0.5291
   54CHL1    C9 5139   3.152   2.438   3.276 -0.8175  0.9851 -0.1366
   54CHL1    H9 5140   3.238   2.369   3.262 -2.0807 -0.1082 -3.6291
   54CHL1   C10 5141   3.104   2.464   3.128  0.0233  0.1855 -0.5390
   54CHL1   C19 5142   3.028   2.592   3.124 -0.1486 -0.4581  0.4597
   54CHL1  H19A 5143   3.093   2.675   3.158 -0.2676 -0.3846  0.5117
   54CHL1  H19B 5144   3.002   2.620   3.020 -0.2544  0.1302  0.6387
   54CHL1  H19C 5145   2.940   2.597   3.193 -0.8955 -0.9274 -0.4349
   54CHL1    C1 5146   3.229   2.474   3.042 -0.8026 -0.1332  0.1640
   54CHL1   H1A 5147   3.291   2.559   3.079 -2.8207  1.2002  0.6081
   54CHL1   H1B 5148   3.296   2.386   3.060  1.9933  1.2163 -2.5821
   54CHL1    C2 5149   3.214   2.481   2.891 -0.0952  0.5690  0.3474
   54CHL1   H2A 5150   3.305   2.493   2.829 -0.8665  2.4328 -0.4906
   54CHL1   H2B 5151   3.157   2.575   2.872 -0.7291  0.5212  1.8739
   54CHL1   C20 5152   3.228   2.485   3.827  0.0041 -0.2211 -0.9458
   54CHL1   H20 5153   3.142   2.556   3.836  0.3174  0.1349 -0.7298
   54CHL1   C21 5154   3.352   2.570   3.806  0.3855  0.3048  0.1455
   54CHL1  H21A 5155   3.379   2.622   3.900  1.2608  0.1673 -0.0151
   54CHL1  H21B 5156   3.326   2.642   3.726  0.4859 -0.7718 -0.8875
   54CHL1  H21C 5157   3.432   2.499   3.774  1.6147  1.5361  0.3935
   54CHL1   C22 5158   3.258   2.404   3.955 -0.5753 -0.3961  0.1157
   54CHL1  H22A 5159   3.195   2.313   3.944 -0.6158 -0.2763 -0.6809
   54CHL1  H22B 5160   3.366   2.381   3.963 -0.3075  1.1398  1.2879
   54CHL1   C23 5161   3.218   2.489   4.073 -0.2311 -0.5260  0.6666
   54CHL1  H23A 5162   3.300   2.565   4.076 -0.5219  0.0768 -2.4662
   54CHL1  H23B 5163   3.123   2.542   4.050  0.1683 -0.8275 -2.1508
   54CHL1   C24 5164   3.212   2.413   4.199  0.0354 -0.7450  0.3794
   54CHL1  H24A 5165   3.150   2.322   4.187  0.2568 -0.6861 -1.5439
   54CHL1  H24B 5166   3.315   2.378   4.218 -0.0772 -2.4430 -1.7957
   54CHL1   C25 5167   3.175   2.495   4.319 -1.0558 -0.2643  0.2771
   54CHL1   H25 5168   3.236   2.586   4.336 -0.1209 -0.7590 -0.3841
   54CHL1   C26 5169   3.037   2.558   4.304  0.3655  0.5662 -0.4769
   54CHL1  H26A 5170   3.005   2.590   4.405 -1.3159  0.1270 -0.8261
   54CHL1  H26B 5171   3.052   2.642   4.232  1.8622  0.0232 -0.8253
   54CHL1  H26C 5172   2.957   2.482   4.289  0.1908  0.5212  0.5963
   54CHL1   C27 5173   3.180   2.405   4.442  0.9805  0.0453 -0.0202
   54CHL1  H27A 5174   3.121   2.313   4.423 -0.3426  1.4331 -3.3388
   54CHL1  H27B 5175   3.286   2.375   4.460  1.1908  0.2569 -0.8769
   54CHL1  H27C 5176   3.138   2.453   4.533 -0.3080 -3.6497  1.5368
   55CHL1    C3 5177   2.923   3.599   2.639  0.7146 -0.4885  0.3794
   55CHL1    H3 5178   2.877   3.699   2.654  0.7978 -0.1801 -1.1991
   55CHL1    O3 5179   2.909   3.571   2.499 -0.1632  0.3073 -0.1786
   55CHL1   H3' 5180   2.937   3.480   2.492 -2.1196 -0.4328  0.8323
   55CHL1    C4 5181   3.065   3.601   2.683  0.3748  0.1587  0.2621
   55CHL1   H4A 5182   3.119   3.514   2.641 -1.0398 -1.1037  0.9439
   55CHL1   H4B 5183   3.113   3.684   2.628  3.3362 -0.6544  1.4122
   55CHL1    C5 5184   3.092   3.613   2.839 -0.4261  0.3735  0.6021
   55CHL1    C6 5185   3.190   3.691   2.886  0.5395  0.5964  0.5936
   55CHL1    H6 5186   3.251   3.746   2.813 -0.0977 -1.4076 -1.5660
   55CHL1    C7 5187   3.215   3.710   3.031 -0.6226  0.5774  0.1894
   55CHL1   H7A 5188   3.318   3.727   3.070 -0.4051  0.4980 -0.3417
   55CHL1   H7B 5189   3.173   3.809   3.060 -0.0536  1.0847 -0.6816
   55CHL1    C8 5190   3.152   3.595   3.120 -0.1595 -0.8558 -0.1853
   55CHL1    H8 5191   3.223   3.511   3.106  1.2191  0.0305  1.1051
   55CHL1   C14 5192   3.171   3.629   3.265  0.1688  0.3295 -0.6326
   55CHL1   H14 5193   3.108   3.718   3.286 -1.2549 -0.8179  0.1405
   55CHL1   C15 5194   3.307   3.673   3.318 -0.8386  0.3189 -0.1840
   55CHL1  H15A 5195   3.382   3.601   3.278  1.5096  2.6410 -0.1818
   55CHL1  H15B 5196   3.345   3.773   3.291 -1.2143 -0.2840 -3.3023
   55CHL1   C16 5197   3.290   3.660   3.468  0.0161 -0.2355  0.1156
   55CHL1  H16A 5198   3.380   3.608   3.507 -1.4064 -0.4250  3.5216
   55CHL1  H16B 5199   3.273   3.756   3.520  1.6228  0.7169 -1.0227
   55CHL1   C17 5200   3.157   3.575   3.498 -0.3079  0.8330  0.1323
   55CHL1   H17 5201   3.072   3.643   3.519 -1.8506 -0.5801 -1.1846
   55CHL1   C13 5202   3.115   3.517   3.357 -0.3267 -0.1054  0.3008
   55CHL1   C18 5203   3.206   3.389   3.329 -0.5583  0.0409 -0.3104
   55CHL1  H18A 5204   3.218   3.363   3.221  1.0736 -0.2002 -0.1021
   55CHL1  H18B 5205   3.310   3.395   3.367 -0.3105  1.0568 -1.0859
   55CHL1  H18C 5206   3.163   3.298   3.375 -0.1910 -0.0853 -0.2118
   55CHL1   C12 5207   2.973   3.481   3.321 -0.2788  0.0835  0.3429
   55CHL1  H12A 5208   2.937   3.388   3.369  0.5087  0.1316  1.0764
   55CHL1  H12B 5209   2.919   3.568   3.364  1.6127  0.5185  2.0051
   55CHL1   C11 5210   2.949   3.459   3.174 -0.7078  0.0162 -0.2838
   55CHL1  H11A 5211   2.990   3.358   3.152 -1.9817 -0.5303 -0.2221
   55CHL1  H11B 5212   2.839   3.454   3.159 -0.4614 -4.3980 -2.0898
   55CHL1    C9 5213   3.011   3.560   3.078  0.2591 -0.6899  0.3795
   55CHL1    H9 5214   2.964   3.658   3.101  0.5685 -0.9517  2.2295
   55CHL1   C10 5215   2.997   3.528   2.924 -0.6210  0.8597 -0.3159
   55CHL1   C19 5216   3.049   3.383   2.906 -0.0827 -0.7775 -0.9945
   55CHL1  H19A 5217   2.968   3.316   2.943 -1.5911  0.7268 -1.4663
   55CHL1  H19B 5218   3.082   3.357   2.803 -0.0763  0.3983 -1.2978
   55CHL1  H19C 5219   3.136   3.367   2.973  0.7787  2.4273 -1.1838
   55CHL1    C1 5220   2.847   3.529   2.873 -0.1018 -0.1088 -0.4194
   55CHL1   H1A 5221   2.789   3.451   2.927  1.6502 -0.7345  0.6484
   55CHL1   H1B 5222   2.807   3.631   2.896 -1.7106 -0.7485 -0.2468
   55CHL1    C2 5223   2.837   3.500   2.726 -0.0937  0.3094 -0.0698
   55CHL1   H2A 5224   2.734   3.492   2.685 -0.7245  1.1405  1.2910
   55CHL1   H2B 5225   2.888   3.404   2.706  0.0807  0.5176 -0.6735
   55CHL1   C20 5226   3.162   3.485   3.622 -1.1333 -0.0062 -0.2306
   55CHL1   H20 5227   3.246   3.416   3.602  1.5552  3.1753 -0.6826
   55CHL1   C21 5228   3.028   3.404   3.640 -0.7746 -0.5556  0.2161
   55CHL1  H21A 5229   2.937   3.459   3.608 -0.0607 -0.2988 -1.4557
   55CHL1  H21B 5230   3.022   3.365   3.744  0.0288  1.4811  1.0813
   55CHL1  H21C 5231   3.030   3.323   3.564 -0.2165  0.7488 -1.2146
   55CHL1   C22 5232   3.199   3.567   3.749 -0.4123  0.5830 -0.1038
   55CHL1  H22A 5233   3.197   3.493   3.832  0.5960  0.7530  0.0838
   55CHL1  H22B 5234   3.306   3.594   3.735  0.6937 -2.7152  0.8183
   55CHL1   C23 5235   3.117   3.689   3.781 -0.0905  0.5586 -0.0324
   55CHL1  H23A 5236   3.158   3.777   3.726 -0.4041  2.1218  2.1026
   55CHL1  H23B 5237   3.012   3.665   3.753 -0.5423  2.7629 -0.4218
   55CHL1   C24 5238   3.134   3.722   3.928  0.0015 -0.1184 -0.1926
   55CHL1  H24A 5239   3.125   3.639   4.001  0.4496  1.3929  1.6506
   55CHL1  H24B 5240   3.241   3.752   3.940 -0.7477  2.0332  1.6847
   55CHL1   C25 5241   3.050   3.841   3.979 -0.5357  0.7880  0.2061
   55CHL1   H25 5242   3.092   3.931   3.931  1.0908  0.3964  0.8313
   55CHL1   C26 5243   2.904   3.826   3.956  0.2394  0.1772 -0.1820
   55CHL1  H26A 5244   2.840   3.900   4.009 -2.0345  1.2533 -3.9616
   55CHL1  H26B 5245   2.876   3.827   3.848 -1.4119 -0.4553  0.2178
   55CHL1  H26C 5246   2.879   3.729   4.003  1.1932  0.2090  0.4162
   55CHL1   C27 5247   3.071   3.848   4.134  0.5872 -0.4545  0.0368
   55CHL1  H27A 5248   3.005   3.928   4.174 -0.1539 -1.3654  0.6900
   55CHL1  H27B 5249   3.049   3.756   4.192 -0.4321  0.2328  0.7825
   55CHL1  H27C 5250   3.176   3.872   4.160  0.1893  0.7252  0.6016
   56CHL1    C3 5251   5.778   1.204   2.808 -0.5990 -0.7372  0.8807
   56CHL1    H3 5252   5.886   1.191   2.832  0.1493  0.2955 -1.5221
   56CHL1    O3 5253   5.773   1.234   2.667 -0.2569  0.6419  0.2572
   56CHL1   H3' 5254   5.677   1.242   2.659 -0.5783 -1.0886  1.6589
   56CHL1    C4 5255   5.707   1.078   2.843 -0.5342 -0.0972  0.4548
   56CHL1   H4A 5256   5.602   1.082   2.806 -0.6997  1.5695  1.0067
   56CHL1   H4B 5257   5.752   0.996   2.783 -1.8191 -1.0903  0.8012
   56CHL1    C5 5258   5.707   1.047   2.988  0.6619  0.3802 -0.1341
   56CHL1    C6 5259   5.751   0.942   3.045  0.0049 -0.1936  0.3500
   56CHL1    H6 5260   5.793   0.861   2.984 -1.1460 -0.3535 -0.2458
   56CHL1    C7 5261   5.757   0.921   3.197  0.1722 -0.2360  0.6937
   56CHL1   H7A 5262   5.711   0.823   3.222  0.7798 -0.7790 -0.2267
   56CHL1   H7B 5263   5.863   0.917   3.230  0.2614  2.5066  0.9773
   56CHL1    C8 5264   5.685   1.023   3.285 -0.2474  0.2369  0.4111
   56CHL1    H8 5265   5.577   0.994   3.280 -0.2539  0.2912  0.2367
   56CHL1   C14 5266   5.733   1.013   3.428  0.3084  0.2015 -0.1251
   56CHL1   H14 5267   5.841   1.036   3.424  0.3417  0.7597  2.1918
   56CHL1   C15 5268   5.742   0.876   3.494 -0.4801 -0.4939  0.1826
   56CHL1  H15A 5269   5.654   0.816   3.462 -0.5386 -1.4295  2.0002
   56CHL1  H15B 5270   5.837   0.821   3.478  0.9003  1.2803  1.7651
   56CHL1   C16 5271   5.737   0.911   3.643  0.2516  0.9506  0.6142
   56CHL1  H16A 5272   5.648   0.860   3.687  0.9941  0.6818  1.8677
   56CHL1  H16B 5273   5.820   0.863   3.698 -0.5196 -1.3382 -0.1091
   56CHL1   C17 5274   5.734   1.064   3.655 -0.1723 -0.2956 -0.1773
   56CHL1   H17 5275   5.842   1.091   3.660  0.1665 -1.3910 -1.1544
   56CHL1   C13 5276   5.666   1.112   3.521 -0.3808  0.3280 -0.4142
   56CHL1   C18 5277   5.508   1.088   3.520  0.5076 -0.6575  0.2032
   56CHL1  H18A 5278   5.462   1.095   3.419 -0.2354  0.5338  0.5951
   56CHL1  H18B 5279   5.492   0.982   3.548 -1.9377 -0.0599  1.4034
   56CHL1  H18C 5280   5.470   1.160   3.597  1.5174  0.1613 -0.0389
   56CHL1   C12 5281   5.686   1.255   3.472  0.2471 -0.8840  0.4091
   56CHL1  H12A 5282   5.630   1.329   3.532 -0.4589 -1.7964  0.9045
   56CHL1  H12B 5283   5.793   1.277   3.493 -0.2155 -1.0871  3.5058
   56CHL1   C11 5284   5.648   1.270   3.326  1.2254 -0.3502  0.3083
   56CHL1  H11A 5285   5.537   1.276   3.318  1.2220 -1.1543 -0.4373
   56CHL1  H11B 5286   5.690   1.367   3.293 -0.1563  1.0624  2.5102
   56CHL1    C9 5287   5.702   1.162   3.226  0.5363  0.0001 -0.4164
   56CHL1    H9 5288   5.812   1.179   3.225  0.6835 -0.8791 -0.1377
   56CHL1   C10 5289   5.661   1.171   3.079 -0.0337  0.1099 -0.0292
   56CHL1   C19 5290   5.507   1.173   3.062  0.3779 -0.2281 -0.6048
   56CHL1  H19A 5291   5.469   1.197   2.960 -0.9871  0.5377  0.0610
   56CHL1  H19B 5292   5.447   1.083   3.086 -0.1594 -0.1986 -1.7788
   56CHL1  H19C 5293   5.465   1.244   3.136  2.6919 -1.8064  2.4653
   56CHL1    C1 5294   5.718   1.310   3.028  0.0759 -0.1205 -0.0051
   56CHL1   H1A 5295   5.666   1.392   3.082 -0.3262  0.9589 -1.9380
   56CHL1   H1B 5296   5.822   1.332   3.062 -1.0529  2.0855  2.3795
   56CHL1    C2 5297   5.708   1.324   2.879 -0.3561 -0.1851  0.1996
   56CHL1   H2A 5298   5.750   1.422   2.848 -1.0617 -0.3467 -1.3291
   56CHL1   H2B 5299   5.605   1.319   2.839 -0.2081  1.5692 -0.4759
   56CHL1   C20 5300   5.676   1.116   3.790 -0.6682 -0.3674 -0.5288
   56CHL1   H20 5301   5.572   1.081   3.804 -0.1644 -1.7422 -0.0594
   56CHL1   C21 5302   5.651   1.271   3.787  0.3546 -0.1950 -0.2162
   56CHL1  H21A 5303   5.553   1.302   3.744  1.2218 -1.1096 -3.1215
   56CHL1  H21B 5304   5.736   1.311   3.728  0.7100 -0.0927  0.3604
   56CHL1  H21C 5305   5.652   1.308   3.891  0.7156  0.0612 -0.3097
   56CHL1   C22 5306   5.756   1.074   3.919 -0.5067 -0.6300  0.1697
   56CHL1  H22A 5307   5.774   0.965   3.911 -0.3589 -0.6133  0.2838
   56CHL1  H22B 5308   5.857   1.120   3.919 -0.7281 -0.0578  1.8346
   56CHL1   C23 5309   5.684   1.099   4.050 -0.4208 -0.0680 -0.1237
   56CHL1  H23A 5310   5.658   1.207   4.060 -2.2735 -0.5912  1.4346
   56CHL1  H23B 5311   5.583   1.053   4.042  0.3959 -1.6949 -1.7613
   56CHL1   C24 5312   5.769   1.072   4.177  0.4720  0.1822 -0.5099
   56CHL1  H24A 5313   5.801   0.966   4.193  3.1266  1.2454  2.2557
   56CHL1  H24B 5314   5.865   1.128   4.170 -0.5880  1.8431 -2.7856
   56CHL1   C25 5315   5.706   1.108   4.315 -0.2368  0.6477  0.6425
   56CHL1   H25 5316   5.782   1.078   4.391 -0.3791 -0.3452  0.4002
   56CHL1   C26 5317   5.684   1.257   4.320  0.6692  0.6473  0.1454
   56CHL1  H26A 5318   5.608   1.287   4.244 -0.6053 -1.5828  0.4316
   56CHL1  H26B 5319   5.654   1.281   4.424 -0.2776 -2.8281  0.8162
   56CHL1  H26C 5320   5.780   1.306   4.296  0.6269  0.7467  0.1776
   56CHL1   C27 5321   5.579   1.022   4.337  0.1853  0.2410  0.1704
   56CHL1  H27A 5322   5.496   1.045   4.266 -0.6792 -1.0998  0.7081
   56CHL1  H27B 5323   5.601   0.913   4.337 -0.1619  0.1607 -0.6430
   56CHL1  H27C 5324   5.534   1.034   4.438 -1.4014 -0.5562 -0.4022
   57CHL1    C3 5325   4.903   5.120   2.988 -0.0598 -0.5948  0.6051
   57CHL1    H3 5326   4.817   5.190   2.993  0.8940  0.5336  2.6922
   57CHL1    O3 5327   4.950   5.114   2.856  0.2185 -0.4540 -0.1204
   57CHL1   H3' 5328   5.003   5.034   2.847  2.4384  1.0809 -2.1484
   57CHL1    C4 5329   5.011   5.161   3.078  0.0539  0.5082 -0.3955
   57CHL1   H4A 5330   5.095   5.089   3.070 -1.2612 -1.0575 -0.5605
   57CHL1   H4B 5331   5.040   5.264   3.047 -0.5949  0.2760 -1.8043
   57CHL1    C5 5332   4.972   5.154   3.226  0.4880 -0.2086 -0.4270
   57CHL1    C6 5333   4.987   5.259   3.305  0.4909  0.0521  0.8325
   57CHL1    H6 5334   5.029   5.350   3.258 -3.5071  1.2640 -0.8324
   57CHL1    C7 5335   4.951   5.269   3.454  0.2880 -0.2394  0.5517
   57CHL1   H7A 5336   5.028   5.316   3.519  1.5137  1.6171 -2.0390
   57CHL1   H7B 5337   4.856   5.324   3.466  0.3758  0.5207 -1.6944
   57CHL1    C8 5338   4.923   5.117   3.496  0.2009 -0.3754  0.5438
   57CHL1    H8 5339   5.014   5.060   3.525  2.3301  2.8586  0.7023
   57CHL1   C14 5340   4.849   5.131   3.631  0.0011 -0.1112  0.4730
   57CHL1   H14 5341   4.756   5.185   3.605  0.4848  0.2806 -0.5184
   57CHL1   C15 5342   4.899   5.219   3.745 -0.8719 -0.0116 -0.7657
   57CHL1  H15A 5343   5.010   5.216   3.753 -0.8842 -0.9757 -0.8647
   57CHL1  H15B 5344   4.879   5.328   3.738  2.0247  0.6812  0.3218
   57CHL1   C16 5345   4.837   5.154   3.867 -0.2143 -0.1087 -0.1878
   57CHL1  H16A 5346   4.922   5.099   3.912  2.3475  0.6232 -3.6913
   57CHL1  H16B 5347   4.798   5.228   3.941  1.0355  1.2729 -0.8446
   57CHL1   C17 5348   4.729   5.049   3.823  0.0287  0.0707 -0.6807
   57CHL1   H17 5349   4.630   5.097   3.803  1.0362  1.5015 -2.5983
   57CHL1   C13 5350   4.789   5.002   3.692 -0.1697 -1.0187  0.6813
   57CHL1   C18 5351   4.902   4.902   3.726  0.0033 -0.1588  0.4235
   57CHL1  H18A 5352   4.854   4.805   3.749 -2.1274  0.9089  0.7189
   57CHL1  H18B 5353   4.963   4.872   3.638  0.1519  2.1910 -0.3461
   57CHL1  H18C 5354   4.977   4.932   3.803 -0.1503  0.1550  0.4520
   57CHL1   C12 5355   4.693   4.927   3.605 -0.2218  0.3066  0.0629
   57CHL1  H12A 5356   4.660   4.835   3.658 -0.0545  0.0088 -0.3457
   57CHL1  H12B 5357   4.600   4.982   3.582  1.0454  1.5731 -2.4424
   57CHL1   C11 5358   4.766   4.904   3.465 -0.0047 -0.0396  0.1429
   57CHL1  H11A 5359   4.846   4.829   3.482 -0.1248 -0.3725 -0.7107
   57CHL1  H11B 5360   4.690   4.856   3.400  1.4430 -1.7839 -0.3377
   57CHL1    C9 5361   4.827   5.032   3.403 -0.7900  0.9349  0.1020
   57CHL1    H9 5362   4.735   5.091   3.386 -2.1063 -0.6990  1.2724
   57CHL1   C10 5363   4.897   5.018   3.270  0.2923 -0.4821 -0.6134
   57CHL1   C19 5364   5.007   4.907   3.283 -0.1492 -0.5383  0.0062
   57CHL1  H19A 5365   5.091   4.942   3.347 -0.2942  0.2603 -0.2310
   57CHL1  H19B 5366   4.983   4.805   3.322  2.9792 -1.6941 -0.7484
   57CHL1  H19C 5367   5.057   4.899   3.184  0.7707  1.9854  0.1843
   57CHL1    C1 5368   4.800   4.973   3.161 -0.1225  0.8439  0.5110
   57CHL1   H1A 5369   4.769   4.867   3.176  0.8724  0.7463  2.1349
   57CHL1   H1B 5370   4.714   5.041   3.178  0.3971  1.4917  0.5564
   57CHL1    C2 5371   4.848   4.985   3.020 -0.1265 -0.8189  0.6060
   57CHL1   H2A 5372   4.780   4.956   2.937  0.5413  1.7950 -0.9694
   57CHL1   H2B 5373   4.927   4.910   3.001  0.2540  0.1107 -1.7096
   57CHL1   C20 5374   4.694   4.945   3.934 -0.4286  0.1480 -0.0632
   57CHL1   H20 5375   4.752   4.852   3.920 -0.4930 -0.0635  1.0050
   57CHL1   C21 5376   4.546   4.918   3.919  0.1128  0.0869 -0.2952
   57CHL1  H21A 5377   4.467   4.996   3.927  0.5339  0.3452  1.8988
   57CHL1  H21B 5378   4.513   4.834   3.983 -1.4643  0.6540 -0.3013
   57CHL1  H21C 5379   4.525   4.872   3.820  1.1352 -1.0535 -0.0129
   57CHL1   C22 5380   4.713   4.994   4.083  0.0293  0.5188  0.7778
   57CHL1  H22A 5381   4.816   5.033   4.099  0.2432  1.2775 -1.9264
   57CHL1  H22B 5382   4.652   5.085   4.100  0.0461  0.5867  0.4906
   57CHL1   C23 5383   4.677   4.880   4.186 -0.5960 -0.3364 -1.0002
   57CHL1  H23A 5384   4.696   4.910   4.291 -0.7685 -0.3263 -0.9720
   57CHL1  H23B 5385   4.567   4.870   4.187 -0.7198  0.8206  0.5970
   57CHL1   C24 5386   4.755   4.743   4.160 -0.0875 -0.2969  0.0303
   57CHL1  H24A 5387   4.721   4.699   4.064  0.0333 -0.4694  0.0647
   57CHL1  H24B 5388   4.865   4.763   4.164  0.1001 -1.2854 -0.0620
   57CHL1   C25 5389   4.726   4.636   4.269 -0.4538 -0.7313  0.4389
   57CHL1   H25 5390   4.616   4.623   4.277 -0.4795 -0.5613  0.3744
   57CHL1   C26 5391   4.797   4.502   4.232 -0.5470 -0.7140  0.4998
   57CHL1  H26A 5392   4.738   4.445   4.157 -0.8591  0.2149  0.0247
   57CHL1  H26B 5393   4.898   4.514   4.187 -0.2328 -0.0951  1.3305
   57CHL1  H26C 5394   4.817   4.435   4.319 -0.1212  0.2438  1.1606
   57CHL1   C27 5395   4.770   4.674   4.411  0.2621 -0.0485 -0.5733
   57CHL1  H27A 5396   4.872   4.716   4.397  1.1404 -2.0698 -0.5633
   57CHL1  H27B 5397   4.714   4.756   4.460 -0.9897 -0.4886 -1.2365
   57CHL1  H27C 5398   4.774   4.585   4.477  1.8911  0.1367 -0.3598
   58CHL1    C3 5399   3.180   5.613   3.150 -0.5221  0.1004 -0.4341
   58CHL1    H3 5400   3.091   5.680   3.150 -0.6990 -0.1234 -1.4138
   58CHL1    O3 5401   3.252   5.633   3.033  0.1282 -0.7018  0.2680
   58CHL1   H3' 5402   3.194   5.606   2.961  0.9619 -0.0471 -0.6702
   58CHL1    C4 5403   3.273   5.636   3.278 -0.2466 -0.8551  0.3338
   58CHL1   H4A 5404   3.369   5.585   3.258  0.5023  0.4775  0.4512
   58CHL1   H4B 5405   3.293   5.745   3.271  0.4245 -1.0309 -0.6781
   58CHL1    C5 5406   3.215   5.594   3.410  0.3207  0.7607 -0.2237
   58CHL1    C6 5407   3.212   5.675   3.510 -0.4252 -0.1423  0.0226
   58CHL1    H6 5408   3.265   5.770   3.495 -1.2995 -0.0892 -3.6667
   58CHL1    C7 5409   3.146   5.649   3.643 -0.7705 -0.3356  0.2299
   58CHL1   H7A 5410   3.204   5.691   3.728 -0.5479 -0.3322  0.0784
   58CHL1   H7B 5411   3.051   5.704   3.653 -0.4148  0.0540  1.5847
   58CHL1    C8 5412   3.125   5.495   3.673  0.4576 -0.0018 -0.0814
   58CHL1    H8 5413   3.228   5.454   3.684  0.7372 -0.0280 -2.4246
   58CHL1   C14 5414   3.045   5.482   3.801  0.0008 -0.2072  0.3936
   58CHL1   H14 5415   2.945   5.517   3.766 -0.4292 -0.8405  0.9584
   58CHL1   C15 5416   3.075   5.564   3.925  0.4634 -0.4186 -0.1709
   58CHL1  H15A 5417   3.184   5.570   3.944  0.4341 -0.2617 -0.0480
   58CHL1  H15B 5418   3.044   5.670   3.914  0.6832 -0.2081  1.0847
   58CHL1   C16 5419   3.001   5.489   4.043  0.2643  0.3562  1.0502
   58CHL1  H16A 5420   3.056   5.470   4.138  0.1771 -0.1178  1.0078
   58CHL1  H16B 5421   2.915   5.552   4.075  0.2810  0.5005  0.8124
   58CHL1   C17 5422   2.938   5.366   3.975 -0.0590 -0.0534 -0.6573
   58CHL1   H17 5423   2.832   5.390   3.951 -0.3721 -1.0475 -0.3596
   58CHL1   C13 5424   3.026   5.344   3.849 -0.8994  0.4269 -0.3380
   58CHL1   C18 5425   3.163   5.280   3.889 -0.3764  0.2325  0.0140
   58CHL1  H18A 5426   3.164   5.173   3.918 -0.2205  0.0668 -0.6071
   58CHL1  H18B 5427   3.232   5.282   3.802 -1.4418 -1.3134 -0.9111
   58CHL1  H18C 5428   3.209   5.339   3.972 -2.4619 -0.8460  2.0729
   58CHL1   C12 5429   2.961   5.272   3.733  0.0922 -0.4944  0.0689
   58CHL1  H12A 5430   2.937   5.165   3.751  0.9771 -1.3795 -3.2818
   58CHL1  H12B 5431   2.862   5.316   3.708 -0.7573 -3.0955 -1.6172
   58CHL1   C11 5432   3.042   5.275   3.596 -0.1345  0.5647  0.7583
   58CHL1  H11A 5433   3.135   5.215   3.603  2.2992  3.8491 -0.5509
   58CHL1  H11B 5434   2.986   5.225   3.515  0.7263 -0.0703  0.5507
   58CHL1    C9 5435   3.072   5.422   3.551  0.4781  0.1311 -0.2737
   58CHL1    H9 5436   2.973   5.466   3.526 -0.8454 -2.6355 -0.2601
   58CHL1   C10 5437   3.150   5.455   3.423 -0.6557  0.0699  1.1064
   58CHL1   C19 5438   3.269   5.359   3.421 -0.1350 -0.5005 -0.1873
   58CHL1  H19A 5439   3.330   5.383   3.332 -0.8157  2.3567 -0.0098
   58CHL1  H19B 5440   3.332   5.384   3.510  1.5794 -2.2577 -0.8524
   58CHL1  H19C 5441   3.234   5.254   3.423 -0.6627 -0.3182  0.7757
   58CHL1    C1 5442   3.059   5.439   3.299 -0.0988 -0.2344  1.5059
   58CHL1   H1A 5443   3.009   5.340   3.298  0.0543 -0.3834 -1.2414
   58CHL1   H1B 5444   2.977   5.513   3.314 -0.8664 -1.0861  1.5495
   58CHL1    C2 5445   3.118   5.468   3.157  0.4485  0.0533  0.2239
   58CHL1   H2A 5446   3.039   5.461   3.079 -0.4248 -1.6351  1.1869
   58CHL1   H2B 5447   3.196   5.401   3.115 -0.4277  1.0884 -3.4356
   58CHL1   C20 5448   2.924   5.256   4.086 -0.3336  0.1057 -0.3833
   58CHL1   H20 5449   3.023   5.251   4.137 -1.0687 -1.8035  0.9676
   58CHL1   C21 5450   2.904   5.114   4.027 -0.3537  0.0403 -0.2564
   58CHL1  H21A 5451   2.996   5.075   3.979  0.5161  0.0538  1.3299
   58CHL1  H21B 5452   2.818   5.118   3.957 -0.2799  0.8959 -0.3066
   58CHL1  H21C 5453   2.883   5.044   4.111  0.3370  1.0112  0.7581
   58CHL1   C22 5454   2.822   5.302   4.187 -0.1077 -0.0714  0.4038
   58CHL1  H22A 5455   2.811   5.413   4.184 -3.3825 -0.2616  1.1172
   58CHL1  H22B 5456   2.720   5.273   4.153  0.1438  0.7983 -1.1694
   58CHL1   C23 5457   2.847   5.263   4.327 -0.3741 -0.3346  0.3710
   58CHL1  H23A 5458   2.957   5.247   4.332 -0.1419  0.8620 -0.5049
   58CHL1  H23B 5459   2.814   5.350   4.388  0.2140 -0.3722  0.7492
   58CHL1   C24 5460   2.748   5.153   4.362 -0.2270  0.7009 -0.6263
   58CHL1  H24A 5461   2.646   5.196   4.354 -0.5380  0.0352 -0.2467
   58CHL1  H24B 5462   2.759   5.067   4.292  1.0326 -2.1021  2.7271
   58CHL1   C25 5463   2.757   5.107   4.510 -0.5836 -0.2820 -0.1995
   58CHL1   H25 5464   2.749   5.193   4.580  1.2936  1.1875 -1.6780
   58CHL1   C26 5465   2.637   5.022   4.548  0.4437  0.1457  0.5055
   58CHL1  H26A 5466   2.635   4.926   4.492 -2.3108 -0.3780  1.3625
   58CHL1  H26B 5467   2.628   5.008   4.658  0.8947  1.1766  0.6965
   58CHL1  H26C 5468   2.543   5.073   4.517 -0.4991 -0.7516  1.8025
   58CHL1   C27 5469   2.888   5.026   4.545  0.4054  0.1661  0.1987
   58CHL1  H27A 5470   2.888   4.935   4.480  1.5027 -0.5183  1.1215
   58CHL1  H27B 5471   2.986   5.077   4.531  1.0478 -0.8601  0.8045
   58CHL1  H27C 5472   2.889   4.992   4.651  0.1821  1.7872  0.7511
   59CHL1    C3 5473   3.032   5.089   2.693 -0.4824  0.2362  0.5040
   59CHL1    H3 5474   3.076   4.991   2.664  1.1910  0.4861  2.0039
   59CHL1    O3 5475   3.035   5.166   2.579 -0.1656  0.4709 -0.1221
   59CHL1   H3' 5476   3.127   5.167   2.553 -0.0811 -3.8656 -0.6497
   59CHL1    C4 5477   2.882   5.053   2.731 -0.2424 -0.0560 -1.1856
   59CHL1   H4A 5478   2.841   5.156   2.736  1.7894  0.8127 -1.2792
   59CHL1   H4B 5479   2.840   4.995   2.646  2.8609 -1.9523 -1.6017
   59CHL1    C5 5480   2.849   4.994   2.868  0.4230  0.1161  0.1063
   59CHL1    C6 5481   2.780   4.876   2.879 -0.2469 -0.7625  0.3400
   59CHL1    H6 5482   2.732   4.830   2.791 -0.7998  0.6042 -0.1005
   59CHL1    C7 5483   2.755   4.813   3.017 -0.5757  0.0800  0.0504
   59CHL1   H7A 5484   2.648   4.782   3.026 -0.6374  0.3450  0.2553
   59CHL1   H7B 5485   2.814   4.721   3.034  1.3333  1.3026  0.3276
   59CHL1    C8 5486   2.787   4.902   3.139 -0.4182 -0.4893  0.5912
   59CHL1    H8 5487   2.711   4.983   3.146 -0.4943 -0.5154  0.1135
   59CHL1   C14 5488   2.795   4.826   3.275  0.5869  0.4085 -0.5599
   59CHL1   H14 5489   2.860   4.739   3.252  3.2743  2.3257 -0.6678
   59CHL1   C15 5490   2.668   4.760   3.327 -0.1601  0.2294 -0.6443
   59CHL1  H15A 5491   2.589   4.838   3.330 -0.3534  0.0191  1.9430
   59CHL1  H15B 5492   2.638   4.674   3.263 -1.6228 -1.2813  1.9156
   59CHL1   C16 5493   2.703   4.723   3.475 -0.1696  0.1779  0.4441
   59CHL1  H16A 5494   2.615   4.755   3.535 -0.6080  2.0096 -1.0760
   59CHL1  H16B 5495   2.720   4.614   3.484 -2.0243 -0.2359 -0.7182
   59CHL1   C17 5496   2.837   4.802   3.503 -0.9938  0.3856 -0.2728
   59CHL1   H17 5497   2.918   4.729   3.484 -1.6955 -0.5893  0.3343
   59CHL1   C13 5498   2.845   4.902   3.393 -0.4863 -1.2791  0.1215
   59CHL1   C18 5499   2.752   5.014   3.426  0.0327 -0.0969  0.5631
   59CHL1  H18A 5500   2.798   5.094   3.489 -1.0781  1.3103 -0.3537
   59CHL1  H18B 5501   2.730   5.064   3.329 -1.8237 -0.5513  0.7248
   59CHL1  H18C 5502   2.664   4.988   3.489  1.4299  0.0119  2.6933
   59CHL1   C12 5503   2.989   4.955   3.368 -0.4788 -0.3993  1.4385
   59CHL1  H12A 5504   3.019   5.020   3.454  0.5733  0.4531  0.4714
   59CHL1  H12B 5505   3.059   4.869   3.356 -0.5525 -0.5596  2.1219
   59CHL1   C11 5506   2.990   5.039   3.241 -0.1727 -0.0377  0.2160
   59CHL1  H11A 5507   2.941   5.135   3.267 -3.2627 -1.1957 -0.7771
   59CHL1  H11B 5508   3.095   5.067   3.217  0.2706 -1.3687  0.5012
   59CHL1    C9 5509   2.922   4.970   3.113 -0.2319  0.4398  0.4374
   59CHL1    H9 5510   2.995   4.892   3.082 -1.4425 -0.1351 -1.0845
   59CHL1   C10 5511   2.921   5.058   2.983 -0.2067 -1.3928 -0.6970
   59CHL1   C19 5512   2.831   5.187   3.009  0.2929 -0.0070 -0.1820
   59CHL1  H19A 5513   2.725   5.162   2.987  0.1838  1.3779 -1.3043
   59CHL1  H19B 5514   2.836   5.233   3.110 -0.2287  0.3539 -0.3148
   59CHL1  H19C 5515   2.854   5.267   2.936 -2.4197  1.4945  0.4510
   59CHL1    C1 5516   3.071   5.093   2.940  0.5294  0.0743 -0.4088
   59CHL1   H1A 5517   3.117   5.160   3.016  1.9080 -1.1801 -0.0883
   59CHL1   H1B 5518   3.122   4.995   2.929 -1.0341 -0.6244 -1.7600
   59CHL1    C2 5519   3.095   5.163   2.804 -0.2003  0.3039  0.0907
   59CHL1   H2A 5520   3.203   5.184   2.785 -1.0051  4.2797 -1.1656
   59CHL1   H2B 5521   3.050   5.265   2.800  0.5981  0.6271 -3.1783
   59CHL1   C20 5522   2.851   4.839   3.654  0.6037  0.7074 -0.4659
   59CHL1   H20 5523   2.796   4.934   3.670 -0.7620 -0.0742 -0.4147
   59CHL1   C21 5524   2.994   4.840   3.696 -0.0883 -0.5295  0.4565
   59CHL1  H21A 5525   3.065   4.905   3.641 -0.2655 -2.4704 -2.2400
   59CHL1  H21B 5526   3.039   4.740   3.682  0.9864 -0.1065  0.7885
   59CHL1  H21C 5527   3.008   4.876   3.801  1.3865  0.6398 -0.1079
   59CHL1   C22 5528   2.774   4.731   3.740 -0.4965 -0.2893  1.0556
   59CHL1  H22A 5529   2.664   4.749   3.743 -0.4278  1.4673 -2.2138
   59CHL1  H22B 5530   2.802   4.634   3.695  0.8734  0.0070  1.2340
   59CHL1   C23 5531   2.821   4.734   3.891  0.1454 -0.7409  0.1124
   59CHL1  H23A 5532   2.925   4.698   3.874  1.1653  2.3820 -0.9416
   59CHL1  H23B 5533   2.825   4.839   3.924 -0.6660 -0.8753  0.6485
   59CHL1   C24 5534   2.735   4.665   3.990  0.6331  0.3470 -0.5003
   59CHL1  H24A 5535   2.634   4.710   3.977  0.5594  1.9271  3.9371
   59CHL1  H24B 5536   2.731   4.558   3.961  1.6164  0.1824 -0.0652
   59CHL1   C25 5537   2.764   4.669   4.143  1.3188  0.5753 -0.4640
   59CHL1   H25 5538   2.761   4.777   4.169 -0.6225  1.1883 -2.8244
   59CHL1   C26 5539   2.643   4.603   4.207  0.4345 -0.0389 -0.3316
   59CHL1  H26A 5540   2.551   4.654   4.172  1.6696  1.5394 -1.4352
   59CHL1  H26B 5541   2.652   4.494   4.187 -1.2605 -0.1567 -0.5827
   59CHL1  H26C 5542   2.649   4.612   4.318  1.7956 -0.4467 -0.3432
   59CHL1   C27 5543   2.894   4.612   4.190 -0.3148  0.2295  0.2301
   59CHL1  H27A 5544   2.925   4.517   4.141  0.9925  0.5776  0.3371
   59CHL1  H27B 5545   2.974   4.682   4.157  0.6804 -1.0503 -0.1729
   59CHL1  H27C 5546   2.904   4.591   4.299  0.1485  1.5719  0.4655
   60CHL1    C3 5547   4.285   3.660   3.002  0.7319 -0.2387  0.4523
   60CHL1    H3 5548   4.395   3.671   3.012  0.8601  0.1712 -1.1780
   60CHL1    O3 5549   4.261   3.694   2.863  0.1604  0.0192 -0.3648
   60CHL1   H3' 5550   4.308   3.634   2.805 -1.5898 -1.5011 -0.2908
   60CHL1    C4 5551   4.227   3.515   3.034  0.3506 -0.1438 -0.4150
   60CHL1   H4A 5552   4.126   3.520   2.987  0.6621  2.7274 -0.9811
   60CHL1   H4B 5553   4.287   3.437   2.984 -0.1558 -0.6691 -0.2148
   60CHL1    C5 5554   4.219   3.470   3.179 -0.8530  0.1246  0.2179
   60CHL1    C6 5555   4.266   3.352   3.231  0.0232  0.1608  0.0186
   60CHL1    H6 5556   4.306   3.268   3.173  0.5190 -1.4373  2.4932
   60CHL1    C7 5557   4.270   3.307   3.373  0.0301 -0.3090  0.1746
   60CHL1   H7A 5558   4.204   3.219   3.383 -1.9949  1.3794  3.5556
   60CHL1   H7B 5559   4.371   3.272   3.402 -0.0294 -0.5112  0.1364
   60CHL1    C8 5560   4.213   3.408   3.476 -0.1952 -0.3233  0.6103
   60CHL1    H8 5561   4.104   3.389   3.485 -1.0277  3.5299  0.4370
   60CHL1   C14 5562   4.276   3.393   3.618  0.1644 -0.2719 -0.0166
   60CHL1   H14 5563   4.384   3.418   3.616 -0.0933  0.9897  0.7802
   60CHL1   C15 5564   4.272   3.253   3.684  0.0593  0.2007  0.3765
   60CHL1  H15A 5565   4.167   3.215   3.678  0.1848 -0.1996  0.6984
   60CHL1  H15B 5566   4.343   3.183   3.635 -0.0117  0.5919 -0.2947
   60CHL1   C16 5567   4.312   3.280   3.836  1.0358  0.0188 -0.3132
   60CHL1  H16A 5568   4.236   3.222   3.892 -0.1181 -1.8550 -3.5666
   60CHL1  H16B 5569   4.413   3.240   3.860  1.2404 -0.3207 -1.6436
   60CHL1   C17 5570   4.301   3.434   3.851  0.4513 -0.7064 -0.6341
   60CHL1   H17 5571   4.406   3.469   3.842  1.4224 -3.2000  0.3477
   60CHL1   C13 5572   4.229   3.492   3.722 -0.3506 -0.0836 -0.1542
   60CHL1   C18 5573   4.077   3.467   3.754 -0.2401 -0.0589 -1.0387
   60CHL1  H18A 5574   4.037   3.531   3.835 -0.7562  0.5814 -1.7796
   60CHL1  H18B 5575   4.012   3.474   3.664 -1.8609 -0.4121  0.0486
   60CHL1  H18C 5576   4.070   3.362   3.790 -1.9990  0.4924  0.3378
   60CHL1   C12 5577   4.257   3.639   3.677  0.4041  0.5599  0.0566
   60CHL1  H12A 5578   4.208   3.705   3.751 -0.4432  1.0439 -0.9166
   60CHL1  H12B 5579   4.368   3.647   3.679  0.4380  0.2555  2.5901
   60CHL1   C11 5580   4.193   3.664   3.532  0.1323  0.4935  0.0661
   60CHL1  H11A 5581   4.084   3.662   3.550  0.1487  2.2633  0.4813
   60CHL1  H11B 5582   4.228   3.764   3.500  2.7296 -0.8628 -1.7855
   60CHL1    C9 5583   4.228   3.554   3.426 -0.5324  0.3812  0.3036
   60CHL1    H9 5584   4.338   3.568   3.419 -0.7464  1.2020 -1.9632
   60CHL1   C10 5585   4.178   3.586   3.282 -0.3049  0.0744 -0.1226
   60CHL1   C19 5586   4.028   3.599   3.297 -0.6133 -0.2407 -0.3142
   60CHL1  H19A 5587   4.001   3.697   3.341  0.3113  0.6902 -1.6928
   60CHL1  H19B 5588   3.979   3.598   3.197  0.5088 -0.0595 -0.8883
   60CHL1  H19C 5589   3.985   3.517   3.359 -1.8912  0.3025 -0.4608
   60CHL1    C1 5590   4.246   3.720   3.231 -1.0940 -0.1725 -0.0538
   60CHL1   H1A 5591   4.232   3.804   3.303 -1.4662 -0.5532  0.3221
   60CHL1   H1B 5592   4.355   3.701   3.238 -0.8946  1.1764  1.3533
   60CHL1    C2 5593   4.216   3.759   3.087 -0.1143  0.4585  0.0341
   60CHL1   H2A 5594   4.252   3.862   3.070  2.9372 -0.5024 -0.0543
   60CHL1   H2B 5595   4.106   3.758   3.071  0.1569  1.3088 -2.1007
   60CHL1   C20 5596   4.255   3.474   3.988  0.6371 -0.3610 -0.6792
   60CHL1   H20 5597   4.149   3.443   3.993  0.7631 -0.6188  0.7124
   60CHL1   C21 5598   4.271   3.625   4.019 -0.4632  0.7496  0.1595
   60CHL1  H21A 5599   4.208   3.697   3.961  2.1706  3.2868  0.1704
   60CHL1  H21B 5600   4.375   3.650   3.990  0.9789 -3.4758  1.0743
   60CHL1  H21C 5601   4.240   3.653   4.122 -2.4311 -2.8199  0.6804
   60CHL1   C22 5602   4.316   3.385   4.105 -0.1314  0.9112 -0.3247
   60CHL1  H22A 5603   4.299   3.276   4.091  1.8581  0.4754  0.3060
   60CHL1  H22B 5604   4.424   3.405   4.120 -0.0228  0.8930 -1.0603
   60CHL1   C23 5605   4.246   3.409   4.241 -0.4003 -0.1616  0.0665
   60CHL1  H23A 5606   4.283   3.502   4.289 -2.6804  0.7549  0.1717
   60CHL1  H23B 5607   4.137   3.427   4.233 -0.9197 -2.8418  0.1659
   60CHL1   C24 5608   4.256   3.297   4.351  0.3510 -0.4823 -0.1936
   60CHL1  H24A 5609   4.195   3.209   4.322  0.2925 -0.2175 -0.8965
   60CHL1  H24B 5610   4.357   3.251   4.355  0.4191 -0.3310 -0.1783
   60CHL1   C25 5611   4.209   3.341   4.492 -0.2370  0.5798 -0.8030
   60CHL1   H25 5612   4.285   3.416   4.525 -0.9192  2.2972 -2.8770
   60CHL1   C26 5613   4.066   3.400   4.495 -0.1457  0.4033  0.6549
   60CHL1  H26A 5614   4.057   3.482   4.421 -1.3809  0.2559  0.6200
   60CHL1  H26B 5615   4.000   3.316   4.464  0.5288 -0.4084  1.3583
   60CHL1  H26C 5616   4.050   3.431   4.600 -0.0005 -0.7957  1.0496
   60CHL1   C27 5617   4.217   3.221   4.588 -0.0818 -0.4416  0.3237
   60CHL1  H27A 5618   4.179   3.255   4.687  1.4012  0.6250  0.5726
   60CHL1  H27B 5619   4.160   3.147   4.529  0.2700 -0.2265 -0.3042
   60CHL1  H27C 5620   4.320   3.180   4.598 -0.1890 -0.5383  1.0215
   61CHL1    C3 5621   4.538   5.687   2.809  0.4268  0.0224 -0.2159
   61CHL1    H3 5622   4.440   5.739   2.801  0.2232  0.0811  2.0985
   61CHL1    O3 5623   4.593   5.672   2.680  0.0279 -0.3689 -0.1108
   61CHL1   H3' 5624   4.671   5.622   2.703  0.5771  0.8891  0.9044
   61CHL1    C4 5625   4.613   5.780   2.893 -0.2686 -0.1151 -0.0073
   61CHL1   H4A 5626   4.719   5.755   2.873 -0.6516 -1.3577 -0.6124
   61CHL1   H4B 5627   4.583   5.879   2.854 -1.3842 -0.5538 -0.3201
   61CHL1    C5 5628   4.601   5.777   3.048 -0.2539  0.0071  0.2403
   61CHL1    C6 5629   4.585   5.887   3.124  0.1504 -0.2175  0.3615
   61CHL1    H6 5630   4.584   5.985   3.074 -0.0918 -0.2961  0.2087
   61CHL1    C7 5631   4.582   5.885   3.273 -0.2043  0.2527 -0.0992
   61CHL1   H7A 5632   4.654   5.963   3.304 -1.0514  0.5178  1.3063
   61CHL1   H7B 5633   4.476   5.900   3.303 -0.0021  1.0445  0.2362
   61CHL1    C8 5634   4.627   5.751   3.333 -0.3823 -0.1052  0.0589
   61CHL1    H8 5635   4.737   5.752   3.323 -0.3664 -1.0139  0.0383
   61CHL1   C14 5636   4.587   5.757   3.480 -0.4032  0.5370 -0.1576
   61CHL1   H14 5637   4.476   5.768   3.484 -0.4194  0.3211  3.2526
   61CHL1   C15 5638   4.642   5.877   3.556 -0.3843 -0.6321  0.2740
   61CHL1  H15A 5639   4.749   5.898   3.536 -0.5286  0.7218  0.7906
   61CHL1  H15B 5640   4.572   5.960   3.532  0.7886  0.0069 -1.1410
   61CHL1   C16 5641   4.629   5.830   3.706 -0.8425  0.5818 -0.5672
   61CHL1  H16A 5642   4.729   5.815   3.752 -0.5765 -0.9396 -1.5782
   61CHL1  H16B 5643   4.587   5.900   3.782 -0.8344  0.3647 -0.3631
   61CHL1   C17 5644   4.569   5.681   3.695  0.2693  1.1111 -0.0400
   61CHL1   H17 5645   4.458   5.692   3.696  0.0264 -0.8958  1.0907
   61CHL1   C13 5646   4.614   5.635   3.559  0.4243 -0.3116  0.4602
   61CHL1   C18 5647   4.760   5.603   3.562 -0.0681 -0.6860  0.1937
   61CHL1  H18A 5648   4.799   5.601   3.458 -0.2605  2.3575 -0.0281
   61CHL1  H18B 5649   4.819   5.683   3.612 -0.4944 -0.5693  0.5184
   61CHL1  H18C 5650   4.791   5.517   3.625  1.3407 -0.2526  0.1212
   61CHL1   C12 5651   4.533   5.523   3.485 -0.8372  0.1857 -0.2183
   61CHL1  H12A 5652   4.557   5.427   3.535 -1.0460  0.0561 -0.3606
   61CHL1  H12B 5653   4.423   5.536   3.493 -0.7049  0.9078  0.5000
   61CHL1   C11 5654   4.574   5.508   3.335 -0.3093  0.8033  0.9628
   61CHL1  H11A 5655   4.672   5.459   3.319  0.0509  1.5178  0.9390
   61CHL1  H11B 5656   4.491   5.452   3.288  1.8610 -1.9987  0.2169
   61CHL1    C9 5657   4.559   5.635   3.257 -0.3091 -1.1603  0.1653
   61CHL1    H9 5658   4.451   5.661   3.255 -0.0284  0.1016  0.3693
   61CHL1   C10 5659   4.605   5.634   3.103  0.0811 -0.2732 -0.1958
   61CHL1   C19 5660   4.747   5.569   3.096  0.2094  0.1152  0.2637
   61CHL1  H19A 5661   4.777   5.569   2.989  1.3942  1.6708  0.5719
   61CHL1  H19B 5662   4.807   5.629   3.167 -2.4731  0.5242  2.3914
   61CHL1  H19C 5663   4.746   5.461   3.122  1.3183 -0.1660 -0.7763
   61CHL1    C1 5664   4.496   5.560   3.017  0.4785 -0.0809  0.2389
   61CHL1   H1A 5665   4.492   5.451   3.039 -0.1163  0.1586  1.3567
   61CHL1   H1B 5666   4.393   5.599   3.033  0.7437  1.3173 -1.2019
   61CHL1    C2 5667   4.525   5.543   2.867  0.4772 -0.6814 -0.1617
   61CHL1   H2A 5668   4.444   5.494   2.810 -0.2113  0.3793 -0.1294
   61CHL1   H2B 5669   4.614   5.481   2.845 -0.7861 -2.1599 -1.2785
   61CHL1   C20 5670   4.619   5.592   3.817  0.5658 -0.3465 -0.3779
   61CHL1   H20 5671   4.730   5.598   3.804  0.4371  1.2594 -0.9235
   61CHL1   C21 5672   4.551   5.452   3.809 -0.0892  0.4161 -0.2623
   61CHL1  H21A 5673   4.594   5.388   3.729  0.2358  1.8416 -1.2674
   61CHL1  H21B 5674   4.441   5.465   3.799  0.1340  1.9479 -0.9639
   61CHL1  H21C 5675   4.562   5.384   3.896 -1.5385  0.5117  0.0164
   61CHL1   C22 5676   4.590   5.666   3.948  0.5788  0.2888  0.7106
   61CHL1  H22A 5677   4.619   5.773   3.963  1.0647  0.1413  0.8291
   61CHL1  H22B 5678   4.480   5.659   3.962  0.7958  0.6322  2.9982
   61CHL1   C23 5679   4.652   5.599   4.071 -0.5847  0.4322  0.4007
   61CHL1  H23A 5680   4.626   5.667   4.155 -0.5510  1.3825 -0.3460
   61CHL1  H23B 5681   4.587   5.512   4.098 -1.7574  1.0262 -0.3860
   61CHL1   C24 5682   4.797   5.555   4.060  0.0616 -0.0956  0.6004
   61CHL1  H24A 5683   4.819   5.496   3.968  1.8766 -1.2841  1.7486
   61CHL1  H24B 5684   4.872   5.635   4.046  2.2320 -2.3568 -1.8994
   61CHL1   C25 5685   4.828   5.468   4.180  0.3575  0.3047 -0.2911
   61CHL1   H25 5686   4.751   5.389   4.193 -0.2636  1.1660  1.4302
   61CHL1   C26 5687   4.963   5.397   4.175 -0.4165 -0.0925 -0.2090
   61CHL1  H26A 5688   5.042   5.472   4.198 -0.4179 -0.8587  2.6305
   61CHL1  H26B 5689   4.961   5.314   4.249  0.7779  0.4036  0.4003
   61CHL1  H26C 5690   4.965   5.351   4.074 -0.3648 -0.3509 -0.0905
   61CHL1   C27 5691   4.833   5.554   4.307  0.5337 -0.4923 -0.8034
   61CHL1  H27A 5692   4.863   5.492   4.395  0.0186 -2.3357 -1.8596
   61CHL1  H27B 5693   4.919   5.623   4.289 -0.1787  0.3427 -1.0290
   61CHL1  H27C 5694   4.737   5.607   4.320  0.8260  0.1395 -1.1759
   62CHL1    C3 5695   0.317   6.711   3.028 -0.4288 -0.3288  0.5489
   62CHL1    H3 5696   0.365   6.614   3.004 -1.4931 -0.3101 -1.9375
   62CHL1    O3 5697   0.297   6.797   2.916  0.2835  0.3219  0.7990
   62CHL1   H3' 5698   0.385   6.808   2.880  0.2447  1.3193  0.9754
   62CHL1    C4 5699   0.185   6.677   3.089 -0.2702  0.2410 -0.5972
   62CHL1   H4A 5700   0.129   6.771   3.109 -2.5349 -1.1069 -0.2998
   62CHL1   H4B 5701   0.139   6.615   3.009  0.4408 -1.3584  0.1990
   62CHL1    C5 5702   0.205   6.593   3.218 -0.1648  0.1780  0.2775
   62CHL1    C6 5703   0.150   6.467   3.230  0.3410 -0.7824  0.3551
   62CHL1    H6 5704   0.083   6.430   3.152 -1.5627 -0.3302  1.6932
   62CHL1    C7 5705   0.154   6.377   3.343  0.1028  0.4056 -0.5737
   62CHL1   H7A 5706   0.056   6.330   3.365 -0.2335  0.9284 -0.9367
   62CHL1   H7B 5707   0.237   6.305   3.323 -1.2165 -0.4205 -3.5192
   62CHL1    C8 5708   0.201   6.453   3.473 -0.5154  0.3599  0.4548
   62CHL1    H8 5709   0.114   6.510   3.511 -0.4161  0.7665  0.0776
   62CHL1   C14 5710   0.241   6.354   3.581 -0.7026 -0.5503 -0.2358
   62CHL1   H14 5711   0.322   6.287   3.547 -1.7087 -1.2782 -1.2729
   62CHL1   C15 5712   0.129   6.267   3.636  0.4033  0.1004  1.0610
   62CHL1  H15A 5713   0.031   6.314   3.660  0.5830  1.1685 -0.1813
   62CHL1  H15B 5714   0.109   6.190   3.558  0.8719 -0.1581  1.1863
   62CHL1   C16 5715   0.190   6.208   3.763  0.5894 -0.0645 -0.6981
   62CHL1  H16A 5716   0.117   6.177   3.840  1.3638  0.9538  0.4914
   62CHL1  H16B 5717   0.240   6.113   3.735  0.6648 -0.0843 -0.4971
   62CHL1   C17 5718   0.302   6.311   3.814 -0.2347 -0.0053  0.1413
   62CHL1   H17 5719   0.395   6.257   3.788 -0.5675 -0.0406 -1.0420
   62CHL1   C13 5720   0.293   6.425   3.711 -0.0820  0.1972 -0.0684
   62CHL1   C18 5721   0.186   6.524   3.765  0.2407  0.2061  0.6428
   62CHL1  H18A 5722   0.220   6.574   3.858  0.6263  0.6211  0.2790
   62CHL1  H18B 5723   0.148   6.596   3.690 -0.8044 -2.6145 -1.7311
   62CHL1  H18C 5724   0.093   6.472   3.796 -0.0498  0.5615  0.3703
   62CHL1   C12 5725   0.422   6.503   3.679  0.5566 -0.0992  0.1731
   62CHL1  H12A 5726   0.457   6.547   3.774  0.3037  1.0782 -0.2665
   62CHL1  H12B 5727   0.497   6.429   3.641  0.4747 -0.4707  0.7299
   62CHL1   C11 5728   0.401   6.601   3.567  0.2077 -0.0842 -0.0951
   62CHL1  H11A 5729   0.346   6.689   3.606  2.9608  1.7350 -0.0950
   62CHL1  H11B 5730   0.494   6.637   3.519  0.7757 -2.4536 -0.9463
   62CHL1    C9 5731   0.320   6.550   3.441  0.2499  0.3448 -0.0587
   62CHL1    H9 5732   0.397   6.490   3.387  1.4018  0.9059  0.9140
   62CHL1   C10 5733   0.288   6.662   3.329 -0.1717  0.7682 -0.2741
   62CHL1   C19 5734   0.185   6.766   3.390 -0.0717  0.7359 -0.6477
   62CHL1  H19A 5735   0.088   6.732   3.431 -0.1896  0.0262 -1.4849
   62CHL1  H19B 5736   0.245   6.816   3.469 -0.5770 -0.1290  0.2948
   62CHL1  H19C 5737   0.172   6.847   3.315  1.3548 -0.1307 -1.8945
   62CHL1    C1 5738   0.424   6.716   3.269  0.1525 -0.1299 -0.4607
   62CHL1   H1A 5739   0.481   6.783   3.337  0.0294 -1.4695  1.0287
   62CHL1   H1B 5740   0.490   6.628   3.256  1.5719  0.7132  0.7167
   62CHL1    C2 5741   0.407   6.791   3.134 -0.1707  0.1507  0.2342
   62CHL1   H2A 5742   0.508   6.814   3.093  0.1177 -0.5933  0.5024
   62CHL1   H2B 5743   0.357   6.889   3.152 -0.0449  0.7413 -2.2561
   62CHL1   C20 5744   0.294   6.338   3.959 -0.0984  0.9279 -0.7534
   62CHL1   H20 5745   0.195   6.379   3.988 -0.0320  0.1565  0.6533
   62CHL1   C21 5746   0.415   6.417   4.010 -0.2379 -0.2142  0.5163
   62CHL1  H21A 5747   0.509   6.371   3.973  0.8566  1.6695  0.8267
   62CHL1  H21B 5748   0.433   6.413   4.119 -0.0707  0.0742  0.5020
   62CHL1  H21C 5749   0.400   6.522   3.976 -1.9873  0.0914  2.0826
   62CHL1   C22 5750   0.291   6.204   4.053 -0.5363 -0.4336 -0.3874
   62CHL1  H22A 5751   0.192   6.156   4.038  0.7294 -3.4496  0.3105
   62CHL1  H22B 5752   0.375   6.152   4.002  0.6118  1.2650 -0.3076
   62CHL1   C23 5753   0.314   6.220   4.212  0.0422  0.4202  0.9267
   62CHL1  H23A 5754   0.424   6.216   4.229  0.2737 -1.3789 -0.6149
   62CHL1  H23B 5755   0.261   6.314   4.238 -2.6814 -1.2699  1.8201
   62CHL1   C24 5756   0.232   6.103   4.284  0.3184  0.0495 -0.3047
   62CHL1  H24A 5757   0.121   6.114   4.280  0.0063 -2.2898  0.2350
   62CHL1  H24B 5758   0.266   6.004   4.246 -0.6020  0.3022 -1.8843
   62CHL1   C25 5759   0.276   6.112   4.429  0.7791  0.2508  0.5728
   62CHL1   H25 5760   0.386   6.122   4.430  0.8491 -0.3574 -0.1804
   62CHL1   C26 5761   0.212   6.238   4.496  0.4119  0.4205  0.5195
   62CHL1  H26A 5762   0.219   6.241   4.607 -1.0680 -1.2370  0.7063
   62CHL1  H26B 5763   0.261   6.329   4.455  0.4907  0.3451  0.4474
   62CHL1  H26C 5764   0.105   6.245   4.468  0.9689  1.0303 -1.6507
   62CHL1   C27 5765   0.236   5.986   4.506  0.3428 -0.2582  0.0996
   62CHL1  H27A 5766   0.249   5.995   4.616  2.0717 -2.9894  0.1966
   62CHL1  H27B 5767   0.128   5.965   4.489  0.4014 -1.0217  0.6397
   62CHL1  H27C 5768   0.307   5.903   4.487 -1.0617 -1.4568 -0.1303
   63CHL1    C3 5769   0.548   3.550   2.863  0.4959  0.3736 -0.0188
   63CHL1    H3 5770   0.447   3.513   2.838  1.1689 -0.8703 -0.9997
   63CHL1    O3 5771   0.622   3.591   2.743  1.0187 -0.0315 -0.1702
   63CHL1   H3' 5772   0.711   3.557   2.751  0.6194 -1.5944 -1.9265
   63CHL1    C4 5773   0.528   3.674   2.952  0.7936 -0.1971  0.8572
   63CHL1   H4A 5774   0.625   3.728   2.961 -0.0727  1.6420 -0.1276
   63CHL1   H4B 5775   0.459   3.735   2.889 -0.3911 -3.3762 -1.1853
   63CHL1    C5 5776   0.483   3.641   3.092 -0.1126  0.4307 -0.5039
   63CHL1    C6 5777   0.385   3.713   3.156  0.2276 -0.1408  0.0618
   63CHL1    H6 5778   0.327   3.795   3.110 -2.8711 -1.5077  1.2112
   63CHL1    C7 5779   0.330   3.690   3.290 -0.3606  0.7219 -0.3507
   63CHL1   H7A 5780   0.312   3.787   3.341 -0.5030  0.1154  0.7807
   63CHL1   H7B 5781   0.230   3.647   3.269  0.5535 -1.1421 -1.0673
   63CHL1    C8 5782   0.423   3.597   3.381 -0.2878  0.4802 -0.5295
   63CHL1    H8 5783   0.515   3.650   3.414 -0.3153 -1.1258  2.4888
   63CHL1   C14 5784   0.349   3.543   3.499  0.0057 -1.3458 -0.2053
   63CHL1   H14 5785   0.254   3.498   3.463 -1.4016  1.1996  0.0369
   63CHL1   C15 5786   0.316   3.650   3.605  0.8500 -0.2526  0.7228
   63CHL1  H15A 5787   0.408   3.711   3.598  0.4370  0.1975 -2.3420
   63CHL1  H15B 5788   0.229   3.714   3.578  1.7659  1.2882  1.3003
   63CHL1   C16 5789   0.284   3.569   3.732  0.3544 -0.1256 -0.2940
   63CHL1  H16A 5790   0.344   3.605   3.819 -0.0293  1.1107 -0.5239
   63CHL1  H16B 5791   0.177   3.566   3.762  0.7414 -0.6459  1.1170
   63CHL1   C17 5792   0.318   3.425   3.695  0.0548  0.3658  0.7689
   63CHL1   H17 5793   0.225   3.384   3.651  0.0885  0.3019  0.7576
   63CHL1   C13 5794   0.419   3.439   3.577 -0.0757  0.0658 -0.3346
   63CHL1   C18 5795   0.560   3.493   3.625  0.0882  0.0824 -0.4772
   63CHL1  H18A 5796   0.614   3.403   3.661  0.4607 -0.1547 -1.5850
   63CHL1  H18B 5797   0.624   3.543   3.549  2.1147 -1.5768  0.0238
   63CHL1  H18C 5798   0.550   3.560   3.713  0.3787 -0.1110 -0.2958
   63CHL1   C12 5799   0.443   3.322   3.491 -0.4567  0.1359 -0.1184
   63CHL1  H12A 5800   0.503   3.246   3.545 -3.2140 -1.8412  0.3647
   63CHL1  H12B 5801   0.345   3.280   3.459  0.3127  0.4640 -3.2195
   63CHL1   C11 5802   0.528   3.360   3.367  0.2564  0.5810 -0.6667
   63CHL1  H11A 5803   0.630   3.389   3.401  0.9106 -0.6878 -1.4968
   63CHL1  H11B 5804   0.529   3.264   3.312 -1.1036  0.5638 -0.6890
   63CHL1    C9 5805   0.465   3.479   3.286  0.2938  0.1194 -0.6193
   63CHL1    H9 5806   0.367   3.450   3.242 -0.2027  1.2399 -0.3039
   63CHL1   C10 5807   0.543   3.511   3.154  0.1891  0.4672 -0.1983
   63CHL1   C19 5808   0.685   3.559   3.201 -0.1580 -0.1692  0.7019
   63CHL1  H19A 5809   0.737   3.610   3.117 -2.9946 -2.1451 -2.5256
   63CHL1  H19B 5810   0.674   3.634   3.282  0.5617 -0.5868  1.2053
   63CHL1  H19C 5811   0.752   3.486   3.251  0.7531 -1.6100 -2.3453
   63CHL1    C1 5812   0.556   3.393   3.053  0.1516  0.2882 -0.3512
   63CHL1   H1A 5813   0.611   3.310   3.103 -0.8833  0.4461  1.1182
   63CHL1   H1B 5814   0.458   3.355   3.018 -0.6602  0.2560  1.7994
   63CHL1    C2 5815   0.633   3.437   2.929  0.5415  0.3782  0.7838
   63CHL1   H2A 5816   0.644   3.354   2.856 -2.1846 -0.8890  1.6828
   63CHL1   H2B 5817   0.728   3.491   2.949  0.6262  1.4740 -2.0961
   63CHL1   C20 5818   0.365   3.324   3.803  0.4527  0.2638  0.0574
   63CHL1   H20 5819   0.468   3.335   3.842  0.2552 -1.4181  1.1470
   63CHL1   C21 5820   0.357   3.173   3.761  0.4130 -0.6322 -0.4794
   63CHL1  H21A 5821   0.385   3.108   3.846  0.8682 -1.4575 -1.2463
   63CHL1  H21B 5822   0.440   3.145   3.693 -0.2984 -1.4719 -1.0317
   63CHL1  H21C 5823   0.259   3.159   3.709 -0.2466  0.6624  0.3650
   63CHL1   C22 5824   0.282   3.343   3.936  0.4745 -0.2181  0.3432
   63CHL1  H22A 5825   0.309   3.445   3.971 -2.3842  0.9054 -0.4382
   63CHL1  H22B 5826   0.175   3.347   3.906  0.7578  1.2792 -0.6087
   63CHL1   C23 5827   0.310   3.253   4.055  0.2514  0.2820  0.2722
   63CHL1  H23A 5828   0.243   3.284   4.139 -1.7721  2.1561 -1.9078
   63CHL1  H23B 5829   0.289   3.149   4.024  2.5006  0.3492 -1.6927
   63CHL1   C24 5830   0.458   3.258   4.108  0.5986  0.7019 -0.4323
   63CHL1  H24A 5831   0.530   3.224   4.031 -0.0371  2.2581 -1.7685
   63CHL1  H24B 5832   0.487   3.363   4.130 -1.0509  1.2274 -0.6411
   63CHL1   C25 5833   0.473   3.184   4.251  1.1203  0.0160  0.1398
   63CHL1   H25 5834   0.386   3.221   4.309  1.8168  2.3478 -0.1721
   63CHL1   C26 5835   0.468   3.031   4.236 -0.3533  0.6073 -0.6278
   63CHL1  H26A 5836   0.439   2.992   4.336 -0.4399 -0.9169 -1.2268
   63CHL1  H26B 5837   0.389   2.998   4.166 -1.9157  0.6181  1.0609
   63CHL1  H26C 5838   0.565   2.997   4.195 -0.1169 -2.2580  1.9386
   63CHL1   C27 5839   0.602   3.212   4.327  0.3787 -0.6572 -0.2995
   63CHL1  H27A 5840   0.582   3.168   4.427  0.1930  0.2505  0.0721
   63CHL1  H27B 5841   0.696   3.180   4.277  2.1170  0.9398  1.7229
   63CHL1  H27C 5842   0.613   3.322   4.342 -1.2367 -0.3610 -1.0182
   64CHL1    C3 5843   0.912   2.075   2.676  0.0057 -0.1268  0.0468
   64CHL1    H3 5844   0.876   2.180   2.685  1.4846  0.5000 -0.9738
   64CHL1    O3 5845   0.909   2.048   2.536 -0.0844  0.3817  0.0375
   64CHL1   H3' 5846   0.933   1.956   2.521  0.7323  0.8428 -1.6594
   64CHL1    C4 5847   1.058   2.079   2.738 -0.0112 -0.2627  0.5129
   64CHL1   H4A 5848   1.107   1.985   2.703 -2.6326 -0.6620 -2.6793
   64CHL1   H4B 5849   1.108   2.166   2.692  1.2174 -1.0431  0.3332
   64CHL1    C5 5850   1.059   2.094   2.889 -0.6021  0.4552 -0.3867
   64CHL1    C6 5851   1.143   2.182   2.948 -1.0989  0.1102 -0.1235
   64CHL1    H6 5852   1.223   2.230   2.889 -0.9736 -0.2593 -0.2614
   64CHL1    C7 5853   1.151   2.212   3.095  0.4287  0.5247  0.3340
   64CHL1   H7A 5854   1.255   2.226   3.131  1.6768 -2.2935 -1.7717
   64CHL1   H7B 5855   1.110   2.314   3.106 -1.8026 -0.0891 -1.4853
   64CHL1    C8 5856   1.058   2.111   3.178 -0.9456 -0.3276  0.3728
   64CHL1    H8 5857   1.119   2.019   3.185  0.1204  0.2681 -0.5820
   64CHL1   C14 5858   1.033   2.182   3.309 -0.2391 -0.5572 -1.3448
   64CHL1   H14 5859   0.970   2.271   3.287  0.1473 -0.1612 -0.8881
   64CHL1   C15 5860   1.164   2.237   3.382 -0.2463  0.1244  0.2383
   64CHL1  H15A 5861   1.259   2.180   3.386  0.3209  1.1000  2.3562
   64CHL1  H15B 5862   1.174   2.338   3.338 -2.4231 -0.4575 -1.8034
   64CHL1   C16 5863   1.115   2.245   3.534  0.3012 -0.0849  0.2192
   64CHL1  H16A 5864   1.184   2.180   3.591 -1.2702 -2.2585 -0.2076
   64CHL1  H16B 5865   1.120   2.351   3.567 -1.1933 -0.4365  1.6919
   64CHL1   C17 5866   0.974   2.188   3.532 -0.3831  0.7878 -0.1491
   64CHL1   H17 5867   0.907   2.273   3.507  1.7184  2.0945 -1.5416
   64CHL1   C13 5868   0.966   2.095   3.410  0.2462 -0.2310  0.1971
   64CHL1   C18 5869   1.042   1.966   3.438  0.2132  0.0950 -0.0829
   64CHL1  H18A 5870   1.017   1.902   3.526 -1.6402  1.1997  0.2503
   64CHL1  H18B 5871   1.024   1.887   3.362 -4.0969 -1.1592  1.9516
   64CHL1  H18C 5872   1.152   1.980   3.449 -0.1644  2.1158  1.9857
   64CHL1   C12 5873   0.828   2.063   3.352 -0.5968 -0.7491  0.1664
   64CHL1  H12A 5874   0.785   1.987   3.421  0.3134 -1.5163 -0.0962
   64CHL1  H12B 5875   0.764   2.154   3.353  0.1184  0.0126 -4.1893
   64CHL1   C11 5876   0.836   2.003   3.213  0.0028  0.1560 -0.1776
   64CHL1  H11A 5877   0.877   1.900   3.223  0.0190 -0.1242 -2.4902
   64CHL1  H11B 5878   0.733   1.994   3.172  0.1763 -1.4613 -0.2968
   64CHL1    C9 5879   0.932   2.082   3.114  0.1293 -0.0497  0.0800
   64CHL1    H9 5880   0.880   2.179   3.095 -1.1822 -0.9938 -1.4715
   64CHL1   C10 5881   0.949   2.020   2.968 -0.1346  0.0867  0.2513
   64CHL1   C19 5882   0.997   1.873   2.975 -0.9361 -0.8469 -0.8993
   64CHL1  H19A 5883   1.094   1.863   3.029 -1.6441 -1.0304  0.3848
   64CHL1  H19B 5884   0.931   1.810   3.039  0.8172 -1.1386  0.7126
   64CHL1  H19C 5885   1.018   1.824   2.878  0.9241  0.1365 -1.0339
   64CHL1    C1 5886   0.815   2.012   2.901 -0.1673 -0.0496  0.2605
   64CHL1   H1A 5887   0.757   1.927   2.942 -0.5279 -1.6079 -3.1368
   64CHL1   H1B 5888   0.759   2.104   2.927 -0.1052 -0.1190  0.6590
   64CHL1    C2 5889   0.818   1.979   2.748  0.1706  0.7637 -0.0879
   64CHL1   H2A 5890   0.713   1.994   2.714  0.4679  2.3216 -0.4097
   64CHL1   H2B 5891   0.856   1.876   2.732 -0.1076  0.4880  0.9566
   64CHL1   C20 5892   0.928   2.147   3.674  0.7203  0.0584  0.4976
   64CHL1   H20 5893   0.978   2.049   3.690 -0.7801 -0.4484  2.3743
   64CHL1   C21 5894   0.773   2.133   3.658  0.3804 -0.0046 -0.6978
   64CHL1  H21A 5895   0.748   2.033   3.616 -0.6971 -0.1223  0.1538
   64CHL1  H21B 5896   0.724   2.200   3.584 -0.4142 -0.9065 -1.0164
   64CHL1  H21C 5897   0.722   2.141   3.757  0.0078 -0.1907 -0.8705
   64CHL1   C22 5898   0.970   2.254   3.770 -0.1196  0.2269 -0.2470
   64CHL1  H22A 5899   1.080   2.268   3.775 -0.3138  2.2803 -0.6986
   64CHL1  H22B 5900   0.934   2.352   3.733  1.2059  0.6946 -0.3682
   64CHL1   C23 5901   0.923   2.241   3.917  0.1207 -0.1591 -0.2761
   64CHL1  H23A 5902   0.975   2.312   3.984 -1.2330  0.5046  0.1102
   64CHL1  H23B 5903   0.816   2.270   3.922  0.3963  0.9849 -0.6038
   64CHL1   C24 5904   0.953   2.100   3.970 -0.0424  1.0460 -0.2506
   64CHL1  H24A 5905   0.875   2.035   3.925  0.6704  1.1788 -1.7406
   64CHL1  H24B 5906   1.053   2.067   3.934 -0.0315  0.1888  0.5141
   64CHL1   C25 5907   0.954   2.082   4.120 -0.1120 -0.2081 -0.0694
   64CHL1   H25 5908   0.858   2.104   4.170  0.0029 -3.6129  1.9703
   64CHL1   C26 5909   0.984   1.941   4.159 -0.3426 -0.2252  0.1346
   64CHL1  H26A 5910   0.973   1.924   4.268  0.1337 -1.5670 -0.0001
   64CHL1  H26B 5911   0.912   1.876   4.105 -0.9322  2.2090 -2.2601
   64CHL1  H26C 5912   1.085   1.911   4.122 -0.3575  0.4230 -0.4622
   64CHL1   C27 5913   1.054   2.168   4.201  0.2785  0.0155  0.2743
   64CHL1  H27A 5914   1.040   2.155   4.311 -0.3194  2.6842  0.5770
   64CHL1  H27B 5915   1.153   2.136   4.161  0.7497  0.6085  0.9495
   64CHL1  H27C 5916   1.036   2.277   4.190 -1.0324  0.0060  1.9330
   65CHL1    C3 5917   6.761   0.955   2.944 -0.4104 -0.0449  0.2355
   65CHL1    H3 5918   6.870   0.975   2.940 -0.1657 -0.8284  2.0836
   65CHL1    O3 5919   6.706   0.920   2.815  0.0563 -0.4873 -0.3090
   65CHL1   H3' 5920   6.611   0.929   2.824  0.0696  1.4712 -1.4567
   65CHL1    C4 5921   6.739   0.836   3.046 -0.0471  0.3224  0.4648
   65CHL1   H4A 5922   6.634   0.798   3.047  0.4486 -1.4294 -2.1803
   65CHL1   H4B 5923   6.797   0.751   3.003 -0.4488  0.0929  0.3764
   65CHL1    C5 5924   6.760   0.886   3.188 -0.4254  0.5999  0.4148
   65CHL1    C6 5925   6.846   0.827   3.266  0.0660  0.0075  0.0741
   65CHL1    H6 5926   6.894   0.731   3.245 -1.9651 -1.2448  0.9078
   65CHL1    C7 5927   6.877   0.869   3.405 -0.3035 -0.3108 -0.9646
   65CHL1   H7A 5928   6.900   0.777   3.463 -0.8913  0.7598  1.0840
   65CHL1   H7B 5929   6.975   0.923   3.404  0.7188 -1.9071  1.7406
   65CHL1    C8 5930   6.773   0.971   3.467 -0.2974 -0.9155  0.1897
   65CHL1    H8 5931   6.685   0.906   3.487 -0.8535  0.0412  0.9877
   65CHL1   C14 5932   6.819   1.027   3.594 -0.9673 -0.2427 -0.4439
   65CHL1   H14 5933   6.910   1.085   3.571  1.0178 -1.2185  4.0563
   65CHL1   C15 5934   6.883   0.942   3.709  0.1796  0.2646  0.1621
   65CHL1  H15A 5935   6.863   0.833   3.698  1.2433  0.0760  0.0695
   65CHL1  H15B 5936   6.994   0.944   3.707  0.1831  0.1355  0.1878
   65CHL1   C16 5937   6.835   1.003   3.840  0.2290 -0.4396 -0.2181
   65CHL1  H16A 5938   6.740   0.954   3.869 -0.0724  1.6179  2.7634
   65CHL1  H16B 5939   6.912   0.988   3.919  1.7607 -0.3786 -1.6327
   65CHL1   C17 5940   6.791   1.149   3.799 -0.3706  0.8226  0.2129
   65CHL1   H17 5941   6.887   1.202   3.781 -0.1409  0.0315 -0.9518
   65CHL1   C13 5942   6.724   1.129   3.658 -0.3920  0.4027 -0.1745
   65CHL1   C18 5943   6.580   1.065   3.692 -0.3921 -0.2210  0.2606
   65CHL1  H18A 5944   6.532   1.026   3.600 -0.4517 -0.4417  0.3858
   65CHL1  H18B 5945   6.578   0.982   3.766  0.1302  0.8485  1.5167
   65CHL1  H18C 5946   6.513   1.148   3.725 -0.4478 -0.3406  0.4515
   65CHL1   C12 5947   6.716   1.248   3.565  0.6026 -0.2181 -0.0119
   65CHL1  H12A 5948   6.644   1.313   3.619 -0.5588  0.6599 -2.5023
   65CHL1  H12B 5949   6.815   1.300   3.568 -0.8058  2.7423 -1.2517
   65CHL1   C11 5950   6.664   1.196   3.429 -0.5668 -0.1558  0.1815
   65CHL1  H11A 5951   6.561   1.158   3.448 -1.6886  0.6219 -3.4222
   65CHL1  H11B 5952   6.669   1.288   3.366  0.2031 -0.0405  0.4114
   65CHL1    C9 5953   6.750   1.081   3.366 -0.0560  0.8456  0.9647
   65CHL1    H9 5954   6.850   1.126   3.351  0.2997 -0.0590  0.5448
   65CHL1   C10 5955   6.699   1.019   3.234 -0.0444 -0.2209 -0.4569
   65CHL1   C19 5956   6.549   0.973   3.255 -0.1836 -0.0964  0.4158
   65CHL1  H19A 5957   6.487   1.050   3.305  0.6307 -0.9366  2.8681
   65CHL1  H19B 5958   6.503   0.961   3.154 -0.9243 -1.6400  0.9027
   65CHL1  H19C 5959   6.538   0.869   3.294 -0.3131 -1.0709 -2.0162
   65CHL1    C1 5960   6.721   1.129   3.123  0.0346  0.3366  0.3927
   65CHL1   H1A 5961   6.652   1.214   3.144 -0.7894  0.0775 -1.1249
   65CHL1   H1B 5962   6.826   1.165   3.130  0.3425  0.0546 -1.9984
   65CHL1    C2 5963   6.685   1.083   2.978 -0.0487  0.1754 -0.9125
   65CHL1   H2A 5964   6.711   1.169   2.914 -0.7572  0.9009 -0.2461
   65CHL1   H2B 5965   6.577   1.057   2.971  0.7684 -3.3581 -3.3008
   65CHL1   C20 5966   6.704   1.227   3.902 -0.4643 -0.8437 -0.6180
   65CHL1   H20 5967   6.640   1.302   3.850  1.0559  1.9085  1.2323
   65CHL1   C21 5968   6.819   1.310   3.970 -0.7717 -0.1152 -0.1408
   65CHL1  H21A 5969   6.880   1.236   4.026 -1.1181 -0.8321 -0.6880
   65CHL1  H21B 5970   6.785   1.391   4.038  0.9400  1.5903 -1.2134
   65CHL1  H21C 5971   6.886   1.353   3.892 -1.0355 -0.8691 -0.8031
   65CHL1   C22 5972   6.611   1.166   4.006  0.6306  1.0315  0.6967
   65CHL1  H22A 5973   6.527   1.104   3.967 -0.5174  3.5139 -1.1169
   65CHL1  H22B 5974   6.669   1.101   4.074  2.1361 -1.1540 -2.4009
   65CHL1   C23 5975   6.541   1.257   4.100 -0.2940 -0.4673  0.1527
   65CHL1  H23A 5976   6.608   1.298   4.178  0.5526 -1.9010  0.2043
   65CHL1  H23B 5977   6.494   1.342   4.046 -0.0389  0.5368  1.4419
   65CHL1   C24 5978   6.417   1.186   4.170 -0.0225 -0.1502 -0.0714
   65CHL1  H24A 5979   6.356   1.140   4.090  0.5902 -0.2060 -0.5090
   65CHL1  H24B 5980   6.445   1.097   4.230 -0.1734 -0.7309 -0.8505
   65CHL1   C25 5981   6.335   1.278   4.254  0.0244 -0.1869  0.1619
   65CHL1   H25 5982   6.317   1.367   4.190  1.2007  0.1846  0.3250
   65CHL1   C26 5983   6.197   1.220   4.285 -0.1535 -0.1202 -0.4287
   65CHL1  H26A 5984   6.144   1.181   4.196  0.6775 -2.4063  0.0019
   65CHL1  H26B 5985   6.211   1.135   4.356 -0.0845  0.2281 -0.0181
   65CHL1  H26C 5986   6.124   1.286   4.337 -0.3003 -0.5674 -0.0658
   65CHL1   C27 5987   6.389   1.323   4.392 -0.3133  0.3749 -1.1225
   65CHL1  H27A 5988   6.383   1.233   4.458  0.7669 -0.7737 -2.5002
   65CHL1  H27B 5989   6.496   1.354   4.385  0.0292 -0.6017 -0.4370
   65CHL1  H27C 5990   6.323   1.406   4.425  0.6075  1.5665 -2.1826
   66CHL1    C3 5991   4.166   4.670   2.652 -0.1602  0.3028  0.6068
   66CHL1    H3 5992   4.270   4.632   2.643 -0.5325 -0.5297 -0.4640
   66CHL1    O3 5993   4.137   4.684   2.514  0.4858 -0.2913 -0.1619
   66CHL1   H3' 5994   4.148   4.778   2.496  0.7741 -0.2976 -0.0334
   66CHL1    C4 5995   4.084   4.556   2.716 -0.6424 -0.3839  0.4618
   66CHL1   H4A 5996   3.982   4.598   2.707  0.6101  2.9995  0.3536
   66CHL1   H4B 5997   4.093   4.459   2.663 -0.8340 -0.3828  0.4254
   66CHL1    C5 5998   4.137   4.547   2.856 -0.4584 -0.3482 -0.0224
   66CHL1    C6 5999   4.208   4.441   2.893 -0.0118  0.4906 -0.4113
   66CHL1    H6 6000   4.215   4.355   2.823 -1.7709 -0.3984  0.4536
   66CHL1    C7 6001   4.259   4.416   3.034 -0.7992 -0.3793  0.7613
   66CHL1   H7A 6002   4.257   4.311   3.069 -1.0730 -0.3745  0.7577
   66CHL1   H7B 6003   4.368   4.427   3.017 -0.7358 -2.4577 -0.5006
   66CHL1    C8 6004   4.194   4.514   3.142  0.1148  0.8647 -0.0094
   66CHL1    H8 6005   4.096   4.469   3.171  0.8112 -0.3638  0.4825
   66CHL1   C14 6006   4.271   4.511   3.278  0.5337  0.9245 -0.3176
   66CHL1   H14 6007   4.367   4.562   3.256  0.8335 -0.1393 -1.5796
   66CHL1   C15 6008   4.305   4.370   3.336 -0.8101 -0.4121  0.5353
   66CHL1  H15A 6009   4.227   4.294   3.315 -3.1661  1.6560  1.2025
   66CHL1  H15B 6010   4.400   4.333   3.293 -1.8420 -0.4701 -1.8161
   66CHL1   C16 6011   4.332   4.396   3.485  0.3168 -0.5391  0.5296
   66CHL1  H16A 6012   4.249   4.339   3.533 -0.5549 -2.0265 -2.4805
   66CHL1  H16B 6013   4.434   4.366   3.516  0.0702 -1.1730  0.7517
   66CHL1   C17 6014   4.311   4.553   3.510 -0.2705  0.5675  0.3724
   66CHL1   H17 6015   4.413   4.594   3.489  0.1408  2.0951  4.3988
   66CHL1   C13 6016   4.213   4.594   3.392 -0.1106  0.1577 -0.3049
   66CHL1   C18 6017   4.074   4.540   3.434 -0.3898  0.1445  0.4608
   66CHL1  H18A 6018   4.011   4.543   3.343  0.4765  0.4605 -0.1435
   66CHL1  H18B 6019   4.075   4.435   3.468  1.3656  0.0392  0.1823
   66CHL1  H18C 6020   4.033   4.615   3.505 -1.5727  1.3486 -1.3840
   66CHL1   C12 6021   4.208   4.742   3.346 -0.5177  0.5694  0.6827
   66CHL1  H12A 6022   4.159   4.802   3.425 -2.4767 -0.5808  0.3901
   66CHL1  H12B 6023   4.311   4.782   3.332 -0.4441  0.6774  1.4775
   66CHL1   C11 6024   4.128   4.744   3.215  0.3017  0.9196  0.9965
   66CHL1  H11A 6025   4.023   4.711   3.232 -0.1949  0.9131 -1.6159
   66CHL1  H11B 6026   4.102   4.850   3.193  1.5980  1.2012  0.7548
   66CHL1    C9 6027   4.182   4.657   3.090  0.6069  0.1478 -0.3995
   66CHL1    H9 6028   4.286   4.692   3.075  0.1952  1.3205 -0.6501
   66CHL1   C10 6029   4.116   4.669   2.956 -0.2854 -0.1382  0.2929
   66CHL1   C19 6030   3.957   4.688   2.978 -0.1079  0.5802  0.1769
   66CHL1  H19A 6031   3.916   4.701   2.876  2.0527 -0.2546 -0.8667
   66CHL1  H19B 6032   3.923   4.590   3.018 -0.4359  0.5226 -0.2385
   66CHL1  H19C 6033   3.936   4.775   3.044 -0.7123 -1.9000  3.5417
   66CHL1    C1 6034   4.175   4.797   2.878  1.0081  0.4400  0.6269
   66CHL1   H1A 6035   4.122   4.886   2.917 -2.1334 -0.0488 -2.0887
   66CHL1   H1B 6036   4.284   4.812   2.893  1.5827 -1.8689 -0.6976
   66CHL1    C2 6037   4.145   4.797   2.729 -0.1475 -1.1823 -0.1857
   66CHL1   H2A 6038   4.203   4.876   2.677 -0.6730 -0.9897 -0.4855
   66CHL1   H2B 6039   4.035   4.814   2.726  0.2876  2.4910 -0.7795
   66CHL1   C20 6040   4.287   4.582   3.652 -0.0703  0.5541 -0.4671
   66CHL1   H20 6041   4.180   4.563   3.672  0.2258 -1.0327 -0.3064
   66CHL1   C21 6042   4.313   4.735   3.680  0.9316 -0.7818  0.1646
   66CHL1  H21A 6043   4.297   4.766   3.785  1.7261 -0.8849  0.3257
   66CHL1  H21B 6044   4.243   4.791   3.614  1.4043 -2.6058 -2.0415
   66CHL1  H21C 6045   4.417   4.758   3.649  1.1780 -1.1418  0.7184
   66CHL1   C22 6046   4.381   4.504   3.752 -0.4877  0.1508 -0.5180
   66CHL1  H22A 6047   4.384   4.396   3.726  1.4264 -0.1443  0.6966
   66CHL1  H22B 6048   4.487   4.537   3.747 -0.4550  0.6347  2.0988
   66CHL1   C23 6049   4.334   4.510   3.895 -0.5723  0.1193 -0.3071
   66CHL1  H23A 6050   4.339   4.610   3.943 -0.6955  0.1917 -0.4447
   66CHL1  H23B 6051   4.226   4.483   3.895 -0.5290 -0.0758  0.6244
   66CHL1   C24 6052   4.403   4.411   3.984  0.1487 -0.2557  0.0109
   66CHL1  H24A 6053   4.405   4.319   3.921 -2.1004  0.5393 -1.3258
   66CHL1  H24B 6054   4.507   4.450   3.983 -0.5637  1.7246 -1.0286
   66CHL1   C25 6055   4.347   4.389   4.125  0.7705 -0.0133 -0.2190
   66CHL1   H25 6056   4.245   4.346   4.118  0.1477  1.4572 -0.4504
   66CHL1   C26 6057   4.442   4.295   4.203  0.4489 -0.3316  0.2640
   66CHL1  H26A 6058   4.440   4.191   4.164  1.0148  0.5767 -2.3912
   66CHL1  H26B 6059   4.549   4.322   4.201  0.9311 -1.9331  1.6374
   66CHL1  H26C 6060   4.406   4.302   4.308 -0.8984  3.5636 -0.2980
   66CHL1   C27 6061   4.335   4.523   4.204  0.7122  0.6368  0.5414
   66CHL1  H27A 6062   4.321   4.494   4.311  2.7097 -1.9825  0.1883
   66CHL1  H27B 6063   4.250   4.582   4.163 -0.2296 -0.7579  0.4159
   66CHL1  H27C 6064   4.424   4.589   4.202  0.0661  1.5138 -0.6418
   67CHL1    C3 6065   1.775   3.329   2.949 -0.2462  0.5987  0.0245
   67CHL1    H3 6066   1.686   3.289   3.003 -0.9949  2.1860  0.0173
   67CHL1    O3 6067   1.759   3.303   2.805 -0.2112  0.1250 -0.6888
   67CHL1   H3' 6068   1.827   3.360   2.769 -0.7028  1.2577  0.1096
   67CHL1    C4 6069   1.796   3.482   2.976 -0.2658 -0.3741  0.0832
   67CHL1   H4A 6070   1.862   3.523   2.897 -0.0667 -2.2997 -0.7971
   67CHL1   H4B 6071   1.695   3.509   2.941 -0.4022 -0.4920  0.3811
   67CHL1    C5 6072   1.824   3.513   3.117 -0.3700 -0.1773 -0.9430
   67CHL1    C6 6073   1.754   3.605   3.183 -0.3463  0.1433  0.4002
   67CHL1    H6 6074   1.679   3.665   3.129 -0.4849 -0.3376  0.0561
   67CHL1    C7 6075   1.778   3.644   3.322 -0.4431 -0.1797  0.2455
   67CHL1   H7A 6076   1.784   3.755   3.323  0.4963 -0.1768 -1.2776
   67CHL1   H7B 6077   1.692   3.603   3.379  0.2522 -0.3750  1.1728
   67CHL1    C8 6078   1.914   3.584   3.381 -0.0394  0.1249 -0.3446
   67CHL1    H8 6079   2.002   3.643   3.346  1.9423 -2.9245 -0.8342
   67CHL1   C14 6080   1.905   3.582   3.529 -0.2259 -0.0139  0.4757
   67CHL1   H14 6081   1.821   3.513   3.550 -0.4258 -0.7420 -2.3149
   67CHL1   C15 6082   1.877   3.716   3.598  0.0464  0.1618 -0.5941
   67CHL1  H15A 6083   1.960   3.777   3.555 -0.4076 -0.0534 -1.8243
   67CHL1  H15B 6084   1.775   3.756   3.580 -0.0680 -0.4998 -1.4701
   67CHL1   C16 6085   1.898   3.691   3.747 -0.1427  0.9492  0.0814
   67CHL1  H16A 6086   1.964   3.770   3.789  1.4521 -0.3860  0.1496
   67CHL1  H16B 6087   1.803   3.692   3.805  0.3218  0.0701  0.8838
   67CHL1   C17 6088   1.975   3.555   3.749 -0.4185  0.3796  0.8424
   67CHL1   H17 6089   1.892   3.484   3.768 -0.4597 -0.4335 -1.9571
   67CHL1   C13 6090   2.019   3.528   3.599 -0.0870  0.2621 -0.4112
   67CHL1   C18 6091   2.151   3.600   3.581 -0.0766  0.3094 -0.2800
   67CHL1  H18A 6092   2.178   3.601   3.473  0.5626 -0.1972 -0.1352
   67CHL1  H18B 6093   2.153   3.703   3.621  0.3300  0.1446  0.1367
   67CHL1  H18C 6094   2.229   3.546   3.639  0.2486  0.2419 -0.7711
   67CHL1   C12 6095   2.020   3.382   3.566 -0.2266  0.1998  0.3169
   67CHL1  H12A 6096   2.104   3.345   3.628 -0.2931  1.6882  1.3506
   67CHL1  H12B 6097   1.926   3.335   3.604  1.0450 -0.7557  2.4519
   67CHL1   C11 6098   2.031   3.352   3.415 -0.5793 -0.6407 -0.0303
   67CHL1  H11A 6099   2.136   3.379   3.390 -0.5993 -1.8955 -1.5944
   67CHL1  H11B 6100   2.016   3.243   3.399 -0.4799 -0.6514 -0.0529
   67CHL1    C9 6101   1.928   3.437   3.330  0.3337  0.0027 -0.2886
   67CHL1    H9 6102   1.843   3.371   3.357  1.3133 -1.4465 -0.5852
   67CHL1   C10 6103   1.934   3.421   3.177 -0.2550  0.2593  0.8315
   67CHL1   C19 6104   2.080   3.459   3.132 -0.0433 -0.8953  0.1254
   67CHL1  H19A 6105   2.077   3.444   3.022  0.3005  0.3374 -0.0698
   67CHL1  H19B 6106   2.104   3.566   3.150 -0.6574 -0.0894 -3.1795
   67CHL1  H19C 6107   2.159   3.394   3.175  0.4223 -0.3340  0.1264
   67CHL1    C1 6108   1.920   3.267   3.152  0.3516 -0.2429 -0.9613
   67CHL1   H1A 6109   2.007   3.205   3.182  0.5199 -1.0128 -2.8895
   67CHL1   H1B 6110   1.822   3.243   3.198 -0.2573  2.6618 -0.5264
   67CHL1    C2 6111   1.887   3.240   3.006 -0.0817  0.5818  0.2614
   67CHL1   H2A 6112   1.857   3.135   2.985 -0.0238  1.1615 -3.2826
   67CHL1   H2B 6113   1.975   3.261   2.942  1.5817  0.8893  2.4899
   67CHL1   C20 6114   2.073   3.543   3.868 -0.4156  0.4157 -0.0728
   67CHL1   H20 6115   2.148   3.623   3.849  1.7525 -1.5344 -0.1949
   67CHL1   C21 6116   2.140   3.405   3.879  0.3533  0.3195  0.2177
   67CHL1  H21A 6117   2.068   3.321   3.873  0.7668 -0.0204 -0.1009
   67CHL1  H21B 6118   2.200   3.390   3.971  1.0054 -0.9319 -0.3829
   67CHL1  H21C 6119   2.210   3.384   3.794 -1.5466 -0.6460 -1.1942
   67CHL1   C22 6120   2.000   3.582   4.000 -0.0620 -0.4587 -0.1838
   67CHL1  H22A 6121   1.981   3.691   3.994 -1.1557 -0.6229 -0.0212
   67CHL1  H22B 6122   1.905   3.524   4.005 -1.2927  1.5281  0.9368
   67CHL1   C23 6123   2.053   3.566   4.145  0.0478 -0.3507 -0.2152
   67CHL1  H23A 6124   2.074   3.458   4.157  1.9362  0.1258  1.0026
   67CHL1  H23B 6125   2.146   3.624   4.161  1.2977 -2.2287 -0.4186
   67CHL1   C24 6126   1.942   3.604   4.248 -0.2187  0.2626 -0.3523
   67CHL1  H24A 6127   1.917   3.709   4.223 -0.1735 -0.3418 -3.3718
   67CHL1  H24B 6128   1.855   3.541   4.220  0.1427  0.0820 -1.0994
   67CHL1   C25 6129   1.969   3.583   4.401  0.6202 -0.2069 -0.3395
   67CHL1   H25 6130   1.993   3.476   4.419 -1.2514 -0.9484 -1.8921
   67CHL1   C26 6131   2.081   3.673   4.441 -0.1418  0.1198  0.1219
   67CHL1  H26A 6132   2.101   3.671   4.550 -0.7008  0.8977  0.2426
   67CHL1  H26B 6133   2.172   3.627   4.396  1.0400  2.2434  0.2428
   67CHL1  H26C 6134   2.083   3.775   4.399 -0.6255  0.3554  0.6650
   67CHL1   C27 6135   1.842   3.615   4.484 -0.1375  0.2971  0.2824
   67CHL1  H27A 6136   1.856   3.601   4.593  1.1052  0.0992  0.1065
   67CHL1  H27B 6137   1.820   3.721   4.457 -0.0417 -0.2241 -2.0214
   67CHL1  H27C 6138   1.751   3.560   4.451 -1.2061  0.8820  2.1123
   68CHL1    C3 6139   1.907   5.436   2.779  0.0409  0.5552  0.1076
   68CHL1    H3 6140   1.841   5.346   2.782  1.0676 -0.2040  0.7933
   68CHL1    O3 6141   1.939   5.466   2.646  0.1213 -0.0517  0.2004
   68CHL1   H3' 6142   1.961   5.381   2.608 -1.0969 -0.2059 -0.2164
   68CHL1    C4 6143   1.828   5.559   2.840 -0.3451  0.3577 -0.2219
   68CHL1   H4A 6144   1.876   5.654   2.807  1.5734 -0.7594 -0.7466
   68CHL1   H4B 6145   1.729   5.574   2.792 -1.6617  0.3595  2.3338
   68CHL1    C5 6146   1.805   5.555   2.994 -0.5484 -0.0307  0.0948
   68CHL1    C6 6147   1.680   5.580   3.043  0.4357 -0.2344 -0.0247
   68CHL1    H6 6148   1.603   5.615   2.973  3.1612  2.8715 -1.7747
   68CHL1    C7 6149   1.644   5.552   3.179  0.7105 -0.1688 -0.3906
   68CHL1   H7A 6150   1.574   5.631   3.212 -0.7644 -1.1700 -1.0134
   68CHL1   H7B 6151   1.584   5.459   3.184 -0.5300  0.5754 -1.0423
   68CHL1    C8 6152   1.765   5.546   3.276 -0.0917  0.5390 -0.0120
   68CHL1    H8 6153   1.807   5.649   3.281  2.0759 -0.3349  3.1107
   68CHL1   C14 6154   1.718   5.499   3.410  0.0528 -0.4010  0.4075
   68CHL1   H14 6155   1.687   5.392   3.400 -0.5617 -0.4339  2.2868
   68CHL1   C15 6156   1.594   5.562   3.482  0.0225  0.3605  0.2243
   68CHL1  H15A 6157   1.604   5.671   3.463  0.1196  0.1368 -1.0969
   68CHL1  H15B 6158   1.496   5.519   3.450 -0.8804  2.8577 -0.5691
   68CHL1   C16 6159   1.613   5.521   3.627  0.2167 -0.3025  0.2237
   68CHL1  H16A 6160   1.617   5.615   3.687  0.6114 -0.1053 -0.1040
   68CHL1  H16B 6161   1.539   5.449   3.667  0.1238 -0.9480 -1.0770
   68CHL1   C17 6162   1.752   5.454   3.639 -0.4020  0.4172 -0.6218
   68CHL1   H17 6163   1.727   5.348   3.619  0.2930  0.2003 -0.3737
   68CHL1   C13 6164   1.828   5.505   3.518 -0.0264  0.8001  0.1424
   68CHL1   C18 6165   1.882   5.644   3.538 -0.0669 -0.6360 -0.0222
   68CHL1  H18A 6166   1.801   5.712   3.570 -2.3642 -2.6895 -1.1172
   68CHL1  H18B 6167   1.965   5.649   3.612  1.9214 -3.3926 -1.8563
   68CHL1  H18C 6168   1.923   5.680   3.441  0.4137 -1.3979 -0.1115
   68CHL1   C12 6169   1.942   5.405   3.470  0.9504 -0.0344  0.5880
   68CHL1  H12A 6170   2.026   5.411   3.543 -0.2685  2.0711  1.9093
   68CHL1  H12B 6171   1.896   5.304   3.473  1.3395 -0.1926  2.0897
   68CHL1   C11 6172   1.996   5.439   3.328  0.4274 -0.3189 -0.4881
   68CHL1  H11A 6173   2.046   5.537   3.339  0.9118 -0.8261  4.3347
   68CHL1  H11B 6174   2.078   5.369   3.303  0.5652  0.5070 -2.4672
   68CHL1    C9 6175   1.881   5.459   3.228  0.3231 -0.0970 -0.2888
   68CHL1    H9 6176   1.847   5.353   3.217 -1.0862  0.4580 -1.6519
   68CHL1   C10 6177   1.921   5.500   3.081  0.0529  1.1033 -0.1528
   68CHL1   C19 6178   2.029   5.611   3.096  0.0941 -0.2046 -0.3742
   68CHL1  H19A 6179   1.984   5.699   3.149 -1.3604 -1.0394 -0.1530
   68CHL1  H19B 6180   2.118   5.572   3.150 -1.0440 -1.3089  0.7803
   68CHL1  H19C 6181   2.065   5.644   2.997  1.6922  1.2633  0.6387
   68CHL1    C1 6182   1.981   5.379   3.015 -0.0977  0.3200 -0.4134
   68CHL1   H1A 6183   2.064   5.336   3.075  0.0103 -0.2400 -0.9542
   68CHL1   H1B 6184   1.912   5.294   2.998  0.7785 -0.9405  1.8442
   68CHL1    C2 6185   2.029   5.407   2.870 -0.3632 -0.0492  0.5427
   68CHL1   H2A 6186   2.085   5.315   2.841 -0.1951  0.7048 -1.6996
   68CHL1   H2B 6187   2.105   5.488   2.873 -0.2715 -0.1136  3.6672
   68CHL1   C20 6188   1.821   5.463   3.772 -0.3820  0.6766 -0.1727
   68CHL1   H20 6189   1.892   5.549   3.767  1.5846 -0.9069 -0.6193
   68CHL1   C21 6190   1.912   5.332   3.791 -0.0129  0.1547  0.0061
   68CHL1  H21A 6191   1.999   5.362   3.853  0.4696  2.8410 -1.7707
   68CHL1  H21B 6192   1.940   5.298   3.689  0.2624  1.2644 -0.3009
   68CHL1  H21C 6193   1.853   5.246   3.829 -0.0548  0.2393  0.1313
   68CHL1   C22 6194   1.734   5.487   3.902 -0.2113 -0.3464  0.3216
   68CHL1  H22A 6195   1.674   5.580   3.895 -1.6487 -0.9190  3.4287
   68CHL1  H22B 6196   1.657   5.407   3.911  0.3371 -0.9999 -0.5932
   68CHL1   C23 6197   1.810   5.509   4.033  0.2280 -0.2891  1.0327
   68CHL1  H23A 6198   1.730   5.553   4.096 -0.9413  0.0733 -0.6422
   68CHL1  H23B 6199   1.844   5.409   4.067  0.3552 -1.0736 -1.2706
   68CHL1   C24 6200   1.929   5.606   4.017 -0.2326 -0.3684  0.4755
   68CHL1  H24A 6201   2.001   5.578   3.937 -1.0908  0.7485 -0.7320
   68CHL1  H24B 6202   1.899   5.710   3.991  2.9459  0.7332  0.6499
   68CHL1   C25 6203   2.016   5.610   4.147  0.2387  0.0026  0.1780
   68CHL1   H25 6204   1.943   5.612   4.230  1.2292  2.5210  1.0729
   68CHL1   C26 6205   2.108   5.478   4.158  0.1726  0.7884 -0.0358
   68CHL1  H26A 6206   2.200   5.489   4.096  1.1594 -0.0379  1.2168
   68CHL1  H26B 6207   2.142   5.475   4.264  1.7949 -0.1378 -0.5476
   68CHL1  H26C 6208   2.052   5.385   4.135  1.4862 -0.0319 -0.0435
   68CHL1   C27 6209   2.107   5.736   4.139 -0.5576 -0.4055  0.5070
   68CHL1  H27A 6210   2.170   5.727   4.047 -1.0167  0.3503  0.1123
   68CHL1  H27B 6211   2.047   5.825   4.112 -3.0155 -1.9516  0.5783
   68CHL1  H27C 6212   2.160   5.755   4.235  1.0226 -1.0336 -0.1978
   69CHL1    C3 6213   5.790   4.202   3.036 -0.0274 -0.3652 -1.8791
   69CHL1    H3 6214   5.778   4.093   3.049 -0.1967 -0.1611 -0.0261
   69CHL1    O3 6215   5.823   4.215   2.905  0.1542 -0.2267  0.3985
   69CHL1   H3' 6216   5.897   4.275   2.906  0.4167 -0.4754 -1.5146
   69CHL1    C4 6217   5.658   4.274   3.074  0.0387 -0.1519 -0.4423
   69CHL1   H4A 6218   5.682   4.382   3.069  0.1678 -0.1473  0.1145
   69CHL1   H4B 6219   5.570   4.257   3.009 -0.2739 -0.7434  0.1202
   69CHL1    C5 6220   5.622   4.261   3.228 -0.6477  1.2596  0.0467
   69CHL1    C6 6221   5.497   4.208   3.266 -0.1957  0.0822 -0.4794
   69CHL1    H6 6222   5.421   4.171   3.196 -1.9121  1.2679  0.6874
   69CHL1    C7 6223   5.462   4.208   3.410 -0.5983  0.4136 -0.2508
   69CHL1   H7A 6224   5.363   4.254   3.430  0.9649  3.2990  1.3401
   69CHL1   H7B 6225   5.454   4.104   3.449  0.0891  0.8387  1.0752
   69CHL1    C8 6226   5.561   4.281   3.508  0.3653  0.0689 -0.8208
   69CHL1    H8 6227   5.539   4.390   3.500 -1.8987 -0.1888  0.8853
   69CHL1   C14 6228   5.531   4.252   3.659  0.4025 -0.1171 -0.4983
   69CHL1   H14 6229   5.561   4.146   3.670 -1.0769 -0.4511  0.7646
   69CHL1   C15 6230   5.387   4.265   3.709 -0.4755 -0.2874 -0.0880
   69CHL1  H15A 6231   5.335   4.359   3.682 -0.2395  0.0691  0.6728
   69CHL1  H15B 6232   5.320   4.181   3.684  1.5190 -2.5638  1.6801
   69CHL1   C16 6233   5.407   4.287   3.865  0.6555  0.2593  0.6764
   69CHL1  H16A 6234   5.388   4.395   3.882 -0.4692  0.4189 -1.2895
   69CHL1  H16B 6235   5.344   4.223   3.931  2.7164 -0.8504  1.6833
   69CHL1   C17 6236   5.562   4.262   3.891  0.0055 -0.6931 -0.0439
   69CHL1   H17 6237   5.569   4.151   3.899  0.1845 -0.9081 -2.3429
   69CHL1   C13 6238   5.626   4.316   3.760  0.5835 -0.2551 -0.4832
   69CHL1   C18 6239   5.630   4.467   3.760 -0.6048  0.1678  0.0728
   69CHL1  H18A 6240   5.530   4.513   3.772 -0.2750  0.7147  0.8027
   69CHL1  H18B 6241   5.693   4.500   3.846 -1.4010  1.6159  0.1417
   69CHL1  H18C 6242   5.668   4.504   3.662 -1.6815  0.7484 -0.1449
   69CHL1   C12 6243   5.766   4.264   3.728  0.0178 -0.1897 -0.2867
   69CHL1  H12A 6244   5.843   4.303   3.798 -0.8760 -0.5674  0.9355
   69CHL1  H12B 6245   5.767   4.154   3.741  1.8536 -0.1694 -0.0109
   69CHL1   C11 6246   5.810   4.287   3.583 -0.4550  0.0258 -0.0647
   69CHL1  H11A 6247   5.854   4.388   3.566 -0.3744  0.2742  1.4858
   69CHL1  H11B 6248   5.898   4.219   3.580 -1.1873 -1.0271  1.1941
   69CHL1    C9 6249   5.705   4.249   3.479  0.0138  0.6025  0.7086
   69CHL1    H9 6250   5.692   4.139   3.483 -2.2983  0.8666  2.4431
   69CHL1   C10 6251   5.736   4.290   3.330 -0.6237 -0.2796 -0.6060
   69CHL1   C19 6252   5.768   4.440   3.327 -0.2361 -0.3021 -0.2571
   69CHL1  H19A 6253   5.697   4.502   3.386 -1.2110 -1.4738 -0.1575
   69CHL1  H19B 6254   5.871   4.466   3.360  0.0021  0.0184 -1.2403
   69CHL1  H19C 6255   5.763   4.480   3.224  0.1846  1.5941  0.4233
   69CHL1    C1 6256   5.867   4.223   3.280 -0.2319  0.1264 -0.1989
   69CHL1   H1A 6257   5.954   4.259   3.338 -2.2676  2.4534  1.6127
   69CHL1   H1B 6258   5.848   4.113   3.283  0.3888 -0.0100 -0.8447
   69CHL1    C2 6259   5.901   4.252   3.133  0.3350  0.4249  0.4422
   69CHL1   H2A 6260   5.994   4.202   3.100  1.3402  1.4614  1.6040
   69CHL1   H2B 6261   5.934   4.358   3.132 -1.6336  1.1099 -1.7837
   69CHL1   C20 6262   5.607   4.325   4.028  0.5072  0.5061  0.5136
   69CHL1   H20 6263   5.606   4.435   4.017  3.1116  0.7732  2.1880
   69CHL1   C21 6264   5.749   4.274   4.064 -0.2835  0.1519  0.1194
   69CHL1  H21A 6265   5.773   4.194   3.991 -2.8250 -1.1951  0.6431
   69CHL1  H21B 6266   5.770   4.232   4.165 -1.2234 -3.2200 -0.9407
   69CHL1  H21C 6267   5.830   4.344   4.036  1.3432 -1.9079 -0.6363
   69CHL1   C22 6268   5.509   4.290   4.141 -0.9144 -0.8673  0.1815
   69CHL1  H22A 6269   5.458   4.193   4.120 -0.9858 -0.5684 -1.1286
   69CHL1  H22B 6270   5.571   4.274   4.232 -1.0251  2.0884  0.8659
   69CHL1   C23 6271   5.386   4.391   4.175  0.6557  0.3403  0.2399
   69CHL1  H23A 6272   5.431   4.489   4.199 -0.4884  1.0802 -0.5393
   69CHL1  H23B 6273   5.320   4.388   4.085  1.9703  0.8262 -0.7703
   69CHL1   C24 6274   5.300   4.335   4.291 -0.5268  0.4380 -0.2649
   69CHL1  H24A 6275   5.285   4.229   4.261 -1.2461  0.6258 -0.5916
   69CHL1  H24B 6276   5.366   4.335   4.380  0.7943 -0.3106 -1.1946
   69CHL1   C25 6277   5.170   4.408   4.316  0.2488  0.1332 -0.2830
   69CHL1   H25 6278   5.083   4.378   4.253  0.0029 -1.4655  0.7631
   69CHL1   C26 6279   5.117   4.397   4.460  0.0635 -0.0856  0.0826
   69CHL1  H26A 6280   5.201   4.406   4.532  1.3327 -0.2345 -1.3214
   69CHL1  H26B 6281   5.034   4.469   4.479  0.2732  0.5117 -1.1316
   69CHL1  H26C 6282   5.074   4.295   4.460  0.0855 -0.1050 -0.7857
   69CHL1   C27 6283   5.179   4.560   4.291  0.2845 -0.1155  0.0555
   69CHL1  H27A 6284   5.205   4.582   4.185 -1.3041  2.2162  0.0866
   69CHL1  H27B 6285   5.086   4.616   4.311  1.2958  0.7455  2.8215
   69CHL1  H27C 6286   5.254   4.602   4.362 -2.0086  1.9974  1.3574
   70CHL1    C3 6287   2.286   5.938   2.759 -0.6136  0.5924  1.0572
   70CHL1    H3 6288   2.236   6.036   2.739 -0.2624  0.3671 -1.1742
   70CHL1    O3 6289   2.310   5.879   2.632 -0.3545  0.2738  0.2858
   70CHL1   H3' 6290   2.261   5.797   2.633 -1.3963  0.8779  0.6953
   70CHL1    C4 6291   2.417   5.950   2.828 -0.4635  0.2508 -0.4910
   70CHL1   H4A 6292   2.455   5.846   2.836  0.3682  0.6426  1.0945
   70CHL1   H4B 6293   2.487   6.012   2.767 -0.3653  1.1394  0.4961
   70CHL1    C5 6294   2.402   6.015   2.972  0.3060 -0.8821  0.8920
   70CHL1    C6 6295   2.465   6.123   3.015  0.6247  0.2048  0.1284
   70CHL1    H6 6296   2.535   6.168   2.944 -0.5035  0.0565 -1.1143
   70CHL1    C7 6297   2.454   6.177   3.154 -0.1501 -0.3116  0.4347
   70CHL1   H7A 6298   2.552   6.205   3.198 -0.1232  2.8359 -1.2767
   70CHL1   H7B 6299   2.396   6.272   3.153  1.2602  0.5775  0.5302
   70CHL1    C8 6300   2.377   6.085   3.260 -0.1222 -0.7379 -0.7246
   70CHL1    H8 6301   2.446   6.001   3.282  0.2879 -0.4975 -1.0966
   70CHL1   C14 6302   2.331   6.158   3.386  0.1115  0.4010  0.5995
   70CHL1   H14 6303   2.252   6.224   3.345  0.6324  0.3281 -0.5522
   70CHL1   C15 6304   2.429   6.255   3.458  0.4202 -0.6924 -0.0166
   70CHL1  H15A 6305   2.526   6.202   3.444  1.1854  0.5046  0.5948
   70CHL1  H15B 6306   2.442   6.350   3.402  0.0384 -2.1028 -2.6281
   70CHL1   C16 6307   2.375   6.252   3.605  0.4685 -0.1269 -0.1051
   70CHL1  H16A 6308   2.451   6.203   3.670  3.2112  1.8079 -1.6412
   70CHL1  H16B 6309   2.359   6.351   3.652 -0.4357 -0.4144  0.2016
   70CHL1   C17 6310   2.245   6.154   3.606  0.2324 -0.4540 -0.3910
   70CHL1   H17 6311   2.151   6.208   3.581  0.8541  2.1002  2.2385
   70CHL1   C13 6312   2.268   6.060   3.489  0.9263 -0.0635  0.4973
   70CHL1   C18 6313   2.372   5.953   3.530 -0.2746 -0.5068 -0.1111
   70CHL1  H18A 6314   2.342   5.896   3.620  0.0278 -0.5950 -0.0618
   70CHL1  H18B 6315   2.401   5.879   3.451  2.3573  2.2226 -1.9434
   70CHL1  H18C 6316   2.469   5.999   3.558  0.6515 -2.3185 -0.1688
   70CHL1   C12 6317   2.143   5.989   3.419  1.0283  0.2333  0.0480
   70CHL1  H12A 6318   2.098   5.911   3.484  2.1224 -0.1630  0.3505
   70CHL1  H12B 6319   2.064   6.065   3.399  0.4348 -0.4286 -0.1412
   70CHL1   C11 6320   2.180   5.914   3.291 -0.3862  0.4549 -0.1762
   70CHL1  H11A 6321   2.228   5.819   3.321  1.2818  1.1872 -0.4081
   70CHL1  H11B 6322   2.078   5.894   3.252 -1.2053  1.8905  1.0945
   70CHL1    C9 6323   2.265   6.001   3.196 -0.1364  0.0546  0.9844
   70CHL1    H9 6324   2.194   6.082   3.168  0.2183 -0.3802 -1.2997
   70CHL1   C10 6325   2.301   5.941   3.061 -0.2368  0.5958  0.1424
   70CHL1   C19 6326   2.363   5.808   3.101  0.7897  0.1420  0.4561
   70CHL1  H19A 6327   2.393   5.758   3.007 -2.7579 -3.2699  0.9115
   70CHL1  H19B 6328   2.449   5.824   3.169  0.2627 -0.8368  1.3712
   70CHL1  H19C 6329   2.303   5.731   3.152 -0.8589  0.1631 -1.3484
   70CHL1    C1 6330   2.169   5.921   2.979 -0.2745 -0.2459  0.3027
   70CHL1   H1A 6331   2.099   5.855   3.034 -0.8922  2.5222  3.0878
   70CHL1   H1B 6332   2.123   6.020   2.960  0.5806  0.0103 -0.5179
   70CHL1    C2 6333   2.195   5.855   2.843  0.2891 -0.0684  0.9457
   70CHL1   H2A 6334   2.100   5.839   2.787  0.6399 -0.2449  0.3918
   70CHL1   H2B 6335   2.239   5.756   2.869 -1.3022 -0.5035  2.2021
   70CHL1   C20 6336   2.221   6.107   3.749 -0.4635  0.1870 -0.2365
   70CHL1   H20 6337   2.308   6.049   3.787  0.4924  1.7284  0.0175
   70CHL1   C21 6338   2.100   6.015   3.743 -0.2700 -0.5645  0.8523
   70CHL1  H21A 6339   2.059   5.994   3.844 -2.3541 -0.0540  0.1636
   70CHL1  H21B 6340   2.131   5.921   3.692  1.1466 -0.8029  2.0878
   70CHL1  H21C 6341   2.018   6.056   3.681  0.0397  0.5702  1.1699
   70CHL1   C22 6342   2.199   6.223   3.852  0.3733  0.5331  0.3894
   70CHL1  H22A 6343   2.289   6.287   3.857  0.4197  0.5528 -0.4778
   70CHL1  H22B 6344   2.120   6.295   3.821  1.4884  0.7771 -2.2202
   70CHL1   C23 6345   2.163   6.180   3.997 -0.4229 -0.0483 -0.0141
   70CHL1  H23A 6346   2.054   6.162   3.996 -0.2140 -1.4744  0.9138
   70CHL1  H23B 6347   2.217   6.085   4.012  0.9973  0.8736  0.9759
   70CHL1   C24 6348   2.188   6.283   4.104 -0.4478 -0.6201 -0.1926
   70CHL1  H24A 6349   2.292   6.323   4.100 -1.4283  2.1113 -0.4408
   70CHL1  H24B 6350   2.125   6.371   4.079  0.2450 -0.2267 -0.5816
   70CHL1   C25 6351   2.135   6.251   4.247  0.6031  0.2968  0.1359
   70CHL1   H25 6352   2.028   6.222   4.242  0.8123 -0.4295 -0.3664
   70CHL1   C26 6353   2.214   6.140   4.319  0.0265 -0.0180 -0.1431
   70CHL1  H26A 6354   2.187   6.051   4.257  0.1705  0.4526 -0.8947
   70CHL1  H26B 6355   2.322   6.167   4.328  0.1264  0.2727 -1.8625
   70CHL1  H26C 6356   2.173   6.126   4.421  0.1692  0.3179 -0.0384
   70CHL1   C27 6357   2.128   6.379   4.335 -0.1377 -0.4199 -0.0922
   70CHL1  H27A 6358   2.232   6.416   4.345 -0.2993 -0.3773  1.7119
   70CHL1  H27B 6359   2.072   6.463   4.288 -1.5140 -1.3721 -0.2021
   70CHL1  H27C 6360   2.088   6.354   4.436 -1.3449  1.4407 -0.0646
   71CHL1    C3 6361   6.393   5.958   3.187  0.5514  0.2299 -0.2286
   71CHL1    H3 6362   6.316   5.885   3.219  0.6303  0.2790  0.0798
   71CHL1    O3 6363   6.390   5.985   3.048  0.1590  0.3654 -0.0262
   71CHL1   H3' 6364   6.445   6.062   3.030  0.6623  0.1484  0.5524
   71CHL1    C4 6365   6.386   6.092   3.268  0.3817  0.3331 -0.1017
   71CHL1   H4A 6366   6.463   6.168   3.243  2.0618 -1.4093 -0.4783
   71CHL1   H4B 6367   6.292   6.149   3.251  0.6002  1.4276  2.0721
   71CHL1    C5 6368   6.390   6.068   3.414  0.3765  0.4660  0.1172
   71CHL1    C6 6369   6.283   6.094   3.487 -0.9824 -1.0753 -1.0630
   71CHL1    H6 6370   6.196   6.144   3.442 -1.9912 -0.2405  1.6190
   71CHL1    C7 6371   6.280   6.082   3.641  0.2425  0.2820 -1.1314
   71CHL1   H7A 6372   6.246   6.182   3.678 -1.8650 -0.3798 -1.1435
   71CHL1   H7B 6373   6.212   5.997   3.664  0.4183  0.4696  0.1864
   71CHL1    C8 6374   6.422   6.043   3.694 -0.5611  0.0963 -0.0838
   71CHL1    H8 6375   6.487   6.133   3.698  0.6333 -0.7230 -0.6765
   71CHL1   C14 6376   6.410   5.994   3.832 -0.0637  0.7598  0.3223
   71CHL1   H14 6377   6.350   5.901   3.845 -1.2291  1.5124  0.4690
   71CHL1   C15 6378   6.341   6.088   3.933  0.0257  0.0735 -0.4720
   71CHL1  H15A 6379   6.384   6.191   3.935  1.0653 -0.3706  0.9274
   71CHL1  H15B 6380   6.233   6.097   3.906  0.0722 -0.8587 -0.9976
   71CHL1   C16 6381   6.372   6.027   4.072 -0.0480  0.4926  0.5271
   71CHL1  H16A 6382   6.415   6.106   4.136 -0.7591  1.3407 -0.0241
   71CHL1  H16B 6383   6.284   5.980   4.120  0.7528 -0.3912  1.1676
   71CHL1   C17 6384   6.501   5.931   4.051 -0.7535 -0.3631  0.9367
   71CHL1   H17 6385   6.460   5.829   4.041 -2.4059  0.4628 -1.8271
   71CHL1   C13 6386   6.549   5.960   3.902  0.2937 -0.3973  0.0571
   71CHL1   C18 6387   6.638   6.085   3.907  0.5847  0.3224 -0.7180
   71CHL1  H18A 6388   6.638   6.151   3.817 -1.3669 -1.0678 -1.8338
   71CHL1  H18B 6389   6.602   6.158   3.983  1.7033 -0.2098  0.3612
   71CHL1  H18C 6390   6.744   6.058   3.928  0.4966 -2.3729 -3.0909
   71CHL1   C12 6391   6.610   5.849   3.817 -0.2098  0.3271 -0.5095
   71CHL1  H12A 6392   6.703   5.817   3.870 -1.2131 -1.3427  0.3326
   71CHL1  H12B 6393   6.539   5.765   3.825  0.2735  0.1210  3.5043
   71CHL1   C11 6394   6.627   5.890   3.672  0.2443  0.0973  0.6106
   71CHL1  H11A 6395   6.703   5.969   3.658 -0.7090  0.8006 -0.7692
   71CHL1  H11B 6396   6.668   5.805   3.613 -1.4964 -0.7871  0.5850
   71CHL1    C9 6397   6.491   5.938   3.610 -0.1760  0.8686  0.1415
   71CHL1    H9 6398   6.416   5.856   3.607  1.0163 -0.2005 -0.8575
   71CHL1   C10 6399   6.510   5.989   3.466  0.3619  0.3887  0.7163
   71CHL1   C19 6400   6.632   6.091   3.450  0.4251  0.8333  0.2825
   71CHL1  H19A 6401   6.632   6.149   3.545  1.3493 -1.0933  1.5223
   71CHL1  H19B 6402   6.730   6.041   3.443  1.3065  2.5943 -0.4657
   71CHL1  H19C 6403   6.629   6.168   3.370  0.3187  0.6348  0.0941
   71CHL1    C1 6404   6.526   5.867   3.377  0.0788  0.1749  0.5792
   71CHL1   H1A 6405   6.622   5.818   3.404 -0.6258 -1.3328  0.4471
   71CHL1   H1B 6406   6.437   5.809   3.408 -0.9922  1.1926 -0.4800
   71CHL1    C2 6407   6.520   5.887   3.224 -1.1775 -0.2104  0.8954
   71CHL1   H2A 6408   6.521   5.789   3.171 -3.1665  0.8834 -1.3981
   71CHL1   H2B 6409   6.613   5.935   3.188 -1.2001 -2.1679 -2.1379
   71CHL1   C20 6410   6.592   5.933   4.171 -0.3466  0.3985 -0.2999
   71CHL1   H20 6411   6.619   6.038   4.195 -1.0264  0.6060 -0.4206
   71CHL1   C21 6412   6.725   5.849   4.145 -0.2062 -0.3738  0.0295
   71CHL1  H21A 6413   6.789   5.866   4.234 -0.5562 -0.3237  0.2755
   71CHL1  H21B 6414   6.780   5.878   4.052  1.1546  0.0772  0.9439
   71CHL1  H21C 6415   6.713   5.739   4.138 -0.0924 -0.4894  1.4691
   71CHL1   C22 6416   6.512   5.881   4.291  0.1636  0.4853 -0.7360
   71CHL1  H22A 6417   6.434   5.954   4.323 -0.4231 -0.0153 -1.0034
   71CHL1  H22B 6418   6.462   5.788   4.255  0.2239  0.6796 -1.3361
   71CHL1   C23 6419   6.600   5.868   4.425 -0.3043  0.2067 -0.3510
   71CHL1  H23A 6420   6.652   5.769   4.419  0.7125  0.6721  0.3770
   71CHL1  H23B 6421   6.674   5.951   4.432  0.3529 -0.3935 -0.0014
   71CHL1   C24 6422   6.510   5.865   4.545 -0.1097  0.1368 -0.5420
   71CHL1  H24A 6423   6.414   5.920   4.535  0.3235  1.4208  1.7172
   71CHL1  H24B 6424   6.479   5.761   4.570  0.0672 -0.3119 -2.0770
   71CHL1   C25 6425   6.583   5.927   4.670 -0.1767  0.0357 -0.9257
   71CHL1   H25 6426   6.681   5.879   4.693  0.8734  2.9744  1.3368
   71CHL1   C26 6427   6.611   6.078   4.647 -0.2834  0.0333  0.1905
   71CHL1  H26A 6428   6.662   6.117   4.738  1.5783 -1.0549 -0.3303
   71CHL1  H26B 6429   6.682   6.086   4.563 -2.4548 -0.1929 -1.7638
   71CHL1  H26C 6430   6.516   6.126   4.617 -0.4296  0.2462  0.9535
   71CHL1   C27 6431   6.491   5.912   4.799  0.2518  0.0097 -0.0321
   71CHL1  H27A 6432   6.537   5.975   4.878 -0.4007  0.7069 -0.1955
   71CHL1  H27B 6433   6.385   5.942   4.782  0.0455 -0.4553  0.4217
   71CHL1  H27C 6434   6.500   5.805   4.827 -0.9831 -0.1220 -0.0773
   72CHL1    C3 6435   6.186   3.962   2.797 -0.5847  0.0010 -0.3040
   72CHL1    H3 6436   6.120   4.052   2.802  0.8914  1.0858  0.5441
   72CHL1    O3 6437   6.223   3.954   2.662 -0.0249 -0.1281 -0.4557
   72CHL1   H3' 6438   6.299   3.896   2.660  1.1765  1.3905 -0.8655
   72CHL1    C4 6439   6.315   3.991   2.881  0.4254  0.2933  0.2694
   72CHL1   H4A 6440   6.394   3.916   2.860  1.7349  1.7254 -0.0518
   72CHL1   H4B 6441   6.345   4.094   2.852 -3.4907  1.1450 -1.3555
   72CHL1    C5 6442   6.285   3.995   3.035  0.1599  0.3080 -0.7104
   72CHL1    C6 6443   6.326   4.097   3.114 -0.0591  0.0771  0.0776
   72CHL1    H6 6444   6.386   4.176   3.068 -1.3379  0.1191 -1.6240
   72CHL1    C7 6445   6.294   4.121   3.255 -0.1912  0.2498 -0.4763
   72CHL1   H7A 6446   6.377   4.158   3.319 -1.9635 -1.3211  3.0419
   72CHL1   H7B 6447   6.203   4.185   3.253 -1.7734 -1.9159 -3.4698
   72CHL1    C8 6448   6.251   3.990   3.321  0.3983 -0.1710 -0.4736
   72CHL1    H8 6449   6.347   3.936   3.334  1.4048  1.4938 -0.6001
   72CHL1   C14 6450   6.189   4.014   3.457 -0.4619 -0.5737 -0.3445
   72CHL1   H14 6451   6.104   4.085   3.446  0.9552  1.0914 -1.0564
   72CHL1   C15 6452   6.280   4.091   3.557 -0.7487 -0.3445  0.2470
   72CHL1  H15A 6453   6.381   4.046   3.540  0.1397  2.0368 -1.3102
   72CHL1  H15B 6454   6.298   4.196   3.527 -0.8921 -1.3672 -4.1964
   72CHL1   C16 6455   6.226   4.060   3.699 -0.1722 -0.1428 -0.2358
   72CHL1  H16A 6456   6.296   4.024   3.777 -0.7248 -0.1072  0.2785
   72CHL1  H16B 6457   6.195   4.159   3.738  2.3950 -0.1032  1.9721
   72CHL1   C17 6458   6.102   3.961   3.671 -0.3788 -0.5204  0.0727
   72CHL1   H17 6459   6.014   4.024   3.644 -0.1742 -0.4772 -0.5232
   72CHL1   C13 6460   6.139   3.890   3.538  0.2828 -0.4881 -0.0885
   72CHL1   C18 6461   6.264   3.795   3.561  0.4958  0.0444 -0.0223
   72CHL1  H18A 6462   6.335   3.847   3.629  1.0006 -0.8306  0.1235
   72CHL1  H18B 6463   6.228   3.698   3.599 -0.9944  1.0885  1.3788
   72CHL1  H18C 6464   6.315   3.771   3.465  1.3851 -0.3127  0.5269
   72CHL1   C12 6465   6.024   3.826   3.456  0.3732  0.3436  0.3971
   72CHL1  H12A 6466   5.984   3.734   3.503  0.6543 -0.4754 -0.9103
   72CHL1  H12B 6467   5.947   3.905   3.441  1.3540  1.0263 -1.2650
   72CHL1   C11 6468   6.086   3.788   3.315  0.4897  0.0991  0.3635
   72CHL1  H11A 6469   6.157   3.703   3.328 -0.0926 -0.2753  1.2120
   72CHL1  H11B 6470   6.008   3.745   3.250  0.7767  0.8309 -0.4959
   72CHL1    C9 6471   6.152   3.905   3.239 -0.5828  0.0740 -0.4066
   72CHL1    H9 6472   6.072   3.979   3.219  0.0245  1.0321  0.5593
   72CHL1   C10 6473   6.205   3.876   3.096 -0.2860  1.0946  0.3125
   72CHL1   C19 6474   6.313   3.759   3.096 -0.2012 -0.2164  0.5218
   72CHL1  H19A 6475   6.379   3.746   3.184 -1.3967  0.6215  1.5646
   72CHL1  H19B 6476   6.252   3.666   3.097  0.7493 -0.8507  1.3249
   72CHL1  H19C 6477   6.384   3.752   3.011  0.4267  1.0815  0.9133
   72CHL1    C1 6478   6.081   3.844   3.001  0.2640  0.0998  0.3335
   72CHL1   H1A 6479   6.018   3.763   3.042  1.1219 -1.2248 -0.8959
   72CHL1   H1B 6480   6.016   3.933   3.016 -0.3976 -0.1120 -1.1609
   72CHL1    C2 6481   6.121   3.829   2.849  0.2262 -0.1900  0.5557
   72CHL1   H2A 6482   6.026   3.822   2.791  0.3925 -3.8121  0.4682
   72CHL1   H2B 6483   6.177   3.736   2.826  1.0409  0.3714  0.2248
   72CHL1   C20 6484   6.061   3.893   3.799 -0.4182 -0.3633 -0.8360
   72CHL1   H20 6485   6.152   3.831   3.812  1.0102  1.3438 -2.1252
   72CHL1   C21 6486   5.944   3.796   3.766 -0.0459  0.2183  0.1942
   72CHL1  H21A 6487   5.873   3.828   3.687  0.0914 -0.0073 -0.0213
   72CHL1  H21B 6488   5.885   3.748   3.847  0.8698 -0.6462  0.3738
   72CHL1  H21C 6489   5.987   3.708   3.715 -1.2974  0.0429 -0.6031
   72CHL1   C22 6490   6.026   3.988   3.916 -0.3562 -0.4283 -0.2764
   72CHL1  H22A 6491   6.092   4.077   3.908 -1.6796  0.9497  2.6450
   72CHL1  H22B 6492   5.925   4.033   3.904 -1.0125 -0.7735  2.9757
   72CHL1   C23 6493   6.050   3.935   4.063  0.0875 -1.3954  0.1100
   72CHL1  H23A 6494   6.148   3.884   4.067  0.4343 -0.9533 -1.6529
   72CHL1  H23B 6495   6.047   4.027   4.124 -1.9550 -0.4592 -1.2696
   72CHL1   C24 6496   5.943   3.836   4.109 -0.2115  0.3821 -0.3533
   72CHL1  H24A 6497   5.849   3.874   4.064 -0.7405  1.8611  1.8213
   72CHL1  H24B 6498   5.963   3.738   4.062  4.0604  0.7670  0.2466
   72CHL1   C25 6499   5.927   3.818   4.266  0.6079 -0.1830  0.6149
   72CHL1   H25 6500   5.849   3.742   4.285  0.6302 -1.0733 -2.3297
   72CHL1   C26 6501   6.048   3.755   4.325 -1.0820  0.3348  0.2405
   72CHL1  H26A 6502   6.070   3.666   4.262 -0.7094  1.7464 -1.7130
   72CHL1  H26B 6503   6.141   3.816   4.324  0.2926 -1.6440  0.5089
   72CHL1  H26C 6504   6.026   3.721   4.428  0.6496  2.1190  1.2680
   72CHL1   C27 6505   5.887   3.957   4.336  0.3956  0.4136  0.3380
   72CHL1  H27A 6506   5.869   3.942   4.444 -0.3909  1.7014  0.3984
   72CHL1  H27B 6507   5.981   4.014   4.348  0.9605 -0.5592  0.6769
   72CHL1  H27C 6508   5.812   4.015   4.277  0.3634 -0.6379 -0.7014
   73CHL1    C3 6509   2.056   6.340   2.914 -0.1488 -0.4304 -0.1516
   73CHL1    H3 6510   2.010   6.241   2.931  1.1670 -0.4448  4.9393
   73CHL1    O3 6511   2.116   6.342   2.786  0.3027 -0.3954 -0.2306
   73CHL1   H3' 6512   2.157   6.428   2.783  0.7745 -0.6055  0.0160
   73CHL1    C4 6513   1.941   6.448   2.921 -0.2333  0.4249  0.3564
   73CHL1   H4A 6514   1.986   6.549   2.910  0.1693  0.1654 -0.4613
   73CHL1   H4B 6515   1.869   6.418   2.842 -0.2699  1.6579 -0.0987
   73CHL1    C5 6516   1.875   6.443   3.060 -1.2272  0.9113  0.3023
   73CHL1    C6 6517   1.743   6.428   3.083  0.0805 -0.6704  0.0499
   73CHL1    H6 6518   1.679   6.427   2.994  1.9619  0.3918 -1.4028
   73CHL1    C7 6519   1.677   6.430   3.221  0.3760 -0.2557 -0.4177
   73CHL1   H7A 6520   1.580   6.482   3.236  0.3738 -0.6131  0.9647
   73CHL1   H7B 6521   1.653   6.329   3.259  0.5651  0.2454  1.0906
   73CHL1    C8 6522   1.782   6.490   3.328  0.6215 -0.1009  0.6067
   73CHL1    H8 6523   1.783   6.599   3.309  1.8358 -0.5308 -2.2374
   73CHL1   C14 6524   1.730   6.450   3.465 -0.0735  0.1438 -0.2391
   73CHL1   H14 6525   1.729   6.339   3.467  1.1967  0.0987 -1.3448
   73CHL1   C15 6526   1.586   6.477   3.506 -0.3344 -0.1993  0.1517
   73CHL1  H15A 6527   1.560   6.581   3.478 -0.0423  0.2537  1.4618
   73CHL1  H15B 6528   1.529   6.388   3.471 -0.0500 -0.4839  0.4010
   73CHL1   C16 6529   1.590   6.464   3.662  0.3514  0.7138  0.4848
   73CHL1  H16A 6530   1.546   6.558   3.703 -3.0216 -0.5299  0.0222
   73CHL1  H16B 6531   1.522   6.380   3.689  0.8312 -0.2703 -1.2292
   73CHL1   C17 6532   1.737   6.443   3.702 -0.9351 -0.6681 -0.0981
   73CHL1   H17 6533   1.764   6.336   3.713  0.6055 -0.3312 -0.3323
   73CHL1   C13 6534   1.825   6.493   3.584  0.3847  0.8463  0.4595
   73CHL1   C18 6535   1.824   6.646   3.589 -0.0068  0.2141 -0.6363
   73CHL1  H18A 6536   1.865   6.689   3.495  0.4733 -0.5529 -0.7900
   73CHL1  H18B 6537   1.722   6.684   3.615 -0.0003  1.2005 -1.9720
   73CHL1  H18C 6538   1.889   6.671   3.676  0.7231 -0.3519 -1.0069
   73CHL1   C12 6539   1.958   6.424   3.572 -1.2377  0.3531  0.4405
   73CHL1  H12A 6540   2.032   6.464   3.645 -0.8992  2.0524 -0.7679
   73CHL1  H12B 6541   1.946   6.314   3.572 -0.7873  0.2723 -1.3300
   73CHL1   C11 6542   2.023   6.466   3.436 -0.8114 -0.3770  0.2052
   73CHL1  H11A 6543   2.043   6.575   3.430 -0.6682 -0.3060  1.6913
   73CHL1  H11B 6544   2.117   6.406   3.435  0.9859  2.2605  1.0250
   73CHL1    C9 6545   1.927   6.437   3.314  0.3956  0.1106 -0.4687
   73CHL1    H9 6546   1.913   6.329   3.333  1.9636  0.0337  0.4070
   73CHL1   C10 6547   1.986   6.462   3.174  0.0500  0.3823 -0.1122
   73CHL1   C19 6548   2.051   6.603   3.164 -0.0996  0.6650  0.0461
   73CHL1  H19A 6549   1.983   6.688   3.186 -0.2545 -0.0483  2.5646
   73CHL1  H19B 6550   2.136   6.620   3.233  0.3223  0.6138 -0.4500
   73CHL1  H19C 6551   2.096   6.610   3.062 -0.0565  3.3826  0.1698
   73CHL1    C1 6552   2.100   6.367   3.157 -0.4096  0.1364 -0.1243
   73CHL1   H1A 6553   2.182   6.384   3.230 -0.1372  0.4954 -0.5127
   73CHL1   H1B 6554   2.058   6.268   3.188 -0.4340  0.0282 -0.4946
   73CHL1    C2 6555   2.164   6.360   3.021 -0.1409 -1.2666 -0.3346
   73CHL1   H2A 6556   2.240   6.282   2.999  0.9011 -1.2019  2.6039
   73CHL1   H2B 6557   2.207   6.454   2.981 -0.9308 -1.7558 -2.4736
   73CHL1   C20 6558   1.776   6.508   3.838  0.5197  0.2478  0.2361
   73CHL1   H20 6559   1.762   6.617   3.822 -1.0860  0.0737  0.3230
   73CHL1   C21 6560   1.917   6.482   3.888  0.9356  1.0230  0.1868
   73CHL1  H21A 6561   1.932   6.522   3.991 -0.3456 -0.9803  1.2032
   73CHL1  H21B 6562   1.989   6.530   3.818  1.4478  0.5628  0.3900
   73CHL1  H21C 6563   1.939   6.374   3.896 -1.4634  0.4320 -0.4387
   73CHL1   C22 6564   1.684   6.473   3.957 -0.2767 -0.5700  0.3206
   73CHL1  H22A 6565   1.660   6.364   3.960  0.2536 -0.6808  0.9986
   73CHL1  H22B 6566   1.734   6.499   4.053  1.7681  1.1576 -1.1279
   73CHL1   C23 6567   1.546   6.550   3.970 -0.3457  0.4398  0.2989
   73CHL1  H23A 6568   1.565   6.657   3.946  0.7587 -0.5058 -3.7665
   73CHL1  H23B 6569   1.481   6.513   3.888  0.5018  1.3803 -0.8328
   73CHL1   C24 6570   1.470   6.520   4.104 -0.3610  0.7679 -0.6046
   73CHL1  H24A 6571   1.445   6.412   4.115 -2.2795  1.0707 -1.5123
   73CHL1  H24B 6572   1.535   6.553   4.187 -0.1757 -0.6246 -0.1608
   73CHL1   C25 6573   1.339   6.599   4.129  0.0762  0.0783 -0.3781
   73CHL1   H25 6574   1.367   6.704   4.107  0.1800 -0.2742 -2.0787
   73CHL1   C26 6575   1.223   6.546   4.037  0.0670 -0.5892  0.2532
   73CHL1  H26A 6576   1.128   6.601   4.025 -0.0705 -0.9969 -0.6931
   73CHL1  H26B 6577   1.267   6.536   3.935  3.7184  4.0740  1.0323
   73CHL1  H26C 6578   1.207   6.440   4.066  1.4947 -1.1811 -0.9590
   73CHL1   C27 6579   1.291   6.603   4.276  0.7861  0.3178 -0.6257
   73CHL1  H27A 6580   1.266   6.496   4.290 -0.3958  0.6662  0.0039
   73CHL1  H27B 6581   1.362   6.638   4.354  0.4678  1.1678 -0.7151
   73CHL1  H27C 6582   1.196   6.655   4.298 -0.3720 -1.8385 -0.2141
   74CHL1    C3 6583   1.256   3.988   2.783  0.0943  0.0114  0.4889
   74CHL1    H3 6584   1.152   4.010   2.816  0.6043  1.4027  1.2547
   74CHL1    O3 6585   1.256   3.997   2.639  0.1600  0.2512  0.2219
   74CHL1   H3' 6586   1.350   3.993   2.620 -0.1024 -0.2081 -1.0826
   74CHL1    C4 6587   1.346   4.101   2.829 -0.4593  0.5257  0.1949
   74CHL1   H4A 6588   1.448   4.072   2.797 -0.6477  1.7564 -1.6671
   74CHL1   H4B 6589   1.321   4.202   2.791  1.5434  0.7600 -0.6383
   74CHL1    C5 6590   1.349   4.104   2.978 -0.7850  0.7352 -0.5435
   74CHL1    C6 6591   1.306   4.212   3.049 -0.0598 -0.0889  0.0324
   74CHL1    H6 6592   1.274   4.303   2.997  0.5493  0.2432  0.2324
   74CHL1    C7 6593   1.318   4.230   3.199 -0.0298  0.2810 -0.0159
   74CHL1   H7A 6594   1.361   4.332   3.209  0.0577  0.1207  1.6095
   74CHL1   H7B 6595   1.220   4.252   3.248  1.2786  1.6731  2.1547
   74CHL1    C8 6596   1.403   4.128   3.268 -0.3764  0.4474 -0.3286
   74CHL1    H8 6597   1.512   4.149   3.258 -0.5073  1.3292 -0.0027
   74CHL1   C14 6598   1.362   4.125   3.416 -0.3242 -0.5145  0.4185
   74CHL1   H14 6599   1.254   4.102   3.417 -1.2229  2.9065 -1.3301
   74CHL1   C15 6600   1.391   4.251   3.492 -0.7473 -0.4630  0.1723
   74CHL1  H15A 6601   1.485   4.301   3.458 -0.9158  0.9161  1.5571
   74CHL1  H15B 6602   1.320   4.336   3.477 -0.4357 -0.2094  0.1179
   74CHL1   C16 6603   1.392   4.210   3.640 -0.4255  0.1766  0.0608
   74CHL1  H16A 6604   1.481   4.245   3.697 -1.0280 -1.9036  2.5084
   74CHL1  H16B 6605   1.302   4.248   3.694  1.0305  0.1499  2.6538
   74CHL1   C17 6606   1.386   4.056   3.642 -0.2091  0.9077 -0.3683
   74CHL1   H17 6607   1.282   4.019   3.647 -0.2856  0.8874 -1.7144
   74CHL1   C13 6608   1.431   4.019   3.501 -0.5384 -0.5259  0.0579
   74CHL1   C18 6609   1.588   4.046   3.484  0.0273  0.0903  0.1298
   74CHL1  H18A 6610   1.616   4.038   3.377 -0.4628  0.9448 -0.0709
   74CHL1  H18B 6611   1.618   4.149   3.513 -0.5161  0.7013 -1.3515
   74CHL1  H18C 6612   1.645   3.968   3.539 -0.9879 -1.5461 -1.0347
   74CHL1   C12 6613   1.396   3.881   3.442  0.2240 -0.6128  0.8124
   74CHL1  H12A 6614   1.461   3.810   3.496 -0.0175 -0.6117  1.1022
   74CHL1  H12B 6615   1.295   3.842   3.463 -0.2582 -0.9488 -1.7852
   74CHL1   C11 6616   1.423   3.866   3.292  0.5952 -0.0738 -0.5868
   74CHL1  H11A 6617   1.534   3.868   3.281  0.6338 -0.7793 -0.3703
   74CHL1  H11B 6618   1.391   3.762   3.269  0.8948 -0.8432  2.1923
   74CHL1    C9 6619   1.371   3.985   3.201 -0.8728 -0.0373  0.0424
   74CHL1    H9 6620   1.260   3.977   3.204 -1.2244  0.8072 -4.2348
   74CHL1   C10 6621   1.399   3.972   3.049  0.3172 -0.2208  0.0262
   74CHL1   C19 6622   1.546   3.956   3.022  0.4423 -0.4226  0.0026
   74CHL1  H19A 6623   1.618   4.031   3.062  0.6741 -0.4842 -0.3000
   74CHL1  H19B 6624   1.578   3.857   3.061  0.9265 -0.5534 -0.7171
   74CHL1  H19C 6625   1.560   3.959   2.912  0.3978  0.2572  0.0095
   74CHL1    C1 6626   1.316   3.852   2.982 -0.1149 -0.2203 -0.4385
   74CHL1   H1A 6627   1.372   3.762   3.018  2.7630  0.9335 -1.6833
   74CHL1   H1B 6628   1.214   3.837   3.023 -0.6099 -1.8387 -2.1258
   74CHL1    C2 6629   1.299   3.851   2.827  0.1925  0.2164 -0.4188
   74CHL1   H2A 6630   1.225   3.774   2.797  0.2186  0.1320 -0.2698
   74CHL1   H2B 6631   1.396   3.830   2.779  0.5723 -1.1199  0.8892
   74CHL1   C20 6632   1.462   4.003   3.764  0.7291 -0.4910  0.0680
   74CHL1   H20 6633   1.567   4.034   3.747  0.0251  1.1273 -1.7597
   74CHL1   C21 6634   1.439   3.851   3.774  0.0374  0.2831  0.5128
   74CHL1  H21A 6635   1.334   3.820   3.793  0.2109 -0.5824  0.1293
   74CHL1  H21B 6636   1.499   3.802   3.853 -1.4731 -1.9165  0.3743
   74CHL1  H21C 6637   1.482   3.807   3.680  0.1357 -2.4303  1.7261
   74CHL1   C22 6638   1.423   4.070   3.902 -0.2789 -0.3621 -0.2581
   74CHL1  H22A 6639   1.427   4.181   3.895 -3.2949 -0.2192 -0.9593
   74CHL1  H22B 6640   1.321   4.050   3.939 -1.2080  1.3614 -1.7231
   74CHL1   C23 6641   1.517   4.022   4.019  1.0675  0.1338  0.2165
   74CHL1  H23A 6642   1.499   3.916   4.045 -1.0221  0.5712  0.6747
   74CHL1  H23B 6643   1.620   4.035   3.978  0.0279 -2.0639 -3.5198
   74CHL1   C24 6644   1.498   4.111   4.146  0.1812 -0.1049 -0.2583
   74CHL1  H24A 6645   1.509   4.213   4.102  1.6954 -0.4893 -0.8289
   74CHL1  H24B 6646   1.393   4.120   4.182  0.5153  0.0530  0.6922
   74CHL1   C25 6647   1.601   4.099   4.260 -0.4513  0.1806  0.0388
   74CHL1   H25 6648   1.583   4.000   4.308 -0.8083 -0.0765 -0.5990
   74CHL1   C26 6649   1.747   4.084   4.209 -0.2446  0.0993  0.0456
   74CHL1  H26A 6650   1.745   4.002   4.135 -0.9261  0.6548 -0.5667
   74CHL1  H26B 6651   1.780   4.174   4.152  0.1193 -0.8307 -1.2452
   74CHL1  H26C 6652   1.822   4.071   4.290 -0.6779 -0.9204  0.3057
   74CHL1   C27 6653   1.589   4.209   4.370 -0.2978 -0.9092 -0.4110
   74CHL1  H27A 6654   1.491   4.262   4.374  0.1516 -0.0231 -1.0004
   74CHL1  H27B 6655   1.614   4.169   4.471  1.9121 -2.1283 -1.3784
   74CHL1  H27C 6656   1.655   4.291   4.337 -0.1419 -0.6300  0.5602
   75CHL1    C3 6657   1.479   2.923   3.071 -0.1860  0.5173  0.4526
   75CHL1    H3 6658   1.450   2.824   3.112 -1.8861 -0.0128 -1.8097
   75CHL1    O3 6659   1.480   2.908   2.930  0.0739 -0.3337  0.6547
   75CHL1   H3' 6660   1.535   2.974   2.888  2.3652 -2.2382  0.3931
   75CHL1    C4 6661   1.373   3.018   3.117  0.1935  0.1695 -0.2265
   75CHL1   H4A 6662   1.401   3.113   3.067  0.5928  0.3353  0.2907
   75CHL1   H4B 6663   1.269   2.994   3.087  0.0780 -1.6417  1.4018
   75CHL1    C5 6664   1.381   3.055   3.264  0.2523 -0.3207 -0.8358
   75CHL1    C6 6665   1.277   3.040   3.350 -0.3080 -1.0973 -0.0513
   75CHL1    H6 6666   1.182   2.998   3.314  0.7097 -4.5898  0.9558
   75CHL1    C7 6667   1.280   3.084   3.494  0.0332  0.1023 -0.5895
   75CHL1   H7A 6668   1.189   3.144   3.514 -0.9122 -0.1566 -3.6227
   75CHL1   H7B 6669   1.288   2.995   3.560 -0.0283 -0.6325 -1.5485
   75CHL1    C8 6670   1.404   3.175   3.532  0.2624 -0.0223  0.1424
   75CHL1    H8 6671   1.397   3.278   3.489  1.4974 -0.3170 -0.8044
   75CHL1   C14 6672   1.413   3.186   3.683 -0.0474 -0.3650  0.3266
   75CHL1   H14 6673   1.432   3.085   3.724  1.3210  1.1751  3.8613
   75CHL1   C15 6674   1.288   3.254   3.758 -0.1866  0.4284 -0.0749
   75CHL1  H15A 6675   1.258   3.337   3.691  1.4065  0.8090 -0.3427
   75CHL1  H15B 6676   1.206   3.179   3.761  1.2324 -1.1710  0.8486
   75CHL1   C16 6677   1.341   3.306   3.893  0.5334 -0.5620 -1.3178
   75CHL1  H16A 6678   1.313   3.412   3.910 -2.5450 -1.4957  0.1755
   75CHL1  H16B 6679   1.294   3.256   3.980  1.2733  3.2174  1.4987
   75CHL1   C17 6680   1.496   3.274   3.882 -1.0276  0.3059 -0.2406
   75CHL1   H17 6681   1.501   3.168   3.914  0.5224 -0.0842 -1.6567
   75CHL1   C13 6682   1.530   3.270   3.734 -0.7860 -0.6190  0.1647
   75CHL1   C18 6683   1.539   3.417   3.681  0.0734  0.0011  0.1148
   75CHL1  H18A 6684   1.645   3.451   3.691  0.9361 -2.3853 -0.1324
   75CHL1  H18B 6685   1.524   3.419   3.571  1.7699  0.5059 -0.1332
   75CHL1  H18C 6686   1.461   3.480   3.728  0.7658  0.0158  1.2790
   75CHL1   C12 6687   1.652   3.192   3.689  0.4363  0.6406 -0.7213
   75CHL1  H12A 6688   1.745   3.244   3.721 -0.2543  0.2486  2.2175
   75CHL1  H12B 6689   1.646   3.091   3.734 -1.4496  0.9969 -0.1195
   75CHL1   C11 6690   1.657   3.169   3.530 -0.2436  0.3864 -0.2876
   75CHL1  H11A 6691   1.667   3.273   3.492  0.2621  0.7885  0.9030
   75CHL1  H11B 6692   1.743   3.102   3.512 -2.1076 -1.7877 -1.7856
   75CHL1    C9 6693   1.523   3.108   3.475 -0.2836 -0.1889 -0.4078
   75CHL1    H9 6694   1.519   3.002   3.510  0.6190 -0.2864 -0.5515
   75CHL1   C10 6695   1.516   3.104   3.318  0.6090 -0.2032  0.5636
   75CHL1   C19 6696   1.532   3.247   3.261  0.7035 -0.0309  0.4796
   75CHL1  H19A 6697   1.462   3.322   3.302 -0.3068 -1.0416  0.6760
   75CHL1  H19B 6698   1.629   3.290   3.291  0.8735 -0.3401  0.3832
   75CHL1  H19C 6699   1.531   3.240   3.150 -4.2478  0.6227  0.2583
   75CHL1    C1 6700   1.623   3.009   3.258 -0.5551  0.0880 -0.5074
   75CHL1   H1A 6701   1.722   3.038   3.297 -1.3061  0.2973  1.3486
   75CHL1   H1B 6702   1.601   2.913   3.309 -0.0654  0.3831  0.2682
   75CHL1    C2 6703   1.616   2.974   3.113 -0.0016 -0.1848 -0.6032
   75CHL1   H2A 6704   1.696   2.903   3.086 -0.5083 -0.4087 -1.5700
   75CHL1   H2B 6705   1.630   3.074   3.066 -0.5696 -0.8141 -2.2017
   75CHL1   C20 6706   1.583   3.365   3.976  0.6347 -0.5843 -0.3838
   75CHL1   H20 6707   1.615   3.453   3.916 -2.1424  1.8703  1.4667
   75CHL1   C21 6708   1.707   3.285   4.021 -0.3468  0.0029 -0.4052
   75CHL1  H21A 6709   1.680   3.193   4.076 -2.5765  1.2143  0.6857
   75CHL1  H21B 6710   1.754   3.361   4.088 -0.3754  0.6193 -1.0682
   75CHL1  H21C 6711   1.779   3.268   3.938  0.5872 -0.2708  0.4502
   75CHL1   C22 6712   1.497   3.427   4.099  0.4085  0.5412 -0.2256
   75CHL1  H22A 6713   1.421   3.494   4.052 -0.7275  0.0981  0.9301
   75CHL1  H22B 6714   1.435   3.344   4.139 -1.4393  2.3230  0.8457
   75CHL1   C23 6715   1.572   3.494   4.212  0.2881 -0.5157 -0.0305
   75CHL1  H23A 6716   1.633   3.423   4.272 -0.8013 -0.5549  1.0696
   75CHL1  H23B 6717   1.642   3.570   4.171 -0.3592  1.0107  1.6074
   75CHL1   C24 6718   1.472   3.572   4.286  0.4493 -1.1212  0.0828
   75CHL1  H24A 6719   1.523   3.655   4.339  0.3089  0.9441 -2.8181
   75CHL1  H24B 6720   1.407   3.625   4.213  0.5001 -0.4852  0.4923
   75CHL1   C25 6721   1.385   3.504   4.386 -0.1710  0.2517 -0.0434
   75CHL1   H25 6722   1.336   3.414   4.344 -0.6610  0.8877 -0.8568
   75CHL1   C26 6723   1.463   3.446   4.512  0.2512 -0.5668 -0.1042
   75CHL1  H26A 6724   1.536   3.368   4.480  2.1083  0.0345  2.3367
   75CHL1  H26B 6725   1.520   3.526   4.564 -0.4535 -0.1256  0.0002
   75CHL1  H26C 6726   1.399   3.398   4.589  0.6498  2.3425  2.2301
   75CHL1   C27 6727   1.269   3.598   4.427  0.3164 -0.5085 -0.4605
   75CHL1  H27A 6728   1.205   3.554   4.506  0.4911 -1.1422 -0.6643
   75CHL1  H27B 6729   1.312   3.696   4.455  2.2703 -0.6921 -2.5513
   75CHL1  H27C 6730   1.200   3.615   4.342 -2.2601 -0.2306  1.5661
   76CHL1    C3 6731   0.784   6.369   2.948  0.0258  0.5364 -0.3110
   76CHL1    H3 6732   0.890   6.396   2.966 -0.5443  1.2927  2.4111
   76CHL1    O3 6733   0.746   6.407   2.816 -0.3484  0.0115 -0.2044
   76CHL1   H3' 6734   0.675   6.350   2.788  0.1461  0.0669 -1.6217
   76CHL1    C4 6735   0.796   6.210   2.951 -0.3982 -0.0414 -0.1584
   76CHL1   H4A 6736   0.708   6.165   2.901 -0.2538  0.0140 -0.4669
   76CHL1   H4B 6737   0.881   6.183   2.886  1.2620 -1.0895  2.3088
   76CHL1    C5 6738   0.812   6.152   3.083 -0.3037  0.0330  0.7016
   76CHL1    C6 6739   0.912   6.071   3.119 -0.5277  0.0049  0.2038
   76CHL1    H6 6740   0.985   6.033   3.045 -0.9749 -1.7879  0.6222
   76CHL1    C7 6741   0.928   6.011   3.256 -0.1125 -0.1508 -0.0756
   76CHL1   H7A 6742   0.958   5.904   3.259 -0.8337 -0.4751 -2.5339
   76CHL1   H7B 6743   1.002   6.072   3.312  1.4883 -3.0919  1.2485
   76CHL1    C8 6744   0.790   6.021   3.336  0.2266 -0.2044 -0.1833
   76CHL1    H8 6745   0.714   5.946   3.305 -0.6962  1.0960 -1.1802
   76CHL1   C14 6746   0.827   5.999   3.482 -0.1319  0.2874 -0.3807
   76CHL1   H14 6747   0.897   6.081   3.510  0.7353 -0.7898  0.7109
   76CHL1   C15 6748   0.919   5.879   3.514  0.8046 -0.2604  0.0280
   76CHL1  H15A 6749   0.901   5.795   3.444  1.3035  0.3885 -0.9088
   76CHL1  H15B 6750   1.027   5.902   3.499  0.3430  3.0206  0.7933
   76CHL1   C16 6751   0.908   5.858   3.671  1.1249  0.4906 -1.0911
   76CHL1  H16A 6752   0.871   5.755   3.692  3.4707 -0.1259  0.3085
   76CHL1  H16B 6753   1.009   5.863   3.715  0.3377  0.1315  0.8333
   76CHL1   C17 6754   0.798   5.958   3.713 -0.6665 -0.1657 -0.6692
   76CHL1   H17 6755   0.855   6.051   3.737 -2.6240  0.8187  0.3768
   76CHL1   C13 6756   0.718   5.995   3.582 -0.2796  0.2304  0.2120
   76CHL1   C18 6757   0.618   5.883   3.549  0.3415  0.0395 -0.5803
   76CHL1  H18A 6758   0.664   5.792   3.504  0.4407 -0.4699  0.5225
   76CHL1  H18B 6759   0.562   5.833   3.631  3.7966 -1.1681  1.2422
   76CHL1  H18C 6760   0.546   5.910   3.469 -1.2864 -3.0580 -0.3159
   76CHL1   C12 6761   0.654   6.134   3.572 -0.0149  0.3235  0.7785
   76CHL1  H12A 6762   0.571   6.142   3.646  0.1635  3.4829  0.7633
   76CHL1  H12B 6763   0.728   6.209   3.607  0.7346  0.8904 -1.7961
   76CHL1   C11 6764   0.609   6.178   3.430  0.1604  0.2487  0.3626
   76CHL1  H11A 6765   0.523   6.121   3.389  0.4644  1.6258 -2.3954
   76CHL1  H11B 6766   0.566   6.280   3.447 -4.1345 -1.4843  1.1711
   76CHL1    C9 6767   0.728   6.161   3.325 -0.0671  0.2704  0.3126
   76CHL1    H9 6768   0.814   6.223   3.360  3.3878 -2.9596 -1.6073
   76CHL1   C10 6769   0.700   6.201   3.179  0.7228 -0.0361 -0.8672
   76CHL1   C19 6770   0.561   6.141   3.137  0.4549  0.4714  0.3324
   76CHL1  H19A 6771   0.547   6.149   3.027  2.9659 -1.2732 -0.2039
   76CHL1  H19B 6772   0.546   6.035   3.165 -1.9817  0.9038  0.8481
   76CHL1  H19C 6773   0.478   6.195   3.186 -0.7391 -0.1946 -0.9057
   76CHL1    C1 6774   0.700   6.354   3.176  0.9108 -0.5455  0.8680
   76CHL1   H1A 6775   0.627   6.381   3.256 -0.4361  0.4779 -0.6447
   76CHL1   H1B 6776   0.795   6.394   3.217  0.3380 -0.9929  2.7249
   76CHL1    C2 6777   0.684   6.433   3.049 -0.4398 -0.3825  0.3411
   76CHL1   H2A 6778   0.700   6.543   3.057 -0.1821 -0.5162  2.0194
   76CHL1   H2B 6779   0.581   6.413   3.011 -0.6932  0.8065  0.3479
   76CHL1   C20 6780   0.721   5.916   3.836 -0.0514 -0.3590 -0.2501
   76CHL1   H20 6781   0.658   5.833   3.797  0.4725 -0.4227 -0.9874
   76CHL1   C21 6782   0.640   6.035   3.885 -0.3401 -0.3657 -0.3624
   76CHL1  H21A 6783   0.561   6.058   3.810 -0.2573 -2.6927 -1.2380
   76CHL1  H21B 6784   0.705   6.123   3.905 -1.4303  0.4040 -0.0826
   76CHL1  H21C 6785   0.588   6.008   3.980  0.0667  0.4620  0.1039
   76CHL1   C22 6786   0.806   5.858   3.950 -0.5862  0.7026 -1.1414
   76CHL1  H22A 6787   0.888   5.804   3.899 -0.1145 -0.8334  1.0832
   76CHL1  H22B 6788   0.845   5.942   4.011 -1.2025  0.4585 -0.3821
   76CHL1   C23 6789   0.741   5.770   4.056  0.0535 -0.0901 -0.3184
   76CHL1  H23A 6790   0.759   5.798   4.162 -1.5438  2.6666 -0.6860
   76CHL1  H23B 6791   0.632   5.776   4.034 -0.0311 -1.4173 -0.3602
   76CHL1   C24 6792   0.790   5.623   4.041 -0.8334 -0.3355 -0.4793
   76CHL1  H24A 6793   0.770   5.578   3.941  1.6218 -1.2849 -0.6202
   76CHL1  H24B 6794   0.901   5.616   4.050 -0.7322  1.5019  0.1552
   76CHL1   C25 6795   0.728   5.523   4.146 -0.2782 -0.4156  0.1279
   76CHL1   H25 6796   0.682   5.592   4.220 -1.0160 -0.9033  0.1319
   76CHL1   C26 6797   0.625   5.435   4.084  0.5461  0.6658  0.1773
   76CHL1  H26A 6798   0.576   5.385   4.170  2.4809 -1.4932  0.0978
   76CHL1  H26B 6799   0.554   5.495   4.022  0.1991  0.9331  0.8281
   76CHL1  H26C 6800   0.667   5.362   4.012 -0.6766 -0.5634  0.6622
   76CHL1   C27 6801   0.838   5.442   4.214  0.1592  0.4232  0.2440
   76CHL1  H27A 6802   0.893   5.513   4.279 -0.3725 -0.4250  1.6613
   76CHL1  H27B 6803   0.795   5.359   4.274 -0.0553  0.4509  0.1317
   76CHL1  H27C 6804   0.893   5.393   4.130 -0.6407  0.9952 -0.6412
   77SOPE     N 6805   1.557   1.301   6.831 -0.0317 -0.1675  0.0838
   77SOPE   HN1 6806   1.489   1.234   6.790 -0.4006  0.0957  0.2536
   77SOPE   HN2 6807   1.609   1.254   6.908  0.1159  0.0001  0.0876
   77SOPE   HN3 6808   1.511   1.382   6.878  0.0924  2.0218 -3.2392
   77SOPE   C12 6809   1.648   1.331   6.720 -0.6228  0.4880  0.5172
   77SOPE  H12A 6810   1.665   1.440   6.713  2.2372  0.1658  0.9955
   77SOPE  H12B 6811   1.603   1.302   6.622  2.2856  0.4654 -0.9304
   77SOPE   C11 6812   1.790   1.277   6.742  0.4017 -0.7876 -1.0698
   77SOPE  H11A 6813   1.870   1.317   6.676  0.4534 -0.4771 -0.8165
   77SOPE  H11B 6814   1.782   1.167   6.727 -0.6041 -0.4274 -3.7623
   77SOPE     P 6815   1.971   1.301   6.923  0.1430 -0.0009  0.2651
   77SOPE   O13 6816   1.958   1.256   7.063  0.4356  0.0114  0.2674
   77SOPE   O14 6817   2.042   1.430   6.897  0.2945  0.3684 -0.8735
   77SOPE   O12 6818   1.819   1.314   6.875  0.4573 -0.1109  0.3717
   77SOPE   O11 6819   2.023   1.190   6.819  0.6084 -0.3881 -0.0810
   77SOPE    C1 6820   2.017   1.054   6.847  0.1461 -0.1470  0.7624
   77SOPE    HA 6821   1.917   1.014   6.874  0.6630 -1.3731  0.9377
   77SOPE    HB 6822   2.083   1.030   6.934 -0.7423 -1.4160  1.1054
   77SOPE    C2 6823   2.059   0.974   6.719  0.2082  0.1073 -0.2299
   77SOPE    HS 6824   2.168   0.989   6.701  0.0781 -0.3260 -1.4810
   77SOPE   O21 6825   1.978   0.993   6.606 -0.1537 -0.6980 -0.1136
   77SOPE   C21 6826   2.003   1.107   6.537  0.7542 -0.0160  0.2897
   77SOPE   O22 6827   2.109   1.172   6.536 -1.0299  0.0747  0.3479
   77SOPE   C22 6828   1.882   1.130   6.451  0.9616  0.2329 -0.0921
   77SOPE   H2R 6829   1.805   1.185   6.510 -0.9890  0.2114 -2.4548
   77SOPE   H2S 6830   1.828   1.039   6.419  1.4806 -0.4813  1.0113
   77SOPE    C3 6831   2.076   0.818   6.753 -0.3684  0.6772  0.1195
   77SOPE    HX 6832   1.976   0.776   6.779 -0.5356  1.6922  1.1741
   77SOPE    HY 6833   2.139   0.820   6.845 -0.2302  3.0692  0.0125
   77SOPE   O31 6834   2.129   0.744   6.640 -0.0507  0.3732  0.0328
   77SOPE   C31 6835   2.262   0.732   6.643  0.0856 -0.6012  1.1322
   77SOPE   O32 6836   2.328   0.743   6.743  1.0400  0.0291 -0.1720
   77SOPE   C32 6837   2.329   0.693   6.505 -0.3423  0.4993 -0.8823
   77SOPE   H2X 6838   2.253   0.648   6.438  0.8357 -0.0136 -1.9041
   77SOPE   H2Y 6839   2.392   0.606   6.534 -0.7080  0.3642 -0.4693
   77SOPE   C23 6840   1.911   1.212   6.320  0.2450 -0.2957 -0.5399
   77SOPE   H3R 6841   1.956   1.312   6.337  1.9377 -0.8920 -1.2669
   77SOPE   H3S 6842   1.814   1.236   6.272 -1.0865 -1.2618  1.5114
   77SOPE   C24 6843   1.986   1.142   6.207  0.1114  0.4631  1.0957
   77SOPE   H4R 6844   2.000   1.220   6.129 -0.6386  2.6451  3.0366
   77SOPE   H4S 6845   2.084   1.107   6.246 -0.3795 -0.1343  1.8237
   77SOPE   C25 6846   1.903   1.030   6.138  0.1647 -0.7305  0.4035
   77SOPE   H5R 6847   1.958   0.933   6.148  4.3887  0.9983 -2.8444
   77SOPE   H5S 6848   1.801   1.022   6.182 -0.1279  0.3478 -0.0536
   77SOPE   C26 6849   1.902   1.049   5.983  0.0653 -0.1842  0.0423
   77SOPE   H6R 6850   1.875   1.155   5.966 -0.6793 -0.4000 -0.1752
   77SOPE   H6S 6851   2.006   1.031   5.949  0.7860 -2.5686  3.0628
   77SOPE   C27 6852   1.821   0.949   5.908 -0.0497 -0.0754  0.2597
   77SOPE   H7R 6853   1.838   0.844   5.940 -0.9549 -0.3961 -0.2428
   77SOPE   H7S 6854   1.712   0.972   5.916 -0.2799 -0.0188 -2.1604
   77SOPE   C28 6855   1.848   0.959   5.757 -0.8274  0.7335  0.4197
   77SOPE   H8R 6856   1.834   1.064   5.724  0.3476  0.7639 -0.0430
   77SOPE   H8S 6857   1.958   0.943   5.750 -1.3375 -3.7847 -0.9129
   77SOPE   C29 6858   1.780   0.856   5.673 -0.2877  0.0821 -0.4868
   77SOPE   H91 6859   1.689   0.808   5.712  1.0270 -1.6558  0.6089
   77SOPE  C210 6860   1.821   0.809   5.555  0.4592 -0.7701 -0.1850
   77SOPE  H101 6861   1.762   0.726   5.513 -1.2708  0.8612 -1.1515
   77SOPE  C211 6862   1.949   0.853   5.486 -0.1514 -0.1731  0.1744
   77SOPE  H11R 6863   2.027   0.805   5.548 -0.9622 -1.5625  0.1749
   77SOPE  H11S 6864   1.969   0.961   5.499 -0.2406  0.1803 -2.3077
   77SOPE  C212 6865   1.954   0.798   5.344 -0.2619 -0.5347 -0.5902
   77SOPE  H12R 6866   1.913   0.696   5.334 -1.5249 -0.1919  0.6886
   77SOPE  H12S 6867   2.058   0.816   5.311 -0.8082  1.1468 -1.5583
   77SOPE  C213 6868   1.861   0.884   5.257 -0.2622  0.1057 -0.1543
   77SOPE  H13R 6869   1.884   0.991   5.274  0.7849 -0.0052 -0.7794
   77SOPE  H13S 6870   1.752   0.875   5.279 -0.6352  2.0373 -1.0574
   77SOPE  C214 6871   1.886   0.847   5.114  0.0512  0.4514  0.9190
   77SOPE  H14R 6872   1.849   0.743   5.102  2.6822 -0.4145 -0.2688
   77SOPE  H14S 6873   1.994   0.845   5.090  0.1721  0.7300  1.4325
   77SOPE  C215 6874   1.802   0.920   5.017  0.2924 -0.4354 -0.4113
   77SOPE  H15R 6875   1.834   1.027   5.015 -1.8576  0.3766  2.3552
   77SOPE  H15S 6876   1.698   0.917   5.055  0.3296  0.4997 -0.2151
   77SOPE  C216 6877   1.798   0.863   4.879  0.6165 -0.0407  0.2739
   77SOPE  H16R 6878   1.741   0.768   4.870 -0.3988  0.6781 -1.3492
   77SOPE  H16S 6879   1.900   0.846   4.838 -0.6560 -0.3704 -3.0505
   77SOPE  C217 6880   1.741   0.956   4.761 -0.0500  0.3767 -0.3062
   77SOPE  H17R 6881   1.743   0.899   4.666  0.0843  1.3473 -0.8991
   77SOPE  H17S 6882   1.801   1.049   4.758  1.8400 -0.7747 -0.1206
   77SOPE  C218 6883   1.594   0.998   4.775  0.4090 -0.9344  0.3089
   77SOPE  H18R 6884   1.572   1.035   4.878  1.1568  0.8248 -0.1274
   77SOPE  H18S 6885   1.524   0.912   4.768  0.5006 -1.0628  0.8750
   77SOPE  H18T 6886   1.565   1.081   4.707  0.7137 -1.5811 -0.6293
   77SOPE   C33 6887   2.411   0.804   6.431 -0.0418  0.3526  0.1315
   77SOPE   H3X 6888   2.461   0.761   6.341 -1.6246 -2.3356  0.4061
   77SOPE   H3Y 6889   2.486   0.853   6.496 -0.5919 -0.1416  1.1726
   77SOPE   C34 6890   2.322   0.913   6.368  0.5266  0.2971 -0.1473
   77SOPE   H4X 6891   2.259   0.966   6.443  0.7308  0.4664 -0.0956
   77SOPE   H4Y 6892   2.268   0.862   6.285  0.4013  1.3713 -0.7539
   77SOPE   C35 6893   2.401   1.029   6.299 -0.1109  0.0585  0.1398
   77SOPE   H5X 6894   2.464   1.078   6.376  2.7876 -2.2894 -0.5518
   77SOPE   H5Y 6895   2.331   1.111   6.274  1.6478  1.6387  0.2392
   77SOPE   C36 6896   2.492   0.993   6.177  0.7088 -0.3026  0.7308
   77SOPE   H6X 6897   2.571   0.916   6.194  0.7437 -1.0930 -2.3992
   77SOPE   H6Y 6898   2.528   1.092   6.143 -1.2017  0.4455  0.7485
   77SOPE   C37 6899   2.398   0.932   6.073  0.2286  0.0781  0.2367
   77SOPE   H7X 6900   2.305   0.992   6.082  0.5152  0.5548  0.0573
   77SOPE   H7Y 6901   2.379   0.823   6.084 -1.9474  0.4667  0.8679
   77SOPE   C38 6902   2.469   0.950   5.939  0.6245  0.3229  0.8783
   77SOPE   H8X 6903   2.567   0.898   5.946  0.7025  0.2430 -0.5863
   77SOPE   H8Y 6904   2.486   1.058   5.919 -1.8423  0.4264 -1.1862
   77SOPE   C39 6905   2.394   0.885   5.822 -0.4276  0.7629 -0.1928
   77SOPE   H9X 6906   2.289   0.921   5.809 -0.8451 -0.3339 -0.0174
   77SOPE   H9Y 6907   2.378   0.775   5.827 -3.1303  0.9890 -1.5673
   77SOPE  C310 6908   2.462   0.918   5.688 -0.8048 -0.5464  0.4147
   77SOPE  H10X 6909   2.551   0.853   5.677  2.2496  3.2515  0.7709
   77SOPE  H10Y 6910   2.496   1.023   5.684 -3.0102  0.2036  0.2071
   77SOPE  C311 6911   2.374   0.899   5.559  0.2595  0.5042  0.3900
   77SOPE  H11X 6912   2.307   0.988   5.555 -0.0760  0.2032 -2.6995
   77SOPE  H11Y 6913   2.317   0.804   5.566  1.8806 -0.5938 -0.8359
   77SOPE  C312 6914   2.450   0.902   5.424 -0.5351  0.1768 -0.0867
   77SOPE  H12X 6915   2.548   0.849   5.421  0.7614  2.4750 -2.5349
   77SOPE  H12Y 6916   2.481   1.007   5.405  2.4447 -0.4099  1.0138
   77SOPE  C313 6917   2.372   0.829   5.313 -0.2448 -0.1193 -0.1221
   77SOPE  H13X 6918   2.280   0.891   5.304 -1.1368 -1.0098  2.1040
   77SOPE  H13Y 6919   2.340   0.725   5.335 -0.0473 -0.9308 -3.2116
   77SOPE  C314 6920   2.446   0.824   5.178  0.3598 -0.5994  0.0909
   77SOPE  H14X 6921   2.518   0.740   5.179  0.1097 -0.8072  0.6308
   77SOPE  H14Y 6922   2.500   0.921   5.179 -3.1966  1.5800  0.5191
   77SOPE  C315 6923   2.350   0.826   5.054  0.1030 -0.0766 -0.9710
   77SOPE  H15X 6924   2.276   0.909   5.045 -0.0954 -0.4467 -3.1749
   77SOPE  H15Y 6925   2.292   0.733   5.069 -1.3940  1.2667  2.7455
   77SOPE  C316 6926   2.421   0.833   4.921 -0.3988  0.2454  0.1135
   77SOPE  H16X 6927   2.509   0.764   4.914 -0.0824  0.4864  1.4377
   77SOPE  H16Y 6928   2.458   0.938   4.915 -2.1480  0.8670 -0.3236
   77SOPE  C317 6929   2.327   0.787   4.809  0.6545  0.8609  0.1429
   77SOPE  H17X 6930   2.325   0.676   4.814 -1.8476  0.8831  3.3769
   77SOPE  H17Y 6931   2.359   0.818   4.707  2.2324 -2.4591 -0.4888
   77SOPE  C318 6932   2.170   0.814   4.818  0.0625 -0.6740  0.2430
   77SOPE  H18X 6933   2.126   0.802   4.716 -0.8122  0.6990  0.4332
   77SOPE  H18Y 6934   2.158   0.921   4.843  2.6874 -0.8527  2.7489
   77SOPE  H18Z 6935   2.114   0.745   4.885 -0.1274 -0.0804  0.7037
   78SOPE     N 6936   5.473   1.565   6.654  0.3949  0.1887 -0.2887
   78SOPE   HN1 6937   5.466   1.470   6.697 -2.0116  0.8925  1.0758
   78SOPE   HN2 6938   5.546   1.609   6.713  2.0304 -1.2525 -1.1324
   78SOPE   HN3 6939   5.390   1.627   6.662  0.5491  0.8196 -2.7521
   78SOPE   C12 6940   5.526   1.557   6.512  0.5718 -0.0921 -1.1641
   78SOPE  H12A 6941   5.591   1.645   6.493 -0.2954  0.7068 -0.4847
   78SOPE  H12B 6942   5.442   1.563   6.439  0.7090 -0.7394 -1.3845
   78SOPE   C11 6943   5.622   1.428   6.498  0.8398 -0.1756 -0.6220
   78SOPE  H11A 6944   5.656   1.432   6.392  2.1816 -1.3431 -0.2719
   78SOPE  H11B 6945   5.561   1.337   6.513  0.3994  0.3036  0.6037
   78SOPE     P 6946   5.876   1.515   6.562 -0.6621  0.0710 -0.2497
   78SOPE   O13 6947   5.977   1.431   6.636  0.2389  0.6150 -0.0285
   78SOPE   O14 6948   5.860   1.658   6.601  0.4232  0.8350 -0.1139
   78SOPE   O12 6949   5.734   1.445   6.592 -0.5467  0.5738  0.0320
   78SOPE   O11 6950   5.888   1.522   6.399  0.2774 -0.2237  0.0012
   78SOPE    C1 6951   5.993   1.452   6.340  0.2810 -0.1399 -0.2083
   78SOPE    HA 6952   5.953   1.410   6.245 -0.6142 -0.4332  0.2925
   78SOPE    HB 6953   6.020   1.362   6.400 -1.5471 -1.0246 -0.6330
   78SOPE    C2 6954   6.117   1.532   6.299  0.2512 -0.3053  0.4136
   78SOPE    HS 6955   6.159   1.565   6.396  0.5769 -2.0213  0.8734
   78SOPE   O21 6956   6.074   1.639   6.210 -0.1593 -0.2688 -0.0209
   78SOPE   C21 6957   6.138   1.754   6.216 -0.5239  0.0874  0.0579
   78SOPE   O22 6958   6.224   1.784   6.296  0.4371 -0.2060  0.3993
   78SOPE   C22 6959   6.083   1.855   6.114  0.3293 -0.5504 -0.3135
   78SOPE   H2R 6960   6.125   1.951   6.151  1.2271 -1.0296 -0.0781
   78SOPE   H2S 6961   5.973   1.867   6.125  0.1217 -0.3501 -2.2772
   78SOPE    C3 6962   6.222   1.433   6.240  0.0787 -0.2303  0.8301
   78SOPE    HX 6963   6.239   1.347   6.308  0.3269 -0.4091  0.5436
   78SOPE    HY 6964   6.321   1.483   6.236  1.4226 -2.7159  0.4508
   78SOPE   O31 6965   6.189   1.378   6.110  0.2614  0.3252 -0.5399
   78SOPE   C31 6966   6.223   1.441   5.996  0.3394 -0.3399 -0.7473
   78SOPE   O32 6967   6.284   1.549   6.000  1.1904  0.3521  1.0143
   78SOPE   C32 6968   6.167   1.379   5.866 -0.0745 -0.3507 -0.1332
   78SOPE   H2X 6969   6.073   1.435   5.843  0.4226  1.6242  2.2290
   78SOPE   H2Y 6970   6.147   1.270   5.868 -2.3036 -0.0650 -2.1800
   78SOPE   C23 6971   6.116   1.823   5.970 -0.3127 -0.4034 -0.5443
   78SOPE   H3R 6972   6.068   1.726   5.946  1.0452 -0.8441 -1.5612
   78SOPE   H3S 6973   6.224   1.799   5.965  0.1071  0.8943  1.2252
   78SOPE   C24 6974   6.089   1.937   5.871 -0.1436 -0.2733 -0.1325
   78SOPE   H4R 6975   5.985   1.972   5.888 -0.2782 -0.7405  0.0157
   78SOPE   H4S 6976   6.159   2.020   5.896  0.8745 -1.3284  0.5823
   78SOPE   C25 6977   6.124   1.908   5.722 -0.0060 -0.8538 -0.4332
   78SOPE   H5R 6978   6.225   1.865   5.707 -0.5007 -2.7987  1.2860
   78SOPE   H5S 6979   6.053   1.829   5.688  1.1724 -1.0052 -2.7958
   78SOPE   C26 6980   6.117   2.035   5.647 -0.3214 -0.4158  0.2817
   78SOPE   H6R 6981   6.015   2.079   5.655  0.0925  0.8025 -0.7460
   78SOPE   H6S 6982   6.187   2.110   5.689 -4.0695  1.7652  3.3650
   78SOPE   C27 6983   6.156   2.005   5.501  0.8061  0.3031  0.0349
   78SOPE   H7R 6984   6.262   1.972   5.507  1.5706  2.7857  1.8216
   78SOPE   H7S 6985   6.098   1.921   5.456  1.2965  0.2798 -0.5553
   78SOPE   C28 6986   6.147   2.130   5.405  0.0011 -0.9951  0.1211
   78SOPE   H8R 6987   6.203   2.213   5.455 -1.3166  0.3334 -0.5484
   78SOPE   H8S 6988   6.209   2.099   5.318 -0.5887 -2.4075  0.1879
   78SOPE   C29 6989   6.009   2.174   5.362 -0.3685 -0.2362 -0.4510
   78SOPE   H91 6990   5.940   2.208   5.441 -1.6619 -0.3410 -1.4936
   78SOPE  C210 6991   5.965   2.185   5.228 -0.1257  0.2302  0.3410
   78SOPE  H101 6992   5.862   2.218   5.211 -0.1688 -0.3338 -0.5945
   78SOPE  C211 6993   6.042   2.152   5.105 -0.6396  0.2272  0.2549
   78SOPE  H11R 6994   6.147   2.186   5.123 -0.7528 -0.2421  1.9717
   78SOPE  H11S 6995   5.986   2.203   5.024 -2.7193 -1.7393  0.3808
   78SOPE  C212 6996   6.047   2.004   5.057 -0.4957  0.3698  0.5988
   78SOPE  H12R 6997   5.944   1.966   5.045 -0.3836  0.2599 -0.0240
   78SOPE  H12S 6998   6.093   1.949   5.142  0.9821 -0.4394 -0.6812
   78SOPE  C213 6999   6.133   1.977   4.932 -0.5502  0.0668 -0.9421
   78SOPE  H13R 7000   6.156   1.869   4.919  0.4238 -0.3565  2.9363
   78SOPE  H13S 7001   6.228   2.020   4.969  0.0780 -3.5042  2.2194
   78SOPE  C214 7002   6.085   2.049   4.804  0.5215  0.3473 -0.3018
   78SOPE  H14R 7003   6.042   2.146   4.835 -1.6392 -1.1643  1.7671
   78SOPE  H14S 7004   6.006   1.991   4.750  0.7935  0.0733 -0.4092
   78SOPE  C215 7005   6.195   2.091   4.709 -0.1749  0.2242  0.1666
   78SOPE  H15R 7006   6.247   1.994   4.693 -2.4435 -0.8978 -0.9819
   78SOPE  H15S 7007   6.269   2.165   4.746 -0.5617  0.5840  0.2395
   78SOPE  C216 7008   6.146   2.138   4.576 -0.2348 -0.0452 -0.2937
   78SOPE  H16R 7009   6.089   2.233   4.591 -0.6012 -0.5001  1.3960
   78SOPE  H16S 7010   6.081   2.066   4.523 -1.2723 -0.8247  1.9203
   78SOPE  C217 7011   6.274   2.164   4.488  0.5154 -0.2813  0.3763
   78SOPE  H17R 7012   6.324   2.069   4.457 -0.1295 -0.8200  0.9600
   78SOPE  H17S 7013   6.346   2.229   4.543 -1.1931  2.9313 -0.9133
   78SOPE  C218 7014   6.242   2.234   4.354 -0.5909 -0.1686 -0.2150
   78SOPE  H18R 7015   6.326   2.275   4.293 -1.0699  0.6789 -0.3227
   78SOPE  H18S 7016   6.184   2.326   4.377 -0.1780 -0.3685  1.8069
   78SOPE  H18T 7017   6.175   2.170   4.293 -1.7418  0.8882 -0.0846
   78SOPE   C33 7018   6.247   1.419   5.745  0.2635 -0.8578 -0.6261
   78SOPE   H3X 7019   6.353   1.392   5.763 -0.1699 -0.9346  2.3659
   78SOPE   H3Y 7020   6.254   1.530   5.746  1.3751 -0.8981  1.4646
   78SOPE   C34 7021   6.187   1.393   5.603  0.0407 -0.4889  0.4160
   78SOPE   H4X 7022   6.079   1.420   5.608  0.3071  0.6789  0.2514
   78SOPE   H4Y 7023   6.186   1.286   5.573  1.0994 -0.3358 -0.2271
   78SOPE   C35 7024   6.264   1.476   5.497 -0.1390 -0.5400 -0.0744
   78SOPE   H5X 7025   6.365   1.437   5.474 -0.1931 -0.4579 -0.4566
   78SOPE   H5Y 7026   6.265   1.583   5.525 -0.0801 -0.2622 -1.0928
   78SOPE   C36 7027   6.180   1.486   5.372 -0.3759  0.0580 -0.2858
   78SOPE   H6X 7028   6.087   1.536   5.404  0.7154  2.0652 -0.0413
   78SOPE   H6Y 7029   6.154   1.386   5.332  0.8576  0.3766 -2.0299
   78SOPE   C37 7030   6.233   1.583   5.259  0.2534 -0.8348 -0.3495
   78SOPE   H7X 7031   6.234   1.684   5.305 -0.9669 -0.5325 -0.9650
   78SOPE   H7Y 7032   6.153   1.584   5.182  0.4007  1.4809 -0.5232
   78SOPE   C38 7033   6.362   1.546   5.191 -0.6223 -0.3146  0.1411
   78SOPE   H8X 7034   6.364   1.439   5.161  0.7978  0.5309 -3.3174
   78SOPE   H8Y 7035   6.450   1.561   5.257  0.0450  2.2998 -1.2123
   78SOPE   C39 7036   6.396   1.626   5.063 -0.9381  0.1311 -0.0004
   78SOPE   H9X 7037   6.503   1.597   5.055 -1.0646 -0.6510  0.9393
   78SOPE   H9Y 7038   6.388   1.734   5.085 -0.0566 -0.1731  2.0117
   78SOPE  C310 7039   6.314   1.592   4.935  1.3046 -0.1073 -0.4273
   78SOPE  H10X 7040   6.209   1.613   4.962  1.2769 -0.0012 -0.6191
   78SOPE  H10Y 7041   6.309   1.484   4.910  1.1715 -0.3525  0.6382
   78SOPE  C311 7042   6.353   1.669   4.805 -0.0681  0.0875  0.0375
   78SOPE  H11X 7043   6.350   1.778   4.824  2.9053  0.2540  0.0579
   78SOPE  H11Y 7044   6.274   1.661   4.727  0.0802 -0.5387 -0.0533
   78SOPE  C312 7045   6.494   1.631   4.756 -0.2693 -0.2964  0.1144
   78SOPE  H12X 7046   6.562   1.616   4.842 -0.8082  1.2750  0.8636
   78SOPE  H12Y 7047   6.535   1.716   4.697  0.3012 -0.1100  0.7730
   78SOPE  C313 7048   6.492   1.498   4.680 -0.0036  0.3972  0.2281
   78SOPE  H13X 7049   6.423   1.503   4.593 -0.4242 -0.4683  0.5049
   78SOPE  H13Y 7050   6.443   1.427   4.750  0.1721 -0.6473 -0.6918
   78SOPE  C314 7051   6.630   1.449   4.625  0.9128  0.1652  0.2087
   78SOPE  H14X 7052   6.612   1.355   4.569 -1.5788  1.8856 -2.1453
   78SOPE  H14Y 7053   6.708   1.431   4.702 -1.0319 -1.2167  1.9653
   78SOPE  C315 7054   6.683   1.542   4.515  0.4134 -0.4351  0.0958
   78SOPE  H15X 7055   6.710   1.639   4.561 -1.1733 -0.2155  0.6134
   78SOPE  H15Y 7056   6.601   1.578   4.449  0.6805  1.3879  0.7169
   78SOPE  C316 7057   6.795   1.477   4.427 -0.0887  0.1000  0.0577
   78SOPE  H16X 7058   6.760   1.389   4.369 -0.6473  1.1083 -1.1612
   78SOPE  H16Y 7059   6.876   1.437   4.491  0.5350 -3.7115 -2.7814
   78SOPE  C317 7060   6.875   1.570   4.328 -0.1910 -0.9171 -0.0345
   78SOPE  H17X 7061   6.912   1.645   4.402  0.9592 -0.5860 -0.9148
   78SOPE  H17Y 7062   6.805   1.624   4.260 -0.2370  1.3505  1.6806
   78SOPE  C318 7063   6.989   1.498   4.256 -0.6655 -0.0654 -0.6474
   78SOPE  H18X 7064   7.061   1.471   4.337 -1.0698  0.9865  0.0756
   78SOPE  H18Y 7065   7.035   1.577   4.193  0.6650  0.4987  0.9508
   78SOPE  H18Z 7066   6.966   1.409   4.194  2.6894 -1.3953 -0.2297
   79SOPE     N 7067   1.154   4.358   6.677 -0.0277 -0.1753  0.3364
   79SOPE   HN1 7068   1.190   4.448   6.715 -2.5622  0.7643  0.6789
   79SOPE   HN2 7069   1.083   4.318   6.742 -0.6423  0.6509  0.1874
   79SOPE   HN3 7070   1.237   4.295   6.676  0.9686  1.0700 -2.0675
   79SOPE   C12 7071   1.101   4.376   6.541  0.3936 -0.2431  0.4503
   79SOPE  H12A 7072   1.026   4.294   6.529  0.6358 -0.3729 -0.1934
   79SOPE  H12B 7073   1.178   4.364   6.462 -1.2145 -2.4437 -0.9140
   79SOPE   C11 7074   1.015   4.507   6.525  0.3840 -0.2869 -0.3795
   79SOPE  H11A 7075   0.929   4.494   6.595  0.9103 -1.4865  0.0829
   79SOPE  H11B 7076   0.974   4.512   6.422  0.4323  0.2719 -0.3722
   79SOPE     P 7077   1.050   4.767   6.550  0.6659 -0.2575  0.4031
   79SOPE   O13 7078   1.179   4.843   6.546  0.3212  0.1746 -0.1002
   79SOPE   O14 7079   0.952   4.808   6.656 -0.1864  0.0512  1.3744
   79SOPE   O12 7080   1.084   4.620   6.571 -0.1820  0.3500 -0.1969
   79SOPE   O11 7081   0.988   4.778   6.409  0.7436  0.1125  0.1823
   79SOPE    C1 7082   0.847   4.812   6.403  0.9139 -0.4182  0.1113
   79SOPE    HA 7083   0.850   4.921   6.423  1.6712  0.1495 -2.6529
   79SOPE    HB 7084   0.776   4.774   6.479 -0.9148  1.2842 -0.6738
   79SOPE    C2 7085   0.785   4.800   6.262  0.5055 -0.0720 -0.4971
   79SOPE    HS 7086   0.857   4.845   6.190  2.9965 -1.6668  0.8400
   79SOPE   O21 7087   0.655   4.870   6.256 -0.2187  0.2911 -0.0536
   79SOPE   C21 7088   0.650   4.998   6.250 -1.0301 -0.8636  0.1598
   79SOPE   O22 7089   0.739   5.082   6.263  0.2536  0.1482 -0.2369
   79SOPE   C22 7090   0.507   5.045   6.232 -0.4901 -0.3964 -0.2979
   79SOPE   H2R 7091   0.459   5.053   6.332 -0.4317  0.9504 -0.3587
   79SOPE   H2S 7092   0.447   4.973   6.173 -0.7477 -1.3079  1.0526
   79SOPE    C3 7093   0.762   4.648   6.227  0.4163  0.4552 -0.4785
   79SOPE    HX 7094   0.720   4.586   6.309 -1.8096 -0.3059 -2.0619
   79SOPE    HY 7095   0.862   4.603   6.211  1.1696  1.6387  0.7164
   79SOPE   O31 7096   0.669   4.633   6.116 -0.1858 -0.2417  0.9103
   79SOPE   C31 7097   0.716   4.640   5.989  0.4145 -0.2776  0.0194
   79SOPE   O32 7098   0.829   4.661   5.954  0.2973  0.4773 -0.4388
   79SOPE   C32 7099   0.594   4.633   5.897  0.3538 -0.0044  0.0111
   79SOPE   H2X 7100   0.504   4.653   5.959 -0.2761 -0.7130 -0.6507
   79SOPE   H2Y 7101   0.583   4.524   5.880 -2.0337  0.1802  0.1425
   79SOPE   C23 7102   0.512   5.176   6.163  0.5892  0.0362 -0.4140
   79SOPE   H3R 7103   0.594   5.176   6.088  1.4581  1.5248  0.4864
   79SOPE   H3S 7104   0.538   5.262   6.228 -0.3046 -0.4308  0.5866
   79SOPE   C24 7105   0.388   5.214   6.085 -0.0317  0.0602 -0.3096
   79SOPE   H4R 7106   0.299   5.195   6.150 -2.1119  0.0104 -2.9698
   79SOPE   H4S 7107   0.388   5.324   6.072  0.0997  0.3034  1.4820
   79SOPE   C25 7108   0.364   5.116   5.958  0.5746 -0.1515  0.4047
   79SOPE   H5R 7109   0.432   5.156   5.880  0.7139  0.9755  1.0819
   79SOPE   H5S 7110   0.382   5.009   5.983  0.1217 -0.7637 -1.7124
   79SOPE   C26 7111   0.219   5.129   5.902 -0.1341  0.5206 -0.2170
   79SOPE   H6R 7112   0.139   5.130   5.979  0.2936 -0.0223  0.2436
   79SOPE   H6S 7113   0.219   5.229   5.853  2.9079  1.0191  0.5620
   79SOPE   C27 7114   0.180   5.014   5.812  0.0080 -0.1939 -0.0413
   79SOPE   H7R 7115   0.197   4.920   5.869 -0.7290 -1.0983 -1.2556
   79SOPE   H7S 7116   0.076   5.021   5.773  0.1055  1.7104 -0.0586
   79SOPE   C28 7117   0.259   4.999   5.683 -0.1604  0.0059 -0.1848
   79SOPE   H8R 7118   0.235   5.079   5.611  0.8895 -1.3946 -2.1965
   79SOPE   H8S 7119   0.368   5.019   5.693 -0.5503  2.0074  0.4589
   79SOPE   C29 7120   0.250   4.862   5.613  0.5456 -0.7828  0.1644
   79SOPE   H91 7121   0.235   4.783   5.688 -0.4795  0.1603  1.0080
   79SOPE  C210 7122   0.272   4.847   5.484 -0.6130 -0.3863 -0.3377
   79SOPE  H101 7123   0.266   4.743   5.448  1.7727 -0.9389  0.6509
   79SOPE  C211 7124   0.300   4.957   5.380 -0.0693  0.0706 -0.4577
   79SOPE  H11R 7125   0.355   5.039   5.431  2.3958 -1.8388  0.1360
   79SOPE  H11S 7126   0.205   4.997   5.338 -0.0309  0.4711 -0.1744
   79SOPE  C212 7127   0.404   4.919   5.269  0.6556 -0.6482  0.3479
   79SOPE  H12R 7128   0.489   4.869   5.320  1.2550  1.3365  1.3755
   79SOPE  H12S 7129   0.434   5.014   5.221 -2.0646  0.1002 -0.0856
   79SOPE  C213 7130   0.340   4.833   5.162 -0.4291 -0.3336  0.1546
   79SOPE  H13R 7131   0.233   4.857   5.141 -1.2900 -2.7924  1.2609
   79SOPE  H13S 7132   0.343   4.729   5.201  1.8385 -0.0478  0.8351
   79SOPE  C214 7133   0.432   4.839   5.041  0.6601  0.0852  0.4403
   79SOPE  H14R 7134   0.540   4.823   5.065  1.0144  0.3557 -0.8874
   79SOPE  H14S 7135   0.416   4.939   4.996 -0.6070 -0.8699 -1.3207
   79SOPE  C215 7136   0.398   4.731   4.931 -0.1677 -0.3056  0.0966
   79SOPE  H15R 7137   0.287   4.734   4.925 -0.1781  1.8065  0.7589
   79SOPE  H15S 7138   0.436   4.629   4.957 -1.6643 -1.3445 -1.5344
   79SOPE  C216 7139   0.458   4.741   4.798  0.3055 -0.5104 -0.0002
   79SOPE  H16R 7140   0.415   4.666   4.728 -0.2925  0.7206 -1.0070
   79SOPE  H16S 7141   0.568   4.742   4.805  0.2395 -0.0904  1.1543
   79SOPE  C217 7142   0.435   4.869   4.726  0.1763 -0.2252  0.3155
   79SOPE  H17R 7143   0.494   4.951   4.774 -0.3210  0.1726  0.2604
   79SOPE  H17S 7144   0.327   4.888   4.743  0.3174 -1.1746  2.6528
   79SOPE  C218 7145   0.461   4.863   4.575  0.4183  0.5515 -0.2933
   79SOPE  H18R 7146   0.445   4.956   4.517  0.6629  1.4361  1.0102
   79SOPE  H18S 7147   0.401   4.787   4.520  1.3814  0.4864 -1.2865
   79SOPE  H18T 7148   0.562   4.825   4.550  0.0314 -1.0036  0.3578
   79SOPE   C33 7149   0.603   4.708   5.763  0.6667 -0.2178  0.5858
   79SOPE   H3X 7150   0.654   4.805   5.782  0.4929 -0.2877  1.4511
   79SOPE   H3Y 7151   0.500   4.738   5.733  0.5830 -0.9064  0.1555
   79SOPE   C34 7152   0.662   4.629   5.653 -0.5094  0.4005  0.1659
   79SOPE   H4X 7153   0.622   4.526   5.659  2.2088 -0.6743  1.2274
   79SOPE   H4Y 7154   0.771   4.619   5.665 -0.0542  2.5340 -1.4722
   79SOPE   C35 7155   0.647   4.689   5.510  0.2592  0.5013 -0.3572
   79SOPE   H5X 7156   0.713   4.779   5.516  1.4346 -0.3822  0.6715
   79SOPE   H5Y 7157   0.543   4.725   5.497  1.1611  3.3735 -0.3405
   79SOPE   C36 7158   0.701   4.586   5.412  0.3658 -0.3343  0.7301
   79SOPE   H6X 7159   0.646   4.489   5.407 -0.4257  0.1229  0.3799
   79SOPE   H6Y 7160   0.805   4.555   5.438  1.4265  0.9736 -1.6320
   79SOPE   C37 7161   0.716   4.649   5.265  0.0251 -0.3089  0.1435
   79SOPE   H7X 7162   0.773   4.743   5.278  0.0194 -0.4434  1.2472
   79SOPE   H7Y 7163   0.617   4.675   5.222  1.5197 -0.1846 -3.5855
   79SOPE   C38 7164   0.780   4.541   5.185 -0.5239 -0.3549  0.1046
   79SOPE   H8X 7165   0.729   4.442   5.179 -1.1467  0.0449 -1.6927
   79SOPE   H8Y 7166   0.875   4.525   5.241 -1.4990  0.6184  2.1491
   79SOPE   C39 7167   0.823   4.596   5.045  0.6360  0.2000  0.3282
   79SOPE   H9X 7168   0.930   4.567   5.048  0.2807 -2.0557 -3.1973
   79SOPE   H9Y 7169   0.820   4.707   5.038  0.6964  0.1322 -0.9925
   79SOPE  C310 7170   0.769   4.517   4.925 -0.3155 -0.4243 -0.1638
   79SOPE  H10X 7171   0.659   4.527   4.910 -0.2537 -0.4482 -0.6502
   79SOPE  H10Y 7172   0.797   4.413   4.952  1.0780  0.2587  1.1340
   79SOPE  C311 7173   0.828   4.563   4.796 -0.2806  0.0997  0.0613
   79SOPE  H11X 7174   0.938   4.576   4.802  0.3478 -2.7165 -2.5619
   79SOPE  H11Y 7175   0.781   4.657   4.761  1.6220  0.1869 -2.5766
   79SOPE  C312 7176   0.810   4.465   4.680 -0.6248 -0.3714 -0.1845
   79SOPE  H12X 7177   0.703   4.446   4.656 -1.1153 -0.2670  1.7390
   79SOPE  H12Y 7178   0.853   4.376   4.730 -1.2123  0.1350  1.3080
   79SOPE  C313 7179   0.874   4.502   4.546  0.4845  0.1985  0.2199
   79SOPE  H13X 7180   0.984   4.501   4.557  0.6153 -3.1495 -0.1377
   79SOPE  H13Y 7181   0.832   4.593   4.497  0.3661 -0.0262 -0.1040
   79SOPE  C314 7182   0.852   4.391   4.444 -0.5670  0.2674 -0.5487
   79SOPE  H14X 7183   0.748   4.377   4.409 -0.3530  1.5068 -1.7701
   79SOPE  H14Y 7184   0.894   4.297   4.488  0.5247 -0.1513 -2.3724
   79SOPE  C315 7185   0.946   4.407   4.320  0.2545 -0.0194  0.6105
   79SOPE  H15X 7186   1.052   4.425   4.348  1.0336  0.1138 -2.1328
   79SOPE  H15Y 7187   0.918   4.503   4.272  2.3387  0.0595 -0.5569
   79SOPE  C316 7188   0.946   4.287   4.232  0.4952  0.4095  0.3331
   79SOPE  H16X 7189   0.847   4.278   4.182  0.1212 -0.6983  1.2446
   79SOPE  H16Y 7190   0.953   4.193   4.289 -0.9881 -1.5479 -2.4517
   79SOPE  C317 7191   1.053   4.281   4.127 -0.3969  0.1746  0.4569
   79SOPE  H17X 7192   1.156   4.294   4.167 -0.7490 -0.8814  1.7816
   79SOPE  H17Y 7193   1.036   4.373   4.067  1.9416 -0.6931 -1.7250
   79SOPE  C318 7194   1.038   4.159   4.032 -0.3274 -0.2384  0.0168
   79SOPE  H18X 7195   0.961   4.165   3.952  0.5914 -1.0428 -0.9480
   79SOPE  H18Y 7196   1.014   4.064   4.084 -1.5970 -0.8314 -1.5741
   79SOPE  H18Z 7197   1.135   4.149   3.980 -0.9824  1.8569 -1.7433
   80SOPE     N 7198   5.099   1.571   7.015 -0.3515 -0.3828  0.1361
   80SOPE   HN1 7199   5.080   1.621   6.926  0.4222  2.1527  1.3018
   80SOPE   HN2 7200   5.044   1.620   7.089 -0.3017 -1.5061  0.9355
   80SOPE   HN3 7201   5.200   1.572   7.037 -0.2721 -3.0812  0.1923
   80SOPE   C12 7202   5.054   1.429   7.022  0.1536  0.5351 -0.3739
   80SOPE  H12A 7203   4.946   1.415   7.000 -0.0536  0.3393  0.7209
   80SOPE  H12B 7204   5.081   1.385   7.120  1.9602  1.9075 -0.1906
   80SOPE   C11 7205   5.118   1.348   6.910  0.0658 -0.0439 -0.2849
   80SOPE  H11A 7206   5.075   1.391   6.817  2.0680  4.0736  0.4703
   80SOPE  H11B 7207   5.078   1.245   6.922 -0.4274  0.1944  0.2062
   80SOPE     P 7208   5.353   1.241   6.849  0.2328  0.0648  0.3376
   80SOPE   O13 7209   5.406   1.152   6.953  0.5007  0.1058  0.2406
   80SOPE   O14 7210   5.456   1.307   6.756  0.2144 -0.0619 -0.0443
   80SOPE   O12 7211   5.260   1.351   6.915 -0.4146  0.4885 -0.0367
   80SOPE   O11 7212   5.244   1.165   6.757  0.1463  0.5531  0.3935
   80SOPE    C1 7213   5.225   1.204   6.617 -0.2400  0.5858  0.3156
   80SOPE    HA 7214   5.227   1.314   6.604 -3.4848  0.8085  1.0219
   80SOPE    HB 7215   5.126   1.169   6.581  0.0043 -1.5216  1.4995
   80SOPE    C2 7216   5.326   1.134   6.518  0.2938  0.4174 -0.0363
   80SOPE    HS 7217   5.429   1.143   6.559  0.9305  0.0223 -1.4636
   80SOPE   O21 7218   5.308   1.179   6.386  0.3017  0.3067  0.5433
   80SOPE   C21 7219   5.421   1.179   6.307 -0.1548 -0.0288 -0.0816
   80SOPE   O22 7220   5.532   1.155   6.346 -0.3570  0.3067 -0.4576
   80SOPE   C22 7221   5.394   1.213   6.161  0.3012 -0.4522  0.0465
   80SOPE   H2R 7222   5.425   1.319   6.147  2.4799 -1.0531 -0.1992
   80SOPE   H2S 7223   5.284   1.210   6.145  0.1299 -0.9398  1.2590
   80SOPE    C3 7224   5.295   0.981   6.520 -0.3621  0.3600  0.2447
   80SOPE    HX 7225   5.200   0.965   6.465 -0.8100  2.3741  0.3345
   80SOPE    HY 7226   5.298   0.958   6.629  2.2472  0.2142  0.2170
   80SOPE   O31 7227   5.409   0.909   6.468  0.0673 -0.0783 -0.2458
   80SOPE   C31 7228   5.400   0.853   6.343 -0.4331  0.0975  0.3978
   80SOPE   O32 7229   5.310   0.868   6.263  0.4697 -0.0534 -0.4747
   80SOPE   C32 7230   5.543   0.793   6.320 -0.4853 -0.0808 -0.2061
   80SOPE   H2X 7231   5.589   0.739   6.405 -0.4271  0.1498 -0.0889
   80SOPE   H2Y 7232   5.617   0.876   6.308  1.7264 -1.6704  1.5717
   80SOPE   C23 7233   5.485   1.133   6.067  0.6166 -0.2102  0.0382
   80SOPE   H3R 7234   5.468   1.024   6.083 -0.9961 -0.0703 -0.5520
   80SOPE   H3S 7235   5.587   1.159   6.103  0.8286  1.3880 -1.5619
   80SOPE   C24 7236   5.472   1.186   5.922  0.0261  0.3801 -0.3898
   80SOPE   H4R 7237   5.367   1.222   5.913 -0.2620 -0.2677  0.2862
   80SOPE   H4S 7238   5.542   1.268   5.895  2.0224 -0.7945  0.9847
   80SOPE   C25 7239   5.494   1.072   5.819  0.2967  0.2176  0.0842
   80SOPE   H5R 7240   5.604   1.061   5.809  0.5160  0.5852  1.7709
   80SOPE   H5S 7241   5.452   0.977   5.857  0.4884  0.3143  0.5521
   80SOPE   C26 7242   5.431   1.111   5.682 -0.0213  0.7107  0.0420
   80SOPE   H6R 7243   5.322   1.115   5.704  0.1128 -0.8403  1.0981
   80SOPE   H6S 7244   5.480   1.199   5.634  0.5420 -1.0853 -2.8933
   80SOPE   C27 7245   5.439   0.998   5.585  0.1271  0.2611  0.2636
   80SOPE   H7R 7246   5.541   0.955   5.570  0.6126  1.8048 -1.2793
   80SOPE   H7S 7247   5.378   0.911   5.616 -0.1299  0.5455  0.5674
   80SOPE   C28 7248   5.400   1.040   5.440 -0.2530 -0.0929 -0.1781
   80SOPE   H8R 7249   5.305   1.097   5.440 -0.9394 -1.1960 -0.5775
   80SOPE   H8S 7250   5.468   1.115   5.395 -1.7416  0.5277 -1.5067
   80SOPE   C29 7251   5.386   0.927   5.342  0.4914 -0.4702 -0.3400
   80SOPE   H91 7252   5.359   0.832   5.390  1.0765 -0.3627  0.2176
   80SOPE  C210 7253   5.368   0.941   5.210  0.0647 -0.3541 -0.2966
   80SOPE  H101 7254   5.360   0.854   5.144 -4.0681 -0.3823  0.0112
   80SOPE  C211 7255   5.400   1.074   5.134 -0.4531 -0.4860  0.3634
   80SOPE  H11R 7256   5.477   1.128   5.194  0.6777 -1.9671  0.3235
   80SOPE  H11S 7257   5.316   1.144   5.122 -1.2021 -1.5643 -1.0484
   80SOPE  C212 7258   5.460   1.066   4.989 -0.2125 -0.1711 -0.3139
   80SOPE  H12R 7259   5.487   1.171   4.965  1.7045 -0.8112 -1.1753
   80SOPE  H12S 7260   5.384   1.029   4.917 -0.7968  2.4148 -1.1078
   80SOPE  C213 7261   5.595   0.979   4.987  0.4392 -0.2858  0.6921
   80SOPE  H13R 7262   5.581   0.885   5.045  4.9506 -2.5428 -1.3592
   80SOPE  H13S 7263   5.656   1.043   5.055  0.7140 -0.0890  0.2655
   80SOPE  C214 7264   5.646   0.946   4.850  0.0075  0.2769  0.2369
   80SOPE  H14R 7265   5.593   0.854   4.816 -0.2416 -0.1181  1.5994
   80SOPE  H14S 7266   5.753   0.921   4.864 -0.3270 -0.3145  2.0446
   80SOPE  C215 7267   5.648   1.058   4.754 -0.0776 -1.0274  1.0453
   80SOPE  H15R 7268   5.556   1.120   4.747  0.1214 -0.8843 -0.6924
   80SOPE  H15S 7269   5.667   1.008   4.657  0.0407 -0.1876  0.6280
   80SOPE  C216 7270   5.768   1.155   4.785  0.6480  0.4243 -0.2142
   80SOPE  H16R 7271   5.859   1.101   4.819  1.4202  2.0789  0.4300
   80SOPE  H16S 7272   5.749   1.226   4.868  1.2575  0.0381  0.2656
   80SOPE  C217 7273   5.804   1.247   4.663  1.1391  0.6833 -0.5186
   80SOPE  H17R 7274   5.735   1.332   4.646  1.5196  1.2041  0.5175
   80SOPE  H17S 7275   5.807   1.189   4.568  0.4939  1.1098 -0.8088
   80SOPE  C218 7276   5.942   1.313   4.679  0.0527  0.1029  0.2339
   80SOPE  H18R 7277   5.960   1.401   4.615 -0.5899  0.3107  0.3271
   80SOPE  H18S 7278   6.020   1.236   4.664 -1.1238 -0.9146 -0.9933
   80SOPE  H18T 7279   5.940   1.346   4.785 -0.7557  2.2247 -0.3840
   80SOPE   C33 7280   5.548   0.694   6.199  1.0068 -0.2882  0.4001
   80SOPE   H3X 7281   5.474   0.613   6.215  1.9684 -1.2715  0.0089
   80SOPE   H3Y 7282   5.646   0.642   6.208  0.7160 -0.9998 -0.4573
   80SOPE   C34 7283   5.534   0.748   6.054 -0.0452  0.1674  0.2808
   80SOPE   H4X 7284   5.618   0.819   6.037  2.0900 -1.8721  1.6509
   80SOPE   H4Y 7285   5.438   0.798   6.028  1.4825  2.1314 -1.8800
   80SOPE   C35 7286   5.560   0.631   5.960  0.3286 -0.4264 -0.0198
   80SOPE   H5X 7287   5.518   0.533   5.990  0.4936 -0.6480 -0.5005
   80SOPE   H5Y 7288   5.671   0.620   5.955  0.5284  1.5041 -0.6101
   80SOPE   C36 7289   5.498   0.661   5.818 -0.4269 -0.2557 -0.9022
   80SOPE   H6X 7290   5.529   0.764   5.794  0.5057  0.0012  1.1249
   80SOPE   H6Y 7291   5.388   0.661   5.826 -0.3985  2.0070  0.1832
   80SOPE   C37 7292   5.541   0.561   5.709  0.7186 -0.2062  0.1732
   80SOPE   H7X 7293   5.525   0.455   5.739  3.0369 -0.3593  1.0346
   80SOPE   H7Y 7294   5.651   0.556   5.695  0.9867 -3.4582  2.2810
   80SOPE   C38 7295   5.472   0.601   5.570 -0.8335 -0.2788 -0.5691
   80SOPE   H8X 7296   5.503   0.707   5.554 -0.0107 -0.5658 -0.9583
   80SOPE   H8Y 7297   5.362   0.600   5.581 -0.7052 -0.6476  0.9224
   80SOPE   C39 7298   5.513   0.518   5.459 -0.0166 -0.3646  0.4110
   80SOPE   H9X 7299   5.538   0.412   5.482 -1.2869 -1.0288 -1.0989
   80SOPE   H9Y 7300   5.605   0.567   5.421 -1.2522  1.5378 -0.2723
   80SOPE  C310 7301   5.412   0.519   5.349  0.0202  0.8421 -0.8972
   80SOPE  H10X 7302   5.385   0.624   5.328  3.7067  2.7165  2.5274
   80SOPE  H10Y 7303   5.332   0.457   5.395  0.8231  1.4685  1.5001
   80SOPE  C311 7304   5.464   0.448   5.223  0.3999 -0.0930 -0.6582
   80SOPE  H11X 7305   5.507   0.348   5.248  2.4368  0.4977 -1.5654
   80SOPE  H11Y 7306   5.544   0.512   5.179  0.7372  0.9224  1.3168
   80SOPE  C312 7307   5.351   0.412   5.126  0.6095 -0.7458 -0.4355
   80SOPE  H12X 7308   5.300   0.505   5.097 -1.6112 -1.6611  0.3152
   80SOPE  H12Y 7309   5.276   0.350   5.179 -0.4545 -1.2069 -2.4010
   80SOPE  C313 7310   5.387   0.336   4.998  0.5648  0.1838  0.5522
   80SOPE  H13X 7311   5.444   0.250   5.038  1.0107  0.6056  0.8319
   80SOPE  H13Y 7312   5.450   0.394   4.927 -0.9430 -0.4722 -1.4192
   80SOPE  C314 7313   5.268   0.295   4.908  0.0390 -0.0626 -0.4893
   80SOPE  H14X 7314   5.208   0.385   4.884  0.2560  0.0775 -0.5001
   80SOPE  H14Y 7315   5.187   0.242   4.963 -0.6960 -0.3480 -1.7814
   80SOPE  C315 7316   5.300   0.201   4.789 -0.1971 -0.2072  0.4044
   80SOPE  H15X 7317   5.381   0.253   4.735 -1.1573  0.1540 -0.7357
   80SOPE  H15Y 7318   5.210   0.195   4.723 -0.2718 -3.5411  0.6457
   80SOPE  C316 7319   5.345   0.054   4.817  0.2024  0.0885  0.0281
   80SOPE  H16X 7320   5.400   0.052   4.914  0.8383 -0.9800 -0.3400
   80SOPE  H16Y 7321   5.408   0.015   4.734  0.2521 -0.9957  0.5605
   80SOPE  C317 7322   5.230  -0.047   4.815 -0.4742 -0.4684 -0.6303
   80SOPE  H17X 7323   5.271  -0.150   4.809 -0.2523 -0.3523 -1.1930
   80SOPE  H17Y 7324   5.173  -0.034   4.720 -1.2183 -0.0065 -0.1339
   80SOPE  C318 7325   5.148  -0.033   4.946  0.8573 -0.8544 -0.3519
   80SOPE  H18X 7326   5.070  -0.111   4.949 -1.4187  1.2993 -0.2520
   80SOPE  H18Y 7327   5.110   0.071   4.956  1.6230 -0.3369 -2.2728
   80SOPE  H18Z 7328   5.220  -0.052   5.029 -1.8051 -1.1719  2.0253
   81SOPE     N 7329   1.832   4.380   6.703  0.7729 -0.7108 -0.6321
   81SOPE   HN1 7330   1.909   4.411   6.766  1.1128 -2.9573  0.1606
   81SOPE   HN2 7331   1.842   4.422   6.608  2.6399 -0.2093 -0.2437
   81SOPE   HN3 7332   1.743   4.417   6.742  1.4150  2.1976 -1.6560
   81SOPE   C12 7333   1.827   4.229   6.712  0.4920  0.0330  1.0300
   81SOPE  H12A 7334   1.811   4.207   6.820  1.7612 -3.7306  0.6028
   81SOPE  H12B 7335   1.935   4.206   6.693  0.7702 -0.9700  3.3789
   81SOPE   C11 7336   1.730   4.168   6.602 -0.2804 -0.4816 -0.6187
   81SOPE  H11A 7337   1.741   4.058   6.611  2.4229 -0.3251 -1.0996
   81SOPE  H11B 7338   1.768   4.183   6.498  0.6604 -0.7843 -0.3264
   81SOPE     P 7339   1.499   4.126   6.717 -0.2351 -0.0908 -0.5798
   81SOPE   O13 7340   1.359   4.172   6.719  0.1503  0.1869 -0.3392
   81SOPE   O14 7341   1.564   4.111   6.849  0.3495 -0.2240  0.2168
   81SOPE   O12 7342   1.599   4.211   6.618  0.2286 -0.2287 -0.6102
   81SOPE   O11 7343   1.491   3.974   6.669 -0.3829  0.0508  0.7369
   81SOPE    C1 7344   1.482   3.955   6.527  0.0514 -0.1728 -0.1616
   81SOPE    HA 7345   1.578   3.982   6.479  1.5482 -2.0585  1.6137
   81SOPE    HB 7346   1.390   3.995   6.479  0.2065  1.9548  1.1504
   81SOPE    C2 7347   1.469   3.806   6.518 -0.0779 -0.1398  0.3294
   81SOPE    HS 7348   1.557   3.762   6.571  0.6597  0.0550 -0.7090
   81SOPE   O21 7349   1.460   3.755   6.378 -1.3357  0.0306 -0.1836
   81SOPE   C21 7350   1.574   3.752   6.319 -0.0188 -0.0936 -0.1767
   81SOPE   O22 7351   1.680   3.795   6.360 -0.1507 -0.2144 -0.2108
   81SOPE   C22 7352   1.549   3.675   6.187  0.0762  0.3343 -0.8120
   81SOPE   H2R 7353   1.466   3.726   6.133 -0.3367  1.4927  0.8530
   81SOPE   H2S 7354   1.517   3.572   6.213  0.8227  0.8303  2.4055
   81SOPE    C3 7355   1.341   3.746   6.590  0.6689  0.3193 -0.3193
   81SOPE    HX 7356   1.345   3.798   6.689 -2.0388  2.6068 -1.2732
   81SOPE    HY 7357   1.367   3.640   6.610  0.6399  0.4849  0.6725
   81SOPE   O31 7358   1.209   3.779   6.539 -0.0667  0.3817  0.2395
   81SOPE   C31 7359   1.150   3.687   6.463  0.0758  0.4236 -0.2102
   81SOPE   O32 7360   1.193   3.575   6.450 -0.2364 -0.0210  0.2962
   81SOPE   C32 7361   1.035   3.744   6.387 -0.0885 -0.0369  1.3805
   81SOPE   H2X 7362   1.025   3.854   6.404  0.6864  0.3663 -0.5225
   81SOPE   H2Y 7363   0.940   3.690   6.408 -0.9105  1.2551  1.1211
   81SOPE   C23 7364   1.672   3.671   6.094 -0.4605 -0.1643 -0.3813
   81SOPE   H3R 7365   1.654   3.593   6.016  1.2026 -0.4004 -0.5843
   81SOPE   H3S 7366   1.768   3.639   6.140 -0.4662  1.3210  0.7332
   81SOPE   C24 7367   1.690   3.792   6.008 -0.2498 -0.0036  0.5215
   81SOPE   H4R 7368   1.600   3.818   5.948  0.7932 -1.1255 -1.6550
   81SOPE   H4S 7369   1.719   3.881   6.067  1.7271 -0.2006 -0.0593
   81SOPE   C25 7370   1.800   3.771   5.898 -0.0148  0.4305 -0.5248
   81SOPE   H5R 7371   1.868   3.859   5.904  0.8872 -0.3629  2.6675
   81SOPE   H5S 7372   1.856   3.683   5.934 -0.6237  0.6843  1.0970
   81SOPE   C26 7373   1.736   3.739   5.761  0.0593  0.1488 -0.4115
   81SOPE   H6R 7374   1.662   3.814   5.725 -2.0001 -2.0210 -0.9558
   81SOPE   H6S 7375   1.825   3.740   5.694  0.3918 -0.0804  0.0234
   81SOPE   C27 7376   1.678   3.594   5.759 -0.4869 -0.5229  0.4449
   81SOPE   H7R 7377   1.748   3.514   5.793  1.3953 -1.3309 -4.5204
   81SOPE   H7S 7378   1.580   3.579   5.810 -0.6705  2.4562  1.1649
   81SOPE   C28 7379   1.657   3.545   5.614  0.0882 -0.0151 -0.2470
   81SOPE   H8R 7380   1.756   3.522   5.570 -1.1520  0.5884 -3.6659
   81SOPE   H8S 7381   1.592   3.455   5.604 -1.3815  0.8438  1.1526
   81SOPE   C29 7382   1.581   3.638   5.517 -0.1269 -0.0497 -0.4486
   81SOPE   H91 7383   1.482   3.675   5.548  0.1487  0.6317 -0.3631
   81SOPE  C210 7384   1.612   3.669   5.390 -0.1099  1.1441 -0.0183
   81SOPE  H101 7385   1.550   3.741   5.334 -1.7099 -0.1686 -0.0153
   81SOPE  C211 7386   1.736   3.636   5.307  0.1499 -0.3606 -0.4239
   81SOPE  H11R 7387   1.700   3.575   5.221  1.4683  1.0338 -2.0427
   81SOPE  H11S 7388   1.808   3.572   5.361  0.6421 -2.1216 -2.9522
   81SOPE  C212 7389   1.799   3.761   5.241  0.0280 -0.3260 -0.0395
   81SOPE  H12R 7390   1.834   3.822   5.327 -1.3577 -1.0507  1.1043
   81SOPE  H12S 7391   1.717   3.818   5.193  0.1701  0.5752  0.7486
   81SOPE  C213 7392   1.897   3.718   5.135 -0.4711 -0.0226 -0.2747
   81SOPE  H13R 7393   1.859   3.634   5.074 -1.4018 -0.3917  0.7788
   81SOPE  H13S 7394   1.984   3.672   5.187 -0.0972  1.1414  0.1760
   81SOPE  C214 7395   1.953   3.835   5.051 -0.5832 -0.1086  0.3360
   81SOPE  H14R 7396   1.984   3.916   5.120  0.2052  1.2920 -1.5900
   81SOPE  H14S 7397   1.874   3.883   4.988 -2.1657 -1.2593  1.3558
   81SOPE  C215 7398   2.074   3.801   4.968  0.0699  0.3966  0.1685
   81SOPE  H15R 7399   2.062   3.723   4.890  1.3352  0.2149  0.1430
   81SOPE  H15S 7400   2.163   3.767   5.025  0.1163 -2.0814 -1.2647
   81SOPE  C216 7401   2.128   3.917   4.895 -0.2275  0.1491  0.4455
   81SOPE  H16R 7402   2.144   3.997   4.971 -0.9445 -0.6491  1.4452
   81SOPE  H16S 7403   2.053   3.951   4.820  0.0551  1.4084  0.7073
   81SOPE  C217 7404   2.259   3.887   4.825 -0.3530  0.2901  0.4377
   81SOPE  H17R 7405   2.241   3.802   4.756 -0.1830 -1.7536  2.8205
   81SOPE  H17S 7406   2.334   3.847   4.896 -0.1330  1.2715  0.7858
   81SOPE  C218 7407   2.329   4.000   4.749 -0.5966  0.2002 -0.4628
   81SOPE  H18R 7408   2.370   4.069   4.825 -1.4412  1.5449 -1.1831
   81SOPE  H18S 7409   2.262   4.063   4.686 -0.9548  1.1937  0.8656
   81SOPE  H18T 7410   2.413   3.961   4.687 -0.1432 -0.6335  0.6610
   81SOPE   C33 7411   1.062   3.739   6.233  0.5798  0.6443  0.2104
   81SOPE   H3X 7412   0.961   3.762   6.193  0.1708 -0.1968  0.7220
   81SOPE   H3Y 7413   1.085   3.635   6.204  1.6594  1.0229 -0.3244
   81SOPE   C34 7414   1.173   3.831   6.176  0.5289  0.0408  0.4676
   81SOPE   H4X 7415   1.269   3.806   6.225  1.6327 -2.1981 -2.5438
   81SOPE   H4Y 7416   1.161   3.936   6.209  1.3541 -0.1099  1.2791
   81SOPE   C35 7417   1.212   3.824   6.030  0.1175  0.2979 -0.1699
   81SOPE   H5X 7418   1.121   3.843   5.970  0.8909 -1.8438 -2.2032
   81SOPE   H5Y 7419   1.246   3.720   6.008  3.1331  0.6957  1.9870
   81SOPE   C36 7420   1.297   3.941   5.994 -0.5152 -0.4761  0.8216
   81SOPE   H6X 7421   1.387   3.938   6.059  0.4031 -1.7085 -0.4470
   81SOPE   H6Y 7422   1.243   4.036   6.014 -0.7293 -0.1118 -1.2573
   81SOPE   C37 7423   1.349   3.940   5.841 -0.5028 -0.4429 -0.2516
   81SOPE   H7X 7424   1.416   3.851   5.832  4.7601  3.0695 -0.3098
   81SOPE   H7Y 7425   1.408   4.030   5.814  1.6633 -1.3197  1.2753
   81SOPE   C38 7426   1.237   3.944   5.735 -0.0941  0.2042 -0.1792
   81SOPE   H8X 7427   1.176   4.035   5.754  0.6707  0.4086  1.4335
   81SOPE   H8Y 7428   1.178   3.851   5.748 -2.1458  1.4600 -0.0891
   81SOPE   C39 7429   1.283   3.926   5.588  0.1487 -0.0312  0.1999
   81SOPE   H9X 7430   1.388   3.889   5.586  0.1722  0.0537 -1.2930
   81SOPE   H9Y 7431   1.287   4.030   5.550 -0.4898  0.1571  0.6328
   81SOPE  C310 7432   1.198   3.835   5.500 -0.1503 -0.0907 -0.4268
   81SOPE  H10X 7433   1.091   3.864   5.499  0.0576  0.7695  0.6058
   81SOPE  H10Y 7434   1.198   3.736   5.550 -1.5054  0.3130  0.4327
   81SOPE  C311 7435   1.249   3.821   5.359  0.4145  0.0098  0.3107
   81SOPE  H11X 7436   1.205   3.731   5.312  1.9234 -1.0161  0.7780
   81SOPE  H11Y 7437   1.359   3.811   5.349  0.3536 -1.4044  0.7263
   81SOPE  C312 7438   1.207   3.940   5.276 -0.3554 -0.7021  0.1482
   81SOPE  H12X 7439   1.270   4.026   5.307  2.2310 -2.0317 -1.1074
   81SOPE  H12Y 7440   1.105   3.980   5.294 -0.1986 -0.8691  1.5357
   81SOPE  C313 7441   1.226   3.927   5.131  0.2587 -0.1161  0.6475
   81SOPE  H13X 7442   1.201   4.014   5.068  2.3374 -0.8745 -1.3419
   81SOPE  H13Y 7443   1.162   3.847   5.088  3.0674 -1.5124 -1.1901
   81SOPE  C314 7444   1.361   3.899   5.081 -0.4784 -0.5518  1.4182
   81SOPE  H14X 7445   1.400   3.796   5.097  3.4219  0.3733 -0.7335
   81SOPE  H14Y 7446   1.439   3.965   5.125  0.4871 -1.2443  0.7760
   81SOPE  C315 7447   1.390   3.920   4.932 -0.3326 -0.3513 -0.6104
   81SOPE  H15X 7448   1.359   4.019   4.892  0.9694 -0.2639 -1.4807
   81SOPE  H15Y 7449   1.334   3.846   4.872 -0.9031 -1.2711  1.0096
   81SOPE  C316 7450   1.537   3.901   4.895 -0.3678  1.0244 -0.1315
   81SOPE  H16X 7451   1.548   3.792   4.915  0.7401  0.9500 -1.0856
   81SOPE  H16Y 7452   1.610   3.965   4.947  0.5952 -0.7312  0.7789
   81SOPE  C317 7453   1.567   3.925   4.746  0.3192  0.5277 -1.4002
   81SOPE  H17X 7454   1.677   3.923   4.730  0.4103  0.5668 -0.7966
   81SOPE  H17Y 7455   1.538   4.029   4.718 -0.9569  0.6733  0.3364
   81SOPE  C318 7456   1.496   3.827   4.648 -0.2265 -0.1809  0.4715
   81SOPE  H18X 7457   1.550   3.826   4.551 -1.4809 -1.2088 -0.2570
   81SOPE  H18Y 7458   1.392   3.845   4.613  0.5965  0.8008 -1.6738
   81SOPE  H18Z 7459   1.496   3.719   4.676  0.7755 -0.4907 -0.6466
   82SOPE     N 7460   4.800   3.591   6.642  0.1157 -0.1317  0.4325
   82SOPE   HN1 7461   4.716   3.568   6.698 -1.4891  0.6163 -1.5273
   82SOPE   HN2 7462   4.797   3.541   6.551 -0.4508 -0.5783  0.6904
   82SOPE   HN3 7463   4.883   3.554   6.691  0.7178  1.6482  0.8302
   82SOPE   C12 7464   4.812   3.737   6.621  0.4899  0.5849 -0.0668
   82SOPE  H12A 7465   4.812   3.781   6.723  0.3919  0.6692 -0.1026
   82SOPE  H12B 7466   4.722   3.778   6.570  0.3995 -0.2955 -0.6497
   82SOPE   C11 7467   4.938   3.778   6.543 -0.2855  0.1393  0.3202
   82SOPE  H11A 7468   4.945   3.717   6.451  0.2077 -2.3309  1.9167
   82SOPE  H11B 7469   5.025   3.747   6.604  0.5360  0.2527 -0.7656
   82SOPE     P 7470   5.040   3.998   6.445 -0.2156 -0.1861  0.2533
   82SOPE   O13 7471   5.173   3.951   6.483 -0.1396 -0.1291  0.6851
   82SOPE   O14 7472   5.017   4.138   6.474 -0.6218 -0.1246  0.2104
   82SOPE   O12 7473   4.928   3.922   6.525  0.1125  0.6640 -0.0368
   82SOPE   O11 7474   5.002   3.963   6.292 -0.6586 -0.0027 -0.4412
   82SOPE    C1 7475   4.867   3.980   6.255  0.1558  0.5554 -0.4676
   82SOPE    HA 7476   4.835   4.083   6.284  0.4389  0.8476 -1.1496
   82SOPE    HB 7477   4.809   3.897   6.301  2.8988 -0.8458  0.6914
   82SOPE    C2 7478   4.860   3.972   6.100 -0.3494  0.5160  0.7959
   82SOPE    HS 7479   4.753   3.954   6.082 -0.3644  1.0461  0.3400
   82SOPE   O21 7480   4.939   3.865   6.054 -0.6090  0.7154 -0.4170
   82SOPE   C21 7481   4.914   3.748   6.103  0.0369 -0.4019  0.0880
   82SOPE   O22 7482   4.812   3.707   6.153 -0.1083 -0.1701  0.2825
   82SOPE   C22 7483   5.047   3.679   6.101  0.3149 -0.4971 -0.0516
   82SOPE   H2R 7484   5.118   3.735   6.165 -1.6305 -1.0194  2.7595
   82SOPE   H2S 7485   5.093   3.681   6.000  2.2570 -2.7929  0.6804
   82SOPE    C3 7486   4.909   4.097   6.033  0.4314 -0.4730  0.0809
   82SOPE    HX 7487   4.927   4.072   5.927  0.0488  3.1545 -0.9741
   82SOPE    HY 7488   5.003   4.128   6.085 -0.3479  0.9625  0.6907
   82SOPE   O31 7489   4.803   4.193   6.033 -0.0824  0.0331 -0.2101
   82SOPE   C31 7490   4.839   4.319   6.068  0.0683  0.2550 -1.0744
   82SOPE   O32 7491   4.943   4.357   6.115 -0.1405  0.2219  0.5124
   82SOPE   C32 7492   4.728   4.407   6.012  0.3341  0.4620 -0.8402
   82SOPE   H2X 7493   4.650   4.410   6.092 -0.5263 -2.5115 -1.4472
   82SOPE   H2Y 7494   4.682   4.359   5.923 -0.8337 -0.4847  0.2383
   82SOPE   C23 7495   5.049   3.532   6.137 -0.0910  1.1677  0.4524
   82SOPE   H3R 7496   4.968   3.493   6.202 -1.9614  3.9018 -0.1072
   82SOPE   H3S 7497   5.139   3.496   6.192 -0.3136 -0.0562  0.0430
   82SOPE   C24 7498   5.045   3.446   6.011  0.1309  0.1511  0.2090
   82SOPE   H4R 7499   5.112   3.472   5.925  0.5378 -1.5436 -0.0380
   82SOPE   H4S 7500   5.090   3.349   6.043  0.5673  0.2822  0.0070
   82SOPE   C25 7501   4.906   3.406   5.966 -0.7225 -0.0713 -0.8223
   82SOPE   H5R 7502   4.863   3.362   6.058 -0.1784  1.3408  0.1289
   82SOPE   H5S 7503   4.839   3.492   5.946 -1.4531 -0.6329 -0.8212
   82SOPE   C26 7504   4.905   3.312   5.849  0.2621 -0.1606 -0.0428
   82SOPE   H6R 7505   4.998   3.255   5.872 -0.1634 -0.6922  0.3878
   82SOPE   H6S 7506   4.820   3.244   5.824 -0.5077  0.9591 -0.5911
   82SOPE   C27 7507   4.932   3.395   5.721  0.3172  0.0141 -0.3688
   82SOPE   H7R 7508   4.940   3.501   5.752  1.0192 -0.4309  1.0465
   82SOPE   H7S 7509   5.037   3.367   5.698  0.0272  0.2997 -2.1389
   82SOPE   C28 7510   4.834   3.376   5.603  0.6938  0.7056 -0.8111
   82SOPE   H8R 7511   4.734   3.412   5.634  0.7504 -0.1443  0.3928
   82SOPE   H8S 7512   4.860   3.442   5.517  0.7734  0.4859 -0.9573
   82SOPE   C29 7513   4.814   3.235   5.559  0.3719  0.1982  0.1375
   82SOPE   H91 7514   4.740   3.180   5.619 -0.3329 -0.0537 -0.9334
   82SOPE  C210 7515   4.865   3.167   5.454  0.0537  0.4652  0.9506
   82SOPE  H101 7516   4.841   3.060   5.441 -4.2040  1.2041  1.4958
   82SOPE  C211 7517   4.964   3.221   5.348  0.3997 -0.0527  0.0011
   82SOPE  H11R 7518   5.069   3.185   5.359  0.9516  1.9565  2.2339
   82SOPE  H11S 7519   4.965   3.332   5.345 -0.0644 -0.0545 -0.3195
   82SOPE  C212 7520   4.916   3.179   5.209  0.1563  0.9284  0.2691
   82SOPE  H12R 7521   4.819   3.231   5.189 -0.5525  0.3241  1.9551
   82SOPE  H12S 7522   4.883   3.073   5.200  0.0556  1.0316 -0.6267
   82SOPE  C213 7523   5.008   3.201   5.092 -0.6251 -0.0807  0.4518
   82SOPE  H13R 7524   4.954   3.159   5.005 -0.7827  1.1193 -0.0383
   82SOPE  H13S 7525   5.101   3.139   5.096  0.8401  2.0072  0.3003
   82SOPE  C214 7526   5.052   3.341   5.062  0.1424 -0.4869 -0.0064
   82SOPE  H14R 7527   5.114   3.378   5.147  2.1134 -0.8772 -1.2057
   82SOPE  H14S 7528   4.963   3.406   5.062 -0.3671 -1.1545  0.7665
   82SOPE  C215 7529   5.145   3.354   4.941 -1.0678  0.1177 -0.2300
   82SOPE  H15R 7530   5.093   3.341   4.844  0.4868  0.7812 -1.1871
   82SOPE  H15S 7531   5.232   3.284   4.936 -1.0000  0.2831 -1.9106
   82SOPE  C216 7532   5.207   3.496   4.932 -0.4701  0.2637 -0.4251
   82SOPE  H16R 7533   5.316   3.492   4.957 -0.7288 -1.1965  0.6503
   82SOPE  H16S 7534   5.156   3.550   5.014 -1.5576 -1.6250  0.2094
   82SOPE  C217 7535   5.177   3.561   4.803 -0.8252 -0.3309 -0.5518
   82SOPE  H17R 7536   5.075   3.541   4.765 -0.8445 -3.0668  0.6881
   82SOPE  H17S 7537   5.252   3.516   4.734 -0.3799 -0.5204  0.0419
   82SOPE  C218 7538   5.213   3.710   4.807 -0.4466 -0.1685 -0.2890
   82SOPE  H18R 7539   5.323   3.722   4.802 -0.3915  0.6577  1.7458
   82SOPE  H18S 7540   5.181   3.753   4.905  2.1972 -0.4007  0.7522
   82SOPE  H18T 7541   5.168   3.767   4.722 -1.4856  0.5538  0.7049
   82SOPE   C33 7542   4.773   4.551   5.983 -0.6250  0.0474 -0.0759
   82SOPE   H3X 7543   4.837   4.561   5.893 -1.9595  2.8838 -0.8434
   82SOPE   H3Y 7544   4.835   4.592   6.066 -0.9107 -0.2038  0.2615
   82SOPE   C34 7545   4.653   4.650   5.978  0.0714  0.2532 -0.4752
   82SOPE   H4X 7546   4.685   4.749   5.939 -1.0900  0.4303 -1.0280
   82SOPE   H4Y 7547   4.616   4.655   6.082  1.4587  0.0633  0.0418
   82SOPE   C35 7548   4.531   4.610   5.894 -0.7318  0.2459  0.5211
   82SOPE   H5X 7549   4.470   4.702   5.881 -0.1650  0.7903  1.5112
   82SOPE   H5Y 7550   4.473   4.530   5.945 -0.6381 -1.5025 -1.9338
   82SOPE   C36 7551   4.573   4.569   5.753  0.0349  0.5597 -0.5325
   82SOPE   H6X 7552   4.480   4.560   5.693 -1.1198  2.5521  0.8322
   82SOPE   H6Y 7553   4.629   4.474   5.739  0.7526  0.5971  1.7773
   82SOPE   C37 7554   4.662   4.675   5.688  0.0029  0.6933 -0.1736
   82SOPE   H7X 7555   4.764   4.657   5.728 -0.3720  1.6994  1.3221
   82SOPE   H7Y 7556   4.642   4.779   5.723 -2.5723  0.7284 -1.5275
   82SOPE   C38 7557   4.642   4.693   5.538  0.3282 -0.0680  0.1944
   82SOPE   H8X 7558   4.675   4.794   5.505 -2.1581  0.0909 -2.1523
   82SOPE   H8Y 7559   4.531   4.689   5.526  0.0850  0.2083  2.0141
   82SOPE   C39 7560   4.701   4.588   5.445 -0.6714  0.2317 -0.3199
   82SOPE   H9X 7561   4.658   4.488   5.469 -3.5389  1.6266  0.9976
   82SOPE   H9Y 7562   4.811   4.582   5.452 -0.7758 -0.0538  2.3438
   82SOPE  C310 7563   4.681   4.620   5.296  0.3590 -0.5750 -0.7075
   82SOPE  H10X 7564   4.692   4.727   5.268  2.2916  0.1530  2.3206
   82SOPE  H10Y 7565   4.575   4.589   5.280  0.2630 -0.6255 -0.0412
   82SOPE  C311 7566   4.779   4.549   5.197  0.4829  0.0906  0.3356
   82SOPE  H11X 7567   4.882   4.577   5.227 -0.0908  0.4931  2.0137
   82SOPE  H11Y 7568   4.770   4.589   5.094  2.0898 -0.7972 -0.1959
   82SOPE  C312 7569   4.758   4.404   5.185 -0.1633  0.0984 -0.8860
   82SOPE  H12X 7570   4.656   4.381   5.149 -0.6544  0.0606  0.4825
   82SOPE  H12Y 7571   4.756   4.353   5.284  0.3259  0.4472 -0.6929
   82SOPE  C313 7572   4.862   4.333   5.104  0.1667  0.4825  0.3026
   82SOPE  H13X 7573   4.854   4.223   5.117  2.3314  0.4368  1.6261
   82SOPE  H13Y 7574   4.963   4.367   5.137 -0.0192  0.2447  1.1213
   82SOPE  C314 7575   4.861   4.363   4.960 -0.0046 -0.1949 -0.6812
   82SOPE  H14X 7576   4.945   4.313   4.907 -0.8666 -0.9539 -1.3758
   82SOPE  H14Y 7577   4.874   4.473   4.949  0.0140 -0.1217  0.0237
   82SOPE  C315 7578   4.732   4.325   4.889 -0.0814  0.1549 -0.0960
   82SOPE  H15X 7579   4.659   4.408   4.900  1.4810  1.9057 -2.1109
   82SOPE  H15Y 7580   4.685   4.227   4.915  0.0507 -0.0834 -0.7181
   82SOPE  C316 7581   4.764   4.312   4.740 -0.3041  0.2761 -0.2997
   82SOPE  H16X 7582   4.841   4.234   4.725 -1.3881 -0.7975 -0.3938
   82SOPE  H16Y 7583   4.811   4.407   4.705 -0.2528  1.2298  2.1129
   82SOPE  C317 7584   4.641   4.270   4.667  0.4615 -0.6966  0.3610
   82SOPE  H17X 7585   4.553   4.326   4.705  1.0382 -0.2812  1.1082
   82SOPE  H17Y 7586   4.615   4.163   4.679  0.3054 -0.9034 -1.5013
   82SOPE  C318 7587   4.639   4.286   4.516 -0.1174 -0.0928  0.0530
   82SOPE  H18X 7588   4.640   4.390   4.477 -0.8884  1.0052  2.7155
   82SOPE  H18Y 7589   4.545   4.237   4.483  0.3333 -1.6046  0.9279
   82SOPE  H18Z 7590   4.717   4.223   4.468 -0.2674 -0.4247  0.2420
   83SOPE     N 7591   2.906   2.732   2.093 -0.6281 -0.0995 -0.5942
   83SOPE   HN1 7592   2.899   2.769   2.189 -0.9438  1.6626 -1.2659
   83SOPE   HN2 7593   2.900   2.628   2.097  0.0216 -0.0898  1.4603
   83SOPE   HN3 7594   3.000   2.764   2.060  0.8830 -3.6531 -0.2396
   83SOPE   C12 7595   2.809   2.764   1.991  0.3794 -0.6088  0.1933
   83SOPE  H12A 7596   2.834   2.701   1.903 -1.9298 -2.0281  0.4706
   83SOPE  H12B 7597   2.820   2.870   1.958 -0.1194 -0.7562 -0.4892
   83SOPE   C11 7598   2.669   2.724   2.033  0.0882 -0.0998 -0.4849
   83SOPE  H11A 7599   2.603   2.748   1.948 -1.4467 -0.4204  0.5813
   83SOPE  H11B 7600   2.639   2.797   2.111 -0.6498 -0.2356 -0.6384
   83SOPE     P 7601   2.538   2.524   2.155 -0.0341  0.2272  0.2970
   83SOPE   O13 7602   2.556   2.379   2.166  0.1572  0.2722  0.4264
   83SOPE   O14 7603   2.412   2.569   2.098  0.0046  0.3965  0.1022
   83SOPE   O12 7604   2.661   2.584   2.077  0.4000  0.1949 -0.6278
   83SOPE   O11 7605   2.553   2.598   2.296 -0.1434  0.0821  0.2244
   83SOPE    C1 7606   2.664   2.553   2.382  0.1045 -0.2543 -0.0623
   83SOPE    HA 7607   2.720   2.632   2.436  1.9570 -0.9984 -0.8248
   83SOPE    HB 7608   2.736   2.491   2.324  1.0775  1.7763 -1.1464
   83SOPE    C2 7609   2.612   2.463   2.497 -0.0192  0.6292  0.6385
   83SOPE    HS 7610   2.555   2.381   2.449  1.3776 -0.4217  0.7211
   83SOPE   O21 7611   2.545   2.542   2.589  0.0520 -0.7698 -0.1628
   83SOPE   C21 7612   2.414   2.533   2.582 -0.0702  0.2254 -1.0695
   83SOPE   O22 7613   2.355   2.473   2.496  0.0497 -0.1867  0.0875
   83SOPE   C22 7614   2.351   2.629   2.684 -0.4249  0.9676 -0.3959
   83SOPE   H2R 7615   2.260   2.579   2.724  0.8125 -0.0041  1.3209
   83SOPE   H2S 7616   2.329   2.720   2.624 -0.3244 -0.3661 -2.5684
   83SOPE    C3 7617   2.728   2.394   2.558 -0.1766  0.4708  0.5305
   83SOPE    HX 7618   2.799   2.475   2.585  0.4102 -0.0259  0.5294
   83SOPE    HY 7619   2.784   2.330   2.485  1.4079  1.4184  0.8778
   83SOPE   O31 7620   2.678   2.315   2.670 -0.0194  0.0730  0.3183
   83SOPE   C31 7621   2.627   2.191   2.649  0.3683  0.8255 -0.3555
   83SOPE   O32 7622   2.616   2.135   2.542 -0.5798  0.4709  0.1555
   83SOPE   C32 7623   2.582   2.126   2.785 -0.4422  0.2484  0.0359
   83SOPE   H2X 7624   2.474   2.100   2.785 -0.2865 -0.4664 -1.4347
   83SOPE   H2Y 7625   2.600   2.206   2.860 -2.1032  1.2152 -0.5477
   83SOPE   C23 7626   2.446   2.655   2.801 -0.0272 -0.1399 -0.7243
   83SOPE   H3R 7627   2.409   2.740   2.864  1.6416  0.7407 -0.8799
   83SOPE   H3S 7628   2.547   2.688   2.769 -0.5037  1.2750 -0.8548
   83SOPE   C24 7629   2.453   2.529   2.889  0.1513 -0.1795  0.3640
   83SOPE   H4R 7630   2.364   2.518   2.955  1.1081 -0.9769  1.5626
   83SOPE   H4S 7631   2.458   2.437   2.827  2.0366  0.4274 -0.4652
   83SOPE   C25 7632   2.581   2.529   2.978  0.0308 -0.2271 -0.0595
   83SOPE   H5R 7633   2.660   2.463   2.938  0.1748  1.8483 -3.5794
   83SOPE   H5S 7634   2.632   2.627   2.974  0.4218 -0.4054  0.4536
   83SOPE   C26 7635   2.545   2.503   3.125 -0.6740  0.4508  0.8315
   83SOPE   H6R 7636   2.486   2.584   3.171  0.6841  0.7518  2.1402
   83SOPE   H6S 7637   2.483   2.411   3.127  0.9051 -0.6672  0.5421
   83SOPE   C27 7638   2.669   2.470   3.216 -0.4485 -0.9142  0.3516
   83SOPE   H7R 7639   2.723   2.380   3.179 -1.4455 -0.9096 -1.2176
   83SOPE   H7S 7640   2.738   2.556   3.210 -3.5687  1.7096 -0.9369
   83SOPE   C28 7641   2.644   2.426   3.360 -0.0153  0.2978 -0.8565
   83SOPE   H8R 7642   2.574   2.340   3.363 -0.7820  0.8402 -2.0396
   83SOPE   H8S 7643   2.740   2.382   3.392 -0.7932 -0.1690  0.9365
   83SOPE   C29 7644   2.607   2.540   3.447  1.0864  0.1121  0.6085
   83SOPE   H91 7645   2.656   2.638   3.435  0.9453  0.0146 -0.8702
   83SOPE  C210 7646   2.508   2.537   3.532  0.2133 -0.4559 -1.0548
   83SOPE  H101 7647   2.512   2.621   3.603  0.4055 -1.9570  0.8323
   83SOPE  C211 7648   2.410   2.424   3.571 -0.3303 -0.2255  0.4439
   83SOPE  H11R 7649   2.465   2.349   3.632  1.1705 -0.3024 -0.9499
   83SOPE  H11S 7650   2.368   2.383   3.477 -0.6959  1.0307  0.0432
   83SOPE  C212 7651   2.288   2.459   3.662 -0.1520  0.9206  0.3575
   83SOPE  H12R 7652   2.220   2.371   3.673 -1.1054  1.4686 -0.8724
   83SOPE  H12S 7653   2.232   2.536   3.605  0.3314 -0.4303 -2.0842
   83SOPE  C213 7654   2.325   2.497   3.803  0.0230  0.0156  0.0825
   83SOPE  H13R 7655   2.407   2.572   3.807 -0.0185  0.0607  0.0855
   83SOPE  H13S 7656   2.370   2.404   3.844  0.2375  0.1122  0.0708
   83SOPE  C214 7657   2.213   2.549   3.886  0.2710 -0.4844  0.7876
   83SOPE  H14R 7658   2.125   2.482   3.875 -0.5456  0.8765 -1.5012
   83SOPE  H14S 7659   2.187   2.652   3.854  0.0843 -0.3337  1.4103
   83SOPE  C215 7660   2.254   2.560   4.040  0.8348 -0.2183 -0.0211
   83SOPE  H15R 7661   2.357   2.598   4.052 -0.2535  2.5587  1.5667
   83SOPE  H15S 7662   2.245   2.456   4.079 -0.0713 -0.7806 -1.6581
   83SOPE  C216 7663   2.173   2.653   4.131  0.2882 -0.0695  0.3178
   83SOPE  H16R 7664   2.181   2.757   4.093 -0.7656  0.2083  0.8318
   83SOPE  H16S 7665   2.212   2.651   4.235 -2.3583 -1.8110  1.3941
   83SOPE  C217 7666   2.024   2.614   4.134 -0.4152  0.0533 -0.3935
   83SOPE  H17R 7667   2.030   2.511   4.176  0.0718  0.5233  0.7493
   83SOPE  H17S 7668   1.988   2.598   4.030  1.2705  2.6165 -1.4718
   83SOPE  C218 7669   1.919   2.706   4.202 -0.5465  0.0277 -0.8948
   83SOPE  H18R 7670   1.954   2.733   4.304  0.5112 -1.5400 -0.8217
   83SOPE  H18S 7671   1.824   2.649   4.215 -2.1316  2.8493  1.1628
   83SOPE  H18T 7672   1.899   2.804   4.153  2.3459  0.1291 -2.0645
   83SOPE   C33 7673   2.668   2.001   2.824  0.3058  0.0856 -0.3516
   83SOPE   H3X 7674   2.771   2.040   2.843  0.4554  1.2965 -3.1855
   83SOPE   H3Y 7675   2.677   1.929   2.740 -0.8194 -0.2802 -0.1781
   83SOPE   C34 7676   2.612   1.919   2.947 -0.7206  0.0333  0.7573
   83SOPE   H4X 7677   2.689   1.844   2.975  0.1553  1.1392  1.3960
   83SOPE   H4Y 7678   2.514   1.873   2.923 -0.5610 -1.0725  2.1051
   83SOPE   C35 7679   2.592   2.014   3.061 -0.7391  0.0756 -0.2863
   83SOPE   H5X 7680   2.521   2.097   3.041 -1.0404  0.6282  2.5669
   83SOPE   H5Y 7681   2.687   2.061   3.097 -1.9603  2.7152 -0.2669
   83SOPE   C36 7682   2.543   1.942   3.195  0.1876 -0.4177 -0.0689
   83SOPE   H6X 7683   2.611   1.855   3.202 -2.2232 -2.4929 -0.9522
   83SOPE   H6Y 7684   2.443   1.906   3.163  1.0715 -1.7456 -1.4513
   83SOPE   C37 7685   2.559   2.028   3.319 -0.4474  0.3510 -0.4339
   83SOPE   H7X 7686   2.486   2.111   3.310  0.9712  1.6121 -0.7987
   83SOPE   H7Y 7687   2.663   2.066   3.330  1.8345 -4.9769 -0.3862
   83SOPE   C38 7688   2.527   1.949   3.451  0.4225 -0.1422 -0.0794
   83SOPE   H8X 7689   2.601   1.868   3.467 -0.8701 -1.7111 -1.7320
   83SOPE   H8Y 7690   2.427   1.901   3.451 -0.0461  0.8110 -0.5598
   83SOPE   C39 7691   2.534   2.046   3.566 -0.0715 -1.0739  0.6213
   83SOPE   H9X 7692   2.511   1.987   3.658 -1.0157  0.1964  1.2246
   83SOPE   H9Y 7693   2.457   2.125   3.559  1.2998  0.2157 -0.3494
   83SOPE  C310 7694   2.665   2.127   3.593  0.6902 -0.0697  0.6035
   83SOPE  H10X 7695   2.689   2.198   3.511 -1.1022 -0.8829 -0.6960
   83SOPE  H10Y 7696   2.748   2.054   3.587 -0.9481 -2.0222  0.7225
   83SOPE  C311 7697   2.662   2.195   3.726 -0.3656 -0.1425 -0.5711
   83SOPE  H11X 7698   2.567   2.178   3.781  0.7998 -2.5147  0.9260
   83SOPE  H11Y 7699   2.699   2.298   3.714  0.2218 -0.5081 -2.1175
   83SOPE  C312 7700   2.753   2.121   3.823 -0.1809 -0.3750 -0.8701
   83SOPE  H12X 7701   2.840   2.085   3.763  1.3427  0.0834  0.9670
   83SOPE  H12Y 7702   2.699   2.036   3.869  0.3466 -1.1045 -1.5602
   83SOPE  C313 7703   2.783   2.214   3.939  0.4605  0.8105  0.0062
   83SOPE  H13X 7704   2.700   2.236   4.010 -0.4604 -0.8255 -0.5057
   83SOPE  H13Y 7705   2.825   2.307   3.896 -1.4517  1.7012 -0.0400
   83SOPE  C314 7706   2.902   2.162   4.027  0.3057  0.0687 -0.2585
   83SOPE  H14X 7707   2.973   2.247   4.036 -0.6527  0.8687  0.0142
   83SOPE  H14Y 7708   2.957   2.083   3.972  1.8324 -0.1428  1.4718
   83SOPE  C315 7709   2.868   2.105   4.168 -0.8456  0.0210  0.4412
   83SOPE  H15X 7710   2.957   2.057   4.212 -2.9949 -2.3073  2.5522
   83SOPE  H15Y 7711   2.798   2.021   4.153 -0.8394 -0.0533  0.8311
   83SOPE  C316 7712   2.817   2.211   4.274 -0.0489  0.6502 -0.0447
   83SOPE  H16X 7713   2.723   2.247   4.228 -0.6337 -0.1262  0.5130
   83SOPE  H16Y 7714   2.898   2.286   4.286  2.2897 -1.1418 -3.1131
   83SOPE  C317 7715   2.780   2.151   4.409  0.0036 -0.3503 -0.0470
   83SOPE  H17X 7716   2.868   2.092   4.442  0.4660  0.2015 -0.2773
   83SOPE  H17Y 7717   2.704   2.070   4.402 -0.2207 -0.2212  0.8344
   83SOPE  C318 7718   2.749   2.262   4.508  0.5469 -0.2294 -0.5592
   83SOPE  H18X 7719   2.647   2.303   4.489  0.4257 -1.0181 -1.7155
   83SOPE  H18Y 7720   2.833   2.333   4.519 -0.9651  1.5007  0.4648
   83SOPE  H18Z 7721   2.746   2.211   4.606 -0.3243 -0.2458 -0.5788
   84SOPE     N 7722   0.096   0.719   2.743  0.0994 -0.5129 -0.5905
   84SOPE   HN1 7723   0.096   0.628   2.793  2.1764 -1.3211 -1.9298
   84SOPE   HN2 7724   0.195   0.747   2.761 -0.5555  1.7809 -0.1694
   84SOPE   HN3 7725   0.042   0.796   2.788  1.4590 -1.1284  2.3290
   84SOPE   C12 7726   0.074   0.702   2.597 -0.4175 -0.2872 -0.1871
   84SOPE  H12A 7727  -0.025   0.746   2.575  0.3034  1.5981  0.1956
   84SOPE  H12B 7728   0.086   0.594   2.575  0.4953 -0.2233 -0.0278
   84SOPE   C11 7729   0.180   0.787   2.521 -0.5443 -0.3564  0.4466
   84SOPE  H11A 7730   0.143   0.891   2.538 -1.2741 -0.8765  2.2576
   84SOPE  H11B 7731   0.171   0.768   2.412 -0.4727 -0.0559  0.3866
   84SOPE     P 7732   0.435   0.842   2.515 -0.3207 -0.1661 -0.3490
   84SOPE   O13 7733   0.421   0.854   2.369  0.4804  0.1540  0.4748
   84SOPE   O14 7734   0.556   0.775   2.568  0.2152  0.0933 -0.6291
   84SOPE   O12 7735   0.314   0.762   2.568 -0.3758 -0.6465  1.2123
   84SOPE   O11 7736   0.420   0.983   2.583  0.2764 -0.7626  0.3701
   84SOPE    C1 7737   0.534   1.070   2.613  0.2682  0.5572  0.4808
   84SOPE    HA 7738   0.509   1.168   2.567  1.6285  0.6184 -0.1826
   84SOPE    HB 7739   0.629   1.027   2.574 -2.0166 -2.9930 -1.7203
   84SOPE    C2 7740   0.548   1.099   2.761  0.3577  0.8190 -0.4530
   84SOPE    HS 7741   0.631   1.172   2.772  0.4383  0.5721  0.6841
   84SOPE   O21 7742   0.551   0.969   2.830  0.4691  0.3096  0.3031
   84SOPE   C21 7743   0.673   0.921   2.853  0.6322 -0.1525  0.2108
   84SOPE   O22 7744   0.781   0.976   2.841 -0.5436  0.5293  0.1464
   84SOPE   C22 7745   0.656   0.769   2.873  0.6111 -0.5830 -0.5015
   84SOPE   H2R 7746   0.666   0.728   2.771 -1.2820  0.5098 -1.1745
   84SOPE   H2S 7747   0.555   0.742   2.910  0.6795  1.2901  1.2878
   84SOPE    C3 7748   0.418   1.175   2.806 -0.0832  0.1783 -0.3141
   84SOPE    HX 7749   0.335   1.106   2.779  0.7635 -0.6692 -0.7995
   84SOPE    HY 7750   0.413   1.262   2.737 -1.6078  1.1958  1.0136
   84SOPE   O31 7751   0.429   1.212   2.940 -0.4219 -0.4479  0.3865
   84SOPE   C31 7752   0.386   1.136   3.038  0.6344 -0.1842  0.2532
   84SOPE   O32 7753   0.310   1.045   3.026 -0.2500  0.6779  0.1489
   84SOPE   C32 7754   0.431   1.211   3.165  0.5532 -0.3051  0.8633
   84SOPE   H2X 7755   0.341   1.276   3.175 -0.3004 -1.4532  0.9091
   84SOPE   H2Y 7756   0.521   1.272   3.141  0.1410  0.8884  2.1954
   84SOPE   C23 7757   0.773   0.711   2.962 -0.3138  0.2624  0.1777
   84SOPE   H3R 7758   0.871   0.730   2.914  0.3564 -1.4041  0.8240
   84SOPE   H3S 7759   0.776   0.601   2.955  0.0890  0.2331  0.7269
   84SOPE   C24 7760   0.774   0.752   3.112  0.4226 -0.6137  0.0697
   84SOPE   H4R 7761   0.864   0.716   3.165  0.7721 -0.0796 -0.1540
   84SOPE   H4S 7762   0.787   0.860   3.133  1.4220 -0.3913 -1.5537
   84SOPE   C25 7763   0.645   0.700   3.183 -0.0270 -0.5721  0.3511
   84SOPE   H5R 7764   0.554   0.749   3.142  1.8319  2.7025 -0.2217
   84SOPE   H5S 7765   0.625   0.592   3.165 -1.5159 -0.7504  2.5912
   84SOPE   C26 7766   0.651   0.732   3.332  0.4991 -0.5700 -0.2836
   84SOPE   H6R 7767   0.726   0.681   3.395  0.6305 -3.3128 -2.5078
   84SOPE   H6S 7768   0.685   0.838   3.338 -0.7225 -0.2243  0.8713
   84SOPE   C27 7769   0.517   0.707   3.397  0.2268  0.0276 -0.4408
   84SOPE   H7R 7770   0.446   0.781   3.354  0.9445  0.8982 -0.1630
   84SOPE   H7S 7771   0.487   0.604   3.367  0.9407 -0.3114 -0.0180
   84SOPE   C28 7772   0.526   0.732   3.551  0.0641  0.1280  0.3167
   84SOPE   H8R 7773   0.619   0.691   3.595  0.1844  0.3868  0.3071
   84SOPE   H8S 7774   0.529   0.843   3.562 -0.5675  0.1069  0.7477
   84SOPE   C29 7775   0.405   0.700   3.620  0.2091  0.2708  0.4258
   84SOPE   H91 7776   0.316   0.687   3.557  0.2934 -0.8166  0.5141
   84SOPE  C210 7777   0.386   0.667   3.748  0.0902 -0.0913 -0.1380
   84SOPE  H101 7778   0.286   0.643   3.786 -0.1311  0.1456 -0.5578
   84SOPE  C211 7779   0.480   0.667   3.862 -0.2698  0.3817  0.1486
   84SOPE  H11R 7780   0.580   0.688   3.817 -1.1567 -0.0201 -2.1557
   84SOPE  H11S 7781   0.488   0.560   3.889  2.0336 -0.2038 -2.3575
   84SOPE  C212 7782   0.451   0.761   3.980  0.8889 -0.3466  0.7992
   84SOPE  H12R 7783   0.440   0.862   3.936 -2.2685 -0.0528  2.0299
   84SOPE  H12S 7784   0.531   0.750   4.056  0.9045 -2.0887  0.5794
   84SOPE  C213 7785   0.306   0.740   4.032  0.0308 -0.2019  0.2266
   84SOPE  H13R 7786   0.291   0.642   4.083  0.3348 -0.1142  0.4859
   84SOPE  H13S 7787   0.227   0.749   3.954  0.4512 -0.5289 -0.2415
   84SOPE  C214 7788   0.262   0.851   4.134 -0.0719 -0.4027 -0.5303
   84SOPE  H14R 7789   0.279   0.952   4.091  1.1665 -1.0828 -1.7040
   84SOPE  H14S 7790   0.326   0.840   4.224 -0.8531  0.2118  0.1276
   84SOPE  C215 7791   0.114   0.833   4.177 -0.1576 -0.5604 -0.1548
   84SOPE  H15R 7792   0.113   0.729   4.215 -1.7944 -0.5079  0.0290
   84SOPE  H15S 7793   0.057   0.831   4.081  0.6559  0.2288 -0.6725
   84SOPE  C216 7794   0.075   0.939   4.283 -0.6546 -0.5075  0.4306
   84SOPE  H16R 7795   0.106   1.036   4.238  0.6489 -0.6903  0.9029
   84SOPE  H16S 7796   0.139   0.921   4.371 -0.4380 -0.8184  0.2105
   84SOPE  C217 7797  -0.072   0.930   4.323 -0.4894  0.4561 -0.0974
   84SOPE  H17R 7798  -0.083   0.835   4.379  0.4655  0.3276 -0.1007
   84SOPE  H17S 7799  -0.137   0.919   4.233 -1.6257  0.5898  0.6951
   84SOPE  C218 7800  -0.110   1.051   4.404  0.1296 -0.4582 -0.8400
   84SOPE  H18R 7801  -0.040   1.074   4.487  0.1420 -0.0030 -0.9724
   84SOPE  H18S 7802  -0.216   1.039   4.436  0.7962 -1.4463  1.2105
   84SOPE  H18T 7803  -0.110   1.137   4.334  0.6549 -0.0866 -0.3887
   84SOPE   C33 7804   0.438   1.120   3.292  0.2870 -0.1169 -0.1897
   84SOPE   H3X 7805   0.512   1.037   3.288 -1.8587 -2.5683  4.3488
   84SOPE   H3Y 7806   0.343   1.066   3.310  0.2960  0.1691  0.7587
   84SOPE   C34 7807   0.459   1.213   3.414  1.0198 -0.1402  0.1574
   84SOPE   H4X 7808   0.400   1.305   3.392 -1.0909 -1.5182 -0.2733
   84SOPE   H4Y 7809   0.560   1.258   3.420  0.8192  0.6334 -1.6580
   84SOPE   C35 7810   0.430   1.144   3.548  0.6106 -0.0904  0.5739
   84SOPE   H5X 7811   0.503   1.061   3.562  1.2596  0.4308  0.3258
   84SOPE   H5Y 7812   0.331   1.095   3.543  0.3826  0.2784  1.2753
   84SOPE   C36 7813   0.432   1.240   3.671 -0.0684  0.3125  0.1976
   84SOPE   H6X 7814   0.355   1.317   3.655  0.3226  0.4503 -1.1557
   84SOPE   H6Y 7815   0.535   1.283   3.667  0.8402 -1.6718  0.6149
   84SOPE   C37 7816   0.422   1.170   3.809 -0.1636  0.5556  0.2067
   84SOPE   H7X 7817   0.494   1.088   3.828 -2.1852 -1.8867 -2.0099
   84SOPE   H7Y 7818   0.322   1.121   3.816  0.2213 -0.0822  1.8463
   84SOPE   C38 7819   0.425   1.270   3.933 -0.5484  0.2509 -0.4208
   84SOPE   H8X 7820   0.416   1.211   4.026  0.4153  0.8402  0.0678
   84SOPE   H8Y 7821   0.327   1.322   3.929  0.1547  1.8739  1.6739
   84SOPE   C39 7822   0.562   1.350   3.949  0.6264  0.6090  0.5015
   84SOPE   H9X 7823   0.585   1.384   3.846 -0.6048 -0.3335 -0.1087
   84SOPE   H9Y 7824   0.638   1.280   3.988  0.1985  0.2286  0.6622
   84SOPE  C310 7825   0.547   1.464   4.046 -0.3724  0.1065 -0.0145
   84SOPE  H10X 7826   0.501   1.429   4.140 -0.0799 -1.0461 -0.2900
   84SOPE  H10Y 7827   0.480   1.540   3.999 -1.5089 -1.3328 -0.8090
   84SOPE  C311 7828   0.691   1.507   4.084 -0.1372 -0.6115 -0.6066
   84SOPE  H11X 7829   0.694   1.594   4.154  3.3757 -0.9333 -0.2044
   84SOPE  H11Y 7830   0.735   1.558   3.996 -0.9272  2.4399  0.6069
   84SOPE  C312 7831   0.795   1.404   4.143 -0.8014  0.0259 -0.0522
   84SOPE  H12X 7832   0.847   1.352   4.059 -1.2860 -0.1913 -0.2184
   84SOPE  H12Y 7833   0.740   1.338   4.213 -2.6142  0.5952 -0.8945
   84SOPE  C313 7834   0.902   1.474   4.226  0.9956 -0.3221 -0.4729
   84SOPE  H13X 7835   0.842   1.548   4.283  0.3302 -1.1810 -0.0453
   84SOPE  H13Y 7836   0.970   1.542   4.170 -0.9886  1.3974 -0.9205
   84SOPE  C314 7837   0.969   1.379   4.328 -0.3318 -0.6015 -0.5457
   84SOPE  H14X 7838   1.014   1.293   4.274  2.8415  0.9820 -0.6641
   84SOPE  H14Y 7839   0.888   1.346   4.396 -1.1119  1.4111 -0.4283
   84SOPE  C315 7840   1.076   1.446   4.418  0.1093 -0.2582  0.1316
   84SOPE  H15X 7841   1.070   1.385   4.511 -0.0363  0.6931  0.7629
   84SOPE  H15Y 7842   1.054   1.552   4.446  1.3088 -0.5695  2.5395
   84SOPE  C316 7843   1.215   1.442   4.357  0.7274 -0.7338 -0.6748
   84SOPE  H16X 7844   1.223   1.507   4.268 -0.6672  1.0348  0.4174
   84SOPE  H16Y 7845   1.238   1.338   4.325 -2.0939 -1.7573  0.3185
   84SOPE  C317 7846   1.322   1.504   4.453 -0.0846 -0.0885  0.7602
   84SOPE  H17X 7847   1.428   1.480   4.430  0.7913  2.4421  1.7936
   84SOPE  H17Y 7848   1.298   1.473   4.557 -0.0039 -0.2611  0.7275
   84SOPE  C318 7849   1.317   1.654   4.455 -0.3981 -0.1183  0.7221
   84SOPE  H18X 7850   1.383   1.692   4.535  1.0194 -2.7297  0.9259
   84SOPE  H18Y 7851   1.215   1.692   4.477 -0.0276  1.8815 -0.7485
   84SOPE  H18Z 7852   1.357   1.693   4.359 -0.9879 -2.2555 -0.4670
   85SOPE     N 7853   4.630   2.725   2.083 -0.0641 -0.0595  0.2827
   85SOPE   HN1 7854   4.661   2.626   2.076 -0.7716 -0.2369 -0.5802
   85SOPE   HN2 7855   4.527   2.732   2.069 -0.1286  1.6115  1.3347
   85SOPE   HN3 7856   4.674   2.788   2.013  1.2348 -1.7914 -0.5533
   85SOPE   C12 7857   4.655   2.777   2.218  0.3763 -0.0312 -0.4079
   85SOPE  H12A 7858   4.764   2.792   2.235  0.3618  1.2444 -1.3366
   85SOPE  H12B 7859   4.616   2.701   2.289 -0.0065 -0.0673 -0.6515
   85SOPE   C11 7860   4.592   2.918   2.238  0.2073  0.3223  0.1090
   85SOPE  H11A 7861   4.635   2.993   2.168 -0.0388  2.6891  2.3339
   85SOPE  H11B 7862   4.631   2.955   2.335  1.4033  0.0744 -0.2632
   85SOPE     P 7863   4.357   2.854   2.346 -0.0977  0.0586 -0.2794
   85SOPE   O13 7864   4.326   2.725   2.287 -0.4638 -0.0799  0.1696
   85SOPE   O14 7865   4.244   2.948   2.362  0.1406 -0.1176 -0.0718
   85SOPE   O12 7866   4.447   2.927   2.240  0.2026  0.1170  0.2641
   85SOPE   O11 7867   4.453   2.842   2.474 -0.2976  0.0971  0.4213
   85SOPE    C1 7868   4.385   2.861   2.596 -0.4522  0.0731 -0.0078
   85SOPE    HA 7869   4.445   2.827   2.683 -2.4264  0.6918  1.6767
   85SOPE    HB 7870   4.290   2.805   2.606 -0.5417 -0.2641 -2.3473
   85SOPE    C2 7871   4.357   3.009   2.630 -0.1592 -0.1769  0.5499
   85SOPE    HS 7872   4.324   3.061   2.538 -1.6131 -1.5608  0.2667
   85SOPE   O21 7873   4.484   3.059   2.669  0.3580 -0.2683  0.3349
   85SOPE   C21 7874   4.502   3.193   2.664 -0.3122 -0.6076  0.7798
   85SOPE   O22 7875   4.409   3.275   2.647  0.3277  0.1920 -0.6458
   85SOPE   C22 7876   4.646   3.227   2.674  0.8260 -0.2833  0.4862
   85SOPE   H2R 7877   4.680   3.295   2.593  1.4327  1.4757  2.1188
   85SOPE   H2S 7878   4.700   3.131   2.664 -0.5919 -0.9067 -1.8065
   85SOPE    C3 7879   4.239   3.025   2.731 -0.4235 -0.0971 -0.3756
   85SOPE    HX 7880   4.147   3.001   2.673 -0.1558  1.0388 -1.3209
   85SOPE    HY 7881   4.242   3.135   2.750  0.4883 -0.3373  1.0180
   85SOPE   O31 7882   4.255   2.939   2.844  0.3905 -0.0159  0.1051
   85SOPE   C31 7883   4.286   2.999   2.964  0.8736  0.0572 -0.1635
   85SOPE   O32 7884   4.277   3.117   2.985 -0.0265  0.0686 -0.1626
   85SOPE   C32 7885   4.330   2.890   3.060  0.6948  0.0441 -0.3371
   85SOPE   H2X 7886   4.436   2.860   3.042  0.3864 -2.4704  1.5408
   85SOPE   H2Y 7887   4.260   2.807   3.038 -0.4910  1.5204 -2.4803
   85SOPE   C23 7888   4.659   3.284   2.814 -0.3518  0.6190 -0.2686
   85SOPE   H3R 7889   4.579   3.356   2.839 -1.1690 -0.7339  1.1987
   85SOPE   H3S 7890   4.752   3.345   2.814  0.0580  0.0371 -1.6907
   85SOPE   C24 7891   4.655   3.179   2.924  0.0520  0.6991 -0.1478
   85SOPE   H4R 7892   4.554   3.133   2.913 -0.1547  1.0604  0.1999
   85SOPE   H4S 7893   4.738   3.106   2.934 -1.3641 -1.0291 -0.4926
   85SOPE   C25 7894   4.654   3.245   3.068  0.1085  0.3517  0.0508
   85SOPE   H5R 7895   4.750   3.301   3.066  0.6694 -0.3817  2.8293
   85SOPE   H5S 7896   4.567   3.314   3.071  1.0937  1.5750  1.2362
   85SOPE   C26 7897   4.661   3.145   3.179  0.0771  0.2004  0.4937
   85SOPE   H6R 7898   4.564   3.090   3.180 -0.3932  1.0124  1.7287
   85SOPE   H6S 7899   4.736   3.065   3.159  0.1808  0.6897 -1.2487
   85SOPE   C27 7900   4.662   3.210   3.314  0.6265 -0.7150 -0.3274
   85SOPE   H7R 7901   4.761   3.255   3.335  0.3390  0.5745 -1.6133
   85SOPE   H7S 7902   4.597   3.300   3.318  2.3426  0.5368  1.8089
   85SOPE   C28 7903   4.613   3.121   3.428 -0.3493 -0.1778  0.0636
   85SOPE   H8R 7904   4.604   3.194   3.511  2.4539 -1.4917  1.6277
   85SOPE   H8S 7905   4.511   3.084   3.405  0.1265 -0.9637 -0.8606
   85SOPE   C29 7906   4.694   2.995   3.471  0.1644 -0.4140 -0.3462
   85SOPE   H91 7907   4.720   2.926   3.390 -1.6311 -1.4765 -0.0634
   85SOPE  C210 7908   4.737   2.962   3.595  0.0123 -0.1080  0.8643
   85SOPE  H101 7909   4.808   2.880   3.614 -0.8352 -1.0604  0.0609
   85SOPE  C211 7910   4.703   3.051   3.714 -0.2674  0.1073 -0.8359
   85SOPE  H11R 7911   4.596   3.081   3.718  0.1823  1.7634  1.4474
   85SOPE  H11S 7912   4.753   3.150   3.704 -0.5919  0.3475 -0.1646
   85SOPE  C212 7913   4.741   2.989   3.854 -0.3735  0.3262 -0.4198
   85SOPE  H12R 7914   4.839   2.936   3.852 -0.9067 -0.8199  1.3714
   85SOPE  H12S 7915   4.666   2.911   3.876  0.4075 -1.4168 -3.4219
   85SOPE  C213 7916   4.761   3.091   3.973  0.0469 -0.5241  0.4317
   85SOPE  H13R 7917   4.663   3.143   3.982 -0.3301 -1.0512 -0.4910
   85SOPE  H13S 7918   4.846   3.157   3.944 -0.0390  0.2217  1.7794
   85SOPE  C214 7919   4.788   3.007   4.103 -0.0820  0.4530  0.3346
   85SOPE  H14R 7920   4.872   2.936   4.086 -0.9476 -0.0679 -2.3456
   85SOPE  H14S 7921   4.701   2.941   4.126  0.2975 -0.4467 -0.7412
   85SOPE  C215 7922   4.812   3.104   4.222 -0.7152 -0.1521  0.0566
   85SOPE  H15R 7923   4.716   3.157   4.242 -0.1220  0.6575  0.8276
   85SOPE  H15S 7924   4.892   3.176   4.198 -0.2666 -0.8918 -0.7068
   85SOPE  C216 7925   4.852   3.031   4.353  0.0599  0.0048  0.6515
   85SOPE  H16R 7926   4.957   2.996   4.345 -0.4336 -1.3629 -0.2152
   85SOPE  H16S 7927   4.796   2.936   4.370 -0.1784 -0.0782 -0.5353
   85SOPE  C217 7928   4.832   3.122   4.468 -0.6549 -0.2521  0.0340
   85SOPE  H17R 7929   4.723   3.136   4.487 -0.3953  1.4484  0.4215
   85SOPE  H17S 7930   4.883   3.216   4.442 -1.8566  0.6211  0.7008
   85SOPE  C218 7931   4.900   3.057   4.595 -0.2656 -0.5890  0.4992
   85SOPE  H18R 7932   4.847   2.964   4.625 -0.7154 -0.7649 -0.8092
   85SOPE  H18S 7933   4.890   3.135   4.674  0.6379 -0.4883  0.5253
   85SOPE  H18T 7934   5.006   3.035   4.572  0.2059  0.2959  1.6974
   85SOPE   C33 7935   4.323   2.938   3.206  0.1605 -0.0281 -0.5148
   85SOPE   H3X 7936   4.221   2.978   3.221  1.1830  3.2290 -1.3944
   85SOPE   H3Y 7937   4.388   3.029   3.207  5.2547 -3.2557 -1.3929
   85SOPE   C34 7938   4.357   2.840   3.316  0.0627 -0.3426 -0.0952
   85SOPE   H4X 7939   4.468   2.841   3.328  0.3526 -2.0560 -2.0778
   85SOPE   H4Y 7940   4.310   2.741   3.303  0.0848 -1.1171  4.2756
   85SOPE   C35 7941   4.292   2.898   3.452  0.1372  0.2965  1.0039
   85SOPE   H5X 7942   4.190   2.855   3.442  0.4702 -0.1056 -1.0168
   85SOPE   H5Y 7943   4.291   3.009   3.457 -1.5159  0.4241 -0.7492
   85SOPE   C36 7944   4.355   2.846   3.585  0.1670 -0.6554  0.0446
   85SOPE   H6X 7945   4.454   2.895   3.588 -0.5478  1.0403 -2.0794
   85SOPE   H6Y 7946   4.363   2.736   3.568  0.8471 -0.1788 -3.5821
   85SOPE   C37 7947   4.277   2.887   3.714  0.1919 -0.5352  0.0404
   85SOPE   H7X 7948   4.181   2.830   3.712 -2.0841  3.0175 -0.6728
   85SOPE   H7Y 7949   4.259   2.996   3.712  3.4153  0.1237  1.1384
   85SOPE   C38 7950   4.354   2.850   3.839  0.0307 -0.3968  0.2841
   85SOPE   H8X 7951   4.440   2.922   3.843 -0.8581  0.6813  0.4773
   85SOPE   H8Y 7952   4.387   2.746   3.820 -2.5234 -0.6956 -3.3887
   85SOPE   C39 7953   4.263   2.849   3.968  0.2834 -0.1916 -0.0415
   85SOPE   H9X 7954   4.198   2.759   3.962  1.9380 -1.3514 -2.7428
   85SOPE   H9Y 7955   4.204   2.943   3.975  0.1499 -0.3052  0.3470
   85SOPE  C310 7956   4.349   2.831   4.096 -0.6027 -0.2527 -0.4749
   85SOPE  H10X 7957   4.415   2.919   4.113  1.8928 -1.6309 -2.3294
   85SOPE  H10Y 7958   4.418   2.745   4.078  0.2635  0.2766  0.2458
   85SOPE  C311 7959   4.266   2.811   4.214  0.4928 -0.5707  0.2776
   85SOPE  H11X 7960   4.215   2.713   4.209  2.2650 -1.4869 -1.1054
   85SOPE  H11Y 7961   4.194   2.895   4.210 -0.0852 -1.0413  0.6343
   85SOPE  C312 7962   4.335   2.828   4.355 -0.3319  0.1389 -0.0774
   85SOPE  H12X 7963   4.260   2.818   4.436  0.7052 -1.8954  0.7052
   85SOPE  H12Y 7964   4.364   2.935   4.352 -2.7074  0.8551  0.4276
   85SOPE  C313 7965   4.450   2.729   4.390  0.8614  0.5418  0.4011
   85SOPE  H13X 7966   4.506   2.766   4.478  0.2743  4.0722 -0.5785
   85SOPE  H13Y 7967   4.531   2.719   4.314  0.7601  2.7206 -0.0462
   85SOPE  C314 7968   4.388   2.582   4.420 -0.2275 -0.6164  0.1488
   85SOPE  H14X 7969   4.367   2.548   4.316 -0.2314  0.8236 -0.3396
   85SOPE  H14Y 7970   4.297   2.589   4.482  0.0297 -1.3479  0.6288
   85SOPE  C315 7971   4.492   2.478   4.467  0.8779 -0.6794 -0.6420
   85SOPE  H15X 7972   4.576   2.524   4.523  2.5117 -2.6414 -1.3722
   85SOPE  H15Y 7973   4.542   2.435   4.377 -0.5816 -1.8727 -0.9235
   85SOPE  C316 7974   4.433   2.369   4.559  0.1682  0.3335  0.6349
   85SOPE  H16X 7975   4.513   2.293   4.574 -0.7755 -1.2395 -1.6548
   85SOPE  H16Y 7976   4.350   2.312   4.512 -0.1370  0.5257  0.9448
   85SOPE  C317 7977   4.388   2.424   4.699 -0.0425  0.0174  0.0363
   85SOPE  H17X 7978   4.300   2.491   4.691 -0.6109 -0.7640 -0.3653
   85SOPE  H17Y 7979   4.473   2.489   4.728 -0.8980  1.7047 -1.0792
   85SOPE  C318 7980   4.370   2.312   4.802  0.2609 -0.3018  1.2774
   85SOPE  H18X 7981   4.473   2.280   4.827  0.6330 -0.5834 -0.5413
   85SOPE  H18Y 7982   4.320   2.220   4.763 -1.0995  0.1516  1.9000
   85SOPE  H18Z 7983   4.326   2.363   4.891  0.8672 -1.5154  2.3098
   86SOPE     N 7984   4.287   4.127   2.058  0.0554  0.1632  0.5562
   86SOPE   HN1 7985   4.387   4.125   2.090  0.0463  0.0004  0.5742
   86SOPE   HN2 7986   4.229   4.191   2.116 -0.5334 -0.0887  0.2520
   86SOPE   HN3 7987   4.256   4.028   2.060  0.9875 -0.1938 -1.1574
   86SOPE   C12 7988   4.279   4.172   1.916 -0.9581  0.4278  0.0645
   86SOPE  H12A 7989   4.325   4.092   1.853 -1.2670 -0.6369  1.1538
   86SOPE  H12B 7990   4.328   4.270   1.902  0.5342 -0.1274  1.1531
   86SOPE   C11 7991   4.132   4.183   1.868  0.2123 -0.1909  0.1126
   86SOPE  H11A 7992   4.143   4.205   1.759  1.1729 -1.0351  0.0197
   86SOPE  H11B 7993   4.083   4.272   1.914  0.7780 -0.1862  0.7356
   86SOPE     P 7994   3.914   4.054   1.879  0.3307 -0.1324  0.3360
   86SOPE   O13 7995   3.902   3.934   1.786 -0.2587 -0.9063  0.7322
   86SOPE   O14 7996   3.860   4.185   1.835 -0.0179  0.7290  0.4987
   86SOPE   O12 7997   4.064   4.064   1.908 -0.3389 -0.3715 -0.4075
   86SOPE   O11 7998   3.852   4.029   2.020  0.2307  0.0668  0.5778
   86SOPE    C1 7999   3.907   4.075   2.143  0.5037  0.0917  0.6985
   86SOPE    HA 8000   3.918   4.185   2.144 -1.8523  0.4041 -0.2842
   86SOPE    HB 8001   4.006   4.033   2.169  0.8178  2.2223  3.2600
   86SOPE    C2 8002   3.829   4.015   2.271  0.1232  0.3362 -0.3194
   86SOPE    HS 8003   3.723   4.049   2.264  0.2364  1.3908  2.2592
   86SOPE   O21 8004   3.882   4.043   2.399  0.2462 -0.1743  0.4793
   86SOPE   C21 8005   3.869   4.170   2.440 -0.1813  0.5051  0.6239
   86SOPE   O22 8006   3.811   4.253   2.373  0.5817  0.2429  0.0739
   86SOPE   C22 8007   3.929   4.202   2.574 -0.1164  0.3304  0.4372
   86SOPE   H2R 8008   3.997   4.289   2.573  1.2313 -0.6453  2.1465
   86SOPE   H2S 8009   3.994   4.117   2.603 -0.8903  0.1092  1.6177
   86SOPE    C3 8010   3.828   3.859   2.254 -0.9442 -0.4923  0.8525
   86SOPE    HX 8011   3.930   3.825   2.285  0.7455  1.3922 -2.1354
   86SOPE    HY 8012   3.806   3.838   2.147  0.1354 -0.5162  0.6189
   86SOPE   O31 8013   3.731   3.801   2.338  0.0056 -0.1216 -0.0421
   86SOPE   C31 8014   3.627   3.726   2.289 -0.3743 -0.1947 -0.1527
   86SOPE   O32 8015   3.616   3.698   2.172 -0.4287 -0.3266 -0.0014
   86SOPE   C32 8016   3.523   3.690   2.395  0.6531  0.1811  0.3477
   86SOPE   H2X 8017   3.432   3.753   2.384  0.6670 -0.0990 -1.8280
   86SOPE   H2Y 8018   3.570   3.704   2.494 -2.8186  0.3957  2.1148
   86SOPE   C23 8019   3.820   4.216   2.684  0.1929 -1.2501  0.4250
   86SOPE   H3R 8020   3.756   4.125   2.686  1.5891 -2.3395 -1.2080
   86SOPE   H3S 8021   3.759   4.305   2.658  0.6402 -1.4787 -1.6397
   86SOPE   C24 8022   3.861   4.253   2.824  0.5287  0.7606  0.3737
   86SOPE   H4R 8023   3.953   4.317   2.823 -1.3024  3.5927  0.6859
   86SOPE   H4S 8024   3.791   4.318   2.881 -0.4655 -0.2829  0.3566
   86SOPE   C25 8025   3.886   4.129   2.902  0.0237  0.2196 -0.4229
   86SOPE   H5R 8026   3.801   4.061   2.924  1.8491 -1.1130  3.4854
   86SOPE   H5S 8027   3.957   4.072   2.837  0.4847  2.4821 -2.0140
   86SOPE   C26 8028   3.953   4.170   3.034  0.3263 -0.2077  0.3948
   86SOPE   H6R 8029   4.034   4.245   3.019  0.8568 -1.2005 -2.4403
   86SOPE   H6S 8030   3.867   4.209   3.092 -0.6743  1.2004 -1.8693
   86SOPE   C27 8031   4.008   4.046   3.109 -0.1201 -0.4024  0.0384
   86SOPE   H7R 8032   3.923   3.975   3.110  0.8113 -1.7031 -3.0162
   86SOPE   H7S 8033   4.089   4.004   3.047  1.3016  0.8758  0.9465
   86SOPE   C28 8034   4.066   4.070   3.246  0.0655  0.3273 -0.2089
   86SOPE   H8R 8035   4.106   3.973   3.284 -2.7144 -0.8298 -0.0325
   86SOPE   H8S 8036   4.151   4.142   3.249 -0.7545  1.2897  1.4343
   86SOPE   C29 8037   3.962   4.115   3.347  0.2687 -0.2394  0.3467
   86SOPE   H91 8038   3.881   4.172   3.298 -0.3388 -2.2520 -1.1433
   86SOPE  C210 8039   3.969   4.098   3.482  0.1172  0.1237 -0.7606
   86SOPE  H101 8040   3.884   4.130   3.544  1.3366 -0.6187  1.4153
   86SOPE  C211 8041   4.088   4.039   3.550 -0.1634 -0.0117 -0.0130
   86SOPE  H11R 8042   4.178   4.068   3.491 -0.9384  0.6845 -0.8817
   86SOPE  H11S 8043   4.084   3.928   3.549  0.6007 -0.0622 -1.6058
   86SOPE  C212 8044   4.125   4.079   3.696  0.2756 -0.1956  0.9921
   86SOPE  H12R 8045   4.116   4.188   3.715  3.0128  0.4394 -0.7391
   86SOPE  H12S 8046   4.229   4.048   3.721  0.7600  2.0573  1.9665
   86SOPE  C213 8047   4.036   4.004   3.799  0.2733 -0.0789 -0.2935
   86SOPE  H13R 8048   4.035   3.902   3.754  0.9274  1.2569 -3.6225
   86SOPE  H13S 8049   3.933   4.046   3.808  1.3696  2.3444  3.1522
   86SOPE  C214 8050   4.105   4.013   3.934  0.0896  0.3631 -0.5418
   86SOPE  H14R 8051   4.090   4.122   3.949  3.1889  0.9966 -1.2998
   86SOPE  H14S 8052   4.215   4.003   3.932  0.0921  0.4024 -2.0235
   86SOPE  C215 8053   4.038   3.916   4.026  0.1975 -0.4479 -0.4583
   86SOPE  H15R 8054   4.057   3.821   3.972  1.8028 -0.0713 -0.5936
   86SOPE  H15S 8055   3.928   3.927   4.022 -0.1392 -2.3310  1.7336
   86SOPE  C216 8056   4.086   3.924   4.173 -0.5025  0.0403  0.5284
   86SOPE  H16R 8057   4.091   4.029   4.208  1.3792 -0.3123  1.4414
   86SOPE  H16S 8058   4.190   3.884   4.179 -0.0829  1.0125 -0.1115
   86SOPE  C217 8059   3.995   3.840   4.260  0.0367 -0.3103  0.8171
   86SOPE  H17R 8060   3.971   3.754   4.194 -3.2377  1.8086 -1.0583
   86SOPE  H17S 8061   3.904   3.900   4.281 -0.3351 -0.3269 -0.6436
   86SOPE  C218 8062   4.068   3.785   4.385  0.6125  0.2557 -0.2593
   86SOPE  H18R 8063   4.004   3.707   4.432  1.1403  0.7315  1.3179
   86SOPE  H18S 8064   4.080   3.857   4.468  1.0966  0.2184 -0.2922
   86SOPE  H18T 8065   4.161   3.728   4.364 -0.3176 -1.9816  1.2904
   86SOPE   C33 8066   3.473   3.541   2.389  0.1673 -0.1613 -0.3426
   86SOPE   H3X 8067   3.552   3.470   2.421  0.4574  1.2256  2.2234
   86SOPE   H3Y 8068   3.435   3.507   2.290 -0.1917 -2.4700  0.5449
   86SOPE   C34 8069   3.355   3.515   2.494  0.1712 -0.6667  0.9749
   86SOPE   H4X 8070   3.308   3.416   2.479 -3.6127  0.9702  0.8387
   86SOPE   H4Y 8071   3.277   3.591   2.472  0.2564 -1.3419 -2.1143
   86SOPE   C35 8072   3.404   3.518   2.643 -0.2558  0.4437  0.1939
   86SOPE   H5X 8073   3.316   3.486   2.703  0.1445 -3.6429 -1.0738
   86SOPE   H5Y 8074   3.442   3.616   2.679 -0.1895  0.0405  1.2706
   86SOPE   C36 8075   3.495   3.411   2.697 -0.3557  0.2186 -0.1064
   86SOPE   H6X 8076   3.595   3.422   2.650 -0.7150 -1.4112 -1.3244
   86SOPE   H6Y 8077   3.449   3.311   2.683 -2.5207  1.1541 -0.0290
   86SOPE   C37 8078   3.520   3.421   2.848 -0.4041  0.7450  0.2849
   86SOPE   H7X 8079   3.420   3.436   2.895 -1.3496  0.2690 -1.4861
   86SOPE   H7Y 8080   3.570   3.520   2.857 -0.3677  0.8793 -1.1995
   86SOPE   C38 8081   3.610   3.315   2.910  0.9094 -0.0562 -0.6234
   86SOPE   H8X 8082   3.705   3.317   2.852  2.0620  0.4578  1.2042
   86SOPE   H8Y 8083   3.565   3.213   2.910  1.5722 -0.3525  0.0002
   86SOPE   C39 8084   3.649   3.337   3.058 -0.1083 -0.1933 -0.2934
   86SOPE   H9X 8085   3.707   3.431   3.070  0.9851 -0.6625 -1.6064
   86SOPE   H9Y 8086   3.716   3.253   3.085 -0.7866 -0.9938 -1.0147
   86SOPE  C310 8087   3.531   3.333   3.156 -0.4833  0.3483 -0.1129
   86SOPE  H10X 8088   3.456   3.256   3.124 -0.4687  0.5353 -0.6124
   86SOPE  H10Y 8089   3.463   3.420   3.142 -0.1807  0.6497  0.2796
   86SOPE  C311 8090   3.576   3.299   3.299  0.1126  0.3244  0.3090
   86SOPE  H11X 8091   3.632   3.204   3.300  0.0209  0.0404 -3.7427
   86SOPE  H11Y 8092   3.481   3.279   3.354 -0.1450  1.1500  0.1827
   86SOPE  C312 8093   3.666   3.411   3.365 -0.6023 -0.0583 -0.1011
   86SOPE  H12X 8094   3.616   3.510   3.355  2.4151  1.5312 -0.6691
   86SOPE  H12Y 8095   3.762   3.408   3.310 -0.4646 -0.5709  0.1579
   86SOPE  C313 8096   3.708   3.374   3.504 -0.7977  0.2166 -0.5822
   86SOPE  H13X 8097   3.781   3.447   3.545 -0.5282 -0.6205  0.4635
   86SOPE  H13Y 8098   3.755   3.274   3.493  0.7097  0.6180  1.5093
   86SOPE  C314 8099   3.594   3.353   3.605  0.0958 -0.0758  0.3587
   86SOPE  H14X 8100   3.518   3.287   3.559  0.6833 -0.1650 -0.5100
   86SOPE  H14Y 8101   3.549   3.453   3.627 -0.9239 -0.5598  0.5348
   86SOPE  C315 8102   3.649   3.294   3.738  1.2746 -0.4722 -0.1573
   86SOPE  H15X 8103   3.733   3.359   3.768  0.0038  3.3338 -3.7831
   86SOPE  H15Y 8104   3.686   3.192   3.718  1.9947 -0.0918 -0.8287
   86SOPE  C316 8105   3.538   3.303   3.844  0.3419  0.4791  0.1845
   86SOPE  H16X 8106   3.543   3.213   3.910  0.1960  1.7120  1.9232
   86SOPE  H16Y 8107   3.448   3.288   3.781 -0.2019 -3.1934  1.5462
   86SOPE  C317 8108   3.549   3.416   3.936  0.1382 -0.1786 -0.1085
   86SOPE  H17X 8109   3.558   3.506   3.873  0.5351 -0.4322 -0.4206
   86SOPE  H17Y 8110   3.646   3.406   3.989  0.9067  0.1683 -1.4080
   86SOPE  C318 8111   3.436   3.430   4.028 -0.6437  0.4665  0.3923
   86SOPE  H18X 8112   3.440   3.334   4.083 -2.1692  0.0595 -0.1570
   86SOPE  H18Y 8113   3.343   3.431   3.968 -0.3274  1.7577 -0.1142
   86SOPE  H18Z 8114   3.447   3.519   4.094  0.6479 -0.3905  1.3870
   87SOPE     N 8115   5.890   4.256   2.384 -0.4737  0.0103  0.3185
   87SOPE   HN1 8116   5.910   4.355   2.409  0.0723 -0.1252  0.4321
   87SOPE   HN2 8117   5.789   4.238   2.401 -0.6351  1.1357  0.5778
   87SOPE   HN3 8118   5.938   4.192   2.451 -2.6016 -0.4011  1.5415
   87SOPE   C12 8119   5.920   4.220   2.238  0.3927  0.5330 -0.7069
   87SOPE  H12A 8120   5.836   4.255   2.174 -0.3715  0.0013 -0.0156
   87SOPE  H12B 8121   5.920   4.109   2.233  2.4013  0.2383  2.6128
   87SOPE   C11 8122   6.054   4.283   2.192 -0.1685  0.1945  1.1690
   87SOPE  H11A 8123   6.043   4.394   2.193 -1.3947  0.1813 -1.7832
   87SOPE  H11B 8124   6.073   4.252   2.087  0.2265  0.5080  1.1472
   87SOPE     P 8125   6.266   4.328   2.336 -0.2176  0.1694  0.1029
   87SOPE   O13 8126   6.298   4.450   2.251  0.2293 -0.1668 -0.2205
   87SOPE   O14 8127   6.387   4.255   2.368 -0.4702  0.8140 -0.9411
   87SOPE   O12 8128   6.160   4.234   2.270 -0.0471 -0.0822  0.0852
   87SOPE   O11 8129   6.183   4.373   2.459  0.4804 -0.4408  0.1984
   87SOPE    C1 8130   6.180   4.314   2.593  0.4969  0.0158 -0.4627
   87SOPE    HA 8131   6.249   4.229   2.614  0.7689  0.2188 -0.5374
   87SOPE    HB 8132   6.079   4.275   2.619  0.6744 -0.7055 -0.8143
   87SOPE    C2 8133   6.230   4.415   2.699  0.2014 -0.4526 -0.3788
   87SOPE    HS 8134   6.244   4.357   2.793 -0.0172  1.7112  1.0492
   87SOPE   O21 8135   6.122   4.516   2.722 -0.1072  0.2776  0.0960
   87SOPE   C21 8136   6.028   4.487   2.812  0.2940 -0.2546  0.2578
   87SOPE   O22 8137   6.020   4.379   2.868  0.6252 -0.6816  0.6555
   87SOPE   C22 8138   5.932   4.606   2.833  0.5636  0.0952 -0.1475
   87SOPE   H2R 8139   5.836   4.559   2.803 -0.2878  0.9121  1.2093
   87SOPE   H2S 8140   5.953   4.691   2.765 -0.0440  0.3364 -0.0471
   87SOPE    C3 8141   6.374   4.477   2.682  0.5844  0.2630  0.5084
   87SOPE    HX 8142   6.380   4.532   2.585 -0.9509 -0.7566 -0.2141
   87SOPE    HY 8143   6.440   4.388   2.670 -1.3170 -1.1798  0.3532
   87SOPE   O31 8144   6.411   4.557   2.795 -0.1695  0.3211 -0.1176
   87SOPE   C31 8145   6.458   4.482   2.897 -0.4506 -0.2849  0.2097
   87SOPE   O32 8146   6.484   4.361   2.887 -0.1596 -0.1770  0.2466
   87SOPE   C32 8147   6.477   4.573   3.013  0.5066 -0.9234  0.0992
   87SOPE   H2X 8148   6.455   4.680   2.990  0.4968 -1.1626 -1.0420
   87SOPE   H2Y 8149   6.583   4.580   3.045  0.5140  1.2967 -0.2404
   87SOPE   C23 8150   5.920   4.654   2.978 -1.4877 -0.0671 -0.4425
   87SOPE   H3R 8151   6.012   4.712   3.001 -0.5227 -1.0160 -1.7508
   87SOPE   H3S 8152   5.905   4.573   3.053 -2.3785  1.6633  1.3452
   87SOPE   C24 8153   5.800   4.747   2.987  0.2796  0.0225  0.1584
   87SOPE   H4R 8154   5.780   4.800   2.892 -2.0326  1.3641  1.3078
   87SOPE   H4S 8155   5.707   4.685   2.990  1.5670 -2.1842 -1.7346
   87SOPE   C25 8156   5.805   4.850   3.100 -0.6168 -0.3188 -0.1201
   87SOPE   H5R 8157   5.888   4.924   3.095 -0.4565 -0.5529 -1.5769
   87SOPE   H5S 8158   5.712   4.910   3.102  0.4612  1.4041  0.6384
   87SOPE   C26 8159   5.818   4.782   3.239 -0.0242  0.0102  0.3333
   87SOPE   H6R 8160   5.743   4.700   3.248 -3.0171  2.6872  1.6542
   87SOPE   H6S 8161   5.924   4.751   3.230  0.0324  0.1765  0.4495
   87SOPE   C27 8162   5.806   4.886   3.349 -0.7733 -0.3743  0.1352
   87SOPE   H7R 8163   5.873   4.971   3.324 -0.6664 -0.8512 -1.2704
   87SOPE   H7S 8164   5.706   4.933   3.350 -0.9209 -0.6579 -0.6160
   87SOPE   C28 8165   5.839   4.823   3.487 -0.6335 -0.5082  0.5744
   87SOPE   H8R 8166   5.745   4.769   3.510 -2.3119  1.4742 -1.2064
   87SOPE   H8S 8167   5.926   4.756   3.475 -1.5694 -1.4042 -1.6928
   87SOPE   C29 8168   5.864   4.936   3.585 -0.2706  0.5347  0.2728
   87SOPE   H91 8169   5.835   5.040   3.565  2.0714  1.3494  0.8573
   87SOPE  C210 8170   5.897   4.925   3.712 -0.3359 -0.2135  0.4828
   87SOPE  H101 8171   5.911   5.012   3.778 -1.2877 -0.5465  1.1374
   87SOPE  C211 8172   5.930   4.802   3.782  0.3746 -0.1147  0.3953
   87SOPE  H11R 8173   6.039   4.792   3.796  0.5977 -2.7322 -2.1296
   87SOPE  H11S 8174   5.911   4.711   3.721  0.8558  1.6919 -2.6732
   87SOPE  C212 8175   5.860   4.793   3.919  0.2301  0.1757 -0.0228
   87SOPE  H12R 8176   5.874   4.691   3.960 -2.5199 -0.2996 -0.1253
   87SOPE  H12S 8177   5.754   4.825   3.914  0.8591  2.6638  0.7390
   87SOPE  C213 8178   5.925   4.886   4.028 -0.1357 -0.4926 -0.0184
   87SOPE  H13R 8179   5.903   4.994   4.015  2.7216  0.0702 -0.8794
   87SOPE  H13S 8180   6.036   4.877   4.026 -0.2136 -2.1011  0.9990
   87SOPE  C214 8181   5.884   4.832   4.166 -0.0939  0.3747 -0.3814
   87SOPE  H14R 8182   5.915   4.897   4.251 -1.8105 -0.9356  1.3465
   87SOPE  H14S 8183   5.922   4.728   4.177 -2.1740 -0.5720 -1.6663
   87SOPE  C215 8184   5.729   4.822   4.188 -0.5086 -0.0348 -0.2182
   87SOPE  H15R 8185   5.681   4.772   4.100  2.3253 -1.0655 -1.2816
   87SOPE  H15S 8186   5.686   4.924   4.176  1.7288  0.7039 -3.1171
   87SOPE  C216 8187   5.681   4.758   4.320 -0.2788 -1.0220  0.0406
   87SOPE  H16R 8188   5.572   4.781   4.316 -0.1312  0.8782  3.3132
   87SOPE  H16S 8189   5.709   4.818   4.409  0.1952  0.9208 -1.3350
   87SOPE  C217 8190   5.703   4.614   4.336 -0.3338  0.8168 -0.4453
   87SOPE  H17R 8191   5.812   4.597   4.321 -0.1863  0.2406  1.1223
   87SOPE  H17S 8192   5.662   4.557   4.250  1.2667  0.3075 -0.9083
   87SOPE  C218 8193   5.647   4.554   4.471  0.4903  0.4620  0.2922
   87SOPE  H18R 8194   5.537   4.564   4.480  0.4251 -0.3784  0.4582
   87SOPE  H18S 8195   5.700   4.591   4.562 -0.0396  1.0562  0.3697
   87SOPE  H18T 8196   5.661   4.444   4.469 -0.2791  0.3613 -1.2890
   87SOPE   C33 8197   6.385   4.536   3.136  0.0237 -0.0490  0.4227
   87SOPE   H3X 8198   6.432   4.601   3.214  0.3971  2.3462 -1.6494
   87SOPE   H3Y 8199   6.387   4.430   3.169  0.9743  0.4958  2.2675
   87SOPE   C34 8200   6.236   4.580   3.132  0.4162  0.0160  0.2049
   87SOPE   H4X 8201   6.208   4.559   3.026  2.0329  0.7793 -0.4171
   87SOPE   H4Y 8202   6.242   4.690   3.134  1.1300 -0.0280  1.0217
   87SOPE   C35 8203   6.144   4.526   3.244  0.1799 -0.4030  0.3089
   87SOPE   H5X 8204   6.146   4.418   3.218  3.4875 -0.2718 -0.4519
   87SOPE   H5Y 8205   6.043   4.571   3.249  0.1550 -0.5102  0.8083
   87SOPE   C36 8206   6.210   4.543   3.379  0.3038  0.0667  0.3706
   87SOPE   H6X 8207   6.222   4.652   3.393 -1.0636  0.3607 -0.5516
   87SOPE   H6Y 8208   6.310   4.498   3.393  0.9492  1.7995  1.6090
   87SOPE   C37 8209   6.118   4.500   3.491 -1.2377  0.4837 -0.8040
   87SOPE   H7X 8210   6.077   4.399   3.467 -3.8503  1.1471  0.5287
   87SOPE   H7Y 8211   6.033   4.571   3.502 -0.5248  1.0955  1.1603
   87SOPE   C38 8212   6.191   4.495   3.626  0.5684  0.3244 -0.5538
   87SOPE   H8X 8213   6.236   4.593   3.651  0.1410  0.2560  0.5078
   87SOPE   H8Y 8214   6.282   4.435   3.606  1.3244  0.9693  0.8297
   87SOPE   C39 8215   6.113   4.449   3.753  0.0127 -0.3174  0.3295
   87SOPE   H9X 8216   6.067   4.350   3.731  0.2193 -0.1421 -0.9679
   87SOPE   H9Y 8217   6.030   4.521   3.769 -0.7444 -1.3110  0.9791
   87SOPE  C310 8218   6.198   4.435   3.877 -0.2721  0.0362  0.2895
   87SOPE  H10X 8219   6.240   4.533   3.905 -0.1519  0.1791 -0.3612
   87SOPE  H10Y 8220   6.285   4.373   3.844 -0.7535  0.3117 -1.6639
   87SOPE  C311 8221   6.112   4.376   3.991 -0.1585 -0.5638  0.2150
   87SOPE  H11X 8222   6.077   4.274   3.965  0.0894  0.1424 -3.2842
   87SOPE  H11Y 8223   6.019   4.436   3.986 -0.8853 -1.7625 -1.4837
   87SOPE  C312 8224   6.189   4.385   4.123 -0.3152  0.0638 -0.1505
   87SOPE  H12X 8225   6.236   4.486   4.126 -1.1322  0.4456  0.4283
   87SOPE  H12Y 8226   6.274   4.317   4.147 -0.1744  0.8594  1.8874
   87SOPE  C313 8227   6.096   4.383   4.236  0.0051  0.2268 -0.1785
   87SOPE  H13X 8228   6.047   4.283   4.236 -1.1491  0.7512 -2.2617
   87SOPE  H13Y 8229   6.022   4.465   4.223 -0.1884  0.0457 -0.2151
   87SOPE  C314 8230   6.161   4.408   4.372 -0.2563  0.1447 -1.4776
   87SOPE  H14X 8231   6.084   4.406   4.453  1.2678  1.1492  0.0624
   87SOPE  H14Y 8232   6.213   4.504   4.387 -0.9554  0.1601  1.6185
   87SOPE  C315 8233   6.259   4.299   4.415 -0.3885 -0.1794  0.2394
   87SOPE  H15X 8234   6.363   4.326   4.386 -0.6338  0.6848  0.1387
   87SOPE  H15Y 8235   6.244   4.204   4.359 -1.9904 -0.6508  1.4034
   87SOPE  C316 8236   6.278   4.271   4.566  0.1783 -0.2649 -0.2280
   87SOPE  H16X 8237   6.331   4.175   4.580 -1.0455 -0.9681 -0.2890
   87SOPE  H16Y 8238   6.171   4.259   4.593  0.0187 -1.6716 -1.3887
   87SOPE  C317 8239   6.337   4.387   4.652  0.5941  0.2902 -0.4882
   87SOPE  H17X 8240   6.304   4.481   4.603 -1.2121  0.3453  0.7179
   87SOPE  H17Y 8241   6.446   4.373   4.643  1.3853  4.2831  1.0116
   87SOPE  C318 8242   6.292   4.387   4.799 -0.7014  0.7680 -0.0202
   87SOPE  H18X 8243   6.185   4.414   4.793 -1.1046 -0.9134 -0.8336
   87SOPE  H18Y 8244   6.343   4.461   4.865  2.9937 -1.0051 -0.5957
   87SOPE  H18Z 8245   6.297   4.287   4.846  1.1700  0.1992 -1.3077
   88SOPE     N 8246   2.334   5.946   2.352 -0.6605  0.0312  0.3191
   88SOPE   HN1 8247   2.410   6.006   2.315 -0.7364  0.2975  0.5859
   88SOPE   HN2 8248   2.360   5.903   2.444 -0.9384  1.2675  0.9959
   88SOPE   HN3 8249   2.325   5.872   2.279 -0.3918  1.2841 -1.0146
   88SOPE   C12 8250   2.215   6.020   2.381  0.2067 -0.2223 -0.1718
   88SOPE  H12A 8251   2.243   6.094   2.459  0.6267 -1.7099  1.1507
   88SOPE  H12B 8252   2.147   5.942   2.424  1.1949  0.0355  1.9806
   88SOPE   C11 8253   2.156   6.078   2.250 -0.8221  0.1015  0.6853
   88SOPE  H11A 8254   2.108   5.993   2.196  0.8569 -0.6067  0.2647
   88SOPE  H11B 8255   2.241   6.123   2.194  0.9243 -0.1643  3.0197
   88SOPE     P 8256   1.912   6.147   2.336 -0.5063 -0.1621  0.1787
   88SOPE   O13 8257   1.818   6.127   2.220  0.1528 -0.3546 -0.5810
   88SOPE   O14 8258   1.868   6.247   2.434  0.4272  0.1422  0.1148
   88SOPE   O12 8259   2.056   6.173   2.275  0.2562 -0.0488  0.1333
   88SOPE   O11 8260   1.930   6.011   2.413  0.4129 -0.5421 -0.3394
   88SOPE    C1 8261   1.936   6.016   2.557  0.1848 -0.0167 -0.3054
   88SOPE    HA 8262   1.984   6.107   2.600 -3.4996  1.7381  0.4979
   88SOPE    HB 8263   1.990   5.924   2.589  0.6026  1.3113  3.3183
   88SOPE    C2 8264   1.796   6.013   2.616 -0.2014 -0.1548  0.2003
   88SOPE    HS 8265   1.744   6.108   2.589 -2.0870 -1.2086 -0.0523
   88SOPE   O21 8266   1.825   6.007   2.758  0.8931  0.0972 -0.3954
   88SOPE   C21 8267   1.738   6.074   2.836  0.5010  0.3850  0.2871
   88SOPE   O22 8268   1.641   6.132   2.790 -0.2669  0.4545 -0.7442
   88SOPE   C22 8269   1.765   6.048   2.978 -0.3975  0.7394  0.3377
   88SOPE   H2R 8270   1.848   6.112   3.014  0.1154  0.7094 -0.7707
   88SOPE   H2S 8271   1.808   5.946   2.976 -1.3509  0.2947  1.4750
   88SOPE    C3 8272   1.724   5.891   2.567  0.4801 -0.8239  0.0422
   88SOPE    HX 8273   1.757   5.801   2.623 -0.6648 -0.5010  1.2938
   88SOPE    HY 8274   1.749   5.879   2.459 -2.8562  0.8376 -1.0682
   88SOPE   O31 8275   1.580   5.914   2.560  0.4589  0.7413 -0.0873
   88SOPE   C31 8276   1.516   5.797   2.566  0.7164 -0.1594  0.3563
   88SOPE   O32 8277   1.565   5.689   2.577  0.4324 -0.3464 -0.1411
   88SOPE   C32 8278   1.369   5.815   2.555 -0.1455  0.0294 -0.1147
   88SOPE   H2X 8279   1.327   5.714   2.537 -1.7460  0.4337  1.1830
   88SOPE   H2Y 8280   1.328   5.884   2.478 -2.6051  1.4814  2.2947
   88SOPE   C23 8281   1.640   6.047   3.060  0.1107 -0.1563  0.1399
   88SOPE   H3R 8282   1.562   5.981   3.016 -2.1593  2.8109 -0.6511
   88SOPE   H3S 8283   1.596   6.148   3.071 -1.7724 -0.8889 -0.2169
   88SOPE   C24 8284   1.665   5.982   3.205 -0.1111 -0.1698  0.3107
   88SOPE   H4R 8285   1.571   5.981   3.263  0.6968  1.6960  1.7393
   88SOPE   H4S 8286   1.691   5.875   3.184  2.6465  0.3974  0.4250
   88SOPE   C25 8287   1.785   6.046   3.275  0.6333  0.3428 -0.1824
   88SOPE   H5R 8288   1.880   5.997   3.245  0.1871 -0.2973 -0.5738
   88SOPE   H5S 8289   1.798   6.154   3.252  0.4081  0.4647  0.2552
   88SOPE   C26 8290   1.779   6.036   3.429 -0.4579 -0.0392 -0.3289
   88SOPE   H6R 8291   1.816   5.937   3.464 -1.9057 -0.3837  0.2727
   88SOPE   H6S 8292   1.849   6.111   3.473  0.8796 -2.4648  1.9600
   88SOPE   C27 8293   1.640   6.051   3.489 -0.2362 -0.1834  0.0470
   88SOPE   H7R 8294   1.584   6.136   3.444  0.9083 -0.2157 -1.5311
   88SOPE   H7S 8295   1.586   5.957   3.463 -1.1641 -0.0587  1.4426
   88SOPE   C28 8296   1.635   6.054   3.641  0.0925  0.1895 -0.4496
   88SOPE   H8R 8297   1.704   6.131   3.681 -0.6627  0.0613  1.1837
   88SOPE   H8S 8298   1.533   6.084   3.672  0.2444 -0.0270  0.2643
   88SOPE   C29 8299   1.656   5.923   3.709 -0.2241  0.0648  0.0901
   88SOPE   H91 8300   1.648   5.833   3.646  0.5601 -1.3283  1.8803
   88SOPE  C210 8301   1.709   5.909   3.834  0.0876  0.0199  0.2298
   88SOPE  H101 8302   1.723   5.808   3.875 -1.4639 -0.8320 -1.2203
   88SOPE  C211 8303   1.733   6.013   3.938  0.3877  0.4246  0.3827
   88SOPE  H11R 8304   1.764   6.107   3.886  1.7402 -0.1372  0.1282
   88SOPE  H11S 8305   1.826   5.989   3.994  0.9836  2.7308  0.4933
   88SOPE  C212 8306   1.621   6.038   4.041  0.0118  0.1358  0.7848
   88SOPE  H12R 8307   1.544   6.087   3.978  0.8197  0.6649  0.1965
   88SOPE  H12S 8308   1.657   6.116   4.111  1.8992 -0.6139  0.6917
   88SOPE  C213 8309   1.586   5.916   4.129  0.0591 -0.1199  0.2089
   88SOPE  H13R 8310   1.525   5.851   4.062 -0.2573  0.7952 -0.4113
   88SOPE  H13S 8311   1.510   5.939   4.207  1.7233 -0.7483  2.0855
   88SOPE  C214 8312   1.704   5.834   4.195 -0.3367  0.4987  0.5501
   88SOPE  H14R 8313   1.781   5.798   4.124  0.8477  1.9646  1.0486
   88SOPE  H14S 8314   1.666   5.741   4.243 -1.8228  0.3840 -0.7607
   88SOPE  C215 8315   1.794   5.917   4.297  0.5685 -0.1953 -0.6036
   88SOPE  H15R 8316   1.822   6.013   4.248  2.5056  0.3235  1.3597
   88SOPE  H15S 8317   1.888   5.864   4.324 -0.0199  0.0769  2.2444
   88SOPE  C216 8318   1.725   5.945   4.434  0.1711 -0.3357  0.1551
   88SOPE  H16R 8319   1.750   5.865   4.507 -1.5965 -0.2026  0.9423
   88SOPE  H16S 8320   1.615   5.939   4.421 -0.0054  1.4592  0.5785
   88SOPE  C217 8321   1.748   6.086   4.483  1.1093  0.4795  0.8161
   88SOPE  H17R 8322   1.697   6.153   4.411  0.6601  0.2145  0.8847
   88SOPE  H17S 8323   1.857   6.107   4.496  1.6146 -0.8460 -0.9223
   88SOPE  C218 8324   1.668   6.118   4.616 -0.7088  0.3470 -0.8843
   88SOPE  H18R 8325   1.563   6.081   4.617 -0.7834  0.4992  0.9370
   88SOPE  H18S 8326   1.665   6.228   4.635 -0.8282  0.1173  0.5739
   88SOPE  H18T 8327   1.725   6.068   4.697  0.8675  0.5563 -1.8297
   88SOPE   C33 8328   1.306   5.872   2.680  0.9791  0.1185 -0.5352
   88SOPE   H3X 8329   1.202   5.896   2.651  1.5774  2.9172 -0.6542
   88SOPE   H3Y 8330   1.342   5.971   2.713 -0.6800  1.8063 -3.3883
   88SOPE   C34 8331   1.309   5.784   2.808  0.1493 -1.2016 -0.6731
   88SOPE   H4X 8332   1.413   5.745   2.816  0.8842  0.6443 -0.6187
   88SOPE   H4Y 8333   1.230   5.707   2.817 -0.4138 -0.4168  2.6449
   88SOPE   C35 8334   1.276   5.863   2.933  0.5707 -0.3721 -0.1110
   88SOPE   H5X 8335   1.175   5.909   2.922  0.5422 -0.4543 -0.1885
   88SOPE   H5Y 8336   1.344   5.948   2.954  1.2923 -0.5276 -1.7059
   88SOPE   C36 8337   1.271   5.773   3.061  0.3989  0.0067 -0.0733
   88SOPE   H6X 8338   1.356   5.703   3.077 -0.7410 -1.2454  0.6907
   88SOPE   H6Y 8339   1.186   5.703   3.051  0.8995 -0.3160 -2.9176
   88SOPE   C37 8340   1.268   5.844   3.191 -0.4111 -1.1474  0.3164
   88SOPE   H7X 8341   1.201   5.932   3.188  2.0452  0.8274 -2.3793
   88SOPE   H7Y 8342   1.363   5.900   3.205 -1.0567  0.2565 -0.7639
   88SOPE   C38 8343   1.247   5.754   3.315  0.4868  0.0629  0.5430
   88SOPE   H8X 8344   1.319   5.671   3.299  2.5699  1.7475  0.6625
   88SOPE   H8Y 8345   1.145   5.711   3.309  1.2037 -1.5361 -1.1264
   88SOPE   C39 8346   1.288   5.818   3.447  0.7615  0.7065 -0.1001
   88SOPE   H9X 8347   1.226   5.908   3.466 -1.9254 -1.1321  0.2738
   88SOPE   H9Y 8348   1.394   5.852   3.446  0.8062  0.6065  0.6455
   88SOPE  C310 8349   1.261   5.718   3.557 -0.2998 -0.5077 -0.0278
   88SOPE  H10X 8350   1.298   5.617   3.531 -2.5609 -1.7486  1.3523
   88SOPE  H10Y 8351   1.153   5.693   3.558 -0.0253 -1.8996 -1.5733
   88SOPE  C311 8352   1.302   5.759   3.695  0.5150  0.2299 -0.6343
   88SOPE  H11X 8353   1.243   5.840   3.743 -1.2079 -0.8446 -0.8677
   88SOPE  H11Y 8354   1.407   5.795   3.693  0.6111  0.2298  1.7213
   88SOPE  C312 8355   1.298   5.639   3.796 -0.0416  0.3255  0.1514
   88SOPE  H12X 8356   1.361   5.561   3.749 -1.4019  0.8158 -2.6684
   88SOPE  H12Y 8357   1.196   5.594   3.800 -0.0981  0.3834 -0.5214
   88SOPE  C313 8358   1.355   5.662   3.935  0.2750  0.0526 -0.4291
   88SOPE  H13X 8359   1.293   5.743   3.981 -0.6891 -1.2770  0.6933
   88SOPE  H13Y 8360   1.461   5.693   3.928  1.0685 -2.4380 -0.2696
   88SOPE  C314 8361   1.336   5.535   4.015 -0.6972  0.0809 -0.2762
   88SOPE  H14X 8362   1.412   5.465   3.974 -0.6412 -0.0429  0.0289
   88SOPE  H14Y 8363   1.233   5.497   3.998  0.5025 -2.8621 -1.6704
   88SOPE  C315 8364   1.330   5.555   4.176  0.4510  0.6092 -0.5135
   88SOPE  H15X 8365   1.259   5.637   4.200 -1.3469 -1.2196  0.7326
   88SOPE  H15Y 8366   1.427   5.602   4.204  1.2689 -1.3376  0.0417
   88SOPE  C316 8367   1.312   5.440   4.274 -0.0895  0.8576 -0.3339
   88SOPE  H16X 8368   1.361   5.474   4.368 -0.3839 -1.8620  0.8893
   88SOPE  H16Y 8369   1.364   5.350   4.235 -0.5691 -0.4204  1.8523
   88SOPE  C317 8370   1.168   5.409   4.305  0.1144  0.4098 -0.9422
   88SOPE  H17X 8371   1.111   5.359   4.224 -0.2217  0.5068 -0.7715
   88SOPE  H17Y 8372   1.116   5.508   4.309 -4.1032 -1.5848  0.1060
   88SOPE  C318 8373   1.139   5.337   4.436  0.2579  0.1101  0.0608
   88SOPE  H18X 8374   1.028   5.339   4.448  0.2766  1.0739  0.1502
   88SOPE  H18Y 8375   1.182   5.390   4.523  0.1440  1.7426 -0.8391
   88SOPE  H18Z 8376   1.177   5.233   4.429  0.5152  0.2866 -1.7190
   89SAPC     N 8377   2.770   1.523   6.687  0.0286  0.0563  0.5485
   89SAPC   C12 8378   2.886   1.524   6.585 -0.5249 -0.0047 -0.0268
   89SAPC  H12A 8379   2.971   1.568   6.636 -1.5809  1.0347  0.9019
   89SAPC  H12B 8380   2.866   1.580   6.495  0.1944  0.8683  0.3484
   89SAPC   C13 8381   2.735   1.666   6.712  0.0535  0.6042  0.3885
   89SAPC  H13A 8382   2.804   1.716   6.779 -1.7675  1.9395  1.3765
   89SAPC  H13B 8383   2.718   1.721   6.621 -0.7143 -1.0785 -0.5197
   89SAPC  H13C 8384   2.643   1.664   6.769  0.7802  1.1127  1.6421
   89SAPC   C14 8385   2.653   1.455   6.627 -0.2561 -0.2643  0.3987
   89SAPC  H14A 8386   2.562   1.485   6.676 -1.2167 -1.7336 -0.4061
   89SAPC  H14B 8387   2.642   1.487   6.525  1.7085  0.4329  0.3734
   89SAPC  H14C 8388   2.655   1.347   6.626  1.7022 -0.2518 -0.3474
   89SAPC   C15 8389   2.813   1.458   6.815  0.9022  0.0379  0.1799
   89SAPC  H15A 8390   2.864   1.365   6.796  1.6806  0.3215  0.8019
   89SAPC  H15B 8391   2.882   1.533   6.852 -0.0755  1.7632 -1.3239
   89SAPC  H15C 8392   2.730   1.442   6.882  2.2410 -1.0278  1.6496
   89SAPC   C11 8393   2.929   1.383   6.535 -0.5734  0.3494  0.4065
   89SAPC  H11A 8394   3.020   1.405   6.473  0.0593  1.2377  1.6048
   89SAPC  H11B 8395   2.849   1.341   6.471 -0.7621 -0.1750  0.9868
   89SAPC     P 8396   2.909   1.151   6.640 -0.0436 -0.2876 -0.1640
   89SAPC   O13 8397   2.994   1.064   6.724  0.1520 -0.2364 -0.2479
   89SAPC   O14 8398   2.765   1.156   6.674 -0.1699  0.2018  0.2432
   89SAPC   O12 8399   2.967   1.298   6.646  0.0695  0.9088 -0.2595
   89SAPC   O11 8400   2.927   1.112   6.483  0.4114 -0.1734  0.2258
   89SAPC    C1 8401   3.028   1.025   6.437  0.4210 -0.2938  0.0600
   89SAPC    HA 8402   3.128   1.064   6.462  0.7702 -0.6530 -0.7582
   89SAPC    HB 8403   3.015   0.918   6.466 -5.9748  0.1665  0.3574
   89SAPC    C2 8404   3.014   1.017   6.281  0.1944  0.0601 -0.2278
   89SAPC    HS 8405   3.097   0.950   6.249  0.6151  0.3879  0.1558
   89SAPC   O21 8406   3.037   1.142   6.221  0.4133 -0.1666  0.4278
   89SAPC   C21 8407   3.154   1.191   6.223  0.0957 -0.0543  0.5570
   89SAPC   O22 8408   3.256   1.137   6.265 -0.0018  0.2612  0.1980
   89SAPC   C22 8409   3.141   1.337   6.165  0.0634  1.1054 -0.0398
   89SAPC   H2R 8410   3.040   1.383   6.160 -0.6470 -0.3790 -0.0965
   89SAPC   H2S 8411   3.201   1.409   6.225 -0.6495  0.5909  1.3317
   89SAPC    C3 8412   2.880   0.969   6.228  0.1291 -0.1752 -0.5466
   89SAPC    HX 8413   2.800   1.045   6.241 -0.5980 -0.9389 -0.5079
   89SAPC    HY 8414   2.854   0.878   6.287  1.2156 -1.1442 -1.4922
   89SAPC   O31 8415   2.884   0.941   6.091  1.1510 -0.0342  0.8933
   89SAPC   C31 8416   2.909   0.815   6.063  0.1723 -0.1316  0.0441
   89SAPC   O32 8417   2.957   0.731   6.132  0.4336 -0.4960 -0.8382
   89SAPC   C32 8418   2.866   0.800   5.919  0.6180  0.0347  0.3443
   89SAPC   H2X 8419   2.925   0.879   5.869  0.9772 -1.8151 -2.3257
   89SAPC   H2Y 8420   2.760   0.829   5.906  0.1613 -1.9921 -0.8251
   89SAPC   C23 8421   3.216   1.336   6.026  0.2754 -0.0089 -0.0693
   89SAPC   H3R 8422   3.319   1.296   6.021  0.8895  1.6480 -1.7597
   89SAPC   H3S 8423   3.226   1.443   5.996 -2.0774 -0.1223 -1.4703
   89SAPC   C24 8424   3.138   1.257   5.915 -0.0279  0.2206 -0.3127
   89SAPC   H4R 8425   3.029   1.279   5.913 -0.2398 -0.5178  1.2816
   89SAPC   H4S 8426   3.135   1.150   5.948  1.0663 -0.5785 -2.6433
   89SAPC   C25 8427   3.202   1.270   5.783 -0.7140 -0.8162 -0.3209
   89SAPC   H5R 8428   3.188   1.359   5.720  1.5626 -2.0932 -2.8105
   89SAPC   C26 8429   3.288   1.175   5.728  0.9675  0.7593  0.5764
   89SAPC   H6R 8430   3.323   1.196   5.626 -0.8431 -0.4715 -0.3381
   89SAPC   C27 8431   3.338   1.043   5.782 -0.0915  0.3903  0.4177
   89SAPC   H7R 8432   3.382   0.990   5.695  0.8426  1.8983 -0.0636
   89SAPC   H7S 8433   3.265   0.973   5.827 -0.2000  0.1891 -0.0685
   89SAPC   C28 8434   3.447   1.042   5.893  0.2586 -0.2799  0.0591
   89SAPC   H8R 8435   3.412   1.052   5.996 -2.0178 -4.2629 -0.1196
   89SAPC   C29 8436   3.580   1.023   5.877  0.3675  0.0969  0.2417
   89SAPC   H9R 8437   3.644   1.021   5.967  0.5616 -0.3111  0.0988
   89SAPC  C210 8438   3.658   1.007   5.743  0.4655 -0.1071  0.1090
   89SAPC  H10R 8439   3.594   1.045   5.660  0.8565  0.2014 -0.0529
   89SAPC  H10S 8440   3.677   0.899   5.726 -1.1417 -1.0408  3.3577
   89SAPC  C211 8441   3.787   1.087   5.737  0.6159 -0.0265 -0.0897
   89SAPC  H11R 8442   3.817   1.149   5.823 -0.3951  0.5538 -0.1402
   89SAPC  C212 8443   3.859   1.083   5.626 -0.2200  0.3188  1.2482
   89SAPC  H12R 8444   3.954   1.138   5.622 -0.9835  1.5968 -1.1852
   89SAPC  C213 8445   3.830   0.998   5.507  0.0637  0.0991 -0.5798
   89SAPC  H13R 8446   3.770   0.911   5.543  0.1242  0.2954  0.0006
   89SAPC  H13S 8447   3.924   0.956   5.467  1.5845  0.1483  2.6425
   89SAPC  C214 8448   3.748   1.070   5.407 -0.4316 -0.3541 -0.1490
   89SAPC  H14R 8449   3.691   1.158   5.441 -0.9413 -0.5518 -0.4825
   89SAPC  C215 8450   3.739   1.040   5.276  0.5288  0.5979  0.2270
   89SAPC  H15R 8451   3.668   1.088   5.207  1.3470  0.2504 -0.9056
   89SAPC  C216 8452   3.801   0.923   5.203 -0.5610  0.0542 -0.1050
   89SAPC  H16R 8453   3.716   0.854   5.188  0.0572 -0.8719  0.5861
   89SAPC  H16S 8454   3.876   0.874   5.268 -0.0155  1.3364  0.2812
   89SAPC  C217 8455   3.873   0.944   5.070 -0.5838 -0.0214 -0.3967
   89SAPC  H17R 8456   3.932   0.853   5.045  0.4623  1.0763 -2.1095
   89SAPC  H17S 8457   3.934   1.037   5.071 -2.0797  1.0262 -1.8970
   89SAPC  C218 8458   3.776   0.965   4.953 -0.1944  0.2559  0.3880
   89SAPC  H18R 8459   3.722   1.058   4.981  2.4849  2.1915 -0.4277
   89SAPC  H18S 8460   3.704   0.881   4.943 -0.7438  0.2678  3.3807
   89SAPC  C219 8461   3.852   0.998   4.817  0.4061 -1.0552  0.4467
   89SAPC  H19R 8462   3.904   0.907   4.780  0.3962 -0.3170 -1.4948
   89SAPC  H19S 8463   3.931   1.074   4.834 -1.6033  0.9173  1.5162
   89SAPC  C220 8464   3.759   1.049   4.704  0.3747  0.2025 -0.4503
   89SAPC  H20R 8465   3.702   1.140   4.731 -2.1729 -1.5151  0.4030
   89SAPC  H20S 8466   3.686   0.968   4.679  0.8372  0.1295 -1.6201
   89SAPC  H20T 8467   3.813   1.066   4.609  3.1992 -1.6223  0.7091
   89SAPC   C33 8468   2.887   0.654   5.883  0.2000 -0.5129  0.0637
   89SAPC   H3X 8469   2.832   0.590   5.955 -0.2902  0.8316  0.9307
   89SAPC   H3Y 8470   2.993   0.622   5.890  0.9679  1.6109 -1.0533
   89SAPC   C34 8471   2.842   0.623   5.738 -0.0162 -0.5797 -0.3991
   89SAPC   H4X 8472   2.731   0.630   5.736  0.0466  0.2394 -1.4972
   89SAPC   H4Y 8473   2.880   0.522   5.712  1.9337 -0.2693  1.0397
   89SAPC   C35 8474   2.895   0.725   5.641 -0.2117  0.1326  0.4306
   89SAPC   H5X 8475   3.006   0.720   5.634 -0.2943 -0.0218 -1.3752
   89SAPC   H5Y 8476   2.871   0.830   5.665  0.2211  0.7471 -1.6389
   89SAPC   C36 8477   2.841   0.695   5.501 -0.1739  0.4064 -0.3248
   89SAPC   H6X 8478   2.731   0.709   5.498 -0.5613 -2.1454 -3.2136
   89SAPC   H6Y 8479   2.865   0.588   5.478  2.5958  0.9247 -0.1645
   89SAPC   C37 8480   2.903   0.783   5.384  0.3159  0.1314  0.0445
   89SAPC   H7X 8481   3.014   0.778   5.385  0.2991 -1.1404  2.2051
   89SAPC   H7Y 8482   2.863   0.885   5.399 -0.0327  0.1023 -0.6356
   89SAPC   C38 8483   2.853   0.723   5.251  0.7831 -0.0699  0.3082
   89SAPC   H8X 8484   2.749   0.750   5.223  1.9660  0.7485 -3.8997
   89SAPC   H8Y 8485   2.843   0.613   5.262  1.1602 -0.2572 -1.1342
   89SAPC   C39 8486   2.926   0.768   5.127  0.2763 -0.2408  0.2968
   89SAPC   H9X 8487   3.025   0.719   5.130 -0.1085 -0.9996  1.3990
   89SAPC   H9Y 8488   2.945   0.877   5.129 -2.2909  0.2818  1.0473
   89SAPC  C310 8489   2.854   0.735   4.998  0.0238 -0.4806  0.4674
   89SAPC  H10X 8490   2.764   0.800   5.003  0.2273 -0.1254 -0.3060
   89SAPC  H10Y 8491   2.818   0.630   4.998  0.4394 -0.6499 -0.9597
   89SAPC  C311 8492   2.947   0.767   4.880 -0.7130  0.3036  0.1900
   89SAPC  H11X 8493   3.050   0.748   4.916 -0.3531  0.1827 -0.8509
   89SAPC  H11Y 8494   2.939   0.871   4.842  0.0047  1.3665  2.7976
   89SAPC  C312 8495   2.919   0.674   4.763 -0.8628  0.3674  0.6683
   89SAPC  H12X 8496   2.815   0.681   4.726 -0.4647  0.3287 -0.4870
   89SAPC  H12Y 8497   2.925   0.569   4.797  0.5361 -0.5183 -2.0012
   89SAPC  C313 8498   3.009   0.697   4.633  0.1438  0.3166 -0.3661
   89SAPC  H13X 8499   2.964   0.621   4.566  0.3432  1.1084 -1.4329
   89SAPC  H13Y 8500   3.113   0.660   4.646  0.6054  1.7486  0.2470
   89SAPC  C314 8501   2.999   0.840   4.581 -0.2660 -0.2941 -0.2339
   89SAPC  H14X 8502   3.031   0.918   4.653  1.7723 -0.2462 -1.1230
   89SAPC  H14Y 8503   2.896   0.871   4.551 -0.4912 -2.0635 -1.4393
   89SAPC  C315 8504   3.080   0.863   4.452  0.1565  0.0976 -0.3720
   89SAPC  H15X 8505   3.045   0.794   4.372  1.5231 -0.2507 -0.6953
   89SAPC  H15Y 8506   3.189   0.840   4.458  0.9489  2.4596 -3.1745
   89SAPC  C316 8507   3.076   1.008   4.415 -0.3813  0.0890 -0.1824
   89SAPC  H16X 8508   3.067   1.063   4.510  1.4881 -1.6632  1.0864
   89SAPC  H16Y 8509   2.987   1.040   4.356  0.0670 -1.2568 -1.6628
   89SAPC  C317 8510   3.196   1.061   4.331 -0.1249 -0.4394 -0.2714
   89SAPC  H17X 8511   3.215   1.004   4.237  2.1449  0.0798 -0.1755
   89SAPC  H17Y 8512   3.282   1.035   4.397 -1.0213 -2.1412  0.3004
   89SAPC  C318 8513   3.179   1.209   4.305  0.0167 -0.0777  0.1345
   89SAPC  H18X 8514   3.277   1.242   4.264  1.8372 -1.4337  3.0523
   89SAPC  H18Y 8515   3.167   1.264   4.401 -0.4279 -0.0260  0.0532
   89SAPC  H18Z 8516   3.093   1.235   4.240  1.2133 -0.6113 -1.7301
   90SAPC     N 8517   6.313   3.980   6.711 -0.2129  0.2747 -0.0528
   90SAPC   C12 8518   6.358   4.051   6.588 -0.3089 -0.2951  0.5121
   90SAPC  H12A 8519   6.273   4.101   6.544  0.2739 -0.7282 -1.1689
   90SAPC  H12B 8520   6.393   3.977   6.518 -0.4713  1.3459 -1.3879
   90SAPC   C13 8521   6.439   3.902   6.746  0.6805 -0.7239 -0.4882
   90SAPC  H13A 8522   6.420   3.869   6.847  0.4307  1.4858  0.2522
   90SAPC  H13B 8523   6.447   3.818   6.680  2.7606  0.1264 -1.3905
   90SAPC  H13C 8524   6.528   3.963   6.745 -0.0534  0.4766  1.1756
   90SAPC   C14 8525   6.260   4.066   6.819  0.0952  0.6380  0.6800
   90SAPC  H14A 8526   6.205   4.007   6.891  1.2236 -0.0820  0.9704
   90SAPC  H14B 8527   6.335   4.121   6.872  1.1589 -1.0087  0.9706
   90SAPC  H14C 8528   6.194   4.143   6.782  0.4614  0.2101 -0.9525
   90SAPC   C15 8529   6.198   3.892   6.666  0.6829  0.1310 -0.3885
   90SAPC  H15A 8530   6.117   3.951   6.625 -0.7156 -1.4155  0.0284
   90SAPC  H15B 8531   6.225   3.822   6.587 -0.2762 -0.9673  0.2138
   90SAPC  H15C 8532   6.149   3.831   6.740 -0.6319 -0.3482 -1.5814
   90SAPC   C11 8533   6.470   4.163   6.608  0.9721  0.5437 -0.0618
   90SAPC  H11A 8534   6.473   4.200   6.503 -1.5219 -2.6080 -1.4149
   90SAPC  H11B 8535   6.563   4.117   6.649 -0.6834  0.1064  3.5532
   90SAPC     P 8536   6.521   4.328   6.818  0.3372 -0.3149  0.3387
   90SAPC   O13 8537   6.438   4.307   6.939  0.3896  0.3668  0.1644
   90SAPC   O14 8538   6.652   4.261   6.806  0.6730 -0.6536 -0.6946
   90SAPC   O12 8539   6.427   4.269   6.699  0.3640 -0.0014  0.3904
   90SAPC   O11 8540   6.532   4.481   6.785 -0.4695 -0.0953 -0.2451
   90SAPC    C1 8541   6.428   4.570   6.746 -0.3453 -0.7820 -0.2257
   90SAPC    HA 8542   6.329   4.520   6.752 -0.3877 -0.6201  0.5157
   90SAPC    HB 8543   6.438   4.666   6.801 -0.2063 -0.4285 -0.8596
   90SAPC    C2 8544   6.437   4.616   6.599  0.1975  0.4639  0.2626
   90SAPC    HS 8545   6.423   4.518   6.548  0.6843 -0.2074  1.3837
   90SAPC   O21 8546   6.557   4.697   6.563 -0.4436  0.4350 -0.3847
   90SAPC   C21 8547   6.646   4.627   6.508 -0.1368  0.3659 -0.4677
   90SAPC   O22 8548   6.646   4.506   6.490  0.3896  0.0533  0.3252
   90SAPC   C22 8549   6.752   4.716   6.463  0.0348  0.0628  0.0175
   90SAPC   H2R 8550   6.778   4.798   6.533 -0.6611  0.4105 -0.1145
   90SAPC   H2S 8551   6.833   4.655   6.419 -0.7519 -0.6947 -0.4140
   90SAPC    C3 8552   6.317   4.706   6.557 -0.4466 -0.3807  1.0183
   90SAPC    HX 8553   6.315   4.803   6.610 -2.1110  0.2296 -0.1043
   90SAPC    HY 8554   6.221   4.654   6.578 -1.1673  0.6357  0.3078
   90SAPC   O31 8555   6.320   4.730   6.416 -0.5839 -0.4363  0.1518
   90SAPC   C31 8556   6.290   4.853   6.367  0.1172  0.1693  0.5909
   90SAPC   O32 8557   6.268   4.947   6.442  0.0581 -0.1355 -0.0454
   90SAPC   C32 8558   6.300   4.878   6.213  0.4646 -0.0116 -0.4632
   90SAPC   H2X 8559   6.247   4.799   6.157  0.2938 -0.1528 -0.1095
   90SAPC   H2Y 8560   6.408   4.864   6.194  1.5692  0.4432  4.2265
   90SAPC   C23 8561   6.707   4.784   6.329  0.0461 -0.1541 -0.6625
   90SAPC   H3R 8562   6.605   4.826   6.343 -0.9741 -2.5729 -0.4819
   90SAPC   H3S 8563   6.702   4.708   6.248  0.0690  0.4853 -1.2739
   90SAPC   C24 8564   6.805   4.897   6.294  0.0151  0.2251 -0.0938
   90SAPC   H4R 8565   6.912   4.865   6.288 -0.2308 -0.7375  0.4838
   90SAPC   H4S 8566   6.805   4.984   6.363  0.1309  1.9373 -2.1701
   90SAPC   C25 8567   6.778   4.942   6.152 -0.3127  0.6614  0.6507
   90SAPC   H5R 8568   6.815   4.875   6.073  0.6539  3.7069 -1.6854
   90SAPC   C26 8569   6.724   5.054   6.113  0.1782 -0.2742  0.3843
   90SAPC   H6R 8570   6.695   5.063   6.007 -1.0423 -2.2733  0.5014
   90SAPC   C27 8571   6.675   5.173   6.194 -0.1990 -0.0832  0.2248
   90SAPC   H7R 8572   6.665   5.137   6.299 -0.2862  0.7735  0.5193
   90SAPC   H7S 8573   6.575   5.201   6.155  0.0577 -1.3019 -1.4049
   90SAPC   C28 8574   6.780   5.271   6.189 -0.0220 -0.2527  0.6993
   90SAPC   H8R 8575   6.872   5.250   6.245  0.0354  0.0031  0.7005
   90SAPC   C29 8576   6.786   5.377   6.105 -0.0641 -0.1360  0.0323
   90SAPC   H9R 8577   6.876   5.439   6.120 -0.4772  0.3909  0.3465
   90SAPC  C210 8578   6.673   5.427   6.014  0.0530 -0.0174 -0.2780
   90SAPC  H10R 8579   6.609   5.498   6.070  0.1696 -0.9908  1.1304
   90SAPC  H10S 8580   6.622   5.339   5.968  0.6406 -0.6978  0.3547
   90SAPC  C211 8581   6.730   5.511   5.896  0.1442 -0.1168 -0.2312
   90SAPC  H11R 8582   6.780   5.602   5.931  1.6342 -0.7885 -0.5510
   90SAPC  C212 8583   6.745   5.477   5.768  1.0920 -0.7909  0.0184
   90SAPC  H12R 8584   6.808   5.548   5.712 -0.1371  2.4244  2.4304
   90SAPC  C213 8585   6.680   5.357   5.698  0.0464 -0.5802  0.5545
   90SAPC  H13R 8586   6.581   5.384   5.655 -0.4154 -1.3499  1.1070
   90SAPC  H13S 8587   6.667   5.276   5.772 -1.3367  0.2286  1.2509
   90SAPC  C214 8588   6.772   5.310   5.590  0.2850  0.7968 -0.3757
   90SAPC  H14R 8589   6.830   5.218   5.606  1.1102  1.3737  0.0507
   90SAPC  C215 8590   6.781   5.362   5.467  0.2194  0.5035  1.2404
   90SAPC  H15R 8591   6.846   5.308   5.397 -0.1402  0.4781  0.9247
   90SAPC  C216 8592   6.694   5.475   5.422 -0.3145 -0.3577  0.1651
   90SAPC  H16R 8593   6.766   5.540   5.367 -0.0576 -1.4389 -0.8113
   90SAPC  H16S 8594   6.644   5.538   5.498 -0.9270 -0.3890 -0.2050
   90SAPC  C217 8595   6.578   5.421   5.333  0.4169  0.2272  0.2638
   90SAPC  H17R 8596   6.500   5.379   5.400  0.2045  0.2249  0.0161
   90SAPC  H17S 8597   6.615   5.346   5.260 -3.1234  0.3188 -1.8383
   90SAPC  C218 8598   6.516   5.527   5.240  0.3176 -0.7581 -0.0116
   90SAPC  H18R 8599   6.610   5.562   5.193  0.4718 -1.2116 -0.0462
   90SAPC  H18S 8600   6.476   5.624   5.279  0.3239 -0.9131  0.3854
   90SAPC  C219 8601   6.417   5.461   5.139 -0.6462  0.0109 -0.6985
   90SAPC  H19R 8602   6.317   5.445   5.185 -0.9121  1.7693 -0.6126
   90SAPC  H19S 8603   6.474   5.369   5.113 -0.1591 -0.1974  0.9813
   90SAPC  C220 8604   6.400   5.537   5.012 -0.1311  0.2125  0.2162
   90SAPC  H20R 8605   6.353   5.466   4.941 -0.6122 -0.5754  1.3044
   90SAPC  H20S 8606   6.499   5.563   4.969  0.8859 -1.4895  1.4052
   90SAPC  H20T 8607   6.339   5.630   5.008 -1.3619 -0.5189  1.2605
   90SAPC   C33 8608   6.258   5.013   6.156  0.1372  0.3915 -0.0513
   90SAPC   H3X 8609   6.322   5.094   6.198 -0.7390  0.2965  1.5353
   90SAPC   H3Y 8610   6.154   5.034   6.189  0.1533  1.2218 -0.4929
   90SAPC   C34 8611   6.262   5.003   6.003 -0.0052 -0.0945  0.2617
   90SAPC   H4X 8612   6.216   5.091   5.954 -3.1122 -1.1115  1.1211
   90SAPC   H4Y 8613   6.211   4.911   5.967 -1.6124  0.7087  0.3977
   90SAPC   C35 8614   6.407   5.005   5.949  0.2525  0.4941 -0.9316
   90SAPC   H5X 8615   6.468   4.937   6.010 -0.5835  0.9826  0.4896
   90SAPC   H5Y 8616   6.455   5.105   5.959 -3.4293  2.2681  1.0035
   90SAPC   C36 8617   6.412   4.964   5.802 -0.3860 -0.5551 -0.0846
   90SAPC   H6X 8618   6.350   4.873   5.784 -0.5913 -0.3818 -0.2604
   90SAPC   H6Y 8619   6.514   4.954   5.759 -0.2657 -2.1513  0.5003
   90SAPC   C37 8620   6.338   5.064   5.714  0.0968  0.4707  0.1202
   90SAPC   H7X 8621   6.375   5.165   5.740  1.1870 -0.0238  0.5457
   90SAPC   H7Y 8622   6.233   5.063   5.752  0.4206 -0.6363  1.0472
   90SAPC   C38 8623   6.349   5.044   5.568 -0.1178 -0.0873  0.0539
   90SAPC   H8X 8624   6.285   5.122   5.521  1.3048  0.8796 -0.3656
   90SAPC   H8Y 8625   6.303   4.947   5.544  1.9471 -0.7668 -1.4126
   90SAPC   C39 8626   6.490   5.064   5.507 -0.0842  0.4728 -0.4044
   90SAPC   H9X 8627   6.564   5.010   5.570 -2.2544 -0.1378  1.7867
   90SAPC   H9Y 8628   6.520   5.170   5.491  2.9042 -0.3761 -0.9912
   90SAPC  C310 8629   6.501   4.991   5.374 -0.3419 -0.1352  0.4354
   90SAPC  H10X 8630   6.414   5.026   5.315  0.0516  0.9120  0.4643
   90SAPC  H10Y 8631   6.471   4.885   5.387 -2.2006  0.1386 -1.2609
   90SAPC  C311 8632   6.640   4.997   5.314 -0.4699 -0.1293 -0.1390
   90SAPC  H11X 8633   6.704   4.924   5.369  1.9423  0.8127 -1.5356
   90SAPC  H11Y 8634   6.685   5.098   5.312  0.8031 -0.6865 -0.6611
   90SAPC  C312 8635   6.650   4.959   5.168  0.1242  0.9735  0.6128
   90SAPC  H12X 8636   6.596   4.865   5.144  0.2567  0.4602  2.2203
   90SAPC  H12Y 8637   6.756   4.954   5.136 -0.0594  0.9099 -0.0005
   90SAPC  C313 8638   6.591   5.069   5.074 -0.2847 -0.0735 -0.1658
   90SAPC  H13X 8639   6.654   5.161   5.071 -0.6070  0.2099  1.3439
   90SAPC  H13Y 8640   6.497   5.106   5.119  0.2580 -0.4762  1.3350
   90SAPC  C314 8641   6.569   5.005   4.940 -0.4428 -0.2363  0.0428
   90SAPC  H14X 8642   6.535   4.900   4.951  0.6662 -0.3919  2.7205
   90SAPC  H14Y 8643   6.672   5.014   4.899 -1.2653  3.1917 -1.6600
   90SAPC  C315 8644   6.495   5.090   4.840 -0.0697 -0.7687  0.4431
   90SAPC  H15X 8645   6.537   5.076   4.738  0.1366  2.3796 -0.0015
   90SAPC  H15Y 8646   6.523   5.195   4.864 -0.0076 -0.2368 -1.7066
   90SAPC  C316 8647   6.339   5.067   4.832  0.0477 -0.2485 -0.0572
   90SAPC  H16X 8648   6.300   5.075   4.935  1.4303  2.5089  0.3405
   90SAPC  H16Y 8649   6.311   4.966   4.795 -1.4179  0.5771 -1.3420
   90SAPC  C317 8650   6.264   5.167   4.752  0.1448 -0.5083  0.3661
   90SAPC  H17X 8651   6.304   5.179   4.649  1.1630 -0.0923  0.7922
   90SAPC  H17Y 8652   6.273   5.267   4.801  1.4305 -0.3621 -0.1345
   90SAPC  C318 8653   6.114   5.142   4.747  0.7626 -0.3103  0.1426
   90SAPC  H18X 8654   6.067   5.209   4.672  2.1959  1.8605  1.0918
   90SAPC  H18Y 8655   6.081   5.170   4.849 -0.3704 -0.9709 -0.0279
   90SAPC  H18Z 8656   6.094   5.035   4.724  1.1457 -0.1925 -0.7914
   91SAPC     N 8657   3.363   4.759   6.882  0.0671  0.0773  0.4206
   91SAPC   C12 8658   3.264   4.698   6.774  0.8169 -0.0221  0.0234
   91SAPC  H12A 8659   3.233   4.605   6.818  0.5228  1.0370  2.1996
   91SAPC  H12B 8660   3.322   4.681   6.684 -0.0499 -0.0943 -0.5287
   91SAPC   C13 8661   3.496   4.692   6.879 -0.1199  0.4429  0.0301
   91SAPC  H13A 8662   3.569   4.759   6.922 -1.3057  2.6154 -1.2295
   91SAPC  H13B 8663   3.501   4.594   6.925 -1.4464 -0.0054 -0.7258
   91SAPC  H13C 8664   3.521   4.682   6.775 -0.2307 -1.5829  0.1511
   91SAPC   C14 8665   3.390   4.903   6.843 -0.4171  1.2341 -0.6010
   91SAPC  H14A 8666   3.305   4.962   6.813 -0.2049  1.5202 -0.6411
   91SAPC  H14B 8667   3.437   4.957   6.924 -2.3500  1.4587  0.4271
   91SAPC  H14C 8668   3.456   4.897   6.758 -0.0109  0.1180 -0.2213
   91SAPC   C15 8669   3.296   4.757   7.014  0.0615 -0.2694  0.0800
   91SAPC  H15A 8670   3.335   4.818   7.094  0.8092  0.7423 -1.0122
   91SAPC  H15B 8671   3.201   4.806   7.012 -0.5552 -1.3089  1.6727
   91SAPC  H15C 8672   3.295   4.654   7.048  2.0023 -1.0048 -1.8399
   91SAPC   C11 8673   3.135   4.771   6.738 -0.7430 -0.1906 -0.2394
   91SAPC  H11A 8674   3.084   4.701   6.669  0.0463 -0.3048 -0.7149
   91SAPC  H11B 8675   3.173   4.860   6.684 -0.1109  0.0398  0.5557
   91SAPC     P 8676   2.929   4.908   6.831 -0.3535 -0.3403 -0.3531
   91SAPC   O13 8677   2.817   4.875   6.922 -0.3389 -0.5762  0.1418
   91SAPC   O14 8678   2.981   5.046   6.832 -0.1390 -0.0172 -0.2700
   91SAPC   O12 8679   3.054   4.805   6.851  0.0238 -0.1427 -0.0508
   91SAPC   O11 8680   2.894   4.880   6.682 -0.2366 -0.0288 -0.3068
   91SAPC    C1 8681   2.810   4.775   6.637 -0.0613 -0.2827  0.4804
   91SAPC    HA 8682   2.826   4.685   6.700  0.0780  0.7753  2.0180
   91SAPC    HB 8683   2.703   4.804   6.650  0.0208  0.1382  0.2543
   91SAPC    C2 8684   2.833   4.746   6.488  0.1255 -0.0944 -0.5993
   91SAPC    HS 8685   2.943   4.732   6.478  0.1550  0.2861 -0.8113
   91SAPC   O21 8686   2.783   4.864   6.415  0.1847 -0.3501 -0.0912
   91SAPC   C21 8687   2.858   4.893   6.316 -0.5715  0.3100  0.7249
   91SAPC   O22 8688   2.951   4.829   6.270 -0.2509 -0.2094 -0.0903
   91SAPC   C22 8689   2.793   5.007   6.239  0.2304  0.4204 -0.4256
   91SAPC   H2R 8690   2.696   5.035   6.285 -1.3570 -1.4462 -2.4019
   91SAPC   H2S 8691   2.856   5.098   6.240  0.1281  0.4983 -0.7860
   91SAPC    C3 8692   2.762   4.616   6.433  0.0503  0.5851 -0.4780
   91SAPC    HX 8693   2.651   4.631   6.431 -0.4621 -2.6154 -2.3071
   91SAPC    HY 8694   2.771   4.525   6.495 -2.4598  0.8314  0.3661
   91SAPC   O31 8695   2.799   4.581   6.299  0.4503 -0.2104 -0.6005
   91SAPC   C31 8696   2.920   4.506   6.283 -0.2822 -0.6225  0.5957
   91SAPC   O32 8697   2.994   4.471   6.372 -0.2418 -0.4215  0.1271
   91SAPC   C32 8698   2.955   4.480   6.138 -0.7955 -0.4254  0.3885
   91SAPC   H2X 8699   2.868   4.494   6.069  0.2386  1.5433 -0.6106
   91SAPC   H2Y 8700   2.995   4.377   6.127  1.8567  0.4813  0.8656
   91SAPC   C23 8701   2.762   4.971   6.091  0.3446  0.9774 -1.1212
   91SAPC   H3R 8702   2.851   4.960   6.026  1.5731  0.1768  0.6309
   91SAPC   H3S 8703   2.704   5.057   6.052  1.9730  1.3828 -2.7659
   91SAPC   C24 8704   2.687   4.832   6.082 -0.5743  0.4189 -0.0377
   91SAPC   H4R 8705   2.760   4.751   6.104 -0.5982  0.3558 -0.1851
   91SAPC   H4S 8706   2.669   4.823   5.972  3.0195 -0.1344 -0.7015
   91SAPC   C25 8707   2.557   4.821   6.155  0.0524 -0.1794  0.0506
   91SAPC   H5R 8708   2.572   4.812   6.264 -1.6382  0.7678  0.3949
   91SAPC   C26 8709   2.432   4.830   6.105  0.1038 -0.5290 -0.3305
   91SAPC   H6R 8710   2.354   4.825   6.182  1.9211 -0.4295  1.6105
   91SAPC   C27 8711   2.396   4.850   5.960  0.0794  0.0053  0.7520
   91SAPC   H7R 8712   2.384   4.758   5.899 -1.8666  0.9527 -0.3793
   91SAPC   H7S 8713   2.469   4.916   5.908 -0.3425 -0.2024 -0.1199
   91SAPC   C28 8714   2.263   4.923   5.948  0.2461  0.0555 -0.3252
   91SAPC   H8R 8715   2.238   4.995   6.028 -1.8650 -1.2150  0.2588
   91SAPC   C29 8716   2.175   4.916   5.847  0.4082  1.1126 -0.0299
   91SAPC   H9R 8717   2.079   4.970   5.854 -0.2688 -0.1989  1.6480
   91SAPC  C210 8718   2.208   4.826   5.733  0.4552 -0.1236 -0.4446
   91SAPC  H10R 8719   2.203   4.719   5.760  0.0992 -0.1235 -0.5033
   91SAPC  H10S 8720   2.316   4.839   5.713  0.3917  2.0542  0.2886
   91SAPC  C211 8721   2.132   4.870   5.608 -0.4703  0.6506 -0.4960
   91SAPC  H11R 8722   2.037   4.817   5.596 -0.2698  0.7924 -3.4326
   91SAPC  C212 8723   2.184   4.935   5.498 -0.3857 -0.7290  0.3585
   91SAPC  H12R 8724   2.119   4.933   5.409 -0.4233  2.1100  0.2198
   91SAPC  C213 8725   2.316   4.998   5.483 -0.5701 -0.2421  1.1592
   91SAPC  H13R 8726   2.389   4.914   5.489 -1.9795 -1.5360  0.9138
   91SAPC  H13S 8727   2.333   5.074   5.563  0.6944  0.0473  0.6432
   91SAPC  C214 8728   2.314   5.082   5.356  1.0407 -0.3932 -0.6432
   91SAPC  H14R 8729   2.215   5.129   5.348  0.1575 -1.4899  2.2813
   91SAPC  C215 8730   2.416   5.117   5.276  0.4148 -0.1190 -0.4846
   91SAPC  H15R 8731   2.383   5.158   5.180  1.3567 -1.6976 -1.5297
   91SAPC  C216 8732   2.562   5.066   5.289 -0.0671  0.6945 -0.3399
   91SAPC  H16R 8733   2.571   4.962   5.325  2.1659  0.5877 -1.0546
   91SAPC  H16S 8734   2.616   5.134   5.357 -0.9231 -0.1688  1.2528
   91SAPC  C217 8735   2.638   5.048   5.157 -0.4945 -0.2241  0.4466
   91SAPC  H17R 8736   2.656   5.150   5.117  1.9551 -1.3554 -1.6682
   91SAPC  H17S 8737   2.579   4.992   5.081  0.7374  2.2387 -2.5492
   91SAPC  C218 8738   2.783   4.989   5.167  0.1991  0.1616 -0.4483
   91SAPC  H18R 8739   2.785   4.884   5.202 -2.7826  0.4741  0.9558
   91SAPC  H18S 8740   2.837   5.058   5.235  1.2387  0.1877 -1.2633
   91SAPC  C219 8741   2.855   4.994   5.026  0.2254  0.0860 -0.6763
   91SAPC  H19R 8742   2.961   4.962   5.037  0.7622  1.8821 -0.2085
   91SAPC  H19S 8743   2.858   5.099   4.991 -1.0317 -0.5456 -2.8595
   91SAPC  C220 8744   2.787   4.911   4.917  0.3285  0.5963  0.3605
   91SAPC  H20R 8745   2.789   4.802   4.935 -0.9462  0.8983  2.7449
   91SAPC  H20S 8746   2.848   4.940   4.829  0.6569 -0.7391  0.1278
   91SAPC  H20T 8747   2.686   4.951   4.894  0.0952 -0.1729  0.0321
   91SAPC   C33 8748   3.048   4.580   6.071 -0.4654  0.1715 -0.7673
   91SAPC   H3X 8749   3.150   4.568   6.114 -1.5870  1.6149  2.6073
   91SAPC   H3Y 8750   3.030   4.690   6.074 -0.3827  0.3873 -4.1597
   91SAPC   C34 8751   3.062   4.554   5.920  0.3951 -0.6750 -0.1775
   91SAPC   H4X 8752   3.077   4.446   5.896 -1.3970 -0.6208 -1.7439
   91SAPC   H4Y 8753   3.155   4.607   5.892  1.0796 -1.3831  0.6930
   91SAPC   C35 8754   2.944   4.605   5.834 -0.4115 -0.1905 -0.0074
   91SAPC   H5X 8755   2.921   4.711   5.860  0.7893  0.6381 -2.0850
   91SAPC   H5Y 8756   2.857   4.542   5.861 -0.6495 -0.7120 -1.8594
   91SAPC   C36 8757   2.962   4.586   5.686 -0.4006 -0.1900  0.1995
   91SAPC   H6X 8758   3.043   4.656   5.653 -1.1092  0.2055 -0.7303
   91SAPC   H6Y 8759   2.878   4.619   5.621  1.0532  2.1096 -0.6693
   91SAPC   C37 8760   3.002   4.442   5.641  0.0110 -0.0166 -0.3480
   91SAPC   H7X 8761   2.932   4.368   5.686  1.2276 -1.0799 -0.1392
   91SAPC   H7Y 8762   3.097   4.412   5.689 -0.1876  0.5297  0.4034
   91SAPC   C38 8763   3.005   4.426   5.489 -0.9377  0.5589  0.5566
   91SAPC   H8X 8764   2.903   4.412   5.447 -0.7164  1.1162 -0.1687
   91SAPC   H8Y 8765   3.060   4.332   5.465 -1.8271  0.4277 -1.1239
   91SAPC   C39 8766   3.054   4.551   5.409 -0.4794 -0.2336  0.3337
   91SAPC   H9X 8767   3.140   4.604   5.454 -2.2198  2.3481  0.7958
   91SAPC   H9Y 8768   2.971   4.623   5.393 -1.1853 -1.0685  0.1603
   91SAPC  C310 8769   3.094   4.504   5.271 -0.8042 -0.4368  0.4169
   91SAPC  H10X 8770   3.179   4.435   5.288 -1.1095 -1.5020 -2.0594
   91SAPC  H10Y 8771   3.126   4.586   5.203  3.3779 -1.4440  0.8988
   91SAPC  C311 8772   2.988   4.433   5.194  0.0754 -0.8675  0.5783
   91SAPC  H11X 8773   2.898   4.498   5.197 -0.7663 -1.8989 -1.0139
   91SAPC  H11Y 8774   2.966   4.340   5.250 -0.3598  0.0110  1.9141
   91SAPC  C312 8775   3.020   4.411   5.044  0.3834  0.3187 -0.9100
   91SAPC  H12X 8776   2.964   4.318   5.019  0.2849 -0.4268  1.7588
   91SAPC  H12Y 8777   3.126   4.380   5.053 -0.3028 -1.8505  0.5405
   91SAPC  C313 8778   3.002   4.532   4.956  0.1145 -1.1697 -0.3815
   91SAPC  H13X 8779   3.080   4.608   4.978  0.3545 -1.8837  1.4633
   91SAPC  H13Y 8780   2.897   4.567   4.960  0.8254  1.1335 -0.5495
   91SAPC  C314 8781   3.034   4.492   4.812 -0.0206 -0.3971  0.0633
   91SAPC  H14X 8782   3.138   4.455   4.819 -0.2948 -1.2596 -0.3264
   91SAPC  H14Y 8783   3.027   4.582   4.747 -2.1813  1.0079  2.0810
   91SAPC  C315 8784   2.956   4.382   4.743 -0.2598 -1.2241  0.4045
   91SAPC  H15X 8785   2.846   4.396   4.749 -0.0871  0.6886 -0.1923
   91SAPC  H15Y 8786   2.999   4.288   4.783  4.3512  0.2072 -0.5671
   91SAPC  C316 8787   2.988   4.383   4.593 -0.1444  0.5899 -0.2787
   91SAPC  H16X 8788   3.097   4.402   4.579  0.0208  0.0163  0.1831
   91SAPC  H16Y 8789   2.941   4.466   4.536 -0.1907  0.2933 -0.6744
   91SAPC  C317 8790   2.962   4.245   4.533 -0.5567 -0.4254 -0.2075
   91SAPC  H17X 8791   2.863   4.209   4.567  0.0398 -1.2890  0.6876
   91SAPC  H17Y 8792   3.032   4.169   4.574 -2.1292 -1.2685  1.0000
   91SAPC  C318 8793   2.962   4.249   4.377 -0.4663 -0.4638  0.4731
   91SAPC  H18X 8794   3.054   4.299   4.339 -2.8269  1.8444 -2.7403
   91SAPC  H18Y 8795   2.872   4.305   4.345 -1.0107 -1.4872  0.1743
   91SAPC  H18Z 8796   2.960   4.149   4.329 -1.6077  0.2425 -1.0298
   92SAPC     N 8797   1.371   2.183   6.656  0.1140  0.2505 -0.6586
   92SAPC   C12 8798   1.508   2.254   6.645  0.6259 -0.9262  0.3349
   92SAPC  H12A 8799   1.488   2.352   6.604  1.1617 -1.6993 -1.9282
   92SAPC  H12B 8800   1.564   2.198   6.571  1.1848  1.8490 -1.5090
   92SAPC   C13 8801   1.301   2.182   6.524 -0.0810  1.0395 -0.4658
   92SAPC  H13A 8802   1.367   2.131   6.455 -0.5005 -0.1780 -0.0086
   92SAPC  H13B 8803   1.211   2.122   6.532  1.9405 -2.3511 -0.9312
   92SAPC  H13C 8804   1.288   2.281   6.484 -1.7173  0.7811 -0.6325
   92SAPC   C14 8805   1.386   2.045   6.714  0.2857 -0.9560 -0.3592
   92SAPC  H14A 8806   1.458   2.049   6.794 -0.4697  0.5223  0.2763
   92SAPC  H14B 8807   1.289   2.016   6.752 -0.0168  0.2839 -0.1550
   92SAPC  H14C 8808   1.417   1.975   6.638 -0.6631 -0.0718 -1.6040
   92SAPC   C15 8809   1.278   2.260   6.749 -0.6545 -0.0534  0.7843
   92SAPC  H15A 8810   1.265   2.362   6.715 -0.5431 -0.2670  0.0936
   92SAPC  H15B 8811   1.177   2.222   6.755 -1.2812  1.6007  1.5093
   92SAPC  H15C 8812   1.310   2.265   6.852  0.3674  1.0959  0.4333
   92SAPC   C11 8813   1.593   2.270   6.776  0.3203 -0.0461 -0.3093
   92SAPC  H11A 8814   1.533   2.311   6.860 -0.1028  1.0216 -1.1123
   92SAPC  H11B 8815   1.663   2.355   6.759  1.1019 -0.1501  2.0470
   92SAPC     P 8816   1.789   2.101   6.756 -0.0900  0.0854 -0.4124
   92SAPC   O13 8817   1.891   2.187   6.818  0.5841 -0.4931 -0.2065
   92SAPC   O14 8818   1.801   1.958   6.781  0.5367 -0.3427  0.3704
   92SAPC   O12 8819   1.654   2.147   6.811 -0.4532 -0.0920 -0.6332
   92SAPC   O11 8820   1.789   2.134   6.598  0.1893  0.5829 -0.7780
   92SAPC    C1 8821   1.750   2.025   6.513  0.1840  0.2727 -0.1064
   92SAPC    HA 8822   1.809   1.932   6.524  0.8608  0.5785 -1.0556
   92SAPC    HB 8823   1.643   1.993   6.520  0.7850 -1.9217 -0.1565
   92SAPC    C2 8824   1.759   2.068   6.362 -0.2514 -0.2448  0.5246
   92SAPC    HS 8825   1.868   2.078   6.345 -0.3346 -0.3414 -0.0889
   92SAPC   O21 8826   1.677   2.189   6.347  0.3901  0.0535 -0.2116
   92SAPC   C21 8827   1.721   2.266   6.257 -0.0951 -0.0038 -0.2803
   92SAPC   O22 8828   1.823   2.253   6.189 -0.2924 -0.0778 -0.1730
   92SAPC   C22 8829   1.638   2.396   6.269 -0.2150 -0.0939  0.3066
   92SAPC   H2R 8830   1.542   2.366   6.314 -1.3231  0.8618 -1.2874
   92SAPC   H2S 8831   1.698   2.470   6.326  0.4100 -0.3156 -0.0467
   92SAPC    C3 8832   1.706   1.951   6.270  0.1423 -0.3894  0.3887
   92SAPC    HX 8833   1.607   1.906   6.293 -0.2161 -0.3343 -0.9612
   92SAPC    HY 8834   1.773   1.863   6.279 -0.1508 -0.5267  1.3130
   92SAPC   O31 8835   1.707   1.993   6.137  0.2465 -0.0288  0.1596
   92SAPC   C31 8836   1.814   1.984   6.050 -0.2295  0.3292  0.1830
   92SAPC   O32 8837   1.916   1.919   6.071 -0.8283  0.3548 -0.0646
   92SAPC   C32 8838   1.778   2.051   5.913  0.1548 -0.0242 -0.0932
   92SAPC   H2X 8839   1.781   2.162   5.912  1.5595  0.0118  1.7898
   92SAPC   H2Y 8840   1.680   2.011   5.879 -0.0961  0.0342  0.5543
   92SAPC   C23 8841   1.599   2.445   6.124 -0.0773  0.0454 -0.0646
   92SAPC   H3R 8842   1.686   2.476   6.061 -0.2381  0.7357  0.0412
   92SAPC   H3S 8843   1.547   2.541   6.146  1.6231  1.3019 -1.1612
   92SAPC   C24 8844   1.519   2.337   6.049 -0.4853  0.7126 -0.3216
   92SAPC   H4R 8845   1.450   2.289   6.122 -2.8877  0.2374 -2.7551
   92SAPC   H4S 8846   1.584   2.255   6.011  0.0266  0.3083  1.3314
   92SAPC   C25 8847   1.433   2.374   5.938  0.9284 -0.3781  0.7548
   92SAPC   H5R 8848   1.325   2.363   5.958  0.3227  0.4588 -1.7520
   92SAPC   C26 8849   1.454   2.411   5.814 -1.1633  0.2316  0.0812
   92SAPC   H6R 8850   1.366   2.458   5.768 -1.3611  0.2729  0.4969
   92SAPC   C27 8851   1.591   2.427   5.749  0.3060 -0.2439  0.0746
   92SAPC   H7R 8852   1.670   2.398   5.822  0.2110  1.1316  0.7677
   92SAPC   H7S 8853   1.616   2.532   5.723  1.9981 -0.4671  0.6270
   92SAPC   C28 8854   1.612   2.328   5.640  0.1480 -0.4369  0.5106
   92SAPC   H8R 8855   1.633   2.231   5.687 -1.6307  0.0874  2.5509
   92SAPC   C29 8856   1.606   2.331   5.507  0.2817  0.6534 -0.0416
   92SAPC   H9R 8857   1.601   2.240   5.445 -1.3667 -1.1503  2.5629
   92SAPC  C210 8858   1.573   2.459   5.435 -1.0868  1.0547 -0.0825
   92SAPC  H10R 8859   1.670   2.506   5.409 -0.2481  0.3096  1.5566
   92SAPC  H10S 8860   1.516   2.533   5.495 -3.1831  0.2012 -0.9131
   92SAPC  C211 8861   1.481   2.449   5.317 -0.4749 -0.2929 -0.6283
   92SAPC  H11R 8862   1.373   2.456   5.336 -0.2932 -0.1206  0.3927
   92SAPC  C212 8863   1.516   2.427   5.190  0.8916  0.3814  0.4349
   92SAPC  H12R 8864   1.443   2.437   5.108  2.5737  2.3784 -0.9304
   92SAPC  C213 8865   1.657   2.413   5.139 -0.6389 -0.2813 -0.0505
   92SAPC  H13R 8866   1.733   2.417   5.220 -2.0862  0.7181  1.3189
   92SAPC  H13S 8867   1.677   2.497   5.069  1.3848 -1.2363 -0.7051
   92SAPC  C214 8868   1.660   2.275   5.066  0.0853 -0.3475  0.1107
   92SAPC  H14R 8869   1.672   2.187   5.130  0.9949 -1.6499 -1.7370
   92SAPC  C215 8870   1.651   2.251   4.929 -0.0709  0.3484 -0.6990
   92SAPC  H15R 8871   1.652   2.142   4.911 -0.1503  0.0612  0.9030
   92SAPC  C216 8872   1.633   2.358   4.820 -0.5111  0.0566 -0.2640
   92SAPC  H16R 8873   1.645   2.465   4.850  0.6476  0.0170 -0.5298
   92SAPC  H16S 8874   1.527   2.345   4.790 -0.7883  1.9151 -0.2278
   92SAPC  C217 8875   1.714   2.327   4.694 -0.1655  0.3064 -0.4690
   92SAPC  H17R 8876   1.678   2.385   4.606  2.8082  2.3776 -0.4585
   92SAPC  H17S 8877   1.707   2.219   4.668  0.4499  0.5024 -1.5144
   92SAPC  C218 8878   1.861   2.376   4.712 -0.6668 -0.1181  0.2217
   92SAPC  H18R 8879   1.894   2.326   4.805 -1.7021 -0.7730  0.2540
   92SAPC  H18S 8880   1.873   2.486   4.719 -2.0459  0.2722 -2.3546
   92SAPC  C219 8881   1.947   2.327   4.599 -0.5474  0.3398  0.0656
   92SAPC  H19R 8882   1.946   2.216   4.587 -1.1747  0.3978 -0.5227
   92SAPC  H19S 8883   2.051   2.359   4.617 -0.2530 -0.1271 -0.7255
   92SAPC  C220 8884   1.898   2.390   4.464 -0.5506  0.5984  0.1849
   92SAPC  H20R 8885   1.978   2.378   4.389 -1.1746  1.3664 -0.6181
   92SAPC  H20S 8886   1.885   2.500   4.468  1.2707  0.8369  0.8142
   92SAPC  H20T 8887   1.807   2.342   4.422  0.0421 -0.6135  0.2383
   92SAPC   C33 8888   1.872   1.994   5.805 -0.4899  0.1602 -0.3313
   92SAPC   H3X 8889   1.890   1.886   5.818 -1.7894  0.1709  1.9514
   92SAPC   H3Y 8890   1.967   2.052   5.807  0.2673 -1.0281 -0.8663
   92SAPC   C34 8891   1.815   2.011   5.665  0.1827 -0.3281 -0.2920
   92SAPC   H4X 8892   1.807   2.122   5.658  2.9226 -0.0467 -0.2346
   92SAPC   H4Y 8893   1.714   1.966   5.659  0.4696 -0.8236 -1.6365
   92SAPC   C35 8894   1.896   1.952   5.556 -0.1452  0.0852  0.5753
   92SAPC   H5X 8895   1.898   1.845   5.583  0.5945 -0.6893 -2.1810
   92SAPC   H5Y 8896   2.002   1.987   5.550 -0.0774 -0.3754 -2.2764
   92SAPC   C36 8897   1.835   1.954   5.415 -0.3358  0.0387 -0.2500
   92SAPC   H6X 8898   1.805   2.052   5.373 -1.6508 -1.2688 -2.5698
   92SAPC   H6Y 8899   1.744   1.890   5.423  0.2253 -0.6586  0.9151
   92SAPC   C37 8900   1.937   1.895   5.316  0.1677 -0.3488 -0.1314
   92SAPC   H7X 8901   1.975   1.792   5.334 -0.1036 -0.3379  0.5159
   92SAPC   H7Y 8902   2.023   1.966   5.312 -0.6400  0.6052 -1.2106
   92SAPC   C38 8903   1.862   1.894   5.181  0.1042  0.0027  0.3190
   92SAPC   H8X 8904   1.830   2.001   5.175  3.2098  1.2047  2.6437
   92SAPC   H8Y 8905   1.775   1.826   5.194 -1.2240  1.8715  1.9935
   92SAPC   C39 8906   1.946   1.856   5.063 -0.0723  0.6388 -0.4860
   92SAPC   H9X 8907   1.969   1.748   5.077 -2.5783  0.1054  0.0858
   92SAPC   H9Y 8908   2.045   1.904   5.053  0.2633  0.0146 -0.1864
   92SAPC  C310 8909   1.865   1.863   4.937 -0.0025 -0.3501  0.4690
   92SAPC  H10X 8910   1.839   1.965   4.905 -0.4423 -0.1275  1.4810
   92SAPC  H10Y 8911   1.772   1.804   4.949 -0.0317 -0.3494  0.2441
   92SAPC  C311 8912   1.927   1.795   4.808  0.6985  0.2991 -0.3497
   92SAPC  H11X 8913   1.846   1.808   4.732  1.7568  1.3379 -1.3430
   92SAPC  H11Y 8914   1.946   1.691   4.842  1.7578  0.5776 -0.0387
   92SAPC  C312 8915   2.067   1.841   4.767 -0.6702  0.1561  0.3320
   92SAPC  H12X 8916   2.145   1.826   4.844 -0.5971 -1.1843  0.0139
   92SAPC  H12Y 8917   2.063   1.951   4.751 -0.6332 -0.0588 -1.3243
   92SAPC  C313 8918   2.104   1.765   4.635  0.5451  0.3870 -0.0619
   92SAPC  H13X 8919   2.087   1.656   4.651  1.6727  0.3358  0.9272
   92SAPC  H13Y 8920   2.210   1.787   4.610  0.7952 -0.2344  0.4239
   92SAPC  C314 8921   2.020   1.797   4.512 -0.3354 -0.1925 -0.3550
   92SAPC  H14X 8922   2.039   1.904   4.488  1.6383  0.1632  2.4140
   92SAPC  H14Y 8923   1.910   1.793   4.527 -0.1829 -0.7055  0.7301
   92SAPC  C315 8924   2.057   1.713   4.390  0.2403  0.2312  0.6229
   92SAPC  H15X 8925   2.048   1.604   4.414  0.3292  0.0537 -0.1231
   92SAPC  H15Y 8926   2.164   1.724   4.363  0.4188 -0.3314  1.0627
   92SAPC  C316 8927   1.961   1.750   4.270 -0.1993  0.1040 -0.5320
   92SAPC  H16X 8928   2.001   1.847   4.234  1.7006 -0.1051  0.8354
   92SAPC  H16Y 8929   1.851   1.755   4.287 -0.1212  2.1507 -0.3757
   92SAPC  C317 8930   1.961   1.642   4.160 -0.7155 -0.3249 -0.3677
   92SAPC  H17X 8931   1.904   1.552   4.193 -2.1476 -0.7304 -3.5107
   92SAPC  H17Y 8932   2.063   1.605   4.135 -1.3403 -0.6546 -2.6269
   92SAPC  C318 8933   1.903   1.696   4.033  0.2478 -0.3184  0.2314
   92SAPC  H18X 8934   1.896   1.611   3.963 -2.0178 -1.6446  1.9285
   92SAPC  H18Y 8935   1.969   1.776   3.992  0.5229 -0.8107 -0.2967
   92SAPC  H18Z 8936   1.797   1.731   4.035  0.1957 -0.3913 -0.7902
   93SAPC     N 8937   4.132   4.789   6.951 -0.3449 -0.1303 -0.8782
   93SAPC   C12 8938   4.180   4.889   6.841  0.2357  0.0790 -0.0485
   93SAPC  H12A 8939   4.259   4.953   6.878 -0.1974  0.7671 -0.3019
   93SAPC  H12B 8940   4.099   4.960   6.831 -1.9816 -1.8059  2.6088
   93SAPC   C13 8941   4.242   4.706   7.000  0.3447 -0.2417  0.1654
   93SAPC  H13A 8942   4.322   4.770   7.034  0.4611  0.5402 -1.5190
   93SAPC  H13B 8943   4.204   4.644   7.080 -1.3727 -0.9008 -1.1283
   93SAPC  H13C 8944   4.267   4.639   6.919 -0.8710  0.4387 -0.8001
   93SAPC   C14 8945   4.081   4.866   7.065 -0.5868  0.1383 -0.2029
   93SAPC  H14A 8946   4.021   4.801   7.127  0.3655  0.7763  1.4517
   93SAPC  H14B 8947   4.160   4.914   7.121  0.0234  0.8447 -1.6105
   93SAPC  H14C 8948   4.009   4.942   7.040  0.1991  1.2328  0.7573
   93SAPC   C15 8949   4.019   4.708   6.900  0.1621 -0.5988 -0.5918
   93SAPC  H15A 8950   4.065   4.631   6.840  1.7456 -2.1926  2.4511
   93SAPC  H15B 8951   3.972   4.667   6.988  1.6857  1.7540  1.4443
   93SAPC  H15C 8952   3.945   4.754   6.837 -1.0149 -2.7259 -0.8507
   93SAPC   C11 8953   4.232   4.837   6.709  0.4564 -0.7344 -0.8541
   93SAPC  H11A 8954   4.261   4.929   6.653  0.4774 -0.7351 -0.8442
   93SAPC  H11B 8955   4.142   4.802   6.654 -0.2310  0.8304 -0.7919
   93SAPC     P 8956   4.487   4.791   6.761  0.0631 -0.1798  0.1840
   93SAPC   O13 8957   4.486   4.930   6.824  0.1921  0.3122  0.0685
   93SAPC   O14 8958   4.545   4.677   6.839 -0.1185 -0.2124  0.0635
   93SAPC   O12 8959   4.339   4.746   6.724 -0.1746 -0.2117 -0.0509
   93SAPC   O11 8960   4.561   4.804   6.623 -0.3018 -0.1933 -0.1352
   93SAPC    C1 8961   4.597   4.684   6.552 -0.1861 -0.0212 -0.6591
   93SAPC    HA 8962   4.703   4.655   6.572 -1.5266 -3.9328  1.9054
   93SAPC    HB 8963   4.539   4.595   6.583  2.2545 -1.9128 -1.2047
   93SAPC    C2 8964   4.565   4.708   6.402 -0.2304 -0.5862  0.4585
   93SAPC    HS 8965   4.584   4.613   6.346 -0.4751 -0.1376 -0.4047
   93SAPC   O21 8966   4.637   4.816   6.348  0.6069 -0.5593  0.2048
   93SAPC   C21 8967   4.769   4.798   6.349 -0.6841  0.6812  0.4581
   93SAPC   O22 8968   4.823   4.693   6.361  0.1338  0.0102  0.0527
   93SAPC   C22 8969   4.835   4.918   6.300 -0.2534  0.0421 -0.0598
   93SAPC   H2R 8970   4.779   5.010   6.325 -0.1543  0.3442 -0.9257
   93SAPC   H2S 8971   4.936   4.917   6.346  0.0682 -0.7225 -0.7560
   93SAPC    C3 8972   4.406   4.734   6.391 -0.5573 -0.0510 -0.4073
   93SAPC    HX 8973   4.374   4.824   6.447 -0.4771 -1.2783  1.7110
   93SAPC    HY 8974   4.365   4.652   6.453  1.4947 -0.5338  0.4111
   93SAPC   O31 8975   4.351   4.715   6.258 -1.5300  0.4637  0.0725
   93SAPC   C31 8976   4.215   4.733   6.268 -0.3542 -0.1419  0.1542
   93SAPC   O32 8977   4.153   4.726   6.369  0.8208  0.3108  0.8041
   93SAPC   C32 8978   4.162   4.755   6.125 -0.7548  0.2117 -0.5459
   93SAPC   H2X 8979   4.248   4.722   6.063  0.6825 -2.4908  2.5542
   93SAPC   H2Y 8980   4.126   4.858   6.103 -1.1419  0.1987  0.0093
   93SAPC   C23 8981   4.848   4.920   6.152 -0.1358 -0.2536 -0.0448
   93SAPC   H3R 8982   4.749   4.928   6.101  0.2732 -0.0175 -0.8176
   93SAPC   H3S 8983   4.902   4.832   6.111  1.2863  0.0557  1.0914
   93SAPC   C24 8984   4.929   5.047   6.114  0.1635 -0.1844 -0.5658
   93SAPC   H4R 8985   5.007   5.069   6.190 -1.1508  1.6884  0.3062
   93SAPC   H4S 8986   4.864   5.137   6.117 -2.6578 -2.0871  2.0054
   93SAPC   C25 8987   4.990   5.026   5.973 -0.3187  0.3445 -0.5123
   93SAPC   H5R 8988   5.079   4.962   5.970 -0.2759  0.3728  0.1173
   93SAPC   C26 8989   4.935   5.067   5.853  0.9877  0.2548  0.8952
   93SAPC   H6R 8990   4.981   5.037   5.758  0.7139  0.5975  0.6530
   93SAPC   C27 8991   4.812   5.155   5.829  0.3505  0.6593  0.2883
   93SAPC   H7R 8992   4.852   5.254   5.800  1.6417 -0.2937 -1.3472
   93SAPC   H7S 8993   4.740   5.173   5.912  1.2411 -0.5945  1.3744
   93SAPC   C28 8994   4.724   5.096   5.713 -0.4192 -0.3934 -0.2036
   93SAPC   H8R 8995   4.648   5.021   5.739 -1.5060  1.0262  0.8977
   93SAPC   C29 8996   4.719   5.133   5.583  0.2001  0.6422 -0.1840
   93SAPC   H9R 8997   4.649   5.084   5.513  1.4704 -1.0179 -0.3361
   93SAPC  C210 8998   4.834   5.219   5.521  0.4768 -0.8378  0.5430
   93SAPC  H10R 8999   4.922   5.245   5.584  0.0248 -1.5385  1.4851
   93SAPC  H10S 9000   4.776   5.309   5.490 -1.0221 -2.3656 -1.3215
   93SAPC  C211 9001   4.892   5.149   5.401 -0.8022 -0.0774  0.3025
   93SAPC  H11R 9002   4.990   5.104   5.421  0.2027  2.0359  0.4735
   93SAPC  C212 9003   4.835   5.151   5.283  0.0440 -0.2222  0.6198
   93SAPC  H12R 9004   4.874   5.087   5.203 -0.0196  1.4588 -0.8202
   93SAPC  C213 9005   4.707   5.219   5.255  0.4932  0.4686 -0.2428
   93SAPC  H13R 9006   4.694   5.315   5.311 -0.9314  0.5334 -0.6452
   93SAPC  H13S 9007   4.637   5.161   5.319  1.1825  0.4100  0.4670
   93SAPC  C214 9008   4.661   5.232   5.116  0.3692 -0.1334  0.0931
   93SAPC  H14R 9009   4.656   5.338   5.088  0.3716 -0.1705 -0.0511
   93SAPC  C215 9010   4.636   5.140   5.015  0.6924 -0.2318 -0.4228
   93SAPC  H15R 9011   4.587   5.182   4.926  0.6225  1.2737  0.3022
   93SAPC  C216 9012   4.661   4.990   5.015  0.2336  0.6602 -0.1989
   93SAPC  H16R 9013   4.570   4.932   4.990  0.7251  0.5400 -1.8458
   93SAPC  H16S 9014   4.695   4.951   5.113 -0.2463 -0.9913 -0.6622
   93SAPC  C217 9015   4.764   4.941   4.904 -0.6273  0.3508  0.2136
   93SAPC  H17R 9016   4.860   4.996   4.916 -0.4673  0.5679 -1.7873
   93SAPC  H17S 9017   4.729   4.976   4.805 -1.6162 -2.9250 -0.7081
   93SAPC  C218 9018   4.792   4.789   4.902  0.3110  0.2083  0.3309
   93SAPC  H18R 9019   4.689   4.748   4.916  0.1837 -0.0542 -1.2002
   93SAPC  H18S 9020   4.848   4.756   4.992  0.0533  2.0776  1.2435
   93SAPC  C219 9021   4.865   4.735   4.774  0.6123 -1.4074 -0.1528
   93SAPC  H19R 9022   4.840   4.789   4.680 -0.5828  0.4212  1.1284
   93SAPC  H19S 9023   4.826   4.632   4.760 -2.2160 -0.2980 -1.0710
   93SAPC  C220 9024   5.016   4.740   4.807 -0.0535 -0.2493 -0.3885
   93SAPC  H20R 9025   5.048   4.842   4.837 -0.3272 -0.3221  0.1776
   93SAPC  H20S 9026   5.071   4.720   4.713 -1.1577 -0.6188 -0.9822
   93SAPC  H20T 9027   5.046   4.658   4.876  0.4641  1.3195  1.3028
   93SAPC   C33 9028   4.044   4.662   6.096  0.2897 -0.3957  0.7753
   93SAPC   H3X 9029   3.959   4.681   6.165  1.5244  1.1591  1.9469
   93SAPC   H3Y 9030   4.069   4.554   6.105 -1.8008 -0.9823  0.1127
   93SAPC   C34 9031   4.006   4.658   5.947  0.6686 -0.7568 -0.2224
   93SAPC   H4X 9032   3.999   4.761   5.905  1.4460  0.1054  1.6396
   93SAPC   H4Y 9033   3.898   4.636   5.957 -0.0933  2.4647 -0.2386
   93SAPC   C35 9034   4.093   4.580   5.847  0.6386 -0.1297 -0.0283
   93SAPC   H5X 9035   4.065   4.473   5.857  0.9013 -0.2826 -0.8414
   93SAPC   H5Y 9036   4.200   4.593   5.875  1.2673 -1.4580 -1.6380
   93SAPC   C36 9037   4.089   4.640   5.707  0.0501 -0.0876  0.1845
   93SAPC   H6X 9038   4.150   4.732   5.719  0.5304 -0.3957  0.1413
   93SAPC   H6Y 9039   3.985   4.661   5.675  0.3161 -0.2483 -0.8204
   93SAPC   C37 9040   4.152   4.544   5.610  0.0736  0.0927  0.1052
   93SAPC   H7X 9041   4.101   4.445   5.612 -0.5013  0.3100 -2.0485
   93SAPC   H7Y 9042   4.258   4.537   5.643  0.3695  1.4934 -0.4635
   93SAPC   C38 9043   4.155   4.594   5.472 -0.0410  0.5303  0.3355
   93SAPC   H8X 9044   4.206   4.693   5.476  1.2055 -0.1366  3.5288
   93SAPC   H8Y 9045   4.052   4.602   5.430 -0.2907  0.7966  0.9938
   93SAPC   C39 9046   4.231   4.508   5.370  0.0159  0.5093  0.3781
   93SAPC   H9X 9047   4.327   4.484   5.420  0.3697 -0.8102 -0.8461
   93SAPC   H9Y 9048   4.261   4.574   5.286 -2.1120 -0.1813 -1.0128
   93SAPC  C310 9049   4.169   4.377   5.328  0.0316  0.0936 -0.0527
   93SAPC  H10X 9050   4.069   4.380   5.279  0.6694 -0.2527 -1.4083
   93SAPC  H10Y 9051   4.137   4.321   5.419 -2.5050  1.6834  0.1212
   93SAPC  C311 9052   4.259   4.288   5.239  0.4209 -0.1227  0.0240
   93SAPC  H11X 9053   4.210   4.192   5.212  0.4685 -0.4785  1.1472
   93SAPC  H11Y 9054   4.354   4.274   5.294  0.8553  0.0805 -0.6631
   93SAPC  C312 9055   4.314   4.359   5.109  0.2032 -0.2629 -0.6048
   93SAPC  H12X 9056   4.383   4.444   5.125 -0.3142  0.0132  0.2270
   93SAPC  H12Y 9057   4.228   4.407   5.057  0.1522  1.0951  0.6874
   93SAPC  C313 9058   4.372   4.259   5.009  0.4789 -0.2254 -0.1162
   93SAPC  H13X 9059   4.444   4.192   5.060  2.5311  0.9135 -1.4148
   93SAPC  H13Y 9060   4.422   4.311   4.924 -0.5584  1.0963  0.0528
   93SAPC  C314 9061   4.260   4.177   4.950  0.5254  0.1627  0.0227
   93SAPC  H14X 9062   4.192   4.133   5.027 -1.9112  2.4678 -0.6394
   93SAPC  H14Y 9063   4.309   4.085   4.912 -1.9588 -1.1868 -0.1545
   93SAPC  C315 9064   4.178   4.245   4.839  0.3197 -0.1580 -0.1841
   93SAPC  H15X 9065   4.151   4.342   4.885 -0.9470 -0.3114 -0.5773
   93SAPC  H15Y 9066   4.089   4.187   4.806 -0.4006  1.7551 -1.7729
   93SAPC  C316 9067   4.250   4.255   4.701  0.0251 -0.6847  0.7956
   93SAPC  H16X 9068   4.278   4.152   4.673  1.1777  0.4382 -2.8408
   93SAPC  H16Y 9069   4.344   4.313   4.718 -0.1319 -0.4841  0.9910
   93SAPC  C317 9070   4.179   4.324   4.579  0.0140 -0.1023 -0.0026
   93SAPC  H17X 9071   4.245   4.401   4.532 -1.6141  0.6034 -1.2277
   93SAPC  H17Y 9072   4.092   4.376   4.624  0.4237  0.7316 -0.1548
   93SAPC  C318 9073   4.137   4.224   4.470 -0.0652 -0.0273  0.7879
   93SAPC  H18X 9074   4.052   4.161   4.505  0.2805 -1.4277 -0.7584
   93SAPC  H18Y 9075   4.224   4.157   4.453  3.7841  3.2488  5.0044
   93SAPC  H18Z 9076   4.111   4.275   4.375 -1.1011  1.2817  1.7304
   94SAPC     N 9077   3.708   1.752   7.486  0.0712  0.1183  0.1702
   94SAPC   C12 9078   3.668   1.621   7.404 -0.0532 -0.9275  0.1747
   94SAPC  H12A 9079   3.565   1.610   7.431 -0.5515 -0.9150 -1.5727
   94SAPC  H12B 9080   3.722   1.537   7.445 -0.0576 -0.7050  0.6338
   94SAPC   C13 9081   3.639   1.867   7.429  0.7853  0.5261 -0.2753
   94SAPC  H13A 9082   3.532   1.868   7.444  0.8613  1.7234  0.3250
   94SAPC  H13B 9083   3.663   1.965   7.466  0.1939  0.5788 -0.0158
   94SAPC  H13C 9084   3.658   1.885   7.324 -0.4667 -0.1331 -0.6323
   94SAPC   C14 9085   3.678   1.739   7.631 -0.0391 -0.1332  0.0585
   94SAPC  H14A 9086   3.732   1.658   7.678  0.3829  0.2314  0.2124
   94SAPC  H14B 9087   3.715   1.827   7.682 -2.2655  0.1003  1.4057
   94SAPC  H14C 9088   3.573   1.720   7.644 -0.1871  1.5201  1.5918
   94SAPC   C15 9089   3.862   1.771   7.472 -0.1121 -0.0622  0.3111
   94SAPC  H15A 9090   3.922   1.697   7.522  0.1548 -1.2828 -1.6976
   94SAPC  H15B 9091   3.892   1.784   7.369 -1.4285  0.2090 -0.0560
   94SAPC  H15C 9092   3.890   1.864   7.519  2.2178 -1.1620  1.2512
   94SAPC   C11 9093   3.683   1.630   7.251  0.2346 -0.3457  0.6314
   94SAPC  H11A 9094   3.623   1.712   7.206  0.9556 -0.5506 -0.7306
   94SAPC  H11B 9095   3.646   1.532   7.213  1.6899 -1.2673  1.5111
   94SAPC     P 9096   3.896   1.560   7.126 -0.0672  0.1080 -0.0992
   94SAPC   O13 9097   4.032   1.614   7.095  0.4014  0.1012 -0.4445
   94SAPC   O14 9098   3.890   1.425   7.188  0.5042  0.0604 -0.5780
   94SAPC   O12 9099   3.809   1.660   7.204 -0.2998  0.2792 -0.4758
   94SAPC   O11 9100   3.823   1.555   6.987  0.0154  0.2707  0.9194
   94SAPC    C1 9101   3.803   1.677   6.917 -0.8017  0.2415  0.4075
   94SAPC    HA 9102   3.719   1.730   6.968 -1.0064 -0.5516  0.9004
   94SAPC    HB 9103   3.888   1.745   6.940 -1.6168  1.0831  1.0233
   94SAPC    C2 9104   3.766   1.656   6.775 -0.2858 -0.1656  0.0871
   94SAPC    HS 9105   3.673   1.596   6.766 -0.5124  0.1503  0.2981
   94SAPC   O21 9106   3.879   1.587   6.713 -0.4216 -0.5025  0.0323
   94SAPC   C21 9107   3.846   1.521   6.603 -0.4959 -0.1578  0.2720
   94SAPC   O22 9108   3.734   1.507   6.553 -0.3518 -0.2244  0.3090
   94SAPC   C22 9109   3.970   1.465   6.538  0.4816  0.1966 -0.0820
   94SAPC   H2R 9110   4.062   1.500   6.590  0.8994  1.2221 -1.4586
   94SAPC   H2S 9111   3.961   1.354   6.543 -2.1016  0.3791  1.4282
   94SAPC    C3 9112   3.730   1.791   6.719 -0.3488  0.4038 -0.0540
   94SAPC    HX 9113   3.816   1.859   6.742 -0.2279  0.3901 -0.4682
   94SAPC    HY 9114   3.637   1.823   6.770 -0.2913  2.0461 -0.9045
   94SAPC   O31 9115   3.710   1.797   6.577  0.0987 -0.4314 -0.1593
   94SAPC   C31 9116   3.762   1.896   6.510 -0.2013 -0.0438  0.1099
   94SAPC   O32 9117   3.799   2.001   6.550 -0.0878 -0.2649 -0.2877
   94SAPC   C32 9118   3.769   1.844   6.367  0.0575 -0.2992  0.6058
   94SAPC   H2X 9119   3.670   1.803   6.340 -0.1898 -1.6306  3.2189
   94SAPC   H2Y 9120   3.836   1.756   6.367  0.0052 -0.4015 -1.6789
   94SAPC   C23 9121   3.974   1.496   6.385 -0.0429  0.1237 -0.3755
   94SAPC   H3R 9122   3.929   1.598   6.381 -0.5951 -0.0208  1.1775
   94SAPC   H3S 9123   3.912   1.430   6.320  1.4943 -1.3649 -0.3899
   94SAPC   C24 9124   4.121   1.502   6.327  0.3628  0.6286 -0.0395
   94SAPC   H4R 9125   4.162   1.401   6.307  0.4188  0.6803 -0.1895
   94SAPC   H4S 9126   4.188   1.546   6.404 -0.2167 -0.1073  0.9054
   94SAPC   C25 9127   4.116   1.593   6.207 -0.5977 -0.2133  0.1609
   94SAPC   H5R 9128   4.115   1.700   6.232 -1.3456 -0.0073 -0.6961
   94SAPC   C26 9129   4.112   1.555   6.075 -0.0113  0.0312 -0.4337
   94SAPC   H6R 9130   4.115   1.641   6.007 -0.3122  0.6914  0.3708
   94SAPC   C27 9131   4.139   1.419   6.019  0.3552  0.0371  0.5611
   94SAPC   H7R 9132   4.154   1.336   6.091 -2.0361 -1.8975 -1.0089
   94SAPC   H7S 9133   4.236   1.409   5.965  1.8179 -0.3207  3.0819
   94SAPC   C28 9134   4.019   1.378   5.933 -0.6903 -0.5379  0.2212
   94SAPC   H8R 9135   3.948   1.323   5.997 -1.2408 -1.6908 -1.3074
   94SAPC   C29 9136   3.973   1.408   5.812  0.9329  0.6161 -0.1564
   94SAPC   H9R 9137   3.881   1.360   5.775  1.3884 -0.8538  0.5200
   94SAPC  C210 9138   4.042   1.499   5.714 -0.2421  0.2682  0.1486
   94SAPC  H10R 9139   4.138   1.537   5.756  1.1101 -0.6602 -1.9470
   94SAPC  H10S 9140   3.975   1.582   5.685  0.1223  0.2252 -0.8658
   94SAPC  C211 9141   4.085   1.427   5.595  0.6647 -0.3142  0.2718
   94SAPC  H11R 9142   4.172   1.361   5.615  0.2301 -0.2716  2.5911
   94SAPC  C212 9143   4.039   1.442   5.470 -1.0229  0.2807  0.5446
   94SAPC  H12R 9144   4.093   1.384   5.393 -0.5198  0.5543  0.6890
   94SAPC  C213 9145   3.924   1.525   5.415 -0.4538  0.7561  1.0676
   94SAPC  H13R 9146   3.855   1.559   5.495 -4.0563 -1.5509 -0.7631
   94SAPC  H13S 9147   3.869   1.457   5.347  0.2246 -1.9526  3.0603
   94SAPC  C214 9148   3.960   1.655   5.352  0.0397  0.1478  0.4410
   94SAPC  H14R 9149   3.975   1.741   5.418 -1.4700 -1.5479  3.1923
   94SAPC  C215 9150   3.991   1.669   5.220 -0.4263  0.4953  0.5448
   94SAPC  H15R 9151   3.991   1.772   5.180 -0.6713  0.6432  0.9177
   94SAPC  C216 9152   3.991   1.555   5.118 -0.4359 -0.0396 -0.8718
   94SAPC  H16R 9153   3.955   1.460   5.164 -2.2695  0.0921 -1.9495
   94SAPC  H16S 9154   4.096   1.534   5.087 -0.0539  2.6982 -1.6511
   94SAPC  C217 9155   3.910   1.589   4.997 -0.4470 -0.3224 -0.0495
   94SAPC  H17R 9156   3.949   1.673   4.936 -0.6115 -0.8698 -0.9269
   94SAPC  H17S 9157   3.806   1.611   5.029 -0.4488 -0.2076 -0.1339
   94SAPC  C218 9158   3.899   1.471   4.900 -0.1928  0.4707 -0.1609
   94SAPC  H18R 9159   4.005   1.441   4.885  1.0251  4.0390  0.2351
   94SAPC  H18S 9160   3.854   1.507   4.805 -2.0494  1.2945  0.9588
   94SAPC  C219 9161   3.825   1.350   4.962  0.4835 -0.9685 -0.3364
   94SAPC  H19R 9162   3.887   1.305   5.042  1.5589  1.3938  0.2286
   94SAPC  H19S 9163   3.811   1.276   4.880  1.1383 -3.8093  1.9288
   94SAPC  C220 9164   3.687   1.390   5.013  0.1212  0.1394 -0.0353
   94SAPC  H20R 9165   3.626   1.304   5.049 -1.6879 -0.2641 -3.6118
   94SAPC  H20S 9166   3.630   1.428   4.925  1.3573  1.2146 -0.3888
   94SAPC  H20T 9167   3.674   1.469   5.090  1.1269  0.9526 -0.6805
   94SAPC   C33 9168   3.810   1.946   6.253 -0.0028  0.0097 -0.1224
   94SAPC   H3X 9169   3.903   2.002   6.278  0.7934 -1.0700 -0.5435
   94SAPC   H3Y 9170   3.725   2.016   6.262 -1.3548 -1.7514  1.5839
   94SAPC   C34 9171   3.821   1.867   6.117 -0.6931 -0.6682  0.6050
   94SAPC   H4X 9172   3.722   1.823   6.092  0.1434 -3.0427  1.2557
   94SAPC   H4Y 9173   3.880   1.779   6.149 -1.9090 -1.3856  0.9561
   94SAPC   C35 9174   3.898   1.931   6.008 -0.3632 -0.3368 -0.3165
   94SAPC   H5X 9175   4.001   1.951   6.045 -0.7238  1.0073  0.0338
   94SAPC   H5Y 9176   3.852   2.026   5.972  0.5883 -0.5586 -2.2081
   94SAPC   C36 9177   3.915   1.858   5.877  1.1257 -0.0669  0.0951
   94SAPC   H6X 9178   3.810   1.840   5.846  0.8326  3.2056 -1.2975
   94SAPC   H6Y 9179   3.966   1.760   5.886  0.0288 -0.5914  0.7918
   94SAPC   C37 9180   3.996   1.944   5.773 -0.3940  0.0988  0.4309
   94SAPC   H7X 9181   4.051   1.880   5.700  2.0155  1.1755  1.1917
   94SAPC   H7Y 9182   4.081   1.985   5.831 -0.1494 -0.3946  0.4318
   94SAPC   C38 9183   3.923   2.066   5.711  0.3209  0.0299  0.4776
   94SAPC   H8X 9184   4.008   2.120   5.662  1.0265 -1.1248  0.4028
   94SAPC   H8Y 9185   3.874   2.128   5.789 -1.5322  0.1438 -0.7303
   94SAPC   C39 9186   3.816   2.019   5.609  0.0744  0.6751  0.2086
   94SAPC   H9X 9187   3.750   1.950   5.666  0.8981  1.3366  2.0591
   94SAPC   H9Y 9188   3.872   1.953   5.539 -0.1053 -0.0020  0.6882
   94SAPC  C310 9189   3.750   2.134   5.536  0.8230  0.0945  0.6230
   94SAPC  H10X 9190   3.700   2.200   5.610 -0.0704 -1.3179  1.3149
   94SAPC  H10Y 9191   3.665   2.095   5.477  2.0195 -1.0360 -0.4084
   94SAPC  C311 9192   3.850   2.220   5.450 -0.7088  0.0675  0.1343
   94SAPC  H11X 9193   3.922   2.272   5.517 -0.7982  1.1940 -0.6083
   94SAPC  H11Y 9194   3.794   2.305   5.403  0.3008  0.5321 -0.2650
   94SAPC  C312 9195   3.936   2.154   5.346  0.1890 -0.1179  0.0175
   94SAPC  H12X 9196   3.999   2.093   5.414 -0.6770  1.5588  2.4772
   94SAPC  H12Y 9197   4.006   2.224   5.295 -0.1260  0.4427  0.3416
   94SAPC  C313 9198   3.854   2.073   5.249  0.0987 -0.6421  1.0047
   94SAPC  H13X 9199   3.802   1.991   5.303 -0.4639 -0.9553  0.0089
   94SAPC  H13Y 9200   3.921   2.009   5.189  1.1308  0.1376  1.3034
   94SAPC  C314 9201   3.753   2.155   5.166 -0.3016 -0.5094  0.1041
   94SAPC  H14X 9202   3.675   2.188   5.238  1.8993  1.6117  1.6555
   94SAPC  H14Y 9203   3.702   2.082   5.100 -1.0776  0.3702 -0.2852
   94SAPC  C315 9204   3.815   2.278   5.090 -0.6107  0.1007  0.2576
   94SAPC  H15X 9205   3.874   2.227   5.011 -2.4012 -1.6434 -0.0427
   94SAPC  H15Y 9206   3.882   2.346   5.147  1.4933 -0.4448 -1.4291
   94SAPC  C316 9207   3.712   2.367   5.024 -0.1497  0.6281  1.0620
   94SAPC  H16X 9208   3.646   2.407   5.104  1.5948  1.7430  1.9971
   94SAPC  H16Y 9209   3.660   2.298   4.954 -1.0529 -1.0477  3.2445
   94SAPC  C317 9210   3.772   2.495   4.960  0.4907 -0.2446 -0.2921
   94SAPC  H17X 9211   3.805   2.563   5.041 -1.2053  0.7052 -0.3472
   94SAPC  H17Y 9212   3.699   2.558   4.904  0.9459  0.9704  0.4532
   94SAPC  C318 9213   3.871   2.471   4.842  0.4811 -0.1207 -0.2618
   94SAPC  H18X 9214   3.823   2.410   4.763 -0.8716 -0.1242  0.5337
   94SAPC  H18Y 9215   3.961   2.422   4.884 -0.5406 -0.2848  1.8489
   94SAPC  H18Z 9216   3.912   2.568   4.805 -0.5085  1.2563  2.0465
   95SAPC     N 9217   2.146   3.880   1.854  0.0801  0.4439  0.4859
   95SAPC   C12 9218   2.155   3.948   1.989  0.9272 -0.2402  1.3045
   95SAPC  H12A 9219   2.229   4.027   1.982 -1.8688  2.4589 -0.3800
   95SAPC  H12B 9220   2.187   3.881   2.066 -0.0011 -0.4779  1.4992
   95SAPC   C13 9221   2.101   3.970   1.732  0.1765 -0.2053 -1.1000
   95SAPC  H13A 9222   2.151   4.065   1.741 -0.6367  0.2280 -1.0239
   95SAPC  H13B 9223   2.127   3.930   1.635  0.2265  0.8185 -1.5160
   95SAPC  H13C 9224   1.994   3.984   1.728 -0.0160 -1.3015 -0.3605
   95SAPC   C14 9225   2.283   3.824   1.819 -0.6240  0.1509 -0.4603
   95SAPC  H14A 9226   2.356   3.904   1.815 -2.8506  2.2732 -1.2192
   95SAPC  H14B 9227   2.308   3.744   1.888 -0.4752 -1.5278 -2.3806
   95SAPC  H14C 9228   2.277   3.776   1.723 -0.2499  1.9912 -1.4380
   95SAPC   C15 9229   2.049   3.766   1.872  0.2656  0.1479 -0.0049
   95SAPC  H15A 9230   2.027   3.716   1.778  1.4550  0.2223 -0.3354
   95SAPC  H15B 9231   2.082   3.696   1.946 -0.5007  3.0442  3.3465
   95SAPC  H15C 9232   1.951   3.801   1.903  0.6504  2.3065 -1.0364
   95SAPC   C11 9233   2.027   4.020   2.035  0.9025 -0.3836  0.6047
   95SAPC  H11A 9234   2.000   4.091   1.954 -0.4303 -4.2961 -2.6821
   95SAPC  H11B 9235   2.063   4.079   2.123 -0.3938  1.3952  0.0006
   95SAPC     P 9236   1.864   3.895   2.210  0.5634 -0.3506 -0.4237
   95SAPC   O13 9237   1.728   3.842   2.189 -0.1870 -0.6263 -0.4230
   95SAPC   O14 9238   1.970   3.819   2.277 -0.3635 -0.1465  0.3508
   95SAPC   O12 9239   1.923   3.933   2.068 -0.0350  0.1861  0.2700
   95SAPC   O11 9240   1.851   4.043   2.271 -0.6287  0.2321 -0.5017
   95SAPC    C1 9241   1.939   4.106   2.362 -0.1426 -0.2029 -0.6261
   95SAPC    HA 9242   2.035   4.052   2.369 -0.9613 -1.4699  2.8117
   95SAPC    HB 9243   1.956   4.214   2.339 -1.9373  0.3667  0.4789
   95SAPC    C2 9244   1.878   4.119   2.505 -0.0431 -0.3638  0.1230
   95SAPC    HS 9245   1.950   4.168   2.574  0.0972  0.2488 -0.4487
   95SAPC   O21 9246   1.840   3.994   2.555  0.2861 -0.3816 -1.4135
   95SAPC   C21 9247   1.946   3.913   2.584  1.8296 -0.3352 -0.9294
   95SAPC   O22 9248   2.061   3.943   2.567  0.8077 -0.7367  0.2468
   95SAPC   C22 9249   1.901   3.792   2.655  0.1170  1.2318  0.2682
   95SAPC   H2R 9250   1.850   3.723   2.585  2.5500 -0.1743 -0.2177
   95SAPC   H2S 9251   1.994   3.740   2.687 -0.2832  1.4236  1.8261
   95SAPC    C3 9252   1.760   4.213   2.499  0.3244 -0.2968  0.7492
   95SAPC    HX 9253   1.693   4.161   2.427 -0.3567 -1.5142  2.1967
   95SAPC    HY 9254   1.788   4.310   2.453  0.1025 -0.5117  0.1479
   95SAPC   O31 9255   1.690   4.221   2.628 -0.3897  0.0507  0.0470
   95SAPC   C31 9256   1.737   4.313   2.702 -0.7401 -0.0103  0.1945
   95SAPC   O32 9257   1.817   4.396   2.669  0.3491 -0.5626 -0.7597
   95SAPC   C32 9258   1.685   4.306   2.844 -0.2838 -0.1590  0.2837
   95SAPC   H2X 9259   1.695   4.201   2.879 -2.1596 -0.6882 -0.6556
   95SAPC   H2Y 9260   1.575   4.316   2.840 -0.2970 -0.4241 -0.1096
   95SAPC   C23 9261   1.815   3.813   2.782  0.2481 -0.2277  0.6224
   95SAPC   H3R 9262   1.742   3.729   2.785 -2.0692  1.3043 -3.7700
   95SAPC   H3S 9263   1.748   3.900   2.766 -2.4540 -1.7762  2.5764
   95SAPC   C24 9264   1.895   3.819   2.910 -0.2640  0.0290  0.4455
   95SAPC   H4R 9265   1.966   3.734   2.912 -0.7554 -0.3843  0.3246
   95SAPC   H4S 9266   1.822   3.805   2.992 -0.0131  0.6590  0.7853
   95SAPC   C25 9267   1.961   3.960   2.933  0.1359 -0.7592  0.4574
   95SAPC   H5R 9268   2.017   3.998   2.847 -0.5600 -0.4873  0.1132
   95SAPC   C26 9269   1.965   4.024   3.052 -0.0102 -0.5110  0.3518
   95SAPC   H6R 9270   2.028   4.114   3.047 -0.7769 -0.0130 -0.5052
   95SAPC   C27 9271   1.908   3.975   3.182  0.8539 -0.3956  0.1599
   95SAPC   H7R 9272   1.964   3.893   3.232 -0.7146  0.2643  3.2194
   95SAPC   H7S 9273   1.809   3.925   3.174  0.4719  0.4593 -0.6605
   95SAPC   C28 9274   1.893   4.092   3.279  0.0381  0.0116  0.2963
   95SAPC   H8R 9275   1.821   4.166   3.241 -0.4484 -1.0573 -0.9127
   95SAPC   C29 9276   1.971   4.124   3.384 -0.5265  0.3493  0.7296
   95SAPC   H9R 9277   1.953   4.215   3.444  0.4529  0.6956  0.5048
   95SAPC  C210 9278   2.087   4.044   3.436  0.7196  0.3991  0.0829
   95SAPC  H10R 9279   2.074   3.935   3.420  0.4376 -0.1231  3.1942
   95SAPC  H10S 9280   2.078   4.060   3.546 -1.3742  2.0997 -0.2838
   95SAPC  C211 9281   2.218   4.086   3.369 -0.2008 -0.0891 -0.1478
   95SAPC  H11R 9282   2.197   4.133   3.272 -1.7227  0.5156  0.4418
   95SAPC  C212 9283   2.339   4.065   3.429  0.2703 -0.0659  0.4559
   95SAPC  H12R 9284   2.429   4.086   3.370  0.2138 -0.2165  0.3155
   95SAPC  C213 9285   2.363   3.999   3.561  1.0543  0.6556 -0.3758
   95SAPC  H13R 9286   2.272   3.993   3.625  0.9149 -1.6139 -0.6999
   95SAPC  H13S 9287   2.436   4.056   3.622 -2.0872  4.1780  0.4667
   95SAPC  C214 9288   2.400   3.856   3.545 -0.3486  0.6223  0.1781
   95SAPC  H14R 9289   2.349   3.806   3.461 -0.1688  2.3372 -0.9891
   95SAPC  C215 9290   2.470   3.776   3.627 -0.8461 -1.4110 -0.4039
   95SAPC  H15R 9291   2.485   3.671   3.599  1.8779 -0.2764 -3.9200
   95SAPC  C216 9292   2.539   3.820   3.758  0.0504 -0.3328 -0.0329
   95SAPC  H16R 9293   2.543   3.931   3.755 -1.5015 -0.2366  0.3094
   95SAPC  H16S 9294   2.642   3.779   3.752 -0.0401 -0.4406 -1.2353
   95SAPC  C217 9295   2.485   3.767   3.888  0.2221  0.5895  0.4289
   95SAPC  H17R 9296   2.504   3.658   3.894  1.7643  0.7913 -0.2918
   95SAPC  H17S 9297   2.375   3.784   3.894  0.1121  0.1920 -0.3308
   95SAPC  C218 9298   2.543   3.827   4.014 -0.0466 -0.6049 -0.0944
   95SAPC  H18R 9299   2.512   3.932   3.997 -1.6755 -1.1437 -0.6919
   95SAPC  H18S 9300   2.653   3.825   3.997 -0.1190  2.4448 -1.5403
   95SAPC  C219 9301   2.493   3.757   4.143 -0.3737  0.1040  0.7015
   95SAPC  H19R 9302   2.385   3.735   4.129 -0.1062 -0.4240 -0.7171
   95SAPC  H19S 9303   2.497   3.835   4.222 -0.0103  2.0019 -1.0934
   95SAPC  C220 9304   2.560   3.624   4.175 -0.2145 -0.0107  0.3923
   95SAPC  H20R 9305   2.533   3.540   4.108  0.4575  0.4281 -0.4436
   95SAPC  H20S 9306   2.552   3.595   4.282 -3.5597 -0.1223  0.2099
   95SAPC  H20T 9307   2.667   3.637   4.150 -0.3401 -1.7881 -1.2971
   95SAPC   C33 9308   1.744   4.402   2.951  0.1151 -0.7951  0.1819
   95SAPC   H3X 9309   1.732   4.506   2.913  1.4821 -0.7132 -0.0981
   95SAPC   H3Y 9310   1.853   4.383   2.961  1.1657  2.7952 -2.2180
   95SAPC   C34 9311   1.685   4.379   3.094 -0.7834  0.7932  0.5124
   95SAPC   H4X 9312   1.694   4.269   3.105  0.3674  0.6399 -1.4937
   95SAPC   H4Y 9313   1.575   4.397   3.090 -1.5902 -3.3378 -1.1425
   95SAPC   C35 9314   1.745   4.475   3.194  0.2492  0.4574 -0.2393
   95SAPC   H5X 9315   1.717   4.577   3.159  0.1588  0.9450  1.2029
   95SAPC   H5Y 9316   1.856   4.473   3.205  0.1172  1.2731  1.5937
   95SAPC   C36 9317   1.673   4.452   3.335 -0.1689  0.7464 -0.0106
   95SAPC   H6X 9318   1.704   4.346   3.354  0.2834  0.4420 -2.2028
   95SAPC   H6Y 9319   1.564   4.465   3.322 -0.7230 -1.6392  1.4459
   95SAPC   C37 9320   1.741   4.541   3.436 -0.8058 -0.2045 -0.3397
   95SAPC   H7X 9321   1.715   4.647   3.415 -2.2653 -0.1424  1.4954
   95SAPC   H7Y 9322   1.852   4.538   3.429 -0.8123 -0.6762 -0.2964
   95SAPC   C38 9323   1.705   4.513   3.583 -0.3686  0.5818  0.2002
   95SAPC   H8X 9324   1.600   4.478   3.591  0.1223 -1.9385 -2.5870
   95SAPC   H8Y 9325   1.721   4.603   3.647  4.9616  1.2239 -1.5111
   95SAPC   C39 9326   1.803   4.405   3.642 -0.4827 -0.2491 -0.9000
   95SAPC   H9X 9327   1.898   4.457   3.667 -1.3097  1.5047 -1.2741
   95SAPC   H9Y 9328   1.823   4.318   3.576  1.7251  0.6559 -1.5136
   95SAPC  C310 9329   1.749   4.341   3.767  0.1483 -0.3304 -0.2048
   95SAPC  H10X 9330   1.638   4.334   3.768  0.0179  0.7925  2.5873
   95SAPC  H10Y 9331   1.773   4.414   3.848  1.7115  2.1930 -2.7467
   95SAPC  C311 9332   1.818   4.211   3.796  0.5081  0.6109 -0.7070
   95SAPC  H11X 9333   1.790   4.129   3.726  1.2510 -0.1687 -0.1155
   95SAPC  H11Y 9334   1.783   4.179   3.896  0.0573  1.2913 -0.6375
   95SAPC  C312 9335   1.966   4.228   3.792 -0.0407  0.6941 -0.4673
   95SAPC  H12X 9336   1.997   4.321   3.844  1.2578  0.6334 -1.0713
   95SAPC  H12Y 9337   2.008   4.245   3.690  0.7294  2.6652  0.1317
   95SAPC  C313 9338   2.049   4.117   3.854 -0.0778  0.2961  0.5629
   95SAPC  H13X 9339   2.143   4.108   3.796 -0.0572 -0.6668  0.7368
   95SAPC  H13Y 9340   1.986   4.025   3.849 -1.1730  1.0508  0.0170
   95SAPC  C314 9341   2.087   4.146   4.000  0.2574  0.2423  0.1668
   95SAPC  H14X 9342   1.985   4.146   4.044 -0.5004 -0.0552 -1.4796
   95SAPC  H14Y 9343   2.145   4.240   4.008  1.9194 -0.7639  0.4966
   95SAPC  C315 9344   2.182   4.039   4.053  0.0311 -0.1662  0.4901
   95SAPC  H15X 9345   2.272   4.044   3.989 -0.5933 -0.0806 -0.4024
   95SAPC  H15Y 9346   2.133   3.940   4.044  1.1537 -0.5941 -1.4606
   95SAPC  C316 9347   2.217   4.068   4.203 -0.3660  0.4806 -0.2783
   95SAPC  H16X 9348   2.269   4.165   4.193 -1.3347  1.0315 -0.1609
   95SAPC  H16Y 9349   2.279   3.983   4.241  0.2854  0.0344 -2.2316
   95SAPC  C317 9350   2.095   4.091   4.291 -0.1331  0.5746 -0.3337
   95SAPC  H17X 9351   2.033   4.001   4.271  0.1432  0.6757 -1.7376
   95SAPC  H17Y 9352   2.034   4.176   4.251 -0.6491  0.1010 -0.5697
   95SAPC  C318 9353   2.124   4.108   4.438  0.5276  0.3292  0.2898
   95SAPC  H18X 9354   2.162   4.012   4.477  0.1482  0.4171  0.8935
   95SAPC  H18Y 9355   2.029   4.144   4.484 -0.2741 -0.4265 -0.6995
   95SAPC  H18Z 9356   2.202   4.186   4.452 -0.2817  1.0709  0.7788
   96SAPC     N 9357   3.161   0.999   2.455 -0.4007 -0.3811  0.2857
   96SAPC   C12 9358   3.260   0.997   2.573 -0.8617 -0.3587 -0.5403
   96SAPC  H12A 9359   3.261   1.098   2.611 -0.3880 -0.4002 -0.4309
   96SAPC  H12B 9360   3.358   0.976   2.534 -2.3278 -2.9408 -3.1694
   96SAPC   C13 9361   3.121   0.870   2.394 -0.4160 -0.4026  0.2601
   96SAPC  H13A 9362   3.071   0.810   2.469 -2.9386  2.6329  1.2042
   96SAPC  H13B 9363   3.051   0.877   2.312  0.1031 -0.7207 -0.2103
   96SAPC  H13C 9364   3.206   0.811   2.363  0.5242  0.4032  1.2033
   96SAPC   C14 9365   3.043   1.066   2.512  0.7542 -1.1100 -0.0601
   96SAPC  H14A 9366   3.067   1.169   2.534  1.5718 -0.7200 -2.4801
   96SAPC  H14B 9367   2.959   1.069   2.443  1.1962  1.3601 -0.5712
   96SAPC  H14C 9368   3.007   1.014   2.600 -2.9549 -1.5320 -1.6445
   96SAPC   C15 9369   3.210   1.093   2.352  0.9028  0.7039 -0.0131
   96SAPC  H15A 9370   3.284   1.048   2.287 -0.0235 -1.5243  0.3821
   96SAPC  H15B 9371   3.129   1.122   2.286 -1.9409 -1.0820  2.4486
   96SAPC  H15C 9372   3.246   1.188   2.388 -2.8790  2.1496  0.4140
   96SAPC   C11 9373   3.238   0.887   2.682 -0.1918 -0.1813  0.8150
   96SAPC  H11A 9374   3.145   0.909   2.739  0.5489  2.4978  1.1659
   96SAPC  H11B 9375   3.308   0.900   2.767  0.4764  3.8508 -0.1313
   96SAPC     P 9376   3.377   0.704   2.570 -0.2853 -0.0762 -0.3078
   96SAPC   O13 9377   3.347   0.585   2.488  0.0674  0.7430 -0.8624
   96SAPC   O14 9378   3.454   0.813   2.510  0.3160  0.1560  0.3824
   96SAPC   O12 9379   3.235   0.756   2.626  0.1966  0.6845  0.5239
   96SAPC   O11 9380   3.463   0.667   2.696 -0.2361  0.6654  0.2387
   96SAPC    C1 9381   3.400   0.623   2.815 -0.8709  0.4985  0.5581
   96SAPC    HA 9382   3.481   0.646   2.888  1.1548 -0.5651 -1.2168
   96SAPC    HB 9383   3.311   0.683   2.841 -2.3158 -1.5329  0.5639
   96SAPC    C2 9384   3.388   0.467   2.821  0.1576  0.1218 -0.3313
   96SAPC    HS 9385   3.443   0.421   2.736  0.1261 -0.7581  0.1238
   96SAPC   O21 9386   3.252   0.425   2.799 -0.2264 -0.3805 -0.1330
   96SAPC   C21 9387   3.230   0.297   2.762  0.1256 -0.4620 -0.0331
   96SAPC   O22 9388   3.318   0.215   2.737 -0.0379  0.4290  0.2565
   96SAPC   C22 9389   3.081   0.275   2.725 -0.4267 -0.2098 -0.0973
   96SAPC   H2R 9390   3.021   0.343   2.789  1.8310  1.5031  0.3133
   96SAPC   H2S 9391   3.073   0.288   2.615 -0.7032 -1.5863 -0.2613
   96SAPC    C3 9392   3.441   0.424   2.956 -0.0385  0.7177 -0.1901
   96SAPC    HX 9393   3.542   0.459   2.987  0.8730 -2.9362  1.5795
   96SAPC    HY 9394   3.443   0.313   2.948 -1.6588  0.6521 -0.0461
   96SAPC   O31 9395   3.350   0.460   3.063 -0.1960  0.3772  0.0409
   96SAPC   C31 9396   3.389   0.413   3.182 -0.2161  0.0470  0.0519
   96SAPC   O32 9397   3.500   0.363   3.203 -0.0749 -0.5704  0.0635
   96SAPC   C32 9398   3.286   0.416   3.290 -0.1978  0.1896 -0.4745
   96SAPC   H2X 9399   3.203   0.346   3.263 -0.0425 -0.9994  1.9087
   96SAPC   H2Y 9400   3.256   0.523   3.294  0.4521  0.3705 -0.4412
   96SAPC   C23 9401   3.034   0.138   2.774 -0.4587  0.1774  0.6277
   96SAPC   H3R 9402   3.107   0.061   2.741 -0.7174  0.4084 -0.5328
   96SAPC   H3S 9403   2.938   0.113   2.724  0.0670 -0.1620 -0.2493
   96SAPC   C24 9404   3.004   0.144   2.928  0.0374  0.6475 -0.0549
   96SAPC   H4R 9405   3.097   0.175   2.982  0.8110 -0.1026 -0.9290
   96SAPC   H4S 9406   2.997   0.036   2.951  1.2356  0.0739 -2.1229
   96SAPC   C25 9407   2.872   0.207   2.957 -0.0602 -0.8531 -0.5860
   96SAPC   H5R 9408   2.804   0.234   2.875  1.4797  0.2368 -1.5763
   96SAPC   C26 9409   2.835   0.244   3.078  0.3032 -0.1332 -0.4116
   96SAPC   H6R 9410   2.731   0.276   3.096  0.5145 -0.3709  1.4286
   96SAPC   C27 9411   2.893   0.197   3.211 -0.0962 -0.9409  0.0086
   96SAPC   H7R 9412   2.913   0.289   3.270  1.0327 -2.4933  2.2467
   96SAPC   H7S 9413   2.990   0.144   3.199 -0.1226 -0.7512 -1.0992
   96SAPC   C28 9414   2.795   0.108   3.288 -0.3401  0.6009 -0.3249
   96SAPC   H8R 9415   2.734   0.039   3.227 -0.4568  0.0193  0.4360
   96SAPC   C29 9416   2.771   0.112   3.423 -1.1279  0.0862  0.4255
   96SAPC   H9R 9417   2.711   0.030   3.465  1.1149 -1.7053  0.3687
   96SAPC  C210 9418   2.858   0.191   3.521 -0.5161  0.0314 -0.0102
   96SAPC  H10R 9419   2.841   0.299   3.506 -0.4286  0.2474  1.2994
   96SAPC  H10S 9420   2.961   0.161   3.494 -2.0678 -2.7976 -3.5144
   96SAPC  C211 9421   2.829   0.152   3.660 -0.1229  0.1887  0.4478
   96SAPC  H11R 9422   2.797   0.048   3.672  1.9870 -0.9745 -2.6751
   96SAPC  C212 9423   2.846   0.232   3.770  0.5753  0.0040  0.0044
   96SAPC  H12R 9424   2.817   0.189   3.867 -0.0266 -0.9545 -0.5816
   96SAPC  C213 9425   2.903   0.369   3.765  0.2572  0.5441  0.1357
   96SAPC  H13R 9426   2.954   0.396   3.670 -0.7830  2.6886  0.1322
   96SAPC  H13S 9427   2.988   0.380   3.836 -1.4728  2.5941  2.0253
   96SAPC  C214 9428   2.794   0.470   3.801 -0.1986 -0.1913 -0.5166
   96SAPC  H14R 9429   2.691   0.438   3.777 -0.4286  0.4602 -0.4249
   96SAPC  C215 9430   2.817   0.596   3.842  0.4587 -0.2343 -0.0122
   96SAPC  H15R 9431   2.728   0.659   3.857  0.0908 -0.5298 -0.9139
   96SAPC  C216 9432   2.956   0.650   3.866 -0.3345 -0.2292 -0.4271
   96SAPC  H16R 9433   2.964   0.733   3.793 -0.0026  0.7836  0.7208
   96SAPC  H16S 9434   3.037   0.578   3.843 -0.5943 -0.1933 -1.5192
   96SAPC  C217 9435   2.988   0.696   4.015 -0.6429 -0.4640  1.2433
   96SAPC  H17R 9436   2.946   0.625   4.089 -0.4720 -0.4888  1.3181
   96SAPC  H17S 9437   2.940   0.793   4.038  0.3160  0.4366 -0.2931
   96SAPC  C218 9438   3.138   0.733   4.045  0.0267  0.1560  0.4327
   96SAPC  H18R 9439   3.190   0.637   4.065  1.4249  0.9949  1.0053
   96SAPC  H18S 9440   3.142   0.774   4.148 -1.1501 -2.6397  1.6949
   96SAPC  C219 9441   3.203   0.821   3.937 -0.4639  0.3467  0.0946
   96SAPC  H19R 9442   3.167   0.926   3.939 -1.6702 -0.0115  3.1065
   96SAPC  H19S 9443   3.173   0.782   3.837 -1.7042  1.7464 -0.1121
   96SAPC  C220 9444   3.353   0.822   3.965 -0.7115 -0.0515  0.0727
   96SAPC  H20R 9445   3.373   0.877   4.059 -0.3994 -1.1336  0.6614
   96SAPC  H20S 9446   3.418   0.870   3.889  1.4104 -1.6309  0.8100
   96SAPC  H20T 9447   3.381   0.715   3.957 -1.0005 -0.0288 -1.5253
   96SAPC   C33 9448   3.347   0.364   3.417 -0.0010  0.7370  0.0076
   96SAPC   H3X 9449   3.431   0.431   3.446  0.2519 -0.3840  1.9979
   96SAPC   H3Y 9450   3.390   0.262   3.414  1.0125  0.9693  2.9737
   96SAPC   C34 9451   3.251   0.374   3.540  0.5603 -0.5861 -0.2910
   96SAPC   H4X 9452   3.165   0.307   3.518  1.1530 -1.5180  0.1837
   96SAPC   H4Y 9453   3.214   0.478   3.542  0.6205 -0.5247 -1.4678
   96SAPC   C35 9454   3.311   0.331   3.674 -0.6824  0.6767 -0.3364
   96SAPC   H5X 9455   3.411   0.285   3.660 -1.0383 -0.9940  1.9821
   96SAPC   H5Y 9456   3.248   0.255   3.726 -0.3740  0.2222 -0.6226
   96SAPC   C36 9457   3.319   0.450   3.775  0.0221  0.2003  0.8336
   96SAPC   H6X 9458   3.225   0.508   3.764  0.4068  0.5059 -1.2553
   96SAPC   H6Y 9459   3.398   0.523   3.746  1.6449 -1.3285  1.2378
   96SAPC   C37 9460   3.348   0.404   3.921  0.5329 -0.0108 -0.5387
   96SAPC   H7X 9461   3.295   0.314   3.961  2.1538  0.4284  2.9744
   96SAPC   H7Y 9462   3.316   0.491   3.981 -0.3044  0.0607 -1.0663
   96SAPC   C38 9463   3.497   0.388   3.946 -0.0316  0.0922 -0.5113
   96SAPC   H8X 9464   3.565   0.465   3.902  0.4988  0.6079  1.1458
   96SAPC   H8Y 9465   3.518   0.297   3.886  0.4690  0.4250 -0.8466
   96SAPC   C39 9466   3.535   0.346   4.093 -0.2586  0.2235 -0.4726
   96SAPC   H9X 9467   3.482   0.249   4.107 -4.2466  2.0713 -1.4012
   96SAPC   H9Y 9468   3.498   0.420   4.166  0.2988 -0.8143  0.9100
   96SAPC  C310 9469   3.693   0.351   4.106 -0.0163 -0.0062  0.2170
   96SAPC  H10X 9470   3.720   0.457   4.091  0.3494 -0.2159 -0.6945
   96SAPC  H10Y 9471   3.746   0.298   4.023  1.3081 -0.4205  1.2886
   96SAPC  C311 9472   3.748   0.278   4.227  0.7356  0.1114 -0.4394
   96SAPC  H11X 9473   3.855   0.307   4.223  0.1463  2.3661 -2.9315
   96SAPC  H11Y 9474   3.733   0.172   4.196 -0.6655  0.6991 -1.9174
   96SAPC  C312 9475   3.692   0.305   4.365  0.3680 -0.0696  0.4932
   96SAPC  H12X 9476   3.583   0.285   4.369  0.1454  0.1423 -2.1508
   96SAPC  H12Y 9477   3.696   0.415   4.377 -0.6848  0.0787 -0.3577
   96SAPC  C313 9478   3.752   0.235   4.484  0.3127 -0.4144 -0.0600
   96SAPC  H13X 9479   3.859   0.258   4.503  0.9510 -2.2753 -1.0664
   96SAPC  H13Y 9480   3.746   0.126   4.465  1.7752 -0.6199  0.5208
   96SAPC  C314 9481   3.670   0.269   4.611  0.3864  0.0903  0.4272
   96SAPC  H14X 9482   3.566   0.253   4.575  1.1263  1.5336 -2.7012
   96SAPC  H14Y 9483   3.680   0.378   4.633  0.5393  0.7711 -2.6080
   96SAPC  C315 9484   3.697   0.178   4.729  0.0099 -0.3464  0.3421
   96SAPC  H15X 9485   3.676   0.072   4.704  0.5407 -0.2776 -0.4304
   96SAPC  H15Y 9486   3.629   0.205   4.813 -1.8596 -1.9539 -0.5880
   96SAPC  C316 9487   3.840   0.190   4.774 -0.5859  0.7808 -0.1871
   96SAPC  H16X 9488   3.867   0.298   4.777 -0.2798  0.6928  0.2270
   96SAPC  H16Y 9489   3.890   0.132   4.694 -0.4291  1.3529 -0.5110
   96SAPC  C317 9490   3.857   0.138   4.919 -0.4735 -0.2963  0.4136
   96SAPC  H17X 9491   3.767   0.155   4.982  0.0431  0.7794  0.8774
   96SAPC  H17Y 9492   3.935   0.191   4.976  0.2228  0.0766 -0.8430
   96SAPC  C318 9493   3.893  -0.010   4.920  0.3766 -0.2312 -0.3341
   96SAPC  H18X 9494   3.995  -0.023   4.878  0.9023 -2.0960  1.3423
   96SAPC  H18Y 9495   3.828  -0.071   4.854 -0.1813  0.1009 -0.0995
   96SAPC  H18Z 9496   3.895  -0.055   5.022 -0.2744 -0.1203 -0.2713
   97SAPC     N 9497   2.478   6.465   2.033 -0.4347  0.2674  0.1670
   97SAPC   C12 9498   2.396   6.361   2.107 -0.0924 -0.6040  0.1629
   97SAPC  H12A 9499   2.447   6.270   2.079  2.1973  0.8703 -0.7683
   97SAPC  H12B 9500   2.299   6.358   2.061 -0.0293  0.5594 -0.0932
   97SAPC   C13 9501   2.458   6.456   1.884  0.6564 -0.6223 -0.1810
   97SAPC  H13A 9502   2.462   6.351   1.857  2.2712 -0.7559  0.4654
   97SAPC  H13B 9503   2.362   6.501   1.863  0.5092  0.3068  2.1385
   97SAPC  H13C 9504   2.535   6.502   1.826 -0.0467  1.5521  0.5216
   97SAPC   C14 9505   2.444   6.603   2.072 -0.1976 -0.0415  0.4114
   97SAPC  H14A 9506   2.474   6.632   2.172 -1.3836  5.8417 -0.5338
   97SAPC  H14B 9507   2.481   6.679   2.004 -1.2764  0.1348 -0.0011
   97SAPC  H14C 9508   2.336   6.614   2.067 -0.3504 -1.7299 -0.9822
   97SAPC   C15 9509   2.629   6.442   2.061 -0.1071  1.3388 -0.0940
   97SAPC  H15A 9510   2.661   6.342   2.036  0.2625  1.3321  0.4010
   97SAPC  H15B 9511   2.681   6.523   2.012 -3.3121  1.3542 -3.9858
   97SAPC  H15C 9512   2.656   6.469   2.162  3.2361 -0.7495 -0.2628
   97SAPC   C11 9513   2.394   6.360   2.262 -0.1071 -0.0286 -0.5659
   97SAPC  H11A 9514   2.327   6.280   2.301  0.0151  0.1244 -0.0347
   97SAPC  H11B 9515   2.335   6.447   2.299 -1.3640 -1.0537 -0.0698
   97SAPC     P 9516   2.597   6.228   2.365  0.3712 -0.2072  0.1656
   97SAPC   O13 9517   2.529   6.114   2.296  0.5210  0.2248  0.2988
   97SAPC   O14 9518   2.740   6.246   2.327  0.0067  0.3674  0.1997
   97SAPC   O12 9519   2.520   6.349   2.324  0.6907 -0.5279  0.1879
   97SAPC   O11 9520   2.594   6.214   2.519  0.1838 -0.1786 -0.2943
   97SAPC    C1 9521   2.496   6.289   2.595  0.4587  0.3714 -0.3901
   97SAPC    HA 9522   2.447   6.367   2.533 -0.2778 -0.9012 -1.4734
   97SAPC    HB 9523   2.415   6.228   2.639  0.3693  1.5590  1.1476
   97SAPC    C2 9524   2.562   6.376   2.703 -0.0295  0.3438  0.3527
   97SAPC    HS 9525   2.615   6.469   2.672 -0.1232  0.2270 -0.1610
   97SAPC   O21 9526   2.651   6.287   2.780 -0.9718 -0.8499 -0.4971
   97SAPC   C21 9527   2.781   6.293   2.751  0.0510 -0.9146 -0.1304
   97SAPC   O22 9528   2.833   6.362   2.669  0.5665 -0.2006  0.3187
   97SAPC   C22 9529   2.860   6.214   2.860 -0.6529 -0.0556 -0.0605
   97SAPC   H2R 9530   2.790   6.162   2.929  0.8666  0.6659  2.1418
   97SAPC   H2S 9531   2.927   6.139   2.812 -1.0932  0.2623 -1.1937
   97SAPC    C3 9532   2.445   6.428   2.790 -0.7170 -0.9034 -0.1004
   97SAPC    HX 9533   2.398   6.342   2.843 -1.1424  0.3019  1.5779
   97SAPC    HY 9534   2.374   6.465   2.713  1.6845 -0.7077 -2.3433
   97SAPC   O31 9535   2.488   6.522   2.891 -0.1140 -0.8071  0.2227
   97SAPC   C31 9536   2.520   6.643   2.844 -0.3494  1.0475  0.2447
   97SAPC   O32 9537   2.504   6.686   2.729  0.0346 -0.0265 -0.1072
   97SAPC   C32 9538   2.598   6.719   2.948  0.0403 -0.3894  0.7511
   97SAPC   H2X 9539   2.657   6.798   2.898  1.3594 -2.6832 -1.6248
   97SAPC   H2Y 9540   2.669   6.648   2.995  0.4539 -0.6954 -0.3150
   97SAPC   C23 9541   2.945   6.313   2.952 -0.2082  0.4084  0.3056
   97SAPC   H3R 9542   3.017   6.374   2.894  0.3109 -1.4450 -1.0933
   97SAPC   H3S 9543   3.009   6.250   3.018 -0.7573  1.4615  1.9016
   97SAPC   C24 9544   2.854   6.399   3.036  1.0561 -0.7664  0.1123
   97SAPC   H4R 9545   2.786   6.330   3.090  0.1339 -0.2786 -0.3912
   97SAPC   H4S 9546   2.781   6.449   2.968 -0.4265 -1.0201  1.4537
   97SAPC   C25 9547   2.915   6.503   3.132  0.1720 -0.1946 -0.6241
   97SAPC   H5R 9548   2.988   6.566   3.078 -0.0175  0.3622 -0.2393
   97SAPC   C26 9549   2.892   6.531   3.260  0.2908 -0.0958  0.0777
   97SAPC   H6R 9550   2.948   6.612   3.308  0.2951  0.1955 -0.4112
   97SAPC   C27 9551   2.776   6.476   3.341 -0.4269  0.1066  0.1792
   97SAPC   H7R 9552   2.709   6.422   3.271 -0.6772 -1.2943  1.4558
   97SAPC   H7S 9553   2.716   6.559   3.385  2.4802  0.8490  3.1880
   97SAPC   C28 9554   2.844   6.389   3.455  0.5396  0.0196  0.5434
   97SAPC   H8R 9555   2.869   6.287   3.424  0.5046  0.4362 -0.9330
   97SAPC   C29 9556   2.830   6.412   3.587 -0.3757  1.0922 -0.2931
   97SAPC   H9R 9557   2.854   6.337   3.663 -2.2435 -0.2878 -0.9993
   97SAPC  C210 9558   2.772   6.537   3.650 -0.0016  0.1708  0.0928
   97SAPC  H10R 9559   2.662   6.539   3.632 -0.0998 -1.4336  0.3582
   97SAPC  H10S 9560   2.801   6.625   3.589  1.1318  1.6099  2.5840
   97SAPC  C211 9561   2.807   6.579   3.794  0.5767  0.0998 -0.7243
   97SAPC  H11R 9562   2.884   6.656   3.813  1.6709 -1.1358  0.0362
   97SAPC  C212 9563   2.745   6.529   3.897  0.7639  0.9919  0.0791
   97SAPC  H12R 9564   2.780   6.564   3.995  2.1602 -1.8670  0.6830
   97SAPC  C213 9565   2.629   6.426   3.896  0.1615 -0.0795 -0.6240
   97SAPC  H13R 9566   2.661   6.333   3.845  2.4408 -0.6632  1.6144
   97SAPC  H13S 9567   2.540   6.469   3.847 -0.3846 -0.0220  0.3819
   97SAPC  C214 9568   2.576   6.383   4.029  0.1905 -0.3427  0.3687
   97SAPC  H14R 9569   2.472   6.412   4.047 -0.2223  0.1061 -2.3584
   97SAPC  C215 9570   2.624   6.311   4.131 -0.7404 -0.3430 -0.0985
   97SAPC  H15R 9571   2.570   6.301   4.227  1.6643  0.0791  1.4054
   97SAPC  C216 9572   2.769   6.267   4.137 -0.2433  0.2412  0.6859
   97SAPC  H16R 9573   2.830   6.328   4.067 -0.3891  0.1591  0.4832
   97SAPC  H16S 9574   2.784   6.157   4.128 -0.1230  0.2047  1.2951
   97SAPC  C217 9575   2.816   6.311   4.277  0.1069  0.1144  0.6788
   97SAPC  H17R 9576   2.917   6.271   4.298 -0.4699 -2.4294 -0.7978
   97SAPC  H17S 9577   2.755   6.278   4.363 -1.4282  0.6426 -0.1609
   97SAPC  C218 9578   2.833   6.461   4.281 -0.4868  0.4349 -0.2244
   97SAPC  H18R 9579   2.730   6.505   4.279 -1.1835 -1.0758  0.7698
   97SAPC  H18S 9580   2.893   6.503   4.198 -0.0989  1.9104  0.7567
   97SAPC  C219 9581   2.906   6.502   4.407  0.2231  0.0989  0.1988
   97SAPC  H19R 9582   2.997   6.439   4.408 -1.1343 -2.0422 -1.6126
   97SAPC  H19S 9583   2.841   6.476   4.493 -0.7823 -3.7233 -1.4986
   97SAPC  C220 9584   2.924   6.656   4.414  0.3332  0.0797  0.6164
   97SAPC  H20R 9585   2.961   6.680   4.516 -1.1781 -0.9589  1.4582
   97SAPC  H20S 9586   2.831   6.715   4.402  1.8793  2.0958 -2.8297
   97SAPC  H20T 9587   2.995   6.690   4.336 -0.7158  0.9266  0.0206
   97SAPC   C33 9588   2.508   6.789   3.046 -0.2654 -0.0568  0.0464
   97SAPC   H3X 9589   2.416   6.823   2.995 -0.2136  0.4069  0.2632
   97SAPC   H3Y 9590   2.545   6.881   3.095 -0.6613  0.4292 -0.5482
   97SAPC   C34 9591   2.468   6.699   3.166 -0.3027 -0.4270 -0.5841
   97SAPC   H4X 9592   2.552   6.653   3.221  0.1152  1.2893  0.2703
   97SAPC   H4Y 9593   2.414   6.608   3.131  2.2576 -1.3355 -2.4497
   97SAPC   C35 9594   2.392   6.779   3.269 -0.3155 -0.2475  0.1567
   97SAPC   H5X 9595   2.293   6.807   3.228 -0.7523 -2.4131 -0.4227
   97SAPC   H5Y 9596   2.449   6.868   3.302 -0.7326 -0.6712  2.1860
   97SAPC   C36 9597   2.357   6.693   3.388  0.0269 -0.1484 -0.0877
   97SAPC   H6X 9598   2.447   6.641   3.427 -2.8330 -3.8841  2.2961
   97SAPC   H6Y 9599   2.296   6.605   3.358  1.5607 -1.1585 -0.3467
   97SAPC   C37 9600   2.276   6.765   3.502  0.5668 -0.1589 -0.1895
   97SAPC   H7X 9601   2.184   6.810   3.457  1.6502  4.1150  1.4049
   97SAPC   H7Y 9602   2.332   6.857   3.530  1.1857 -0.1167 -1.5066
   97SAPC   C38 9603   2.242   6.669   3.619 -0.0402  0.1809  0.8706
   97SAPC   H8X 9604   2.203   6.574   3.576 -0.9004 -0.8193  3.6139
   97SAPC   H8Y 9605   2.155   6.703   3.678 -0.7559 -1.1884  0.6507
   97SAPC   C39 9606   2.352   6.656   3.723 -0.1243 -0.5259 -0.3883
   97SAPC   H9X 9607   2.453   6.661   3.676  0.1111 -2.3453 -0.1666
   97SAPC   H9Y 9608   2.335   6.561   3.778  0.0954 -1.7348 -2.3031
   97SAPC  C310 9609   2.342   6.759   3.839  0.3434  0.0314  0.3158
   97SAPC  H10X 9610   2.243   6.753   3.889  0.7700  3.4381  1.7784
   97SAPC  H10Y 9611   2.335   6.862   3.798  1.5166 -0.2257 -0.5752
   97SAPC  C311 9612   2.457   6.739   3.940  0.0732 -0.1466  0.6083
   97SAPC  H11X 9613   2.547   6.756   3.879 -2.9470  0.4160 -4.2085
   97SAPC  H11Y 9614   2.439   6.641   3.991 -1.0923  0.3626  1.2219
   97SAPC  C312 9615   2.478   6.845   4.053  1.1641  0.5138 -0.5784
   97SAPC  H12X 9616   2.384   6.891   4.091  1.6640  0.0507  1.3183
   97SAPC  H12Y 9617   2.528   6.927   3.996  1.7827  0.3280 -0.3112
   97SAPC  C313 9618   2.575   6.801   4.164  0.1818  0.5516 -0.0798
   97SAPC  H13X 9619   2.638   6.887   4.194  0.8516  0.5603 -1.4479
   97SAPC  H13Y 9620   2.644   6.721   4.131  0.4464 -0.4781  2.7098
   97SAPC  C314 9621   2.509   6.733   4.285  0.2598 -0.0207  0.6533
   97SAPC  H14X 9622   2.595   6.676   4.326  1.9286  0.9261 -1.3458
   97SAPC  H14Y 9623   2.439   6.654   4.248  0.8125 -0.3846  0.3689
   97SAPC  C315 9624   2.445   6.841   4.379  0.7027 -0.1574  0.0880
   97SAPC  H15X 9625   2.374   6.905   4.322  1.3207  3.8064  3.3533
   97SAPC  H15Y 9626   2.523   6.908   4.421 -0.8047  2.7881 -1.5186
   97SAPC  C316 9627   2.363   6.782   4.496  0.1977 -0.2082 -0.0456
   97SAPC  H16X 9628   2.423   6.710   4.554  1.5075  1.2600  0.4761
   97SAPC  H16Y 9629   2.272   6.733   4.454  0.8343 -2.1147  0.7028
   97SAPC  C317 9630   2.326   6.889   4.596 -0.1842  0.5495 -0.4291
   97SAPC  H17X 9631   2.276   6.977   4.550 -2.0620 -1.0759 -1.6280
   97SAPC  H17Y 9632   2.425   6.915   4.640  0.8966 -0.6986 -1.9721
   97SAPC  C318 9633   2.245   6.830   4.710  0.3747  0.0178 -0.2591
   97SAPC  H18X 9634   2.227   6.905   4.790  0.7718  0.4052 -0.5289
   97SAPC  H18Y 9635   2.303   6.743   4.748 -1.0889 -1.6406 -1.6327
   97SAPC  H18Z 9636   2.141   6.810   4.674 -0.0869  2.5542 -0.5313
   98SAPC     N 9637   5.272   2.143   1.847  0.2055 -0.0069  0.7240
   98SAPC   C12 9638   5.228   2.007   1.895 -0.3007  0.3053  0.2748
   98SAPC  H12A 9639   5.277   1.929   1.840 -0.3776 -0.3699  1.1476
   98SAPC  H12B 9640   5.123   2.001   1.868  0.0602 -0.8899 -0.9602
   98SAPC   C13 9641   5.274   2.251   1.943  0.4692  0.1009 -0.0945
   98SAPC  H13A 9642   5.325   2.214   2.031 -0.2472  3.4396  1.8812
   98SAPC  H13B 9643   5.325   2.341   1.911  0.9417 -0.2942 -0.4664
   98SAPC  H13C 9644   5.176   2.284   1.973  0.5634  1.3669 -1.1363
   98SAPC   C14 9645   5.419   2.127   1.806  0.7376  0.3872 -0.6929
   98SAPC  H14A 9646   5.437   2.062   1.722  0.2288  1.1742 -1.4200
   98SAPC  H14B 9647   5.455   2.223   1.774 -0.4916  1.0605 -0.1203
   98SAPC  H14C 9648   5.475   2.085   1.889  1.2587  2.0714 -0.1469
   98SAPC   C15 9649   5.216   2.180   1.712  0.4115 -0.0611 -0.4558
   98SAPC  H15A 9650   5.252   2.279   1.688 -0.1668  0.5157  0.9777
   98SAPC  H15B 9651   5.253   2.123   1.628  0.3082  0.0228 -0.5594
   98SAPC  H15C 9652   5.108   2.183   1.705  0.5206  0.3505 -2.6717
   98SAPC   C11 9653   5.246   1.980   2.048  0.2752 -0.1399  0.8468
   98SAPC  H11A 9654   5.356   1.986   2.066  0.3928 -0.5455  0.2851
   98SAPC  H11B 9655   5.235   1.872   2.073 -2.2968 -0.8432 -2.6487
   98SAPC     P 9656   5.020   2.047   2.166 -0.1418  0.0766 -0.2039
   98SAPC   O13 9657   4.936   2.058   2.046 -0.2487  0.3736  0.2262
   98SAPC   O14 9658   5.015   1.913   2.233  0.2386  0.2246  0.6109
   98SAPC   O12 9659   5.174   2.071   2.130  0.1588 -0.3626 -0.0583
   98SAPC   O11 9660   4.984   2.161   2.257  0.2207  0.4713 -0.0109
   98SAPC    C1 9661   5.071   2.202   2.366 -0.2927  0.8173 -0.0512
   98SAPC    HA 9662   5.101   2.113   2.426 -2.8340  0.9632  1.5881
   98SAPC    HB 9663   5.159   2.262   2.331 -0.2900  1.4475  0.9862
   98SAPC    C2 9664   4.993   2.293   2.468 -0.9213  0.3223  0.1363
   98SAPC    HS 9665   4.966   2.384   2.409  0.5832  1.0308  0.5007
   98SAPC   O21 9666   5.082   2.318   2.582  0.2599  0.1253  0.0146
   98SAPC   C21 9667   5.068   2.439   2.643 -0.0568 -0.4894  0.4840
   98SAPC   O22 9668   5.003   2.530   2.597  0.1097  0.0370 -0.1872
   98SAPC   C22 9669   5.157   2.442   2.782 -0.3137 -0.0367 -0.0369
   98SAPC   H2R 9670   5.233   2.364   2.762 -1.9649 -1.5634 -0.6472
   98SAPC   H2S 9671   5.207   2.541   2.787 -0.2059 -0.1241  0.8403
   98SAPC    C3 9672   4.863   2.220   2.497  0.5025  1.1828  0.0586
   98SAPC    HX 9673   4.896   2.124   2.541 -1.3111  0.5635  0.1739
   98SAPC    HY 9674   4.796   2.188   2.415 -1.9754 -0.9351  2.7047
   98SAPC   O31 9675   4.781   2.297   2.596 -0.0574  0.4686 -0.1929
   98SAPC   C31 9676   4.709   2.395   2.549  0.0837  0.0994 -0.8000
   98SAPC   O32 9677   4.711   2.432   2.435  0.4887  0.1203 -0.1878
   98SAPC   C32 9678   4.625   2.449   2.655 -0.0251  0.4917  0.2652
   98SAPC   H2X 9679   4.551   2.370   2.682  1.1938 -1.3161 -1.4209
   98SAPC   H2Y 9680   4.562   2.527   2.608  0.0116  1.2315  1.4024
   98SAPC   C23 9681   5.086   2.408   2.921 -0.0670 -0.2010  0.2680
   98SAPC   H3R 9682   5.079   2.297   2.925 -1.4165 -0.0935  1.6509
   98SAPC   H3S 9683   4.984   2.451   2.927 -0.1589 -0.5737  1.6131
   98SAPC   C24 9684   5.165   2.456   3.043  0.1680 -0.1143 -0.4658
   98SAPC   H4R 9685   5.090   2.427   3.119 -0.8338  0.6668 -1.1333
   98SAPC   H4S 9686   5.179   2.566   3.046  0.1597 -0.1232 -0.0199
   98SAPC   C25 9687   5.296   2.390   3.060 -0.6439  0.4924 -0.5254
   98SAPC   H5R 9688   5.377   2.409   2.988 -1.5317 -0.1509 -1.7340
   98SAPC   C26 9689   5.312   2.277   3.144  0.6462 -0.3014 -0.3009
   98SAPC   H6R 9690   5.409   2.227   3.135 -0.8026 -3.1863 -0.9468
   98SAPC   C27 9691   5.221   2.235   3.262  0.8849 -0.2444 -0.4695
   98SAPC   H7R 9692   5.131   2.300   3.270 -0.5666 -2.4004  3.7634
   98SAPC   H7S 9693   5.272   2.252   3.360 -0.8763  0.7347  0.3194
   98SAPC   C28 9694   5.196   2.089   3.238  0.6021  0.6040  0.3060
   98SAPC   H8R 9695   5.219   2.050   3.138 -2.8564  0.5082 -0.5509
   98SAPC   C29 9696   5.128   2.014   3.326  0.3966  0.0144  0.2230
   98SAPC   H9R 9697   5.139   1.905   3.323 -3.0144 -0.4115 -0.8302
   98SAPC  C210 9698   5.072   2.056   3.463 -0.9584  0.7156  0.6418
   98SAPC  H10R 9699   4.982   1.994   3.483 -0.4312 -0.4908 -0.5478
   98SAPC  H10S 9700   5.035   2.159   3.443 -2.5473 -0.0724 -0.6945
   98SAPC  C211 9701   5.175   2.047   3.572 -0.3551 -1.1200 -0.7295
   98SAPC  H11R 9702   5.282   2.033   3.552 -0.0824 -1.0895  0.5796
   98SAPC  C212 9703   5.136   2.056   3.706  0.5874  0.0650  0.2502
   98SAPC  H12R 9704   5.212   2.048   3.785  0.0452  1.2267  0.9146
   98SAPC  C213 9705   4.997   2.071   3.766 -0.6509 -0.3627  0.2165
   98SAPC  H13R 9706   4.963   1.975   3.811 -0.7990  0.3229  1.6301
   98SAPC  H13S 9707   4.942   2.109   3.677  2.2337  1.4270 -0.9656
   98SAPC  C214 9708   4.989   2.184   3.873  0.0054 -0.3690  0.4227
   98SAPC  H14R 9709   5.054   2.270   3.850 -1.7020  0.8677 -0.0307
   98SAPC  C215 9710   4.919   2.178   3.987 -0.2198 -0.9128  0.2360
   98SAPC  H15R 9711   4.928   2.266   4.052  0.3644 -1.1574  0.4919
   98SAPC  C216 9712   4.826   2.068   4.029 -0.0327  0.2290  0.1621
   98SAPC  H16R 9713   4.800   2.010   3.938  3.1066  1.4651 -1.6866
   98SAPC  H16S 9714   4.734   2.117   4.069  0.2190 -1.5795  3.2372
   98SAPC  C217 9715   4.894   1.979   4.132 -0.3974 -0.0448  0.0814
   98SAPC  H17R 9716   4.986   1.933   4.090  1.5782  3.6054 -0.0334
   98SAPC  H17S 9717   4.822   1.899   4.158 -0.6295  0.3677  0.7082
   98SAPC  C218 9718   4.921   2.050   4.268 -0.4288 -0.3102  0.3596
   98SAPC  H18R 9719   4.993   2.133   4.254 -0.3036 -0.1595  1.7548
   98SAPC  H18S 9720   4.971   1.980   4.339 -1.6053 -1.0448  0.4963
   98SAPC  C219 9721   4.800   2.105   4.340 -0.0587 -0.4942 -0.2792
   98SAPC  H19R 9722   4.732   2.169   4.279 -2.8636 -0.7321  2.3576
   98SAPC  H19S 9723   4.837   2.192   4.399  0.9254 -1.6522  0.8654
   98SAPC  C220 9724   4.712   2.016   4.413 -0.3558 -0.1898 -0.1316
   98SAPC  H20R 9725   4.769   1.945   4.478 -0.9428  0.5689  1.2392
   98SAPC  H20S 9726   4.656   1.949   4.345 -1.4197  0.3328  0.2135
   98SAPC  H20T 9727   4.648   2.073   4.483 -0.6438  0.7871 -1.1744
   98SAPC   C33 9728   4.695   2.511   2.782  0.1422 -0.6487 -0.1834
   98SAPC   H3X 9729   4.741   2.607   2.750 -0.8238  0.0807  0.5380
   98SAPC   H3Y 9730   4.771   2.444   2.826  1.4761  1.7360  1.3712
   98SAPC   C34 9731   4.609   2.535   2.901  0.4784 -0.0665  0.1280
   98SAPC   H4X 9732   4.554   2.445   2.937 -0.4718  0.6280  0.4642
   98SAPC   H4Y 9733   4.520   2.597   2.873  0.5858  0.6797  1.3473
   98SAPC   C35 9734   4.680   2.591   3.019 -0.0529 -0.8312  0.5015
   98SAPC   H5X 9735   4.702   2.698   2.996 -0.0141 -0.2794  2.8489
   98SAPC   H5Y 9736   4.778   2.541   3.035  0.6855  0.7742  1.2869
   98SAPC   C36 9737   4.607   2.579   3.156  0.2611  0.1717  0.4510
   98SAPC   H6X 9738   4.572   2.474   3.153 -0.7966  0.5300 -1.6292
   98SAPC   H6Y 9739   4.516   2.644   3.154  1.0297  1.3781  2.1245
   98SAPC   C37 9740   4.690   2.592   3.272  0.3165 -0.4432 -0.6487
   98SAPC   H7X 9741   4.728   2.696   3.280  2.4404 -1.1014 -1.3291
   98SAPC   H7Y 9742   4.774   2.519   3.276 -0.1286 -0.9037  1.0699
   98SAPC   C38 9743   4.608   2.565   3.402 -0.0512  0.4073  0.2455
   98SAPC   H8X 9744   4.566   2.464   3.387  0.9720  0.0081 -0.0386
   98SAPC   H8Y 9745   4.519   2.631   3.395  0.1290  1.0919  3.1781
   98SAPC   C39 9746   4.671   2.583   3.544 -0.4383 -0.4110 -0.7313
   98SAPC   H9X 9747   4.700   2.690   3.558  1.1448 -0.8985 -0.0365
   98SAPC   H9Y 9748   4.765   2.523   3.544 -0.1770 -0.0474  0.8341
   98SAPC  C310 9749   4.573   2.547   3.660  0.1176 -0.0305  0.0005
   98SAPC  H10X 9750   4.527   2.446   3.650 -0.7887  0.2140  1.4043
   98SAPC  H10Y 9751   4.495   2.625   3.673 -0.5658 -1.1003  3.2329
   98SAPC  C311 9752   4.646   2.536   3.788 -0.0504  0.0845  0.0257
   98SAPC  H11X 9753   4.710   2.623   3.814 -0.7851  0.5113  0.4409
   98SAPC  H11Y 9754   4.727   2.460   3.782  2.0754  2.2441 -0.4865
   98SAPC  C312 9755   4.556   2.501   3.911 -0.5604 -1.0269  0.0224
   98SAPC  H12X 9756   4.490   2.420   3.874  2.1247 -2.3928 -2.1581
   98SAPC  H12Y 9757   4.494   2.588   3.940 -0.5778 -1.0219 -0.0293
   98SAPC  C313 9758   4.642   2.461   4.034 -0.5310  0.0295  0.3324
   98SAPC  H13X 9759   4.680   2.356   4.029 -1.0856 -0.1040 -1.9691
   98SAPC  H13Y 9760   4.576   2.457   4.124 -2.0564 -1.8750 -0.7929
   98SAPC  C314 9761   4.759   2.548   4.073 -0.5708  0.4713 -0.4352
   98SAPC  H14X 9762   4.730   2.655   4.065  4.1860  2.1194  1.2251
   98SAPC  H14Y 9763   4.846   2.530   4.008  0.3714  1.6090  0.4688
   98SAPC  C315 9764   4.795   2.533   4.219 -0.4112  0.0906 -0.5664
   98SAPC  H15X 9765   4.807   2.424   4.239 -1.7225  0.1028  0.4740
   98SAPC  H15Y 9766   4.727   2.565   4.302 -1.4940 -1.1411 -0.9514
   98SAPC  C316 9767   4.933   2.606   4.260  0.4226 -0.8561  0.2457
   98SAPC  H16X 9768   4.914   2.715   4.253  0.3956 -0.9489 -1.3698
   98SAPC  H16Y 9769   5.005   2.584   4.178  0.0951 -0.5830 -0.1173
   98SAPC  C317 9770   5.001   2.565   4.387  0.6900 -0.3201  0.4052
   98SAPC  H17X 9771   5.025   2.457   4.397 -0.4355 -0.6274 -0.0106
   98SAPC  H17Y 9772   4.926   2.592   4.465 -2.1010 -0.5793 -2.0035
   98SAPC  C318 9773   5.119   2.658   4.409 -1.0089  1.1097 -0.4810
   98SAPC  H18X 9774   5.105   2.767   4.424  1.5103  1.4104  0.1644
   98SAPC  H18Y 9775   5.198   2.648   4.331  0.2156 -0.1343  0.8530
   98SAPC  H18Z 9776   5.165   2.625   4.505 -1.5044  3.5715  0.6714
   99SAPC     N 9777   3.933   2.147   1.738  0.1329  0.5480  0.0870
   99SAPC   C12 9778   4.019   2.172   1.858 -0.5531 -0.1103  0.2893
   99SAPC  H12A 9779   4.022   2.278   1.879  0.0898 -0.1930  0.6447
   99SAPC  H12B 9780   4.122   2.147   1.837 -0.8117 -0.1152 -1.0818
   99SAPC   C13 9781   3.787   2.166   1.777  0.4013  0.8979 -0.1077
   99SAPC  H13A 9782   3.770   2.082   1.843  0.0536 -0.8209 -2.2934
   99SAPC  H13B 9783   3.768   2.259   1.828  0.6960  0.0035  1.7345
   99SAPC  H13C 9784   3.722   2.164   1.691 -0.8537 -0.6524  0.8047
   99SAPC   C14 9785   3.957   2.252   1.633  0.1659  0.5591  0.4947
   99SAPC  H14A 9786   3.891   2.236   1.549  0.3345 -0.8015  0.6009
   99SAPC  H14B 9787   3.934   2.351   1.670  0.6846  0.4105  1.2462
   99SAPC  H14C 9788   4.060   2.261   1.601  0.2587 -1.0113  0.2931
   99SAPC   C15 9789   3.947   2.013   1.672 -0.1051  0.3962 -0.5826
   99SAPC  H15A 9790   4.049   1.986   1.652  0.1652  0.4117  0.6899
   99SAPC  H15B 9791   3.919   1.931   1.737 -2.1845  1.0709 -0.5613
   99SAPC  H15C 9792   3.889   2.000   1.581  0.5171 -0.8253 -0.8340
   99SAPC   C11 9793   3.981   2.102   1.992 -0.3025 -0.0441  0.7803
   99SAPC  H11A 9794   3.876   2.129   2.013 -0.6603 -1.2331  0.6265
   99SAPC  H11B 9795   4.042   2.151   2.070  3.2394 -1.4976 -0.8506
   99SAPC     P 9796   4.131   1.882   2.004 -0.1734 -0.0059 -0.0998
   99SAPC   O13 9797   4.125   1.759   1.924  0.2310 -0.2308 -0.1316
   99SAPC   O14 9798   4.251   1.973   1.996 -0.2661 -0.0145  0.2072
   99SAPC   O12 9799   4.001   1.964   1.976 -0.1073  0.2339 -0.6806
   99SAPC   O11 9800   4.127   1.828   2.157  0.2564 -0.1909 -0.4009
   99SAPC    C1 9801   4.011   1.851   2.243 -0.4688 -0.7225  0.2289
   99SAPC    HA 9802   3.963   1.951   2.234  1.5054  0.4066  1.6408
   99SAPC    HB 9803   3.933   1.773   2.233 -1.0042 -0.3362  1.2700
   99SAPC    C2 9804   4.050   1.856   2.389  0.0295  0.3481  0.2646
   99SAPC    HS 9805   3.964   1.898   2.445  0.4387 -0.9663  1.9313
   99SAPC   O21 9806   4.159   1.936   2.408 -0.5967  0.0494 -0.6427
   99SAPC   C21 9807   4.146   2.063   2.397  0.4761 -1.2727  0.1219
   99SAPC   O22 9808   4.048   2.123   2.361  0.2864 -0.3009 -0.1212
   99SAPC   C22 9809   4.275   2.122   2.432  0.1486  0.2861  0.0434
   99SAPC   H2R 9810   4.348   2.049   2.391 -2.1450 -2.1177 -0.0337
   99SAPC   H2S 9811   4.287   2.211   2.367 -0.4409 -0.6458 -1.3930
   99SAPC    C3 9812   4.091   1.716   2.443 -0.9903  0.1082  0.4338
   99SAPC    HX 9813   4.178   1.678   2.385 -0.7850  0.8482  0.2392
   99SAPC    HY 9814   4.011   1.648   2.408  0.4844 -2.1999  1.2826
   99SAPC   O31 9815   4.110   1.714   2.590 -0.5836 -0.2556  0.0757
   99SAPC   C31 9816   4.223   1.660   2.635  0.2489 -0.5413  0.5002
   99SAPC   O32 9817   4.300   1.597   2.571 -0.3804  0.2119  0.1295
   99SAPC   C32 9818   4.227   1.678   2.789  0.2844  0.5808 -0.2678
   99SAPC   H2X 9819   4.128   1.644   2.826  0.9774 -1.0104  0.1785
   99SAPC   H2Y 9820   4.233   1.788   2.803 -0.1910  0.5338  0.3612
   99SAPC   C23 9821   4.303   2.156   2.580  0.5711 -0.3618  0.9904
   99SAPC   H3R 9822   4.216   2.221   2.604  1.7367  2.0127 -0.7733
   99SAPC   H3S 9823   4.390   2.224   2.591  1.8616 -1.3542 -2.0191
   99SAPC   C24 9824   4.313   2.035   2.679  0.1930 -0.0183 -0.1605
   99SAPC   H4R 9825   4.230   1.964   2.658  1.2493 -1.4095  0.2277
   99SAPC   H4S 9826   4.304   2.084   2.778 -0.0501  0.5857 -0.4719
   99SAPC   C25 9827   4.450   1.966   2.671  0.8221 -0.0086  0.2461
   99SAPC   H5R 9828   4.479   1.929   2.572  0.7585 -2.9922  1.2371
   99SAPC   C26 9829   4.526   1.946   2.776 -0.3601 -0.1592 -0.2558
   99SAPC   H6R 9830   4.619   1.889   2.766  1.0191  1.3618  2.7112
   99SAPC   C27 9831   4.508   1.980   2.926  0.1212  0.4923  0.1507
   99SAPC   H7R 9832   4.531   1.891   2.988 -2.8193 -1.8359 -1.8228
   99SAPC   H7S 9833   4.399   1.989   2.943  0.1671 -2.2978  2.5955
   99SAPC   C28 9834   4.580   2.100   2.972  0.4610 -0.0677  0.2276
   99SAPC   H8R 9835   4.615   2.163   2.889  0.7951  0.3017  0.6414
   99SAPC   C29 9836   4.578   2.150   3.095  0.0900  0.1348 -0.1023
   99SAPC   H9R 9837   4.637   2.241   3.111  0.9473 -0.6804  1.6385
   99SAPC  C210 9838   4.523   2.074   3.214  0.5532 -0.4268  0.8891
   99SAPC  H10R 9839   4.444   2.000   3.189 -1.2665  1.9994 -0.9165
   99SAPC  H10S 9840   4.469   2.150   3.274  1.7418  2.0939 -1.0565
   99SAPC  C211 9841   4.625   2.014   3.306  0.5492 -0.1218  0.1804
   99SAPC  H11R 9842   4.701   1.954   3.254 -0.4321 -1.9452  0.7583
   99SAPC  C212 9843   4.633   2.020   3.441  0.2533 -0.5311 -0.4884
   99SAPC  H12R 9844   4.718   1.969   3.489  0.1902 -0.9569 -0.8201
   99SAPC  C213 9845   4.530   2.081   3.538 -0.0743 -0.2138  0.1409
   99SAPC  H13R 9846   4.438   2.019   3.536 -0.4192  0.2890 -0.0432
   99SAPC  H13S 9847   4.493   2.168   3.480  3.6202 -0.4353 -2.9353
   99SAPC  C214 9848   4.566   2.123   3.680  0.1195 -0.3645  0.3616
   99SAPC  H14R 9849   4.607   2.224   3.698  0.3534 -0.2041 -0.9734
   99SAPC  C215 9850   4.527   2.060   3.791  0.3389 -0.4349  0.0959
   99SAPC  H15R 9851   4.549   2.112   3.885  1.5901 -1.0673  0.1805
   99SAPC  C216 9852   4.463   1.925   3.812 -0.2623  0.2397  0.6974
   99SAPC  H16R 9853   4.465   1.857   3.724 -1.5210  0.7066  0.2916
   99SAPC  H16S 9854   4.356   1.935   3.839 -0.8796  1.5913 -1.9078
   99SAPC  C217 9855   4.543   1.840   3.916  0.4244 -0.6811  0.0417
   99SAPC  H17R 9856   4.545   1.888   4.016 -2.2133 -2.0162  0.8245
   99SAPC  H17S 9857   4.648   1.835   3.881 -0.1193 -1.1131 -1.6027
   99SAPC  C218 9858   4.494   1.699   3.926 -0.6348 -0.0730 -0.9172
   99SAPC  H18R 9859   4.568   1.652   3.994  1.2165  0.3690 -2.5480
   99SAPC  H18S 9860   4.503   1.638   3.834  3.1790  0.7702 -1.2746
   99SAPC  C219 9861   4.347   1.700   3.982 -0.5602 -0.8476 -0.1087
   99SAPC  H19R 9862   4.301   1.604   3.950  0.3514 -0.8824 -1.3506
   99SAPC  H19S 9863   4.287   1.784   3.941  0.6386  0.6254  1.0400
   99SAPC  C220 9864   4.322   1.703   4.137 -0.1980  0.1728  0.1862
   99SAPC  H20R 9865   4.369   1.608   4.171  0.8612 -0.4114 -2.6244
   99SAPC  H20S 9866   4.213   1.686   4.147 -0.4160  0.9290 -0.8027
   99SAPC  H20T 9867   4.358   1.795   4.187 -0.0873  0.8157 -1.0445
   99SAPC   C33 9868   4.344   1.598   2.856 -0.2030 -0.2522 -0.3499
   99SAPC   H3X 9869   4.441   1.627   2.809 -0.8771  0.3700 -1.4096
   99SAPC   H3Y 9870   4.321   1.490   2.842 -1.1258  0.1319 -2.1449
   99SAPC   C34 9871   4.337   1.635   3.005 -0.4295 -0.7829 -1.0480
   99SAPC   H4X 9872   4.241   1.601   3.049 -0.6243  0.0370 -0.8283
   99SAPC   H4Y 9873   4.329   1.746   3.012 -1.9593 -0.8352 -1.5742
   99SAPC   C35 9874   4.464   1.615   3.092 -0.6740  0.0483  0.3115
   99SAPC   H5X 9875   4.548   1.650   3.028  0.6057 -0.5270  1.6043
   99SAPC   H5Y 9876   4.474   1.505   3.105  3.1365  0.2805  0.4708
   99SAPC   C36 9877   4.455   1.697   3.220 -0.2844  0.6815  0.8053
   99SAPC   H6X 9878   4.437   1.803   3.191 -0.1134 -0.0113 -2.2634
   99SAPC   H6Y 9879   4.549   1.688   3.278  1.3310 -1.2494 -1.8725
   99SAPC   C37 9880   4.354   1.649   3.320  0.0439 -0.2909 -0.8854
   99SAPC   H7X 9881   4.358   1.539   3.332  0.8335 -0.0658  1.3215
   99SAPC   H7Y 9882   4.255   1.670   3.273  0.9440 -0.0304 -2.7828
   99SAPC   C38 9883   4.370   1.715   3.460  0.3309  0.6217  0.3084
   99SAPC   H8X 9884   4.378   1.824   3.444  1.4455  0.2787 -1.8032
   99SAPC   H8Y 9885   4.467   1.681   3.502 -1.2707 -3.7476  1.0120
   99SAPC   C39 9886   4.247   1.696   3.553 -0.2345  0.6166  0.4535
   99SAPC   H9X 9887   4.156   1.736   3.505 -0.4561  0.6821  0.9242
   99SAPC   H9Y 9888   4.270   1.751   3.647 -0.6615  1.0600  0.2994
   99SAPC  C310 9889   4.216   1.550   3.580  0.7122 -0.7334 -0.0100
   99SAPC  H10X 9890   4.306   1.498   3.621  1.1459 -0.3212 -0.4287
   99SAPC  H10Y 9891   4.174   1.490   3.497  0.3316 -1.2818  0.5698
   99SAPC  C311 9892   4.106   1.538   3.693  0.5256 -0.2569 -0.5747
   99SAPC  H11X 9893   4.021   1.608   3.677  0.0451 -0.7702 -0.3400
   99SAPC  H11Y 9894   4.158   1.573   3.785 -2.4995 -1.1792  1.6629
   99SAPC  C312 9895   4.061   1.386   3.713  0.1476 -0.0822  0.0843
   99SAPC  H12X 9896   4.154   1.334   3.747  0.8672  0.1279 -1.4822
   99SAPC  H12Y 9897   4.031   1.344   3.615  0.4837  0.7531 -0.3861
   99SAPC  C313 9898   3.942   1.369   3.807 -0.1561  0.1308 -0.1202
   99SAPC  H13X 9899   3.919   1.261   3.826  0.1177  0.4957  2.7586
   99SAPC  H13Y 9900   3.858   1.425   3.761 -1.8497 -1.0013  1.4051
   99SAPC  C314 9901   3.955   1.435   3.948 -0.3037  0.1460  1.0507
   99SAPC  H14X 9902   3.852   1.433   3.988 -0.5995  0.7999  0.3629
   99SAPC  H14Y 9903   3.969   1.545   3.936 -2.4725  0.4295  0.6282
   99SAPC  C315 9904   4.057   1.371   4.044  0.1831 -0.5462 -0.2870
   99SAPC  H15X 9905   4.162   1.366   4.008  0.5067  3.3609 -0.3324
   99SAPC  H15Y 9906   4.021   1.268   4.065  0.9620 -0.6918  0.3845
   99SAPC  C316 9907   4.048   1.440   4.183  0.0967 -0.1011 -0.5267
   99SAPC  H16X 9908   3.945   1.470   4.212  0.8997 -0.2944  2.9822
   99SAPC  H16Y 9909   4.110   1.532   4.186  0.0874 -0.1147  0.4267
   99SAPC  C317 9910   4.089   1.347   4.296  0.1264  0.3982 -0.1281
   99SAPC  H17X 9911   4.198   1.328   4.282 -0.3535 -2.2055 -0.7895
   99SAPC  H17Y 9912   4.044   1.246   4.289 -0.2435  0.5788 -0.3613
   99SAPC  C318 9913   4.069   1.415   4.434  0.6377 -0.4568 -0.1430
   99SAPC  H18X 9914   3.965   1.389   4.464  0.8292 -0.4110  0.5952
   99SAPC  H18Y 9915   4.072   1.526   4.426  2.1722 -0.2473  2.2793
   99SAPC  H18Z 9916   4.141   1.370   4.505 -1.8176 -1.5596  1.8095
  100SAPC     N 9917   6.267   2.757   2.203  0.1734  0.4242 -0.1024
  100SAPC   C12 9918   6.227   2.681   2.075 -0.1478 -0.0412 -0.3484
  100SAPC  H12A 9919   6.274   2.728   1.989  1.5445  2.1522  1.6512
  100SAPC  H12B 9920   6.123   2.704   2.056 -0.4276  0.6809  1.8499
  100SAPC   C13 9921   6.189   2.701   2.312  0.2847 -1.0158  0.7753
  100SAPC  H13A 9922   6.229   2.605   2.340 -0.7349 -0.8779  2.8759
  100SAPC  H13B 9923   6.206   2.761   2.400  2.2787 -3.6829  2.3775
  100SAPC  H13C 9924   6.085   2.704   2.284  0.6516 -0.9426 -0.6699
  100SAPC   C14 9925   6.420   2.748   2.225  0.0240  0.4273  0.3194
  100SAPC  H14A 9926   6.447   2.814   2.306 -0.6020  2.1635 -0.8239
  100SAPC  H14B 9927   6.449   2.646   2.246 -1.5377 -0.1551 -0.1751
  100SAPC  H14C 9928   6.470   2.771   2.133  1.5662  1.6001  1.4138
  100SAPC   C15 9929   6.228   2.900   2.197 -0.1073  0.4671 -0.9364
  100SAPC  H15A 9930   6.268   2.950   2.110  1.1720  1.6756  0.3201
  100SAPC  H15B 9931   6.121   2.909   2.186 -0.1630  0.3587 -0.4920
  100SAPC  H15C 9932   6.244   2.958   2.286 -0.3886 -0.3885 -0.3143
  100SAPC   C11 9933   6.250   2.529   2.080 -0.0920 -0.4492  0.1966
  100SAPC  H11A 9934   6.209   2.484   1.988 -1.6599  0.8919  0.1837
  100SAPC  H11B 9935   6.189   2.485   2.162  0.9688 -0.5715  0.9456
  100SAPC     P 9936   6.433   2.399   2.214 -0.2197 -0.4351  0.3119
  100SAPC   O13 9937   6.418   2.264   2.172 -0.4226 -0.2009 -0.6154
  100SAPC   O14 9938   6.570   2.441   2.249  0.0172 -0.4814 -0.0546
  100SAPC   O12 9939   6.388   2.502   2.101  0.2632  0.0633  0.2306
  100SAPC   O11 9940   6.345   2.444   2.336 -0.6306 -0.4477 -0.6310
  100SAPC    C1 9941   6.330   2.352   2.441 -0.0621  0.0575  0.0952
  100SAPC    HA 9942   6.224   2.350   2.477  0.2794 -0.0332  1.1269
  100SAPC    HB 9943   6.361   2.249   2.413 -0.4854  0.1940 -0.8996
  100SAPC    C2 9944   6.412   2.410   2.564 -0.1537 -0.4443  0.4393
  100SAPC    HS 9945   6.518   2.403   2.533 -0.4491 -0.7072 -0.5629
  100SAPC   O21 9946   6.379   2.323   2.673  0.0569 -0.1511 -0.0341
  100SAPC   C21 9947   6.476   2.297   2.751 -0.2232 -0.5172  0.0391
  100SAPC   O22 9948   6.590   2.347   2.745 -0.0425 -0.4734  0.0937
  100SAPC   C22 9949   6.422   2.190   2.846  0.8594 -0.0606 -0.7933
  100SAPC   H2R 9950   6.330   2.235   2.888  1.1843  0.9120 -1.0927
  100SAPC   H2S 9951   6.399   2.095   2.793  0.9327 -0.8239  0.4934
  100SAPC    C3 9952   6.364   2.555   2.592  0.4803 -0.1963 -0.6233
  100SAPC    HX 9953   6.254   2.549   2.606  0.4494  1.1362 -0.1139
  100SAPC    HY 9954   6.387   2.622   2.506  2.3966  0.3776  0.2788
  100SAPC   O31 9955   6.422   2.617   2.706 -0.4698 -0.3989 -0.0835
  100SAPC   C31 9956   6.547   2.662   2.691  0.5436  0.4205  0.4567
  100SAPC   O32 9957   6.606   2.681   2.590 -0.9979  0.0015  0.4398
  100SAPC   C32 9958   6.611   2.672   2.829  0.0220  0.1736 -0.1969
  100SAPC   H2X 9959   6.711   2.623   2.818  0.4580 -0.4086  4.2366
  100SAPC   H2Y 9960   6.548   2.613   2.899 -0.9938  1.0881 -0.3211
  100SAPC   C23 9961   6.517   2.150   2.968 -1.0827 -0.2721  0.4772
  100SAPC   H3R 9962   6.612   2.101   2.935  0.6516  3.0425  0.0551
  100SAPC   H3S 9963   6.472   2.081   3.041  0.7181  0.2799  2.1993
  100SAPC   C24 9964   6.577   2.275   3.045 -0.2888  0.5543  0.4088
  100SAPC   H4R 9965   6.670   2.303   2.992 -0.5988 -0.0301 -0.4610
  100SAPC   H4S 9966   6.618   2.234   3.140  0.8264  1.0819  0.1609
  100SAPC   C25 9967   6.471   2.382   3.063 -0.0081 -0.0210 -0.9615
  100SAPC   H5R 9968   6.418   2.413   2.971 -0.5893 -0.5272 -0.8048
  100SAPC   C26 9969   6.436   2.447   3.176 -0.0838  0.0960 -0.1389
  100SAPC   H6R 9970   6.346   2.510   3.171 -0.2829 -0.1630  0.1161
  100SAPC   C27 9971   6.499   2.431   3.310  0.0637 -0.6284  0.3535
  100SAPC   H7R 9972   6.603   2.391   3.308  0.5172  0.0864  3.5198
  100SAPC   H7S 9973   6.450   2.345   3.361 -2.6060  1.1380  0.9617
  100SAPC   C28 9974   6.482   2.555   3.399 -0.2499  0.0152  0.2827
  100SAPC   H8R 9975   6.514   2.647   3.348  0.6866 -0.8899 -0.8094
  100SAPC   C29 9976   6.440   2.565   3.520  0.6330  0.0319  0.0674
  100SAPC   H9R 9977   6.445   2.669   3.557 -1.0653  1.6657 -3.7388
  100SAPC  C210 9978   6.378   2.460   3.612 -0.6285 -0.0863  0.2535
  100SAPC  H10R 9979   6.458   2.392   3.649 -1.0702 -0.5752  0.3347
  100SAPC  H10S 9980   6.329   2.383   3.548  1.6253 -0.9218 -0.5600
  100SAPC  C211 9981   6.285   2.486   3.733 -0.5614 -0.3754  0.0091
  100SAPC  H11R 9982   6.186   2.440   3.739 -0.9755  0.6311  1.4433
  100SAPC  C212 9983   6.320   2.569   3.835  0.1624  0.0651 -0.8086
  100SAPC  H12R 9984   6.249   2.584   3.918 -1.2887 -2.1517 -1.5539
  100SAPC  C213 9985   6.446   2.647   3.850 -0.1599  0.3991  0.2792
  100SAPC  H13R 9986   6.434   2.735   3.917 -2.5135  1.3504 -1.2693
  100SAPC  H13S 9987   6.478   2.697   3.756  1.9995 -0.7081  0.3605
  100SAPC  C214 9988   6.557   2.555   3.898 -0.1248  0.3815  0.0721
  100SAPC  H14R 9989   6.578   2.462   3.843 -0.8481 -0.1478  0.6689
  100SAPC  C215 9990   6.612   2.562   4.021 -0.2604  0.1971 -0.1916
  100SAPC  H15R 9991   6.701   2.500   4.035  1.1290  1.9376 -0.8492
  100SAPC  C216 9992   6.589   2.678   4.117 -0.4964 -0.0192 -0.1644
  100SAPC  H16R 9993   6.621   2.778   4.079  1.3173 -0.5836 -0.1885
  100SAPC  H16S 9994   6.663   2.664   4.198 -0.1533 -0.4552 -0.5529
  100SAPC  C217 9995   6.453   2.686   4.185 -0.6155  0.4507 -0.2757
  100SAPC  H17R 9996   6.440   2.604   4.259 -0.9743  1.9412  1.3658
  100SAPC  H17S 9997   6.376   2.677   4.105 -0.4498  0.2119 -0.4091
  100SAPC  C218 9998   6.424   2.813   4.272 -0.8390 -0.1295  0.5111
  100SAPC  H18R 9999   6.442   2.908   4.219  0.4765  0.8528  2.5779
  100SAPC  H18S10000   6.498   2.825   4.354  1.6594  0.5662 -1.7036
  100SAPC  C21910001   6.284   2.821   4.332 -0.0986 -0.5491 -0.0613
  100SAPC  H19R10002   6.212   2.849   4.252  0.7106 -0.8344 -0.9005
  100SAPC  H19S10003   6.283   2.909   4.400 -2.0907 -1.7257  1.5486
  100SAPC  C22010004   6.232   2.702   4.410 -0.5237  0.7934 -0.1206
  100SAPC  H20R10005   6.130   2.731   4.442 -1.1436 -1.2672 -0.1191
  100SAPC  H20S10006   6.285   2.696   4.507 -1.1512  0.6038  0.2163
  100SAPC  H20T10007   6.224   2.610   4.349 -2.3902  1.2449 -0.6134
  100SAPC   C3310008   6.636   2.815   2.877 -0.5143 -0.0204  0.0265
  100SAPC   H3X10009   6.544   2.876   2.886  0.3725  1.0790  2.2587
  100SAPC   H3Y10010   6.702   2.869   2.806 -0.0251 -1.6506 -0.8267
  100SAPC   C3410011   6.699   2.824   3.021  0.2527  0.5382  1.1882
  100SAPC   H4X10012   6.801   2.781   3.014  0.5896  1.5002 -0.3505
  100SAPC   H4Y10013   6.642   2.759   3.091 -2.2566 -2.3267 -3.0358
  100SAPC   C3510014   6.699   2.972   3.071 -0.6849  0.4239 -0.2137
  100SAPC   H5X10015   6.746   3.038   2.995  1.6066  0.2753  0.9705
  100SAPC   H5Y10016   6.759   2.984   3.164 -0.5657 -1.1958 -0.0598
  100SAPC   C3610017   6.562   3.032   3.123 -0.1982 -0.1548 -0.1191
  100SAPC   H6X10018   6.487   3.042   3.041  2.1410  1.8572 -2.1715
  100SAPC   H6Y10019   6.596   3.136   3.145  1.8643 -0.6641 -0.7084
  100SAPC   C3710020   6.502   2.955   3.237 -0.0943  0.1365 -0.1546
  100SAPC   H7X10021   6.574   2.916   3.312 -2.3594  0.0811  2.1455
  100SAPC   H7Y10022   6.459   2.861   3.198  3.3660 -1.2272 -0.9697
  100SAPC   C3810023   6.399   3.022   3.326  0.3585 -0.3407 -0.1898
  100SAPC   H8X10024   6.320   3.061   3.259  2.0177  1.4604 -1.1857
  100SAPC   H8Y10025   6.441   3.117   3.364  0.0279 -0.4524  0.4608
  100SAPC   C3910026   6.349   2.927   3.439  0.4803 -0.3749  0.0200
  100SAPC   H9X10027   6.439   2.907   3.502  0.0246  1.2214  1.2510
  100SAPC   H9Y10028   6.305   2.838   3.390 -0.9513  0.5611 -0.4697
  100SAPC  C31010029   6.245   3.000   3.516  0.7404  0.6130  0.3661
  100SAPC  H10X10030   6.154   3.020   3.454 -1.1011 -2.4901  1.8608
  100SAPC  H10Y10031   6.290   3.095   3.552 -1.1238  1.8617 -0.4099
  100SAPC  C31110032   6.197   2.917   3.633  0.0318  0.9414 -0.4646
  100SAPC  H11X10033   6.288   2.888   3.689  0.3636  0.1757 -1.3825
  100SAPC  H11Y10034   6.137   2.828   3.606  2.6394 -1.5047  1.2901
  100SAPC  C31210035   6.104   2.991   3.731  0.5302 -0.4201 -0.2052
  100SAPC  H12X10036   6.019   3.045   3.684  1.1315  0.9539  0.2369
  100SAPC  H12Y10037   6.163   3.077   3.770 -0.7677  0.5085 -0.2225
  100SAPC  C31310038   6.047   2.900   3.845 -0.2238 -0.2552 -0.3579
  100SAPC  H13X10039   6.136   2.852   3.892  0.8001  0.8076 -1.1575
  100SAPC  H13Y10040   5.981   2.834   3.784 -0.8673  1.3488 -1.4470
  100SAPC  C31410041   5.955   2.981   3.938 -0.1174  0.0345  0.0049
  100SAPC  H14X10042   5.876   3.036   3.882 -1.4640 -0.9639  0.8522
  100SAPC  H14Y10043   6.013   3.047   4.006 -0.8604 -0.8091  1.5192
  100SAPC  C31510044   5.862   2.894   4.025 -0.7585  0.6549  0.0287
  100SAPC  H15X10045   5.908   2.793   4.037 -1.1922  0.4269 -0.2009
  100SAPC  H15Y10046   5.776   2.867   3.961  0.0342  0.8650 -1.1459
  100SAPC  C31610047   5.810   2.939   4.164 -0.0960 -0.2921 -0.0035
  100SAPC  H16X10048   5.726   2.872   4.192 -0.5344 -0.1949 -1.0672
  100SAPC  H16Y10049   5.765   3.040   4.163 -3.1170 -1.5593 -0.6827
  100SAPC  C31710050   5.920   2.926   4.276  0.1957  0.4559  0.1439
  100SAPC  H17X10051   6.010   2.988   4.259 -0.3364  1.1542 -0.2083
  100SAPC  H17Y10052   5.944   2.817   4.273 -0.5056  0.3023 -0.0292
  100SAPC  C31810053   5.860   2.966   4.405 -0.3063 -0.6474  0.1462
  100SAPC  H18X10054   5.818   3.069   4.395  0.0654 -0.4695  0.4230
  100SAPC  H18Y10055   5.941   2.958   4.481  0.4010  0.2095 -0.4915
  100SAPC  H18Z10056   5.777   2.896   4.427 -0.0123 -1.0611 -0.0406
  101OSM      N10057   2.672   0.133   7.139  0.1147  0.8595 -0.3428
  101OSM    C1510058   2.562   0.049   7.185  0.3381 -0.5119  0.0911
  101OSM   H15A10059   2.537  -0.005   7.094  0.3205  0.2463 -0.3595
  101OSM   H15B10060   2.480   0.111   7.216 -0.0111  0.2650 -2.2193
  101OSM   H15C10061   2.580  -0.021   7.266 -1.9554 -1.6597 -0.3274
  101OSM    C1410062   2.697   0.228   7.250 -0.2416  0.2684 -0.2205
  101OSM   H14A10063   2.709   0.177   7.345  0.2018 -2.5868 -1.6998
  101OSM   H14B10064   2.629   0.311   7.264 -2.6331 -1.5181 -0.5314
  101OSM   H14C10065   2.797   0.268   7.240  0.0812 -0.4390  0.0760
  101OSM    C1310066   2.795   0.039   7.116 -0.4450  0.1177 -0.6381
  101OSM   H13A10067   2.809  -0.034   7.194 -0.2630  0.8993  0.0711
  101OSM   H13B10068   2.886   0.096   7.109 -0.7267  0.4334 -1.9627
  101OSM   H13C10069   2.781  -0.020   7.027  0.5091  0.1593 -0.8194
  101OSM    C1210070   2.636   0.204   7.013 -0.6002 -0.2238 -0.2361
  101OSM   H12A10071   2.703   0.288   7.003 -0.8211 -0.1607 -1.2847
  101OSM   H12B10072   2.542   0.257   7.006 -0.6315 -0.4915 -3.2379
  101OSM    C1110073   2.660   0.130   6.875 -0.4368 -0.0327 -0.0708
  101OSM   H11A10074   2.771   0.119   6.866 -0.5634 -0.9236 -0.6198
  101OSM   H11B10075   2.630   0.200   6.795  1.8113 -0.2971 -1.2450
  101OSM      P10076   2.442  -0.003   6.821 -0.4006 -0.1950  0.1126
  101OSM    O1310077   2.401  -0.140   6.791  0.2300 -0.3489 -0.4286
  101OSM    O1410078   2.353   0.070   6.909 -0.1479  0.3951 -0.2051
  101OSM    O1110079   2.442   0.082   6.683  0.6834  0.4066  0.1179
  101OSM    O1210080   2.591   0.008   6.873 -0.0582  0.3522 -0.1535
  101OSM    C1S10081   2.344   0.058   6.585  0.2427 -0.7743  0.2218
  101OSM    H1S10082   2.248   0.090   6.631  0.2863 -1.6684  0.9658
  101OSM    H1T10083   2.319  -0.048   6.566  0.0312 -0.7529  0.3767
  101OSM     NF10084   2.254   0.102   6.369  0.2087 -0.3017  0.2979
  101OSM    HNF10085   2.241   0.007   6.339 -0.7946  0.1073 -0.6199
  101OSM    C2S10086   2.367   0.129   6.447  0.4660  0.0766 -0.6518
  101OSM    H2S10087   2.368   0.240   6.460  0.2470  0.2020 -1.6301
  101OSM    C3S10088   2.503   0.083   6.385 -0.3532 -0.2268  0.3447
  101OSM    H3S10089   2.489  -0.021   6.347  1.6618 -1.1425  1.9164
  101OSM     O310090   2.607   0.067   6.475 -0.3225  0.0203  0.1039
  101OSM    HO310091   2.557   0.074   6.557 -2.0044 -1.0894 -0.7585
  101OSM    C4S10092   2.535   0.177   6.273 -0.7897  0.4180  0.2495
  101OSM    H4S10093   2.487   0.149   6.178  3.3602  0.6912 -2.1665
  101OSM    C5S10094   2.604   0.291   6.276 -0.4122  0.5108  0.2644
  101OSM    H5S10095   2.643   0.323   6.374 -0.6627 -1.0458  0.8927
  101OSM    C6S10096   2.616   0.385   6.164 -0.3566  0.3600  0.0977
  101OSM    H6S10097   2.723   0.394   6.134 -0.3210 -4.2066 -1.8464
  101OSM    H6T10098   2.584   0.487   6.196  0.7983  0.6481  0.3936
  101OSM    C7S10099   2.542   0.361   6.026 -0.6335  0.3718  0.3189
  101OSM    H7S10100   2.432   0.379   6.034 -0.9408 -0.0627 -2.2323
  101OSM    H7T10101   2.567   0.258   5.993  3.7112  1.5001 -0.5337
  101OSM    C8S10102   2.593   0.465   5.922  1.3248  0.1499 -0.0010
  101OSM    H8S10103   2.698   0.436   5.901  2.0675  2.4648  0.2114
  101OSM    H8T10104   2.589   0.571   5.954 -2.0012  0.3288 -0.6176
  101OSM    C9S10105   2.508   0.461   5.792 -0.0255  0.1310 -0.1195
  101OSM    H9S10106   2.505   0.560   5.742 -0.5966  0.6065  0.8330
  101OSM    H9T10107   2.405   0.425   5.812 -0.3749  1.5875  0.9295
  101OSM   C10S10108   2.577   0.361   5.706 -1.1056  0.8179  0.6005
  101OSM   H10S10109   2.588   0.259   5.748  1.2848  0.0199 -1.6724
  101OSM   H10T10110   2.683   0.387   5.685 -0.9247 -0.0420  0.3995
  101OSM   C11S10111   2.509   0.350   5.568 -0.2273  0.0507  0.1312
  101OSM   H11S10112   2.434   0.432   5.569  0.2737  0.5146  0.7376
  101OSM   H11T10113   2.452   0.255   5.574 -0.6505  0.2572 -0.5028
  101OSM   C12S10114   2.604   0.361   5.446  0.1073 -0.0298  0.2998
  101OSM   H12S10115   2.665   0.269   5.435  0.1876  0.1295 -0.7225
  101OSM   H12T10116   2.663   0.455   5.448  3.0191 -1.7154  1.3411
  101OSM   C13S10117   2.522   0.370   5.311  0.0257 -1.0863 -0.6232
  101OSM   H13S10118   2.456   0.458   5.323  1.3275  0.0505 -1.4659
  101OSM   H13T10119   2.471   0.271   5.307 -1.2727 -0.4412 -0.3406
  101OSM   C14S10120   2.611   0.397   5.184  0.0771 -0.2872 -0.0713
  101OSM   H14S10121   2.700   0.332   5.169  1.1928  1.4441 -1.2879
  101OSM   H14T10122   2.651   0.500   5.181 -1.3286  0.2901  0.3017
  101OSM   C15S10123   2.521   0.384   5.054 -0.2753 -0.1980  0.0968
  101OSM   H15S10124   2.465   0.480   5.059  1.1689  0.6363  2.5587
  101OSM   H15T10125   2.449   0.301   5.063  3.0466 -3.5594 -1.6684
  101OSM   C16S10126   2.605   0.379   4.932 -0.1367  0.0202  0.5835
  101OSM   H16S10127   2.678   0.297   4.947 -0.6972 -0.4710  0.6731
  101OSM   H16T10128   2.666   0.469   4.910 -0.1643  0.2952  1.5727
  101OSM   C17S10129   2.538   0.329   4.800  0.7076 -0.6077  0.7830
  101OSM   H17S10130   2.458   0.400   4.768 -1.4343 -2.3793  1.9039
  101OSM   H17T10131   2.505   0.227   4.830  0.1532 -0.5926  0.2510
  101OSM   C18S10132   2.636   0.313   4.677 -0.0846  0.1215  0.3914
  101OSM   H18S10133   2.584   0.247   4.605  1.4463 -0.9465  0.2078
  101OSM   H18T10134   2.728   0.259   4.710  0.5983  0.0686 -1.4960
  101OSM   H18U10135   2.672   0.412   4.641  0.8486 -0.4590 -0.3265
  101OSM    C1F10136   2.141   0.170   6.378 -0.3677  0.5901  0.6893
  101OSM     OF10137   2.129   0.270   6.449 -0.1011 -0.5211 -0.3595
  101OSM    C2F10138   2.019   0.111   6.311 -0.4189  0.1050 -0.5087
  101OSM    H2F10139   1.937   0.126   6.383  0.4406 -1.3178  0.8485
  101OSM    H2G10140   2.039   0.002   6.302 -1.1808 -0.3857  2.6177
  101OSM    C3F10141   2.014   0.168   6.176  0.0973 -0.3000  0.1694
  101OSM    H3F10142   2.108   0.137   6.125  0.0685 -0.7120  0.3596
  101OSM    H3G10143   2.004   0.278   6.185 -1.5343 -0.4680  0.7713
  101OSM    C4F10144   1.897   0.111   6.089 -0.3257  0.1593  0.4462
  101OSM    H4F10145   1.805   0.154   6.133 -0.0857  1.3743 -0.1785
  101OSM    H4G10146   1.898   0.001   6.103  1.6028  0.3033  2.0244
  101OSM    C5F10147   1.902   0.149   5.942 -0.3962 -0.6355  0.3147
  101OSM    H5F10148   1.982   0.096   5.886  0.7993 -0.4643  1.7871
  101OSM    H5G10149   1.942   0.252   5.938 -1.2602 -0.1682  2.3205
  101OSM    C6F10150   1.767   0.133   5.865  0.0238  0.4470 -0.5380
  101OSM    H6F10151   1.685   0.196   5.905  0.7182 -0.4924  2.5820
  101OSM    H6G10152   1.728   0.029   5.874  1.5232 -0.0657  0.3935
  101OSM    C7F10153   1.773   0.181   5.709  0.2272  0.1326 -0.1284
  101OSM    H7F10154   1.822   0.281   5.708  0.7582 -0.0667  1.8138
  101OSM    H7G10155   1.671   0.199   5.670  0.5957 -2.8494 -2.8181
  101OSM    C8F10156   1.838   0.088   5.609  0.6436  1.0112  0.3682
  101OSM    H8F10157   1.939   0.056   5.644 -0.1968 -2.5687 -0.0655
  101OSM    H8G10158   1.843   0.148   5.515 -0.7005  1.9663  0.8937
  101OSM    C9F10159   1.752  -0.039   5.591 -0.4326 -0.6817  0.1161
  101OSM    H9F10160   1.731  -0.092   5.685 -0.0382 -0.3443  0.3933
  101OSM   C10F10161   1.688  -0.078   5.478 -0.3573 -0.5025  0.4873
  101OSM   H10F10162   1.645  -0.179   5.473 -0.5507 -0.3632 -0.9922
  101OSM   C11F10163   1.678  -0.010   5.345  0.4912  0.3771  0.6906
  101OSM   H11F10164   1.720   0.092   5.352  1.8172 -0.1970  1.4173
  101OSM   H11G10165   1.571  -0.009   5.314  1.1075  2.8526 -1.7443
  101OSM   C12F10166   1.747  -0.074   5.229 -0.4019 -0.1040 -0.3109
  101OSM   H12F10167   1.719  -0.179   5.208 -1.5073  0.0520  0.2545
  101OSM   H12G10168   1.857  -0.072   5.245 -0.3802  2.7391 -0.2597
  101OSM   C13F10169   1.713  -0.004   5.101  0.0835 -0.0414  0.3932
  101OSM   H13F10170   1.759   0.096   5.090  1.5336 -0.7818 -0.5208
  101OSM   H13G10171   1.602  -0.008   5.099 -0.0170 -0.5644  3.0476
  101OSM   C14F10172   1.771  -0.090   4.987 -0.4487 -0.8016 -0.3401
  101OSM   H14F10173   1.724  -0.190   4.971  1.0503 -1.1536 -3.4351
  101OSM   H14G10174   1.875  -0.115   5.016  0.2071  0.7759 -1.2317
  101OSM   C15F10175   1.784  -0.006   4.855 -0.4348  0.0447 -0.8620
  101OSM   H15F10176   1.858  -0.065   4.796 -0.5886  0.9554 -1.9884
  101OSM   H15G10177   1.806   0.102   4.866 -4.5409  0.8307  1.6486
  101OSM   C16F10178   1.655  -0.004   4.769 -0.0452 -0.1824  0.7172
  101OSM   H16F10179   1.562   0.006   4.830 -0.4034 -0.5218  0.2292
  101OSM   H16G10180   1.652  -0.102   4.718  1.9774 -0.2018  0.5341
  101OSM   C17F10181   1.649   0.114   4.665  0.1225  0.5112  0.1663
  101OSM   H17F10182   1.675   0.204   4.723  1.7777 -1.1399  2.1475
  101OSM   H17G10183   1.543   0.131   4.638  0.6127  2.4578 -0.6709
  101OSM   C18F10184   1.741   0.109   4.544 -0.0435  0.5268 -0.6616
  101OSM   H18F10185   1.724   0.203   4.488 -1.4476  0.5899 -0.1753
  101OSM   H18G10186   1.725   0.009   4.497 -0.4394 -0.9403  2.3421
  101OSM   H18H10187   1.846   0.110   4.581 -0.6531  0.7132  1.1651
  102OSM      N10188   3.433   6.705   6.813 -0.4670 -0.0278  0.2818
  102OSM    C1510189   3.549   6.633   6.750 -0.1983  0.5477 -0.2811
  102OSM   H15A10190   3.641   6.683   6.780 -1.4177  3.8791 -1.5599
  102OSM   H15B10191   3.550   6.649   6.643  0.0364  2.0761 -0.0760
  102OSM   H15C10192   3.554   6.529   6.778 -2.1675  0.6036  0.4272
  102OSM    C1410193   3.441   6.665   6.953  0.3828 -0.0185  0.4333
  102OSM   H14A10194   3.521   6.717   7.004  0.4994  0.3906 -0.1582
  102OSM   H14B10195   3.446   6.558   6.952 -1.2637 -0.1193 -1.2531
  102OSM   H14C10196   3.348   6.695   7.000  0.7261  4.7888 -1.3271
  102OSM    C1310197   3.454   6.851   6.800 -0.4879 -0.2797 -0.1399
  102OSM   H13A10198   3.388   6.911   6.861 -1.4624 -0.6327 -0.8072
  102OSM   H13B10199   3.437   6.882   6.698  2.0072  2.7461  0.2008
  102OSM   H13C10200   3.550   6.892   6.828 -1.0975  0.4645  0.9528
  102OSM    C1210201   3.301   6.678   6.739 -0.2526  0.2658  0.0227
  102OSM   H12A10202   3.328   6.669   6.635  2.2155  1.7245  0.4507
  102OSM   H12B10203   3.230   6.759   6.741 -2.0841 -1.2739  1.1814
  102OSM    C1110204   3.232   6.549   6.781  0.3312  0.3859 -0.3180
  102OSM   H11A10205   3.309   6.469   6.782 -0.0987 -0.0434 -0.7299
  102OSM   H11B10206   3.153   6.511   6.713 -0.5658 -2.1195  1.9630
  102OSM      P10207   3.047   6.473   6.952  0.6823 -0.4590 -0.0102
  102OSM    O1310208   3.092   6.332   6.945 -0.5955 -0.6319 -0.0064
  102OSM    O1410209   2.992   6.516   7.079  0.4125  0.4786 -0.6308
  102OSM    O1110210   2.943   6.500   6.836 -0.3787  0.0714 -0.1028
  102OSM    O1210211   3.169   6.566   6.909 -0.0878 -0.4895  0.0558
  102OSM    C1S10212   2.898   6.631   6.788 -0.0967  0.2646  0.6754
  102OSM    H1S10213   2.967   6.711   6.820  0.2412  0.7743 -1.2173
  102OSM    H1T10214   2.803   6.659   6.839 -0.1626 -1.3876  1.5310
  102OSM     NF10215   2.873   6.776   6.586 -0.6593  0.3040  0.2453
  102OSM    HNF10216   2.787   6.800   6.542 -0.9876  0.0120  0.7155
  102OSM    C2S10217   2.882   6.637   6.634  0.2595  0.0174  0.0105
  102OSM    H2S10218   2.972   6.586   6.594  1.3570  1.6103  0.3216
  102OSM    C3S10219   2.765   6.544   6.580  0.1666 -0.1425 -0.3210
  102OSM    H3S10220   2.672   6.570   6.633  0.3417 -0.6203  0.2218
  102OSM     O310221   2.770   6.405   6.617 -0.1636 -0.7016 -0.2579
  102OSM    HO310222   2.855   6.393   6.659 -0.3227  1.0935  0.6655
  102OSM    C4S10223   2.742   6.560   6.430  0.5556 -0.5135 -0.4695
  102OSM    H4S10224   2.641   6.591   6.397 -0.6226 -3.4702  0.0776
  102OSM    C5S10225   2.823   6.535   6.331  0.3286 -0.3848  0.4675
  102OSM    H5S10226   2.930   6.514   6.351  0.2893 -0.6934  0.3619
  102OSM    C6S10227   2.781   6.558   6.187 -0.1312  0.0413 -0.5244
  102OSM    H6S10228   2.672   6.574   6.175  0.0507  0.9972 -0.9927
  102OSM    H6T10229   2.795   6.462   6.132 -0.8982 -0.9144  0.8882
  102OSM    C7S10230   2.867   6.676   6.121  0.2923  0.3629  0.5896
  102OSM    H7S10231   2.976   6.662   6.138  0.3223 -1.1504 -0.6641
  102OSM    H7T10232   2.830   6.770   6.167 -0.0849  0.5967 -0.1922
  102OSM    C8S10233   2.860   6.691   5.970  0.4736  0.1476  0.2406
  102OSM    H8S10234   2.921   6.608   5.927 -0.0629 -0.2925  0.3160
  102OSM    H8T10235   2.913   6.783   5.937  0.4793  0.8635  2.1095
  102OSM    C9S10236   2.725   6.688   5.907 -0.8281  0.7280  0.1731
  102OSM    H9S10237   2.680   6.785   5.938 -1.4973  0.4941 -0.0459
  102OSM    H9T10238   2.680   6.598   5.953  0.2608 -0.9600 -1.8761
  102OSM   C10S10239   2.723   6.662   5.756  0.8141  0.3970 -0.2185
  102OSM   H10S10240   2.623   6.629   5.721  1.0301 -0.4423 -0.0660
  102OSM   H10T10241   2.796   6.581   5.736  2.2536  0.6980  3.1298
  102OSM   C11S10242   2.767   6.779   5.662  0.2520  0.0636 -0.3754
  102OSM   H11S10243   2.874   6.801   5.685  0.2694 -3.1340  3.8763
  102OSM   H11T10244   2.707   6.866   5.694  1.5457  0.2432  1.8169
  102OSM   C12S10245   2.742   6.759   5.514  0.0099  0.2002 -0.2033
  102OSM   H12S10246   2.763   6.840   5.441 -1.8662 -0.3162 -1.4187
  102OSM   H12T10247   2.631   6.750   5.507 -0.0349  1.0540 -0.8123
  102OSM   C13S10248   2.818   6.635   5.458  0.7381 -0.4240 -0.2980
  102OSM   H13S10249   2.792   6.550   5.524 -1.7720  0.9791  0.6977
  102OSM   H13T10250   2.927   6.652   5.466  0.2037  3.2381  1.7781
  102OSM   C14S10251   2.761   6.607   5.319  0.4163 -0.1641  0.2298
  102OSM   H14S10252   2.655   6.575   5.330  0.9333 -2.1166 -0.0459
  102OSM   H14T10253   2.803   6.509   5.286  0.6969 -0.0820  0.3450
  102OSM   C15S10254   2.790   6.712   5.202  0.7230 -0.0722 -0.5493
  102OSM   H15S10255   2.732   6.805   5.221 -2.2607 -2.0238  0.5025
  102OSM   H15T10256   2.748   6.670   5.109  0.4789 -2.9475  0.7720
  102OSM   C16S10257   2.942   6.738   5.198  0.2051 -0.2584  0.2276
  102OSM   H16S10258   2.984   6.636   5.215 -0.6834 -0.4703  1.2016
  102OSM   H16T10259   2.966   6.806   5.282  1.1764  0.6032 -0.7025
  102OSM   C17S10260   2.992   6.804   5.069  0.3845  0.6505 -0.3189
  102OSM   H17S10261   2.998   6.739   4.979  0.8429  0.6936 -0.3229
  102OSM   H17T10262   3.094   6.838   5.098  1.2743 -2.0321 -0.0699
  102OSM   C18S10263   2.906   6.930   5.026 -0.1318  0.4278  0.4459
  102OSM   H18S10264   2.799   6.899   5.027  0.2841 -1.0730  1.6321
  102OSM   H18T10265   2.938   6.964   4.925  2.2990  2.1391  1.6719
  102OSM   H18U10266   2.916   7.016   5.096 -1.9825  1.8253 -0.9102
  102OSM    C1F10267   2.972   6.871   6.592 -0.5716  0.5041  0.4033
  102OSM     OF10268   3.088   6.847   6.632  0.1971  0.0291  0.1182
  102OSM    C2F10269   2.935   7.007   6.537  0.1920  0.7839 -0.1957
  102OSM    H2F10270   2.936   7.084   6.618  0.6147  0.5971 -0.0193
  102OSM    H2G10271   2.826   7.008   6.512 -0.1536 -0.7659  1.0903
  102OSM    C3F10272   3.017   7.060   6.421  0.5556  0.3067  0.1465
  102OSM    H3F10273   3.122   7.064   6.458  1.1880 -2.5930 -1.0290
  102OSM    H3G10274   2.972   7.160   6.408  0.8434  0.1370 -2.6620
  102OSM    C4F10275   3.016   6.978   6.284  0.1234  0.6075 -0.5475
  102OSM    H4F10276   2.912   6.977   6.245 -0.3189 -0.7111  0.5475
  102OSM    H4G10277   3.046   6.872   6.298  0.4691  0.6663 -0.8467
  102OSM    C5F10278   3.112   7.038   6.181  0.0894  0.3653  0.0077
  102OSM    H5F10279   3.214   7.006   6.212 -0.0907  0.6062  0.8813
  102OSM    H5G10280   3.103   7.149   6.177  2.5501  0.6410  0.4196
  102OSM    C6F10281   3.085   6.991   6.036  0.6140  0.1801 -0.4633
  102OSM    H6F10282   2.981   6.997   6.000  0.3373  2.1402  0.5552
  102OSM    H6G10283   3.098   6.881   6.033 -0.8491 -0.0084 -0.5072
  102OSM    C7F10284   3.175   7.072   5.938 -0.5118  1.0555 -0.7019
  102OSM    H7F10285   3.282   7.055   5.962 -1.2273 -0.1894  2.1116
  102OSM    H7G10286   3.149   7.180   5.941 -0.2247  1.1153 -0.0403
  102OSM    C8F10287   3.166   7.020   5.791  0.3536 -0.4683 -0.8178
  102OSM    H8F10288   3.169   6.909   5.797  0.9141 -0.4421 -0.5548
  102OSM    H8G10289   3.244   7.070   5.729 -0.3500  3.5633  1.1961
  102OSM    C9F10290   3.032   7.048   5.732  0.1548  0.6219  0.0587
  102OSM    H9F10291   2.954   7.036   5.809 -0.0047  1.1811 -0.0159
  102OSM   C10F10292   3.006   7.091   5.611 -0.3376  0.3826 -0.0463
  102OSM   H10F10293   2.899   7.096   5.583 -0.2817  0.9916 -0.1812
  102OSM   C11F10294   3.105   7.101   5.492  0.4374 -0.0255  0.5115
  102OSM   H11F10295   3.110   7.015   5.422  1.7309  1.7802 -1.7892
  102OSM   H11G10296   3.210   7.117   5.527  0.3854  0.5915  0.4080
  102OSM   C12F10297   3.078   7.224   5.407  0.2023  0.3554 -0.7938
  102OSM   H12F10298   3.078   7.316   5.470 -1.3202 -0.6255  0.7587
  102OSM   H12G10299   2.975   7.207   5.370  1.0641  0.0559 -3.1895
  102OSM   C13F10300   3.167   7.252   5.287  0.4618  0.1682 -0.0223
  102OSM   H13F10301   3.274   7.226   5.301  0.2952  0.0112  0.9809
  102OSM   H13G10302   3.157   7.361   5.268 -0.1235 -0.0163 -0.8415
  102OSM   C14F10303   3.120   7.176   5.159  0.2950  0.8902  0.0799
  102OSM   H14F10304   3.022   7.200   5.114  1.0485  0.0660 -2.1748
  102OSM   H14G10305   3.102   7.068   5.179 -3.5439  1.3202 -0.3472
  102OSM   C15F10306   3.227   7.197   5.052  0.2529  0.8374  1.1563
  102OSM   H15F10307   3.318   7.137   5.075  1.1391  1.0703 -1.4228
  102OSM   H15G10308   3.246   7.304   5.029 -0.3183  0.6103 -0.4272
  102OSM   C16F10309   3.193   7.146   4.908 -0.1806 -1.1253  0.6701
  102OSM   H16F10310   3.110   7.208   4.868 -1.9927 -2.4276  2.2845
  102OSM   H16G10311   3.149   7.046   4.926 -1.4610 -0.5598  0.7423
  102OSM   C17F10312   3.303   7.133   4.800  0.0448  0.0500  0.6865
  102OSM   H17F10313   3.382   7.063   4.836 -0.7448 -2.1428 -1.5658
  102OSM   H17G10314   3.359   7.228   4.786  0.8716 -0.6564 -1.0869
  102OSM   C18F10315   3.243   7.086   4.662 -0.1241  0.8921 -0.0717
  102OSM   H18F10316   3.156   7.020   4.680  0.3024  0.8222  1.9477
  102OSM   H18G10317   3.321   7.024   4.614  1.4742  1.0056  2.2160
  102OSM   H18H10318   3.203   7.170   4.601  0.1809  1.4641  0.5092
  103OSM      N10319   6.160   2.351   7.214  0.1271  0.0179  0.2028
  103OSM    C1510320   6.291   2.294   7.170  0.3581  0.8202 -0.1561
  103OSM   H15A10321   6.259   2.211   7.109 -1.1559  1.4937 -0.3302
  103OSM   H15B10322   6.341   2.245   7.252  0.5389  0.8153 -0.2673
  103OSM   H15C10323   6.349   2.371   7.122 -2.0495  2.1433 -1.1204
  103OSM    C1410324   6.099   2.236   7.282 -0.1779  0.5181  0.3134
  103OSM   H14A10325   5.998   2.255   7.315 -0.1298 -1.0595  1.4938
  103OSM   H14B10326   6.151   2.212   7.374  1.5080 -0.3013 -0.8060
  103OSM   H14C10327   6.099   2.153   7.213  0.6429 -0.0883  1.0251
  103OSM    C1310328   6.189   2.469   7.302 -0.2810 -0.5106  0.2241
  103OSM   H13A10329   6.259   2.540   7.260  1.2228 -1.9973  0.1201
  103OSM   H13B10330   6.250   2.444   7.387  1.7222  0.6736 -0.7806
  103OSM   H13C10331   6.104   2.519   7.345  0.3426 -0.8374  1.9131
  103OSM    C1210332   6.079   2.403   7.090 -0.2104 -0.1181  0.0518
  103OSM   H12A10333   6.133   2.489   7.055 -1.8487  1.3098  0.8794
  103OSM   H12B10334   5.976   2.420   7.117 -0.2675  2.6469 -1.5866
  103OSM    C1110335   6.060   2.302   6.970  0.6200  0.0954 -0.7357
  103OSM   H11A10336   6.159   2.276   6.927 -0.2258 -2.9271 -1.0889
  103OSM   H11B10337   6.001   2.363   6.897 -0.5706 -1.5462 -1.1978
  103OSM      P10338   5.838   2.190   7.007  0.1247  0.1765 -0.2690
  103OSM    O1310339   5.783   2.057   7.044 -0.2313  0.1402 -0.0538
  103OSM    O1410340   5.787   2.311   7.075  0.0108  0.1934 -0.0650
  103OSM    O1110341   5.831   2.194   6.844 -0.3488 -0.6159 -0.1577
  103OSM    O1210342   5.993   2.186   7.020  0.0324  0.0473 -0.2445
  103OSM    C1S10343   5.803   2.075   6.772 -0.0320 -0.6515  0.8703
  103OSM    H1S10344   5.695   2.047   6.778 -0.3865  0.4707  0.0402
  103OSM    H1T10345   5.868   1.989   6.798 -1.3940 -2.2288 -0.6785
  103OSM     NF10346   5.724   2.040   6.545 -0.9692  0.5876  0.1929
  103OSM    HNF10347   5.769   1.971   6.489 -1.3037  0.6179 -0.1203
  103OSM    C2S10348   5.814   2.121   6.619  0.0941  0.1017  0.0458
  103OSM    H2S10349   5.768   2.221   6.609 -1.1733 -0.5329 -0.6809
  103OSM    C3S10350   5.965   2.120   6.579 -0.0405  0.1810 -0.4285
  103OSM    H3S10351   5.995   2.013   6.568  0.6361  0.5247 -2.1905
  103OSM     O310352   6.055   2.163   6.678  0.3193  0.0829 -0.5082
  103OSM    HO310353   5.999   2.172   6.755 -1.0982 -2.5091 -1.1011
  103OSM    C4S10354   5.990   2.191   6.452  0.1435 -0.3578  0.2272
  103OSM    H4S10355   5.975   2.300   6.451  1.6020 -0.1140 -1.3864
  103OSM    C5S10356   6.021   2.131   6.336 -0.4462  0.3384  1.1830
  103OSM    H5S10357   6.037   2.023   6.329  1.6945  0.7158 -2.9074
  103OSM    C6S10358   6.034   2.200   6.198  0.1954  0.1685 -0.1314
  103OSM    H6S10359   5.952   2.150   6.142  0.7356 -1.8439  0.7673
  103OSM    H6T10360   6.130   2.179   6.147  1.1577  3.2358  0.2205
  103OSM    C7S10361   6.020   2.359   6.191 -0.4999 -0.0303  0.4662
  103OSM    H7S10362   6.113   2.392   6.241 -0.6917 -0.1727  0.9180
  103OSM    H7T10363   5.927   2.387   6.243  0.7933  2.0192  1.7923
  103OSM    C8S10364   6.006   2.400   6.044  0.6402  0.0088 -0.2465
  103OSM    H8S10365   5.962   2.501   6.028  1.4277  0.1567 -1.6622
  103OSM    H8T10366   5.932   2.333   5.995  0.8496  1.7546 -3.1758
  103OSM    C9S10367   6.136   2.394   5.964  0.3609  0.4075  0.5761
  103OSM    H9S10368   6.168   2.287   5.964 -1.3271 -0.1314  0.8919
  103OSM    H9T10369   6.214   2.457   6.012  1.4907  0.7094 -1.5633
  103OSM   C10S10370   6.115   2.436   5.815  0.4435  0.1350  0.1125
  103OSM   H10S10371   6.056   2.530   5.819  1.2563  0.6310  0.9487
  103OSM   H10T10372   6.064   2.347   5.773  1.6654 -1.0924  1.1309
  103OSM   C11S10373   6.247   2.459   5.731 -0.0191 -0.8114  0.0956
  103OSM   H11S10374   6.291   2.357   5.741 -1.6997 -1.5652  0.1933
  103OSM   H11T10375   6.323   2.526   5.776  1.5755 -3.1437  1.1080
  103OSM   C12S10376   6.219   2.481   5.586  0.0539  0.6458  0.0401
  103OSM   H12S10377   6.166   2.578   5.579 -1.1275  0.0662  0.5840
  103OSM   H12T10378   6.155   2.401   5.544 -0.7146  0.8486  0.7959
  103OSM   C13S10379   6.343   2.480   5.493  0.3794 -0.1267  0.2043
  103OSM   H13S10380   6.396   2.382   5.489 -0.0699 -0.3295 -2.4276
  103OSM   H13T10381   6.423   2.550   5.525  0.5444  0.2713 -1.0426
  103OSM   C14S10382   6.304   2.502   5.346  0.7503 -0.1986 -0.4457
  103OSM   H14S10383   6.249   2.598   5.329 -0.4665 -0.8808 -0.4704
  103OSM   H14T10384   6.235   2.424   5.306  1.3761 -0.2549 -1.4581
  103OSM   C15S10385   6.434   2.490   5.267 -0.5768 -0.5089 -0.0866
  103OSM   H15S10386   6.501   2.423   5.326  0.2428  0.0469 -0.3622
  103OSM   H15T10387   6.485   2.589   5.264  0.3553 -0.9905 -0.5150
  103OSM   C16S10388   6.415   2.435   5.122 -0.0730  0.1232  1.1812
  103OSM   H16S10389   6.345   2.349   5.111  0.1953 -0.1283  1.4173
  103OSM   H16T10390   6.510   2.384   5.094 -1.3023 -2.6089  1.6086
  103OSM   C17S10391   6.391   2.540   5.020 -0.2300  0.0091  0.7561
  103OSM   H17S10392   6.463   2.625   5.019  0.2556 -0.4017  0.7574
  103OSM   H17T10393   6.302   2.604   5.037 -2.4100 -2.1813 -1.6392
  103OSM   C18S10394   6.377   2.477   4.883  0.8592 -0.4436  0.4814
  103OSM   H18S10395   6.284   2.418   4.866  0.5415 -1.1547  4.0218
  103OSM   H18T10396   6.463   2.407   4.868  0.5434 -0.5688 -0.8273
  103OSM   H18U10397   6.380   2.549   4.798  0.2021 -2.7376 -1.5969
  103OSM    C1F10398   5.594   2.062   6.544 -0.9820  0.1550  0.1333
  103OSM     OF10399   5.543   2.156   6.605 -0.1633 -0.2557  0.3982
  103OSM    C2F10400   5.513   1.956   6.476  0.1920  0.4531 -0.7381
  103OSM    H2F10401   5.443   1.914   6.551  1.3714 -3.2857 -1.5443
  103OSM    H2G10402   5.581   1.873   6.447  2.5047  1.3456  1.6801
  103OSM    C3F10403   5.421   2.001   6.349 -0.2835  0.0373 -0.0697
  103OSM    H3F10404   5.488   2.026   6.263  0.1694 -1.1543 -0.0759
  103OSM    H3G10405   5.359   2.088   6.381 -1.6520 -1.3444  1.1626
  103OSM    C4F10406   5.326   1.885   6.302 -1.0474 -0.1712 -0.2766
  103OSM    H4F10407   5.273   1.845   6.392  0.7926 -1.6594  0.2206
  103OSM    H4G10408   5.376   1.804   6.245 -0.8924 -1.4401  1.5407
  103OSM    C5F10409   5.212   1.933   6.211 -0.1593 -0.7820  0.7825
  103OSM    H5F10410   5.164   2.027   6.247  0.4841  0.0699 -0.5067
  103OSM    H5G10411   5.131   1.857   6.205 -1.8272  1.0103 -1.0502
  103OSM    C6F10412   5.270   1.975   6.073 -0.3487 -0.6063  0.5171
  103OSM    H6F10413   5.320   1.885   6.031  0.4282  0.6335 -1.3558
  103OSM    H6G10414   5.346   2.049   6.106 -1.2839  0.3056  0.6746
  103OSM    C7F10415   5.170   2.028   5.978  0.4859 -0.1057 -0.3911
  103OSM    H7F10416   5.105   2.102   6.030  0.5206  0.2234 -0.8233
  103OSM    H7G10417   5.110   1.937   5.955  0.1062 -0.2974  1.1785
  103OSM    C8F10418   5.227   2.086   5.847  0.2316 -0.1343  0.0111
  103OSM    H8F10419   5.316   2.147   5.872 -0.3800 -0.1288  2.4125
  103OSM    H8G10420   5.148   2.154   5.809 -0.8380 -1.9569 -1.1913
  103OSM    C9F10421   5.266   1.977   5.753  0.1621  0.2252  0.8425
  103OSM    H9F10422   5.316   1.900   5.813  0.1332  0.1316  0.7463
  103OSM   C10F10423   5.240   1.964   5.620 -0.0405 -1.2747  0.2037
  103OSM   H10F10424   5.256   1.865   5.573 -3.8716 -0.6812 -2.8100
  103OSM   C11F10425   5.170   2.064   5.533  0.5495  0.0342 -1.0056
  103OSM   H11F10426   5.246   2.115   5.470  1.2111 -0.1918 -0.4063
  103OSM   H11G10427   5.106   2.139   5.585 -1.7770 -1.3671 -1.6738
  103OSM   C12F10428   5.075   1.997   5.419  0.2708  0.1301  0.5813
  103OSM   H12F10429   4.986   2.060   5.398  1.5140  2.5258  1.9442
  103OSM   H12G10430   5.030   1.906   5.462  2.1119 -0.7618  0.7121
  103OSM   C13F10431   5.154   1.945   5.290  0.3290 -0.4645  0.3650
  103OSM   H13F10432   5.226   1.872   5.332  0.9022  0.4638  1.0168
  103OSM   H13G10433   5.201   2.032   5.241 -0.3672 -0.6675 -0.6922
  103OSM   C14F10434   5.061   1.874   5.191  0.6714 -0.0521 -0.2429
  103OSM   H14F10435   5.019   1.951   5.123  0.3758  0.6510  0.7163
  103OSM   H14G10436   4.972   1.830   5.241 -0.5951 -0.4066 -2.6517
  103OSM   C15F10437   5.122   1.762   5.101  0.2692 -0.0541  0.0966
  103OSM   H15F10438   5.047   1.733   5.025 -0.6804  2.2996  0.0701
  103OSM   H15G10439   5.127   1.675   5.170  0.1541 -0.9111 -0.9525
  103OSM   C16F10440   5.258   1.802   5.044 -0.2194 -0.1332  0.0994
  103OSM   H16F10441   5.316   1.815   5.138 -0.1677 -0.1504  0.0706
  103OSM   H16G10442   5.248   1.894   4.983 -2.2850 -2.0306 -2.6343
  103OSM   C17F10443   5.323   1.692   4.952  0.5898 -0.1000 -0.2515
  103OSM   H17F10444   5.282   1.599   4.995 -1.2092  0.3260 -0.9448
  103OSM   H17G10445   5.433   1.690   4.962  0.7568  0.3191 -1.7082
  103OSM   C18F10446   5.270   1.688   4.799 -0.1900 -0.1206 -0.1939
  103OSM   H18F10447   5.166   1.721   4.778 -0.7881 -2.3032 -0.9286
  103OSM   H18G10448   5.281   1.589   4.751 -0.6340  0.0994 -0.7681
  103OSM   H18H10449   5.327   1.767   4.745  1.2058 -1.3381 -0.5543
  104OSM      N10450   0.198   1.256   7.134 -0.8248  0.7942 -0.1279
  104OSM    C1510451   0.098   1.144   7.138  0.5556  0.0212  0.0649
  104OSM   H15A10452  -0.004   1.179   7.128  0.3540 -0.8679 -1.2706
  104OSM   H15B10453   0.100   1.087   7.230  2.2438  0.9423  0.6409
  104OSM   H15C10454   0.127   1.071   7.063  0.8157 -0.9557  1.0959
  104OSM    C1410455   0.211   1.315   7.272 -0.1265  0.2164  0.2096
  104OSM   H14A10456   0.283   1.396   7.272 -0.2748  0.3589 -0.9978
  104OSM   H14B10457   0.240   1.238   7.342 -1.9460 -0.8079 -0.1321
  104OSM   H14C10458   0.117   1.349   7.311 -1.0688 -3.3612  1.4567
  104OSM    C1310459   0.333   1.197   7.096  0.0174 -0.5835 -0.5738
  104OSM   H13A10460   0.335   1.173   6.991  0.9985  0.0077 -0.6953
  104OSM   H13B10461   0.357   1.109   7.154  2.8649  1.3351  1.4403
  104OSM   H13C10462   0.407   1.274   7.108  0.4396 -1.2940  2.1031
  104OSM    C1210463   0.161   1.372   7.039  0.7614 -0.3057 -0.4244
  104OSM   H12A10464   0.233   1.453   7.036 -0.4074  0.8236  0.8280
  104OSM   H12B10465   0.068   1.411   7.077  0.2467 -2.3825  0.5957
  104OSM    C1110466   0.138   1.339   6.887  0.0462  0.0298  0.1709
  104OSM   H11A10467   0.084   1.428   6.847 -0.9275 -0.7167 -0.1929
  104OSM   H11B10468   0.076   1.248   6.879  0.1408 -0.2259  1.9988
  104OSM      P10469   0.352   1.445   6.779 -0.0061  0.3928 -0.1357
  104OSM    O1310470   0.338   1.562   6.871  0.3212 -0.1408  0.4006
  104OSM    O1410471   0.491   1.404   6.751  0.6257 -0.0529 -0.0609
  104OSM    O1110472   0.284   1.499   6.647 -0.0128  0.1027  0.1212
  104OSM    O1210473   0.264   1.319   6.824  0.2230  0.7260  0.6077
  104OSM    C1S10474   0.343   1.610   6.573  0.1483 -0.4159  0.5423
  104OSM    H1S10475   0.453   1.604   6.563  0.4497  2.9035  0.8567
  104OSM    H1T10476   0.312   1.701   6.628 -0.4053 -0.9957  1.2063
  104OSM     NF10477   0.385   1.674   6.325 -0.5367  0.6248 -0.4201
  104OSM    HNF10478   0.359   1.768   6.302 -0.1023  1.5177  2.3480
  104OSM    C2S10479   0.291   1.603   6.425  0.3378 -0.9129  0.5761
  104OSM    H2S10480   0.293   1.494   6.402  2.1861 -0.9733  0.7895
  104OSM    C3S10481   0.144   1.650   6.414 -0.6631  0.0163 -0.1315
  104OSM    H3S10482   0.150   1.760   6.423 -0.5389  0.0195 -0.2531
  104OSM     O310483   0.062   1.616   6.521  0.3752  0.1661  0.2067
  104OSM    HO310484   0.122   1.581   6.587  2.0724  2.2048 -0.1271
  104OSM    C4S10485   0.094   1.610   6.275  0.2182 -0.2647  0.4285
  104OSM    H4S10486   0.119   1.686   6.199  1.1221 -1.8037 -0.8577
  104OSM    C5S10487   0.051   1.489   6.228  0.2034  1.2809  0.4368
  104OSM    H5S10488   0.053   1.398   6.290  2.8368  1.8303  1.2679
  104OSM    C6S10489   0.009   1.453   6.087 -0.1288  0.8513 -0.9830
  104OSM    H6S10490  -0.077   1.383   6.090 -2.5132  3.6470  0.3690
  104OSM    H6T10491   0.092   1.402   6.033 -0.7133 -2.0673  0.6742
  104OSM    C7S10492  -0.042   1.573   6.013 -0.0379 -0.6802  0.3273
  104OSM    H7S10493   0.034   1.651   5.991 -1.6919  1.3645  1.5061
  104OSM    H7T10494  -0.122   1.626   6.069 -0.7037  0.2524 -1.4240
  104OSM    C8S10495  -0.112   1.532   5.883  0.1756  0.3000 -0.2350
  104OSM    H8S10496  -0.190   1.457   5.908  1.2017 -0.5671  0.4429
  104OSM    H8T10497  -0.031   1.494   5.817  0.0687  1.7657 -1.2442
  104OSM    C9S10498  -0.174   1.649   5.818 -0.0717 -0.1177  0.1375
  104OSM    H9S10499  -0.108   1.737   5.828 -1.0774  0.8429 -1.3936
  104OSM    H9T10500  -0.273   1.665   5.866  1.2012  0.7392  2.6245
  104OSM   C10S10501  -0.194   1.617   5.666  0.3891  0.4269 -0.2569
  104OSM   H10S10502  -0.242   1.702   5.613  1.0924  0.8357 -0.2593
  104OSM   H10T10503  -0.265   1.532   5.662  0.8994  0.0174 -0.6701
  104OSM   C11S10504  -0.067   1.595   5.583  0.7414 -0.1432  0.0837
  104OSM   H11S10505  -0.036   1.492   5.609 -0.4761  0.3849  4.4144
  104OSM   H11T10506   0.009   1.665   5.625  2.6411 -0.9901 -1.7784
  104OSM   C12S10507  -0.093   1.608   5.435  0.4647 -0.5146  0.2049
  104OSM   H12S10508  -0.140   1.704   5.404 -0.7816 -0.7677  1.2208
  104OSM   H12T10509  -0.171   1.535   5.405 -0.4164  1.6709 -3.4629
  104OSM   C13S10510   0.031   1.581   5.334  0.1009 -0.2148 -0.5334
  104OSM   H13S10511   0.036   1.470   5.337  0.1603 -0.2062 -0.2861
  104OSM   H13T10512   0.120   1.627   5.382 -0.2929 -0.1360  0.1408
  104OSM   C14S10513   0.005   1.618   5.188  0.8451  0.0844 -0.7990
  104OSM   H14S10514  -0.020   1.726   5.203  6.2817  1.5481 -0.0256
  104OSM   H14T10515  -0.082   1.568   5.141  0.0649  0.8097 -0.1717
  104OSM   C15S10516   0.135   1.621   5.108 -0.4249  0.4717 -0.2369
  104OSM   H15S10517   0.186   1.522   5.106 -0.5301  0.3176  1.8229
  104OSM   H15T10518   0.205   1.687   5.163  0.0430 -0.3035  0.1112
  104OSM   C16S10519   0.121   1.673   4.966 -0.4525  0.1904 -0.0613
  104OSM   H16S10520   0.125   1.784   4.969  0.2144  0.1572  0.5427
  104OSM   H16T10521   0.027   1.626   4.928 -0.1103 -0.0285 -0.6450
  104OSM   C17S10522   0.227   1.613   4.876 -0.1365 -1.0415 -0.0456
  104OSM   H17S10523   0.225   1.504   4.894  0.2414 -1.1597 -0.6786
  104OSM   H17T10524   0.327   1.648   4.910  0.3019  0.0539 -2.3005
  104OSM   C18S10525   0.206   1.650   4.725  0.5451  0.3302  0.4578
  104OSM   H18S10526   0.253   1.566   4.669  1.4653 -1.5889  3.8429
  104OSM   H18T10527   0.248   1.748   4.693 -0.8219  0.9602  0.4799
  104OSM   H18U10528   0.098   1.648   4.698  0.6125 -0.4872  0.2157
  104OSM    C1F10529   0.507   1.632   6.298  0.2056 -0.2412 -0.9483
  104OSM     OF10530   0.547   1.526   6.331  0.0593  0.0519 -0.3933
  104OSM    C2F10531   0.597   1.732   6.236  0.2042 -0.1021 -0.2229
  104OSM    H2F10532   0.702   1.734   6.272  0.1509  2.4367 -0.0071
  104OSM    H2G10533   0.563   1.838   6.247  0.1380  0.1089 -2.0782
  104OSM    C3F10534   0.613   1.713   6.086  0.3171  0.4788  0.1759
  104OSM    H3F10535   0.510   1.735   6.049 -0.0727 -0.3535  0.7024
  104OSM    H3G10536   0.635   1.608   6.056 -1.3309 -0.3504  1.6704
  104OSM    C4F10537   0.703   1.817   6.033  0.8312  0.3166  0.2276
  104OSM    H4F10538   0.808   1.790   6.057  0.7487 -0.3386 -0.1310
  104OSM    H4G10539   0.693   1.910   6.094 -0.1036 -0.6266  1.5593
  104OSM    C5F10540   0.669   1.835   5.886 -0.4956  0.0119 -0.1097
  104OSM    H5F10541   0.560   1.832   5.864 -0.0617  1.1188 -2.7361
  104OSM    H5G10542   0.713   1.745   5.838 -0.1598  0.7091 -1.1452
  104OSM    C6F10543   0.723   1.960   5.818  0.4885 -0.4545  0.6684
  104OSM    H6F10544   0.828   1.970   5.852 -0.1850  1.4171  2.3752
  104OSM    H6G10545   0.667   2.053   5.842 -1.2417 -1.1583 -0.4532
  104OSM    C7F10546   0.722   1.941   5.658 -0.2017 -0.2816  0.0914
  104OSM    H7F10547   0.613   1.931   5.639 -0.3528 -0.9195  1.2079
  104OSM    H7G10548   0.777   1.846   5.644  0.7946  0.5272 -1.8905
  104OSM    C8F10549   0.769   2.057   5.574 -0.2866 -0.3134 -0.3536
  104OSM    H8F10550   0.880   2.051   5.572 -0.3471 -1.7798 -0.3966
  104OSM    H8G10551   0.742   2.145   5.636 -0.7012 -1.5633  1.2788
  104OSM    C9F10552   0.714   2.060   5.432 -0.2832 -0.0462 -0.0509
  104OSM    H9F10553   0.609   2.090   5.443 -0.0322  0.4017  1.2519
  104OSM   C10F10554   0.781   2.035   5.321 -0.2190  0.2475  0.0399
  104OSM   H10F10555   0.726   2.041   5.226 -0.5993  2.3158  0.3524
  104OSM   C11F10556   0.920   1.991   5.299 -0.4797 -0.8794 -0.2381
  104OSM   H11F10557   0.960   1.968   5.400 -0.3586  0.8247  0.1333
  104OSM   H11G10558   0.978   2.073   5.252  0.8836 -0.7304  1.5722
  104OSM   C12F10559   0.933   1.870   5.205  0.6885 -0.2262  0.1654
  104OSM   H12F10560   0.888   1.776   5.245  1.9957 -0.6870  0.5905
  104OSM   H12G10561   1.039   1.840   5.217  0.4934 -0.5840  1.1572
  104OSM   C13F10562   0.906   1.893   5.057 -0.6734  0.6557 -0.7435
  104OSM   H13F10563   0.969   1.974   5.015  3.2011 -1.5612  0.3632
  104OSM   H13G10564   0.803   1.933   5.043 -0.4962  2.4304  2.1144
  104OSM   C14F10565   0.918   1.770   4.972 -0.0291  0.4991  0.3509
  104OSM   H14F10566   0.839   1.697   4.996 -0.6888  0.3194 -2.0409
  104OSM   H14G10567   1.012   1.712   4.987  0.8804  1.9393  0.4204
  104OSM   C15F10568   0.889   1.808   4.829  0.3774  0.6871 -0.3680
  104OSM   H15F10569   0.957   1.888   4.793  0.5950  0.5377 -0.2964
  104OSM   H15G10570   0.786   1.839   4.803 -0.4475 -3.1080 -2.3359
  104OSM   C16F10571   0.905   1.678   4.746  0.0283 -0.2451 -0.1335
  104OSM   H16F10572   1.012   1.651   4.760  0.2435  1.0052  0.7538
  104OSM   H16G10573   0.869   1.701   4.643  0.8479  2.6284  0.1298
  104OSM   C17F10574   0.816   1.555   4.786 -0.6145 -0.2404  0.3515
  104OSM   H17F10575   0.843   1.512   4.884  1.1728  0.4706  0.2110
  104OSM   H17G10576   0.856   1.472   4.725  0.6140  0.5384  0.0633
  104OSM   C18F10577   0.667   1.568   4.770 -0.2119 -0.1597 -0.2554
  104OSM   H18F10578   0.622   1.483   4.825 -1.6614  0.5305 -0.3159
  104OSM   H18G10579   0.629   1.569   4.666 -1.4617  0.9113  0.1742
  104OSM   H18H10580   0.638   1.657   4.830  2.6110 -0.1948  1.3227
  105OSM      N10581   4.013   0.369   6.971 -0.0344 -0.0847 -0.3281
  105OSM    C1510582   4.032   0.222   6.982 -0.1419  0.5931  0.0852
  105OSM   H15A10583   4.118   0.184   6.928 -0.3039 -0.9025  0.8194
  105OSM   H15B10584   3.945   0.166   6.948  0.2005  0.1859 -0.1404
  105OSM   H15C10585   4.063   0.198   7.082 -0.2803  0.2844  0.0557
  105OSM    C1410586   4.002   0.400   6.828  0.0433  0.2393  0.2870
  105OSM   H14A10587   4.090   0.362   6.779 -1.7254 -1.2641 -1.9291
  105OSM   H14B10588   3.987   0.505   6.810 -1.3404 -0.0037 -0.0871
  105OSM   H14C10589   3.924   0.346   6.777 -0.1780  1.0175 -0.2101
  105OSM    C1310590   3.883   0.403   7.034  0.5828 -0.2261 -0.1104
  105OSM   H13A10591   3.859   0.507   7.016 -0.1108 -0.8141 -3.2534
  105OSM   H13B10592   3.874   0.378   7.139  1.3038  3.0507  0.8539
  105OSM   H13C10593   3.805   0.341   6.992  0.9814  0.3494 -1.7772
  105OSM    C1210594   4.121   0.450   7.037 -0.7887 -0.0618  0.3506
  105OSM   H12A10595   4.211   0.445   6.979 -1.2156  1.4126 -0.4822
  105OSM   H12B10596   4.153   0.413   7.134 -0.3509  1.0978  0.6652
  105OSM    C1110597   4.097   0.603   7.058 -0.6750 -0.6367 -0.1597
  105OSM   H11A10598   4.175   0.652   7.121 -3.0829  0.9408  1.7821
  105OSM   H11B10599   4.008   0.609   7.124  0.5270  1.6341  1.4269
  105OSM      P10600   4.189   0.763   6.877  0.3318  0.2962  0.7237
  105OSM    O1310601   4.187   0.895   6.947 -0.1856  0.1857  0.8831
  105OSM    O1410602   4.319   0.694   6.877 -0.1316 -0.7510  0.0055
  105OSM    O1110603   4.142   0.775   6.730  0.2243 -0.7797  1.0783
  105OSM    O1210604   4.077   0.674   6.941  0.6063 -0.7209  0.0208
  105OSM    C1S10605   4.007   0.818   6.697  0.0393 -0.0208  0.9759
  105OSM    H1S10606   3.986   0.923   6.728 -3.2303  0.0049 -0.9629
  105OSM    H1T10607   3.931   0.757   6.751  0.3609 -1.5535 -0.2514
  105OSM     NF10608   3.888   0.894   6.488  1.2029  0.1874  0.4097
  105OSM    HNF10609   3.796   0.858   6.476  1.4662  0.1107 -1.8846
  105OSM    C2S10610   3.991   0.807   6.541  0.0400  0.5087 -0.7445
  105OSM    H2S10611   4.082   0.848   6.492  0.9201 -0.6282 -0.1066
  105OSM    C3S10612   3.980   0.657   6.504 -0.4820 -0.5671  0.7305
  105OSM    H3S10613   3.887   0.619   6.553  0.5734  0.8342  4.0961
  105OSM     O310614   4.076   0.568   6.553 -1.0105 -0.6764 -0.2237
  105OSM    HO310615   4.101   0.616   6.632  0.8967  1.2350 -1.8731
  105OSM    C4S10616   3.969   0.642   6.354 -0.2217 -0.1475 -0.1485
  105OSM    H4S10617   3.862   0.642   6.329  0.0978  1.1876 -1.7326
  105OSM    C5S10618   4.065   0.606   6.265 -0.1074 -0.5870  0.7729
  105OSM    H5S10619   4.167   0.581   6.296  0.7110  1.1956 -0.3059
  105OSM    C6S10620   4.042   0.571   6.121  0.4138  0.5741  0.0104
  105OSM    H6S10621   4.036   0.461   6.111  0.9514  0.4982  0.4558
  105OSM    H6T10622   4.128   0.607   6.060 -1.9858  1.0049 -3.3695
  105OSM    C7S10623   3.917   0.632   6.052 -0.6430 -0.0857 -0.1040
  105OSM    H7S10624   3.934   0.739   6.076 -0.3447 -0.4682  1.4710
  105OSM    H7T10625   3.818   0.597   6.089 -2.2308  3.2517 -0.8440
  105OSM    C8S10626   3.932   0.608   5.906  0.3208  0.1961  0.0811
  105OSM    H8S10627   3.921   0.499   5.889 -0.7905 -0.0772  2.1771
  105OSM    H8T10628   4.036   0.637   5.880  1.4542 -1.1657  2.7224
  105OSM    C9S10629   3.838   0.683   5.814  0.0396 -0.0686 -0.0100
  105OSM    H9S10630   3.858   0.791   5.831  0.9736 -0.0175 -1.2413
  105OSM    H9T10631   3.733   0.670   5.847  0.1511  1.3032  1.0028
  105OSM   C10S10632   3.856   0.644   5.667 -0.1094  0.0676  0.5884
  105OSM   H10S10633   3.965   0.655   5.650 -0.1388  1.7158  1.2516
  105OSM   H10T10634   3.799   0.716   5.606  1.6947  0.2796 -0.9415
  105OSM   C11S10635   3.812   0.500   5.620  0.2729 -0.2844 -0.2413
  105OSM   H11S10636   3.706   0.474   5.637  1.1697 -2.9621  2.0228
  105OSM   H11T10637   3.869   0.433   5.688  1.9801  3.0578  1.8784
  105OSM   C12S10638   3.859   0.443   5.490  0.0727 -0.3568 -0.5383
  105OSM   H12S10639   3.805   0.346   5.480 -1.7496  0.4936  0.5707
  105OSM   H12T10640   3.969   0.432   5.496  0.2340 -0.2388 -2.5959
  105OSM   C13S10641   3.811   0.512   5.364 -0.0329  0.1016 -0.8681
  105OSM   H13S10642   3.876   0.599   5.342  1.1863 -0.7672 -0.8007
  105OSM   H13T10643   3.712   0.561   5.367 -1.0458 -1.6851 -2.6742
  105OSM   C14S10644   3.832   0.429   5.236 -0.5998 -0.1116 -0.2118
  105OSM   H14S10645   3.778   0.331   5.241  1.3326 -1.3070 -1.4603
  105OSM   H14T10646   3.938   0.400   5.222 -0.3352  0.5981  0.3029
  105OSM   C15S10647   3.783   0.520   5.119  0.2635  0.0898  0.5240
  105OSM   H15S10648   3.817   0.482   5.020  0.6084  4.3504 -1.2032
  105OSM   H15T10649   3.832   0.620   5.120 -0.1031  0.3058 -0.7631
  105OSM   C16S10650   3.629   0.518   5.103  0.3161 -0.3108  0.0401
  105OSM   H16S10651   3.582   0.560   5.194 -2.6943 -0.2165 -1.4589
  105OSM   H16T10652   3.593   0.414   5.091 -0.9074  0.0415  0.5280
  105OSM   C17S10653   3.585   0.605   4.986  0.3541 -0.6668  0.2173
  105OSM   H17S10654   3.603   0.712   5.005 -0.7250 -0.0819 -1.7186
  105OSM   H17T10655   3.475   0.592   4.981  0.5724 -2.2582 -1.9534
  105OSM   C18S10656   3.642   0.558   4.851  0.2777 -0.0162  0.7826
  105OSM   H18S10657   3.734   0.613   4.823  0.1533 -1.0515 -1.9098
  105OSM   H18T10658   3.572   0.571   4.766  0.9223  0.6237  0.3441
  105OSM   H18U10659   3.665   0.450   4.857  0.6692 -0.0113 -0.3581
  105OSM    C1F10660   3.903   1.025   6.492  0.1725 -0.0980 -0.7888
  105OSM     OF10661   4.008   1.076   6.537  0.1760 -0.0474  0.0784
  105OSM    C2F10662   3.795   1.119   6.439  0.6364 -0.2357 -0.3568
  105OSM    H2F10663   3.833   1.221   6.420  1.1386 -0.3032  0.2688
  105OSM    H2G10664   3.733   1.125   6.531  1.9689  0.1065  0.5314
  105OSM    C3F10665   3.711   1.054   6.323 -0.1556  0.6011 -0.1044
  105OSM    H3F10666   3.672   0.951   6.340  1.5781 -0.5555 -2.5811
  105OSM    H3G10667   3.790   1.029   6.249 -0.8167 -1.7966 -0.1020
  105OSM    C4F10668   3.603   1.140   6.260 -0.2220  0.9984 -0.0122
  105OSM    H4F10669   3.514   1.153   6.325  0.7416  0.1114  1.5638
  105OSM    H4G10670   3.557   1.085   6.175 -0.2777  1.4708 -0.2852
  105OSM    C5F10671   3.654   1.281   6.224 -0.3682  0.6575  0.1869
  105OSM    H5F10672   3.745   1.256   6.164 -0.1857 -1.0512  1.1175
  105OSM    H5G10673   3.698   1.338   6.309 -1.3389 -1.9247  2.5318
  105OSM    C6F10674   3.563   1.355   6.132 -0.0424 -0.0325 -0.2426
  105OSM    H6F10675   3.466   1.380   6.181 -0.6019 -1.7927 -0.3604
  105OSM    H6G10676   3.533   1.291   6.047  0.3178 -0.6968  0.1188
  105OSM    C7F10677   3.627   1.486   6.082 -0.1933  0.9778  0.3499
  105OSM    H7F10678   3.720   1.470   6.024  0.1225  0.4894  0.9951
  105OSM    H7G10679   3.652   1.542   6.174 -1.5044  0.8090  0.8301
  105OSM    C8F10680   3.530   1.571   5.996 -0.4542  0.3345  0.1813
  105OSM    H8F10681   3.572   1.674   5.991  1.7705 -0.3856  2.0482
  105OSM    H8G10682   3.427   1.579   6.035 -1.7892  3.1766 -3.3847
  105OSM    C9F10683   3.522   1.503   5.858 -0.4562 -0.0246  0.2655
  105OSM    H9F10684   3.492   1.398   5.867  1.1822 -0.4577  1.0615
  105OSM   C10F10685   3.549   1.562   5.736 -0.2441  0.9176  0.1264
  105OSM   H10F10686   3.538   1.509   5.640 -1.5947  1.5026 -0.0648
  105OSM   C11F10687   3.580   1.708   5.712 -0.3393  0.3343 -0.4665
  105OSM   H11F10688   3.686   1.741   5.707  0.6084 -2.2825  0.5558
  105OSM   H11G10689   3.527   1.761   5.794 -0.2318 -0.0940 -0.1121
  105OSM   C12F10690   3.503   1.760   5.586  0.1573  0.1210  0.8652
  105OSM   H12F10691   3.489   1.870   5.597 -0.7860  0.0350  0.5695
  105OSM   H12G10692   3.404   1.710   5.588  0.2865 -0.1411  0.6352
  105OSM   C13F10693   3.580   1.734   5.456  0.5040  0.4905 -0.3990
  105OSM   H13F10694   3.607   1.626   5.446  4.7825  1.3832 -0.5570
  105OSM   H13G10695   3.682   1.779   5.461  0.1404  1.1975  2.4542
  105OSM   C14F10696   3.506   1.795   5.326 -0.0891  0.5614  0.0037
  105OSM   H14F10697   3.488   1.903   5.347  2.7264  1.1002 -0.0487
  105OSM   H14G10698   3.406   1.746   5.328  0.9965 -1.7980  2.9569
  105OSM   C15F10699   3.582   1.778   5.199 -0.4263  0.7070  0.5758
  105OSM   H15F10700   3.625   1.676   5.192  0.7956  1.1024  1.8546
  105OSM   H15G10701   3.673   1.842   5.198 -0.5662  0.9202  1.3370
  105OSM   C16F10702   3.506   1.796   5.066  0.1145  0.4280  0.5176
  105OSM   H16F10703   3.573   1.761   4.985  2.5424 -0.8042  2.9059
  105OSM   H16G10704   3.491   1.905   5.054 -1.7590  0.2576  1.0416
  105OSM   C17F10705   3.369   1.727   5.064  0.1542  0.3955 -0.2900
  105OSM   H17F10706   3.294   1.780   5.127 -0.4259 -0.0128 -0.6306
  105OSM   H17G10707   3.375   1.627   5.113 -0.4390  0.1621 -0.6885
  105OSM   C18F10708   3.320   1.696   4.923  0.1748 -0.0340 -0.0187
  105OSM   H18F10709   3.243   1.617   4.927 -2.4002  2.1152 -2.3066
  105OSM   H18G10710   3.403   1.657   4.860  0.9210 -1.8347  1.9839
  105OSM   H18H10711   3.273   1.780   4.867 -0.3014 -0.0255  0.3837
  106OSM      N10712   3.385   6.277   7.254  0.5888  0.4630  0.5757
  106OSM    C1510713   3.283   6.285   7.363 -0.2743 -0.6563  0.2361
  106OSM   H15A10714   3.299   6.212   7.441  0.5050  0.1720  0.8801
  106OSM   H15B10715   3.185   6.270   7.319 -0.4440 -3.4546  1.3868
  106OSM   H15C10716   3.282   6.384   7.407 -1.3529 -0.0725 -1.0180
  106OSM    C1410717   3.355   6.375   7.148  0.4807  0.7625 -0.5332
  106OSM   H14A10718   3.342   6.476   7.185 -2.6572  0.9223 -1.7835
  106OSM   H14B10719   3.255   6.350   7.116  0.7396 -1.3717  0.2109
  106OSM   H14C10720   3.419   6.346   7.067  0.3920 -0.0788 -0.3147
  106OSM    C1310721   3.518   6.326   7.301  0.9001 -0.3403  0.4605
  106OSM   H13A10722   3.507   6.424   7.343  0.0741 -0.3824  0.3507
  106OSM   H13B10723   3.590   6.319   7.220  0.1236  0.5989 -0.3370
  106OSM   H13C10724   3.548   6.261   7.382  0.3495  2.5235  3.1445
  106OSM    C1210725   3.404   6.132   7.196  0.2060 -0.3162 -0.7050
  106OSM   H12A10726   3.312   6.083   7.167  0.5499 -1.9007  0.6761
  106OSM   H12B10727   3.452   6.069   7.270 -1.6005 -0.6668  0.2050
  106OSM    C1110728   3.489   6.114   7.073  0.2398 -0.5128  0.4516
  106OSM   H11A10729   3.506   6.008   7.042 -0.0999 -0.4029 -0.1265
  106OSM   H11B10730   3.594   6.138   7.104  0.6377 -0.3791 -0.9330
  106OSM      P10731   3.573   6.267   6.883 -0.0430  0.1438 -0.5667
  106OSM    O1310732   3.517   6.333   6.766  0.4438 -0.4849 -0.7679
  106OSM    O1410733   3.650   6.353   6.977  0.1149 -0.1798  0.2626
  106OSM    O1110734   3.668   6.150   6.839 -0.0367 -0.4113  0.3355
  106OSM    O1210735   3.458   6.197   6.965 -0.3508  0.0597 -0.2238
  106OSM    C1S10736   3.642   6.081   6.713 -0.0667 -0.0050  0.6814
  106OSM    H1S10737   3.539   6.099   6.677  0.6141 -3.0409 -3.7536
  106OSM    H1T10738   3.659   5.972   6.726  0.3957 -0.2135 -1.2982
  106OSM     NF10739   3.687   6.069   6.478  0.6291 -0.2534 -0.6453
  106OSM    HNF10740   3.749   5.995   6.454  0.9739 -0.4985  0.9361
  106OSM    C2S10741   3.727   6.142   6.597 -0.5709 -0.0601 -0.5906
  106OSM    H2S10742   3.708   6.251   6.605  2.2335  0.3803  1.5165
  106OSM    C3S10743   3.878   6.124   6.634 -0.5969 -0.2525 -0.2416
  106OSM    H3S10744   3.895   6.017   6.659  0.5201 -0.4191 -1.6389
  106OSM     O310745   3.926   6.203   6.748  0.3256  0.0652 -0.1231
  106OSM    HO310746   3.838   6.208   6.786  0.8788 -1.0445  1.3848
  106OSM    C4S10747   3.977   6.156   6.524  0.9563 -0.1632 -0.2501
  106OSM    H4S10748   3.960   6.255   6.480  0.1301  0.7168  1.8981
  106OSM    C5S10749   4.088   6.087   6.484  0.1108 -0.1535 -0.3254
  106OSM    H5S10750   4.115   5.989   6.526  0.7163  0.1697  0.0539
  106OSM    C6S10751   4.181   6.135   6.383 -0.0623  0.7747 -0.1696
  106OSM    H6S10752   4.280   6.107   6.426 -0.8202 -2.2815 -0.1793
  106OSM    H6T10753   4.165   6.244   6.368 -1.7958  0.3658 -1.6403
  106OSM    C7S10754   4.162   6.063   6.256  0.0795  0.6607  0.3290
  106OSM    H7S10755   4.054   6.041   6.242  0.4322 -0.7934 -0.2194
  106OSM    H7T10756   4.201   5.960   6.266  2.1084  1.5531  2.4776
  106OSM    C8S10757   4.221   6.133   6.135 -0.3489  0.6703 -0.2314
  106OSM    H8S10758   4.329   6.142   6.162  0.5520  0.2724 -3.3440
  106OSM    H8T10759   4.188   6.239   6.130  1.4154  1.2291 -1.0361
  106OSM    C9S10760   4.207   6.048   6.002  0.3625 -0.1371  0.1879
  106OSM    H9S10761   4.245   5.946   6.025  0.7123 -0.0680 -0.0779
  106OSM    H9T10762   4.279   6.088   5.927 -0.9960  1.2809 -0.4214
  106OSM   C10S10763   4.076   6.052   5.933  0.1813 -0.2733 -0.3379
  106OSM   H10S10764   4.051   6.158   5.912 -1.0553 -0.6012 -0.5659
  106OSM   H10T10765   3.999   6.016   6.005 -1.1441  3.0340  0.0579
  106OSM   C11S10766   4.075   5.966   5.801  0.0191 -0.2199 -0.4090
  106OSM   H11S10767   3.973   5.951   5.759 -0.4706  0.2025  0.5941
  106OSM   H11T10768   4.111   5.868   5.839  0.3962  1.3842  3.8840
  106OSM   C12S10769   4.158   6.019   5.684 -0.2529  0.1891 -0.4129
  106OSM   H12S10770   4.266   6.021   5.711 -0.3982  0.2988  0.1790
  106OSM   H12T10771   4.135   6.127   5.667  0.3778  0.6019  1.1546
  106OSM   C13S10772   4.124   5.948   5.549 -0.6988  0.6240 -0.2453
  106OSM   H13S10773   4.024   5.979   5.513 -0.2913  0.4847 -1.5512
  106OSM   H13T10774   4.135   5.841   5.578  0.2880  1.1126  1.3171
  106OSM   C14S10775   4.229   5.985   5.441  0.6984  0.0065  0.2996
  106OSM   H14S10776   4.315   5.915   5.447 -0.0632 -0.8367  2.1647
  106OSM   H14T10777   4.262   6.090   5.452 -1.1788  0.8555 -1.5439
  106OSM   C15S10778   4.180   5.984   5.293  0.2875  0.3967 -0.2711
  106OSM   H15S10779   4.128   5.886   5.286 -1.4216  1.1207  1.4109
  106OSM   H15T10780   4.273   6.003   5.235  0.9504 -2.2486 -0.2091
  106OSM   C16S10781   4.071   6.090   5.262 -0.3818 -0.0887  0.2238
  106OSM   H16S10782   4.107   6.180   5.317 -2.0107  0.5773  0.2848
  106OSM   H16T10783   3.972   6.064   5.305 -1.1764  0.7952 -0.9920
  106OSM   C17S10784   4.049   6.141   5.117  0.0900  0.2101 -0.5652
  106OSM   H17S10785   4.141   6.109   5.066  0.8294 -0.1160  0.9129
  106OSM   H17T10786   4.038   6.251   5.128 -0.7794 -0.0232  1.4049
  106OSM   C18S10787   3.921   6.083   5.058 -1.0446 -0.6746  0.4950
  106OSM   H18S10788   3.942   5.974   5.047  1.9844 -0.0660 -0.7832
  106OSM   H18T10789   3.904   6.122   4.956 -1.1134  0.0770  0.7832
  106OSM   H18U10790   3.831   6.097   5.123 -1.4369  0.2764 -0.2374
  106OSM    C1F10791   3.565   6.100   6.422 -0.1921 -0.5623  0.7234
  106OSM     OF10792   3.504   6.198   6.459 -0.3870  0.5180 -0.5449
  106OSM    C2F10793   3.504   6.003   6.326  0.0700 -0.0154 -0.4635
  106OSM    H2F10794   3.412   5.979   6.383 -0.8562  2.3275 -0.8611
  106OSM    H2G10795   3.554   5.906   6.307 -3.0596 -2.2260  1.5713
  106OSM    C3F10796   3.451   6.048   6.189  0.0372  0.3943 -0.3455
  106OSM    H3F10797   3.536   6.079   6.124  1.8983 -1.2015  1.2045
  106OSM    H3G10798   3.376   6.129   6.199  1.8743  2.1318  0.0679
  106OSM    C4F10799   3.392   5.933   6.116  0.3621 -0.7996 -0.4051
  106OSM    H4F10800   3.319   5.888   6.187  0.0886  0.9268  0.4723
  106OSM    H4G10801   3.468   5.853   6.101  0.1859 -1.2202  0.8406
  106OSM    C5F10802   3.332   5.971   5.983  0.0076 -0.3585 -0.4845
  106OSM    H5F10803   3.406   6.014   5.913 -0.3734 -2.6937 -2.4314
  106OSM    H5G10804   3.253   6.049   5.996 -0.4464 -1.0689  1.3326
  106OSM    C6F10805   3.264   5.856   5.904  0.0495  0.3236  0.0026
  106OSM    H6F10806   3.198   5.799   5.973  0.1597  0.7412  0.4615
  106OSM    H6G10807   3.344   5.782   5.878 -0.0734  0.9936 -2.5182
  106OSM    C7F10808   3.193   5.897   5.778 -0.1782  0.4811  0.3879
  106OSM    H7F10809   3.207   6.004   5.749  1.6194  0.2914  0.4863
  106OSM    H7G10810   3.084   5.877   5.785 -0.4586  1.3755 -0.9726
  106OSM    C8F10811   3.236   5.808   5.654 -0.4491 -0.6857  0.3543
  106OSM    H8F10812   3.155   5.815   5.578  0.2346 -2.8058 -0.6538
  106OSM    H8G10813   3.237   5.702   5.690 -4.0450 -1.4260 -1.2594
  106OSM    C9F10814   3.363   5.856   5.591 -0.2892 -0.0245  0.6565
  106OSM    H9F10815   3.451   5.849   5.656  1.7138 -2.2648 -2.0515
  106OSM   C10F10816   3.387   5.910   5.468 -0.7698  0.5043  0.1392
  106OSM   H10F10817   3.489   5.929   5.433 -0.9903  1.1864 -0.1418
  106OSM   C11F10818   3.282   5.951   5.366  0.2148  0.3073 -0.1034
  106OSM   H11F10819   3.227   6.033   5.417 -0.5308 -1.3099  1.8211
  106OSM   H11G10820   3.205   5.874   5.346  0.4806  0.4120 -1.6016
  106OSM   C12F10821   3.346   5.993   5.228  0.4390 -0.1604 -0.0019
  106OSM   H12F10822   3.438   6.055   5.240  0.6477 -0.8521  2.4477
  106OSM   H12G10823   3.271   6.055   5.174  0.7140  0.7291  0.6046
  106OSM   C13F10824   3.383   5.870   5.150 -1.1487  0.2145 -0.5604
  106OSM   H13F10825   3.294   5.804   5.141 -1.7269  0.5058  2.0976
  106OSM   H13G10826   3.472   5.820   5.195 -0.4115 -0.8778 -3.0743
  106OSM   C14F10827   3.435   5.913   5.008  0.3757  0.1174  0.5208
  106OSM   H14F10828   3.492   5.838   4.950  1.6179  2.0067 -0.7897
  106OSM   H14G10829   3.500   6.001   5.024  1.9295 -1.0635  0.9314
  106OSM   C15F10830   3.318   5.950   4.912 -0.4550 -0.1940  0.9259
  106OSM   H15F10831   3.319   6.061   4.915 -0.6139 -0.2053  1.3928
  106OSM   H15G10832   3.228   5.914   4.965  0.1063 -0.5883  1.6280
  106OSM   C16F10833   3.337   5.898   4.767  0.0293  0.3007 -0.2782
  106OSM   H16F10834   3.242   5.905   4.709  0.5269  0.9248 -1.0476
  106OSM   H16G10835   3.358   5.789   4.770  0.2136  0.2595 -2.0947
  106OSM   C17F10836   3.441   5.977   4.692 -0.1090  0.1902  0.9226
  106OSM   H17F10837   3.535   5.972   4.750  0.8738 -1.3620 -0.7421
  106OSM   H17G10838   3.404   6.081   4.679  1.2518  0.4830 -1.0210
  106OSM   C18F10839   3.460   5.915   4.554  1.5124  0.0704 -0.0325
  106OSM   H18F10840   3.356   5.906   4.515  1.6261 -0.2717 -0.2520
  106OSM   H18G10841   3.504   5.815   4.570  1.5758 -0.1349 -1.3480
  106OSM   H18H10842   3.525   5.966   4.480 -0.0209  0.4044 -1.2138
  107OSM      N10843   0.396   3.559   6.946  0.3464 -0.0157 -0.5313
  107OSM    C1510844   0.391   3.624   7.082 -0.2493  0.1253  0.1472
  107OSM   H15A10845   0.372   3.730   7.075 -2.6069 -0.3023 -0.8874
  107OSM   H15B10846   0.479   3.610   7.142 -0.6874  1.4918  1.1562
  107OSM   H15C10847   0.310   3.597   7.147 -1.0487  1.6813 -0.1309
  107OSM    C1410848   0.420   3.417   6.976 -0.2801 -0.2318  0.2022
  107OSM   H14A10849   0.524   3.399   6.997  0.5000  2.9700 -0.3057
  107OSM   H14B10850   0.387   3.352   6.896 -1.0534 -2.0743  1.9246
  107OSM   H14C10851   0.373   3.398   7.071  0.2199  2.3048  1.0497
  107OSM    C1310852   0.271   3.576   6.870 -0.1022  0.0720 -0.4206
  107OSM   H13A10853   0.235   3.678   6.869  1.6671  0.8504  2.3363
  107OSM   H13B10854   0.186   3.530   6.917 -0.3436  1.0655  0.1559
  107OSM   H13C10855   0.273   3.538   6.769  1.0627  3.0953 -1.6797
  107OSM    C1210856   0.511   3.615   6.863  0.6341  0.1154  0.0910
  107OSM   H12A10857   0.602   3.610   6.921  1.1223  0.2800 -0.6536
  107OSM   H12B10858   0.497   3.718   6.833  0.7472 -0.1866 -1.0160
  107OSM    C1110859   0.545   3.554   6.729  0.1554 -0.5907  0.4140
  107OSM   H11A10860   0.617   3.616   6.671 -1.8882 -0.6915 -2.4785
  107OSM   H11B10861   0.453   3.555   6.666 -0.4348 -2.1036  1.1870
  107OSM      P10862   0.728   3.362   6.782 -0.3816 -0.1461 -0.0521
  107OSM    O1310863   0.821   3.477   6.783 -0.4656 -0.3418 -0.6709
  107OSM    O1410864   0.720   3.279   6.904  0.2935  0.0336 -0.1595
  107OSM    O1110865   0.769   3.264   6.661 -0.1528 -0.0332  0.1019
  107OSM    O1210866   0.582   3.421   6.742  0.9412 -0.3691 -0.4660
  107OSM    C1S10867   0.747   3.291   6.520  0.2262  0.1221  0.6266
  107OSM    H1S10868   0.664   3.364   6.507  2.2148  2.3721 -0.2996
  107OSM    H1T10869   0.715   3.199   6.467  1.2880  0.2594 -0.2940
  107OSM     NF10870   0.842   3.380   6.298 -0.1200  0.3194  0.1661
  107OSM    HNF10871   0.869   3.319   6.224 -0.3461  0.0993  0.2643
  107OSM    C2S10872   0.875   3.339   6.440 -0.1319 -0.6562 -0.4577
  107OSM    H2S10873   0.907   3.433   6.490  1.6148 -0.4593 -1.8398
  107OSM    C3S10874   0.980   3.233   6.457 -0.3885  0.4898 -0.1733
  107OSM    H3S10875   0.936   3.134   6.429 -0.9204  0.9935 -1.1739
  107OSM     O310876   1.035   3.209   6.587 -0.3457  0.0889  0.1516
  107OSM    HO310877   0.973   3.259   6.640 -1.0892  0.2205 -0.8131
  107OSM    C4S10878   1.098   3.268   6.363  0.4292 -0.3803  0.7747
  107OSM    H4S10879   1.140   3.365   6.393 -0.3428 -0.1225  1.0419
  107OSM    C5S10880   1.147   3.201   6.259 -0.3944 -0.4213  0.4247
  107OSM    H5S10881   1.103   3.104   6.232  0.1144  0.0110 -2.2696
  107OSM    C6S10882   1.260   3.250   6.173  0.2977  0.3019 -0.6704
  107OSM    H6S10883   1.343   3.177   6.170 -0.7211 -1.0493  1.7059
  107OSM    H6T10884   1.304   3.342   6.217  1.0751 -1.1518  1.7873
  107OSM    C7S10885   1.230   3.281   6.029 -0.1977  0.0254  0.0882
  107OSM    H7S10886   1.145   3.350   6.015  0.7263  0.9385 -1.2380
  107OSM    H7T10887   1.212   3.190   5.968 -0.1091  0.6050 -0.8167
  107OSM    C8S10888   1.350   3.356   5.968  0.6009  0.1249  0.4399
  107OSM    H8S10889   1.428   3.290   5.926  1.2197  0.0618  1.6557
  107OSM    H8T10890   1.403   3.420   6.041  0.0048 -0.4313  1.3829
  107OSM    C9S10891   1.301   3.444   5.846 -1.4402  0.3199 -0.2341
  107OSM    H9S10892   1.385   3.508   5.812  0.3306 -3.2128 -3.1817
  107OSM    H9T10893   1.227   3.525   5.867 -0.8548  0.2279  2.7053
  107OSM   C10S10894   1.260   3.353   5.731 -0.3205  0.2627  0.6887
  107OSM   H10S10895   1.155   3.328   5.760 -0.5667 -0.0626 -0.4166
  107OSM   H10T10896   1.315   3.258   5.744 -0.6850 -0.3671 -1.8867
  107OSM   C11S10897   1.269   3.414   5.588  0.1087  0.7297  0.2199
  107OSM   H11S10898   1.365   3.470   5.592  0.4362  0.1197  2.5413
  107OSM   H11T10899   1.179   3.479   5.587  0.5744  1.4051  0.7965
  107OSM   C12S10900   1.266   3.308   5.473 -0.1164 -0.0552  0.0181
  107OSM   H12S10901   1.183   3.235   5.480 -0.3859 -0.1678 -2.9257
  107OSM   H12T10902   1.366   3.260   5.478  0.4492  1.2248  2.2954
  107OSM   C13S10903   1.242   3.362   5.335  0.4289  0.3459 -0.6321
  107OSM   H13S10904   1.308   3.448   5.309 -1.7008  2.9464  1.9475
  107OSM   H13T10905   1.141   3.404   5.315 -1.2696 -3.6640 -1.3647
  107OSM   C14S10906   1.270   3.261   5.223  0.3563 -0.5621 -0.1027
  107OSM   H14S10907   1.202   3.174   5.235 -0.1651 -0.2777 -0.8937
  107OSM   H14T10908   1.377   3.230   5.231  0.7857  0.9684  0.3725
  107OSM   C15S10909   1.267   3.337   5.078 -0.0429  0.1100  0.1657
  107OSM   H15S10910   1.166   3.381   5.063 -0.2877 -0.5722 -0.2993
  107OSM   H15T10911   1.267   3.264   4.994  1.2641  1.9969 -1.5646
  107OSM   C16S10912   1.386   3.427   5.043 -0.4133 -0.4212 -0.0150
  107OSM   H16S10913   1.481   3.375   5.068 -0.9721  0.2536  4.2594
  107OSM   H16T10914   1.382   3.523   5.098 -1.0412 -1.4379  1.7860
  107OSM   C17S10915   1.397   3.466   4.891 -0.6514  1.0060  0.1055
  107OSM   H17S10916   1.410   3.376   4.826 -0.2958 -0.8116  2.5699
  107OSM   H17T10917   1.492   3.522   4.881  0.9701 -1.4715  0.7130
  107OSM   C18S10918   1.285   3.552   4.825  0.2699 -0.7279 -0.0964
  107OSM   H18S10919   1.251   3.633   4.893  0.9070 -0.4078 -0.1419
  107OSM   H18T10920   1.196   3.491   4.801 -1.6311  1.0268  2.0932
  107OSM   H18U10921   1.321   3.593   4.728  2.6085  0.1315  1.0509
  107OSM    C1F10922   0.767   3.484   6.268  0.0706 -0.5694 -0.4576
  107OSM     OF10923   0.738   3.562   6.361 -0.1135  0.1394  0.2946
  107OSM    C2F10924   0.718   3.497   6.125 -0.6270  0.4201  0.2322
  107OSM    H2F10925   0.610   3.520   6.125 -0.5880  0.6066 -0.4575
  107OSM    H2G10926   0.733   3.396   6.081 -0.4011  0.2854  0.6117
  107OSM    C3F10927   0.808   3.599   6.048 -0.3264 -0.1562 -0.0368
  107OSM    H3F10928   0.915   3.568   6.056 -0.2817 -0.3194 -1.0522
  107OSM    H3G10929   0.783   3.696   6.096 -0.8293 -0.9058  1.2475
  107OSM    C4F10930   0.773   3.608   5.899 -0.4607  0.0418 -0.2691
  107OSM    H4F10931   0.664   3.630   5.892 -0.9518 -1.5312  1.5633
  107OSM    H4G10932   0.797   3.510   5.854  2.9415  0.9417 -0.6774
  107OSM    C5F10933   0.853   3.713   5.813 -0.2590  0.2069 -0.4658
  107OSM    H5F10934   0.963   3.695   5.808 -0.0443  1.6117 -1.5067
  107OSM    H5G10935   0.837   3.814   5.856 -0.4218 -0.3239  0.7684
  107OSM    C6F10936   0.800   3.710   5.669 -0.2110  0.1500  0.0025
  107OSM    H6F10937   0.828   3.805   5.618 -1.2630  0.3847 -0.1626
  107OSM    H6G10938   0.690   3.710   5.655 -0.1361 -1.1088 -0.7344
  107OSM    C7F10939   0.859   3.587   5.596 -0.1101  0.3633 -0.3025
  107OSM    H7F10940   0.821   3.494   5.644  2.9331 -0.6843  0.2698
  107OSM    H7G10941   0.970   3.582   5.596 -0.1663 -1.7327  0.1702
  107OSM    C8F10942   0.805   3.575   5.447  0.2305 -0.1468 -0.7496
  107OSM    H8F10943   0.701   3.535   5.454  0.9551 -1.9003  2.0919
  107OSM    H8G10944   0.869   3.493   5.409  2.6599  1.3392 -0.0648
  107OSM    C9F10945   0.802   3.704   5.367 -0.7554  0.7868 -0.0001
  107OSM    H9F10946   0.767   3.796   5.416  0.1819  1.5916 -0.8090
  107OSM   C10F10947   0.860   3.702   5.245 -0.7050 -0.0914  1.0025
  107OSM   H10F10948   0.851   3.782   5.170  4.2272 -2.1057 -2.3127
  107OSM   C11F10949   0.905   3.573   5.172  0.4226  0.2785  0.1377
  107OSM   H11F10950   0.834   3.490   5.190 -1.2738  1.6972  0.1609
  107OSM   H11G10951   1.009   3.553   5.208  0.7109 -0.7706 -1.1795
  107OSM   C12F10952   0.898   3.583   5.019 -0.2454 -0.1291  0.2539
  107OSM   H12F10953   0.962   3.506   4.971  1.5096 -0.0711  2.3495
  107OSM   H12G10954   0.952   3.678   4.996  0.2308  0.1108  2.1841
  107OSM   C13F10955   0.757   3.588   4.963 -0.6662  0.1103 -0.2231
  107OSM   H13F10956   0.710   3.688   4.973 -2.1291 -0.3048 -2.3940
  107OSM   H13G10957   0.704   3.513   5.025  0.8790 -1.3032 -0.5501
  107OSM   C14F10958   0.739   3.544   4.816 -0.4503 -0.1776  0.3203
  107OSM   H14F10959   0.634   3.566   4.786 -0.7213  1.7558  2.3843
  107OSM   H14G10960   0.761   3.436   4.817  1.5309  0.1876  1.2481
  107OSM   C15F10961   0.836   3.612   4.712 -0.7533 -0.4163 -0.6162
  107OSM   H15F10962   0.940   3.617   4.752 -0.3836 -0.4699 -1.5502
  107OSM   H15G10963   0.799   3.716   4.695 -1.0222 -0.0137  1.9627
  107OSM   C16F10964   0.848   3.537   4.580 -0.3729  0.3445 -0.4459
  107OSM   H16F10965   0.746   3.517   4.540 -0.7792 -0.1809  0.8226
  107OSM   H16G10966   0.886   3.440   4.618 -2.6691 -0.6258 -0.4870
  107OSM   C17F10967   0.944   3.595   4.480  0.7593  0.4907 -0.2524
  107OSM   H17F10968   0.976   3.527   4.399  0.9612  0.8429 -0.4723
  107OSM   H17G10969   1.032   3.637   4.534 -0.8112  2.5829  0.8565
  107OSM   C18F10970   0.876   3.715   4.417  0.3602  0.4250 -0.1444
  107OSM   H18F10971   0.871   3.798   4.491 -3.6901  0.1571  0.1291
  107OSM   H18G10972   0.772   3.689   4.386  0.0876 -1.1662  1.8878
  107OSM   H18H10973   0.931   3.746   4.325  0.3605  3.4056  0.7530
  108OSM      N10974   2.908   3.369   6.788 -0.2936  0.1100  0.1074
  108OSM    C1510975   2.849   3.248   6.718 -0.3612 -0.0422 -1.6180
  108OSM   H15A10976   2.754   3.225   6.765 -0.0050  1.8072  0.1432
  108OSM   H15B10977   2.919   3.167   6.703  1.0537  1.0116 -0.9268
  108OSM   H15C10978   2.810   3.269   6.620 -2.3413 -0.7332 -1.0317
  108OSM    C1410979   2.813   3.484   6.773 -0.1364  0.1509  0.4987
  108OSM   H14A10980   2.830   3.534   6.679 -0.5346 -0.0065  0.3429
  108OSM   H14B10981   2.837   3.562   6.844  2.7088 -0.1845 -0.0011
  108OSM   H14C10982   2.708   3.471   6.793 -0.0980  0.4317  0.9040
  108OSM    C1310983   2.927   3.334   6.932 -0.0855 -0.3629  0.2280
  108OSM   H13A10984   3.011   3.267   6.940  1.0479  0.5316 -2.9944
  108OSM   H13B10985   2.843   3.275   6.967 -0.4921  0.3172  0.4307
  108OSM   H13C10986   2.947   3.416   7.000 -0.0160 -0.3146  0.1495
  108OSM    C1210987   3.049   3.391   6.735  0.0733 -0.4417 -0.5073
  108OSM   H12A10988   3.109   3.303   6.752  0.9847  0.6565  2.7653
  108OSM   H12B10989   3.084   3.471   6.799  0.6387  0.1026 -1.4682
  108OSM    C1110990   3.064   3.437   6.592  0.4607 -0.2170  0.2856
  108OSM   H11A10991   3.029   3.361   6.519 -1.8382  1.2887 -0.3021
  108OSM   H11B10992   3.174   3.442   6.579  0.3527 -0.7988 -0.9559
  108OSM      P10993   3.058   3.695   6.594  0.2921  0.0203  0.2261
  108OSM    O1310994   2.950   3.788   6.635  0.0172 -0.1075  0.0136
  108OSM    O1410995   3.164   3.680   6.697  0.3366 -0.3353  0.2195
  108OSM    O1110996   3.124   3.743   6.456 -0.0597  0.4141  0.6019
  108OSM    O1210997   2.997   3.555   6.554  0.0926 -0.6818  0.0923
  108OSM    C1S10998   3.109   3.664   6.330 -0.0554  0.2606 -0.2591
  108OSM    H1S10999   3.001   3.663   6.304 -0.1524  1.5294  0.0511
  108OSM    H1T11000   3.126   3.555   6.344 -0.8129 -0.0207 -1.3733
  108OSM     NF11001   3.169   3.623   6.109  0.3907 -0.3032 -0.3183
  108OSM    HNF11002   3.221   3.540   6.088 -0.4291 -0.5386 -1.5244
  108OSM    C2S11003   3.196   3.707   6.219 -0.6781  0.0603  0.1170
  108OSM    H2S11004   3.177   3.812   6.191  0.1157  0.0288 -0.5862
  108OSM    C3S11005   3.354   3.703   6.265  0.1810  0.3207 -0.0450
  108OSM    H3S11006   3.377   3.608   6.318 -4.4990  1.2665  4.5520
  108OSM     O311007   3.381   3.799   6.368  0.4095 -0.0114  0.9210
  108OSM    HO311008   3.291   3.829   6.382  0.2707  0.4307 -0.7225
  108OSM    C4S11009   3.442   3.718   6.139  0.2801  0.1245  0.0955
  108OSM    H4S11010   3.478   3.628   6.087  0.4336  0.1941  0.0811
  108OSM    C5S11011   3.473   3.835   6.088 -0.4123 -0.1250  0.5596
  108OSM    H5S11012   3.426   3.917   6.144  0.1263 -0.6073  1.7571
  108OSM    C6S11013   3.548   3.870   5.959  0.1817 -0.6841 -0.1216
  108OSM    H6S11014   3.590   3.778   5.913  0.3154 -1.1102  0.8297
  108OSM    H6T11015   3.643   3.922   5.986  0.1214 -0.9920  0.7049
  108OSM    C7S11016   3.460   3.952   5.866  0.1482 -0.2254 -0.6441
  108OSM    H7S11017   3.519   4.008   5.790 -0.2651  0.2962 -0.5853
  108OSM    H7T11018   3.421   4.038   5.924  0.8687 -1.1558  1.3163
  108OSM    C8S11019   3.340   3.876   5.795 -0.8302 -0.0935 -0.3099
  108OSM    H8S11020   3.291   3.821   5.878 -3.0112 -0.0523 -1.5027
  108OSM    H8T11021   3.376   3.791   5.734 -0.1401  1.2168 -1.8328
  108OSM    C9S11022   3.248   3.965   5.708 -0.1584 -0.4472  0.1789
  108OSM    H9S11023   3.212   4.047   5.773  0.4059 -0.4952  0.5642
  108OSM    H9T11024   3.159   3.904   5.682 -1.1674  0.3128  1.7099
  108OSM   C10S11025   3.322   4.013   5.586 -0.0300 -0.9071 -0.1784
  108OSM   H10S11026   3.376   3.932   5.532  1.7238  1.6149 -2.4866
  108OSM   H10T11027   3.401   4.086   5.613 -1.3417  0.7759 -0.7022
  108OSM   C11S11028   3.224   4.081   5.483 -0.5538 -0.1198 -1.1801
  108OSM   H11S11029   3.169   4.162   5.537  2.1821  1.3260 -0.3444
  108OSM   H11T11030   3.146   4.006   5.457 -1.9084  1.1187 -0.8471
  108OSM   C12S11031   3.310   4.102   5.350  0.8723  0.4238 -0.8336
  108OSM   H12S11032   3.387   4.023   5.337  0.8062  0.3565 -0.8179
  108OSM   H12T11033   3.377   4.190   5.359  2.2106 -0.7351  1.1156
  108OSM   C13S11034   3.223   4.087   5.231 -0.0177  0.2241  0.8493
  108OSM   H13S11035   3.135   4.155   5.237  0.5645  0.9729  1.0831
  108OSM   H13T11036   3.180   3.985   5.218 -3.2270  1.3826  1.5173
  108OSM   C14S11037   3.299   4.113   5.096 -0.1179  0.3128  0.4605
  108OSM   H14S11038   3.392   4.053   5.105  0.6512  1.5277  0.7818
  108OSM   H14T11039   3.338   4.217   5.099 -0.9026  0.5944  1.8987
  108OSM   C15S11040   3.217   4.090   4.970 -0.9906 -0.0056 -0.0662
  108OSM   H15S11041   3.139   4.169   4.964 -1.9336 -0.9912 -1.6148
  108OSM   H15T11042   3.165   3.992   4.967  0.8990 -1.0903  0.7132
  108OSM   C16S11043   3.317   4.104   4.846  0.2979  0.3193  0.0441
  108OSM   H16S11044   3.413   4.051   4.865 -0.2156 -1.0718 -1.1059
  108OSM   H16T11045   3.344   4.211   4.854 -0.6379  0.4263  3.0873
  108OSM   C17S11046   3.240   4.068   4.719 -1.1508 -0.0597 -0.2322
  108OSM   H17S11047   3.314   4.084   4.637 -1.2670  0.3384 -0.2609
  108OSM   H17T11048   3.153   4.137   4.722 -0.1262  1.2382  0.8231
  108OSM   C18S11049   3.197   3.924   4.712  0.0692 -0.5073  0.0996
  108OSM   H18S11050   3.181   3.889   4.608 -3.4063 -0.9045  0.6349
  108OSM   H18T11051   3.098   3.913   4.762 -0.5647  0.4214 -0.9046
  108OSM   H18U11052   3.276   3.864   4.762 -0.7922 -0.4206  1.6401
  108OSM    C1F11053   3.068   3.645   6.031 -0.5092  0.0310  0.0211
  108OSM     OF11054   2.974   3.720   6.068 -0.4615  0.2128  0.1628
  108OSM    C2F11055   3.072   3.561   5.904 -1.0154  0.1798 -0.5834
  108OSM    H2F11056   3.007   3.472   5.918 -0.8531 -0.1008 -1.5369
  108OSM    H2G11057   3.177   3.541   5.877 -1.1419 -0.2913 -0.7360
  108OSM    C3F11058   3.006   3.642   5.792 -0.2700  0.1800 -0.2314
  108OSM    H3F11059   3.029   3.751   5.793 -0.0890  0.1401  0.7344
  108OSM    H3G11060   2.895   3.633   5.799 -0.0888 -2.6121  0.2383
  108OSM    C4F11061   3.060   3.602   5.648  0.6899 -0.4191  0.1504
  108OSM    H4F11062   3.050   3.493   5.632  1.0813 -0.2305 -1.6052
  108OSM    H4G11063   3.169   3.625   5.643  0.9330 -1.0247  2.0070
  108OSM    C5F11064   2.985   3.676   5.531 -0.8046  0.0550 -0.3725
  108OSM    H5F11065   3.026   3.779   5.537 -0.7897 -0.0075  1.1356
  108OSM    H5G11066   2.876   3.670   5.551 -0.5846  0.9517  1.2558
  108OSM    C6F11067   3.032   3.620   5.402  0.1357  0.9964  0.4120
  108OSM    H6F11068   2.962   3.655   5.322 -0.6974 -1.3378  0.0427
  108OSM    H6G11069   3.020   3.510   5.401 -0.4557  1.0487  1.0833
  108OSM    C7F11070   3.184   3.656   5.365 -0.0997  0.0795 -0.0796
  108OSM    H7F11071   3.250   3.606   5.439 -0.3030 -0.2068 -0.0868
  108OSM    H7G11072   3.209   3.762   5.384  0.8770 -0.4067  1.5785
  108OSM    C8F11073   3.220   3.607   5.221 -0.0995 -0.0440 -0.5625
  108OSM    H8F11074   3.198   3.500   5.202  1.2446  0.0473 -2.8839
  108OSM    H8G11075   3.329   3.625   5.210 -0.0796  1.0142  1.0207
  108OSM    C9F11076   3.147   3.694   5.118  0.2936 -0.8571 -0.7853
  108OSM    H9F11077   3.136   3.798   5.152 -0.4223 -0.9007 -0.8657
  108OSM   C10F11078   3.093   3.668   4.999 -0.0085 -0.1976  0.1214
  108OSM   H10F11079   3.056   3.750   4.935 -1.5467  0.1301  1.3717
  108OSM   C11F11080   3.083   3.534   4.935 -0.0975  0.6486 -0.2695
  108OSM   H11F11081   2.991   3.474   4.955  1.2128 -2.0684 -1.8743
  108OSM   H11G11082   3.167   3.474   4.976 -1.2373  0.0260  1.3005
  108OSM   C12F11083   3.109   3.530   4.779 -0.2065 -0.2434 -0.6207
  108OSM   H12F11084   3.192   3.602   4.765 -0.7803  0.6346  0.3324
  108OSM   H12G11085   3.017   3.570   4.731 -0.0524 -1.5639 -2.0637
  108OSM   C13F11086   3.150   3.395   4.716 -0.3417 -0.5464  0.1767
  108OSM   H13F11087   3.209   3.337   4.790 -0.6216  1.5398  2.1428
  108OSM   H13G11088   3.208   3.420   4.625 -2.0178 -2.0227 -1.3643
  108OSM   C14F11089   3.020   3.316   4.673 -0.9708 -0.1400  0.2992
  108OSM   H14F11090   2.942   3.383   4.630  0.4291  2.4639  1.5699
  108OSM   H14G11091   2.982   3.275   4.769 -0.1435 -0.0431  0.6713
  108OSM   C15F11092   3.052   3.219   4.561  0.4255  1.2325 -0.3880
  108OSM   H15F11093   3.128   3.145   4.594 -2.2546 -2.1198 -1.1798
  108OSM   H15G11094   3.099   3.263   4.470 -2.0498  0.4294 -2.1734
  108OSM   C16F11095   2.936   3.121   4.521 -0.3265 -0.3364 -0.0865
  108OSM   H16F11096   2.881   3.078   4.607  1.9047  1.0766  2.1955
  108OSM   H16G11097   2.974   3.036   4.461  0.8551 -1.0760  1.6316
  108OSM   C17F11098   2.848   3.205   4.433  0.2715  0.1832  0.6813
  108OSM   H17F11099   2.910   3.253   4.354 -0.2411 -0.2371  0.0111
  108OSM   H17G11100   2.792   3.291   4.475 -0.9132  0.7112 -1.7548
  108OSM   C18F11101   2.748   3.120   4.345 -0.0304  0.3009 -0.8239
  108OSM   H18F11102   2.663   3.085   4.407  1.8495 -1.9315  0.6570
  108OSM   H18G11103   2.799   3.025   4.318  0.3544 -0.2715  1.6788
  108OSM   H18H11104   2.720   3.173   4.252 -2.4315  0.1054 -0.2711
  109OSM      N11105   2.314   6.084   6.855  0.0167 -0.0083  0.5045
  109OSM    C1511106   2.428   6.068   6.756 -0.3346 -0.6196 -0.3209
  109OSM   H15A11107   2.441   6.159   6.699  0.7513 -1.1259 -0.9133
  109OSM   H15B11108   2.405   5.993   6.682 -0.1263  1.1896 -2.3336
  109OSM   H15C11109   2.524   6.038   6.795  1.2638  0.5301 -3.1019
  109OSM    C1411110   2.301   5.953   6.924  0.7033 -0.8028  0.5351
  109OSM   H14A11111   2.375   5.939   7.001  1.3235  2.5222  0.6917
  109OSM   H14B11112   2.317   5.870   6.856 -0.6567  0.4494 -1.4126
  109OSM   H14C11113   2.197   5.947   6.954 -0.3139  1.4581 -2.0882
  109OSM    C1311114   2.349   6.187   6.960 -0.1954 -0.5217  0.0918
  109OSM   H13A11115   2.435   6.151   7.015 -0.2856  0.3341  0.8119
  109OSM   H13B11116   2.262   6.194   7.023 -0.6420  0.0106 -0.5701
  109OSM   H13C11117   2.377   6.282   6.915 -1.6611 -0.3520 -0.4941
  109OSM    C1211118   2.185   6.124   6.775  0.7870 -0.1589 -0.2465
  109OSM   H12A11119   2.203   6.220   6.729  1.9609 -0.5027 -0.5505
  109OSM   H12B11120   2.118   6.145   6.856  2.4348  0.6527  0.9664
  109OSM    C1111121   2.121   6.027   6.680  0.4445  0.1771 -0.5230
  109OSM   H11A11122   2.173   6.021   6.582  1.7266  1.1379  0.0638
  109OSM   H11B11123   2.017   6.064   6.668 -0.3257 -0.9865  1.8216
  109OSM      P11124   1.963   5.829   6.722  0.6798  0.3968 -0.4954
  109OSM    O1311125   1.978   5.684   6.742 -0.5514 -0.3175  0.0707
  109OSM    O1411126   1.868   5.901   6.811  0.1487  0.3851 -0.4051
  109OSM    O1111127   1.921   5.848   6.575 -1.0154 -0.3828 -0.0583
  109OSM    O1211128   2.105   5.895   6.738 -0.1414  0.2522  0.1308
  109OSM    C1S11129   2.008   5.785   6.480 -0.0449 -0.2118  0.0803
  109OSM    H1S11130   2.003   5.675   6.495 -0.9309 -0.0486  1.1573
  109OSM    H1T11131   2.113   5.818   6.490 -0.7614  2.0195  0.9116
  109OSM     NF11132   2.047   5.743   6.234 -0.3107 -0.4993  0.0528
  109OSM    HNF11133   2.112   5.791   6.175  0.7290 -1.5714  0.3047
  109OSM    C2S11134   1.964   5.809   6.330  0.1592 -0.3263  0.5853
  109OSM    H2S11135   1.861   5.773   6.312 -0.5520  2.1591 -0.7241
  109OSM    C3S11136   1.953   5.966   6.311  0.1609 -0.2830 -0.1608
  109OSM    H3S11137   2.048   6.018   6.339 -0.0842 -0.5617  1.2203
  109OSM     O311138   1.847   6.017   6.382  0.1073 -0.1133  0.0190
  109OSM    HO311139   1.828   5.954   6.453 -0.6917 -0.3397 -0.3884
  109OSM    C4S11140   1.925   6.004   6.167 -0.6158  0.8282 -0.2190
  109OSM    H4S11141   1.826   5.975   6.131 -0.8878  1.6990 -0.1870
  109OSM    C5S11142   2.007   6.073   6.085  0.9726 -0.7815  0.0560
  109OSM    H5S11143   2.108   6.100   6.118  0.6884  1.2437 -0.5438
  109OSM    C6S11144   1.962   6.113   5.943 -0.2383 -0.6994  0.2879
  109OSM    H6S11145   1.954   6.223   5.931  0.2932 -0.4913  1.6839
  109OSM    H6T11146   1.862   6.074   5.913 -0.4106  0.9107 -1.4359
  109OSM    C7S11147   2.046   6.055   5.826  0.0954  0.4128  0.2257
  109OSM    H7S11148   2.042   5.945   5.844 -4.3789 -0.1822 -2.6190
  109OSM    H7T11149   2.152   6.088   5.826  0.2705 -0.1159  1.0120
  109OSM    C8S11150   2.002   6.091   5.686  0.3025 -0.2359  0.0518
  109OSM    H8S11151   2.032   6.198   5.685  4.7478 -1.2586 -2.3789
  109OSM    H8T11152   1.891   6.078   5.687  0.1857  0.6560 -0.4024
  109OSM    C9S11153   2.063   6.008   5.572 -0.1433  0.0296  0.5833
  109OSM    H9S11154   2.018   6.043   5.476 -1.9889  2.1410  2.1030
  109OSM    H9T11155   2.041   5.902   5.594 -0.1457  0.0811  0.8308
  109OSM   C10S11156   2.219   6.022   5.557  0.7511  0.0528  0.7320
  109OSM   H10S11157   2.254   5.985   5.656 -0.7551 -0.2102  1.1998
  109OSM   H10T11158   2.241   6.129   5.541  2.4150 -0.2780  0.6079
  109OSM   C11S11159   2.272   5.944   5.435 -0.1523  0.6377 -0.6725
  109OSM   H11S11160   2.248   5.836   5.442  0.5363  0.5702  1.0315
  109OSM   H11T11161   2.382   5.957   5.431  0.2815 -2.0936  0.4579
  109OSM   C12S11162   2.221   5.999   5.297 -0.0593  0.2897 -0.7765
  109OSM   H12S11163   2.250   6.106   5.288 -3.9237  1.6677  0.9067
  109OSM   H12T11164   2.113   5.985   5.274 -0.0641 -0.3029 -0.4258
  109OSM   C13S11165   2.263   5.912   5.181  0.0461 -0.0075 -0.1883
  109OSM   H13S11166   2.229   5.807   5.193  2.1027 -0.4854  2.6499
  109OSM   H13T11167   2.374   5.915   5.182  0.1091  1.7376 -2.7440
  109OSM   C14S11168   2.231   5.941   5.035  0.0207  0.8110  0.1638
  109OSM   H14S11169   2.130   5.986   5.042 -0.4347 -0.3701  2.4746
  109OSM   H14T11170   2.219   5.845   4.981 -1.1047  1.2732 -0.4400
  109OSM   C15S11171   2.336   6.028   4.966  0.2056 -0.4625  0.1434
  109OSM   H15S11172   2.434   5.977   4.962  1.1511  1.1565  1.3969
  109OSM   H15T11173   2.360   6.118   5.026 -0.2003  0.3479 -0.8721
  109OSM   C16S11174   2.293   6.085   4.829 -0.6777 -0.8960  0.6349
  109OSM   H16S11175   2.191   6.131   4.834 -0.9974 -1.2625 -1.3461
  109OSM   H16T11176   2.300   6.000   4.757  0.8086  0.3077 -0.7173
  109OSM   C17S11177   2.380   6.202   4.774  0.0752  0.2219 -0.2217
  109OSM   H17S11178   2.484   6.172   4.799  0.8436  1.8915 -1.2896
  109OSM   H17T11179   2.352   6.301   4.816  0.0427  0.6168 -1.1451
  109OSM   C18S11180   2.373   6.230   4.621 -0.0841 -0.0979  0.5189
  109OSM   H18S11181   2.441   6.314   4.596  1.5016 -1.4741  0.0921
  109OSM   H18T11182   2.265   6.250   4.603  0.1909  0.6817 -0.3387
  109OSM   H18U11183   2.404   6.138   4.567 -0.7865 -0.3199  0.4715
  109OSM    C1F11184   2.052   5.606   6.221 -0.5511  0.2901  0.2940
  109OSM     OF11185   1.970   5.532   6.274 -0.9956  0.0899  0.0200
  109OSM    C2F11186   2.164   5.557   6.129  1.0397  0.0086  0.6195
  109OSM    H2F11187   2.200   5.462   6.175 -2.3555 -2.1954 -0.8848
  109OSM    H2G11188   2.246   5.630   6.116  0.0966  1.0967  0.6448
  109OSM    C3F11189   2.109   5.530   5.986  0.3922  0.7147 -0.0204
  109OSM    H3F11190   2.019   5.467   6.002  0.5253 -0.0799 -2.0077
  109OSM    H3G11191   2.190   5.476   5.931  0.6934 -0.7103  1.7468
  109OSM    C4F11192   2.077   5.648   5.898  0.3126 -0.5244 -0.3841
  109OSM    H4F11193   2.172   5.701   5.875 -0.5448  0.5295 -1.6261
  109OSM    H4G11194   2.007   5.716   5.951 -0.4724  0.4287 -2.5508
  109OSM    C5F11195   2.000   5.604   5.773  0.5289  0.5438 -0.5180
  109OSM    H5F11196   1.955   5.692   5.722 -0.1491 -0.1807 -1.2165
  109OSM    H5G11197   1.919   5.539   5.812  2.5584 -1.3429  0.7976
  109OSM    C6F11198   2.091   5.536   5.668  0.1081  0.3502  0.2286
  109OSM    H6F11199   2.141   5.447   5.710  1.6361  0.9543 -0.2346
  109OSM    H6G11200   2.165   5.614   5.640 -1.3053  0.7732 -2.6754
  109OSM    C7F11201   2.012   5.499   5.539  0.1458  0.3198  0.5040
  109OSM    H7F11202   1.926   5.562   5.508 -0.9137 -1.1997  0.2128
  109OSM    H7G11203   1.956   5.407   5.568  3.3004 -1.2500  2.0184
  109OSM    C8F11204   2.108   5.486   5.419 -0.0833 -0.4113  0.8024
  109OSM    H8F11205   2.145   5.590   5.403 -0.1456 -0.7221 -1.8411
  109OSM    H8G11206   2.074   5.438   5.324  2.9942 -0.8869 -0.1797
  109OSM    C9F11207   2.228   5.400   5.446  0.2851  0.8592  0.0022
  109OSM    H9F11208   2.208   5.318   5.516  1.9700  1.0791  0.8058
  109OSM   C10F11209   2.345   5.410   5.376  0.2056 -0.1092 -0.5298
  109OSM   H10F11210   2.428   5.352   5.419 -2.2183 -2.8936  0.7614
  109OSM   C11F11211   2.372   5.516   5.272 -0.0807  0.0884  0.2302
  109OSM   H11F11212   2.452   5.579   5.317  0.9062 -0.6340 -0.4479
  109OSM   H11G11213   2.287   5.586   5.260 -1.0213 -1.0629  0.0055
  109OSM   C12F11214   2.418   5.472   5.134  0.0865  0.0570  0.0560
  109OSM   H12F11215   2.325   5.428   5.092 -0.0941  1.1878 -0.7808
  109OSM   H12G11216   2.499   5.396   5.134  0.7933  0.7841  1.1297
  109OSM   C13F11217   2.439   5.591   5.049  0.1559 -0.5753 -0.1694
  109OSM   H13F11218   2.541   5.634   5.063  0.3834 -1.5401  1.3208
  109OSM   H13G11219   2.371   5.675   5.074  1.8105  1.1732 -1.2175
  109OSM   C14F11220   2.426   5.566   4.894 -0.1835  0.3726 -0.7329
  109OSM   H14F11221   2.317   5.569   4.875  0.0376 -1.6274 -2.7017
  109OSM   H14G11222   2.477   5.468   4.880 -0.6548  0.1199 -0.6864
  109OSM   C15F11223   2.479   5.690   4.813 -0.5404  0.1810 -0.1573
  109OSM   H15F11224   2.581   5.717   4.848 -1.6490  0.3551  3.3606
  109OSM   H15G11225   2.425   5.785   4.834 -1.0875  0.1921 -1.5084
  109OSM   C16F11226   2.481   5.674   4.660  0.4827 -0.2966  0.0371
  109OSM   H16F11227   2.527   5.580   4.623  0.5411 -0.8621  1.4635
  109OSM   H16G11228   2.543   5.752   4.609 -0.3851  0.6557  0.3975
  109OSM   C17F11229   2.338   5.673   4.598  0.4597  0.4594 -0.3060
  109OSM   H17F11230   2.292   5.773   4.613 -0.3297  0.2509 -1.2620
  109OSM   H17G11231   2.276   5.601   4.654  2.5345  0.1170  1.6701
  109OSM   C18F11232   2.342   5.646   4.448 -0.4108 -0.3102 -0.4334
  109OSM   H18F11233   2.386   5.547   4.425 -1.6935 -1.2753  1.0786
  109OSM   H18G11234   2.401   5.725   4.397 -0.5787  0.2815  0.2613
  109OSM   H18H11235   2.239   5.646   4.406 -0.8873  0.0045  0.6993
  110OSM      N11236   0.712   1.849   6.834 -0.3720  0.4592 -0.0576
  110OSM    C1511237   0.850   1.786   6.858  0.5348  0.0650  0.2855
  110OSM   H15A11238   0.866   1.736   6.953  0.2529 -1.0269 -0.2220
  110OSM   H15B11239   0.929   1.860   6.862  1.9483 -1.0341 -3.2199
  110OSM   H15C11240   0.872   1.718   6.777  3.7900 -0.3424  1.3443
  110OSM    C1411241   0.604   1.746   6.860 -0.6500 -0.0235 -1.1122
  110OSM   H14A11242   0.628   1.685   6.945  1.9193  0.6460 -1.2851
  110OSM   H14B11243   0.609   1.681   6.774 -0.9734  1.1851 -2.0862
  110OSM   H14C11244   0.503   1.785   6.864 -0.8184 -0.4379  2.9197
  110OSM    C1311245   0.702   1.963   6.926 -0.0917  0.2830  0.4887
  110OSM   H13A11246   0.702   1.923   7.027  0.6109 -1.3869 -0.1219
  110OSM   H13B11247   0.612   2.022   6.925 -0.3106 -0.0473  0.0980
  110OSM   H13C11248   0.780   2.037   6.918 -1.7808  2.2095  1.0084
  110OSM    C1211249   0.697   1.899   6.692 -0.3857  0.5798  0.2475
  110OSM   H12A11250   0.787   1.952   6.666 -1.3673  2.0015 -0.4016
  110OSM   H12B11251   0.622   1.977   6.689 -1.0683 -0.1143 -1.4968
  110OSM    C1111252   0.661   1.792   6.590 -0.1103  0.1736  0.7166
  110OSM   H11A11253   0.658   1.845   6.493  1.7316  0.1972  0.6406
  110OSM   H11B11254   0.560   1.746   6.601 -0.4764  0.6660 -0.4757
  110OSM      P11255   0.894   1.702   6.512 -0.0105 -0.1879 -0.3253
  110OSM    O1311256   1.013   1.682   6.599  0.4139 -0.4583  0.4842
  110OSM    O1411257   0.868   1.609   6.397 -0.3295  0.7708 -0.3175
  110OSM    O1111258   0.896   1.847   6.447 -0.1179  0.0826  0.7150
  110OSM    O1211259   0.757   1.686   6.595  0.4124 -0.0807 -0.0591
  110OSM    C1S11260   1.010   1.918   6.414  0.1411 -0.6718  0.2190
  110OSM    H1S11261   1.100   1.853   6.406 -0.7176 -2.0282  1.1718
  110OSM    H1T11262   1.045   1.997   6.484  1.5671 -0.4914 -0.6428
  110OSM     NF11263   1.108   2.046   6.228  0.4549  0.5584  0.7907
  110OSM    HNF11264   1.124   2.144   6.234  1.4780  0.7139 -2.2751
  110OSM    C2S11265   0.985   1.982   6.274 -0.4660 -0.1982 -0.4151
  110OSM    H2S11266   0.950   1.894   6.215 -2.2446 -2.4273  3.5390
  110OSM    C3S11267   0.861   2.076   6.294 -0.0043 -0.2089 -0.6642
  110OSM    H3S11268   0.896   2.141   6.377  0.0669  1.5400 -2.0097
  110OSM     O311269   0.738   2.019   6.338  0.4548  0.5709 -0.0574
  110OSM    HO311270   0.751   1.932   6.376  0.7206  0.3833 -0.5822
  110OSM    C4S11271   0.828   2.161   6.174  0.1402  0.2200  0.0655
  110OSM    H4S11272   0.783   2.092   6.101 -0.1411 -0.7797  1.1474
  110OSM    C5S11273   0.826   2.297   6.161  0.0756 -0.6467  0.2414
  110OSM    H5S11274   0.857   2.366   6.241  0.9973  3.2685 -3.1525
  110OSM    C6S11275   0.772   2.362   6.037 -0.0332 -0.3942  0.5089
  110OSM    H6S11276   0.703   2.445   6.063 -3.0821 -2.2164 -1.1023
  110OSM    H6T11277   0.705   2.294   5.979 -0.9236 -0.8066  1.9644
  110OSM    C7S11278   0.878   2.413   5.925 -0.2204 -0.1811 -0.8256
  110OSM    H7S11279   0.952   2.474   5.981 -0.8152 -0.1222 -0.0994
  110OSM    H7T11280   0.822   2.475   5.852  0.5851  0.2904 -1.0595
  110OSM    C8S11281   0.934   2.287   5.875 -0.0146  0.0046  0.3254
  110OSM    H8S11282   0.843   2.227   5.853  0.1886 -1.4341  2.8757
  110OSM    H8T11283   0.978   2.236   5.964 -1.8423 -1.9652  0.1935
  110OSM    C9S11284   1.034   2.300   5.755  0.1272 -0.5087  1.2412
  110OSM    H9S11285   1.084   2.205   5.726 -0.2445 -0.2809 -0.2259
  110OSM    H9T11286   1.111   2.374   5.785 -0.2379  0.8116 -0.8933
  110OSM   C10S11287   0.969   2.355   5.628  0.1672  0.8729  0.3902
  110OSM   H10S11288   0.944   2.463   5.623  1.2839  1.1651  0.7223
  110OSM   H10T11289   0.870   2.307   5.614 -0.0219  1.7786 -1.7406
  110OSM   C11S11290   1.046   2.338   5.495  0.4792  0.3568  0.7878
  110OSM   H11S11291   1.089   2.236   5.478 -1.4688 -0.6117  1.4194
  110OSM   H11T11292   1.127   2.414   5.504 -1.2758  2.1452  2.2029
  110OSM   C12S11293   0.950   2.365   5.375 -0.8512  0.1236  0.2065
  110OSM   H12S11294   0.910   2.466   5.399  0.4078  1.1085 -1.6525
  110OSM   H12T11295   0.862   2.297   5.383  0.5285 -1.5673  2.3362
  110OSM   C13S11296   1.022   2.354   5.241 -0.2435 -0.3850  0.8738
  110OSM   H13S11297   1.098   2.273   5.256  0.1811 -0.0121  0.7551
  110OSM   H13T11298   1.074   2.449   5.218 -2.2966  0.7944  0.8474
  110OSM   C14S11299   0.927   2.334   5.119  0.3187  0.1639  0.0226
  110OSM   H14S11300   0.869   2.426   5.096 -0.7728 -0.9511 -2.0466
  110OSM   H14T11301   0.853   2.255   5.143 -0.7892  0.8882 -0.8666
  110OSM   C15S11302   0.999   2.295   4.991 -0.2845  0.0413  0.7391
  110OSM   H15S11303   1.045   2.196   5.009 -1.2410 -0.1959  2.0538
  110OSM   H15T11304   1.077   2.367   4.957 -0.8310  0.6059  0.6523
  110OSM   C16S11305   0.904   2.278   4.868 -0.1725 -0.0890 -0.5264
  110OSM   H16S11306   0.827   2.358   4.871 -1.7275 -1.5647  2.2896
  110OSM   H16T11307   0.860   2.177   4.877  0.4507 -0.1574  3.0637
  110OSM   C17S11308   0.963   2.283   4.732  0.6635  0.5968  0.7181
  110OSM   H17S11309   0.896   2.246   4.652  1.7514  2.3925 -1.0944
  110OSM   H17T11310   1.056   2.221   4.730  0.7030  0.6689 -0.5531
  110OSM   C18S11311   0.998   2.422   4.687 -0.0717  0.4119 -0.1735
  110OSM   H18S11312   0.904   2.481   4.682 -0.4390 -0.2163 -1.2847
  110OSM   H18T11313   1.048   2.430   4.588 -2.3255  2.6256 -1.2371
  110OSM   H18U11314   1.071   2.466   4.757  1.4075 -0.5475 -1.0485
  110OSM    C1F11315   1.209   1.972   6.175 -0.3064 -0.8213 -0.3829
  110OSM     OF11316   1.193   1.848   6.161  0.2012 -0.5018  0.8668
  110OSM    C2F11317   1.328   2.044   6.135 -1.5432 -0.2812 -0.4786
  110OSM    H2F11318   1.409   2.023   6.208  0.0768 -1.1621 -2.4326
  110OSM    H2G11319   1.308   2.153   6.135 -0.3768 -0.0486 -1.4622
  110OSM    C3F11320   1.392   1.991   6.005 -0.7764  0.1851 -0.6814
  110OSM    H3F11321   1.422   1.885   6.021 -0.9859  0.2507  0.2549
  110OSM    H3G11322   1.480   2.057   5.988  0.8519 -1.4266  0.9103
  110OSM    C4F11323   1.297   2.002   5.887 -1.0878 -0.6771  0.3148
  110OSM    H4F11324   1.283   2.112   5.881  1.0683 -0.3431  0.3020
  110OSM    H4G11325   1.200   1.952   5.905 -1.3056 -0.1044  0.7610
  110OSM    C5F11326   1.359   1.949   5.760  0.1109  0.1302  0.0405
  110OSM    H5F11327   1.366   1.839   5.768 -0.2043  0.2827  4.4365
  110OSM    H5G11328   1.459   1.998   5.759  0.5744 -0.7925 -0.5603
  110OSM    C6F11329   1.287   2.004   5.636 -0.2267  0.6901  0.6421
  110OSM    H6F11330   1.251   2.109   5.646 -1.5207  0.4228 -0.8341
  110OSM    H6G11331   1.194   1.943   5.638 -1.4225  2.4220  0.7466
  110OSM    C7F11332   1.373   1.980   5.519 -0.6951 -0.0783 -0.5999
  110OSM    H7F11333   1.392   1.872   5.501 -0.7188 -0.1614 -0.1328
  110OSM    H7G11334   1.469   2.035   5.532 -0.4558 -0.4050 -0.9320
  110OSM    C8F11335   1.320   2.032   5.384 -0.3415  0.2113 -0.5696
  110OSM    H8F11336   1.279   2.135   5.394  1.5196  0.9133  0.3028
  110OSM    H8G11337   1.226   1.978   5.357 -1.5980  1.0120  1.9648
  110OSM    C9F11338   1.418   2.044   5.272 -0.3383 -1.4133 -0.0511
  110OSM    H9F11339   1.486   2.128   5.292  1.8257 -2.7849 -1.2694
  110OSM   C10F11340   1.429   1.980   5.159 -0.1630 -0.5931  0.2522
  110OSM   H10F11341   1.508   2.010   5.089 -0.8115  3.8893  1.1381
  110OSM   C11F11342   1.328   1.882   5.115  0.6119  0.1508 -0.0053
  110OSM   H11F11343   1.251   1.866   5.194  1.3855  0.4809  0.8357
  110OSM   H11G11344   1.375   1.785   5.088  0.8775 -0.1429  1.4329
  110OSM   C12F11345   1.254   1.923   4.987 -0.9021 -0.9101 -0.4793
  110OSM   H12F11346   1.198   2.016   5.009  2.5792  1.0249  0.9464
  110OSM   H12G11347   1.185   1.837   4.972  1.8969 -3.6425  1.2379
  110OSM   C13F11348   1.341   1.949   4.862  0.3672 -0.2379 -0.4778
  110OSM   H13F11349   1.391   1.850   4.858 -0.2506 -0.6531  1.1665
  110OSM   H13G11350   1.419   2.026   4.880  1.1543 -1.5663  2.2947
  110OSM   C14F11351   1.262   1.965   4.734  0.0831 -0.5458  0.8749
  110OSM   H14F11352   1.219   2.067   4.723  0.9227 -0.4729 -3.8210
  110OSM   H14G11353   1.184   1.887   4.725 -0.3109 -0.1260  0.5797
  110OSM   C15F11354   1.352   1.953   4.614  0.4389  0.3268  0.0793
  110OSM   H15F11355   1.291   1.954   4.521 -1.1009 -0.9125  1.0350
  110OSM   H15G11356   1.407   1.856   4.609 -0.6860 -0.2782 -3.6224
  110OSM   C16F11357   1.471   2.049   4.592 -0.1168  0.2452 -0.1867
  110OSM   H16F11358   1.549   2.039   4.671  0.9444 -0.3699 -1.2735
  110OSM   H16G11359   1.440   2.155   4.600 -1.2840  0.0612 -1.8091
  110OSM   C17F11360   1.528   2.034   4.450 -0.2894 -0.3307  0.2683
  110OSM   H17F11361   1.600   2.116   4.430  1.4381 -1.8977 -0.2317
  110OSM   H17G11362   1.446   2.023   4.376 -2.1530 -1.2346  2.3339
  110OSM   C18F11363   1.613   1.904   4.448  0.7158  0.1710  0.6731
  110OSM   H18F11364   1.656   1.883   4.549  1.1241 -1.7087  0.1581
  110OSM   H18G11365   1.687   1.902   4.365 -0.0875  2.2151 -0.1373
  110OSM   H18H11366   1.537   1.825   4.429 -1.1802  1.8634  0.9180
  111OSM      N11367   5.130   0.922   7.157 -0.2228  0.0276 -0.2749
  111OSM    C1511368   5.192   1.062   7.146  0.1664 -0.0810 -0.2203
  111OSM   H15A11369   5.121   1.143   7.153  0.6874  0.4328 -0.6776
  111OSM   H15B11370   5.228   1.072   7.044 -3.1846 -1.9188 -1.7269
  111OSM   H15C11371   5.270   1.087   7.217 -1.1969  2.2248  0.5945
  111OSM    C1411372   5.243   0.828   7.152  0.0792  0.2626  0.3862
  111OSM   H14A11373   5.208   0.726   7.150  1.6604 -0.2910 -0.8539
  111OSM   H14B11374   5.317   0.842   7.229 -0.3414  3.8207  0.3144
  111OSM   H14C11375   5.295   0.846   7.059  0.1537 -1.1374  0.1269
  111OSM    C1311376   5.063   0.927   7.295 -0.3453 -0.0286  0.7797
  111OSM   H13A11377   4.963   0.968   7.287 -1.3435 -2.5428 -0.7493
  111OSM   H13B11378   5.107   0.982   7.377  0.1350 -1.4950  1.5464
  111OSM   H13C11379   5.031   0.835   7.341 -2.7176  0.6120  0.5299
  111OSM    C1211380   5.031   0.904   7.048 -0.7608  0.4071  0.2290
  111OSM   H12A11381   4.947   0.966   7.073 -2.7339 -1.9355 -0.2702
  111OSM   H12B11382   4.994   0.803   7.046  1.1135 -0.3177 -0.4269
  111OSM    C1111383   5.066   0.932   6.902 -0.1722 -0.8710 -0.0897
  111OSM   H11A11384   5.106   1.036   6.895 -1.1202 -0.5505 -1.0105
  111OSM   H11B11385   4.968   0.926   6.850 -1.4477  1.8252  1.7444
  111OSM      P11386   5.132   0.688   6.817 -0.1638 -0.2558 -0.1513
  111OSM    O1311387   5.257   0.609   6.824  0.5859 -0.0483  0.0126
  111OSM    O1411388   5.019   0.637   6.897 -0.0191  0.3587 -0.0371
  111OSM    O1111389   5.090   0.697   6.663 -0.2028 -0.4449 -0.7583
  111OSM    O1211390   5.159   0.833   6.860  0.2906  0.0491 -0.2439
  111OSM    C1S11391   4.954   0.693   6.619 -0.3201 -0.7542 -0.3014
  111OSM    H1S11392   4.904   0.785   6.655 -0.4437 -0.4273 -1.2773
  111OSM    H1T11393   4.899   0.607   6.664  2.9053 -1.9465  1.6964
  111OSM     NF11394   4.819   0.728   6.415  0.1017 -0.0967 -0.0376
  111OSM    HNF11395   4.770   0.655   6.368 -0.3293  0.1765 -0.0194
  111OSM    C2S11396   4.942   0.686   6.470 -0.8370  0.1589  0.2063
  111OSM    H2S11397   5.007   0.769   6.434  0.7392 -0.3457  1.7546
  111OSM    C3S11398   4.993   0.549   6.415 -0.1892 -0.1887  0.4787
  111OSM    H3S11399   4.903   0.485   6.426 -0.8648  0.9214  1.6211
  111OSM     O311400   5.100   0.487   6.483 -0.5040  0.1515 -0.0179
  111OSM    HO311401   5.114   0.536   6.564 -0.3767  0.1672 -0.0476
  111OSM    C4S11402   5.023   0.553   6.269 -0.1759 -0.0083 -0.3780
  111OSM    H4S11403   4.928   0.549   6.213 -0.2446 -0.3355 -0.2377
  111OSM    C5S11404   5.134   0.579   6.196  0.2707  0.1158  0.0221
  111OSM    H5S11405   5.229   0.600   6.248  1.6653 -3.4270 -0.7758
  111OSM    C6S11406   5.129   0.575   6.045 -0.0206  1.1384 -0.3755
  111OSM    H6S11407   5.214   0.640   6.012  0.9254  0.2116  0.1656
  111OSM    H6T11408   5.035   0.607   5.995 -0.2265 -2.5055 -2.6253
  111OSM    C7S11409   5.153   0.439   5.981  0.2128 -0.2063  0.1908
  111OSM    H7S11410   5.091   0.359   6.026 -0.5945  0.9357  1.1977
  111OSM    H7T11411   5.260   0.412   5.994  1.0697  0.8807 -3.4374
  111OSM    C8S11412   5.123   0.446   5.830 -0.0646 -0.4860 -0.8211
  111OSM    H8S11413   5.176   0.531   5.783  2.5992 -2.1385 -0.9956
  111OSM    H8T11414   5.016   0.476   5.834  0.1774  0.2875 -0.0119
  111OSM    C9S11415   5.163   0.326   5.752 -0.7343  0.4983 -0.0156
  111OSM    H9S11416   5.091   0.245   5.777  1.1314 -1.0223  0.7232
  111OSM    H9T11417   5.269   0.299   5.775  0.6371  1.3344 -4.5077
  111OSM   C10S11418   5.157   0.348   5.597 -0.4890  0.4412 -0.0604
  111OSM   H10S11419   5.201   0.259   5.547 -0.1781  0.4738  0.1489
  111OSM   H10T11420   5.224   0.433   5.573  0.9635 -0.9862 -1.2827
  111OSM   C11S11421   5.015   0.370   5.547  0.0669 -0.5416 -0.5504
  111OSM   H11S11422   4.973   0.472   5.562  0.8849  0.2144 -2.9783
  111OSM   H11T11423   4.952   0.295   5.601 -0.7945  1.5786  1.5494
  111OSM   C12S11424   5.000   0.351   5.397 -0.3682  0.2200  0.3456
  111OSM   H12S11425   5.050   0.253   5.383  0.4247  0.3612  1.8673
  111OSM   H12T11426   5.076   0.425   5.364  1.0378 -0.5591  1.6795
  111OSM   C13S11427   4.866   0.354   5.328  0.3070 -0.8454  0.3827
  111OSM   H13S11428   4.831   0.459   5.340  1.7728 -0.6052  3.4346
  111OSM   H13T11429   4.801   0.276   5.372 -0.4802 -0.7809 -0.6206
  111OSM   C14S11430   4.882   0.330   5.170 -0.0859 -0.3828  0.1961
  111OSM   H14S11431   4.925   0.227   5.172  3.4103  0.9080 -1.3348
  111OSM   H14T11432   4.961   0.394   5.126 -1.1259 -0.6707 -2.2655
  111OSM   C15S11433   4.756   0.351   5.087 -1.0227 -0.0383  0.4632
  111OSM   H15S11434   4.715   0.454   5.088 -1.6647 -0.2774 -0.1033
  111OSM   H15T11435   4.675   0.293   5.136 -0.6538 -1.3953 -0.4753
  111OSM   C16S11436   4.777   0.299   4.940  0.0794  0.0431  0.6170
  111OSM   H16S11437   4.676   0.307   4.895  0.7110  5.7760 -0.5869
  111OSM   H16T11438   4.822   0.197   4.945  1.1397  0.3521 -1.4233
  111OSM   C17S11439   4.869   0.382   4.851  0.4012 -0.3352  0.2772
  111OSM   H17S11440   4.975   0.381   4.883  1.1690  1.8986 -1.8641
  111OSM   H17T11441   4.835   0.487   4.865 -0.0471 -0.3950 -0.3403
  111OSM   C18S11442   4.888   0.352   4.704 -0.0527 -0.0065 -0.0678
  111OSM   H18S11443   4.936   0.253   4.685 -2.3583 -1.5070  1.3754
  111OSM   H18T11444   4.922   0.438   4.642  0.7843  0.3377  0.8550
  111OSM   H18U11445   4.790   0.334   4.654  0.5170  3.1373 -2.6413
  111OSM    C1F11446   4.766   0.853   6.436  0.5240  0.9378  0.8861
  111OSM     OF11447   4.836   0.944   6.484 -0.1235 -0.2343  0.7805
  111OSM    C2F11448   4.618   0.881   6.412 -0.1017  0.7532 -0.8453
  111OSM    H2F11449   4.592   0.926   6.510  1.3291  0.8128 -0.4825
  111OSM    H2G11450   4.572   0.781   6.395  2.2184 -0.9368  1.8655
  111OSM    C3F11451   4.582   0.974   6.290 -0.1571 -0.8143 -0.3155
  111OSM    H3F11452   4.637   0.934   6.202  0.3174  0.3838 -0.5837
  111OSM    H3G11453   4.609   1.079   6.317 -0.9155 -0.9265  0.9933
  111OSM    C4F11454   4.431   0.979   6.268 -0.0567 -0.3328 -0.1740
  111OSM    H4F11455   4.386   1.076   6.299 -1.6976 -1.0617 -0.2200
  111OSM    H4G11456   4.382   0.900   6.328 -1.2090  1.8985  1.9728
  111OSM    C5F11457   4.391   0.943   6.126  0.0596  0.4565  0.1276
  111OSM    H5F11458   4.413   0.835   6.113  2.1746  0.9756 -1.0786
  111OSM    H5G11459   4.450   1.002   6.053  0.3390 -0.5156 -0.4451
  111OSM    C6F11460   4.241   0.959   6.101  0.1622  0.2471 -0.3283
  111OSM    H6F11461   4.231   1.069   6.090  1.8388  0.5198  0.5417
  111OSM    H6G11462   4.187   0.934   6.194  0.7420  0.3851  0.0516
  111OSM    C7F11463   4.197   0.878   5.977  0.3698  0.4406  0.4263
  111OSM    H7F11464   4.087   0.877   5.964  0.3557  2.5796  0.0202
  111OSM    H7G11465   4.228   0.772   5.988 -2.3735 -0.6187 -1.0079
  111OSM    C8F11466   4.254   0.935   5.847  0.1837  0.2278 -1.0210
  111OSM    H8F11467   4.363   0.954   5.856  0.4245 -1.7315  1.2112
  111OSM    H8G11468   4.200   1.032   5.846  4.2839  2.8543  1.2945
  111OSM    C9F11469   4.216   0.848   5.729  0.7251  0.2626 -0.0109
  111OSM    H9F11470   4.154   0.761   5.752  0.2528  0.4574 -0.5025
  111OSM   C10F11471   4.236   0.893   5.603  0.1527  0.5246  0.8373
  111OSM   H10F11472   4.209   0.832   5.517  0.9027 -1.2532  1.8166
  111OSM   C11F11473   4.293   1.029   5.564 -0.2254  0.4545 -0.2744
  111OSM   H11F11474   4.403   1.027   5.547 -0.0522  1.1944  0.6480
  111OSM   H11G11475   4.291   1.109   5.641 -2.5846  0.5457 -0.3852
  111OSM   C12F11476   4.237   1.101   5.439  0.1643 -0.8505 -0.0176
  111OSM   H12F11477   4.261   1.208   5.457 -0.5530 -0.9634  1.7782
  111OSM   H12G11478   4.127   1.088   5.438 -0.2499  1.9439  0.7684
  111OSM   C13F11479   4.297   1.064   5.315 -0.7122 -0.7045 -0.1529
  111OSM   H13F11480   4.305   0.953   5.314  0.0750 -0.6498 -0.9539
  111OSM   H13G11481   4.397   1.111   5.308 -0.6630 -0.7909 -0.0426
  111OSM   C14F11482   4.225   1.110   5.183  0.2990  0.6372  0.0457
  111OSM   H14F11483   4.230   1.221   5.186 -0.4972  0.7528 -1.4830
  111OSM   H14G11484   4.117   1.084   5.187  0.4851 -0.3372 -0.6474
  111OSM   C15F11485   4.298   1.058   5.058  0.9293  0.3161 -0.8388
  111OSM   H15F11486   4.302   0.947   5.055 -0.5747  0.2187 -0.1892
  111OSM   H15G11487   4.401   1.096   5.070  0.8753 -0.1600  1.7600
  111OSM   C16F11488   4.239   1.110   4.927 -0.1630 -0.4656 -0.2569
  111OSM   H16F11489   4.195   1.211   4.938 -1.4304 -1.0211 -0.0733
  111OSM   H16G11490   4.157   1.042   4.897  1.8441 -2.6019 -1.2520
  111OSM   C17F11491   4.343   1.129   4.815  0.4923 -0.2567  0.7725
  111OSM   H17F11492   4.385   1.030   4.790  0.8780 -0.6132  2.7132
  111OSM   H17G11493   4.418   1.198   4.857 -0.7653  0.6327  1.6438
  111OSM   C18F11494   4.286   1.199   4.691 -0.1694  0.0450 -0.1797
  111OSM   H18F11495   4.215   1.128   4.642 -1.9307  0.1379  2.0716
  111OSM   H18G11496   4.359   1.221   4.610 -0.1352 -0.2577 -0.2317
  111OSM   H18H11497   4.233   1.297   4.698  1.6071  1.0089  0.1978
  112OSM      N11498   1.453   5.898   6.949 -0.3190  0.0410 -0.4110
  112OSM    C1511499   1.524   5.768   6.903 -0.0364  0.1733 -0.3159
  112OSM   H15A11500   1.619   5.786   6.855  1.0771 -0.6768  1.4865
  112OSM   H15B11501   1.465   5.737   6.817 -0.3600  0.4412 -0.1928
  112OSM   H15C11502   1.542   5.693   6.979  0.7758  0.0602 -0.6118
  112OSM    C1411503   1.311   5.863   6.987 -0.5056 -0.4481 -0.2247
  112OSM   H14A11504   1.292   5.815   7.082 -0.9450 -0.7202 -0.4449
  112OSM   H14B11505   1.273   5.796   6.911  0.3707 -1.8465  0.5249
  112OSM   H14C11506   1.253   5.953   6.976 -0.2637 -0.3624 -0.8310
  112OSM    C1311507   1.529   5.949   7.072 -0.4497  0.5845  0.1675
  112OSM   H13A11508   1.631   5.981   7.054  0.2508 -1.8512 -0.5118
  112OSM   H13B11509   1.530   5.862   7.136 -0.8610 -0.4647 -1.2118
  112OSM   H13C11510   1.485   6.037   7.116  0.3515  0.6870  0.7970
  112OSM    C1211511   1.453   5.998   6.831  0.4672 -0.1976 -0.4596
  112OSM   H12A11512   1.555   6.012   6.799  0.0250 -0.0149 -1.8567
  112OSM   H12B11513   1.403   6.087   6.867 -0.4599 -1.0438  0.4130
  112OSM    C1111514   1.371   5.965   6.699  0.2525  0.1214  0.3545
  112OSM   H11A11515   1.405   5.872   6.648 -0.7113  0.1579 -0.3977
  112OSM   H11B11516   1.396   6.041   6.622 -0.9061  0.2049  0.0385
  112OSM      P11517   1.134   5.933   6.589  0.0997  0.5873 -0.0011
  112OSM    O1311518   1.066   5.801   6.623 -0.5083  0.2467  0.1470
  112OSM    O1411519   1.048   6.047   6.558 -0.5818  0.3597 -0.0090
  112OSM    O1111520   1.224   5.910   6.466  0.0417  0.3942  0.1969
  112OSM    O1211521   1.228   5.968   6.714 -0.4652 -0.0122  0.2687
  112OSM    C1S11522   1.269   5.777   6.434  0.5103  1.0564 -0.0388
  112OSM    H1S11523   1.179   5.720   6.402 -1.3589  3.4739  0.6570
  112OSM    H1T11524   1.331   5.739   6.518  3.0007  2.5209 -1.0966
  112OSM     NF11525   1.385   5.639   6.266 -0.9198  0.0928 -0.2564
  112OSM    HNF11526   1.478   5.604   6.270 -0.1473  1.9215 -0.8138
  112OSM    C2S11527   1.354   5.778   6.309  0.3764  0.3158 -0.1209
  112OSM    H2S11528   1.288   5.817   6.228 -0.1961  1.5759  0.9086
  112OSM    C3S11529   1.481   5.868   6.320 -0.0224  0.0621 -0.1754
  112OSM    H3S11530   1.558   5.815   6.380 -3.0882 -1.0933  3.0352
  112OSM     O311531   1.448   5.999   6.368  0.3108 -0.0093 -0.1213
  112OSM    HO311532   1.356   5.985   6.394  0.5921 -1.8208  0.0365
  112OSM    C4S11533   1.545   5.860   6.185 -0.0679  0.5844  0.8469
  112OSM    H4S11534   1.609   5.771   6.185 -2.0073 -0.9452  3.0907
  112OSM    C5S11535   1.518   5.935   6.082 -0.3123 -0.2452  0.9443
  112OSM    H5S11536   1.444   6.015   6.095  0.6359  0.6764  0.7424
  112OSM    C6S11537   1.574   5.922   5.939  0.1829 -0.4159  0.5464
  112OSM    H6S11538   1.626   6.014   5.905 -0.5531  0.1709  0.9646
  112OSM    H6T11539   1.479   5.923   5.880 -0.2104 -1.7872  1.1184
  112OSM    C7S11540   1.638   5.785   5.915 -0.4511 -0.1990  0.9961
  112OSM    H7S11541   1.573   5.698   5.936 -0.9452  0.4367  2.2037
  112OSM    H7T11542   1.736   5.774   5.965  1.0062 -0.0993 -1.6521
  112OSM    C8S11543   1.666   5.770   5.763 -0.0315 -0.4681  0.3448
  112OSM    H8S11544   1.727   5.678   5.748 -1.0798 -0.9451 -1.2849
  112OSM    H8T11545   1.728   5.855   5.727 -1.3571 -0.1972 -1.4355
  112OSM    C9S11546   1.550   5.762   5.662 -0.4412  0.6345  0.3392
  112OSM    H9S11547   1.496   5.857   5.641  1.1618  1.8006  1.2356
  112OSM    H9T11548   1.479   5.690   5.709 -0.1188  0.2054  0.1636
  112OSM   C10S11549   1.581   5.709   5.530  0.2594  0.9845  0.7466
  112OSM   H10S11550   1.492   5.709   5.463 -1.1530 -2.0732  2.4252
  112OSM   H10T11551   1.607   5.602   5.546 -0.3815  0.5044 -1.1146
  112OSM   C11S11552   1.702   5.776   5.456 -1.1238  0.0542  1.0231
  112OSM   H11S11553   1.787   5.795   5.524  0.9342  0.7266 -1.5557
  112OSM   H11T11554   1.669   5.881   5.439  1.8100  1.0718  1.1129
  112OSM   C12S11555   1.742   5.702   5.328  0.1132  0.2387  0.2685
  112OSM   H12S11556   1.647   5.686   5.272 -0.2794 -1.7029  1.3872
  112OSM   H12T11557   1.772   5.601   5.365  1.7846  0.9699  0.9968
  112OSM   C13S11558   1.839   5.768   5.233 -0.5593 -0.4321 -0.1250
  112OSM   H13S11559   1.943   5.753   5.270 -1.6011 -2.7565  2.1785
  112OSM   H13T11560   1.819   5.876   5.224 -0.6132 -0.3382  0.9607
  112OSM   C14S11561   1.832   5.695   5.096  0.1309  0.1251 -0.1951
  112OSM   H14S11562   1.727   5.668   5.076  0.1369  0.1596 -0.2747
  112OSM   H14T11563   1.884   5.599   5.115 -0.0080 -0.8205 -3.8803
  112OSM   C15S11564   1.895   5.782   4.984 -0.2632 -0.6174 -0.6861
  112OSM   H15S11565   1.999   5.798   5.022  0.7063 -0.6214 -3.1655
  112OSM   H15T11566   1.844   5.880   4.975  0.3061 -0.0713  1.4290
  112OSM   C16S11567   1.909   5.716   4.848  0.0931  0.0029  0.0423
  112OSM   H16S11568   1.806   5.706   4.807  0.3689 -1.0085 -0.4389
  112OSM   H16T11569   1.937   5.609   4.858 -1.2704 -0.2840  1.1468
  112OSM   C17S11570   2.004   5.791   4.757 -0.2550  0.1023  0.1660
  112OSM   H17S11571   2.110   5.763   4.774 -0.4007 -1.7947 -1.5808
  112OSM   H17T11572   1.990   5.901   4.759  0.6422  0.2376 -0.4286
  112OSM   C18S11573   1.986   5.750   4.605  0.3519  0.6571  0.3747
  112OSM   H18S11574   1.878   5.728   4.592  0.0921  1.8127  0.4754
  112OSM   H18T11575   2.046   5.665   4.565  0.7526  1.6426 -1.1730
  112OSM   H18U11576   2.014   5.833   4.538  0.3028  0.6343  0.3258
  112OSM    C1F11577   1.309   5.544   6.223  0.2684 -0.5610 -0.7594
  112OSM     OF11578   1.193   5.572   6.199  0.0954 -0.1454 -0.8003
  112OSM    C2F11579   1.363   5.407   6.203  0.9467 -0.2055  0.4788
  112OSM    H2F11580   1.292   5.326   6.229  0.4050 -0.0413 -0.4729
  112OSM    H2G11581   1.445   5.404   6.278  3.0576 -2.4225 -1.7645
  112OSM    C3F11582   1.443   5.387   6.075 -0.5084 -0.1355 -0.4195
  112OSM    H3F11583   1.479   5.282   6.082 -0.9308 -0.2552  0.0691
  112OSM    H3G11584   1.525   5.462   6.067 -2.4026  2.1325  0.2958
  112OSM    C4F11585   1.364   5.377   5.950 -1.2337  0.2953  0.4601
  112OSM    H4F11586   1.310   5.474   5.941 -1.2966  0.5726  3.0005
  112OSM    H4G11587   1.289   5.296   5.955  0.1062 -1.2282 -2.2098
  112OSM    C5F11588   1.440   5.345   5.814  0.7884 -0.2910  0.0020
  112OSM    H5F11589   1.480   5.241   5.816  2.1830  0.1997 -0.8345
  112OSM    H5G11590   1.527   5.413   5.802 -0.7324  1.6572 -0.4411
  112OSM    C6F11591   1.348   5.348   5.684  0.5406 -0.5195  0.0231
  112OSM    H6F11592   1.296   5.445   5.700 -1.4002 -1.6035  0.7199
  112OSM    H6G11593   1.260   5.280   5.681  0.5560 -0.5366 -0.0297
  112OSM    C7F11594   1.427   5.339   5.555 -0.1307 -0.2249 -0.7502
  112OSM    H7F11595   1.472   5.238   5.550  2.9544  1.0532 -1.4349
  112OSM    H7G11596   1.510   5.413   5.559  0.5505 -1.0101  0.7281
  112OSM    C8F11597   1.352   5.357   5.425  0.4715 -0.3047  0.0596
  112OSM    H8F11598   1.259   5.296   5.428  1.8612 -2.5271 -0.0338
  112OSM    H8G11599   1.402   5.315   5.335 -0.6116  0.1978 -0.8052
  112OSM    C9F11600   1.313   5.500   5.392 -0.4468 -0.4646  0.3302
  112OSM    H9F11601   1.254   5.541   5.475 -2.0195 -1.1944 -0.3758
  112OSM   C10F11602   1.349   5.574   5.282 -0.0191 -0.1104 -0.6466
  112OSM   H10F11603   1.315   5.678   5.277 -0.4650 -0.2733 -1.1390
  112OSM   C11F11604   1.429   5.525   5.158 -0.2821  0.4038 -0.7045
  112OSM   H11F11605   1.500   5.446   5.192 -0.0395  0.5386 -0.8924
  112OSM   H11G11606   1.482   5.608   5.106  1.5870 -1.4854 -2.0044
  112OSM   C12F11607   1.351   5.462   5.039 -0.4243  0.1209 -0.7329
  112OSM   H12F11608   1.310   5.551   4.986 -0.2341  0.8225  0.2651
  112OSM   H12G11609   1.269   5.399   5.080  0.0009  0.5557  0.8518
  112OSM   C13F11610   1.437   5.376   4.943  0.2550 -0.2866  0.3808
  112OSM   H13F11611   1.362   5.343   4.868 -0.1551 -2.9535  1.8332
  112OSM   H13G11612   1.476   5.289   5.001  0.9326 -0.2298  0.0191
  112OSM   C14F11613   1.556   5.462   4.884 -0.3095  0.0145 -0.1623
  112OSM   H14F11614   1.624   5.479   4.970 -0.5315  0.5474 -0.0812
  112OSM   H14G11615   1.523   5.563   4.849 -1.7318 -0.9081 -1.5961
  112OSM   C15F11616   1.618   5.397   4.765  0.4750 -0.9210  0.5727
  112OSM   H15F11617   1.641   5.291   4.793  1.1399 -0.8521  0.3022
  112OSM   H15G11618   1.716   5.445   4.746 -0.7283  0.6621 -2.2989
  112OSM   C16F11619   1.535   5.405   4.633 -0.7345  0.0200  0.0555
  112OSM   H16F11620   1.491   5.505   4.610  1.2328  0.9344  0.0491
  112OSM   H16G11621   1.448   5.336   4.643 -0.4609 -0.2519  0.5626
  112OSM   C17F11622   1.623   5.356   4.511  0.7761 -0.3725 -1.2490
  112OSM   H17F11623   1.553   5.340   4.427  1.1630 -3.6984 -1.0640
  112OSM   H17G11624   1.671   5.258   4.532 -0.5555 -0.4904  1.8844
  112OSM   C18F11625   1.718   5.464   4.459  1.5724  0.9740  1.0238
  112OSM   H18F11626   1.801   5.470   4.532  2.2766 -1.1781  0.4700
  112OSM   H18G11627   1.667   5.560   4.435  2.2847  0.7199 -1.8862
  112OSM   H18H11628   1.752   5.415   4.365 -1.7269 -1.5963  1.0010
  113OSM      N11629   6.005   0.187   6.650 -0.1193 -0.3008 -0.8326
  113OSM    C1511630   6.095   0.158   6.759  0.2523  0.4479  0.4635
  113OSM   H15A11631   6.046   0.089   6.827  1.5477 -0.5855  0.3900
  113OSM   H15B11632   6.122   0.241   6.823  1.0106  0.1055  0.6038
  113OSM   H15C11633   6.181   0.104   6.724  1.2517  2.0796  0.3139
  113OSM    C1411634   5.907   0.293   6.692  0.3292 -0.3836  0.9233
  113OSM   H14A11635   5.842   0.245   6.764 -1.5752  1.1533  0.3170
  113OSM   H14B11636   5.844   0.319   6.608  0.7069 -1.6913  0.1994
  113OSM   H14C11637   5.955   0.378   6.737 -2.5106  1.9747 -0.2056
  113OSM    C1311638   6.096   0.257   6.556 -0.2745  1.3097 -0.1777
  113OSM   H13A11639   6.171   0.189   6.518 -0.5972  0.8903 -0.0631
  113OSM   H13B11640   6.145   0.341   6.603  2.5087  1.4306 -3.0222
  113OSM   H13C11641   6.042   0.297   6.472 -0.7765 -1.4590 -1.2902
  113OSM    C1211642   5.931   0.070   6.590  0.1031 -0.2598  0.8492
  113OSM   H12A11643   5.868   0.108   6.511 -1.6872 -2.0014  1.3606
  113OSM   H12B11644   5.859   0.049   6.667 -0.2034  2.6674  1.4635
  113OSM    C1111645   6.006  -0.059   6.554 -0.7071 -0.7047 -0.1822
  113OSM   H11A11646   6.053  -0.049   6.454 -0.4112 -3.0028 -0.3286
  113OSM   H11B11647   5.927  -0.136   6.535 -2.6455  1.0675  0.3279
  113OSM      P11648   6.057  -0.185   6.779 -0.0238  0.0980  0.3935
  113OSM    O1311649   6.163  -0.199   6.877 -0.1213  0.0307  0.1028
  113OSM    O1411650   5.920  -0.153   6.831  0.1045 -0.2236 -0.4224
  113OSM    O1111651   6.055  -0.329   6.716 -0.2974 -0.3770  0.0016
  113OSM    O1211652   6.096  -0.097   6.656 -0.2364  0.0915  0.1154
  113OSM    C1S11653   6.155  -0.369   6.619  0.2782  0.2299 -0.2292
  113OSM    H1S11654   6.252  -0.399   6.665  1.2880  0.1741 -2.2617
  113OSM    H1T11655   6.194  -0.293   6.548  2.4422 -1.0692 -0.5589
  113OSM     NF11656   6.207  -0.486   6.403 -0.9019  0.1636  0.1074
  113OSM    HNF11657   6.171  -0.470   6.312  0.6129  2.9154 -0.1247
  113OSM    C2S11658   6.108  -0.482   6.518 -0.5693 -0.2232  0.1275
  113OSM    H2S11659   6.125  -0.575   6.575 -3.1090 -0.5967  0.3746
  113OSM    C3S11660   5.959  -0.475   6.481 -0.1407 -0.5637 -0.5278
  113OSM    H3S11661   5.933  -0.385   6.422 -2.5585 -0.4145  0.6757
  113OSM     O311662   5.863  -0.469   6.587  0.0424  0.4030  0.0169
  113OSM    HO311663   5.898  -0.410   6.654 -2.4722  0.9365  0.9758
  113OSM    C4S11664   5.924  -0.592   6.389 -0.9151 -0.5546  0.1085
  113OSM    H4S11665   5.935  -0.568   6.282  1.0264  1.1405  0.6128
  113OSM    C5S11666   5.908  -0.715   6.439  0.1178 -0.0352  0.0345
  113OSM    H5S11667   5.926  -0.734   6.546  3.4386  1.7341 -0.0694
  113OSM    C6S11668   5.871  -0.839   6.354  0.1502 -0.0517  0.8283
  113OSM    H6S11669   5.782  -0.887   6.400  0.4025 -0.9969  0.3707
  113OSM    H6T11670   5.958  -0.908   6.354 -0.0600 -0.3280  1.8097
  113OSM    C7S11671   5.840  -0.820   6.206  0.3661 -0.0950 -0.3748
  113OSM    H7S11672   5.931  -0.770   6.166 -1.1211  4.7449  1.6240
  113OSM    H7T11673   5.755  -0.750   6.194  1.2567  1.3381  1.3142
  113OSM    C8S11674   5.815  -0.952   6.135 -1.0413 -0.1841 -0.0443
  113OSM    H8S11675   5.727  -0.998   6.186 -1.1953 -1.0412 -1.0560
  113OSM    H8T11676   5.904  -1.018   6.131 -1.0017 -0.0756 -1.1499
  113OSM    C9S11677   5.773  -0.920   5.994 -0.3231 -0.0616  0.1612
  113OSM    H9S11678   5.714  -0.826   5.990  1.3491  1.1022  1.3630
  113OSM    H9T11679   5.702  -0.994   5.952  0.3302  0.2027 -1.4561
  113OSM   C10S11680   5.896  -0.919   5.897 -0.1700  0.5023  0.0117
  113OSM   H10S11681   5.942  -1.020   5.906 -3.0761 -0.9009  0.3910
  113OSM   H10T11682   5.978  -0.855   5.935 -0.6212  1.3305 -0.3840
  113OSM   C11S11683   5.866  -0.897   5.754 -0.6306  0.4200  0.0970
  113OSM   H11S11684   5.838  -0.795   5.720 -1.4137 -0.0759 -0.7761
  113OSM   H11T11685   5.782  -0.963   5.726 -1.9088  1.6972  0.7755
  113OSM   C12S11686   5.976  -0.937   5.657 -0.6076 -0.3557  0.2364
  113OSM   H12S11687   6.008  -1.036   5.695  0.3442  1.0183  3.3257
  113OSM   H12T11688   6.056  -0.860   5.661  0.1096 -0.9291 -1.7639
  113OSM   C13S11689   5.924  -0.949   5.511 -0.2534  0.1752  0.0240
  113OSM   H13S11690   5.860  -0.864   5.479 -0.6388 -0.6570 -1.4986
  113OSM   H13T11691   5.843  -1.025   5.507 -1.2907  1.1932  0.9259
  113OSM   C14S11692   6.028  -0.971   5.397 -0.2484 -0.0961  0.3031
  113OSM   H14S11693   6.089  -1.062   5.416  0.5944  0.1409 -1.1310
  113OSM   H14T11694   6.101  -0.887   5.402  1.5139 -1.6414  1.9516
  113OSM   C15S11695   5.971  -0.977   5.251  0.8614  0.8077 -0.5558
  113OSM   H15S11696   5.881  -0.912   5.240 -0.2810 -0.5987  0.1767
  113OSM   H15T11697   5.931  -1.080   5.259  1.9330  0.5052  4.8618
  113OSM   C16S11698   6.067  -0.960   5.135 -0.8399  0.1267  0.4588
  113OSM   H16S11699   6.171  -1.000   5.137 -0.6371  0.5203 -0.8240
  113OSM   H16T11700   6.087  -0.856   5.101  2.7354 -1.0785 -1.7841
  113OSM   C17S11701   6.001  -1.017   5.009  0.3357 -0.2663 -0.4837
  113OSM   H17S11702   5.908  -0.959   4.994  1.9589  1.9774 -2.7238
  113OSM   H17T11703   5.973  -1.124   5.004  2.3488 -0.9199  0.7446
  113OSM   C18S11704   6.088  -1.011   4.885 -0.3866  0.2064 -0.3238
  113OSM   H18S11705   6.108  -0.908   4.848 -1.6739  0.1779 -1.1407
  113OSM   H18T11706   6.033  -1.064   4.805 -1.3573 -0.5862  0.8204
  113OSM   H18U11707   6.185  -1.063   4.904 -1.0392 -0.8484  0.1754
  113OSM    C1F11708   6.342  -0.519   6.416  0.3961 -0.3257  0.4353
  113OSM     OF11709   6.385  -0.543   6.529 -0.3322 -0.1650 -0.0391
  113OSM    C2F11710   6.417  -0.505   6.293  0.3225 -0.0544 -0.0517
  113OSM    H2F11711   6.378  -0.414   6.242  0.0053 -1.1107 -1.7348
  113OSM    H2G11712   6.400  -0.600   6.238  1.8633 -1.2544  1.4397
  113OSM    C3F11713   6.571  -0.489   6.305 -1.5419 -0.4065 -0.8651
  113OSM    H3F11714   6.623  -0.552   6.380  3.0190  2.7561 -0.9336
  113OSM    H3G11715   6.600  -0.385   6.331 -0.8711 -0.2652 -2.0849
  113OSM    C4F11716   6.645  -0.534   6.176  0.0259  0.5600 -0.2591
  113OSM    H4F11717   6.609  -0.633   6.141 -0.8542  1.1507 -1.0261
  113OSM    H4G11718   6.752  -0.546   6.207 -0.0533 -1.2383 -0.5292
  113OSM    C5F11719   6.621  -0.436   6.072 -0.4121 -0.1238  0.6463
  113OSM    H5F11720   6.669  -0.335   6.077  2.0887 -1.2709  1.3013
  113OSM    H5G11721   6.512  -0.415   6.066 -0.5564  0.0675  2.8586
  113OSM    C6F11722   6.676  -0.484   5.935  0.1086 -0.2165 -0.3319
  113OSM    H6F11723   6.621  -0.571   5.894  0.6680 -0.5937 -0.2943
  113OSM    H6G11724   6.776  -0.530   5.950  0.8753  1.6510  0.6510
  113OSM    C7F11725   6.705  -0.374   5.829 -0.2292 -0.4047  0.2967
  113OSM    H7F11726   6.774  -0.297   5.870  1.8483 -3.1203  2.3194
  113OSM    H7G11727   6.608  -0.328   5.802  1.2540  2.3935 -0.7464
  113OSM    C8F11728   6.768  -0.418   5.689  0.0157 -0.1711  0.3407
  113OSM    H8F11729   6.860  -0.478   5.710 -0.1721 -0.5963 -0.0332
  113OSM    H8G11730   6.801  -0.322   5.645  1.5133 -0.7414  0.1556
  113OSM    C9F11731   6.674  -0.500   5.601 -0.7806 -0.1138 -0.4189
  113OSM    H9F11732   6.660  -0.608   5.621 -0.2181 -0.3484 -1.2336
  113OSM   C10F11733   6.635  -0.457   5.481  0.6904 -0.7692 -0.1206
  113OSM   H10F11734   6.559  -0.516   5.429 -0.5076  0.0134  0.6912
  113OSM   C11F11735   6.644  -0.316   5.428 -0.0126  0.0253  0.0840
  113OSM   H11F11736   6.656  -0.243   5.511  2.3684  0.3072 -0.4222
  113OSM   H11G11737   6.546  -0.303   5.377  0.0915  0.2543 -0.0559
  113OSM   C12F11738   6.753  -0.290   5.327  0.1070  0.1585  0.2606
  113OSM   H12F11739   6.854  -0.292   5.374  0.7115  0.8372 -0.9706
  113OSM   H12G11740   6.748  -0.183   5.295  3.3989  0.7339  1.2672
  113OSM   C13F11741   6.739  -0.377   5.200  0.6547 -0.3009  0.4385
  113OSM   H13F11742   6.711  -0.479   5.232 -3.2950  0.9975  1.7970
  113OSM   H13G11743   6.830  -0.380   5.138  0.3725 -1.5281  0.0700
  113OSM   C14F11744   6.632  -0.330   5.100 -0.2464 -0.5622 -0.1021
  113OSM   H14F11745   6.652  -0.225   5.069 -2.7546  0.1800  0.5575
  113OSM   H14G11746   6.542  -0.323   5.165  1.7015 -0.7008  2.8415
  113OSM   C15F11747   6.615  -0.425   4.981  1.0982  0.9142  0.1334
  113OSM   H15F11748   6.589  -0.529   5.010  2.6311  0.0809 -1.2904
  113OSM   H15G11749   6.709  -0.437   4.923  0.2814 -0.7532 -0.9636
  113OSM   C16F11750   6.509  -0.383   4.876  0.6485  0.4502  0.5032
  113OSM   H16F11751   6.415  -0.352   4.927  0.0092 -0.3793 -0.1249
  113OSM   H16G11752   6.469  -0.463   4.810 -1.2043  0.2066  1.8401
  113OSM   C17F11753   6.554  -0.275   4.777  0.2074 -0.1692  0.0774
  113OSM   H17F11754   6.659  -0.291   4.742 -0.3523 -1.8883 -0.9098
  113OSM   H17G11755   6.551  -0.180   4.836  2.3471 -0.0855  0.1299
  113OSM   C18F11756   6.466  -0.279   4.649  0.4288  0.1593  0.4049
  113OSM   H18F11757   6.358  -0.265   4.669  0.5088  1.0035  0.3044
  113OSM   H18G11758   6.475  -0.375   4.595  0.8983  0.5860 -0.2961
  113OSM   H18H11759   6.493  -0.196   4.579  1.9524 -0.5517  0.1021
  114OSM      N11760   2.371   2.805   6.795  0.5032 -1.4145 -0.2745
  114OSM    C1511761   2.494   2.728   6.753  0.3831  0.0148 -0.4566
  114OSM   H15A11762   2.474   2.634   6.704  0.2406 -1.1824  1.7715
  114OSM   H15B11763   2.569   2.711   6.829  0.9227 -2.8220 -1.4992
  114OSM   H15C11764   2.539   2.793   6.680 -0.3235  0.8231 -0.1993
  114OSM    C1411765   2.278   2.824   6.683  0.7687 -0.1825  0.8230
  114OSM   H14A11766   2.304   2.901   6.611  0.2189 -0.7905 -0.0566
  114OSM   H14B11767   2.179   2.862   6.705  0.6188 -0.3171  0.4017
  114OSM   H14C11768   2.256   2.731   6.634  0.3333  0.6429 -0.6220
  114OSM    C1311769   2.298   2.742   6.915 -0.3461  0.0737 -0.0057
  114OSM   H13A11770   2.369   2.745   6.996  0.7706 -4.4104 -0.5624
  114OSM   H13B11771   2.272   2.639   6.898  1.4293 -0.1927 -1.3372
  114OSM   H13C11772   2.208   2.795   6.945  0.2131  0.3685  1.2158
  114OSM    C1211773   2.428   2.945   6.841  0.2263  0.7158 -0.2486
  114OSM   H12A11774   2.505   2.924   6.914 -0.0225  0.3896 -0.0787
  114OSM   H12B11775   2.346   2.993   6.892  0.5313  1.5340 -0.5095
  114OSM    C1111776   2.495   3.036   6.734 -0.7190  0.0023 -0.4597
  114OSM   H11A11777   2.419   3.066   6.660 -3.1826 -1.0082  1.5122
  114OSM   H11B11778   2.574   2.983   6.677 -1.8937 -0.5245 -1.6321
  114OSM      P11779   2.472   3.271   6.842  0.2082  0.3442  0.1602
  114OSM    O1311780   2.361   3.231   6.925 -0.0910  0.2457  0.6108
  114OSM    O1411781   2.571   3.352   6.909  0.1414  0.1397 -0.3429
  114OSM    O1111782   2.416   3.358   6.723  0.1619  0.1331 -0.3144
  114OSM    O1211783   2.562   3.152   6.787  0.0503  0.2855 -0.4356
  114OSM    C1S11784   2.487   3.366   6.602 -0.4312 -0.5083 -0.1640
  114OSM    H1S11785   2.471   3.272   6.545 -1.4322 -0.9584  0.8273
  114OSM    H1T11786   2.597   3.374   6.617 -0.3752  1.8002 -1.4344
  114OSM     NF11787   2.502   3.479   6.381 -0.0178 -0.1407  0.0708
  114OSM    HNF11788   2.592   3.515   6.358 -0.2514  0.3819 -0.0456
  114OSM    C2S11789   2.455   3.496   6.514  0.3132 -0.2209 -0.1730
  114OSM    H2S11790   2.344   3.496   6.515  0.3051  0.9381  0.2207
  114OSM    C3S11791   2.507   3.626   6.579 -0.0359 -0.0058 -0.5119
  114OSM    H3S11792   2.613   3.637   6.548  0.4247  0.6967  1.1812
  114OSM     O311793   2.505   3.619   6.721 -0.0579 -0.0066 -0.3987
  114OSM    HO311794   2.460   3.536   6.739  0.3411  0.1603  1.6044
  114OSM    C4S11795   2.421   3.742   6.531 -0.1654  0.3427 -0.1496
  114OSM    H4S11796   2.328   3.757   6.588  0.3717 -0.2137  0.8986
  114OSM    C5S11797   2.454   3.824   6.437  0.7761  0.5093  0.7965
  114OSM    H5S11798   2.543   3.807   6.375 -0.4008 -1.5044 -0.4732
  114OSM    C6S11799   2.367   3.931   6.382 -0.3222  0.4654 -0.2820
  114OSM    H6S11800   2.437   4.004   6.336  3.0186 -2.2237  0.0945
  114OSM    H6T11801   2.323   3.985   6.469  0.0485  0.8139 -0.3058
  114OSM    C7S11802   2.261   3.911   6.275  0.0351  0.0782  0.3034
  114OSM    H7S11803   2.209   4.010   6.274 -0.5095 -0.1747 -1.7133
  114OSM    H7T11804   2.185   3.833   6.297 -0.2707  0.2609 -0.0901
  114OSM    C8S11805   2.324   3.870   6.137 -0.7180  0.2346  0.1585
  114OSM    H8S11806   2.354   3.764   6.123 -2.4366 -0.3733  0.8960
  114OSM    H8T11807   2.423   3.921   6.127 -0.7151  0.1174 -0.4740
  114OSM    C9S11808   2.232   3.921   6.022 -0.1576 -0.0805  0.0146
  114OSM    H9S11809   2.209   4.029   6.034  0.7497 -0.0340  1.6200
  114OSM    H9T11810   2.137   3.865   6.031 -1.1624  1.3562 -1.2216
  114OSM   C10S11811   2.305   3.916   5.883 -0.1676 -0.0425  0.1231
  114OSM   H10S11812   2.349   3.815   5.872 -1.9143 -0.7021 -1.3195
  114OSM   H10T11813   2.385   3.993   5.875  0.4796 -0.6277  0.8583
  114OSM   C11S11814   2.199   3.939   5.769  0.2257  0.2580 -0.4665
  114OSM   H11S11815   2.171   4.046   5.776 -0.2449  0.1581 -0.7485
  114OSM   H11T11816   2.104   3.883   5.785 -0.3278  1.0973 -0.7284
  114OSM   C12S11817   2.242   3.920   5.625  0.5694 -0.5131 -1.0478
  114OSM   H12S11818   2.249   3.811   5.606 -0.7696 -0.5456 -1.4128
  114OSM   H12T11819   2.342   3.967   5.606 -0.5095  1.2926 -2.6896
  114OSM   C13S11820   2.140   3.985   5.528 -0.7204  0.0101 -0.2987
  114OSM   H13S11821   2.192   4.075   5.489  3.0750 -2.6438 -1.9675
  114OSM   H13T11822   2.044   4.003   5.581  0.0451  0.1397  1.1145
  114OSM   C14S11823   2.128   3.895   5.407 -0.2176  0.6990 -0.2082
  114OSM   H14S11824   2.061   3.944   5.333 -3.3685 -0.8007  1.4521
  114OSM   H14T11825   2.081   3.799   5.439  1.5085 -0.0001  0.3379
  114OSM   C15S11826   2.258   3.860   5.337 -0.0624  0.4381  0.3656
  114OSM   H15S11827   2.218   3.813   5.245  1.0854  1.3747 -0.6400
  114OSM   H15T11828   2.316   3.788   5.398 -0.9311 -1.0208 -0.4864
  114OSM   C16S11829   2.346   3.972   5.287  0.2356  0.3147 -1.3305
  114OSM   H16S11830   2.435   3.924   5.241  0.4680  0.6410 -1.2226
  114OSM   H16T11831   2.390   4.028   5.373 -1.2529  3.6942 -2.5991
  114OSM   C17S11832   2.285   4.070   5.192 -0.2617 -0.3822  0.0873
  114OSM   H17S11833   2.175   4.076   5.209 -0.2552 -2.4154  1.1641
  114OSM   H17T11834   2.300   4.035   5.088  0.4094  0.1262  0.0068
  114OSM   C18S11835   2.355   4.213   5.186  0.2820 -0.0911  0.1462
  114OSM   H18S11836   2.465   4.208   5.170  0.5076  0.4736  1.4141
  114OSM   H18T11837   2.329   4.259   5.283 -2.3302 -1.0483 -0.0268
  114OSM   H18U11838   2.302   4.275   5.110  2.6664  0.0791 -1.4805
  114OSM    C1F11839   2.453   3.387   6.302 -0.4266  0.2855 -0.0259
  114OSM     OF11840   2.353   3.325   6.336 -0.4531  0.1422  0.6176
  114OSM    C2F11841   2.511   3.365   6.176  0.2731  0.7793 -0.0419
  114OSM    H2F11842   2.488   3.270   6.124  0.5818  1.2289 -1.0113
  114OSM    H2G11843   2.622   3.356   6.173  0.3567  0.7877  1.6963
  114OSM    C3F11844   2.502   3.483   6.073  0.1392  0.6473 -0.0921
  114OSM    H3F11845   2.564   3.566   6.112 -0.5095  0.7325  0.7906
  114OSM    H3G11846   2.394   3.508   6.082  0.0339  0.2727 -0.2717
  114OSM    C4F11847   2.551   3.450   5.932 -0.5172  0.1632 -0.4290
  114OSM    H4F11848   2.527   3.346   5.902  1.5451 -0.8361  1.1252
  114OSM    H4G11849   2.662   3.450   5.924 -0.3874 -0.5541  1.1002
  114OSM    C5F11850   2.499   3.553   5.827  0.2936 -0.7942 -0.3537
  114OSM    H5F11851   2.531   3.657   5.849 -3.7832  1.0015 -1.7337
  114OSM    H5G11852   2.388   3.556   5.832  0.3502 -0.1387  1.0620
  114OSM    C6F11853   2.562   3.510   5.694  1.0373  0.3378  0.0921
  114OSM    H6F11854   2.576   3.400   5.698  2.0989  0.4968  3.3281
  114OSM    H6G11855   2.670   3.536   5.683  1.5139 -0.8625  1.6605
  114OSM    C7F11856   2.471   3.555   5.574  0.2801  0.9323 -0.0484
  114OSM    H7F11857   2.461   3.665   5.582  1.7416  0.9256  3.3067
  114OSM    H7G11858   2.371   3.507   5.588  0.6337  0.1803 -0.0595
  114OSM    C8F11859   2.518   3.506   5.436 -0.3933  0.0293 -0.4607
  114OSM    H8F11860   2.434   3.503   5.363 -1.4016 -0.2340  0.6780
  114OSM    H8G11861   2.539   3.399   5.456  0.8334  0.6036  1.6009
  114OSM    C9F11862   2.644   3.573   5.378  0.5493  0.5540 -0.1112
  114OSM    H9F11863   2.736   3.563   5.438 -1.2324  1.7839  3.0263
  114OSM   C10F11864   2.649   3.632   5.250  0.7781  0.1599 -1.5716
  114OSM   H10F11865   2.749   3.653   5.211  0.4070  1.3956 -1.9090
  114OSM   C11F11866   2.536   3.653   5.148  0.7689 -0.0711  0.4796
  114OSM   H11F11867   2.510   3.760   5.134 -0.1445 -0.5103 -1.6273
  114OSM   H11G11868   2.446   3.596   5.178  1.2170 -1.0293  0.0349
  114OSM   C12F11869   2.598   3.595   5.015  0.2464  0.0225 -0.0932
  114OSM   H12F11870   2.649   3.499   5.036  0.4360  0.4243  1.3642
  114OSM   H12G11871   2.683   3.661   4.988  1.2476 -0.3672  1.8945
  114OSM   C13F11872   2.506   3.601   4.891  0.8484  0.7284 -0.2227
  114OSM   H13F11873   2.481   3.704   4.861  0.0567  1.6386  3.1775
  114OSM   H13G11874   2.413   3.549   4.922  1.3767  0.6255  1.2778
  114OSM   C14F11875   2.552   3.521   4.765 -0.2397 -0.7604 -0.5175
  114OSM   H14F11876   2.565   3.416   4.800 -0.9067 -1.3210 -1.8869
  114OSM   H14G11877   2.654   3.552   4.732 -0.5255 -0.0296 -0.7229
  114OSM   C15F11878   2.445   3.528   4.663 -0.4959  0.4220 -0.3151
  114OSM   H15F11879   2.420   3.633   4.635 -0.5501 -0.3905 -3.7720
  114OSM   H15G11880   2.349   3.482   4.695 -2.4360  3.5034 -1.1922
  114OSM   C16F11881   2.485   3.438   4.544 -0.1672 -0.0566  0.2750
  114OSM   H16F11882   2.531   3.345   4.583  1.6431  1.0129  0.7848
  114OSM   H16G11883   2.569   3.491   4.493  2.0395 -1.9067  1.7808
  114OSM   C17F11884   2.369   3.389   4.454  0.2988 -0.8819  0.0127
  114OSM   H17F11885   2.339   3.491   4.421  1.0486 -1.5067 -2.8475
  114OSM   H17G11886   2.288   3.342   4.514 -0.1519 -0.3287 -0.1556
  114OSM   C18F11887   2.414   3.305   4.328  0.5395 -0.3673 -0.0103
  114OSM   H18F11888   2.507   3.345   4.282 -0.8884  0.2244 -2.5634
  114OSM   H18G11889   2.339   3.311   4.246  0.5287  1.3038  0.0779
  114OSM   H18H11890   2.437   3.198   4.350  0.4520 -0.9450 -2.5109
  115OSM      N11891   3.518   0.886   7.258 -0.4032 -0.3222  0.2804
  115OSM    C1511892   3.411   0.789   7.292  0.3384 -0.1376  0.3202
  115OSM   H15A11893   3.320   0.818   7.241 -0.7017 -0.4409  1.9425
  115OSM   H15B11894   3.387   0.791   7.397 -2.2965 -0.5384 -0.2078
  115OSM   H15C11895   3.441   0.691   7.257  0.0859  0.4566 -1.6611
  115OSM    C1411896   3.465   1.018   7.293  0.4850 -0.3568  0.4559
  115OSM   H14A11897   3.409   1.011   7.385 -1.0787  1.0537 -0.3325
  115OSM   H14B11898   3.398   1.064   7.222  2.9043 -1.6783 -2.9352
  115OSM   H14C11899   3.555   1.078   7.293  0.6044 -0.4741 -1.6269
  115OSM    C1311900   3.640   0.845   7.334 -0.0137  0.4852  0.5531
  115OSM   H13A11901   3.618   0.848   7.439  0.2046 -0.6469  0.6404
  115OSM   H13B11902   3.714   0.916   7.303 -1.6867  2.0628 -0.0320
  115OSM   H13C11903   3.666   0.743   7.309 -1.6833 -0.0679  0.9156
  115OSM    C1211904   3.541   0.892   7.106 -0.3209 -0.6278 -1.1337
  115OSM   H12A11905   3.634   0.948   7.105 -1.3334  1.2442  1.0180
  115OSM   H12B11906   3.463   0.947   7.055  0.0339  1.0155  0.0134
  115OSM    C1111907   3.587   0.758   7.034 -0.2005  0.3884 -0.0773
  115OSM   H11A11908   3.669   0.718   7.099 -0.6760  0.3753  0.5271
  115OSM   H11B11909   3.629   0.783   6.934 -3.0190 -1.5194 -1.8659
  115OSM      P11910   3.479   0.517   7.012 -0.3589  0.0672 -0.0852
  115OSM    O1311911   3.542   0.440   7.123 -0.0699  0.2944  0.4658
  115OSM    O1411912   3.346   0.477   6.963  0.3067 -0.0798  0.4154
  115OSM    O1111913   3.576   0.514   6.882 -0.0692  0.7281  0.1248
  115OSM    O1211914   3.473   0.674   7.033 -0.3360  0.5034  0.3894
  115OSM    C1S11915   3.521   0.551   6.753 -0.4449 -0.1541 -0.1154
  115OSM    H1S11916   3.511   0.661   6.754  2.2176  0.1431 -0.4298
  115OSM    H1T11917   3.418   0.511   6.736  0.5294 -2.5933 -0.7642
  115OSM     NF11918   3.563   0.553   6.506 -0.0068 -0.1586  0.5620
  115OSM    HNF11919   3.509   0.489   6.453  0.6097  1.4788 -2.2389
  115OSM    C2S11920   3.612   0.509   6.633  0.2472 -0.0697 -1.0235
  115OSM    H2S11921   3.712   0.553   6.653  0.4332 -1.1237  0.4986
  115OSM    C3S11922   3.630   0.353   6.642  0.3493  0.8295 -0.0481
  115OSM    H3S11923   3.535   0.295   6.646  0.8997 -0.1003 -0.0579
  115OSM     O311924   3.693   0.306   6.762 -0.0410  0.1798 -0.3030
  115OSM    HO311925   3.682   0.380   6.823 -0.4446 -1.0089  1.1179
  115OSM    C4S11926   3.706   0.304   6.522 -0.3456  0.2792  0.8882
  115OSM    H4S11927   3.635   0.273   6.445  0.8147 -1.0755  0.3245
  115OSM    C5S11928   3.835   0.310   6.486  0.3333  0.1877 -0.0387
  115OSM    H5S11929   3.913   0.348   6.554  0.8157 -0.8777  0.0229
  115OSM    C6S11930   3.894   0.258   6.350 -0.1813  0.0057  0.2967
  115OSM    H6S11931   3.959   0.168   6.356  0.5814  0.5336  0.1657
  115OSM    H6T11932   3.949   0.342   6.303  0.4309  0.6332  2.0651
  115OSM    C7S11933   3.775   0.215   6.251  0.3084 -0.0125 -0.4342
  115OSM    H7S11934   3.711   0.306   6.248  2.8160  1.9017  0.4962
  115OSM    H7T11935   3.718   0.132   6.296  3.4556 -2.1697 -0.0669
  115OSM    C8S11936   3.807   0.185   6.109 -0.4016 -1.0452 -0.3335
  115OSM    H8S11937   3.880   0.101   6.101  1.2613  0.0471  2.0330
  115OSM    H8T11938   3.853   0.277   6.067  1.5767 -0.7798  2.1631
  115OSM    C9S11939   3.684   0.157   6.032  0.5757  0.2164 -0.5368
  115OSM    H9S11940   3.608   0.235   6.053  1.1602  0.4415  0.8289
  115OSM    H9T11941   3.625   0.067   6.061 -1.2568  0.7610 -2.3333
  115OSM   C10S11942   3.706   0.138   5.882  0.4586  1.0131 -0.3535
  115OSM   H10S11943   3.779   0.054   5.871 -0.5286  0.3457 -2.0571
  115OSM   H10T11944   3.762   0.226   5.845 -0.7344  1.1933 -1.8062
  115OSM   C11S11945   3.577   0.103   5.817  0.0700  0.6951 -0.2142
  115OSM   H11S11946   3.498   0.176   5.846 -0.4150  0.5555 -1.1391
  115OSM   H11T11947   3.561   0.005   5.868  2.0499  1.0831  1.2505
  115OSM   C12S11948   3.587   0.086   5.663  0.6432 -0.0564 -0.7023
  115OSM   H12S11949   3.627  -0.017   5.653  0.3010 -0.0994 -1.7340
  115OSM   H12T11950   3.669   0.145   5.614  2.9904 -0.2982  2.5880
  115OSM   C13S11951   3.448   0.105   5.597 -0.3732 -0.1486 -0.3610
  115OSM   H13S11952   3.410   0.209   5.606  1.5537  0.4730  1.4181
  115OSM   H13T11953   3.374   0.048   5.657  0.3531 -1.5892 -0.7711
  115OSM   C14S11954   3.447   0.060   5.451 -0.4181  0.2375  0.1339
  115OSM   H14S11955   3.343   0.026   5.428 -0.9615  1.9805 -0.0945
  115OSM   H14T11956   3.514  -0.029   5.445 -1.2279 -0.4002  0.3656
  115OSM   C15S11957   3.488   0.166   5.346  0.1595  0.4629  0.1556
  115OSM   H15S11958   3.544   0.248   5.394  2.1749 -0.6017 -0.2474
  115OSM   H15T11959   3.397   0.222   5.317 -0.1842 -1.0578 -1.9544
  115OSM   C16S11960   3.545   0.102   5.218 -0.4647  0.0186 -0.0772
  115OSM   H16S11961   3.648   0.070   5.246  0.0217  0.7446 -0.9884
  115OSM   H16T11962   3.552   0.180   5.139 -2.3177 -0.4313 -0.7351
  115OSM   C17S11963   3.479  -0.027   5.155  0.1362 -0.1357 -0.2918
  115OSM   H17S11964   3.368  -0.026   5.155  0.0764 -2.0681  0.2717
  115OSM   H17T11965   3.503  -0.114   5.220  1.0453  0.1457 -0.2369
  115OSM   C18S11966   3.520  -0.058   5.013 -0.2059 -0.1643  1.0641
  115OSM   H18S11967   3.630  -0.063   4.998 -0.5085  1.1081 -2.6556
  115OSM   H18T11968   3.493   0.018   4.937 -1.7387 -0.0330  1.7039
  115OSM   H18U11969   3.477  -0.150   4.968 -1.6317  0.4041  1.2219
  115OSM    C1F11970   3.571   0.678   6.457 -0.6132  0.0623  1.1202
  115OSM     OF11971   3.608   0.771   6.527 -0.2872 -0.0504  0.0769
  115OSM    C2F11972   3.527   0.693   6.312 -0.4268  0.0557 -0.4389
  115OSM    H2F11973   3.489   0.595   6.276 -1.0677  0.5197 -1.0500
  115OSM    H2G11974   3.605   0.728   6.241 -1.0151  1.9765 -0.2058
  115OSM    C3F11975   3.409   0.793   6.302 -0.6303 -0.3917  0.0333
  115OSM    H3F11976   3.447   0.891   6.337 -0.2305 -0.9051  1.0551
  115OSM    H3G11977   3.326   0.769   6.371  0.6597  0.9742  2.1826
  115OSM    C4F11978   3.360   0.797   6.156 -0.6438  0.2053  0.4621
  115OSM    H4F11979   3.450   0.829   6.099 -2.1979  1.1003 -1.6146
  115OSM    H4G11980   3.282   0.876   6.152  0.3799  1.2651  0.9316
  115OSM    C5F11981   3.303   0.669   6.094 -0.2281 -0.2796 -0.4765
  115OSM    H5F11982   3.203   0.655   6.140 -0.8206  1.7277 -1.0635
  115OSM    H5G11983   3.364   0.577   6.110  0.9995  0.6282  0.2284
  115OSM    C6F11984   3.290   0.698   5.943  0.3801  0.1891 -0.4499
  115OSM    H6F11985   3.339   0.796   5.928 -0.7974  0.7382 -0.8148
  115OSM    H6G11986   3.183   0.720   5.922  0.0156  1.4388  2.3373
  115OSM    C7F11987   3.351   0.593   5.855  0.6464 -0.5400  0.2950
  115OSM    H7F11988   3.304   0.498   5.887 -0.9610  0.0778 -0.1645
  115OSM    H7G11989   3.462   0.598   5.866  0.5262  2.6828  0.8949
  115OSM    C8F11990   3.304   0.622   5.706 -0.0103  0.0953  0.0400
  115OSM    H8F11991   3.301   0.733   5.698 -1.2622  0.0592 -0.2250
  115OSM    H8G11992   3.195   0.603   5.706 -0.2190  1.0263  2.4596
  115OSM    C9F11993   3.372   0.545   5.594 -0.1122  0.0507 -0.6562
  115OSM    H9F11994   3.344   0.439   5.590 -2.6274  0.5224  1.6574
  115OSM   C10F11995   3.464   0.602   5.507  0.1207  0.6321  1.0547
  115OSM   H10F11996   3.504   0.552   5.418  1.8850  2.3213  0.8258
  115OSM   C11F11997   3.499   0.748   5.517 -0.0548 -1.0254 -0.4168
  115OSM   H11F11998   3.609   0.751   5.529  0.1030 -0.8327 -1.7964
  115OSM   H11G11999   3.466   0.801   5.609  0.4297  0.2717 -0.9628
  115OSM   C12F12000   3.455   0.837   5.400  0.3149  0.8446  0.2134
  115OSM   H12F12001   3.476   0.788   5.303 -4.7133 -0.7199 -0.4188
  115OSM   H12G12002   3.500   0.938   5.407  2.1766  0.1949 -1.5771
  115OSM   C13F12003   3.308   0.858   5.409 -0.3256  0.2402  0.0495
  115OSM   H13F12004   3.280   0.912   5.502 -1.9020 -0.3652 -0.0463
  115OSM   H13G12005   3.251   0.763   5.411  0.5426 -0.2841  0.3093
  115OSM   C14F12006   3.253   0.949   5.297 -0.3808  0.2612 -1.2070
  115OSM   H14F12007   3.171   0.910   5.233 -0.0728 -0.4120 -1.1922
  115OSM   H14G12008   3.340   0.982   5.236  0.7733  0.7101  0.5952
  115OSM   C15F12009   3.182   1.076   5.357 -0.2453  0.2812  0.1847
  115OSM   H15F12010   3.244   1.129   5.433 -0.2498 -2.4196  2.2033
  115OSM   H15G12011   3.089   1.031   5.399 -1.2757  2.1258 -0.0187
  115OSM   C16F12012   3.136   1.189   5.260 -1.4779  0.7646  0.0837
  115OSM   H16F12013   3.060   1.254   5.309 -3.0108 -1.3431  0.6203
  115OSM   H16G12014   3.084   1.135   5.178  0.7385 -0.1871 -0.7823
  115OSM   C17F12015   3.258   1.261   5.201  0.2514  0.2225 -0.4189
  115OSM   H17F12016   3.220   1.344   5.137 -0.8520  0.6303  0.7031
  115OSM   H17G12017   3.319   1.190   5.143  0.8184  0.0124  0.4246
  115OSM   C18F12018   3.336   1.338   5.306  0.2113  0.7717  0.0900
  115OSM   H18F12019   3.268   1.398   5.370 -1.4241  0.1025 -0.9517
  115OSM   H18G12020   3.409   1.408   5.260  1.6119 -0.6432  0.0770
  115OSM   H18H12021   3.389   1.271   5.377 -1.3005 -0.1294  0.3981
  116OSM      N12022   0.522   0.179   6.711 -0.2304 -0.6765 -0.2018
  116OSM    C1512023   0.396   0.133   6.787 -0.0102  0.0776  0.6306
  116OSM   H15A12024   0.390   0.175   6.887  0.2391  0.8725  0.3262
  116OSM   H15B12025   0.385   0.026   6.792 -0.4316  0.0434 -0.8646
  116OSM   H15C12026   0.312   0.177   6.736 -1.2041 -1.1051  1.5128
  116OSM    C1412027   0.505   0.325   6.683  0.4250 -0.5283 -0.1144
  116OSM   H14A12028   0.596   0.359   6.634  0.0624  1.5665  0.5465
  116OSM   H14B12029   0.499   0.382   6.774  0.6152 -1.9300  0.8049
  116OSM   H14C12030   0.424   0.343   6.614  0.4884 -0.4929 -0.1805
  116OSM    C1312031   0.634   0.167   6.807  0.0283 -0.3060  0.2702
  116OSM   H13A12032   0.728   0.193   6.760 -0.6586  3.3574  0.6627
  116OSM   H13B12033   0.648   0.067   6.846  0.1633 -0.3612  0.0782
  116OSM   H13C12034   0.621   0.242   6.884  0.5765 -0.9652  1.0318
  116OSM    C1212035   0.539   0.101   6.581  0.0239 -0.6923  0.1232
  116OSM   H12A12036   0.611   0.155   6.521 -0.5433  0.6651  0.6078
  116OSM   H12B12037   0.451   0.100   6.518  1.3818 -2.1974 -1.9077
  116OSM    C1112038   0.585  -0.042   6.602 -0.1391 -0.3236 -0.6080
  116OSM   H11A12039   0.685  -0.029   6.647 -0.9316  2.3135  0.5816
  116OSM   H11B12040   0.605  -0.081   6.500  0.8059 -0.3081 -0.4331
  116OSM      P12041   0.538  -0.224   6.783  0.4532  0.1513 -0.1404
  116OSM    O1312042   0.638  -0.162   6.869  0.0638 -0.0194 -0.0623
  116OSM    O1412043   0.413  -0.275   6.851 -0.6933  0.8453 -0.6285
  116OSM    O1112044   0.603  -0.343   6.704  0.2676  0.0065  0.2955
  116OSM    O1212045   0.484  -0.121   6.668  0.2655  0.7790 -0.3958
  116OSM    C1S12046   0.535  -0.421   6.604  0.2759  0.0797  0.0225
  116OSM    H1S12047   0.427  -0.434   6.623 -0.3481  1.5058 -2.1264
  116OSM    H1T12048   0.584  -0.520   6.619  1.2679  0.3562 -1.1821
  116OSM     NF12049   0.500  -0.452   6.356 -0.4032  0.2292  0.1750
  116OSM    HNF12050   0.558  -0.507   6.297  0.5234  0.0273  1.2425
  116OSM    C2S12051   0.563  -0.371   6.459 -0.3771 -0.4686 -0.1417
  116OSM    H2S12052   0.518  -0.270   6.467 -1.5552 -0.9445 -0.6441
  116OSM    C3S12053   0.721  -0.369   6.444  0.2833  0.4387  0.1396
  116OSM    H3S12054   0.745  -0.477   6.452  0.7659  0.5355  0.0194
  116OSM     O312055   0.807  -0.296   6.535  0.6572 -0.1139 -0.6630
  116OSM    HO312056   0.748  -0.263   6.603 -0.2728  1.2987 -2.0912
  116OSM    C4S12057   0.745  -0.327   6.296  0.1590  0.0270  0.2116
  116OSM    H4S12058   0.767  -0.409   6.226  0.0303  0.0028  0.1996
  116OSM    C5S12059   0.725  -0.200   6.257 -0.1060  0.1677  0.3884
  116OSM    H5S12060   0.692  -0.132   6.337 -1.1653  2.7656 -2.1017
  116OSM    C6S12061   0.740  -0.156   6.112 -0.0212 -0.3081  0.1449
  116OSM    H6S12062   0.837  -0.104   6.097 -1.0123  1.2404 -1.3035
  116OSM    H6T12063   0.660  -0.083   6.088 -0.2009 -0.5841 -0.0894
  116OSM    C7S12064   0.754  -0.267   6.003  0.0030 -0.2778  0.4069
  116OSM    H7S12065   0.667  -0.335   5.993 -0.1003  0.0198 -1.0355
  116OSM    H7T12066   0.839  -0.333   6.030  1.2044  0.7171 -0.7727
  116OSM    C8S12067   0.796  -0.209   5.867  0.0941 -0.3160  0.6893
  116OSM    H8S12068   0.893  -0.155   5.871  1.5941 -2.7716 -0.0117
  116OSM    H8T12069   0.726  -0.128   5.837  3.3871  2.3197 -0.5112
  116OSM    C9S12070   0.812  -0.310   5.755  0.0190 -0.3853 -0.8760
  116OSM    H9S12071   0.734  -0.390   5.756 -1.0766  0.5158  2.9154
  116OSM    H9T12072   0.910  -0.361   5.763 -0.4631 -1.0121  2.3300
  116OSM   C10S12073   0.800  -0.249   5.614 -0.4546 -0.2473  0.0811
  116OSM   H10S12074   0.886  -0.180   5.598  0.6085 -1.7856 -1.1762
  116OSM   H10T12075   0.701  -0.200   5.602  0.5052  1.7604 -0.1053
  116OSM   C11S12076   0.817  -0.347   5.500  0.0317  0.4852 -0.9743
  116OSM   H11S12077   0.728  -0.413   5.503 -0.1573  0.7743  1.0608
  116OSM   H11T12078   0.903  -0.418   5.507  0.4767  1.0313 -0.8090
  116OSM   C12S12079   0.830  -0.288   5.358  0.6408 -0.0802  0.0561
  116OSM   H12S12080   0.929  -0.239   5.352  0.4077  0.3597 -0.3482
  116OSM   H12T12081   0.761  -0.202   5.341  0.8886  0.4756  1.6396
  116OSM   C13S12082   0.830  -0.395   5.247  0.8820 -0.1271  0.5603
  116OSM   H13S12083   0.727  -0.437   5.248  0.0169  1.8437 -0.8057
  116OSM   H13T12084   0.908  -0.471   5.272  0.5317 -1.0328 -0.9868
  116OSM   C14S12085   0.848  -0.345   5.105  0.6402 -0.3856 -0.2634
  116OSM   H14S12086   0.957  -0.330   5.089  0.5789  0.3468 -0.0047
  116OSM   H14T12087   0.790  -0.251   5.095 -2.4518 -2.0944  0.1498
  116OSM   C15S12088   0.802  -0.442   4.990  0.4252  0.7950  0.3751
  116OSM   H15S12089   0.795  -0.394   4.890  1.4625  0.7178  0.2603
  116OSM   H15T12090   0.700  -0.476   5.020  1.5941 -0.0489  3.8502
  116OSM   C16S12091   0.903  -0.559   4.978  0.3068 -0.3734 -0.8223
  116OSM   H16S12092   0.883  -0.613   5.073  0.7297  0.0883 -0.4656
  116OSM   H16T12093   1.004  -0.515   4.973 -0.6931  2.1777 -0.3438
  116OSM   C17S12094   0.882  -0.653   4.856  0.8778  0.0531  0.0518
  116OSM   H17S12095   0.977  -0.709   4.843  0.4149 -1.2354  1.8300
  116OSM   H17T12096   0.863  -0.589   4.767 -0.7668 -0.4091  0.0411
  116OSM   C18S12097   0.762  -0.751   4.864  0.0401  0.4707  0.4099
  116OSM   H18S12098   0.662  -0.709   4.890 -0.4845 -1.2150  1.2071
  116OSM   H18T12099   0.797  -0.829   4.935 -0.0350 -0.4268 -0.5256
  116OSM   H18U12100   0.766  -0.806   4.768 -0.1199  1.4602 -0.1833
  116OSM    C1F12101   0.374  -0.461   6.330 -0.0157  0.2256  0.0715
  116OSM     OF12102   0.293  -0.391   6.398 -0.4806  0.7579  0.1208
  116OSM    C2F12103   0.325  -0.542   6.223  0.1038  0.0748  0.6153
  116OSM    H2F12104   0.252  -0.605   6.279  0.4251 -0.5330  0.3582
  116OSM    H2G12105   0.401  -0.617   6.192 -0.6547 -0.7540  0.7064
  116OSM    C3F12106   0.253  -0.469   6.103 -0.1759  0.3388 -1.1584
  116OSM    H3F12107   0.167  -0.403   6.126  0.5169  1.0670 -0.6389
  116OSM    H3G12108   0.225  -0.546   6.027  0.9240 -0.1860 -1.0515
  116OSM    C4F12109   0.351  -0.378   6.019  0.5829 -0.6009  0.8060
  116OSM    H4F12110   0.442  -0.441   6.021  1.4414  0.6056  0.9094
  116OSM    H4G12111   0.374  -0.280   6.067 -2.0951  1.1104 -1.1228
  116OSM    C5F12112   0.310  -0.372   5.872  0.3464  0.3361 -0.9052
  116OSM    H5F12113   0.215  -0.317   5.858 -0.0026  0.1572  0.5500
  116OSM    H5G12114   0.282  -0.477   5.848 -0.9699 -0.3086  2.7291
  116OSM    C6F12115   0.417  -0.322   5.782  0.0921  0.0712  0.3214
  116OSM    H6F12116   0.513  -0.377   5.794  0.8448  0.4005 -3.3122
  116OSM    H6G12117   0.440  -0.218   5.813 -3.5669  0.4809  2.1317
  116OSM    C7F12118   0.385  -0.337   5.623 -0.0119 -0.4017 -0.2120
  116OSM    H7F12119   0.448  -0.260   5.574 -0.9565  0.7128  0.2552
  116OSM    H7G12120   0.283  -0.295   5.611  0.4914  0.7649 -0.5581
  116OSM    C8F12121   0.399  -0.469   5.552 -0.6754  0.0127 -1.1692
  116OSM    H8F12122   0.392  -0.550   5.628  0.9812  0.3534 -0.5995
  116OSM    H8G12123   0.504  -0.478   5.517 -0.5334 -0.6662 -0.5839
  116OSM    C9F12124   0.310  -0.483   5.433 -0.3384  0.1213 -0.1525
  116OSM    H9F12125   0.242  -0.569   5.436 -1.8451  1.1946  4.1484
  116OSM   C10F12126   0.313  -0.405   5.320  0.2344 -0.2073 -0.0554
  116OSM   H10F12127   0.229  -0.423   5.252 -0.2785  0.9516  0.2499
  116OSM   C11F12128   0.409  -0.291   5.299 -0.3920  0.0139  0.1333
  116OSM   H11F12129   0.513  -0.327   5.314 -0.6729 -1.2651 -0.7468
  116OSM   H11G12130   0.376  -0.209   5.365 -1.3504  1.8728 -2.5016
  116OSM   C12F12131   0.380  -0.231   5.164  0.3108  0.1091  0.2501
  116OSM   H12F12132   0.419  -0.127   5.165 -0.6866  0.5376  2.7656
  116OSM   H12G12133   0.270  -0.221   5.151  0.0995 -0.0444  1.7447
  116OSM   C13F12134   0.444  -0.315   5.055 -0.6238 -0.4005 -0.1270
  116OSM   H13F12135   0.400  -0.417   5.056 -0.0978 -0.6939 -1.9437
  116OSM   H13G12136   0.551  -0.329   5.080 -1.4929 -3.8158  2.4525
  116OSM   C14F12137   0.406  -0.265   4.911  0.1318  0.3163 -0.9182
  116OSM   H14F12138   0.420  -0.155   4.900  1.2133  0.1547 -1.3591
  116OSM   H14G12139   0.297  -0.281   4.902  0.2517 -0.0732 -1.7706
  116OSM   C15F12140   0.467  -0.349   4.796  0.5432 -0.0445 -0.9840
  116OSM   H15F12141   0.427  -0.453   4.803 -0.1261  0.0399 -2.8352
  116OSM   H15G12142   0.577  -0.355   4.806  0.4970 -0.0493 -0.4854
  116OSM   C16F12143   0.436  -0.303   4.659 -0.0149  0.0648  0.0152
  116OSM   H16F12144   0.462  -0.195   4.652 -0.6260  0.2201  0.1343
  116OSM   H16G12145   0.329  -0.307   4.632  0.1640  0.8787 -0.8315
  116OSM   C17F12146   0.521  -0.386   4.553  0.5064 -0.5463  0.3094
  116OSM   H17F12147   0.487  -0.492   4.556  2.1148 -1.0977  0.2535
  116OSM   H17G12148   0.627  -0.392   4.587  1.4036 -1.4724 -2.4202
  116OSM   C18F12149   0.527  -0.310   4.421  0.5981 -0.2701 -0.4279
  116OSM   H18F12150   0.551  -0.204   4.447 -1.2327 -0.0806  0.6939
  116OSM   H18G12151   0.431  -0.314   4.365  1.3778 -2.0574 -1.7430
  116OSM   H18H12152   0.603  -0.360   4.357  1.5774 -2.7561  2.4778
  117OSM      N12153   4.823   2.028   6.724 -0.0997 -0.2159 -0.1059
  117OSM    C1512154   4.678   1.997   6.759 -0.0661 -0.6386 -0.0928
  117OSM   H15A12155   4.658   1.895   6.786  1.3747 -0.9387 -0.0685
  117OSM   H15B12156   4.607   2.014   6.679  0.5935  0.1462 -0.5310
  117OSM   H15C12157   4.643   2.059   6.839  0.9672 -1.0189  0.6749
  117OSM    C1412158   4.846   2.170   6.692 -0.0461 -0.0972 -0.7298
  117OSM   H14A12159   4.952   2.187   6.703  0.4557 -2.4443 -1.4086
  117OSM   H14B12160   4.787   2.235   6.755 -0.9277 -0.4106 -1.2193
  117OSM   H14C12161   4.815   2.196   6.592 -2.7708  3.1515  0.7804
  117OSM    C1312162   4.899   1.993   6.842 -0.4556  0.2729 -1.3893
  117OSM   H13A12163   4.887   1.889   6.871 -2.0043  0.6898 -0.4176
  117OSM   H13B12164   4.864   2.046   6.929 -0.7024 -2.0311  0.0173
  117OSM   H13C12165   5.003   2.017   6.829 -0.4740  1.6897  0.5738
  117OSM    C1212166   4.857   1.939   6.603 -0.1400 -0.9551 -0.2123
  117OSM   H12A12167   4.792   1.980   6.527  2.4839 -0.3481 -2.3255
  117OSM   H12B12168   4.833   1.835   6.620  1.8515 -1.3696  0.4406
  117OSM    C1112169   4.997   1.948   6.550  0.0659  0.8816  0.0210
  117OSM   H11A12170   5.025   2.052   6.520  1.0918  0.3722 -0.8637
  117OSM   H11B12171   4.993   1.887   6.458 -3.0640  1.2133 -0.1629
  117OSM      P12172   5.119   1.754   6.680  0.4375  0.2780 -0.9529
  117OSM    O1312173   5.266   1.726   6.710 -0.2149 -0.6463  0.4387
  117OSM    O1412174   5.027   1.706   6.789  0.2896  0.3089  0.1637
  117OSM    O1112175   5.089   1.682   6.548  0.3293  0.8092  1.0516
  117OSM    O1212176   5.095   1.901   6.641  0.7166 -0.5386  0.0560
  117OSM    C1S12177   5.004   1.564   6.548 -0.3805  0.1494 -0.7291
  117OSM    H1S12178   4.913   1.582   6.608  1.6140  0.4188  2.4552
  117OSM    H1T12179   5.050   1.478   6.600  1.4478  0.8121 -1.1639
  117OSM     NF12180   4.847   1.436   6.406 -0.7459 -0.6134  0.0183
  117OSM    HNF12181   4.867   1.339   6.398  2.9286 -0.1759  1.7276
  117OSM    C2S12182   4.960   1.522   6.404 -0.3541 -0.0919 -0.0455
  117OSM    H2S12183   4.939   1.611   6.342 -1.0949  0.5377  1.0815
  117OSM    C3S12184   5.092   1.459   6.340 -0.2911  0.1892 -0.8497
  117OSM    H3S12185   5.116   1.359   6.382 -1.0960  0.2264 -0.2705
  117OSM     O312186   5.205   1.533   6.363 -0.1371 -0.3040  0.0250
  117OSM    HO312187   5.175   1.593   6.432 -0.1484  2.4771 -2.2064
  117OSM    C4S12188   5.071   1.431   6.191  0.9873  0.2933 -0.4393
  117OSM    H4S12189   5.020   1.335   6.177 -0.5711  1.3376 -2.5570
  117OSM    C5S12190   5.074   1.517   6.090  0.1236  0.0957 -0.1172
  117OSM    H5S12191   5.111   1.620   6.098 -0.1711  0.1245  1.0813
  117OSM    C6S12192   5.041   1.476   5.949  0.2872  0.5572 -0.1818
  117OSM    H6S12193   4.930   1.476   5.942  0.2537 -1.5606 -0.2518
  117OSM    H6T12194   5.079   1.372   5.936  4.0497  1.4275  2.2351
  117OSM    C7S12195   5.104   1.561   5.835  0.1414  0.2555 -0.7867
  117OSM    H7S12196   5.209   1.570   5.871 -0.4304  1.6029  0.7199
  117OSM    H7T12197   5.074   1.667   5.851  1.2522  0.2498  1.9409
  117OSM    C8S12198   5.089   1.510   5.700  0.0553 -0.5500 -0.1048
  117OSM    H8S12199   4.980   1.515   5.678 -0.0200 -1.0242  0.1509
  117OSM    H8T12200   5.120   1.403   5.693  1.6719 -0.0472 -1.1681
  117OSM    C9S12201   5.171   1.587   5.601 -0.6356  0.4796  0.2620
  117OSM    H9S12202   5.280   1.575   5.620 -0.8491 -1.3463  0.5164
  117OSM    H9T12203   5.149   1.696   5.610  0.4948  0.8598 -1.2175
  117OSM   C10S12204   5.162   1.540   5.455 -0.4654  0.4209  0.1273
  117OSM   H10S12205   5.220   1.609   5.390 -2.1139  0.4906 -1.3492
  117OSM   H10T12206   5.056   1.557   5.423 -0.4477 -0.2525 -0.2985
  117OSM   C11S12207   5.191   1.390   5.432 -0.5058 -0.1940 -0.0913
  117OSM   H11S12208   5.105   1.340   5.480  1.0356 -1.7945  1.1054
  117OSM   H11T12209   5.285   1.361   5.483 -0.6581  0.9118  0.8434
  117OSM   C12S12210   5.206   1.358   5.279 -0.2632 -0.3445 -0.6554
  117OSM   H12S12211   5.229   1.250   5.283 -1.5319 -0.6194 -0.3436
  117OSM   H12T12212   5.296   1.409   5.239  0.2519 -0.0486  0.8301
  117OSM   C13S12213   5.084   1.394   5.183  0.4198  0.5249 -0.2659
  117OSM   H13S12214   5.046   1.497   5.196  3.8417  2.1648 -2.0109
  117OSM   H13T12215   4.999   1.329   5.215  1.2700 -0.4616  0.0410
  117OSM   C14S12216   5.118   1.362   5.042  0.1598 -0.7698  0.2829
  117OSM   H14S12217   5.158   1.262   5.018  1.1248  0.1205 -2.1628
  117OSM   H14T12218   5.201   1.431   5.016  1.6556 -2.0223  1.5723
  117OSM   C15S12219   4.981   1.370   4.964 -0.6291  0.0942 -0.2746
  117OSM   H15S12220   4.937   1.473   4.968 -0.6901  0.1229 -1.3851
  117OSM   H15T12221   4.907   1.301   5.010 -0.7281  0.6975  0.4824
  117OSM   C16S12222   5.002   1.339   4.816 -0.1897 -0.0825  0.1844
  117OSM   H16S12223   5.050   1.241   4.798  0.4150  0.0186  1.1897
  117OSM   H16T12224   5.073   1.414   4.775 -0.6128  0.5082  0.5089
  117OSM   C17S12225   4.877   1.334   4.730 -0.6484 -1.0927  0.0218
  117OSM   H17S12226   4.906   1.332   4.623  2.8170 -1.7050  0.8720
  117OSM   H17T12227   4.818   1.428   4.745  1.1840  0.0090  0.6376
  117OSM   C18S12228   4.788   1.209   4.738  0.1824 -0.0977  0.6796
  117OSM   H18S12229   4.855   1.122   4.715 -1.0691 -1.7383  2.8707
  117OSM   H18T12230   4.713   1.217   4.657  0.8154 -0.3338  0.0555
  117OSM   H18U12231   4.742   1.196   4.839 -1.8258 -1.8568 -0.3742
  117OSM    C1F12232   4.723   1.483   6.417  0.6556 -0.3100  0.3570
  117OSM     OF12233   4.697   1.601   6.432 -0.1179 -0.6174  0.1856
  117OSM    C2F12234   4.611   1.382   6.402 -0.0591  0.4065 -0.9160
  117OSM    H2F12235   4.548   1.390   6.493 -0.4917  0.7978 -1.2396
  117OSM    H2G12236   4.658   1.282   6.396  0.9795  0.9171 -1.9316
  117OSM    C3F12237   4.522   1.389   6.278 -0.1256  0.6812 -0.0809
  117OSM    H3F12238   4.489   1.495   6.272 -1.1017  0.4607  1.0693
  117OSM    H3G12239   4.425   1.334   6.276 -0.5018  1.3399 -0.8362
  117OSM    C4F12240   4.592   1.354   6.142  0.1743  0.1110 -0.6288
  117OSM    H4F12241   4.634   1.251   6.147  1.3600  0.5430 -1.2356
  117OSM    H4G12242   4.679   1.420   6.122  0.5449 -0.0242  0.4839
  117OSM    C5F12243   4.492   1.368   6.025 -0.0525 -0.4483 -0.4172
  117OSM    H5F12244   4.433   1.462   6.027  1.2518  0.3944 -0.5661
  117OSM    H5G12245   4.414   1.288   6.023 -1.5046  0.9326 -1.6680
  117OSM    C6F12246   4.566   1.358   5.884  0.6474  0.3385 -0.1619
  117OSM    H6F12247   4.619   1.261   5.892 -1.3029 -1.0273 -2.4759
  117OSM    H6G12248   4.631   1.447   5.887  2.0174 -0.5631 -1.6996
  117OSM    C7F12249   4.482   1.367   5.756  0.5098 -0.2861 -0.0138
  117OSM    H7F12250   4.422   1.460   5.752  0.4718 -0.3078  0.0544
  117OSM    H7G12251   4.412   1.281   5.764 -1.7066  1.4957  0.7278
  117OSM    C8F12252   4.556   1.348   5.622  0.0154 -0.4597 -0.0635
  117OSM    H8F12253   4.486   1.372   5.539 -1.5371  0.1150  1.3606
  117OSM    H8G12254   4.586   1.241   5.621 -1.5549 -0.9206 -0.3522
  117OSM    C9F12255   4.682   1.430   5.608  0.8721 -0.7869  0.1622
  117OSM    H9F12256   4.709   1.483   5.701 -1.5556  0.1817  0.3932
  117OSM   C10F12257   4.751   1.458   5.496 -0.1425  0.7116 -0.1676
  117OSM   H10F12258   4.845   1.514   5.507  0.8862 -0.9192 -0.2859
  117OSM   C11F12259   4.725   1.404   5.358  0.5886 -0.5261 -0.2233
  117OSM   H11F12260   4.710   1.294   5.358  3.0510 -0.9518 -1.8867
  117OSM   H11G12261   4.818   1.414   5.298  1.0291 -0.5482  0.4460
  117OSM   C12F12262   4.603   1.447   5.268  1.2001  0.0894 -0.1155
  117OSM   H12F12263   4.610   1.558   5.256 -0.0064  0.1754 -0.1493
  117OSM   H12G12264   4.502   1.425   5.307  0.6801  2.3247 -0.0484
  117OSM   C13F12265   4.607   1.393   5.122  0.0350  0.3335  0.3284
  117OSM   H13F12266   4.602   1.282   5.132  1.0659  0.3572  1.2902
  117OSM   H13G12267   4.705   1.414   5.075 -0.5400  3.6165  0.3753
  117OSM   C14F12268   4.494   1.445   5.033  0.3247  0.4695 -0.3959
  117OSM   H14F12269   4.402   1.403   5.079  1.0684 -0.2727  0.4683
  117OSM   H14G12270   4.493   1.391   4.936  2.3247  1.4173 -1.0096
  117OSM   C15F12271   4.477   1.596   5.022  0.1607  0.0265  0.5051
  117OSM   H15F12272   4.483   1.641   5.124  0.4865 -0.8452  0.8868
  117OSM   H15G12273   4.376   1.610   4.978 -0.3418 -0.3228  1.5015
  117OSM   C16F12274   4.563   1.675   4.910 -0.1227  0.3888  0.0976
  117OSM   H16F12275   4.510   1.772   4.908 -2.6859 -0.8989  1.0991
  117OSM   H16G12276   4.560   1.611   4.819  0.9230 -0.2290  0.4828
  117OSM   C17F12277   4.706   1.696   4.961  0.9565 -0.4805 -0.1900
  117OSM   H17F12278   4.746   1.601   5.003 -0.4935 -0.9435  0.1995
  117OSM   H17G12279   4.695   1.765   5.046 -1.4258 -2.3378  1.1232
  117OSM   C18F12280   4.796   1.741   4.843 -0.2855 -0.2435  0.0690
  117OSM   H18F12281   4.903   1.745   4.872 -0.7114  0.1546  1.6871
  117OSM   H18G12282   4.769   1.846   4.817  2.4741  0.5301 -0.0063
  117OSM   H18H12283   4.772   1.677   4.756  1.3519  0.4135 -0.9053
  118OSM      N12284   6.752   0.744   6.989 -0.2563 -0.0334 -0.2121
  118OSM    C1512285   6.797   0.656   6.877  0.1583  0.3928  0.4087
  118OSM   H15A12286   6.703   0.659   6.824  0.1369  4.1650  0.3547
  118OSM   H15B12287   6.830   0.557   6.903 -0.2262 -1.1005 -4.0902
  118OSM   H15C12288   6.863   0.715   6.816 -0.3524 -0.2783 -0.8163
  118OSM    C1412289   6.857   0.741   7.094  0.0941 -0.0557  0.0991
  118OSM   H14A12290   6.818   0.786   7.184  1.0639  0.6052  0.2114
  118OSM   H14B12291   6.942   0.798   7.060 -0.3633 -0.1776 -1.3016
  118OSM   H14C12292   6.892   0.642   7.116  2.3696  0.6429 -0.1200
  118OSM    C1312293   6.730   0.878   6.934  0.1497  0.0675  0.3518
  118OSM   H13A12294   6.823   0.931   6.916  0.5602 -0.4670  0.8565
  118OSM   H13B12295   6.669   0.939   6.999 -0.2570 -0.3232  0.3364
  118OSM   H13C12296   6.669   0.879   6.846  0.9721  0.4455 -0.2292
  118OSM    C1212297   6.624   0.691   7.045  0.2456  0.2048 -0.2222
  118OSM   H12A12298   6.612   0.734   7.144  0.8729 -1.5354  0.6492
  118OSM   H12B12299   6.648   0.591   7.078 -0.2922  0.9572  2.8521
  118OSM    C1112300   6.496   0.677   6.968 -0.6577  0.3006  0.3804
  118OSM   H11A12301   6.488   0.780   6.928 -2.2129  1.1438  2.6725
  118OSM   H11B12302   6.406   0.663   7.031 -0.4844  0.0738  0.5831
  118OSM      P12303   6.490   0.432   6.873  0.4860  0.0091 -0.1658
  118OSM    O1312304   6.569   0.377   6.983 -0.8774 -0.1238 -0.2107
  118OSM    O1412305   6.348   0.388   6.879 -0.0753 -0.4299  0.3202
  118OSM    O1112306   6.552   0.374   6.745 -0.1590  0.0785  0.4021
  118OSM    O1212307   6.493   0.585   6.860 -0.1396  0.1267  0.6336
  118OSM    C1S12308   6.561   0.458   6.626  0.2540  0.3243 -0.6009
  118OSM    H1S12309   6.654   0.519   6.633 -0.5373  1.5792 -0.7636
  118OSM    H1T12310   6.471   0.518   6.604  0.8375  0.8382 -1.6362
  118OSM     NF12311   6.651   0.462   6.396 -0.0974  0.5144  0.1578
  118OSM    HNF12312   6.588   0.480   6.321  0.4888  2.0112 -0.0134
  118OSM    C2S12313   6.596   0.378   6.499 -0.0039  0.8956 -0.0930
  118OSM    H2S12314   6.656   0.287   6.521 -2.2816 -1.1848 -1.7716
  118OSM    C3S12315   6.459   0.315   6.461  0.0030  0.3450 -0.0175
  118OSM    H3S12316   6.390   0.401   6.452  2.1879  2.1413 -0.7451
  118OSM     O312317   6.399   0.236   6.561 -0.3937  0.7189 -0.6215
  118OSM    HO312318   6.435   0.281   6.638 -1.8392  2.6167 -0.9746
  118OSM    C4S12319   6.465   0.245   6.326  1.2222 -0.2833 -0.2528
  118OSM    H4S12320   6.422   0.303   6.243  2.7140  1.1732 -0.0606
  118OSM    C5S12321   6.512   0.123   6.303  0.8813 -0.6725  0.4862
  118OSM    H5S12322   6.531   0.063   6.393  0.5227  0.2330  1.1907
  118OSM    C6S12323   6.520   0.070   6.163  0.0100  0.0522 -0.3303
  118OSM    H6S12324   6.567  -0.030   6.173  1.1299  0.3945 -1.7439
  118OSM    H6T12325   6.583   0.137   6.100 -1.7173  2.6409  0.5452
  118OSM    C7S12326   6.384   0.055   6.083 -0.2335 -0.1242 -0.5984
  118OSM    H7S12327   6.343   0.151   6.045 -1.2140 -1.0054 -1.8681
  118OSM    H7T12328   6.317   0.022   6.165  0.3497  1.7226  0.6904
  118OSM    C8S12329   6.391  -0.034   5.959 -0.0628 -0.5902 -0.2927
  118OSM    H8S12330   6.282  -0.034   5.938 -0.1999  0.1392  0.3849
  118OSM    H8T12331   6.430  -0.134   5.986  0.3965 -0.1963  0.5402
  118OSM    C9S12332   6.466   0.025   5.837 -0.4224 -0.5086  0.1965
  118OSM    H9S12333   6.574   0.020   5.863 -0.4163  1.0907  0.5654
  118OSM    H9T12334   6.437   0.133   5.836 -0.6425 -0.5258  2.1511
  118OSM   C10S12335   6.420  -0.037   5.705 -0.2999 -0.8374  0.3868
  118OSM   H10S12336   6.315  -0.075   5.707 -0.2589 -1.0487 -0.7204
  118OSM   H10T12337   6.478  -0.127   5.678 -1.3379 -0.9462 -1.6570
  118OSM   C11S12338   6.426   0.060   5.580 -0.0364 -0.0981 -0.3783
  118OSM   H11S12339   6.525   0.109   5.593 -0.0010 -0.1781 -0.3383
  118OSM   H11T12340   6.349   0.139   5.592  0.1423 -0.0202  0.3593
  118OSM   C12S12341   6.427  -0.001   5.443  0.3871  0.1704  0.0067
  118OSM   H12S12342   6.320  -0.020   5.419 -0.2169  2.8577  0.1919
  118OSM   H12T12343   6.479  -0.099   5.436 -2.4513 -1.3994 -0.8961
  118OSM   C13S12344   6.491   0.093   5.339  0.0641  0.0033  0.3825
  118OSM   H13S12345   6.593   0.097   5.384 -0.1258  1.9404  0.7139
  118OSM   H13T12346   6.438   0.190   5.343 -2.1750 -1.1603  0.3232
  118OSM   C14S12347   6.503   0.042   5.200  0.1186 -0.5059  0.1234
  118OSM   H14S12348   6.524  -0.067   5.208  0.5176 -0.2754  3.3863
  118OSM   H14T12349   6.581   0.108   5.158  0.2751 -0.4503  0.4961
  118OSM   C15S12350   6.377   0.071   5.109  0.2741  0.1750  0.7490
  118OSM   H15S12351   6.350   0.179   5.110 -2.4883 -0.4178 -0.6582
  118OSM   H15T12352   6.288   0.014   5.143  0.0127  1.8806  3.1813
  118OSM   C16S12353   6.388   0.038   4.957  0.7689 -0.5270 -0.2421
  118OSM   H16S12354   6.428  -0.065   4.960 -0.8337 -1.1629  0.9791
  118OSM   H16T12355   6.462   0.105   4.907  1.2832 -0.3289  0.7594
  118OSM   C17S12356   6.252   0.052   4.886  0.8830 -0.0671 -0.7593
  118OSM   H17S12357   6.279   0.073   4.780 -2.0704 -0.8797 -1.7922
  118OSM   H17T12358   6.202   0.139   4.933  3.4101  1.0003  0.1111
  118OSM   C18S12359   6.156  -0.067   4.885  0.3363  0.4548  0.1510
  118OSM   H18S12360   6.111  -0.106   4.979  0.3998  0.3624  0.1424
  118OSM   H18T12361   6.210  -0.147   4.831  1.0949  1.3709 -0.4810
  118OSM   H18U12362   6.069  -0.042   4.820 -1.3710 -1.9521  1.3352
  118OSM    C1F12363   6.770   0.503   6.404 -0.5588  0.4019  0.5804
  118OSM     OF12364   6.844   0.452   6.488  0.1903  0.3434 -0.2783
  118OSM    C2F12365   6.827   0.592   6.297 -0.0774  0.2937  0.1624
  118OSM    H2F12366   6.815   0.696   6.335  1.8244  1.1138 -1.2608
  118OSM    H2G12367   6.776   0.589   6.198  1.6591  2.4563 -0.8890
  118OSM    C3F12368   6.977   0.570   6.284 -0.2769 -0.2624 -0.1351
  118OSM    H3F12369   6.992   0.460   6.276  1.2024 -0.0739 -0.2099
  118OSM    H3G12370   7.033   0.604   6.373 -0.7014  2.2227 -0.7445
  118OSM    C4F12371   7.028   0.634   6.152 -0.2677  0.0458 -0.4192
  118OSM    H4F12372   7.095   0.714   6.189 -0.6320 -0.4802  1.4743
  118OSM    H4G12373   6.943   0.677   6.094  0.2712  1.3509 -0.2874
  118OSM    C5F12374   7.108   0.534   6.075  0.4726 -0.1339 -0.2300
  118OSM    H5F12375   7.034   0.462   6.035 -2.2552  1.8075  1.0360
  118OSM    H5G12376   7.186   0.481   6.134  2.2887  0.8190 -1.6682
  118OSM    C6F12377   7.170   0.597   5.947  0.2140  0.3457 -0.0479
  118OSM    H6F12378   7.093   0.662   5.901 -0.9617  1.4689  3.2126
  118OSM    H6G12379   7.189   0.510   5.881  0.0715  2.2647 -2.7751
  118OSM    C7F12380   7.305   0.664   5.968 -0.2580 -0.4033 -0.0641
  118OSM    H7F12381   7.365   0.605   6.041  1.2787  0.6638 -0.4100
  118OSM    H7G12382   7.286   0.759   6.022 -1.3426 -0.0746 -0.9757
  118OSM    C8F12383   7.386   0.682   5.834  0.6395  0.1183 -0.6878
  118OSM    H8F12384   7.395   0.580   5.791  0.0053 -1.3574  2.4175
  118OSM    H8G12385   7.485   0.719   5.868 -1.2301  4.6013  0.6114
  118OSM    C9F12386   7.313   0.773   5.739  0.4130  0.4657 -0.2260
  118OSM    H9F12387   7.335   0.881   5.750  1.1926  0.3681 -0.7075
  118OSM   C10F12388   7.235   0.731   5.640  0.1747  0.2745  0.7932
  118OSM   H10F12389   7.201   0.811   5.572 -1.8308  0.2626  1.6946
  118OSM   C11F12390   7.189   0.590   5.609  0.3332  0.0356 -0.5599
  118OSM   H11F12391   7.088   0.570   5.650  0.5507 -2.9809 -1.2921
  118OSM   H11G12392   7.258   0.518   5.658 -0.4995  0.2176  0.9439
  118OSM   C12F12393   7.172   0.558   5.457 -0.3873  0.1623 -0.8776
  118OSM   H12F12394   7.121   0.645   5.411 -1.7498 -0.1482  0.0002
  118OSM   H12G12395   7.109   0.467   5.445  1.0651 -0.8319 -1.2031
  118OSM   C13F12396   7.316   0.535   5.400  0.4517 -0.2552 -0.2274
  118OSM   H13F12397   7.366   0.461   5.466 -0.6718 -1.6248 -0.8540
  118OSM   H13G12398   7.368   0.634   5.395 -0.0710  0.1708  1.8596
  118OSM   C14F12399   7.313   0.484   5.260 -0.0150 -0.1198 -0.2466
  118OSM   H14F12400   7.253   0.392   5.243 -1.1077  0.3122  1.0993
  118OSM   H14G12401   7.417   0.470   5.224  0.2102  1.4482 -0.2705
  118OSM   C15F12402   7.246   0.586   5.164  0.0706 -0.5414  0.9398
  118OSM   H15F12403   7.289   0.688   5.178  0.3577 -0.6561  0.8967
  118OSM   H15G12404   7.137   0.596   5.179 -0.3969  1.7845 -2.7094
  118OSM   C16F12405   7.264   0.560   5.012 -0.4206  0.8774 -1.0898
  118OSM   H16F12406   7.240   0.456   4.980  0.5393  0.6184 -1.0041
  118OSM   H16G12407   7.373   0.577   4.995 -0.5332  2.6192 -0.2682
  118OSM   C17F12408   7.189   0.651   4.918 -0.4069  0.1413 -0.0829
  118OSM   H17F12409   7.084   0.645   4.955  0.0829  0.1926  1.3996
  118OSM   H17G12410   7.199   0.597   4.822  2.6044  0.1070  0.1418
  118OSM   C18F12411   7.242   0.793   4.913 -0.1863 -0.5435  0.2143
  118OSM   H18F12412   7.169   0.863   4.867 -0.1501  0.0334  1.0252
  118OSM   H18G12413   7.344   0.804   4.869  0.5245 -2.0640  1.3821
  118OSM   H18H12414   7.260   0.834   5.014  1.7359  0.8454 -0.6138
  119OSM      N12415   6.758   4.852   6.935 -0.3915  0.4120 -0.3534
  119OSM    C1512416   6.681   4.911   6.825 -0.4576 -0.7023 -0.0640
  119OSM   H15A12417   6.585   4.864   6.813 -1.4152  0.9647  0.6394
  119OSM   H15B12418   6.730   4.918   6.729  0.1979  0.0165  0.3071
  119OSM   H15C12419   6.656   5.014   6.849  2.8047  0.1439  0.2012
  119OSM    C1412420   6.792   4.709   6.894 -0.2636 -0.4803 -0.2017
  119OSM   H14A12421   6.700   4.655   6.875 -0.2638 -1.0771  1.3073
  119OSM   H14B12422   6.843   4.655   6.973 -0.4394  0.9609  0.9397
  119OSM   H14C12423   6.856   4.705   6.807 -0.4914 -1.4032 -0.3431
  119OSM    C1312424   6.883   4.932   6.950 -0.0427  0.0122 -0.3544
  119OSM   H13A12425   6.872   5.037   6.968 -4.1013 -0.7197  3.1337
  119OSM   H13B12426   6.960   4.917   6.876  1.3845 -1.9173  1.3793
  119OSM   H13C12427   6.934   4.897   7.039 -0.4686 -1.2604 -0.5790
  119OSM    C1212428   6.672   4.847   7.061  0.9214  0.5913 -0.2744
  119OSM   H12A12429   6.630   4.943   7.087 -0.1558  0.1399 -0.3231
  119OSM   H12B12430   6.726   4.795   7.140  0.9219  0.8823 -0.0818
  119OSM    C1112431   6.534   4.766   7.051 -0.1059 -0.0586 -0.1899
  119OSM   H11A12432   6.497   4.717   7.143 -1.2724  1.0721 -0.0195
  119OSM   H11B12433   6.536   4.676   6.986 -0.3618 -0.1027 -0.1390
  119OSM      P12434   6.308   4.907   7.072 -0.1630  0.1400 -0.1459
  119OSM    O1312435   6.207   4.793   7.079  0.1511 -0.0986 -0.2318
  119OSM    O1412436   6.352   4.964   7.202  0.4452 -0.2638  0.0395
  119OSM    O1112437   6.247   5.023   6.982  0.5322 -0.6496 -0.7088
  119OSM    O1212438   6.435   4.859   6.994  0.2959 -0.0060  0.0878
  119OSM    C1S12439   6.207   4.978   6.848  0.2712 -0.2077 -0.3161
  119OSM    H1S12440   6.125   4.904   6.835 -2.1716  2.3689 -0.5182
  119OSM    H1T12441   6.294   4.936   6.793 -0.0754  1.3585 -2.1975
  119OSM     NF12442   6.101   5.052   6.651  0.5491  0.2456  0.1192
  119OSM    HNF12443   6.145   5.042   6.562 -0.9620 -0.0575 -0.6166
  119OSM    C2S12444   6.174   5.104   6.762 -0.4496  0.0903  0.2467
  119OSM    H2S12445   6.109   5.176   6.817 -1.3769 -1.5276  1.3497
  119OSM    C3S12446   6.313   5.174   6.733  0.2520 -0.5788  0.3153
  119OSM    H3S12447   6.381   5.095   6.693 -0.5414 -2.5649  2.6468
  119OSM     O312448   6.378   5.220   6.853 -0.1739 -0.0577  0.0953
  119OSM    HO312449   6.324   5.179   6.921  0.1170 -1.3372 -0.4174
  119OSM    C4S12450   6.288   5.283   6.639 -0.7779  0.4694  0.3218
  119OSM    H4S12451   6.227   5.366   6.678  1.2164  0.6229  3.5164
  119OSM    C5S12452   6.350   5.277   6.518  0.1633  0.2819  0.0582
  119OSM    H5S12453   6.413   5.191   6.492 -1.7361 -0.6764 -1.7364
  119OSM    C6S12454   6.365   5.384   6.412  0.3479  0.0812  0.0883
  119OSM    H6S12455   6.328   5.359   6.310  2.2907  3.0590 -1.5185
  119OSM    H6T12456   6.474   5.397   6.391  0.8816 -2.7227  0.7739
  119OSM    C7S12457   6.305   5.524   6.434 -0.5985  0.8223 -0.4054
  119OSM    H7S12458   6.336   5.577   6.526  0.7883  2.5652 -1.8089
  119OSM    H7T12459   6.195   5.509   6.443 -0.5731 -1.1017 -2.3762
  119OSM    C8S12460   6.338   5.626   6.326  0.1024 -0.6106  0.0578
  119OSM    H8S12461   6.300   5.577   6.234 -0.9642 -1.5786  0.9938
  119OSM    H8T12462   6.446   5.648   6.311 -0.0911  1.0696  0.9465
  119OSM    C9S12463   6.256   5.762   6.338  0.0056  0.5388  0.4687
  119OSM    H9S12464   6.304   5.835   6.407  0.6765 -2.2509  3.1612
  119OSM    H9T12465   6.168   5.744   6.403  0.4278  1.5286  1.3426
  119OSM   C10S12466   6.215   5.830   6.209 -0.1580  0.2802 -0.1233
  119OSM   H10S12467   6.145   5.912   6.235 -0.1699  0.4777 -0.7449
  119OSM   H10T12468   6.165   5.758   6.140  0.8815 -2.2079  1.5683
  119OSM   C11S12469   6.332   5.880   6.129  0.5497 -0.5362 -0.0511
  119OSM   H11S12470   6.393   5.791   6.105  0.5030 -1.0923  1.7581
  119OSM   H11T12471   6.386   5.962   6.181 -1.8999  2.3702 -1.7437
  119OSM   C12S12472   6.280   5.945   5.998 -0.7989 -0.1023  0.2068
  119OSM   H12S12473   6.190   6.000   6.032  1.0119  2.8043  0.7198
  119OSM   H12T12474   6.261   5.859   5.930  2.3446 -0.6379 -0.1760
  119OSM   C13S12475   6.389   6.028   5.936 -0.6745 -0.4435 -0.2283
  119OSM   H13S12476   6.487   5.976   5.947 -0.5040 -0.2136 -0.6401
  119OSM   H13T12477   6.390   6.119   6.000 -0.3878 -1.0994  0.7322
  119OSM   C14S12478   6.355   6.066   5.797  0.3842 -1.4636  0.0506
  119OSM   H14S12479   6.396   6.165   5.766 -0.2376 -1.4973 -0.9327
  119OSM   H14T12480   6.245   6.078   5.787  0.0292 -0.2107  3.9402
  119OSM   C15S12481   6.407   5.964   5.705  0.4086  0.0118 -0.5377
  119OSM   H15S12482   6.365   5.868   5.742 -2.3401  0.7235 -1.5897
  119OSM   H15T12483   6.517   5.963   5.721 -0.0221 -1.2927  3.3496
  119OSM   C16S12484   6.381   5.982   5.552  0.4626  0.2014 -0.2327
  119OSM   H16S12485   6.434   6.075   5.522  2.5287 -1.1251 -0.8905
  119OSM   H16T12486   6.271   5.998   5.543  0.2746  0.2645  1.8876
  119OSM   C17S12487   6.424   5.870   5.453 -0.5312  0.2395  0.2432
  119OSM   H17S12488   6.345   5.792   5.457  0.7465 -1.1396 -0.0346
  119OSM   H17T12489   6.512   5.828   5.506 -0.5793  2.8117  2.5857
  119OSM   C18S12490   6.455   5.926   5.315 -0.1653  0.6031  0.4497
  119OSM   H18S12491   6.364   5.982   5.286 -1.9587 -1.4777  1.7855
  119OSM   H18T12492   6.489   5.845   5.247 -0.0252  1.4997 -0.5879
  119OSM   H18U12493   6.531   6.007   5.315  1.5591 -0.9243 -0.6052
  119OSM    C1F12494   5.977   5.007   6.652 -0.2048  0.3563  0.1840
  119OSM     OF12495   5.898   5.035   6.742  0.4598 -0.1744 -0.0700
  119OSM    C2F12496   5.939   4.922   6.535 -0.2173 -0.0886 -0.6977
  119OSM    H2F12497   5.840   4.874   6.554 -0.7348  1.2272  0.0329
  119OSM    H2G12498   6.011   4.841   6.511 -0.4209 -0.0836 -1.3638
  119OSM    C3F12499   5.908   5.022   6.427  0.1492 -0.0490 -0.1576
  119OSM    H3F12500   5.998   5.080   6.397  0.3422  1.8234  3.4337
  119OSM    H3G12501   5.834   5.099   6.455 -0.1674  0.4990 -2.3444
  119OSM    C4F12502   5.858   4.951   6.300 -0.3982 -0.5889 -0.5333
  119OSM    H4F12503   5.754   4.912   6.308 -1.9628  3.2797  0.1677
  119OSM    H4G12504   5.927   4.871   6.265  0.7992  0.1271  0.1486
  119OSM    C5F12505   5.842   5.059   6.187 -0.2041  0.4815  0.1438
  119OSM    H5F12506   5.920   5.134   6.210 -0.2472  0.0128  1.9567
  119OSM    H5G12507   5.747   5.115   6.196 -2.3095 -2.5863 -0.9906
  119OSM    C6F12508   5.861   5.005   6.043 -0.2563  0.0982 -0.2533
  119OSM    H6F12509   5.945   4.934   6.026  0.4225  0.8736 -0.2112
  119OSM    H6G12510   5.872   5.092   5.975  2.8043 -2.0521 -2.8194
  119OSM    C7F12511   5.735   4.938   5.982  0.8143 -0.4842  0.4998
  119OSM    H7F12512   5.657   5.013   5.956  0.5144 -0.8522  0.3220
  119OSM    H7G12513   5.687   4.870   6.055 -0.2068  1.6937  1.9774
  119OSM    C8F12514   5.770   4.865   5.852 -0.7543  0.2817  0.3568
  119OSM    H8F12515   5.829   4.772   5.866  0.1865  0.0921 -3.5310
  119OSM    H8G12516   5.834   4.929   5.787  0.8381 -1.3738  0.2312
  119OSM    C9F12517   5.643   4.816   5.783  0.0296 -0.2884 -0.5278
  119OSM    H9F12518   5.587   4.735   5.833  0.9186 -0.3872  0.3220
  119OSM   C10F12519   5.590   4.874   5.677 -0.0653 -0.3869  0.4053
  119OSM   H10F12520   5.507   4.817   5.632 -0.2974  0.5203 -0.3650
  119OSM   C11F12521   5.651   4.986   5.591  0.2989 -0.8578  0.5303
  119OSM   H11F12522   5.745   5.031   5.627  0.7176 -0.9141 -0.4535
  119OSM   H11G12523   5.579   5.071   5.585  1.3604  0.1156  1.2033
  119OSM   C12F12524   5.702   4.938   5.452 -0.4284  0.2763 -0.6442
  119OSM   H12F12525   5.636   4.859   5.410  0.6221 -1.7020  1.2547
  119OSM   H12G12526   5.797   4.883   5.469  0.7356  2.0415 -1.1716
  119OSM   C13F12527   5.724   5.046   5.341  0.1987  0.3344 -0.1911
  119OSM   H13F12528   5.794   5.118   5.388  2.1044 -2.1485  1.0310
  119OSM   H13G12529   5.626   5.087   5.309 -0.3837 -0.0203  1.0688
  119OSM   C14F12530   5.789   4.984   5.217  0.4544 -0.5161  0.0689
  119OSM   H14F12531   5.740   4.884   5.217 -0.3885 -0.1373  1.5633
  119OSM   H14G12532   5.899   4.988   5.222  0.4476 -1.5009  2.4604
  119OSM   C15F12533   5.760   5.058   5.086  0.7179 -0.4448  0.0087
  119OSM   H15F12534   5.803   5.159   5.100  0.4147 -0.2204 -0.6209
  119OSM   H15G12535   5.652   5.067   5.065  0.1749 -3.7539  0.8396
  119OSM   C16F12536   5.823   5.004   4.962  0.2098 -1.0707 -0.1332
  119OSM   H16F12537   5.792   4.898   4.947 -0.4256 -0.8721 -0.2528
  119OSM   H16G12538   5.934   5.004   4.975  0.3611  0.1635 -1.1976
  119OSM   C17F12539   5.783   5.091   4.840  0.4604  0.2370  0.0676
  119OSM   H17F12540   5.859   5.071   4.762 -0.6803 -2.5730 -0.4551
  119OSM   H17G12541   5.790   5.197   4.872  1.0155  0.6598 -1.3749
  119OSM   C18F12542   5.642   5.054   4.786 -0.1067  0.1682 -0.4080
  119OSM   H18F12543   5.628   5.113   4.693 -0.8930 -0.4105 -0.6673
  119OSM   H18G12544   5.560   5.067   4.860 -3.8255  1.7817 -4.4176
  119OSM   H18H12545   5.641   4.945   4.763 -0.4017 -0.0011  0.3685
  120OSM      N12546   6.762   3.092   6.798  0.2369 -0.0460 -0.6805
  120OSM    C1512547   6.851   3.208   6.831 -0.3165 -0.5607  0.3661
  120OSM   H15A12548   6.888   3.248   6.737  0.3378 -1.1912  0.3498
  120OSM   H15B12549   6.935   3.180   6.893 -1.3782  0.1962  2.2152
  120OSM   H15C12550   6.797   3.287   6.881 -0.2437 -1.0735  1.2619
  120OSM    C1412551   6.831   3.008   6.696  0.2550 -0.5074  0.1791
  120OSM   H14A12552   6.932   2.984   6.727  1.4539  3.1205 -0.4561
  120OSM   H14B12553   6.840   3.062   6.603 -0.5167  1.4186  1.1803
  120OSM   H14C12554   6.785   2.913   6.672  1.7184 -1.3196  0.4319
  120OSM    C1312555   6.755   3.027   6.934  0.2831 -0.0770 -0.4671
  120OSM   H13A12556   6.666   2.965   6.939 -1.0606  1.7904 -0.1786
  120OSM   H13B12557   6.739   3.106   7.006  0.4352  1.4570 -2.0621
  120OSM   H13C12558   6.835   2.957   6.955 -0.1075  0.5267  4.0479
  120OSM    C1212559   6.617   3.131   6.756 -0.1236  0.3521 -0.8689
  120OSM   H12A12560   6.560   3.044   6.728  0.0997  0.1020 -0.5580
  120OSM   H12B12561   6.631   3.181   6.661  3.0681  1.3290 -0.0244
  120OSM    C1112562   6.523   3.226   6.849 -0.3908  0.0968  0.2783
  120OSM   H11A12563   6.470   3.150   6.911  1.0939 -1.5311 -0.3564
  120OSM   H11B12564   6.444   3.269   6.784 -1.7294 -0.8249  1.2374
  120OSM      P12565   6.580   3.475   6.922 -0.1192 -0.0332 -0.4195
  120OSM    O1312566   6.451   3.518   6.981 -0.5811  0.2705  0.0624
  120OSM    O1412567   6.703   3.545   6.973 -0.3464 -0.0231 -0.0270
  120OSM    O1112568   6.571   3.485   6.765 -0.3695 -0.4248 -0.1686
  120OSM    O1212569   6.601   3.315   6.934 -0.4795  0.3427  0.1379
  120OSM    C1S12570   6.686   3.563   6.710  0.3009  0.0503  0.0659
  120OSM    H1S12571   6.784   3.529   6.749  0.8356  1.2173 -0.2108
  120OSM    H1T12572   6.679   3.672   6.726 -4.3618  0.1303 -1.1122
  120OSM     NF12573   6.824   3.583   6.513 -0.5532  0.3001 -0.4513
  120OSM    HNF12574   6.833   3.673   6.471  1.0156  0.7391  0.7556
  120OSM    C2S12575   6.700   3.542   6.562  0.5112 -0.7807  0.0826
  120OSM    H2S12576   6.683   3.434   6.542  0.3511 -0.8163  0.4004
  120OSM    C3S12577   6.582   3.611   6.479 -0.3080 -0.8249 -0.1296
  120OSM    H3S12578   6.605   3.720   6.486 -0.4053 -0.8167  0.0878
  120OSM     O312579   6.457   3.606   6.545  0.4824  0.3087  0.1839
  120OSM    HO312580   6.471   3.561   6.629 -1.2756 -1.5258 -0.4502
  120OSM    C4S12581   6.583   3.577   6.335  0.1132 -0.8475 -0.2842
  120OSM    H4S12582   6.645   3.654   6.287  3.5629 -0.6352  3.8855
  120OSM    C5S12583   6.530   3.467   6.278 -0.1411  0.6128 -0.9779
  120OSM    H5S12584   6.474   3.395   6.340  2.8698 -0.0242  1.2448
  120OSM    C6S12585   6.537   3.430   6.133  0.0765  0.4817 -0.5457
  120OSM    H6S12586   6.441   3.455   6.084 -1.5145  2.3081  3.1065
  120OSM    H6T12587   6.544   3.319   6.128 -1.0841  0.4168 -1.1480
  120OSM    C7S12588   6.663   3.489   6.062  0.1054  0.5961 -0.1224
  120OSM    H7S12589   6.751   3.451   6.118  0.6682  1.0229 -0.6891
  120OSM    H7T12590   6.655   3.600   6.063 -0.2892  0.5690  0.0116
  120OSM    C8S12591   6.699   3.438   5.918 -0.3628  0.2830 -0.4351
  120OSM    H8S12592   6.734   3.333   5.928  0.4827  0.3655 -2.2221
  120OSM    H8T12593   6.791   3.493   5.891  1.4894 -2.4393 -0.0662
  120OSM    C9S12594   6.579   3.446   5.829 -0.4355 -0.2935  0.6699
  120OSM    H9S12595   6.529   3.545   5.841  0.7210  0.2837  0.8940
  120OSM    H9T12596   6.507   3.365   5.855  1.7818 -1.9851  1.8115
  120OSM   C10S12597   6.616   3.432   5.674 -0.0477 -0.4612 -0.1532
  120OSM   H10S12598   6.520   3.434   5.618  0.0658  0.2364 -0.3362
  120OSM   H10T12599   6.674   3.340   5.653  1.4219  0.5565 -0.6827
  120OSM   C11S12600   6.688   3.548   5.601  0.5896 -0.1390  0.2975
  120OSM   H11S12601   6.779   3.571   5.660 -0.2449  3.1915  0.4906
  120OSM   H11T12602   6.615   3.632   5.603 -1.3370 -1.7315  0.4188
  120OSM   C12S12603   6.723   3.505   5.453 -0.3502  0.1485 -0.4188
  120OSM   H12S12604   6.771   3.405   5.447  0.3631  0.3647  1.2881
  120OSM   H12T12605   6.798   3.579   5.415  2.0829 -0.2644  3.0925
  120OSM   C13S12606   6.600   3.508   5.357  0.4080  0.1119  0.1563
  120OSM   H13S12607   6.555   3.604   5.323  0.3015 -0.3250 -0.9794
  120OSM   H13T12608   6.527   3.441   5.407 -0.3982  0.8400 -0.0285
  120OSM   C14S12609   6.638   3.416   5.231  0.0233 -0.2956  0.1602
  120OSM   H14S12610   6.549   3.375   5.177 -1.6396  2.9569  0.1801
  120OSM   H14T12611   6.690   3.321   5.257  1.9102  0.6445 -0.0154
  120OSM   C15S12612   6.723   3.487   5.125  0.0568  0.0817  0.7819
  120OSM   H15S12613   6.816   3.529   5.169  2.4740 -2.1688 -1.8272
  120OSM   H15T12614   6.656   3.570   5.092  0.7874  0.9289  1.3760
  120OSM   C16S12615   6.745   3.397   5.004 -0.1043 -0.4269  0.0084
  120OSM   H16S12616   6.642   3.361   4.984 -0.3429  0.8051 -1.1471
  120OSM   H16T12617   6.805   3.305   5.024 -1.9081 -1.5460  0.4441
  120OSM   C17S12618   6.802   3.474   4.883  0.2863  0.4545 -0.3200
  120OSM   H17S12619   6.839   3.393   4.817  1.0388  0.1511  0.4626
  120OSM   H17T12620   6.887   3.539   4.914  0.1393  0.9608 -0.9416
  120OSM   C18S12621   6.697   3.563   4.802 -0.9120 -0.3698 -0.0731
  120OSM   H18S12622   6.762   3.610   4.725 -0.9690  2.0580  1.2619
  120OSM   H18T12623   6.649   3.648   4.854 -1.5592 -0.0517 -1.1648
  120OSM   H18U12624   6.623   3.493   4.756  0.5606 -0.7258 -2.0573
  120OSM    C1F12625   6.938   3.515   6.526  0.4327  0.2050 -1.4034
  120OSM     OF12626   6.946   3.413   6.607  0.2620  0.0098  0.4322
  120OSM    C2F12627   7.056   3.576   6.462 -0.4866 -0.3889 -0.1455
  120OSM    H2F12628   7.106   3.641   6.536  1.7522  1.3470 -2.9823
  120OSM    H2G12629   7.016   3.640   6.380 -4.3111 -1.3109  0.7936
  120OSM    C3F12630   7.174   3.483   6.419 -0.3275  0.1658 -0.0640
  120OSM    H3F12631   7.208   3.424   6.507  0.8616  1.3946  0.3394
  120OSM    H3G12632   7.261   3.540   6.382  0.5400  0.5685  2.4072
  120OSM    C4F12633   7.128   3.382   6.302 -0.1563 -0.1725  0.3412
  120OSM    H4F12634   7.055   3.312   6.349  0.5936  1.2646  4.0278
  120OSM    H4G12635   7.217   3.320   6.277  0.4608  1.4995 -1.8419
  120OSM    C5F12636   7.068   3.447   6.184  0.9361 -0.4184 -0.0822
  120OSM    H5F12637   7.134   3.527   6.144  0.5627 -0.7674 -1.4349
  120OSM    H5G12638   6.974   3.495   6.220  1.4431 -0.2202  1.0097
  120OSM    C6F12639   7.029   3.355   6.070 -0.5698 -1.0080  0.1660
  120OSM    H6F12640   6.980   3.422   5.997  0.0039  0.5673  1.1632
  120OSM    H6G12641   6.957   3.279   6.106 -1.8844 -0.1132 -0.4871
  120OSM    C7F12642   7.160   3.305   5.992  0.0813 -0.6696  0.2803
  120OSM    H7F12643   7.226   3.235   6.047  0.6374 -1.0713 -0.8519
  120OSM    H7G12644   7.215   3.400   5.978  0.2330 -0.1950  3.4089
  120OSM    C8F12645   7.134   3.244   5.855 -0.2908 -0.8104  0.5318
  120OSM    H8F12646   7.074   3.151   5.863 -0.4397 -0.8691 -0.9605
  120OSM    H8G12647   7.231   3.207   5.814  0.4311 -1.8884  3.0782
  120OSM    C9F12648   7.061   3.343   5.759  0.3077 -0.1186 -0.3634
  120OSM    H9F12649   7.033   3.439   5.806  2.8285 -0.2402  1.5688
  120OSM   C10F12650   7.042   3.318   5.622 -0.0400 -0.3608  0.2298
  120OSM   H10F12651   6.980   3.391   5.568  0.6737  0.2843  0.2741
  120OSM   C11F12652   7.073   3.192   5.543 -0.2687  0.0174 -0.5879
  120OSM   H11F12653   7.023   3.103   5.587 -1.2563  0.2844 -1.1577
  120OSM   H11G12654   7.183   3.174   5.537 -0.4907 -0.8873 -2.7972
  120OSM   C12F12655   7.025   3.191   5.396  0.9065  0.0967 -0.2807
  120OSM   H12F12656   6.914   3.193   5.398  0.7328 -2.6278 -1.4075
  120OSM   H12G12657   7.064   3.095   5.354  2.0099  0.0731  0.7471
  120OSM   C13F12658   7.085   3.307   5.316 -0.7077  0.2281 -0.4786
  120OSM   H13F12659   7.188   3.323   5.355 -0.8204 -1.4803  0.6510
  120OSM   H13G12660   7.031   3.403   5.320 -1.2958 -0.0755 -1.0686
  120OSM   C14F12661   7.114   3.268   5.170 -0.2100  0.1359 -0.0593
  120OSM   H14F12662   7.023   3.249   5.109  0.8516 -4.7360 -0.5581
  120OSM   H14G12663   7.168   3.171   5.163  1.5674  1.1877 -1.9657
  120OSM   C15F12664   7.192   3.378   5.095  0.0586  0.6862 -0.3820
  120OSM   H15F12665   7.297   3.390   5.131 -0.2347  0.1951  0.6893
  120OSM   H15G12666   7.142   3.474   5.120  0.6767  0.9227 -0.0106
  120OSM   C16F12667   7.172   3.355   4.944  0.1664  0.7458 -0.3697
  120OSM   H16F12668   7.222   3.445   4.902 -0.6297  0.6810 -1.4807
  120OSM   H16G12669   7.062   3.345   4.936  0.0768  1.2273  0.1741
  120OSM   C17F12670   7.239   3.231   4.875  0.0727  0.6294 -0.6400
  120OSM   H17F12671   7.186   3.148   4.927  2.2142 -1.0004 -0.8971
  120OSM   H17G12672   7.347   3.217   4.894 -0.0903 -1.7745 -1.1058
  120OSM   C18F12673   7.216   3.220   4.725 -0.1317  0.0943 -0.2877
  120OSM   H18F12674   7.279   3.152   4.662  0.7411  1.6447 -1.1499
  120OSM   H18G12675   7.245   3.324   4.698 -0.9187  1.4263  3.4748
  120OSM   H18H12676   7.109   3.205   4.699 -0.4095  2.8625 -1.0114
  121OSM      N12677   4.185   5.838   7.150 -0.0499  0.0317 -0.3055
  121OSM    C1512678   4.322   5.821   7.209  0.0846 -0.1426 -0.1490
  121OSM   H15A12679   4.358   5.726   7.175  2.5055  0.8593 -0.5577
  121OSM   H15B12680   4.329   5.823   7.317  1.0477  1.2139 -0.2067
  121OSM   H15C12681   4.393   5.896   7.178  0.0681 -0.2284 -0.3944
  121OSM    C1412682   4.094   5.728   7.179 -0.2345  0.1449  0.2119
  121OSM   H14A12683   4.072   5.724   7.285 -1.2160  1.1712  0.0714
  121OSM   H14B12684   4.134   5.636   7.141  1.2812  1.1152 -0.6284
  121OSM   H14C12685   4.000   5.737   7.126  0.6813 -1.5635 -1.8369
  121OSM    C1312686   4.139   5.972   7.199  0.1817  0.9418 -0.2283
  121OSM   H13A12687   4.140   5.987   7.306  3.1582  1.8633 -0.2883
  121OSM   H13B12688   4.040   5.991   7.162 -0.7055 -2.6819 -0.0758
  121OSM   H13C12689   4.200   6.049   7.155  0.0402  1.7138  0.8803
  121OSM    C1212690   4.193   5.849   6.996 -0.0764 -0.4618 -0.9370
  121OSM   H12A12691   4.239   5.943   6.970 -0.0402  0.3017  1.6199
  121OSM   H12B12692   4.094   5.857   6.954 -0.1953  0.4417 -0.5199
  121OSM    C1112693   4.279   5.742   6.926  0.2315  0.3009  0.1938
  121OSM   H11A12694   4.258   5.747   6.817 -1.9670  0.2130  0.5575
  121OSM   H11B12695   4.223   5.652   6.959  1.4670 -0.7308 -0.4868
  121OSM      P12696   4.520   5.802   6.860  0.1942  0.2351 -0.1935
  121OSM    O1312697   4.488   5.943   6.850  0.4891 -0.2133  0.0713
  121OSM    O1412698   4.653   5.754   6.900 -0.1762 -0.7781  0.2630
  121OSM    O1112699   4.469   5.728   6.728 -1.1739 -0.0086  0.3973
  121OSM    O1212700   4.418   5.744   6.968  0.2786 -0.0200 -0.4403
  121OSM    C1S12701   4.569   5.698   6.627 -0.2564 -0.5587  0.3664
  121OSM    H1S12702   4.648   5.628   6.661  0.1240 -1.9082 -2.9637
  121OSM    H1T12703   4.613   5.789   6.581 -0.1370 -1.8691 -2.2687
  121OSM     NF12704   4.611   5.640   6.393 -1.0779 -0.2538 -0.0849
  121OSM    HNF12705   4.610   5.704   6.316  1.6060 -2.2293 -1.9617
  121OSM    C2S12706   4.506   5.641   6.498 -0.0993 -0.5096 -0.6508
  121OSM    H2S12707   4.481   5.536   6.527 -1.7069  0.5533  2.2084
  121OSM    C3S12708   4.376   5.709   6.444  0.2709 -0.5581 -0.5097
  121OSM    H3S12709   4.400   5.809   6.402 -2.1810 -0.4820 -1.9420
  121OSM     O312710   4.271   5.716   6.544  0.4905  0.1537 -0.2544
  121OSM    HO312711   4.307   5.712   6.633  0.5382  0.1568 -0.2737
  121OSM    C4S12712   4.324   5.638   6.322  0.2983  0.0044  0.6893
  121OSM    H4S12713   4.282   5.538   6.343  0.2679 -0.1856 -0.2473
  121OSM    C5S12714   4.305   5.685   6.199 -1.2616  0.3163  0.2061
  121OSM    H5S12715   4.329   5.791   6.179 -1.0442  0.4229  1.0002
  121OSM    C6S12716   4.246   5.605   6.077  0.7478 -0.2119 -0.1060
  121OSM    H6S12717   4.168   5.665   6.027 -0.1876 -1.9922 -0.8757
  121OSM    H6T12718   4.188   5.521   6.122 -0.3662 -0.8303 -2.5308
  121OSM    C7S12719   4.357   5.565   5.983  0.6628 -0.0548  0.0849
  121OSM    H7S12720   4.442   5.527   6.044 -1.0389 -0.9262  2.0489
  121OSM    H7T12721   4.383   5.651   5.918  1.7941 -1.5096 -1.4948
  121OSM    C8S12722   4.303   5.449   5.898 -0.0328  0.5067  0.2152
  121OSM    H8S12723   4.269   5.375   5.973  0.0079 -1.1279 -1.3077
  121OSM    H8T12724   4.390   5.407   5.842  1.3299  1.5999  1.4511
  121OSM    C9S12725   4.187   5.483   5.799 -0.0379 -0.6061  0.0940
  121OSM    H9S12726   4.207   5.582   5.752 -0.0191  0.0722  1.4907
  121OSM    H9T12727   4.090   5.490   5.852 -1.3524 -1.1175 -2.1210
  121OSM   C10S12728   4.174   5.376   5.699  0.2798  0.1144  0.0746
  121OSM   H10S12729   4.155   5.291   5.768 -0.6593  1.6100  1.7045
  121OSM   H10T12730   4.269   5.354   5.645  0.5186  0.2940  0.4200
  121OSM   C11S12731   4.058   5.401   5.604 -0.1201  0.7207  0.1666
  121OSM   H11S12732   4.062   5.505   5.563  2.3570 -0.1173 -2.0538
  121OSM   H11T12733   3.963   5.409   5.661 -1.0757  1.6013 -1.4613
  121OSM   C12S12734   4.046   5.305   5.484  0.8161  0.0424 -0.6223
  121OSM   H12S12735   4.056   5.197   5.507 -2.5716 -0.7204 -2.1188
  121OSM   H12T12736   4.129   5.334   5.416  0.8088 -1.7934 -1.4671
  121OSM   C13S12737   3.915   5.328   5.417  0.0232 -0.0334 -0.6778
  121OSM   H13S12738   3.908   5.436   5.391 -0.6158 -0.3459 -1.8843
  121OSM   H13T12739   3.844   5.303   5.500  0.8929  0.6269  0.2926
  121OSM   C14S12740   3.892   5.246   5.293 -0.0705  0.8412 -0.8954
  121OSM   H14S12741   3.881   5.138   5.317 -2.6232  1.0948 -0.6226
  121OSM   H14T12742   3.986   5.234   5.236 -0.1677  0.2819 -0.9484
  121OSM   C15S12743   3.788   5.299   5.206  1.3687 -0.3899  0.0893
  121OSM   H15S12744   3.823   5.386   5.147 -0.2586  1.3781  1.6143
  121OSM   H15T12745   3.707   5.340   5.270  1.7916  1.3224 -0.4104
  121OSM   C16S12746   3.737   5.193   5.114 -0.2408  0.3547 -0.1139
  121OSM   H16S12747   3.793   5.100   5.135 -1.8588 -0.8297 -0.8464
  121OSM   H16T12748   3.756   5.216   5.007 -2.1453 -0.2310 -0.6195
  121OSM   C17S12749   3.592   5.157   5.118 -0.1138 -0.2113 -0.4915
  121OSM   H17S12750   3.529   5.243   5.149 -1.9921 -1.4165 -0.8202
  121OSM   H17T12751   3.583   5.087   5.204  1.5473  1.5756  1.2603
  121OSM   C18S12752   3.540   5.101   4.983  0.2495  0.6698 -0.5494
  121OSM   H18S12753   3.613   5.024   4.949 -0.1110 -0.0269  0.2008
  121OSM   H18T12754   3.528   5.185   4.912  0.1456  1.8748  0.8407
  121OSM   H18U12755   3.438   5.059   4.995  0.9581 -0.6167  1.5692
  121OSM    C1F12756   4.721   5.561   6.400 -0.0583 -0.1845 -0.4661
  121OSM     OF12757   4.735   5.489   6.497  0.3863  0.0501 -0.1431
  121OSM    C2F12758   4.823   5.566   6.295  0.8969  1.1472  0.0251
  121OSM    H2F12759   4.922   5.601   6.332  0.0006  3.5207  0.3634
  121OSM    H2G12760   4.795   5.638   6.215  2.0138 -0.1195 -1.5590
  121OSM    C3F12761   4.829   5.425   6.220  0.7825  0.2629  0.1206
  121OSM    H3F12762   4.732   5.400   6.171 -0.8839  2.0865  2.2980
  121OSM    H3G12763   4.854   5.349   6.297  1.9911 -1.0999 -1.5169
  121OSM    C4F12764   4.943   5.425   6.122 -0.4212 -0.2820 -0.0165
  121OSM    H4F12765   4.945   5.325   6.073  0.7850 -1.0294  1.4750
  121OSM    H4G12766   5.042   5.442   6.169 -0.0695 -2.6177  0.2010
  121OSM    C5F12767   4.938   5.534   6.014  0.3537  0.2049 -0.3973
  121OSM    H5F12768   4.932   5.632   6.067 -0.6046  0.4585 -0.9339
  121OSM    H5G12769   4.836   5.523   5.969  0.0593  1.2901 -0.0267
  121OSM    C6F12770   5.057   5.540   5.912  0.1872 -0.0669  0.5371
  121OSM    H6F12771   5.047   5.452   5.845 -1.4146  1.4191 -1.2961
  121OSM    H6G12772   5.149   5.533   5.973 -0.3583 -2.8939  1.1988
  121OSM    C7F12773   5.050   5.666   5.829 -0.1657 -0.1350 -0.7069
  121OSM    H7F12774   5.076   5.760   5.881 -1.5147  0.0896 -0.4036
  121OSM    H7G12775   4.943   5.687   5.807 -0.1320  0.4293 -0.3418
  121OSM    C8F12776   5.122   5.653   5.694 -0.4051  0.9525  0.0690
  121OSM    H8F12777   5.062   5.581   5.635  3.9754 -1.2483 -2.2764
  121OSM    H8G12778   5.209   5.585   5.708 -0.3063  1.0458 -0.0892
  121OSM    C9F12779   5.167   5.775   5.620 -0.2726 -0.6747  0.8491
  121OSM    H9F12780   5.255   5.822   5.667  0.7410 -1.6868 -0.0185
  121OSM   C10F12781   5.121   5.816   5.502 -0.5369  0.5785  0.6711
  121OSM   H10F12782   5.166   5.902   5.449 -0.1392 -0.7210 -1.2190
  121OSM   C11F12783   5.001   5.757   5.436 -0.7085  0.5155 -0.4662
  121OSM   H11F12784   4.915   5.765   5.507  0.4744  1.0322  0.9511
  121OSM   H11G12785   5.011   5.654   5.396 -3.1056  0.5684 -1.3755
  121OSM   C12F12786   4.969   5.843   5.308 -0.0922  0.0284  0.5219
  121OSM   H12F12787   5.044   5.831   5.227  1.1203  2.3385  1.2161
  121OSM   H12G12788   4.962   5.947   5.347 -1.6746 -0.3811  1.4320
  121OSM   C13F12789   4.824   5.808   5.260 -0.2709  0.2037 -0.0588
  121OSM   H13F12790   4.755   5.818   5.346 -0.2515  2.6238 -0.2560
  121OSM   H13G12791   4.828   5.707   5.214 -0.6325 -1.2252  2.8627
  121OSM   C14F12792   4.776   5.914   5.154 -0.7100  1.3743 -0.5386
  121OSM   H14F12793   4.840   5.905   5.064 -0.0940  0.6325 -0.0421
  121OSM   H14G12794   4.763   6.021   5.184 -0.1895  1.3901 -0.3651
  121OSM   C15F12795   4.633   5.880   5.097  1.3339  0.1462  0.2868
  121OSM   H15F12796   4.560   5.916   5.173 -0.7698 -2.6389 -0.2462
  121OSM   H15G12797   4.624   5.771   5.077 -0.3144  0.6841 -2.4098
  121OSM   C16F12798   4.602   5.966   4.973 -1.1255  0.8005 -0.0875
  121OSM   H16F12799   4.629   5.905   4.884  1.4745  0.7222  0.6815
  121OSM   H16G12800   4.680   6.045   4.967  2.0318 -1.8470  2.4704
  121OSM   C17F12801   4.459   6.029   4.951 -0.2203  0.7549 -0.0509
  121OSM   H17F12802   4.479   6.091   4.861  3.7114 -1.1572 -0.7034
  121OSM   H17G12803   4.443   6.100   5.036  0.1326 -1.8950  2.3662
  121OSM   C18F12804   4.341   5.933   4.932 -0.0312 -0.0605 -0.2142
  121OSM   H18F12805   4.252   5.995   4.906  1.6958  1.6556 -2.4246
  121OSM   H18G12806   4.313   5.870   5.019  0.6375 -0.9422 -0.6272
  121OSM   H18H12807   4.357   5.865   4.846  0.5067 -0.8269  0.4695
  122OSM      N12808   2.236   3.584   7.093  0.3037 -0.8604 -0.2004
  122OSM    C1512809   2.165   3.452   7.077  0.1236  0.2023  0.4048
  122OSM   H15A12810   2.227   3.369   7.048  1.4225  0.6302  1.8250
  122OSM   H15B12811   2.078   3.457   7.013 -0.5185 -0.6239  1.2042
  122OSM   H15C12812   2.136   3.429   7.178 -3.4172  0.8573 -0.3065
  122OSM    C1412813   2.144   3.689   7.153  0.1353  0.5520  0.3249
  122OSM   H14A12814   2.056   3.705   7.093  0.2522  1.3944  0.3666
  122OSM   H14B12815   2.197   3.782   7.170 -1.3207  1.7762 -1.4760
  122OSM   H14C12816   2.109   3.650   7.248  0.3397 -1.6996 -0.4719
  122OSM    C1312817   2.357   3.560   7.178 -0.1525  0.2704  0.6044
  122OSM   H13A12818   2.419   3.483   7.135  2.2653  1.5910  1.5243
  122OSM   H13B12819   2.326   3.516   7.271  1.8491 -0.4787  0.9789
  122OSM   H13C12820   2.418   3.648   7.189  0.3075 -0.2285  2.3444
  122OSM    C1212821   2.273   3.634   6.955  0.3215  0.5061 -0.2278
  122OSM   H12A12822   2.181   3.648   6.901  1.4419 -1.0687 -2.7299
  122OSM   H12B12823   2.314   3.550   6.901 -1.5096  0.2772 -1.3242
  122OSM    C1112824   2.351   3.767   6.943  0.1993  0.3858 -0.5915
  122OSM   H11A12825   2.407   3.780   6.847  1.7030 -3.0420 -0.3002
  122OSM   H11B12826   2.433   3.770   7.018 -0.5920  0.0887  0.3066
  122OSM      P12827   2.193   3.958   6.868 -0.3578 -0.1684  0.3328
  122OSM    O1312828   2.120   4.077   6.918 -0.1180  0.1154  0.4043
  122OSM    O1412829   2.279   3.980   6.748 -0.5055  0.3346 -0.7035
  122OSM    O1112830   2.081   3.852   6.821 -0.0434  0.4912  0.0560
  122OSM    O1212831   2.274   3.886   6.978  0.6393  0.1833  0.2742
  122OSM    C1S12832   1.992   3.894   6.715 -0.2545 -0.8458  0.5149
  122OSM    H1S12833   1.990   4.004   6.697  1.5021 -0.9146 -0.3077
  122OSM    H1T12834   1.891   3.870   6.755 -2.6725  1.3008 -3.5926
  122OSM     NF12835   1.937   3.886   6.461 -0.0370  0.7719  0.2595
  122OSM    HNF12836   1.852   3.843   6.430  1.3919 -1.2484 -1.1492
  122OSM    C2S12837   2.010   3.826   6.574 -0.3346  0.0633 -0.6572
  122OSM    H2S12838   2.118   3.829   6.545  0.1760 -0.0662  1.1064
  122OSM    C3S12839   1.981   3.675   6.589 -0.4799 -0.7845 -1.0564
  122OSM    H3S12840   1.887   3.665   6.647 -0.6673  1.2883 -0.9224
  122OSM     O312841   2.089   3.609   6.658  0.1859 -0.2484 -0.3558
  122OSM    HO312842   2.122   3.671   6.723 -1.2820 -0.4648  0.6464
  122OSM    C4S12843   1.955   3.601   6.461 -0.5411 -0.0321 -0.5323
  122OSM    H4S12844   1.850   3.587   6.434 -0.2569 -0.3434 -1.4970
  122OSM    C5S12845   2.038   3.530   6.385  0.2110 -0.4097  0.2534
  122OSM    H5S12846   2.141   3.518   6.422  0.1482 -0.2055  0.4952
  122OSM    C6S12847   2.003   3.445   6.272  0.1856 -0.4398  0.3609
  122OSM    H6S12848   1.898   3.465   6.241  0.4444 -0.8661 -0.8824
  122OSM    H6T12849   1.999   3.339   6.307  0.5697 -1.1385 -1.5718
  122OSM    C7S12850   2.101   3.461   6.154 -0.3420 -0.1994 -0.5352
  122OSM    H7S12851   2.182   3.384   6.151 -1.3993 -1.3661  0.0963
  122OSM    H7T12852   2.155   3.558   6.155 -1.6136  0.5580 -1.7190
  122OSM    C8S12853   2.027   3.420   6.029 -0.4936  0.1910  0.2331
  122OSM    H8S12854   1.925   3.464   6.031 -0.3746  0.4721  0.1255
  122OSM    H8T12855   2.012   3.310   6.041 -1.2761  0.4172  1.4027
  122OSM    C9S12856   2.097   3.451   5.893 -0.1390 -0.5937 -0.5455
  122OSM    H9S12857   2.194   3.397   5.897 -0.2270 -0.7213  0.1639
  122OSM    H9T12858   2.127   3.557   5.883  2.8757 -1.4538 -1.9472
  122OSM   C10S12859   2.032   3.401   5.770 -0.2830  0.0911  0.3639
  122OSM   H10S12860   1.932   3.446   5.756  0.1460  0.5653 -1.4359
  122OSM   H10T12861   2.011   3.292   5.760 -3.9663  0.5170  1.9192
  122OSM   C11S12862   2.112   3.436   5.643  0.0177  0.1851  0.1000
  122OSM   H11S12863   2.207   3.379   5.652  0.4506  0.9417  0.4345
  122OSM   H11T12864   2.130   3.545   5.635  1.3253 -0.0492 -0.4455
  122OSM   C12S12865   2.049   3.397   5.512  0.7031  0.3381 -0.0958
  122OSM   H12S12866   1.938   3.406   5.515  0.5844 -0.8584 -0.4805
  122OSM   H12T12867   2.064   3.287   5.507 -0.5128  0.1433  0.1654
  122OSM   C13S12868   2.116   3.455   5.385  0.7172 -0.2166  0.3635
  122OSM   H13S12869   2.225   3.441   5.394  0.9289  0.2234 -1.2605
  122OSM   H13T12870   2.096   3.565   5.388 -0.5563 -0.4129 -0.0954
  122OSM   C14S12871   2.070   3.402   5.240  0.7044 -0.5797 -0.1787
  122OSM   H14S12872   1.971   3.436   5.204  0.4812 -1.6857 -0.6449
  122OSM   H14T12873   2.062   3.292   5.253 -2.0536 -0.3018  0.9439
  122OSM   C15S12874   2.171   3.451   5.135  0.0141 -1.3521 -0.7108
  122OSM   H15S12875   2.275   3.426   5.166 -0.2519  0.3678  1.8466
  122OSM   H15T12876   2.164   3.561   5.146  0.5893 -1.3688 -0.1022
  122OSM   C16S12877   2.147   3.408   4.987  0.7209  0.0664 -0.7082
  122OSM   H16S12878   2.200   3.474   4.916  0.0669  0.3039 -0.9911
  122OSM   H16T12879   2.038   3.418   4.967  0.3871 -2.0046 -0.1613
  122OSM   C17S12880   2.176   3.265   4.964 -0.4140 -0.3468  0.4399
  122OSM   H17S12881   2.114   3.213   5.040 -2.1991  0.8753 -0.1234
  122OSM   H17T12882   2.285   3.249   4.981 -0.5007 -2.2915 -0.5282
  122OSM   C18S12883   2.149   3.227   4.819  0.5218  0.7636  0.5852
  122OSM   H18S12884   2.143   3.117   4.807  1.2603  0.7893 -0.1005
  122OSM   H18T12885   2.217   3.267   4.741  0.0454  0.0576 -0.2099
  122OSM   H18U12886   2.048   3.262   4.789  0.5995  0.1510 -0.4190
  122OSM    C1F12887   1.966   4.001   6.404 -1.2574 -0.2417  0.2451
  122OSM     OF12888   2.034   4.084   6.464  0.6817 -0.4085  0.3727
  122OSM    C2F12889   1.910   4.039   6.270  0.1246  0.0164 -0.3379
  122OSM    H2F12890   1.801   4.041   6.288  0.3278  1.2000  0.9051
  122OSM    H2G12891   1.921   3.962   6.191 -0.2607  0.1311 -0.5057
  122OSM    C3F12892   1.951   4.178   6.211  0.6459 -0.0663 -0.1013
  122OSM    H3F12893   2.054   4.160   6.172  0.2820 -1.6431 -0.3913
  122OSM    H3G12894   1.959   4.245   6.299 -0.0328 -1.3599  0.9704
  122OSM    C4F12895   1.863   4.231   6.093 -0.0178 -0.4525 -0.0870
  122OSM    H4F12896   1.912   4.325   6.059 -0.3188 -0.2028  0.1665
  122OSM    H4G12897   1.761   4.260   6.124  0.7310  0.0719  2.0086
  122OSM    C5F12898   1.850   4.132   5.973  0.8078 -0.6131  0.1645
  122OSM    H5F12899   1.773   4.057   6.000 -0.5353  0.6609  0.0023
  122OSM    H5G12900   1.944   4.077   5.947  0.2061 -2.6479  1.9440
  122OSM    C6F12901   1.791   4.200   5.845  0.5171 -0.0048  0.3960
  122OSM    H6F12902   1.872   4.267   5.809  1.5973 -0.1152  2.4148
  122OSM    H6G12903   1.694   4.249   5.865 -1.1258 -2.3091 -1.3828
  122OSM    C7F12904   1.779   4.088   5.740  0.3190 -0.3106  0.4721
  122OSM    H7F12905   1.688   4.030   5.766 -1.3100  2.2452  0.8635
  122OSM    H7G12906   1.875   4.033   5.739  0.2635 -0.4673 -1.6175
  122OSM    C8F12907   1.769   4.142   5.592  0.1159  0.0153  0.3802
  122OSM    H8F12908   1.862   4.190   5.555 -1.6768  2.9479 -0.6857
  122OSM    H8G12909   1.693   4.222   5.606 -1.1130 -1.3815  2.2551
  122OSM    C9F12910   1.732   4.038   5.493 -0.0059  0.1868  0.1036
  122OSM    H9F12911   1.762   3.935   5.519 -0.2283  0.2521  0.6250
  122OSM   C10F12912   1.645   4.050   5.387  0.1627  0.4477 -0.4838
  122OSM   H10F12913   1.623   3.963   5.323 -0.0217 -1.4457  1.9862
  122OSM   C11F12914   1.572   4.177   5.354  0.0756 -0.0884 -0.0668
  122OSM   H11F12915   1.574   4.246   5.441  1.1946  1.4597 -1.2647
  122OSM   H11G12916   1.468   4.148   5.329 -0.9267  1.7999  1.6418
  122OSM   C12F12917   1.626   4.255   5.229 -0.8511  0.2909 -0.8606
  122OSM   H12F12918   1.556   4.338   5.207 -1.5018  0.2112  0.6970
  122OSM   H12G12919   1.626   4.182   5.145 -3.0201 -1.8478  0.8072
  122OSM   C13F12920   1.758   4.320   5.268 -0.6756 -0.5835  1.5236
  122OSM   H13F12921   1.824   4.239   5.304 -1.4272 -1.9890 -0.0822
  122OSM   H13G12922   1.746   4.392   5.352  0.2652 -1.2437  2.2407
  122OSM   C14F12923   1.838   4.376   5.155 -0.2295  0.4763  0.0335
  122OSM   H14F12924   1.926   4.435   5.188 -0.2474 -0.1084  1.1709
  122OSM   H14G12925   1.775   4.451   5.102 -2.6973 -1.5822 -0.0957
  122OSM   C15F12926   1.878   4.272   5.049 -0.2217  0.1888  0.7620
  122OSM   H15F12927   1.791   4.260   4.981  0.2032  1.1975  0.0191
  122OSM   H15G12928   1.889   4.172   5.096  1.2914 -0.6493 -1.2094
  122OSM   C16F12929   2.008   4.306   4.973 -0.6198 -0.2518 -0.0088
  122OSM   H16F12930   2.023   4.224   4.898 -1.8456  0.1444 -0.7083
  122OSM   H16G12931   2.096   4.306   5.040 -1.0624 -0.0505  0.5777
  122OSM   C17F12932   2.002   4.442   4.900  0.2655 -0.1947  0.5497
  122OSM   H17F12933   2.101   4.463   4.853 -0.1928 -0.1027 -0.4096
  122OSM   H17G12934   1.994   4.529   4.970  0.8264 -0.4298  0.9122
  122OSM   C18F12935   1.904   4.454   4.782 -0.0680  0.5006  0.6338
  122OSM   H18F12936   1.907   4.559   4.745 -0.8793  0.5806  0.7685
  122OSM   H18G12937   1.801   4.437   4.821 -0.0152 -2.1009 -0.1766
  122OSM   H18H12938   1.925   4.387   4.696  0.2495 -1.5411  2.2213
  123OSM      N12939   0.515   1.559   1.936  0.0059 -0.5540  0.5948
  123OSM    C1512940   0.605   1.643   2.022 -0.1253 -0.4101 -0.0557
  123OSM   H15A12941   0.634   1.734   1.972  0.1311 -0.4920 -0.0579
  123OSM   H15B12942   0.699   1.607   2.063  0.9614  0.9702 -1.2027
  123OSM   H15C12943   0.549   1.667   2.111  1.6103  1.2358  0.6567
  123OSM    C1412944   0.397   1.640   1.888  0.4455 -0.9756 -0.1096
  123OSM   H14A12945   0.325   1.567   1.854 -0.1385 -1.0099  1.1142
  123OSM   H14B12946   0.424   1.715   1.817 -0.6957 -1.0912 -0.6816
  123OSM   H14C12947   0.340   1.680   1.970 -3.0430 -1.6053 -2.0566
  123OSM    C1312948   0.595   1.519   1.816  0.2987 -0.1565  0.5385
  123OSM   H13A12949   0.536   1.485   1.732  0.2880  3.2951 -1.0380
  123OSM   H13B12950   0.667   1.445   1.845 -0.4094 -0.5073  1.4715
  123OSM   H13C12951   0.649   1.600   1.770 -0.1918 -0.3926 -0.4800
  123OSM    C1212952   0.462   1.442   2.020 -0.8697 -0.7661  0.1978
  123OSM   H12A12953   0.540   1.379   2.060 -0.5473 -0.0600  0.6811
  123OSM   H12B12954   0.408   1.379   1.950  0.4855 -0.7125 -0.9225
  123OSM    C1112955   0.370   1.479   2.142  0.0152  0.3331  0.1113
  123OSM   H11A12956   0.340   1.386   2.195 -2.0875  1.4531  1.0247
  123OSM   H11B12957   0.276   1.526   2.104  0.0173 -0.8344 -1.4185
  123OSM      P12958   0.503   1.517   2.368  0.2425 -0.4644 -0.4047
  123OSM    O1312959   0.463   1.378   2.398 -0.0797  0.7951 -0.2616
  123OSM    O1412960   0.647   1.548   2.358 -0.1230 -0.0966  0.1274
  123OSM    O1112961   0.448   1.612   2.479 -0.2216  0.0206 -0.3006
  123OSM    O1212962   0.432   1.563   2.238 -0.4081  0.5848 -0.0707
  123OSM    C1S12963   0.310   1.594   2.523 -0.1747 -0.0992 -0.0551
  123OSM    H1S12964   0.277   1.488   2.519  0.3141 -0.2160 -1.8047
  123OSM    H1T12965   0.233   1.647   2.462  0.9721 -0.4861 -1.9055
  123OSM     NF12966   0.171   1.641   2.721  1.0633  0.2979  0.0678
  123OSM    HNF12967   0.093   1.703   2.722 -0.2209 -1.2176  2.0142
  123OSM    C2S12968   0.295   1.668   2.657 -0.0096  0.3808  0.3452
  123OSM    H2S12969   0.376   1.633   2.724  2.2469 -0.8856 -2.7945
  123OSM    C3S12970   0.323   1.822   2.634  0.2799  0.2177 -0.5094
  123OSM    H3S12971   0.262   1.850   2.546  0.5491 -0.4876 -0.9253
  123OSM     O312972   0.451   1.858   2.594 -0.0522  0.2501  0.0470
  123OSM    HO312973   0.493   1.774   2.575 -0.8930 -0.6791  1.9715
  123OSM    C4S12974   0.293   1.908   2.755 -0.3204  0.2314 -0.3475
  123OSM    H4S12975   0.186   1.912   2.776 -0.4819 -0.4520 -0.9814
  123OSM    C5S12976   0.382   1.952   2.846  0.3101 -0.3042 -0.0110
  123OSM    H5S12977   0.489   1.935   2.826  0.6940  0.6520  1.1376
  123OSM    C6S12978   0.360   2.020   2.978 -0.3547  0.4064  0.3726
  123OSM    H6S12979   0.268   2.081   2.967 -1.5056 -1.4659 -1.3705
  123OSM    H6T12980   0.440   2.095   2.993  1.3819 -1.2232 -0.2966
  123OSM    C7S12981   0.353   1.922   3.098  0.2209  0.5330 -0.5009
  123OSM    H7S12982   0.443   1.858   3.108  0.0756  0.5090  0.7821
  123OSM    H7T12983   0.261   1.860   3.089 -0.2207  0.9316  1.0453
  123OSM    C8S12984   0.344   1.995   3.230  0.2160  0.1669  0.6990
  123OSM    H8S12985   0.311   1.915   3.301  1.3761 -0.7565  0.2440
  123OSM    H8T12986   0.267   2.073   3.214  0.3195  0.0788 -0.2545
  123OSM    C9S12987   0.484   2.042   3.280  1.3740  0.1969  0.0876
  123OSM    H9S12988   0.508   2.123   3.207  1.2684 -0.8179 -1.1096
  123OSM    H9T12989   0.563   1.965   3.292  1.0948 -0.2937 -1.0948
  123OSM   C10S12990   0.462   2.114   3.416 -0.2158 -0.2369  0.0971
  123OSM   H10S12991   0.556   2.153   3.461 -1.2970  0.2472  2.0451
  123OSM   H10T12992   0.420   2.046   3.493  0.7986  1.6617  2.4720
  123OSM   C11S12993   0.376   2.249   3.406  0.1423  0.8071  0.7106
  123OSM   H11S12994   0.280   2.227   3.354  0.0626  2.1516  0.2771
  123OSM   H11T12995   0.430   2.333   3.358  1.1095  1.1202  2.2839
  123OSM   C12S12996   0.333   2.283   3.557 -0.0171 -0.6646  0.2155
  123OSM   H12S12997   0.417   2.332   3.611  0.1888 -3.1045  2.2533
  123OSM   H12T12998   0.323   2.183   3.604  2.4209 -1.3357 -0.5312
  123OSM   C13S12999   0.209   2.371   3.581 -0.1057 -0.4356  0.3410
  123OSM   H13S13000   0.124   2.308   3.546  0.5800 -2.4383  2.0321
  123OSM   H13T13001   0.214   2.464   3.522 -0.6096 -0.6399 -0.0310
  123OSM   C14S13002   0.179   2.394   3.727 -0.5980  0.0671  0.4745
  123OSM   H14S13003   0.083   2.449   3.735 -0.2602  1.2418 -2.4394
  123OSM   H14T13004   0.256   2.460   3.775 -1.7991 -0.0578  2.6884
  123OSM   C15S13005   0.179   2.266   3.805 -0.1384  0.3892  0.6651
  123OSM   H15S13006   0.278   2.216   3.803 -0.5297 -0.3724 -0.1461
  123OSM   H15T13007   0.111   2.200   3.747 -1.5209  3.3349 -1.3001
  123OSM   C16S13008   0.131   2.281   3.949 -0.2587 -0.3849  0.5474
  123OSM   H16S13009   0.142   2.185   4.003  0.3466 -0.7690 -0.2319
  123OSM   H16T13010   0.025   2.314   3.948  0.1414  0.9635  0.5975
  123OSM   C17S13011   0.224   2.374   4.034 -0.0038 -0.2631 -0.0811
  123OSM   H17S13012   0.208   2.478   3.997  0.5000 -0.9595 -2.4399
  123OSM   H17T13013   0.331   2.344   4.029  1.2268  3.4892  0.4861
  123OSM   C18S13014   0.184   2.376   4.183 -0.0604 -1.1342  0.3958
  123OSM   H18S13015   0.079   2.409   4.203  0.4002  0.5871  0.1396
  123OSM   H18T13016   0.256   2.440   4.237  1.3988 -1.5613 -0.9533
  123OSM   H18U13017   0.202   2.273   4.221  1.9103 -0.6185  0.9865
  123OSM    C1F13018   0.144   1.524   2.781  0.3551 -0.0065  0.4917
  123OSM     OF13019   0.222   1.429   2.771  0.4667 -0.4865  0.0832
  123OSM    C2F13020   0.011   1.509   2.847  0.1363 -0.1131 -0.1668
  123OSM    H2F13021  -0.014   1.402   2.830  1.0926 -0.3303 -0.2890
  123OSM    H2G13022  -0.063   1.569   2.789  0.2287 -1.4418 -1.7346
  123OSM    C3F13023   0.016   1.539   3.002  0.3735 -0.2452  0.6352
  123OSM    H3F13024  -0.083   1.516   3.047  0.6813 -1.9442  0.4992
  123OSM    H3G13025   0.041   1.646   3.017  1.4943 -0.4611  0.3959
  123OSM    C4F13026   0.118   1.456   3.077 -0.4001  0.3370  0.2899
  123OSM    H4F13027   0.219   1.481   3.037 -1.9347 -0.7955 -5.1190
  123OSM    H4G13028   0.100   1.351   3.045  1.5464 -0.7882  2.5673
  123OSM    C5F13029   0.099   1.472   3.226  0.7153 -0.4669 -0.2868
  123OSM    H5F13030   0.153   1.385   3.269  0.3286 -0.8334 -0.5297
  123OSM    H5G13031  -0.006   1.459   3.262  0.8393  1.9587  1.1625
  123OSM    C6F13032   0.144   1.610   3.280  0.3463  0.1719 -0.0971
  123OSM    H6F13033   0.084   1.691   3.235 -0.9672 -1.3415 -1.1806
  123OSM    H6G13034   0.250   1.616   3.248  1.0542 -0.4289  1.9483
  123OSM    C7F13035   0.142   1.620   3.437  0.3320  0.1711  0.0228
  123OSM    H7F13036   0.036   1.602   3.464  0.4753 -0.5336  0.1393
  123OSM    H7G13037   0.167   1.726   3.459  1.9339 -0.2164  0.1613
  123OSM    C8F13038   0.239   1.531   3.512 -0.3385  0.3599 -0.6451
  123OSM    H8F13039   0.233   1.428   3.471 -2.5858 -1.2446  3.1411
  123OSM    H8G13040   0.197   1.512   3.613  1.8139  0.4260  0.3027
  123OSM    C9F13041   0.378   1.587   3.514  0.3242 -0.4481 -0.6617
  123OSM    H9F13042   0.450   1.563   3.434 -0.0592 -2.3673 -0.4722
  123OSM   C10F13043   0.426   1.658   3.622  0.0409  0.1650 -0.2162
  123OSM   H10F13044   0.530   1.695   3.622  0.0170  0.2518 -1.2192
  123OSM   C11F13045   0.340   1.680   3.746  0.4019  0.6189 -0.3181
  123OSM   H11F13046   0.325   1.583   3.799 -1.3606  0.8655 -0.2893
  123OSM   H11G13047   0.240   1.721   3.718  0.0599  1.8150  2.3292
  123OSM   C12F13048   0.396   1.800   3.833  0.0380 -0.0103  0.9876
  123OSM   H12F13049   0.372   1.890   3.773  0.5017 -1.6614 -1.9037
  123OSM   H12G13050   0.505   1.811   3.848 -0.0943  0.5161  1.5900
  123OSM   C13F13051   0.314   1.800   3.967 -0.0221 -0.1156 -0.6769
  123OSM   H13F13052   0.322   1.703   4.020  0.0684 -0.4829 -1.3409
  123OSM   H13G13053   0.207   1.817   3.946 -0.0255  3.5871  1.5901
  123OSM   C14F13054   0.342   1.915   4.061 -0.3602  0.1482 -1.1729
  123OSM   H14F13055   0.290   2.010   4.038  0.5881  1.8657  2.8796
  123OSM   H14G13056   0.450   1.933   4.045 -0.0694 -1.2508 -0.9103
  123OSM   C15F13057   0.304   1.890   4.204  0.4672 -0.4097 -0.1289
  123OSM   H15F13058   0.213   1.827   4.217  1.7406 -1.9729  1.9115
  123OSM   H15G13059   0.302   1.988   4.256  0.3713 -1.8778  2.8444
  123OSM   C16F13060   0.409   1.801   4.280  0.3794  0.1557  0.0968
  123OSM   H16F13061   0.456   1.730   4.208  0.7714 -0.6848  1.1370
  123OSM   H16G13062   0.355   1.754   4.365 -0.0059 -1.0441 -0.7795
  123OSM   C17F13063   0.526   1.873   4.345 -0.4216  0.1578 -0.3423
  123OSM   H17F13064   0.489   1.963   4.397 -3.1347 -0.3635 -1.2153
  123OSM   H17G13065   0.601   1.915   4.275 -2.5153  2.2082 -1.4942
  123OSM   C18F13066   0.591   1.792   4.456 -0.3276 -0.0491  0.2609
  123OSM   H18F13067   0.643   1.708   4.406 -0.3882 -0.2660  0.5601
  123OSM   H18G13068   0.527   1.745   4.533 -0.8251  1.2302  0.6479
  123OSM   H18H13069   0.662   1.861   4.507  0.8074  0.7332 -2.2129
  124OSM      N13070   2.375   1.431   2.295  0.4586 -0.1151 -0.2187
  124OSM    C1513071   2.345   1.578   2.266 -0.5399 -0.0160  0.1351
  124OSM   H15A13072   2.252   1.608   2.313 -1.9235 -0.8882 -1.8790
  124OSM   H15B13073   2.315   1.587   2.163 -1.8512  0.7695  0.5526
  124OSM   H15C13074   2.425   1.644   2.296  0.8362 -2.2799  1.8416
  124OSM    C1413075   2.261   1.343   2.245 -0.4409 -0.3631  0.6150
  124OSM   H14A13076   2.245   1.354   2.139 -1.8955  0.0439  0.8496
  124OSM   H14B13077   2.167   1.358   2.296 -1.1592 -0.5357 -0.6202
  124OSM   H14C13078   2.288   1.239   2.258  0.6487  0.0140  1.4982
  124OSM    C1313079   2.487   1.389   2.215 -0.7767 -0.2132 -0.0153
  124OSM   H13A13080   2.568   1.447   2.255  0.5939 -4.1730  3.7198
  124OSM   H13B13081   2.471   1.423   2.114  1.3446 -0.1692 -0.3725
  124OSM   H13C13082   2.518   1.286   2.220  0.5650  0.1371 -0.7783
  124OSM    C1213083   2.395   1.402   2.442  0.4081 -0.3949  0.0120
  124OSM   H12A13084   2.376   1.297   2.461 -1.2691 -0.1374 -0.1039
  124OSM   H12B13085   2.317   1.453   2.496 -0.5542 -1.1342 -0.6323
  124OSM    C1113086   2.518   1.446   2.514  0.1569 -0.3241  0.1865
  124OSM   H11A13087   2.502   1.452   2.624  4.4233 -0.1885  0.9624
  124OSM   H11B13088   2.536   1.555   2.500  3.6679 -0.8865 -0.4519
  124OSM      P13089   2.666   1.231   2.501 -0.0372  0.0760 -0.3262
  124OSM    O1313090   2.544   1.153   2.491 -0.2083  0.2825 -0.4406
  124OSM    O1413091   2.778   1.191   2.415 -0.4379 -0.3385 -0.2944
  124OSM    O1113092   2.730   1.227   2.646  0.2796 -0.4343 -0.0657
  124OSM    O1213093   2.641   1.386   2.471 -0.5573 -0.0707 -0.3843
  124OSM    C1S13094   2.817   1.323   2.691 -0.1049 -0.0911  0.7378
  124OSM    H1S13095   2.787   1.430   2.689 -0.3655 -0.1685  0.3558
  124OSM    H1T13096   2.908   1.320   2.627 -0.4943  0.3368  0.1586
  124OSM     NF13097   2.950   1.423   2.880 -0.0024 -0.2537  0.3623
  124OSM    HNF13098   3.050   1.429   2.876 -0.0333  0.7095  0.7068
  124OSM    C2S13099   2.882   1.297   2.832  0.0795 -0.0457  0.0138
  124OSM    H2S13100   2.795   1.285   2.901  1.1090  0.5951  1.4846
  124OSM    C3S13101   2.965   1.160   2.843  0.0139  0.0170 -0.2268
  124OSM    H3S13102   3.046   1.149   2.768  0.0176 -1.2954 -0.0668
  124OSM     O313103   2.873   1.049   2.816  0.7584  0.0505  0.4905
  124OSM    HO313104   2.814   1.083   2.748 -1.8538 -1.1422  1.9837
  124OSM    C4S13105   3.048   1.147   2.970  0.0307 -0.1577  0.1201
  124OSM    H4S13106   3.153   1.180   2.960  0.3174 -0.8329  0.7743
  124OSM    C5S13107   2.996   1.144   3.095 -0.3194  0.1115  0.6826
  124OSM    H5S13108   2.891   1.164   3.121  0.2229  0.7704  2.4751
  124OSM    C6S13109   3.093   1.155   3.210  0.0592 -0.5965  0.2133
  124OSM    H6S13110   3.188   1.104   3.181 -0.2760 -1.2705  0.2905
  124OSM    H6T13111   3.055   1.089   3.291 -0.3685 -0.3212  0.2388
  124OSM    C7S13112   3.119   1.300   3.267 -0.1983  0.6403 -0.1713
  124OSM    H7S13113   3.018   1.343   3.282 -0.2580  0.3240  0.3697
  124OSM    H7T13114   3.175   1.367   3.200  1.3241  0.0780  0.4969
  124OSM    C8S13115   3.194   1.297   3.404 -0.2517 -0.1200  0.0626
  124OSM    H8S13116   3.211   1.403   3.431  0.3434 -0.9219  3.3266
  124OSM    H8T13117   3.292   1.245   3.405 -0.7372 -1.0503  0.5852
  124OSM    C9S13118   3.096   1.244   3.512  0.1815  0.0881 -0.8766
  124OSM    H9S13119   3.071   1.139   3.489 -1.3659  0.6449 -1.9432
  124OSM    H9T13120   3.006   1.310   3.506  0.2709  0.2421 -0.5273
  124OSM   C10S13121   3.154   1.248   3.654 -0.4499 -0.0571  0.4512
  124OSM   H10S13122   3.173   1.356   3.670 -0.3066  0.0003 -0.0876
  124OSM   H10T13123   3.254   1.200   3.659  1.1171  3.0103  4.9013
  124OSM   C11S13124   3.060   1.192   3.759 -0.0068  0.0097 -0.1134
  124OSM   H11S13125   3.052   1.082   3.744 -1.6303  0.0612  0.1029
  124OSM   H11T13126   2.962   1.241   3.737 -0.2963 -0.0529  0.9656
  124OSM   C12S13127   3.096   1.212   3.906  0.5912 -0.0270 -0.6673
  124OSM   H12S13128   3.119   1.314   3.943  1.4939 -1.0147  1.6580
  124OSM   H12T13129   3.187   1.151   3.921 -1.0124 -2.1309  1.1367
  124OSM   C13S13130   2.999   1.138   4.000 -0.4169 -0.3644  0.7788
  124OSM   H13S13131   3.059   1.102   4.086 -0.4668 -0.1504  0.9011
  124OSM   H13T13132   2.968   1.047   3.943  0.2365 -0.6998  0.9454
  124OSM   C14S13133   2.874   1.217   4.045 -0.1745 -0.2860  0.3988
  124OSM   H14S13134   2.814   1.244   3.956  0.6517 -1.6549 -0.6089
  124OSM   H14T13135   2.913   1.311   4.090 -1.9288  0.4155  0.5227
  124OSM   C15S13136   2.785   1.161   4.159 -0.0590  0.3750  0.0798
  124OSM   H15S13137   2.845   1.106   4.234  0.4965  0.3571 -0.3645
  124OSM   H15T13138   2.719   1.079   4.123 -0.0274  0.4945 -0.2592
  124OSM   C16S13139   2.695   1.262   4.219  0.0403  0.3688  0.2503
  124OSM   H16S13140   2.597   1.271   4.169  0.5054 -1.8007 -1.1550
  124OSM   H16T13141   2.751   1.358   4.216  3.1768 -1.2790  0.7388
  124OSM   C17S13142   2.667   1.240   4.366  0.0979 -0.5479  0.4041
  124OSM   H17S13143   2.757   1.212   4.425  0.0986  0.8888  1.1322
  124OSM   H17T13144   2.610   1.147   4.388 -0.4881 -0.3282 -0.1508
  124OSM   C18S13145   2.594   1.363   4.420 -0.0288 -0.1867  0.0516
  124OSM   H18S13146   2.623   1.461   4.375  1.3360 -1.0105 -0.9323
  124OSM   H18T13147   2.608   1.376   4.529  0.2289  0.7916 -0.0848
  124OSM   H18U13148   2.489   1.341   4.390  0.4309 -0.6239 -1.3315
  124OSM    C1F13149   2.888   1.539   2.894 -0.0911  0.3856 -0.1530
  124OSM     OF13150   2.761   1.545   2.890  0.4568  0.5270  0.0778
  124OSM    C2F13151   2.976   1.656   2.908  0.6129  0.5899 -0.1753
  124OSM    H2F13152   2.924   1.745   2.867  0.6039 -0.6415 -3.0965
  124OSM    H2G13153   3.056   1.647   2.831 -1.0189  1.4185 -2.0635
  124OSM    C3F13154   3.020   1.688   3.051  0.1255  0.0344 -0.7030
  124OSM    H3F13155   3.098   1.767   3.055 -1.7651  2.4620 -4.8345
  124OSM    H3G13156   3.061   1.601   3.107 -2.6828 -1.1431 -0.2713
  124OSM    C4F13157   2.905   1.759   3.130  0.3623 -0.7439 -0.5641
  124OSM    H4F13158   2.816   1.696   3.150 -1.0086  0.7911 -1.5506
  124OSM    H4G13159   2.875   1.836   3.055  0.0184 -0.6472 -0.3277
  124OSM    C5F13160   2.947   1.828   3.259 -0.8364  0.5206 -0.5449
  124OSM    H5F13161   2.902   1.928   3.272 -0.0581  0.7851  0.1816
  124OSM    H5G13162   3.056   1.845   3.266 -0.9766  1.2250 -0.0205
  124OSM    C6F13163   2.912   1.741   3.386  0.4534  0.3087  0.3896
  124OSM    H6F13164   2.939   1.637   3.359 -0.8560  0.0808 -0.1212
  124OSM    H6G13165   2.802   1.743   3.396  0.3245  0.9226 -0.9123
  124OSM    C7F13166   2.968   1.798   3.514  0.6921  1.0050  0.0419
  124OSM    H7F13167   2.954   1.907   3.496 -1.0540  0.5872 -1.3093
  124OSM    H7G13168   3.077   1.776   3.519  0.6408  0.1029 -1.9069
  124OSM    C8F13169   2.897   1.753   3.644 -0.1079 -0.4223  0.9910
  124OSM    H8F13170   2.788   1.754   3.620  0.3241  0.7979 -1.2786
  124OSM    H8G13171   2.905   1.828   3.726 -0.7349  0.3968  0.3276
  124OSM    C9F13172   2.939   1.619   3.693  0.0719  0.9973  0.6166
  124OSM    H9F13173   2.887   1.536   3.644 -1.1824  1.9200  0.3277
  124OSM   C10F13174   3.027   1.604   3.792  0.3858  0.3025  0.3265
  124OSM   H10F13175   3.044   1.502   3.830  0.9526 -0.1761 -1.1567
  124OSM   C11F13176   3.096   1.710   3.875 -0.0744 -0.2537 -0.2504
  124OSM   H11F13177   3.101   1.802   3.814 -0.4625 -1.1850 -1.7538
  124OSM   H11G13178   3.202   1.686   3.898 -0.7025 -2.6477  0.5141
  124OSM   C12F13179   3.034   1.744   4.019  0.8055 -0.1188 -0.2072
  124OSM   H12F13180   2.928   1.773   4.001  0.6427 -0.5953 -0.0360
  124OSM   H12G13181   3.072   1.843   4.053  0.0245 -0.8692  3.2131
  124OSM   C13F13182   3.055   1.641   4.131 -0.1184 -0.0813  0.0360
  124OSM   H13F13183   3.164   1.633   4.149  0.3314  0.7585 -2.0480
  124OSM   H13G13184   3.020   1.539   4.105 -2.0125  0.1432  1.4218
  124OSM   C14F13185   2.983   1.681   4.265  0.4310 -0.2229  0.2750
  124OSM   H14F13186   2.872   1.675   4.263  0.2915  1.7501 -0.3373
  124OSM   H14G13187   2.997   1.791   4.279 -1.9332  0.2494 -0.6613
  124OSM   C15F13188   3.048   1.606   4.382  0.8003  0.1735 -0.1243
  124OSM   H15F13189   3.152   1.644   4.391  0.4087  0.9913  1.1915
  124OSM   H15G13190   3.057   1.499   4.350  0.2738 -0.2175  0.9702
  124OSM   C16F13191   2.980   1.615   4.521  0.3828  1.0420 -0.5270
  124OSM   H16F13192   3.003   1.526   4.584 -1.8471  1.1898  0.6179
  124OSM   H16G13193   2.870   1.609   4.503 -0.2532 -0.5920  2.9870
  124OSM   C17F13194   3.023   1.736   4.595  0.3224 -0.2754  0.0139
  124OSM   H17F13195   2.990   1.827   4.541 -1.5055 -2.3496 -2.6379
  124OSM   H17G13196   3.132   1.741   4.617 -0.3417  0.9813  3.8624
  124OSM   C18F13197   2.972   1.733   4.738  0.7602  0.3609  0.2348
  124OSM   H18F13198   3.006   1.825   4.790 -0.6189 -0.7548  3.3339
  124OSM   H18G13199   3.023   1.647   4.785 -3.6270 -3.0614 -0.5411
  124OSM   H18H13200   2.865   1.712   4.761 -0.2620  3.4998 -1.0337
  125OSM      N13201   5.431   0.172   2.122 -0.7755  0.3088  0.8597
  125OSM    C1513202   5.399   0.079   2.010  0.0831 -0.2739 -0.1475
  125OSM   H15A13203   5.319   0.122   1.951  0.2569 -1.8513 -1.6297
  125OSM   H15B13204   5.370  -0.017   2.050  1.2486  0.0992  1.7137
  125OSM   H15C13205   5.488   0.074   1.949  0.4962  0.2655  0.4017
  125OSM    C1413206   5.555   0.124   2.184 -0.0513 -0.0301  1.0438
  125OSM   H14A13207   5.628   0.115   2.105 -1.2685  0.2808 -0.1400
  125OSM   H14B13208   5.543   0.028   2.232  1.3128 -1.1592 -0.7545
  125OSM   H14C13209   5.586   0.194   2.261 -2.0924  1.8650  0.2361
  125OSM    C1313210   5.442   0.316   2.071 -0.0655 -0.6962 -0.2892
  125OSM   H13A13211   5.341   0.349   2.047 -0.4185 -2.5771 -1.5634
  125OSM   H13B13212   5.506   0.308   1.984 -2.3851 -2.0725 -2.0002
  125OSM   H13C13213   5.495   0.378   2.141  1.4316 -2.3852  0.1263
  125OSM    C1213214   5.319   0.169   2.228  0.2444 -0.8654  0.3076
  125OSM   H12A13215   5.224   0.208   2.194  1.0070  0.6561 -0.1553
  125OSM   H12B13216   5.355   0.227   2.312 -0.7004  0.3062 -0.0669
  125OSM    C1113217   5.280   0.035   2.294  0.3101  0.3295 -0.4912
  125OSM   H11A13218   5.210   0.045   2.379 -3.4337 -1.4223 -3.0870
  125OSM   H11B13219   5.368  -0.012   2.342 -1.7816 -1.6837  1.6615
  125OSM      P13220   5.212  -0.208   2.231  0.4465  0.1473  0.0799
  125OSM    O1313221   5.100  -0.254   2.144 -0.4882  0.1178 -0.4680
  125OSM    O1413222   5.348  -0.264   2.214 -0.1214  0.2984 -0.6778
  125OSM    O1113223   5.178  -0.227   2.385 -0.4004  0.0280  0.4083
  125OSM    O1213224   5.217  -0.050   2.198  0.8446  0.5129  0.0763
  125OSM    C1S13225   5.037  -0.198   2.422  0.5728  0.3060 -0.1623
  125OSM    H1S13226   4.965  -0.256   2.360  0.4155  0.2341  0.0861
  125OSM    H1T13227   5.011  -0.090   2.430 -1.3245 -0.1338  0.0839
  125OSM     NF13228   4.871  -0.249   2.612  0.0933 -0.1641 -0.1318
  125OSM    HNF13229   4.835  -0.183   2.677 -1.3719  0.0528 -1.1182
  125OSM    C2S13230   5.011  -0.248   2.570 -0.5415  0.1182 -1.0411
  125OSM    H2S13231   5.036  -0.357   2.567 -0.3656  0.0611  0.9792
  125OSM    C3S13232   5.103  -0.177   2.681 -0.6094  0.4283  1.1375
  125OSM    H3S13233   5.084  -0.068   2.676 -1.4269  0.2616  0.4731
  125OSM     O313234   5.248  -0.188   2.654 -0.3392 -0.3499  0.1069
  125OSM    HO313235   5.267  -0.224   2.567 -0.1512  0.5855 -0.2511
  125OSM    C4S13236   5.078  -0.226   2.820  0.1487 -0.5351 -0.3316
  125OSM    H4S13237   5.003  -0.161   2.868 -1.6008 -1.4825 -1.6765
  125OSM    C5S13238   5.146  -0.308   2.901  0.0360  0.1905  0.0240
  125OSM    H5S13239   5.239  -0.350   2.862 -1.2747 -0.9389 -2.0603
  125OSM    C6S13240   5.113  -0.313   3.048 -0.0003 -0.4228 -0.0546
  125OSM    H6S13241   5.101  -0.418   3.082 -0.6754 -0.3941 -0.1845
  125OSM    H6T13242   5.007  -0.280   3.060  0.1018  0.5673 -1.5907
  125OSM    C7S13243   5.201  -0.231   3.148 -0.2770 -0.6631 -0.0709
  125OSM    H7S13244   5.174  -0.124   3.136 -0.5922  0.0838  5.0366
  125OSM    H7T13245   5.305  -0.263   3.127 -0.2003 -0.4583 -0.0015
  125OSM    C8S13246   5.159  -0.260   3.296  0.1634  0.1515  0.0663
  125OSM    H8S13247   5.157  -0.369   3.315  0.5532  0.1140 -0.1011
  125OSM    H8T13248   5.057  -0.220   3.316  0.6196  1.2196  0.3027
  125OSM    C9S13249   5.252  -0.195   3.395 -0.1144 -0.1904 -0.6804
  125OSM    H9S13250   5.228  -0.087   3.386  1.7544  0.2835 -0.3639
  125OSM    H9T13251   5.361  -0.205   3.375  0.0716  0.0200  0.1910
  125OSM   C10S13252   5.234  -0.242   3.541  0.2162  0.6216 -0.6092
  125OSM   H10S13253   5.271  -0.345   3.557 -0.9142  0.6677  3.3758
  125OSM   H10T13254   5.123  -0.247   3.551  0.0416 -3.9084 -2.3726
  125OSM   C11S13255   5.318  -0.156   3.636  0.5686  0.6488 -0.3085
  125OSM   H11S13256   5.288  -0.052   3.614 -3.1451 -0.2508 -0.2307
  125OSM   H11T13257   5.424  -0.178   3.613 -0.0750 -2.5037 -0.7088
  125OSM   C12S13258   5.297  -0.194   3.786  0.3730  0.0266 -0.1382
  125OSM   H12S13259   5.339  -0.295   3.806  3.1400  1.5777  2.8095
  125OSM   H12T13260   5.189  -0.201   3.807  0.4077 -0.1830 -0.0245
  125OSM   C13S13261   5.371  -0.086   3.870  0.1156  0.1294  0.2817
  125OSM   H13S13262   5.321   0.011   3.846 -3.5434 -1.2834  1.5896
  125OSM   H13T13263   5.475  -0.071   3.834  0.4834  0.1776  1.3202
  125OSM   C14S13264   5.379  -0.118   4.025 -0.2201 -0.0454  0.0338
  125OSM   H14S13265   5.435  -0.211   4.049 -0.5173 -0.1996  0.1400
  125OSM   H14T13266   5.274  -0.142   4.052  0.2692 -2.4456  0.0312
  125OSM   C15S13267   5.444  -0.005   4.100  0.2947  0.0667  0.2071
  125OSM   H15S13268   5.400   0.092   4.069  1.5714  0.1809 -1.3738
  125OSM   H15T13269   5.550  -0.018   4.068  0.2612  0.8514 -0.2391
  125OSM   C16S13270   5.427  -0.023   4.247  0.0991 -0.3538 -0.2358
  125OSM   H16S13271   5.477  -0.118   4.280  0.7158 -0.4437 -1.3906
  125OSM   H16T13272   5.317  -0.028   4.252 -0.0464  0.5060 -1.8729
  125OSM   C17S13273   5.490   0.085   4.338 -0.3894 -0.6220  0.1117
  125OSM   H17S13274   5.427   0.176   4.327  0.6651  0.0925 -0.1775
  125OSM   H17T13275   5.591   0.113   4.300 -1.3597  1.1294 -1.3404
  125OSM   C18S13276   5.490   0.039   4.483 -0.1797 -0.1624 -0.3898
  125OSM   H18S13277   5.589   0.005   4.521 -0.4129  0.6913  1.0317
  125OSM   H18T13278   5.410  -0.037   4.496 -0.1560 -0.0770  0.2624
  125OSM   H18U13279   5.458   0.125   4.545  0.9349  0.1731 -0.2587
  125OSM    C1F13280   4.784  -0.324   2.556 -0.1713  0.4270  0.2285
  125OSM     OF13281   4.811  -0.403   2.464 -0.0644 -0.0773  0.0626
  125OSM    C2F13282   4.640  -0.310   2.604  0.5219  0.1134  0.7176
  125OSM    H2F13283   4.597  -0.235   2.534  3.1643  0.8585 -0.2540
  125OSM    H2G13284   4.632  -0.265   2.705  2.9411 -1.2237  1.5916
  125OSM    C3F13285   4.563  -0.441   2.582  0.4087  0.3965 -0.0152
  125OSM    H3F13286   4.573  -0.491   2.483  0.3661  1.7984 -0.7476
  125OSM    H3G13287   4.453  -0.428   2.597  0.3859  3.6145 -2.0107
  125OSM    C4F13288   4.610  -0.554   2.668 -0.4328 -0.1089  0.0449
  125OSM    H4F13289   4.721  -0.554   2.671 -0.2956 -2.3010 -1.7766
  125OSM    H4G13290   4.584  -0.652   2.622  0.1686 -0.5901  0.6912
  125OSM    C5F13291   4.568  -0.560   2.821  0.0405  0.1721  0.5529
  125OSM    H5F13292   4.591  -0.663   2.857 -1.9405 -0.6118 -0.2877
  125OSM    H5G13293   4.460  -0.547   2.838  0.0568  1.4283 -0.2238
  125OSM    C6F13294   4.643  -0.458   2.919  0.3657  0.2624 -0.0643
  125OSM    H6F13295   4.602  -0.356   2.906  1.7019  0.7540 -0.6184
  125OSM    H6G13296   4.750  -0.447   2.890  1.0320 -1.3985  1.4873
  125OSM    C7F13297   4.613  -0.483   3.068 -0.1140 -0.1723  0.2100
  125OSM    H7F13298   4.613  -0.591   3.094 -2.9789 -0.5838 -1.1220
  125OSM    H7G13299   4.509  -0.452   3.093 -1.6922 -4.5213 -0.2239
  125OSM    C8F13300   4.716  -0.419   3.160  0.0470 -0.9756 -0.4267
  125OSM    H8F13301   4.817  -0.446   3.119  0.5044  0.0206  0.0254
  125OSM    H8G13302   4.711  -0.474   3.256  2.1746 -1.7833 -0.7085
  125OSM    C9F13303   4.710  -0.269   3.164  0.0557  0.3516  0.7309
  125OSM    H9F13304   4.733  -0.223   3.067 -1.7126 -1.6383 -0.7495
  125OSM   C10F13305   4.686  -0.201   3.275 -0.3777 -0.8084 -0.1642
  125OSM   H10F13306   4.705  -0.093   3.264  0.9213 -1.0931 -1.0802
  125OSM   C11F13307   4.649  -0.252   3.411  0.5765 -0.6394 -0.3299
  125OSM   H11F13308   4.639  -0.164   3.478  0.3567  1.8768 -3.4223
  125OSM   H11G13309   4.726  -0.325   3.445 -1.2905 -2.6487 -0.2610
  125OSM   C12F13310   4.512  -0.326   3.416 -0.7839 -0.8666  0.5441
  125OSM   H12F13311   4.504  -0.391   3.326 -0.5456  0.7502 -0.6798
  125OSM   H12G13312   4.439  -0.243   3.407 -0.7884 -0.7303  1.6324
  125OSM   C13F13313   4.484  -0.388   3.550  0.6651 -0.4947  0.1578
  125OSM   H13F13314   4.375  -0.411   3.557  0.5561  0.3007  1.3283
  125OSM   H13G13315   4.498  -0.306   3.624  1.3084 -1.7752  1.4895
  125OSM   C14F13316   4.564  -0.514   3.583  0.0085 -0.1979  0.1658
  125OSM   H14F13317   4.672  -0.497   3.565 -0.3067 -1.2688 -3.4194
  125OSM   H14G13318   4.542  -0.600   3.517  1.9067 -0.5006 -0.1196
  125OSM   C15F13319   4.536  -0.569   3.726 -0.0646  0.1460  0.9572
  125OSM   H15F13320   4.617  -0.641   3.747  0.0362 -0.7449 -2.0021
  125OSM   H15G13321   4.435  -0.615   3.727 -0.4684  0.7837 -1.8208
  125OSM   C16F13322   4.536  -0.467   3.836  0.1919  0.1355 -1.0099
  125OSM   H16F13323   4.451  -0.395   3.835 -0.6043 -0.3690  4.0299
  125OSM   H16G13324   4.632  -0.411   3.824  0.1315  0.3312 -0.5815
  125OSM   C17F13325   4.543  -0.533   3.973 -0.1622 -0.6315 -0.3425
  125OSM   H17F13326   4.613  -0.619   3.978  1.2516  0.2732 -2.9805
  125OSM   H17G13327   4.442  -0.570   3.997 -0.3447 -0.3537 -0.6697
  125OSM   C18F13328   4.609  -0.448   4.087  0.1681 -0.6567 -0.2874
  125OSM   H18F13329   4.557  -0.354   4.115 -0.4247 -1.7010  2.5706
  125OSM   H18G13330   4.717  -0.445   4.063  0.0349  0.6365 -0.7392
  125OSM   H18H13331   4.605  -0.505   4.183  0.3446  0.2365  0.2533
  126OSM      N13332   3.387   6.617   2.097 -0.2125  0.7531 -0.7553
  126OSM    C1513333   3.325   6.642   2.235  0.0410  0.2874  0.3741
  126OSM   H15A13334   3.358   6.731   2.287 -1.1661  0.5839  0.6705
  126OSM   H15B13335   3.348   6.556   2.297 -0.6093 -0.0456  0.1644
  126OSM   H15C13336   3.218   6.627   2.225  0.3374 -1.0904 -1.0206
  126OSM    C1413337   3.377   6.731   2.014  0.1511 -0.5897 -0.6892
  126OSM   H14A13338   3.412   6.820   2.063  0.2892  0.4058 -2.4759
  126OSM   H14B13339   3.273   6.744   1.986  0.1101 -0.5693 -0.5281
  126OSM   H14C13340   3.437   6.721   1.925  1.0945 -1.1603  0.0011
  126OSM    C1313341   3.534   6.593   2.120 -0.1789  0.3933  0.8744
  126OSM   H13A13342   3.588   6.574   2.028 -0.0664  2.9116  0.3351
  126OSM   H13B13343   3.537   6.508   2.186 -0.1097  0.2462  0.6842
  126OSM   H13C13344   3.579   6.682   2.162  0.5031  0.3457  0.2633
  126OSM    C1213345   3.327   6.496   2.026  0.0894  0.1323 -0.3309
  126OSM   H12A13346   3.385   6.465   1.940 -0.1958 -2.1205  0.2281
  126OSM   H12B13347   3.231   6.522   1.984 -0.0701 -1.2621 -0.9075
  126OSM    C1113348   3.314   6.371   2.123  0.4268 -0.0084 -0.0873
  126OSM   H11A13349   3.296   6.280   2.062 -0.3487 -0.8896  1.3833
  126OSM   H11B13350   3.221   6.398   2.177 -0.7792  0.2852 -2.2142
  126OSM      P13351   3.502   6.219   2.225 -0.0269  0.3094  0.0403
  126OSM    O1313352   3.411   6.111   2.196  0.6481  0.3560  0.0348
  126OSM    O1413353   3.624   6.227   2.139  0.9752 -0.6865  0.0834
  126OSM    O1113354   3.539   6.217   2.375 -0.4106 -0.4085 -0.2699
  126OSM    O1213355   3.424   6.350   2.213 -0.5654 -0.1028 -0.4979
  126OSM    C1S13356   3.545   6.332   2.460  0.0061  0.5227  0.5985
  126OSM    H1S13357   3.462   6.402   2.438 -0.2973 -0.2819 -0.9778
  126OSM    H1T13358   3.640   6.385   2.439  0.7559 -1.4169 -1.2030
  126OSM     NF13359   3.542   6.409   2.697  0.4300 -0.5611 -0.9095
  126OSM    HNF13360   3.629   6.421   2.745  0.8135  2.5188 -2.1699
  126OSM    C2S13361   3.533   6.288   2.608 -0.4931  0.1443 -0.4267
  126OSM    H2S13362   3.433   6.246   2.632 -0.5132 -0.8676 -2.1175
  126OSM    C3S13363   3.641   6.178   2.631  0.0860  0.6140 -0.2778
  126OSM    H3S13364   3.734   6.223   2.591 -0.1395  1.3438  0.0059
  126OSM     O313365   3.611   6.055   2.564 -0.2647  0.4547  0.0962
  126OSM    HO313366   3.575   6.090   2.482  0.0657 -1.2343 -0.8186
  126OSM    C4S13367   3.649   6.149   2.774 -0.4096  0.7427  0.0780
  126OSM    H4S13368   3.562   6.100   2.819 -0.8908  2.2031  0.8158
  126OSM    C5S13369   3.763   6.169   2.834  0.1266  0.1232 -0.1516
  126OSM    H5S13370   3.847   6.207   2.775  0.7618 -0.2027  0.5303
  126OSM    C6S13371   3.789   6.145   2.977  0.3764  0.3341  0.5322
  126OSM    H6S13372   3.787   6.242   3.031  0.9143 -0.4715  2.0271
  126OSM    H6T13373   3.891   6.107   2.995  0.2113 -0.2210  0.3036
  126OSM    C7S13374   3.688   6.052   3.056  0.7375 -0.5395 -0.0166
  126OSM    H7S13375   3.692   5.950   3.013  0.4851 -0.8530  0.6854
  126OSM    H7T13376   3.594   6.110   3.046  1.1846 -0.1864 -2.9975
  126OSM    C8S13377   3.718   6.044   3.215 -0.0347  0.2414 -0.1013
  126OSM    H8S13378   3.710   6.149   3.251  0.8612  0.7004 -1.1627
  126OSM    H8T13379   3.818   6.006   3.245 -0.5025 -0.8033  0.1643
  126OSM    C9S13380   3.613   5.946   3.285 -0.2792  0.6590 -0.1751
  126OSM    H9S13381   3.607   5.841   3.248 -1.8555  0.1585  1.3608
  126OSM    H9T13382   3.517   6.001   3.272 -0.7994 -0.5188 -1.6642
  126OSM   C10S13383   3.657   5.928   3.434  0.6515 -0.5954 -0.0106
  126OSM   H10S13384   3.664   6.035   3.463  0.1955  0.0534 -2.0819
  126OSM   H10T13385   3.756   5.876   3.434  0.6366 -0.6910 -1.7986
  126OSM   C11S13386   3.547   5.863   3.525  0.1153  0.1028 -0.2826
  126OSM   H11S13387   3.528   5.759   3.490 -2.2443  0.1266  0.7572
  126OSM   H11T13388   3.451   5.919   3.527  1.4795  2.5851  1.8559
  126OSM   C12S13389   3.600   5.876   3.670  0.5602  0.7092  0.3475
  126OSM   H12S13390   3.627   5.979   3.701  0.8477  0.9802 -0.7569
  126OSM   H12T13391   3.702   5.832   3.678 -0.0302 -1.6580 -2.8564
  126OSM   C13S13392   3.515   5.803   3.761  0.3467 -0.2609 -0.0045
  126OSM   H13S13393   3.499   5.698   3.728  2.4603 -0.3434 -0.9112
  126OSM   H13T13394   3.417   5.854   3.750 -1.0883 -2.9356 -0.3123
  126OSM   C14S13395   3.561   5.804   3.908  0.0346 -0.1774  0.4377
  126OSM   H14S13396   3.593   5.904   3.943  0.2410 -0.0863 -0.0089
  126OSM   H14T13397   3.650   5.738   3.909 -0.7609 -1.3128 -0.6559
  126OSM   C15S13398   3.449   5.766   4.003 -0.0064 -0.1795  0.5910
  126OSM   H15S13399   3.497   5.718   4.091 -1.2227 -1.3568  0.6474
  126OSM   H15T13400   3.384   5.687   3.961  0.3808 -0.9010  1.3232
  126OSM   C16S13401   3.349   5.878   4.057  0.5034 -0.1667  0.2162
  126OSM   H16S13402   3.259   5.873   3.992  1.2781 -2.0500 -0.8108
  126OSM   H16T13403   3.388   5.982   4.046 -0.7527  0.1565 -1.8923
  126OSM   C17S13404   3.314   5.862   4.197  0.2368 -0.0488  1.2243
  126OSM   H17S13405   3.403   5.862   4.264  0.7681 -2.9202  0.6395
  126OSM   H17T13406   3.265   5.764   4.212 -0.8456  0.3840  0.6023
  126OSM   C18S13407   3.207   5.961   4.253 -0.7789  0.1160  0.2479
  126OSM   H18S13408   3.107   5.924   4.225  0.2670 -0.4595 -3.1793
  126OSM   H18T13409   3.222   6.055   4.195  3.0814 -1.2065 -1.2787
  126OSM   H18U13410   3.213   5.965   4.364  2.8056  0.2273  0.1709
  126OSM    C1F13411   3.440   6.491   2.709 -0.1144  1.0236  1.1813
  126OSM     OF13412   3.340   6.462   2.644 -0.6296 -0.3034 -0.6887
  126OSM    C2F13413   3.461   6.616   2.788  0.0932 -0.4425  0.8038
  126OSM    H2F13414   3.491   6.701   2.724 -1.6219  0.8215  1.5753
  126OSM    H2G13415   3.541   6.595   2.862 -0.2297 -0.8961  1.0264
  126OSM    C3F13416   3.331   6.665   2.865  0.4356  0.5121 -0.2701
  126OSM    H3F13417   3.240   6.670   2.801  0.3193  1.2723 -0.0510
  126OSM    H3G13418   3.355   6.771   2.890  1.3872  0.6465 -1.6656
  126OSM    C4F13419   3.287   6.590   2.997 -0.4411  0.7496 -0.1378
  126OSM    H4F13420   3.321   6.484   3.004 -4.2494 -0.5562  0.8765
  126OSM    H4G13421   3.176   6.586   3.005 -0.6401  0.6024 -2.3800
  126OSM    C5F13422   3.330   6.671   3.123  0.2114 -0.1481  0.4505
  126OSM    H5F13423   3.310   6.778   3.104  0.9160 -0.4955 -2.7283
  126OSM    H5G13424   3.441   6.665   3.128  0.1843 -0.3069  1.0281
  126OSM    C6F13425   3.263   6.625   3.255 -0.0825  0.6076 -0.0400
  126OSM    H6F13426   3.320   6.541   3.301  1.0112  1.8570  0.9752
  126OSM    H6G13427   3.167   6.574   3.233 -0.8060  1.8726  0.1072
  126OSM    C7F13428   3.247   6.737   3.356  0.2009 -0.6018  0.3603
  126OSM    H7F13429   3.177   6.814   3.317 -0.9598 -1.2446  1.1031
  126OSM    H7G13430   3.349   6.782   3.358  0.2354  0.0325 -4.4035
  126OSM    C8F13431   3.205   6.695   3.499  0.5108  0.7874  0.2756
  126OSM    H8F13432   3.097   6.715   3.514  0.7554  1.8533  0.7324
  126OSM    H8G13433   3.264   6.766   3.561 -0.5705 -1.6185  4.4316
  126OSM    C9F13434   3.229   6.551   3.540  0.4327 -0.1682 -0.2846
  126OSM    H9F13435   3.188   6.479   3.468  0.3048 -1.3848  0.9624
  126OSM   C10F13436   3.275   6.514   3.664 -0.1263 -0.4715 -0.0495
  126OSM   H10F13437   3.293   6.409   3.692  4.9019  0.4710  1.2502
  126OSM   C11F13438   3.314   6.604   3.780  0.6915 -0.3727 -0.5694
  126OSM   H11F13439   3.352   6.698   3.733  0.4648 -0.2722 -0.5500
  126OSM   H11G13440   3.397   6.566   3.844  0.7857  0.0406 -0.4432
  126OSM   C12F13441   3.198   6.656   3.867 -0.0933  0.4867  0.6859
  126OSM   H12F13442   3.153   6.574   3.927  4.5417 -1.8837  1.4163
  126OSM   H12G13443   3.114   6.679   3.799 -0.1572 -0.1570  0.5377
  126OSM   C13F13444   3.223   6.778   3.963 -0.0290 -0.2520  0.5591
  126OSM   H13F13445   3.266   6.864   3.906 -0.5915 -1.2851 -1.5386
  126OSM   H13G13446   3.300   6.738   4.031  0.7132 -0.8441 -0.5893
  126OSM   C14F13447   3.103   6.823   4.044  1.0314 -0.1278 -0.6280
  126OSM   H14F13448   3.070   6.734   4.101  1.8255 -0.4725 -0.6911
  126OSM   H14G13449   3.016   6.854   3.982  2.0860 -0.8947 -2.5603
  126OSM   C15F13450   3.137   6.931   4.150 -0.1105  0.3608 -0.2629
  126OSM   H15F13451   3.183   7.020   4.102  0.7380 -0.2144 -0.5444
  126OSM   H15G13452   3.215   6.890   4.217  1.8137  0.9631 -1.9915
  126OSM   C16F13453   3.007   6.980   4.220  0.1207 -0.2590  0.5160
  126OSM   H16F13454   2.932   6.899   4.206  0.5849 -0.7552  0.8732
  126OSM   H16G13455   2.968   7.073   4.173 -1.5779 -1.1054  0.1764
  126OSM   C17F13456   3.026   6.999   4.371 -0.1131  0.2446 -0.4793
  126OSM   H17F13457   3.093   7.087   4.381  0.4706 -0.2453  0.0127
  126OSM   H17G13458   3.081   6.921   4.428  0.6468  2.4140  1.9768
  126OSM   C18F13459   2.892   7.025   4.435 -0.3347 -0.2119  0.2836
  126OSM   H18F13460   2.833   7.113   4.403  0.1741 -0.5127 -1.5963
  126OSM   H18G13461   2.908   7.031   4.545 -2.1811  1.2103  0.5326
  126OSM   H18H13462   2.827   6.938   4.409  0.6794 -0.8309 -0.2556
  127OSM      N13463   2.078   2.348   2.162 -0.3501 -0.2333  0.7295
  127OSM    C1513464   2.074   2.422   2.295 -0.4118  0.4990 -0.2080
  127OSM   H15A13465   2.014   2.512   2.287 -0.9595  0.2157  0.6009
  127OSM   H15B13466   2.170   2.448   2.337 -1.3159  1.9897  1.0715
  127OSM   H15C13467   2.015   2.364   2.365 -0.5805 -1.2578 -1.7463
  127OSM    C1413468   2.141   2.440   2.065 -0.8457 -0.1483  0.2847
  127OSM   H14A13469   2.239   2.457   2.107  0.0186 -3.8101  0.0529
  127OSM   H14B13470   2.081   2.528   2.046 -1.1129  0.1585  2.3905
  127OSM   H14C13471   2.165   2.388   1.973  0.3338 -1.6938  1.4120
  127OSM    C1313472   2.161   2.232   2.167 -0.0315  0.3851 -0.5242
  127OSM   H13A13473   2.265   2.259   2.165  0.9093 -2.8117 -1.7804
  127OSM   H13B13474   2.133   2.169   2.084 -0.7248  1.1227 -0.8613
  127OSM   H13C13475   2.141   2.175   2.257  0.3755 -0.1837 -0.7872
  127OSM    C1213476   1.937   2.324   2.114  0.0519  0.1216  0.3989
  127OSM   H12A13477   1.878   2.414   2.126  0.7304  0.3699  2.1958
  127OSM   H12B13478   1.888   2.256   2.182 -0.3945  1.2532  1.2389
  127OSM    C1113479   1.922   2.280   1.967  0.5281  0.2967  0.2844
  127OSM   H11A13480   1.985   2.341   1.899  1.6389 -0.2186  0.8182
  127OSM   H11B13481   1.815   2.292   1.941  0.9663  1.4077 -1.1325
  127OSM      P13482   1.840   2.028   1.970  0.2563  0.7100 -0.1769
  127OSM    O1313483   1.719   2.050   1.886 -0.1063 -0.8110 -0.0603
  127OSM    O1413484   1.910   1.901   1.954  0.7089  0.3904  0.5564
  127OSM    O1113485   1.807   2.051   2.116  0.1052 -0.3830  0.0736
  127OSM    O1213486   1.956   2.140   1.946 -0.1484  0.1572 -0.9861
  127OSM    C1S13487   1.873   1.994   2.229  0.2393  0.3788 -0.4206
  127OSM    H1S13488   1.966   2.051   2.245  0.8361  0.0765 -2.4956
  127OSM    H1T13489   1.904   1.888   2.213  0.4733  0.8026 -3.5850
  127OSM     NF13490   1.887   1.978   2.480  0.7544  0.1732  0.4304
  127OSM    HNF13491   1.872   1.892   2.527  0.4032  1.0011  1.8873
  127OSM    C2S13492   1.800   2.017   2.362  0.4796 -0.0850 -0.5363
  127OSM    H2S13493   1.781   2.125   2.380 -1.4254 -0.3430 -0.7457
  127OSM    C3S13494   1.664   1.940   2.366  0.3153 -0.2659 -0.9705
  127OSM    H3S13495   1.668   1.829   2.366 -1.7249 -0.4808  2.4752
  127OSM     O313496   1.586   1.972   2.251 -0.2647 -0.1324  0.5167
  127OSM    HO313497   1.647   1.997   2.181 -0.1058  1.1271  1.0761
  127OSM    C4S13498   1.592   1.963   2.497  0.0787  0.0932 -0.2899
  127OSM    H4S13499   1.619   1.881   2.565 -2.2398 -0.8557 -0.4401
  127OSM    C5S13500   1.496   2.058   2.535 -0.7296  0.4421 -0.3585
  127OSM    H5S13501   1.470   2.134   2.459 -1.8931 -0.7803 -1.2376
  127OSM    C6S13502   1.434   2.069   2.671 -0.4159  0.7957 -0.0706
  127OSM    H6S13503   1.366   1.984   2.689  0.9180  0.0071  1.5066
  127OSM    H6T13504   1.388   2.170   2.677 -2.8101 -0.2122 -0.4093
  127OSM    C7S13505   1.552   2.052   2.776  0.1547  0.4775 -0.0770
  127OSM    H7S13506   1.636   2.124   2.764  1.6928 -1.4873 -1.7773
  127OSM    H7T13507   1.601   1.953   2.763 -1.0298 -0.1156 -0.1784
  127OSM    C8S13508   1.487   2.065   2.913  0.5327  0.2153 -0.1735
  127OSM    H8S13509   1.388   2.015   2.913  1.0247 -0.8345 -1.5103
  127OSM    H8T13510   1.468   2.171   2.938  0.4667  0.1916 -0.1229
  127OSM    C9S13511   1.561   2.002   3.020  0.0912 -0.3654 -1.0511
  127OSM    H9S13512   1.659   2.055   3.022 -0.1307  0.0605  0.5033
  127OSM    H9T13513   1.584   1.895   3.001  2.3346 -0.4439  1.4901
  127OSM   C10S13514   1.487   2.022   3.149  0.1896  0.8572  0.7345
  127OSM   H10S13515   1.397   1.962   3.126  0.9444  0.2890 -0.9260
  127OSM   H10T13516   1.447   2.124   3.164 -0.3474  0.8877 -0.7740
  127OSM   C11S13517   1.556   1.971   3.272 -0.1202  0.0181 -0.5540
  127OSM   H11S13518   1.637   2.043   3.297 -1.3102  1.2531 -0.0951
  127OSM   H11T13519   1.596   1.869   3.253 -0.0571  0.1629 -1.1960
  127OSM   C12S13520   1.468   1.976   3.394 -0.4293  0.2168  0.0675
  127OSM   H12S13521   1.383   1.906   3.377  0.6126 -1.0676 -0.0112
  127OSM   H12T13522   1.425   2.078   3.402  0.7811  0.6864  0.7856
  127OSM   C13S13523   1.541   1.942   3.523  0.2678 -0.2541 -0.7281
  127OSM   H13S13524   1.629   2.008   3.536  1.6058 -2.2519  1.0549
  127OSM   H13T13525   1.576   1.838   3.505 -1.1899 -0.5605 -1.9949
  127OSM   C14S13526   1.452   1.954   3.646  0.3848 -0.2842 -0.1890
  127OSM   H14S13527   1.362   1.895   3.619  1.6952 -2.6998  0.4750
  127OSM   H14T13528   1.424   2.062   3.646  2.3582  0.2997 -1.9971
  127OSM   C15S13529   1.515   1.902   3.769 -0.0732 -0.1750  0.3124
  127OSM   H15S13530   1.600   1.968   3.794 -0.9562  1.1362 -0.0842
  127OSM   H15T13531   1.556   1.799   3.762 -0.3521 -0.3993  1.7144
  127OSM   C16S13532   1.415   1.911   3.880 -0.0208  0.0675 -0.6266
  127OSM   H16S13533   1.323   1.852   3.862 -1.0933  1.3532  0.4449
  127OSM   H16T13534   1.384   2.016   3.896 -1.6046 -0.3873 -0.5672
  127OSM   C17S13535   1.467   1.861   4.022  0.4340 -0.1005 -0.7488
  127OSM   H17S13536   1.569   1.897   4.045  0.1311  1.7049 -2.0242
  127OSM   H17T13537   1.474   1.750   4.015  1.8152 -0.1664  0.9920
  127OSM   C18S13538   1.375   1.903   4.138  0.1901 -0.0477 -0.4159
  127OSM   H18S13539   1.285   1.838   4.128 -1.5400  2.4218 -2.3331
  127OSM   H18T13540   1.330   2.004   4.127  1.5416  0.8013  1.3576
  127OSM   H18U13541   1.422   1.896   4.238  0.2404  2.3401 -0.2110
  127OSM    C1F13542   1.994   2.045   2.510  0.5489 -0.0616  0.4243
  127OSM     OF13543   2.031   2.148   2.446 -0.0420 -0.2832  0.1477
  127OSM    C2F13544   2.072   1.984   2.626 -0.1842 -0.0559 -0.3466
  127OSM    H2F13545   2.163   1.938   2.582  0.0381 -0.6627  0.6963
  127OSM    H2G13546   2.015   1.902   2.675  2.2684 -0.4726  2.0441
  127OSM    C3F13547   2.116   2.084   2.736  0.1158 -0.0844 -0.3512
  127OSM    H3F13548   2.025   2.114   2.792  0.0285 -1.5157  0.3429
  127OSM    H3G13549   2.165   2.170   2.686 -0.8637  0.3819 -0.5277
  127OSM    C4F13550   2.215   2.027   2.844  0.5809  0.1226  0.3958
  127OSM    H4F13551   2.309   1.986   2.801  1.3550  1.5310  0.6868
  127OSM    H4G13552   2.170   1.933   2.884 -0.9767  0.9022  0.5607
  127OSM    C5F13553   2.243   2.125   2.957 -0.2746 -0.0618  0.0651
  127OSM    H5F13554   2.294   2.214   2.915  0.1788 -0.9009 -1.1924
  127OSM    H5G13555   2.311   2.081   3.033  2.0129  1.2450 -1.1297
  127OSM    C6F13556   2.115   2.181   3.025  0.3720 -0.2241 -0.7685
  127OSM    H6F13557   2.056   2.228   2.944  0.4462  1.8683  0.3111
  127OSM    H6G13558   2.142   2.261   3.099  0.6153 -0.7554 -0.2731
  127OSM    C7F13559   2.030   2.079   3.098  0.3514  0.2375  0.2423
  127OSM    H7F13560   2.092   2.016   3.165  0.4389 -0.7175 -0.7054
  127OSM    H7G13561   2.004   2.005   3.019  2.6062 -0.0221 -0.3193
  127OSM    C8F13562   1.907   2.136   3.169 -0.2712  0.4026 -0.2032
  127OSM    H8F13563   1.847   2.057   3.219  2.8074 -1.1292  1.3884
  127OSM    H8G13564   1.843   2.185   3.093 -0.5458 -0.7288 -0.7220
  127OSM    C9F13565   1.941   2.236   3.277 -0.4954  0.2698 -0.6481
  127OSM    H9F13566   1.884   2.329   3.260 -2.5173 -0.7399  0.2578
  127OSM   C10F13567   2.021   2.232   3.388  0.0135 -0.2981 -0.4791
  127OSM   H10F13568   2.022   2.325   3.446 -1.0374  1.6008 -3.2806
  127OSM   C11F13569   2.098   2.106   3.438 -0.3324 -0.1819  0.9172
  127OSM   H11F13570   2.207   2.130   3.433 -0.7684  1.6390 -1.5002
  127OSM   H11G13571   2.091   2.014   3.377 -0.6633  0.0143  0.6539
  127OSM   C12F13572   2.053   2.061   3.578 -0.1583 -0.0288  0.1071
  127OSM   H12F13573   1.946   2.031   3.582  0.4157 -2.2072  0.6907
  127OSM   H12G13574   2.059   2.138   3.658  0.7126  0.5699 -0.5147
  127OSM   C13F13575   2.130   1.936   3.621 -0.8736 -0.5717 -0.2071
  127OSM   H13F13576   2.237   1.965   3.629 -0.8045 -1.2693  2.2207
  127OSM   H13G13577   2.117   1.860   3.541 -1.5742 -0.3992 -0.2664
  127OSM   C14F13578   2.104   1.877   3.757  0.5265 -0.3944 -0.6098
  127OSM   H14F13579   2.158   1.782   3.776  0.9100 -0.5625 -2.4064
  127OSM   H14G13580   1.996   1.864   3.779 -0.4878  2.3010 -3.3299
  127OSM   C15F13581   2.159   1.969   3.870  0.1821  0.3518  0.4973
  127OSM   H15F13582   2.132   1.917   3.964  1.8119  0.6365  1.1416
  127OSM   H15G13583   2.103   2.065   3.864 -1.2862 -0.4744  0.3435
  127OSM   C16F13584   2.316   1.993   3.882  0.4116 -0.0956 -0.5632
  127OSM   H16F13585   2.362   2.053   3.800  2.8683 -0.3328  0.5466
  127OSM   H16G13586   2.366   1.894   3.873  0.5430 -0.1535  0.5922
  127OSM   C17F13587   2.354   2.049   4.017  0.5651 -0.7042  0.8390
  127OSM   H17F13588   2.461   2.076   4.022  0.2933  0.6740 -0.3584
  127OSM   H17G13589   2.337   1.970   4.094 -1.5065 -2.4805 -1.2753
  127OSM   C18F13590   2.269   2.173   4.048  0.5185 -0.3220 -0.4060
  127OSM   H18F13591   2.288   2.221   4.146  1.5882 -2.5708  0.5891
  127OSM   H18G13592   2.166   2.132   4.054  0.3258  0.3448  1.3757
  127OSM   H18H13593   2.284   2.248   3.968  0.9907  1.0221  0.9042
  128OSM      N13594   1.808   0.511   1.795 -0.3006  0.1295 -0.3885
  128OSM    C1513595   1.930   0.590   1.742 -0.4589  0.2871 -0.5499
  128OSM   H15A13596   1.983   0.525   1.675  0.6444  0.8119 -0.2180
  128OSM   H15B13597   1.992   0.614   1.827 -1.3706  2.4356 -0.4211
  128OSM   H15C13598   1.900   0.680   1.691 -0.0932 -0.1120 -1.4827
  128OSM    C1413599   1.706   0.478   1.687 -0.0094 -0.2729 -0.2473
  128OSM   H14A13600   1.667   0.568   1.642 -1.5587 -0.2645  1.0406
  128OSM   H14B13601   1.627   0.418   1.728 -0.9388  1.1989  0.2069
  128OSM   H14C13602   1.758   0.425   1.608  2.3053 -0.5440  1.3729
  128OSM    C1313603   1.846   0.382   1.856  0.4135 -0.4676  0.6215
  128OSM   H13A13604   1.759   0.336   1.899 -0.1849  0.3521  0.3067
  128OSM   H13B13605   1.921   0.396   1.932  1.5774  1.6471 -0.8135
  128OSM   H13C13606   1.883   0.310   1.784  1.4185 -0.2461  0.9061
  128OSM    C1213607   1.736   0.606   1.885  1.1206 -0.9891  0.0106
  128OSM   H12A13608   1.663   0.541   1.930 -1.0862  1.0451 -0.4073
  128OSM   H12B13609   1.678   0.684   1.839  1.9209  0.7311  1.8007
  128OSM    C1113610   1.814   0.687   1.998  0.2155 -0.5374  0.5218
  128OSM   H11A13611   1.733   0.732   2.058  0.2956 -1.1567  1.1041
  128OSM   H11B13612   1.874   0.774   1.964 -0.1250 -0.6727 -0.4749
  128OSM      P13613   2.036   0.609   2.117  0.5279  0.3559  0.3638
  128OSM    O1313614   2.064   0.492   2.206  0.2965  0.1597  0.2134
  128OSM    O1413615   2.119   0.614   1.998 -0.3281 -0.8059  0.0386
  128OSM    O1113616   2.054   0.736   2.196  0.2383  0.0660 -0.0092
  128OSM    O1213617   1.883   0.594   2.079  0.3620 -0.4111 -0.2392
  128OSM    C1S13618   1.970   0.790   2.296  0.3796 -0.0719 -0.3057
  128OSM    H1S13619   1.913   0.704   2.337 -0.0522 -0.0267 -0.8008
  128OSM    H1T13620   1.901   0.868   2.256 -0.9920 -1.4661 -0.7535
  128OSM     NF13621   1.951   0.891   2.520 -0.2693  0.4656 -0.5231
  128OSM    HNF13622   1.931   0.989   2.526  1.1053  0.7827 -0.7708
  128OSM    C2S13623   2.045   0.843   2.423 -0.5118 -0.8419  0.0162
  128OSM    H2S13624   2.096   0.757   2.471 -1.7069 -1.7823 -0.3374
  128OSM    C3S13625   2.145   0.956   2.387  0.4104 -0.6539  0.2717
  128OSM    H3S13626   2.089   1.036   2.334 -0.7275 -1.5470  0.0944
  128OSM     O313627   2.232   0.915   2.285 -0.0415  0.0685  0.0741
  128OSM    HO313628   2.199   0.830   2.258  0.1219 -0.3413  1.1068
  128OSM    C4S13629   2.212   0.996   2.516 -0.0766  0.4464 -0.0051
  128OSM    H4S13630   2.267   0.912   2.560  0.5321 -0.0224 -1.5618
  128OSM    C5S13631   2.221   1.116   2.586  0.4727  0.0313 -0.1725
  128OSM    H5S13632   2.169   1.206   2.551 -0.9129  0.8822  3.6184
  128OSM    C6S13633   2.290   1.149   2.717 -0.1061 -0.0438 -0.0341
  128OSM    H6S13634   2.216   1.185   2.792 -0.6559  0.6485 -0.8950
  128OSM    H6T13635   2.367   1.228   2.707 -1.3435  1.0912 -0.8398
  128OSM    C7S13636   2.373   1.040   2.788 -0.0603  0.3744 -0.1838
  128OSM    H7S13637   2.465   1.017   2.730  0.1361 -0.4198  0.4311
  128OSM    H7T13638   2.326   0.941   2.805  0.1377 -0.1128 -2.1315
  128OSM    C8S13639   2.416   1.082   2.924  0.3512  0.2066  0.8409
  128OSM    H8S13640   2.322   1.090   2.983 -0.2788 -0.1419 -0.0919
  128OSM    H8T13641   2.472   1.178   2.914  3.8047 -1.7038  0.4453
  128OSM    C9S13642   2.519   0.987   2.984 -0.6257 -0.0922 -0.5117
  128OSM    H9S13643   2.606   0.985   2.915 -0.7452 -0.5559 -0.6507
  128OSM    H9T13644   2.473   0.886   2.995  2.1101 -1.1719  2.4475
  128OSM   C10S13645   2.563   1.022   3.134  0.6336  0.0819 -0.2223
  128OSM   H10S13646   2.482   1.004   3.209  1.7310  0.0627  0.9838
  128OSM   H10T13647   2.588   1.130   3.140 -3.5020  1.4761 -2.9011
  128OSM   C11S13648   2.682   0.936   3.187  0.7814  0.3774  1.0803
  128OSM   H11S13649   2.775   0.973   3.139  0.1194 -0.5749 -1.0517
  128OSM   H11T13650   2.653   0.832   3.157 -0.1965  0.2175  2.4779
  128OSM   C12S13651   2.696   0.927   3.344 -0.1751  0.0529  0.6214
  128OSM   H12S13652   2.766   0.844   3.369  0.0505  0.5180  1.5585
  128OSM   H12T13653   2.600   0.886   3.383 -0.3243  0.8796  1.1431
  128OSM   C13S13654   2.726   1.062   3.414  0.2883 -0.2627 -0.7132
  128OSM   H13S13655   2.668   1.143   3.365  3.0237  2.5698  0.4179
  128OSM   H13T13656   2.832   1.091   3.399 -0.0378  0.6961 -1.2690
  128OSM   C14S13657   2.688   1.069   3.564 -0.1032 -0.2364 -0.2773
  128OSM   H14S13658   2.577   1.081   3.566 -0.0033  0.7404  0.1018
  128OSM   H14T13659   2.732   1.164   3.602 -0.2812 -0.8120  1.4526
  128OSM   C15S13660   2.740   0.945   3.639  0.1740  0.2255  0.0511
  128OSM   H15S13661   2.851   0.949   3.650  0.1978  1.6033 -0.5206
  128OSM   H15T13662   2.714   0.846   3.595 -3.0033  0.5573  0.9852
  128OSM   C16S13663   2.686   0.937   3.783 -0.0090  0.8429 -0.7020
  128OSM   H16S13664   2.692   1.033   3.839  0.2375  1.2501 -1.4042
  128OSM   H16T13665   2.746   0.871   3.849 -2.8334 -0.4135  0.8128
  128OSM   C17S13666   2.541   0.878   3.787  0.1324 -0.1704  0.1144
  128OSM   H17S13667   2.541   0.770   3.758  2.5314 -1.1043  3.0656
  128OSM   H17T13668   2.466   0.933   3.726 -2.9664 -2.2038  1.7643
  128OSM   C18S13669   2.482   0.879   3.931 -0.1464  0.2280  0.3473
  128OSM   H18S13670   2.384   0.830   3.916 -0.5049  1.1957 -0.5696
  128OSM   H18T13671   2.471   0.981   3.974 -3.1686  0.7089 -1.3170
  128OSM   H18U13672   2.540   0.811   3.997  0.2954 -0.4512 -0.7185
  128OSM    C1F13673   1.879   0.802   2.591  0.5808  0.7346  0.5301
  128OSM     OF13674   1.898   0.681   2.567  0.2182 -0.0770 -0.5139
  128OSM    C2F13675   1.772   0.859   2.688  0.0722  0.3818 -0.4882
  128OSM    H2F13676   1.697   0.921   2.633  0.3125  1.9057  0.8657
  128OSM    H2G13677   1.833   0.932   2.744  1.2429  0.5569 -1.9489
  128OSM    C3F13678   1.713   0.747   2.790  0.2952 -0.5987  0.3444
  128OSM    H3F13679   1.668   0.659   2.738 -1.8449  0.5680  0.1026
  128OSM    H3G13680   1.634   0.793   2.853 -1.8196 -1.6923 -1.3638
  128OSM    C4F13681   1.825   0.689   2.879 -0.3164 -0.5729  0.5283
  128OSM    H4F13682   1.889   0.767   2.925 -1.3854  0.6925 -0.0595
  128OSM    H4G13683   1.893   0.616   2.831 -0.5179 -1.3594  1.4031
  128OSM    C5F13684   1.768   0.616   3.005  0.3632  0.0074  0.6280
  128OSM    H5F13685   1.705   0.535   2.963  1.0266  0.0014 -0.4012
  128OSM    H5G13686   1.691   0.677   3.056 -0.9639 -0.5207 -0.6932
  128OSM    C6F13687   1.875   0.587   3.107 -0.7112  0.1872  0.1371
  128OSM    H6F13688   1.945   0.672   3.124  0.4764 -0.0689 -2.8605
  128OSM    H6G13689   1.943   0.506   3.074 -1.2467 -0.3291  0.2880
  128OSM    C7F13690   1.824   0.533   3.242 -0.9604 -0.6539  0.2159
  128OSM    H7F13691   1.752   0.455   3.209  0.0717 -1.3200 -0.4992
  128OSM    H7G13692   1.767   0.618   3.286 -2.6977 -1.1839 -0.8866
  128OSM    C8F13693   1.940   0.495   3.332 -0.1878 -0.0660  0.2395
  128OSM    H8F13694   1.892   0.517   3.430  2.0005  2.0288  0.9371
  128OSM    H8G13695   2.011   0.581   3.325 -1.0718  0.6568 -0.0632
  128OSM    C9F13696   2.023   0.370   3.322 -0.2749 -0.0911  0.0370
  128OSM    H9F13697   2.107   0.383   3.252  0.7036  1.5733  1.4352
  128OSM   C10F13698   2.011   0.252   3.387 -0.0487  0.5430  0.2652
  128OSM   H10F13699   2.078   0.172   3.350  0.7675  0.8555  1.0250
  128OSM   C11F13700   1.912   0.227   3.498  0.7767  0.7198 -0.0482
  128OSM   H11F13701   1.859   0.141   3.451  0.9773  0.4549  0.2002
  128OSM   H11G13702   1.843   0.313   3.506 -1.7370 -1.2530  0.6969
  128OSM   C12F13703   1.977   0.195   3.637 -0.0745  0.6400  0.4545
  128OSM   H12F13704   2.064   0.263   3.654  0.3481  0.9487 -2.4498
  128OSM   H12G13705   2.008   0.090   3.618 -0.5841  0.7042 -0.8145
  128OSM   C13F13706   1.875   0.206   3.754 -0.2477 -0.0809 -0.5342
  128OSM   H13F13707   1.776   0.165   3.726 -1.5226  0.5089  2.6689
  128OSM   H13G13708   1.858   0.313   3.778 -0.9341  0.3037 -2.5690
  128OSM   C14F13709   1.933   0.144   3.877 -0.4325  0.7196  0.2260
  128OSM   H14F13710   2.031   0.190   3.903 -0.5330  2.6358 -2.3467
  128OSM   H14G13711   1.947   0.037   3.850  0.6678  0.8469  0.2330
  128OSM   C15F13712   1.835   0.157   3.987  0.5271  0.0107 -0.0848
  128OSM   H15F13713   1.758   0.077   3.979 -0.9417  1.1509  1.7966
  128OSM   H15G13714   1.784   0.256   3.977  1.9116  1.0562  2.3189
  128OSM   C16F13715   1.887   0.151   4.128  0.7015 -1.0082 -0.6159
  128OSM   H16F13716   1.797   0.170   4.192 -1.2072 -1.3382 -3.0569
  128OSM   H16G13717   1.951   0.241   4.140  0.5125 -1.0181  0.6667
  128OSM   C17F13718   1.953   0.018   4.167  0.0789  0.3764  0.2161
  128OSM   H17F13719   1.903  -0.073   4.129 -0.1186 -0.1041  1.5621
  128OSM   H17G13720   1.932   0.004   4.276 -1.4222 -0.3971 -0.1485
  128OSM   C18F13721   2.106   0.011   4.165 -0.1909  0.1698  0.4754
  128OSM   H18F13722   2.133  -0.095   4.149 -0.1432  0.4026 -1.0971
  128OSM   H18G13723   2.152   0.039   4.263  1.6457  0.2378 -0.3804
  128OSM   H18H13724   2.150   0.080   4.090 -0.0171 -0.0974  0.3315
  129OSM      N13725   3.697   5.308   2.256  0.6744 -0.1561  0.4791
  129OSM    C1513726   3.546   5.290   2.231  0.2487 -0.3660 -0.2236
  129OSM   H15A13727   3.508   5.349   2.149  0.6222  0.0447 -0.1090
  129OSM   H15B13728   3.492   5.322   2.319 -1.9653  0.4862 -1.8121
  129OSM   H15C13729   3.516   5.187   2.217 -1.1400 -0.0783  0.4724
  129OSM    C1413730   3.747   5.201   2.342  0.5741  0.8063  0.1004
  129OSM   H14A13731   3.734   5.106   2.293  0.1412  0.5843  0.6298
  129OSM   H14B13732   3.701   5.189   2.439 -2.0438 -1.6765 -1.3301
  129OSM   H14C13733   3.853   5.223   2.344  0.5044  1.1166  0.5801
  129OSM    C1313734   3.749   5.290   2.113 -0.0087  0.6414  0.1070
  129OSM   H13A13735   3.856   5.305   2.111  0.0135  0.6618  1.0308
  129OSM   H13B13736   3.708   5.361   2.043 -1.4188  0.2628  0.5311
  129OSM   H13C13737   3.725   5.191   2.078  0.4331  0.6076 -0.1174
  129OSM    C1213738   3.727   5.445   2.307  0.2224  0.7748  0.6425
  129OSM   H12A13739   3.682   5.511   2.234 -0.8320 -0.2368  0.3500
  129OSM   H12B13740   3.833   5.461   2.296  1.5849 -5.2238  1.5048
  129OSM    C1113741   3.683   5.491   2.444  0.7504  0.0290 -0.1659
  129OSM   H11A13742   3.727   5.592   2.463 -1.4147  0.9338  0.3615
  129OSM   H11B13743   3.726   5.419   2.516  0.1209 -2.3629 -2.0648
  129OSM      P13744   3.453   5.616   2.410  0.0144 -0.2732  0.2808
  129OSM    O1313745   3.501   5.685   2.289 -0.3737  0.2014  0.3009
  129OSM    O1413746   3.308   5.577   2.410 -0.4044 -0.0670  0.3103
  129OSM    O1113747   3.467   5.719   2.530  0.1764 -0.4726 -0.0814
  129OSM    O1213748   3.543   5.493   2.453  0.2222 -0.6636  0.5065
  129OSM    C1S13749   3.479   5.664   2.664  0.5025  1.0785 -0.2364
  129OSM    H1S13750   3.579   5.616   2.671 -0.0313 -0.0335 -0.0643
  129OSM    H1T13751   3.395   5.596   2.688  2.4664 -0.9440  1.3066
  129OSM     NF13752   3.493   5.718   2.905  0.3494 -0.1320  0.1977
  129OSM    HNF13753   3.421   5.704   2.972  0.3781 -3.3958 -0.2898
  129OSM    C2S13754   3.462   5.770   2.774 -0.8691  0.1390 -0.2419
  129OSM    H2S13755   3.535   5.850   2.748  0.1471 -1.1078 -1.3898
  129OSM    C3S13756   3.320   5.834   2.785 -0.4273 -1.0523 -0.0629
  129OSM    H3S13757   3.254   5.745   2.798  0.1892 -1.4690  0.2748
  129OSM     O313758   3.272   5.894   2.662  0.4188 -0.1843  0.1160
  129OSM    HO313759   3.347   5.872   2.606  1.4661 -1.5460  1.9392
  129OSM    C4S13760   3.308   5.933   2.903 -1.0483  0.2164 -0.1557
  129OSM    H4S13761   3.324   5.885   3.001 -2.1804 -0.6461 -0.3594
  129OSM    C5S13762   3.288   6.070   2.892 -0.3394  0.4000 -0.9444
  129OSM    H5S13763   3.274   6.115   2.792 -4.1608  0.7668 -0.3811
  129OSM    C6S13764   3.299   6.170   3.006 -0.0090  0.2693 -0.1356
  129OSM    H6S13765   3.251   6.267   2.982 -0.4184 -0.4178 -2.2012
  129OSM    H6T13766   3.405   6.182   3.039  0.1017 -0.6704 -0.1407
  129OSM    C7S13767   3.222   6.123   3.131  0.1904  0.0000 -0.7069
  129OSM    H7S13768   3.288   6.039   3.162  1.4464  0.0768 -2.9911
  129OSM    H7T13769   3.115   6.106   3.106  0.0166 -0.8793  0.5552
  129OSM    C8S13770   3.229   6.232   3.244 -0.7218  0.0169 -0.3380
  129OSM    H8S13771   3.194   6.334   3.216  1.8038  0.9809 -0.2511
  129OSM    H8T13772   3.337   6.247   3.266 -0.7916 -0.0047  0.0357
  129OSM    C9S13773   3.152   6.177   3.372  0.1450  0.1440  0.0494
  129OSM    H9S13774   3.052   6.151   3.330 -1.2109  0.2858  2.9365
  129OSM    H9T13775   3.150   6.266   3.438 -0.3854 -0.8093  1.3686
  129OSM   C10S13776   3.213   6.057   3.435  0.1128 -0.4056 -0.4552
  129OSM   H10S13777   3.319   6.085   3.452  0.8703 -3.0025 -0.4051
  129OSM   H10T13778   3.224   5.967   3.371  0.6501 -0.4459 -0.3108
  129OSM   C11S13779   3.148   6.008   3.565 -0.6030 -0.0113 -0.7031
  129OSM   H11S13780   3.220   5.943   3.618 -0.6212  0.4146 -0.1417
  129OSM   H11T13781   3.065   5.937   3.542  1.2199 -2.6435  0.3570
  129OSM   C12S13782   3.105   6.117   3.666  0.0115 -0.7258 -0.3288
  129OSM   H12S13783   3.021   6.179   3.627  1.6544  3.5478  2.2816
  129OSM   H12T13784   3.191   6.186   3.676  0.0762 -0.4983 -2.1113
  129OSM   C13S13785   3.057   6.055   3.796 -0.0911  0.0520  1.3508
  129OSM   H13S13786   3.123   5.969   3.820  0.4168 -0.4396 -1.4799
  129OSM   H13T13787   2.958   6.009   3.775  0.2950 -0.6367  1.0149
  129OSM   C14S13788   3.027   6.159   3.906 -0.0112 -0.3886 -0.8226
  129OSM   H14S13789   2.989   6.094   3.987  0.9233 -1.8552 -1.5052
  129OSM   H14T13790   2.946   6.224   3.868 -1.9495 -2.3792 -0.3400
  129OSM   C15S13791   3.149   6.238   3.951 -0.2995 -0.8313  0.0138
  129OSM   H15S13792   3.190   6.290   3.862  2.4678 -1.3922  0.8653
  129OSM   H15T13793   3.226   6.166   3.984 -0.6870 -1.4996 -0.5322
  129OSM   C16S13794   3.110   6.324   4.070  0.7017  0.7178  0.5324
  129OSM   H16S13795   3.078   6.253   4.149 -0.6549 -0.0447 -0.6669
  129OSM   H16T13796   3.032   6.393   4.032  0.6483 -0.3388 -1.4119
  129OSM   C17S13797   3.225   6.410   4.129 -0.1893 -0.1322 -0.3945
  129OSM   H17S13798   3.174   6.487   4.190 -1.7726 -0.8874 -0.7090
  129OSM   H17T13799   3.278   6.457   4.044 -1.1693 -0.4231 -1.1989
  129OSM   C18S13800   3.334   6.329   4.198 -0.1599  0.2448  0.3454
  129OSM   H18S13801   3.381   6.256   4.127  0.5892  1.4833 -0.4715
  129OSM   H18T13802   3.296   6.276   4.288 -3.6051  2.7902  0.5561
  129OSM   H18U13803   3.416   6.396   4.229 -0.5517  1.8107 -1.7548
  129OSM    C1F13804   3.615   5.671   2.928 -0.0433 -0.5327  0.1900
  129OSM     OF13805   3.707   5.691   2.857  0.5109 -0.2646 -0.9014
  129OSM    C2F13806   3.628   5.607   3.062  0.3689  0.1620 -0.1293
  129OSM    H2F13807   3.612   5.497   3.050  0.6708 -0.0508  1.2235
  129OSM    H2G13808   3.553   5.645   3.134 -0.4291 -2.9179  0.8502
  129OSM    C3F13809   3.762   5.621   3.130  0.6338  0.5182  0.1893
  129OSM    H3F13810   3.784   5.727   3.156  0.4816  1.5006 -3.1011
  129OSM    H3G13811   3.837   5.591   3.054 -0.4366  0.4345 -0.8738
  129OSM    C4F13812   3.770   5.520   3.246  0.0326  0.2319 -0.3719
  129OSM    H4F13813   3.875   5.513   3.281  0.2223  2.5773 -0.2949
  129OSM    H4G13814   3.747   5.415   3.218 -0.2773  0.3234 -0.4678
  129OSM    C5F13815   3.680   5.545   3.369  0.4541 -0.1331 -0.0640
  129OSM    H5F13816   3.574   5.567   3.342  0.3387 -3.2249 -2.8229
  129OSM    H5G13817   3.730   5.626   3.426 -1.5677 -0.7203  2.7700
  129OSM    C6F13818   3.674   5.429   3.461 -0.7317  0.0059 -0.1737
  129OSM    H6F13819   3.777   5.389   3.474 -1.2414 -0.8334  1.6173
  129OSM    H6G13820   3.600   5.361   3.413 -2.7358  2.7403 -1.2374
  129OSM    C7F13821   3.628   5.465   3.610 -0.6423 -0.1171  0.3138
  129OSM    H7F13822   3.533   5.521   3.598  0.4295  1.8754  0.6524
  129OSM    H7G13823   3.697   5.537   3.658  0.0067 -0.6250  0.1709
  129OSM    C8F13824   3.612   5.351   3.707  0.6210 -0.0463 -0.8473
  129OSM    H8F13825   3.707   5.297   3.728 -0.1281 -0.8496  0.6065
  129OSM    H8G13826   3.550   5.275   3.655 -0.0735  0.8817 -1.3902
  129OSM    C9F13827   3.551   5.405   3.839  0.6299  0.2630 -0.6990
  129OSM    H9F13828   3.443   5.429   3.833  0.7181  0.3748 -2.2854
  129OSM   C10F13829   3.615   5.427   3.952  0.8418  0.1243 -0.3730
  129OSM   H10F13830   3.555   5.459   4.039 -1.5681 -1.8822 -1.1703
  129OSM   C11F13831   3.761   5.407   3.966  0.6198 -0.0939 -0.0590
  129OSM   H11F13832   3.807   5.418   3.865  0.8037 -0.7854 -0.0551
  129OSM   H11G13833   3.781   5.303   4.002  2.5287  1.1605  2.8592
  129OSM   C12F13834   3.829   5.500   4.056 -0.3902  0.7474  0.1709
  129OSM   H12F13835   3.807   5.599   4.010 -1.6351  0.6694  0.5579
  129OSM   H12G13836   3.937   5.483   4.039 -0.6647 -0.2359 -0.6594
  129OSM   C13F13837   3.802   5.492   4.207 -0.3494 -0.2883 -0.4258
  129OSM   H13F13838   3.828   5.389   4.240 -0.4695  0.2207  1.3704
  129OSM   H13G13839   3.696   5.518   4.228  0.1656  2.2703 -0.7359
  129OSM   C14F13840   3.896   5.577   4.301  0.2152 -1.2228  0.0672
  129OSM   H14F13841   3.855   5.575   4.405 -1.4543  3.1792 -0.2598
  129OSM   H14G13842   3.895   5.685   4.273 -0.3862 -1.1784  0.2254
  129OSM   C15F13843   4.036   5.530   4.303 -0.2029  0.1146  0.1209
  129OSM   H15F13844   4.075   5.554   4.202  0.3479 -1.5898 -0.1136
  129OSM   H15G13845   4.031   5.420   4.319 -4.6949 -0.0105 -0.9304
  129OSM   C16F13846   4.120   5.606   4.402  0.1330  0.6729 -0.4601
  129OSM   H16F13847   4.085   5.569   4.500  0.9609  1.4224  0.1402
  129OSM   H16G13848   4.101   5.715   4.393 -1.1486  0.6742  1.5970
  129OSM   C17F13849   4.273   5.586   4.395  0.0700  0.4711  0.2127
  129OSM   H17F13850   4.303   5.609   4.290  1.3827  1.2727  0.7425
  129OSM   H17G13851   4.303   5.484   4.427  0.8424  1.0298  1.3585
  129OSM   C18F13852   4.344   5.670   4.499 -0.1213 -0.4115 -0.4232
  129OSM   H18F13853   4.311   5.776   4.488  0.9327 -0.2032 -1.9061
  129OSM   H18G13854   4.454   5.671   4.487  0.0395  1.8229  0.7386
  129OSM   H18H13855   4.319   5.624   4.597  0.5305  1.1290  0.5126
  130OSM      N13856   4.271   1.362   2.011  0.3142 -0.0266  0.1949
  130OSM    C1513857   4.181   1.255   1.961  0.1029  0.2760  0.0346
  130OSM   H15A13858   4.098   1.250   2.030 -0.2904 -2.8414 -0.4863
  130OSM   H15B13859   4.226   1.156   1.956  0.6858  0.5852 -3.0283
  130OSM   H15C13860   4.133   1.277   1.867 -1.4567 -2.9849 -0.0770
  130OSM    C1413861   4.410   1.358   1.958  0.1028 -0.0307  0.2756
  130OSM   H14A13862   4.457   1.264   1.983  0.5080 -0.1987 -1.0167
  130OSM   H14B13863   4.469   1.441   1.994 -1.8132  1.1146  0.9367
  130OSM   H14C13864   4.415   1.363   1.850  0.2800  0.8789  0.3194
  130OSM    C1313865   4.201   1.491   1.987 -0.6126 -0.1501  0.8923
  130OSM   H13A13866   4.112   1.506   2.046 -0.2003  1.1977  1.2033
  130OSM   H13B13867   4.176   1.505   1.882 -2.3839 -1.2220  1.1458
  130OSM   H13C13868   4.257   1.580   2.014  1.7876 -1.2350 -0.1947
  130OSM    C1213869   4.287   1.342   2.162  0.3118  0.2855  0.2239
  130OSM   H12A13870   4.373   1.403   2.183  0.5155  0.9336 -2.2484
  130OSM   H12B13871   4.306   1.237   2.179 -1.0340  0.0336  0.2646
  130OSM    C1113872   4.162   1.379   2.248  0.9076 -0.3601  0.2027
  130OSM   H11A13873   4.134   1.482   2.220  1.2642 -0.1262  0.6938
  130OSM   H11B13874   4.190   1.380   2.356 -0.8601 -0.6354  0.6835
  130OSM      P13875   3.903   1.336   2.260 -0.1406  0.3364  0.2595
  130OSM    O1313876   3.861   1.457   2.187  0.1543 -0.0505 -0.4293
  130OSM    O1413877   3.820   1.217   2.230  0.0163 -0.0703 -0.2497
  130OSM    O1113878   3.918   1.364   2.418  0.1582 -0.4871  0.5117
  130OSM    O1213879   4.054   1.289   2.223  0.5876 -0.7453  0.1267
  130OSM    C1S13880   3.985   1.279   2.512 -0.2126 -0.0611  0.5363
  130OSM    H1S13881   4.084   1.245   2.474 -0.1910 -1.4333  1.7641
  130OSM    H1T13882   3.926   1.187   2.531  0.8143 -0.8989 -0.2545
  130OSM     NF13883   4.087   1.256   2.741 -0.1960 -0.4028 -0.9761
  130OSM    HNF13884   4.037   1.201   2.808  0.6082 -1.0828 -0.9157
  130OSM    C2S13885   4.008   1.345   2.656  0.4054 -0.0140  0.1133
  130OSM    H2S13886   4.066   1.440   2.653 -3.2956  2.5289  2.0055
  130OSM    C3S13887   3.872   1.395   2.702  0.4264 -0.0818 -0.1462
  130OSM    H3S13888   3.802   1.309   2.710 -0.3705  0.5565 -0.1212
  130OSM     O313889   3.807   1.491   2.623  0.2443 -0.7004 -0.2408
  130OSM    HO313890   3.865   1.491   2.547 -0.0236 -3.0291 -0.5241
  130OSM    C4S13891   3.877   1.449   2.845  0.1896 -0.4972 -0.4414
  130OSM    H4S13892   3.883   1.363   2.913  2.1124 -0.3203 -0.3299
  130OSM    C5S13893   3.883   1.572   2.896  0.2539  0.3388 -0.0096
  130OSM    H5S13894   3.863   1.655   2.827 -0.7149  0.8799  0.8809
  130OSM    C6S13895   3.894   1.616   3.042  0.3211  0.2523  0.4479
  130OSM    H6S13896   3.804   1.666   3.084 -0.3682 -1.1446  0.6675
  130OSM    H6T13897   3.966   1.701   3.047 -0.8948  1.3244  0.2872
  130OSM    C7S13898   3.928   1.518   3.156 -0.5256 -0.3215  0.3137
  130OSM    H7S13899   4.035   1.491   3.147 -1.2087 -3.1329 -0.2805
  130OSM    H7T13900   3.871   1.425   3.136 -0.1711 -0.0031 -2.6755
  130OSM    C8S13901   3.884   1.576   3.292  1.3324  0.1285  0.1671
  130OSM    H8S13902   3.779   1.609   3.274  0.8291 -1.6157 -0.2115
  130OSM    H8T13903   3.946   1.665   3.317  1.5650  0.4934 -1.6074
  130OSM    C9S13904   3.871   1.467   3.402  0.3522 -0.5860 -0.1369
  130OSM    H9S13905   3.856   1.518   3.500  3.5076 -2.1059  1.2617
  130OSM    H9T13906   3.976   1.432   3.414  1.0571  1.8441  1.6117
  130OSM   C10S13907   3.780   1.345   3.387 -0.0809 -0.5350  0.1951
  130OSM   H10S13908   3.838   1.266   3.337 -1.8887 -1.1681 -1.0008
  130OSM   H10T13909   3.693   1.366   3.321 -0.3828 -0.1068  0.7140
  130OSM   C11S13910   3.724   1.308   3.524 -0.3402  0.3897  0.2862
  130OSM   H11S13911   3.672   1.389   3.578  0.0852  0.3880  0.6989
  130OSM   H11T13912   3.816   1.271   3.574 -0.5566 -1.1528 -0.3769
  130OSM   C12S13913   3.619   1.196   3.524  0.1289 -0.0204  0.3102
  130OSM   H12S13914   3.669   1.096   3.526 -0.5439 -0.5460 -3.1361
  130OSM   H12T13915   3.551   1.210   3.437 -0.6162  1.7699  1.1437
  130OSM   C13S13916   3.527   1.208   3.649 -0.7433  0.6225  0.0287
  130OSM   H13S13917   3.467   1.115   3.650  1.8551 -1.1923  1.4063
  130OSM   H13T13918   3.465   1.298   3.634 -0.1487  1.0566  0.1547
  130OSM   C14S13919   3.595   1.207   3.791 -0.2323 -0.4938 -1.2357
  130OSM   H14S13920   3.653   1.300   3.809 -2.6041  0.8830 -0.2333
  130OSM   H14T13921   3.666   1.122   3.797 -2.8145 -2.7441 -0.4356
  130OSM   C15S13922   3.495   1.210   3.898 -0.1666 -0.5389 -0.0800
  130OSM   H15S13923   3.420   1.128   3.884 -0.1679 -0.3487 -1.3268
  130OSM   H15T13924   3.438   1.305   3.887 -1.6075 -1.6402 -3.5675
  130OSM   C16S13925   3.561   1.198   4.037 -0.9700  0.0293  0.5919
  130OSM   H16S13926   3.478   1.208   4.110 -0.8993  1.7591  0.4654
  130OSM   H16T13927   3.630   1.284   4.053  0.6969 -1.2592  0.6012
  130OSM   C17S13928   3.659   1.091   4.075  0.3375  0.3513 -0.1626
  130OSM   H17S13929   3.754   1.109   4.022  1.0094  0.0668  0.9182
  130OSM   H17T13930   3.619   0.990   4.049 -0.3435  0.2755  1.0936
  130OSM   C18S13931   3.701   1.095   4.223 -0.4733 -0.4355 -0.4063
  130OSM   H18S13932   3.615   1.108   4.293  0.3176  0.5109  0.4239
  130OSM   H18T13933   3.773   1.178   4.236 -0.5765 -0.4170  0.0452
  130OSM   H18U13934   3.763   1.013   4.266  1.0875  1.0689  0.2967
  130OSM    C1F13935   4.213   1.234   2.718  0.1109  0.4712  0.2737
  130OSM     OF13936   4.272   1.289   2.626 -0.3808 -0.2931 -0.2023
  130OSM    C2F13937   4.276   1.138   2.813 -0.2478  0.3369  0.4927
  130OSM    H2F13938   4.260   1.044   2.756 -3.4016  0.0133  1.7481
  130OSM    H2G13939   4.213   1.118   2.902 -1.1933 -0.9871 -0.4335
  130OSM    C3F13940   4.424   1.178   2.848  0.7089  0.3587 -0.3014
  130OSM    H3F13941   4.427   1.280   2.892  0.8707  0.3083 -0.1896
  130OSM    H3G13942   4.480   1.179   2.752 -0.2559  1.7673 -0.8715
  130OSM    C4F13943   4.484   1.065   2.934  0.3687  0.1693  0.3011
  130OSM    H4F13944   4.592   1.091   2.941  0.9686 -1.6561 -1.3010
  130OSM    H4G13945   4.469   0.976   2.868 -1.3485 -0.2866  1.2379
  130OSM    C5F13946   4.419   1.035   3.062  0.0111  0.0379 -0.1339
  130OSM    H5F13947   4.486   0.956   3.102  3.1559 -0.0306 -4.7159
  130OSM    H5G13948   4.319   0.992   3.038  1.3228 -1.6766 -3.0477
  130OSM    C6F13949   4.405   1.149   3.165  0.9163 -0.6226  0.5768
  130OSM    H6F13950   4.366   1.104   3.259 -1.2519 -0.4293 -0.1777
  130OSM    H6G13951   4.336   1.223   3.119  1.6796  1.4334  2.5631
  130OSM    C7F13952   4.529   1.226   3.207 -0.3711  0.4273 -0.6462
  130OSM    H7F13953   4.499   1.331   3.186 -0.5964  0.0450 -2.4823
  130OSM    H7G13954   4.621   1.196   3.151  1.8737  1.2101  2.3928
  130OSM    C8F13955   4.573   1.201   3.354  0.6052  0.2264 -0.0323
  130OSM    H8F13956   4.611   1.098   3.371  0.1007  0.3070  1.8922
  130OSM    H8G13957   4.484   1.206   3.421  2.2214 -2.6544  2.6036
  130OSM    C9F13958   4.678   1.293   3.400 -1.0257  0.1220  0.0874
  130OSM    H9F13959   4.746   1.305   3.315 -0.1149 -2.2602  0.4180
  130OSM   C10F13960   4.669   1.390   3.494 -0.2718  0.0671 -0.3226
  130OSM   H10F13961   4.756   1.457   3.505  0.7644 -1.3181  0.3024
  130OSM   C11F13962   4.554   1.399   3.592  0.3625 -0.1424 -0.2787
  130OSM   H11F13963   4.465   1.337   3.567  0.2682  0.5075 -1.6242
  130OSM   H11G13964   4.523   1.506   3.586  0.5049  0.0184  1.4120
  130OSM   C12F13965   4.603   1.365   3.736 -0.3273  0.6779 -0.2584
  130OSM   H12F13966   4.521   1.380   3.809  0.1598  1.5123  0.1272
  130OSM   H12G13967   4.678   1.439   3.772  1.6903 -1.2309 -0.2730
  130OSM   C13F13968   4.665   1.221   3.743  0.0532 -0.9059  0.1904
  130OSM   H13F13969   4.742   1.217   3.663 -0.8187  3.2996 -1.1023
  130OSM   H13G13970   4.585   1.153   3.705 -0.5977 -0.7995  1.3155
  130OSM   C14F13971   4.716   1.185   3.886  0.3635 -0.7545  0.3711
  130OSM   H14F13972   4.637   1.207   3.961  0.5406  2.1926 -0.2003
  130OSM   H14G13973   4.800   1.255   3.904 -0.7792  0.8135 -0.2380
  130OSM   C15F13974   4.760   1.038   3.903 -0.3790 -0.2412  1.1454
  130OSM   H15F13975   4.848   1.016   3.839 -1.4445 -1.3824 -0.0158
  130OSM   H15G13976   4.695   0.956   3.864  1.2426 -0.8503 -0.4497
  130OSM   C16F13977   4.792   1.005   4.052  0.2509  0.2175 -0.2961
  130OSM   H16F13978   4.860   1.083   4.091  0.4431 -0.5510  0.9718
  130OSM   H16G13979   4.853   0.913   4.063 -0.3227  0.0209  1.4560
  130OSM   C17F13980   4.668   1.016   4.141 -0.8096  0.7163 -0.2124
  130OSM   H17F13981   4.638   0.912   4.169 -2.6336  1.1895 -0.3180
  130OSM   H17G13982   4.582   1.042   4.077 -1.1505 -1.4075 -0.7163
  130OSM   C18F13983   4.677   1.105   4.264  0.4732  0.7439 -0.5330
  130OSM   H18F13984   4.598   1.069   4.334  0.0568 -1.3012 -1.9774
  130OSM   H18G13985   4.642   1.208   4.240 -3.1220 -0.2016  0.0835
  130OSM   H18H13986   4.777   1.105   4.312  0.9785 -2.2714 -1.3694
  131OSM      N13987   0.192   6.743   2.314  0.1677  0.6856 -0.7005
  131OSM    C1513988   0.310   6.778   2.401 -0.4117  0.2784 -0.0635
  131OSM   H15A13989   0.287   6.757   2.504 -3.7041  1.7074 -0.4077
  131OSM   H15B13990   0.338   6.882   2.409  2.0138 -0.3642  0.7275
  131OSM   H15C13991   0.395   6.719   2.371 -1.4459 -0.7095 -1.1567
  131OSM    C1413992   0.251   6.691   2.185 -0.4683  0.0097 -0.5500
  131OSM   H14A13993   0.318   6.768   2.148  0.7424 -0.9645 -0.4345
  131OSM   H14B13994   0.166   6.677   2.120 -0.2512  0.0573 -0.8466
  131OSM   H14C13995   0.310   6.602   2.195 -0.2484  0.0581 -1.3978
  131OSM    C1313996   0.116   6.639   2.382 -0.2795  0.9411  0.9289
  131OSM   H13A13997   0.073   6.671   2.475  1.2594  1.4504  1.5002
  131OSM   H13B13998   0.175   6.554   2.414 -1.3332  0.3050  1.2455
  131OSM   H13C13999   0.038   6.605   2.316  0.5833 -0.3056  0.5094
  131OSM    C1214000   0.109   6.861   2.295  0.1883 -0.0453  0.0791
  131OSM   H12A14001   0.085   6.903   2.392  0.8449  0.0883  0.1909
  131OSM   H12B14002   0.028   6.823   2.235  1.2216  0.7194 -1.8837
  131OSM    C1114003   0.176   6.981   2.220 -0.1843 -0.0064  0.5396
  131OSM   H11A14004   0.093   7.053   2.203 -1.6624 -2.1219 -1.8467
  131OSM   H11B14005   0.213   6.947   2.121  2.0683 -0.0262  1.3240
  131OSM      P14006   0.271   7.159   2.401  0.0559 -0.4176 -0.0306
  131OSM    O1314007   0.401   7.170   2.464  0.0333  0.6309  0.4804
  131OSM    O1414008   0.214   7.275   2.330  0.0266 -0.3253 -0.0615
  131OSM    O1114009   0.160   7.118   2.509 -0.2559 -0.3665  0.2526
  131OSM    O1214010   0.280   7.036   2.299 -0.0237 -0.7210 -0.4693
  131OSM    C1S14011   0.201   7.106   2.650  0.2575  0.9311  1.0344
  131OSM    H1S14012   0.242   7.204   2.683 -0.7076  1.9322 -0.5980
  131OSM    H1T14013   0.275   7.024   2.665 -0.3574 -0.2248 -1.7073
  131OSM     NF14014   0.140   7.068   2.884  0.0137  0.6323  0.0113
  131OSM    HNF14015   0.215   7.003   2.896  0.1675  0.7315 -0.3996
  131OSM    C2S14016   0.085   7.064   2.753  0.0028  0.9946  0.1135
  131OSM    H2S14017   0.013   7.148   2.740  0.7814  1.8150  0.9384
  131OSM    C3S14018   0.015   6.933   2.714 -0.4946  0.3667  0.8683
  131OSM    H3S14019   0.103   6.865   2.721  0.3473  1.3842  0.3773
  131OSM     O314020  -0.029   6.932   2.580 -0.4221 -1.0907 -0.1786
  131OSM    HO314021  -0.013   7.021   2.548 -1.2089  0.1756  2.5729
  131OSM    C4S14022  -0.101   6.878   2.800 -0.5206 -0.0401  0.7607
  131OSM    H4S14023  -0.185   6.950   2.801  0.5843  1.3190 -0.1159
  131OSM    C5S14024  -0.107   6.759   2.861 -0.5855  0.3896 -0.2012
  131OSM    H5S14025  -0.027   6.686   2.842 -1.0954 -0.9236  2.2975
  131OSM    C6S14026  -0.222   6.706   2.939  0.0462 -0.0929 -0.4475
  131OSM    H6S14027  -0.261   6.612   2.895  2.7767 -2.2417  1.3795
  131OSM    H6T14028  -0.292   6.792   2.952  0.6089  0.1394  1.4100
  131OSM    C7S14029  -0.189   6.660   3.085 -0.1023  0.3032  0.3405
  131OSM    H7S14030  -0.130   6.738   3.137  1.5747 -0.3975 -0.4409
  131OSM    H7T14031  -0.128   6.568   3.080 -1.5128 -0.7212  1.2851
  131OSM    C8S14032  -0.317   6.630   3.167 -0.1556 -0.2726 -0.4025
  131OSM    H8S14033  -0.387   6.574   3.103  0.0624 -2.7693  1.4118
  131OSM    H8T14034  -0.371   6.721   3.201 -2.3852 -2.5253  2.6996
  131OSM    C9S14035  -0.290   6.545   3.290  0.5276  0.0975  0.0319
  131OSM    H9S14036  -0.218   6.606   3.349 -0.1544 -1.5186  2.7024
  131OSM    H9T14037  -0.232   6.451   3.286 -0.4654 -0.4804 -2.3917
  131OSM   C10S14038  -0.415   6.509   3.370 -0.6990 -0.3836  0.4191
  131OSM   H10S14039  -0.491   6.463   3.302  0.1788  0.7523 -1.4231
  131OSM   H10T14040  -0.460   6.605   3.405  0.6988  0.1859  0.7136
  131OSM   C11S14041  -0.377   6.435   3.497 -0.1824 -0.0305 -0.3233
  131OSM   H11S14042  -0.352   6.330   3.468 -2.6026 -0.2168 -1.9904
  131OSM   H11T14043  -0.469   6.429   3.558 -0.4990  0.5071 -0.7471
  131OSM   C12S14044  -0.264   6.498   3.587 -0.9744  0.3371 -0.4879
  131OSM   H12S14045  -0.293   6.604   3.605 -3.9300 -0.2701 -1.1614
  131OSM   H12T14046  -0.163   6.492   3.540 -0.4819  1.6058  0.3243
  131OSM   C13S14047  -0.264   6.440   3.727  0.5566 -0.1783  1.0444
  131OSM   H13S14048  -0.191   6.357   3.726  1.0442  0.1860 -1.7365
  131OSM   H13T14049  -0.368   6.402   3.739 -0.5001  1.8066 -0.9892
  131OSM   C14S14050  -0.237   6.534   3.842  0.4441  0.8838 -0.7665
  131OSM   H14S14051  -0.309   6.618   3.841 -2.5271 -1.4530  0.9275
  131OSM   H14T14052  -0.129   6.560   3.837  1.0386 -1.2698 -0.2336
  131OSM   C15S14053  -0.279   6.461   3.977  0.1603  0.0511 -0.3189
  131OSM   H15S14054  -0.238   6.358   3.970  1.5206  0.6901 -2.9010
  131OSM   H15T14055  -0.388   6.467   3.995 -0.0216 -2.9152  0.1686
  131OSM   C16S14056  -0.216   6.528   4.091 -0.6961  0.1087 -0.9929
  131OSM   H16S14057  -0.251   6.633   4.092  1.3639  0.8480 -0.8201
  131OSM   H16T14058  -0.105   6.526   4.078 -0.8147  2.2848 -3.0675
  131OSM   C17S14059  -0.250   6.469   4.233 -0.1589  0.0169  0.3389
  131OSM   H17S14060  -0.359   6.457   4.250 -0.0471 -1.3206  0.1813
  131OSM   H17T14061  -0.232   6.543   4.313 -0.7526  1.9928 -1.2583
  131OSM   C18S14062  -0.163   6.345   4.272 -0.0298  0.7365 -0.1865
  131OSM   H18S14063  -0.142   6.269   4.194  0.9135 -1.5127  2.1291
  131OSM   H18T14064  -0.212   6.274   4.342 -0.1261  1.3019  0.3342
  131OSM   H18U14065  -0.068   6.378   4.318 -0.1501 -2.0169  2.3257
  131OSM    C1F14066   0.157   7.185   2.940 -0.1245  0.3162 -1.4962
  131OSM     OF14067   0.116   7.288   2.893  0.1026 -0.2415  0.1934
  131OSM    C2F14068   0.249   7.187   3.063  0.4961  0.2623 -0.2035
  131OSM    H2F14069   0.268   7.294   3.083  0.8442  0.0741  0.5110
  131OSM    H2G14070   0.347   7.141   3.037  0.6784  1.4585 -1.8096
  131OSM    C3F14071   0.181   7.130   3.181 -0.0703  0.4117 -0.4624
  131OSM    H3F14072   0.147   7.026   3.159  0.3855 -0.3230  1.9065
  131OSM    H3G14073   0.085   7.180   3.204  0.2081  0.7262  0.0339
  131OSM    C4F14074   0.272   7.124   3.310 -0.3738 -0.0249 -0.8488
  131OSM    H4F14075   0.321   7.223   3.303 -0.5260  0.1595  0.3900
  131OSM    H4G14076   0.352   7.048   3.301  1.5508  2.0138 -1.8417
  131OSM    C5F14077   0.205   7.128   3.448  0.3527  0.1979  0.1349
  131OSM    H5F14078   0.284   7.132   3.527 -0.7790  1.5218  1.2527
  131OSM    H5G14079   0.140   7.040   3.466 -0.7066  1.1088  0.8913
  131OSM    C6F14080   0.115   7.251   3.470  0.2027 -0.4238 -0.4732
  131OSM    H6F14081   0.034   7.256   3.393  0.2160  0.3026 -0.4408
  131OSM    H6G14082   0.176   7.343   3.462 -1.6491  0.8807 -0.1846
  131OSM    C7F14083   0.041   7.248   3.608 -0.4594  0.7771 -0.2063
  131OSM    H7F14084   0.118   7.280   3.682  0.3338 -0.7544 -0.3254
  131OSM    H7G14085   0.018   7.141   3.625 -0.3135  0.8591  0.5435
  131OSM    C8F14086  -0.072   7.343   3.610  0.5150  0.2489 -0.5196
  131OSM    H8F14087  -0.159   7.301   3.556  1.2053  0.4536 -1.8212
  131OSM    H8G14088  -0.034   7.432   3.556 -0.7796  0.6718 -0.7545
  131OSM    C9F14089  -0.136   7.392   3.736  0.6076  0.1897  0.8250
  131OSM    H9F14090  -0.212   7.470   3.720 -0.3070 -0.2195  2.8767
  131OSM   C10F14091  -0.116   7.353   3.865  0.2802 -0.3081  0.2156
  131OSM   H10F14092  -0.164   7.414   3.943 -1.4698  1.4344 -2.0664
  131OSM   C11F14093  -0.020   7.248   3.918 -0.6008 -0.2952  0.1641
  131OSM   H11F14094   0.082   7.291   3.932 -1.4540  1.2192  2.2845
  131OSM   H11G14095  -0.013   7.164   3.846 -2.2116  0.2212 -0.6282
  131OSM   C12F14096  -0.063   7.183   4.049  0.2738  0.2983 -0.1645
  131OSM   H12F14097   0.016   7.109   4.077 -1.2247 -1.7316 -1.0321
  131OSM   H12G14098  -0.158   7.128   4.033  0.2111  0.5968 -0.8211
  131OSM   C13F14099  -0.077   7.280   4.171  0.2597 -0.8711  0.2439
  131OSM   H13F14100  -0.127   7.377   4.151  1.1549 -0.5479 -0.4632
  131OSM   H13G14101   0.028   7.308   4.195  0.3822  0.3976 -1.5586
  131OSM   C14F14102  -0.149   7.211   4.296 -0.0076 -0.2193  0.5985
  131OSM   H14F14103  -0.251   7.183   4.261  0.4586  0.5257 -1.4916
  131OSM   H14G14104  -0.160   7.294   4.369 -1.2019 -2.0370  2.5859
  131OSM   C15F14105  -0.075   7.095   4.357 -0.0768  0.4479  0.1166
  131OSM   H15F14106   0.023   7.134   4.393 -1.4015  3.7959  0.3825
  131OSM   H15G14107  -0.061   7.010   4.286 -1.1299  0.5504 -0.2173
  131OSM   C16F14108  -0.153   7.051   4.483  0.5567  0.4914 -0.2227
  131OSM   H16F14109  -0.179   7.135   4.550 -1.1172  0.7750 -1.1929
  131OSM   H16G14110  -0.086   6.984   4.541  0.8981  0.5737 -0.5195
  131OSM   C17F14111  -0.289   6.981   4.464  0.0053  0.3132 -0.2898
  131OSM   H17F14112  -0.347   7.067   4.424  1.4379  2.7657  2.4622
  131OSM   H17G14113  -0.336   6.962   4.563  0.4575 -0.9921 -0.3054
  131OSM   C18F14114  -0.291   6.866   4.369 -0.0507  0.2940  0.0364
  131OSM   H18F14115  -0.236   6.780   4.413  1.7364 -0.2374 -2.9319
  131OSM   H18G14116  -0.241   6.890   4.273 -0.5977  1.5177  0.0409
  131OSM   H18H14117  -0.393   6.839   4.334 -0.1500 -1.4361  1.4645
  132OSM      N14118   0.032   2.129   2.284 -0.2361 -0.3557 -0.1491
  132OSM    C1514119   0.020   2.247   2.372 -0.0926 -0.3706 -0.4566
  132OSM   H15A14120   0.002   2.224   2.476 -1.0029 -0.7198 -0.6767
  132OSM   H15B14121  -0.066   2.298   2.331 -1.7385 -2.5065  0.1084
  132OSM   H15C14122   0.106   2.312   2.370 -1.3789  1.4859  1.2643
  132OSM    C1414123   0.100   2.164   2.156 -0.7931 -0.5256  0.7516
  132OSM   H14A14124   0.139   2.079   2.101  0.2793  2.5786 -3.8537
  132OSM   H14B14125   0.180   2.236   2.161 -2.5580  1.7630 -1.5351
  132OSM   H14C14126   0.035   2.211   2.084  0.9279  1.7138  0.5352
  132OSM    C1314127   0.135   2.031   2.352  0.1099 -0.1638 -0.0629
  132OSM   H13A14128   0.224   2.087   2.376 -1.2352  1.9284  0.3236
  132OSM   H13B14129   0.160   1.946   2.290 -0.4036 -0.3453 -0.0262
  132OSM   H13C14130   0.095   1.989   2.443 -1.4989 -0.3073 -0.8054
  132OSM    C1214131  -0.099   2.059   2.262 -0.2137 -0.4642 -0.1713
  132OSM   H12A14132  -0.089   1.976   2.194 -3.6564 -1.5047  0.4016
  132OSM   H12B14133  -0.172   2.128   2.223 -1.1605 -0.7014  1.1236
  132OSM    C1114134  -0.165   2.001   2.387 -0.3403  0.4500 -0.3229
  132OSM   H11A14135  -0.270   1.973   2.365 -0.5788 -0.5536  1.8267
  132OSM   H11B14136  -0.176   2.073   2.471 -1.1751 -1.8446  1.6502
  132OSM      P14137  -0.150   1.751   2.415 -0.0766 -0.2983  0.0971
  132OSM    O1314138  -0.165   1.750   2.268 -0.2621  0.2540 -0.5042
  132OSM    O1414139  -0.067   1.646   2.481 -0.0238  0.1102 -0.1584
  132OSM    O1114140  -0.292   1.747   2.483  0.2754 -0.5967 -0.0799
  132OSM    O1214141  -0.090   1.894   2.450 -0.5712  0.1819  0.3343
  132OSM    C1S14142  -0.309   1.695   2.617 -0.4832  0.2063 -0.3717
  132OSM    H1S14143  -0.213   1.692   2.671  0.9419  1.2781 -2.6624
  132OSM    H1T14144  -0.342   1.589   2.605 -0.1133  0.3434 -3.8681
  132OSM     NF14145  -0.416   1.760   2.842 -0.5849  0.9419 -0.3572
  132OSM    HNF14146  -0.483   1.689   2.859  0.1412  0.8166  2.3966
  132OSM    C2S14147  -0.407   1.789   2.698  0.1455  0.9592 -0.2652
  132OSM    H2S14148  -0.363   1.890   2.685  1.7164  0.2671 -0.5492
  132OSM    C3S14149  -0.555   1.800   2.627 -1.0136 -0.5736 -0.7041
  132OSM    H3S14150  -0.611   1.707   2.649 -1.1992 -1.0499 -2.9303
  132OSM     O314151  -0.559   1.800   2.488 -0.0414 -0.0020 -0.1911
  132OSM    HO314152  -0.466   1.784   2.470  0.0781 -1.0033  1.1437
  132OSM    C4S14153  -0.633   1.918   2.680  0.0614 -0.6740 -0.2547
  132OSM    H4S14154  -0.672   1.897   2.781 -0.6082 -0.1963 -0.4090
  132OSM    C5S14155  -0.657   2.036   2.621 -0.2982 -0.4649  0.1873
  132OSM    H5S14156  -0.610   2.049   2.522 -0.6562  3.5340  0.3924
  132OSM    C6S14157  -0.735   2.147   2.672  0.1462 -0.1151 -0.3300
  132OSM    H6S14158  -0.810   2.191   2.604 -0.0972  1.0135  0.6222
  132OSM    H6T14159  -0.670   2.237   2.681  0.1886 -0.3157  2.2121
  132OSM    C7S14160  -0.830   2.128   2.797 -0.0067 -0.5707 -0.0413
  132OSM    H7S14161  -0.867   2.025   2.816  0.8741 -0.8569  0.1453
  132OSM    H7T14162  -0.923   2.186   2.778 -0.3360 -1.5191 -1.4168
  132OSM    C8S14163  -0.760   2.189   2.919  0.2344 -0.5770  0.0078
  132OSM    H8S14164  -0.843   2.251   2.961 -0.9947 -1.1954 -1.4028
  132OSM    H8T14165  -0.694   2.269   2.880  1.3148 -1.6492 -0.4176
  132OSM    C9S14166  -0.678   2.092   3.002  0.3484 -0.6626  0.4879
  132OSM    H9S14167  -0.601   2.047   2.936 -0.4803 -0.6356 -0.5216
  132OSM    H9T14168  -0.743   2.005   3.027 -1.3626  0.0300 -1.3102
  132OSM   C10S14169  -0.624   2.155   3.133 -0.0520 -0.3363 -0.5376
  132OSM   H10S14170  -0.706   2.207   3.187  0.2916 -0.7708  0.4202
  132OSM   H10T14171  -0.535   2.219   3.113  0.8512 -2.2244 -3.1263
  132OSM   C11S14172  -0.574   2.047   3.228  1.1183 -0.1881 -0.5334
  132OSM   H11S14173  -0.482   1.992   3.197  1.8235 -0.0426  1.1694
  132OSM   H11T14174  -0.650   1.967   3.241  2.5980 -1.3734  1.4512
  132OSM   C12S14175  -0.550   2.104   3.370  0.2466 -0.0960 -0.1739
  132OSM   H12S14176  -0.641   2.160   3.400 -1.6138 -0.8955 -3.8658
  132OSM   H12T14177  -0.463   2.171   3.353  0.4424 -0.8164 -2.3759
  132OSM   C13S14178  -0.522   1.992   3.475 -0.1221 -0.4129  0.3564
  132OSM   H13S14179  -0.437   1.926   3.449  1.1415  0.5242  1.9412
  132OSM   H13T14180  -0.604   1.918   3.486  0.7661 -1.2875  1.2904
  132OSM   C14S14181  -0.512   2.068   3.608 -0.1105  0.2765 -0.7606
  132OSM   H14S14182  -0.581   2.152   3.629 -1.3155 -0.9870  0.5266
  132OSM   H14T14183  -0.414   2.120   3.598  1.3024 -2.2621 -1.1876
  132OSM   C15S14184  -0.497   1.980   3.737 -0.8897  0.5098  0.3300
  132OSM   H15S14185  -0.410   1.912   3.745 -0.7225  0.9165  2.6398
  132OSM   H15T14186  -0.594   1.926   3.743 -2.1488  2.7188  1.0362
  132OSM   C16S14187  -0.508   2.063   3.867 -0.5280  0.0811 -0.2061
  132OSM   H16S14188  -0.495   2.004   3.961  2.1755  0.7040 -0.0919
  132OSM   H16T14189  -0.614   2.095   3.877 -1.3890 -2.3094 -0.8957
  132OSM   C17S14190  -0.414   2.182   3.875 -0.1103 -0.4076  0.0824
  132OSM   H17S14191  -0.449   2.260   3.804  1.6973 -0.4404 -0.9001
  132OSM   H17T14192  -0.316   2.151   3.835 -0.4855 -1.2940 -0.1717
  132OSM   C18S14193  -0.385   2.229   4.018  0.2104 -0.2166  0.9214
  132OSM   H18S14194  -0.364   2.337   4.032  1.4487 -0.3938  0.4962
  132OSM   H18T14195  -0.299   2.173   4.061  0.4286 -2.0875 -1.6819
  132OSM   H18U14196  -0.474   2.217   4.084 -0.4585  0.6301  0.1958
  132OSM    C1F14197  -0.309   1.771   2.922 -0.6803  0.5941 -0.2767
  132OSM     OF14198  -0.202   1.811   2.873 -0.0843 -0.0720  0.1536
  132OSM    C2F14199  -0.320   1.742   3.069 -0.1460  0.9766  0.3768
  132OSM    H2F14200  -0.321   1.841   3.120 -1.0935  0.9293  0.4734
  132OSM    H2G14201  -0.229   1.686   3.099 -0.7671  0.6240  1.6478
  132OSM    C3F14202  -0.452   1.679   3.119 -0.3983  0.0532  0.3286
  132OSM    H3F14203  -0.460   1.580   3.070  0.6447 -0.2020  0.6574
  132OSM    H3G14204  -0.540   1.743   3.095 -0.8259 -1.1107 -1.4262
  132OSM    C4F14205  -0.464   1.660   3.275  0.3160 -0.1558 -0.7738
  132OSM    H4F14206  -0.540   1.582   3.293  0.9841 -0.8665 -0.9667
  132OSM    H4G14207  -0.499   1.753   3.326  2.4501  0.8902 -1.0647
  132OSM    C5F14208  -0.339   1.605   3.344  0.4466 -0.1749 -0.1115
  132OSM    H5F14209  -0.264   1.688   3.337 -2.3533  2.5587  0.2341
  132OSM    H5G14210  -0.298   1.519   3.286  1.3306  0.4203 -0.4004
  132OSM    C6F14211  -0.356   1.556   3.483  0.3703  0.3161 -0.1655
  132OSM    H6F14212  -0.269   1.503   3.526 -0.0608 -0.5571 -0.3460
  132OSM    H6G14213  -0.444   1.488   3.486  0.3764  0.2102 -1.6218
  132OSM    C7F14214  -0.369   1.666   3.587 -0.3519 -0.3869  0.0068
  132OSM    H7F14215  -0.446   1.741   3.561  0.7883  0.7061 -0.3055
  132OSM    H7G14216  -0.275   1.721   3.609  1.0327 -1.0814 -3.5617
  132OSM    C8F14217  -0.427   1.615   3.724 -0.2384 -0.3338 -0.4256
  132OSM    H8F14218  -0.519   1.552   3.729 -2.4794  2.7564  1.1899
  132OSM    H8G14219  -0.455   1.705   3.783  0.5942 -1.2589  1.4645
  132OSM    C9F14220  -0.324   1.541   3.809  0.5129 -0.4412  0.5509
  132OSM    H9F14221  -0.277   1.451   3.766 -1.0903 -0.6216 -0.9111
  132OSM   C10F14222  -0.275   1.585   3.925 -0.0905  0.0836 -0.5347
  132OSM   H10F14223  -0.194   1.530   3.977 -0.6388 -1.7462 -1.5635
  132OSM   C11F14224  -0.315   1.719   3.992 -0.2456  0.0168  0.1388
  132OSM   H11F14225  -0.408   1.714   4.053 -0.9004  0.4928 -0.7908
  132OSM   H11G14226  -0.350   1.801   3.927  0.5046  0.6815  0.5647
  132OSM   C12F14227  -0.199   1.779   4.081 -0.7680  0.1781 -0.2716
  132OSM   H12F14228  -0.170   1.695   4.148  1.5684 -0.2131 -1.6296
  132OSM   H12G14229  -0.235   1.858   4.150 -1.9770  0.1356 -0.8325
  132OSM   C13F14230  -0.082   1.821   3.995 -0.3574  0.1072 -0.2534
  132OSM   H13F14231  -0.044   1.729   3.945  0.8618  1.0633 -1.1430
  132OSM   H13G14232   0.004   1.852   4.058  0.9853  0.0960 -2.0116
  132OSM   C14F14233  -0.108   1.934   3.894  0.3493 -0.0974 -0.1463
  132OSM   H14F14234  -0.120   2.029   3.950  1.5677  0.0786 -0.1567
  132OSM   H14G14235  -0.202   1.915   3.838 -1.4202  3.3003  1.3962
  132OSM   C15F14236  -0.016   1.933   3.771 -0.1938  0.1765 -0.8366
  132OSM   H15F14237   0.022   1.831   3.751  1.1101  0.3212  0.7017
  132OSM   H15G14238   0.070   1.997   3.802 -0.0146 -1.0739  1.4105
  132OSM   C16F14239  -0.090   1.984   3.644  0.4230 -0.2716 -0.3274
  132OSM   H16F14240  -0.135   2.083   3.665  1.1374 -0.2808  1.4181
  132OSM   H16G14241  -0.177   1.917   3.624  0.1439 -0.5166  1.4522
  132OSM   C17F14242   0.005   1.998   3.520 -1.2746 -0.2965  0.1889
  132OSM   H17F14243   0.058   1.902   3.508  1.4553  0.9055  1.6827
  132OSM   H17G14244   0.087   2.063   3.560 -1.2182 -0.7020  0.7416
  132OSM   C18F14245  -0.061   2.036   3.389 -0.1134 -0.3641  0.3247
  132OSM   H18F14246   0.009   2.035   3.303 -1.3926  3.0306 -0.9787
  132OSM   H18G14247  -0.114   2.133   3.401  1.2173  0.2189  1.9293
  132OSM   H18H14248  -0.136   1.957   3.367  0.1486 -0.4055 -0.4491
  133OSM      N14249   5.496   5.871   1.922  0.5914 -0.5759  0.9150
  133OSM    C1514250   5.407   5.874   1.798  0.2641  0.1120  0.7264
  133OSM   H15A14251   5.349   5.783   1.791  0.5808  0.0500 -2.0156
  133OSM   H15B14252   5.477   5.882   1.716 -0.5370 -1.2992 -0.1375
  133OSM   H15C14253   5.340   5.957   1.785 -1.1890 -1.1993 -0.7211
  133OSM    C1414254   5.582   5.753   1.920 -0.2895  0.1771 -0.2126
  133OSM   H14A14255   5.521   5.665   1.913  1.6372 -1.5970  2.8781
  133OSM   H14B14256   5.642   5.763   2.009  0.3790 -1.3754 -0.4540
  133OSM   H14C14257   5.647   5.747   1.833  1.1842 -0.8756  0.9011
  133OSM    C1314258   5.581   6.001   1.937  0.1138  0.7175  0.0582
  133OSM   H13A14259   5.663   6.001   1.866  1.0115 -2.2163  0.9461
  133OSM   H13B14260   5.629   5.999   2.034  1.0672 -0.1189 -0.4043
  133OSM   H13C14261   5.520   6.090   1.934  0.6366  1.0872  0.2622
  133OSM    C1214262   5.402   5.866   2.040  0.4461 -0.2750  0.0687
  133OSM   H12A14263   5.352   5.771   2.048  0.6867 -0.5609 -1.4050
  133OSM   H12B14264   5.335   5.950   2.033 -0.1498 -0.8611 -2.0433
  133OSM    C1114265   5.464   5.882   2.182  0.1103  0.2149 -0.0695
  133OSM   H11A14266   5.401   5.880   2.273  2.6310 -0.2208  1.7535
  133OSM   H11B14267   5.521   5.977   2.186  0.7176  0.0520 -2.7738
  133OSM      P14268   5.694   5.797   2.267 -0.3333  0.0474  0.3439
  133OSM    O1314269   5.735   5.672   2.328  0.5172  0.0082 -0.1403
  133OSM    O1414270   5.782   5.859   2.161 -0.4873  0.3671 -0.9512
  133OSM    O1114271   5.677   5.907   2.386 -0.3977 -0.2862  0.5582
  133OSM    O1214272   5.546   5.773   2.210  0.0622  0.2370 -0.3996
  133OSM    C1S14273   5.786   5.951   2.465 -0.5101  0.3109 -0.0239
  133OSM    H1S14274   5.829   6.040   2.414  1.7527 -1.1749 -0.8980
  133OSM    H1T14275   5.874   5.883   2.463 -0.5191  0.3050 -1.7326
  133OSM     NF14276   5.842   6.089   2.677  0.0457  0.5642 -0.0012
  133OSM    HNF14277   5.889   6.058   2.760 -0.0839  0.9123  0.2020
  133OSM    C2S14278   5.739   6.012   2.601 -0.2465 -0.0243 -0.9543
  133OSM    H2S14279   5.647   6.073   2.587 -0.1982 -0.0514 -1.3774
  133OSM    C3S14280   5.687   5.892   2.691  0.6579 -0.1181  0.1686
  133OSM    H3S14281   5.772   5.833   2.732  0.7983 -1.1929 -1.5727
  133OSM     O314282   5.606   5.801   2.613  0.0590  0.3651 -0.0220
  133OSM    HO314283   5.612   5.837   2.524  0.1309 -1.4198 -0.7815
  133OSM    C4S14284   5.627   5.941   2.820 -0.0655  0.3065  0.5021
  133OSM    H4S14285   5.687   5.948   2.911  0.9717 -1.5407  0.0310
  133OSM    C5S14286   5.497   5.960   2.834  0.3200  0.2606 -0.4458
  133OSM    H5S14287   5.433   5.941   2.747  1.1005  1.4088 -1.3120
  133OSM    C6S14288   5.430   6.005   2.961  0.0890 -0.0259 -0.6686
  133OSM    H6S14289   5.352   5.930   2.985 -0.5181  0.7370 -0.2469
  133OSM    H6T14290   5.379   6.103   2.953  2.7371  1.4740 -0.3202
  133OSM    C7S14291   5.506   6.032   3.092 -0.6421 -0.5758 -0.0981
  133OSM    H7S14292   5.584   6.104   3.059 -0.4476 -0.6396  0.2166
  133OSM    H7T14293   5.564   5.944   3.129 -0.1767 -0.6116 -0.8864
  133OSM    C8S14294   5.418   6.079   3.213 -0.6864  0.2252 -0.3363
  133OSM    H8S14295   5.356   5.997   3.254 -0.8056  1.1867  1.5381
  133OSM    H8T14296   5.340   6.148   3.175 -1.4037  0.5132  1.5248
  133OSM    C9S14297   5.502   6.123   3.328 -0.5413  0.3180  0.2566
  133OSM    H9S14298   5.567   6.208   3.298 -0.2943 -0.1073 -0.4563
  133OSM    H9T14299   5.571   6.039   3.350 -0.4951  0.6427  1.4175
  133OSM   C10S14300   5.423   6.167   3.453 -0.0450 -1.1343 -0.0720
  133OSM   H10S14301   5.365   6.077   3.485  3.3303 -2.7161  2.2414
  133OSM   H10T14302   5.369   6.263   3.439  0.0565 -0.8382  1.4088
  133OSM   C11S14303   5.531   6.184   3.564 -1.0020  0.2501  0.5616
  133OSM   H11S14304   5.608   6.260   3.540 -1.1420  0.7523  1.6493
  133OSM   H11T14305   5.591   6.092   3.582 -0.1111  0.8524  0.6880
  133OSM   C12S14306   5.467   6.217   3.696 -0.2034 -0.0895  0.3350
  133OSM   H12S14307   5.390   6.138   3.709  0.7089 -1.1448 -0.4345
  133OSM   H12T14308   5.407   6.310   3.684 -2.6385 -1.6097  0.0791
  133OSM   C13S14309   5.559   6.217   3.822 -0.0866 -0.3456  1.1018
  133OSM   H13S14310   5.629   6.299   3.795  0.2840 -0.4969  1.5919
  133OSM   H13T14311   5.620   6.124   3.814 -0.1873 -0.2445 -2.5316
  133OSM   C14S14312   5.495   6.265   3.952 -0.4878  0.2694  0.1787
  133OSM   H14S14313   5.393   6.221   3.959 -0.5539  0.3252 -0.4054
  133OSM   H14T14314   5.467   6.371   3.935  0.1157  0.5018  0.6149
  133OSM   C15S14315   5.567   6.243   4.081  0.2252 -0.5091 -0.6181
  133OSM   H15S14316   5.658   6.308   4.086 -0.1583  0.1497 -1.7067
  133OSM   H15T14317   5.599   6.137   4.087 -0.1974 -0.7063 -1.6713
  133OSM   C16S14318   5.481   6.269   4.206  0.7396 -0.1535 -0.2076
  133OSM   H16S14319   5.416   6.185   4.236  0.2042 -1.0322 -3.5200
  133OSM   H16T14320   5.423   6.364   4.200 -0.0971 -0.7071 -0.9450
  133OSM   C17S14321   5.564   6.293   4.336 -0.6560  0.0878  0.2988
  133OSM   H17S14322   5.623   6.200   4.347 -0.3189  0.4186  1.4515
  133OSM   H17T14323   5.495   6.303   4.423 -2.7215 -2.6028 -0.8884
  133OSM   C18S14324   5.662   6.412   4.341  0.6871 -0.1730 -0.1100
  133OSM   H18S14325   5.713   6.405   4.439  0.1253  1.5785  0.3372
  133OSM   H18T14326   5.614   6.511   4.328 -1.1123 -0.7009  1.9337
  133OSM   H18U14327   5.741   6.396   4.264  0.9874 -0.3159  0.2253
  133OSM    C1F14328   5.888   6.205   2.622 -0.3277  0.1732 -0.7574
  133OSM     OF14329   5.830   6.264   2.538  0.3767 -0.1741  0.6430
  133OSM    C2F14330   6.015   6.248   2.672 -0.8011  0.3077 -1.2044
  133OSM    H2F14331   6.064   6.317   2.600 -0.2514  0.0975 -1.0416
  133OSM    H2G14332   6.087   6.165   2.688  0.1212  1.1715 -0.7743
  133OSM    C3F14333   6.001   6.318   2.814 -0.6922  0.5363 -0.3166
  133OSM    H3F14334   5.941   6.246   2.873  0.0308  0.2181  0.0510
  133OSM    H3G14335   5.936   6.405   2.794  1.4156  2.1055 -0.7677
  133OSM    C4F14336   6.135   6.351   2.887 -0.0231 -0.7455  0.3049
  133OSM    H4F14337   6.195   6.419   2.823 -1.1278  0.7410  0.7940
  133OSM    H4G14338   6.192   6.256   2.878  0.2832 -0.4099 -2.0842
  133OSM    C5F14339   6.127   6.407   3.027 -0.0859  0.1481  0.5171
  133OSM    H5F14340   6.227   6.396   3.073 -0.7910 -1.2715  1.8344
  133OSM    H5G14341   6.057   6.354   3.096  1.2989 -2.0584  0.3502
  133OSM    C6F14342   6.102   6.560   3.025  0.0306 -0.4856  0.2113
  133OSM    H6F14343   6.033   6.585   2.941  1.3408 -0.7013 -0.9812
  133OSM    H6G14344   6.200   6.604   2.994  0.1089  0.8049  2.1232
  133OSM    C7F14345   6.048   6.627   3.154 -0.2056  0.5238  0.2043
  133OSM    H7F14346   6.134   6.628   3.224 -0.3342 -1.4867  0.4535
  133OSM    H7G14347   5.966   6.558   3.185 -3.0287  2.3980 -2.4511
  133OSM    C8F14348   5.979   6.762   3.131  0.6094  0.7343 -0.2330
  133OSM    H8F14349   5.911   6.792   3.213  0.3009 -0.7233  0.0689
  133OSM    H8G14350   5.927   6.755   3.033  1.2275  0.5899 -0.5569
  133OSM    C9F14351   6.086   6.866   3.124  0.6176  0.5344  0.0753
  133OSM    H9F14352   6.123   6.881   3.022 -0.3876 -0.4519 -0.4535
  133OSM   C10F14353   6.124   6.948   3.223  0.4525 -0.2766 -1.0062
  133OSM   H10F14354   6.211   7.013   3.204 -0.2331  0.5880 -1.2879
  133OSM   C11F14355   6.080   6.950   3.372  0.6196  0.5745 -0.0153
  133OSM   H11F14356   5.975   6.914   3.378  0.6033  0.4209 -1.0400
  133OSM   H11G14357   6.080   7.055   3.409  0.6546  0.7532 -0.5112
  133OSM   C12F14358   6.174   6.863   3.454 -0.0954  0.6430  0.6358
  133OSM   H12F14359   6.281   6.875   3.425 -0.3098 -1.4735 -1.3820
  133OSM   H12G14360   6.167   6.758   3.418  0.8782  0.6349  0.4339
  133OSM   C13F14361   6.140   6.879   3.601 -0.2945  0.1805 -0.1833
  133OSM   H13F14362   6.032   6.858   3.617 -0.3590  0.6499 -0.0007
  133OSM   H13G14363   6.147   6.988   3.621  0.2288  0.2992 -0.9741
  133OSM   C14F14364   6.217   6.786   3.699  0.5356 -0.5225  0.1361
  133OSM   H14F14365   6.327   6.804   3.699  0.5989 -0.8606  0.9551
  133OSM   H14G14366   6.199   6.680   3.671 -3.0631  0.3718 -1.4465
  133OSM   C15F14367   6.169   6.795   3.845 -0.1985 -0.2047  0.3897
  133OSM   H15F14368   6.226   6.714   3.895 -0.9758  0.7264  2.9640
  133OSM   H15G14369   6.062   6.766   3.847 -0.4043  0.1886 -2.0873
  133OSM   C16F14370   6.194   6.936   3.904 -0.1593  0.2923  0.3827
  133OSM   H16F14371   6.110   7.000   3.870 -0.5356 -1.8313 -3.1675
  133OSM   H16G14372   6.278   6.971   3.842 -0.5447  0.9668  0.2368
  133OSM   C17F14373   6.237   6.946   4.048  0.6953  0.5090  0.2858
  133OSM   H17F14374   6.296   6.855   4.072 -2.8871 -1.7224  1.4183
  133OSM   H17G14375   6.139   6.932   4.097  0.2262 -1.9859 -1.2058
  133OSM   C18F14376   6.315   7.071   4.093 -0.0636 -0.3997  0.0180
  133OSM   H18F14377   6.419   7.077   4.056 -0.4871  1.0116 -0.9795
  133OSM   H18G14378   6.314   7.078   4.204  0.3180 -1.1002  0.0759
  133OSM   H18H14379   6.268   7.156   4.040 -0.7150 -1.2315 -0.7563
  134OSM      N14380   5.284   5.575   2.435 -0.0190 -0.4670 -0.3800
  134OSM    C1514381   5.326   5.574   2.293  0.3578 -0.2429  0.1103
  134OSM   H15A14382   5.286   5.664   2.248  2.0243  0.3863 -0.1861
  134OSM   H15B14383   5.282   5.489   2.243 -0.9683 -0.4661  1.5620
  134OSM   H15C14384   5.432   5.569   2.269 -0.1573 -0.9680 -2.2950
  134OSM    C1414385   5.330   5.702   2.498  0.2875  0.3320 -0.6421
  134OSM   H14A14386   5.438   5.699   2.494  0.3059 -1.2985  0.2447
  134OSM   H14B14387   5.292   5.722   2.597  0.5607 -1.3594 -0.1594
  134OSM   H14C14388   5.305   5.789   2.440 -1.4570 -1.0613 -2.1179
  134OSM    C1314389   5.139   5.567   2.434  0.4232 -0.2483  0.5594
  134OSM   H13A14390   5.101   5.571   2.534  2.9325  0.5703  1.5647
  134OSM   H13B14391   5.110   5.473   2.388  1.2145  0.2807 -1.1318
  134OSM   H13C14392   5.089   5.636   2.368 -2.2090 -1.2066  1.4246
  134OSM    C1214393   5.339   5.445   2.495 -0.0898 -0.0290  0.2735
  134OSM   H12A14394   5.354   5.464   2.600  2.6442  1.6832 -0.3181
  134OSM   H12B14395   5.431   5.426   2.441 -0.8589  0.9614 -1.4791
  134OSM    C1114396   5.251   5.315   2.498  0.8548  0.0279  0.6722
  134OSM   H11A14397   5.169   5.321   2.572  0.0675  1.2504 -0.2629
  134OSM   H11B14398   5.312   5.231   2.539  0.7089 -0.5345 -0.2230
  134OSM      P14399   5.190   5.131   2.312  0.0587  0.1912  0.2363
  134OSM    O1314400   5.113   5.133   2.182 -0.2022 -0.6356  0.0249
  134OSM    O1414401   5.316   5.054   2.309 -0.1661  0.0526 -0.4807
  134OSM    O1114402   5.097   5.074   2.432 -0.4399  0.8763 -0.3250
  134OSM    O1214403   5.206   5.281   2.362  0.2352 -0.5999  0.1364
  134OSM    C1S14404   5.141   4.957   2.518 -0.4784 -0.5655 -0.1510
  134OSM    H1S14405   5.198   5.006   2.601  0.7860 -1.1025 -0.6680
  134OSM    H1T14406   5.220   4.894   2.471 -0.2906 -0.1565 -0.3939
  134OSM     NF14407   5.070   4.756   2.657  0.4808  0.4765  0.1343
  134OSM    HNF14408   5.078   4.667   2.612  0.4189 -0.3545  1.6979
  134OSM    C2S14409   5.023   4.872   2.575  1.0164  0.4638 -0.0419
  134OSM    H2S14410   4.967   4.941   2.641 -1.9477 -0.5512 -1.3279
  134OSM    C3S14411   4.911   4.833   2.471 -0.4272 -0.4875  1.0307
  134OSM    H3S14412   4.961   4.793   2.381 -0.4575 -0.6769  1.0976
  134OSM     O314413   4.859   4.944   2.403 -0.9636 -0.0176 -0.0263
  134OSM    HO314414   4.920   5.016   2.419  0.7228 -1.1866 -0.9626
  134OSM    C4S14415   4.800   4.747   2.527 -0.2991 -0.2825 -0.3209
  134OSM    H4S14416   4.809   4.640   2.503  0.7204 -0.3105  0.1687
  134OSM    C5S14417   4.682   4.788   2.572  0.6477  0.3915  0.5803
  134OSM    H5S14418   4.639   4.889   2.564  2.2567  1.0051 -4.5669
  134OSM    C6S14419   4.573   4.689   2.614 -0.5209  0.7172  0.4878
  134OSM    H6S14420   4.598   4.582   2.606 -0.1268  0.7216  1.6031
  134OSM    H6T14421   4.484   4.694   2.547 -0.0787  0.9956 -0.0924
  134OSM    C7S14422   4.523   4.733   2.754  0.4404 -0.8717  0.4585
  134OSM    H7S14423   4.438   4.665   2.776  1.2048 -2.0016 -0.0186
  134OSM    H7T14424   4.484   4.837   2.759  1.7111 -0.4089  1.3830
  134OSM    C8S14425   4.626   4.723   2.873  0.8219 -0.2677  0.6040
  134OSM    H8S14426   4.615   4.810   2.941 -2.1930 -1.1611  1.4071
  134OSM    H8T14427   4.723   4.733   2.819  1.8775 -0.2930  2.4296
  134OSM    C9S14428   4.609   4.594   2.953  0.4280  0.0600  0.0044
  134OSM    H9S14429   4.603   4.509   2.881 -5.2008 -1.7183  2.0005
  134OSM    H9T14430   4.510   4.601   3.004  1.0176  0.5391  1.1133
  134OSM   C10S14431   4.716   4.576   3.056 -0.0464 -0.0398 -0.8847
  134OSM   H10S14432   4.731   4.671   3.111 -1.0955 -0.9579  1.0605
  134OSM   H10T14433   4.811   4.550   3.004  0.1799 -1.5934  0.2522
  134OSM   C11S14434   4.690   4.468   3.157  0.4461  0.3907 -0.3110
  134OSM   H11S14435   4.712   4.371   3.109 -1.2861  0.3824 -1.2036
  134OSM   H11T14436   4.581   4.461   3.179  0.0678 -1.3617 -2.3922
  134OSM   C12S14437   4.778   4.484   3.288  0.4395  0.5350 -0.2641
  134OSM   H12S14438   4.774   4.588   3.329  2.1350  0.4368  0.2560
  134OSM   H12T14439   4.886   4.464   3.268  1.1489  2.6673  1.0245
  134OSM   C13S14440   4.727   4.406   3.418  0.3709  0.2021  0.2252
  134OSM   H13S14441   4.678   4.309   3.397 -1.7413  1.2173  0.2792
  134OSM   H13T14442   4.641   4.464   3.458 -0.2321 -1.1261  0.8882
  134OSM   C14S14443   4.831   4.396   3.530 -0.1424  0.0410 -0.0399
  134OSM   H14S14444   4.907   4.326   3.488 -0.5254 -0.4502  0.0751
  134OSM   H14T14445   4.776   4.340   3.609  0.1068  1.6579  1.3366
  134OSM   C15S14446   4.874   4.529   3.596  0.8248 -0.3489  0.1160
  134OSM   H15S14447   4.787   4.577   3.646  0.4003 -2.2318  1.3206
  134OSM   H15T14448   4.917   4.585   3.511  2.9952 -0.0317  1.3352
  134OSM   C16S14449   4.982   4.516   3.706  0.2165 -0.6203 -0.1403
  134OSM   H16S14450   5.007   4.616   3.746  1.4996 -1.5701  1.5788
  134OSM   H16T14451   5.072   4.465   3.665  0.8122  0.3428 -0.0562
  134OSM   C17S14452   4.929   4.432   3.822 -0.0054  0.0739 -0.1612
  134OSM   H17S14453   4.904   4.338   3.769  0.8309 -0.9348  1.1837
  134OSM   H17T14454   4.835   4.474   3.866  0.4454  0.0805  0.8105
  134OSM   C18S14455   5.033   4.406   3.932 -0.0969  0.1042  0.7701
  134OSM   H18S14456   4.992   4.374   4.030  2.9319 -1.0204  1.7829
  134OSM   H18T14457   5.092   4.499   3.948 -1.1169  1.0180 -0.5634
  134OSM   H18U14458   5.093   4.316   3.904 -1.4575  0.1286 -2.7101
  134OSM    C1F14459   5.119   4.771   2.776  0.3491  0.8210  0.8304
  134OSM     OF14460   5.106   4.881   2.826 -0.2759  0.3927 -0.1080
  134OSM    C2F14461   5.187   4.654   2.837 -0.2018  0.2945  0.6167
  134OSM    H2F14462   5.249   4.613   2.755 -2.3559  1.3560 -1.6888
  134OSM    H2G14463   5.106   4.582   2.857 -1.4403  2.0008  2.0656
  134OSM    C3F14464   5.261   4.700   2.967  0.2644 -0.8220  0.0616
  134OSM    H3F14465   5.187   4.759   3.024  0.2150 -2.0541  1.3241
  134OSM    H3G14466   5.344   4.760   2.924 -0.6667  1.1404  0.8885
  134OSM    C4F14467   5.300   4.590   3.064 -0.5572  0.2122  0.0724
  134OSM    H4F14468   5.379   4.523   3.023 -0.7862  0.4159 -0.7240
  134OSM    H4G14469   5.208   4.541   3.101 -1.5139  2.2008  0.4572
  134OSM    C5F14470   5.365   4.648   3.187 -0.2954  0.8400 -0.1232
  134OSM    H5F14471   5.309   4.735   3.227 -2.7085 -0.7881  0.2597
  134OSM    H5G14472   5.466   4.679   3.152  1.4344 -2.3814  1.5967
  134OSM    C6F14473   5.399   4.554   3.312 -0.7382 -0.5258 -0.3079
  134OSM    H6F14474   5.490   4.595   3.362 -1.1010  0.6878 -0.6150
  134OSM    H6G14475   5.424   4.451   3.280  0.8112 -0.6501  1.1645
  134OSM    C7F14476   5.290   4.532   3.424 -0.4936 -0.7780  0.1452
  134OSM    H7F14477   5.347   4.464   3.492  0.0559 -0.9717 -0.4946
  134OSM    H7G14478   5.203   4.478   3.381 -1.0266  0.4710 -0.3808
  134OSM    C8F14479   5.238   4.663   3.489  0.3293 -0.3634 -0.2214
  134OSM    H8F14480   5.157   4.629   3.557  0.1705  0.6561  0.1179
  134OSM    H8G14481   5.184   4.730   3.418 -1.6605 -0.9486  0.6575
  134OSM    C9F14482   5.356   4.736   3.549  0.3563 -0.6104  0.3231
  134OSM    H9F14483   5.453   4.741   3.497  1.3435 -0.1351  2.0949
  134OSM   C10F14484   5.366   4.775   3.675 -0.0463 -0.1238  0.4407
  134OSM   H10F14485   5.449   4.841   3.704 -0.7021  1.9100 -1.8852
  134OSM   C11F14486   5.262   4.771   3.780 -0.4949 -0.5872 -0.6965
  134OSM   H11F14487   5.212   4.672   3.784  0.8106 -1.2336  0.5697
  134OSM   H11G14488   5.185   4.849   3.757 -0.6695 -0.6705 -0.4071
  134OSM   C12F14489   5.323   4.823   3.911 -0.0626 -0.1871 -0.7010
  134OSM   H12F14490   5.386   4.913   3.897 -1.3470  0.4297 -3.2445
  134OSM   H12G14491   5.382   4.745   3.963 -0.4735  1.1215  1.8679
  134OSM   C13F14492   5.208   4.866   4.007 -0.8469 -0.6061  0.5318
  134OSM   H13F14493   5.142   4.777   4.009  1.2601 -2.2851 -0.6829
  134OSM   H13G14494   5.150   4.952   3.964 -0.9820 -0.2582  1.3879
  134OSM   C14F14495   5.276   4.912   4.131 -0.1713 -0.3179 -0.2539
  134OSM   H14F14496   5.324   5.012   4.130  0.6754 -0.6334  1.8731
  134OSM   H14G14497   5.344   4.830   4.164 -1.0514 -1.1986 -0.5661
  134OSM   C15F14498   5.174   4.927   4.241  1.2084 -0.2292  0.0820
  134OSM   H15F14499   5.115   4.833   4.246  0.8736 -0.0953 -1.1250
  134OSM   H15G14500   5.105   5.010   4.212  0.5160 -0.6609  0.4656
  134OSM   C16F14501   5.231   4.939   4.385 -0.0874 -0.0859  0.3334
  134OSM   H16F14502   5.279   5.038   4.400  3.0237 -1.1087 -1.8475
  134OSM   H16G14503   5.317   4.869   4.394  0.1668  0.4663  3.2083
  134OSM   C17F14504   5.127   4.900   4.492 -0.1096 -0.0458 -0.4150
  134OSM   H17F14505   5.178   4.909   4.590  0.1170  1.3133 -0.6304
  134OSM   H17G14506   5.090   4.796   4.480  1.8499 -0.7956 -0.2163
  134OSM   C18F14507   4.998   4.993   4.486 -1.2465  0.2855 -0.6887
  134OSM   H18F14508   4.941   4.964   4.395 -2.1497 -3.3876  0.8375
  134OSM   H18G14509   5.036   5.097   4.491 -1.6599  0.3799  2.0700
  134OSM   H18H14510   4.930   4.978   4.573 -0.6325  0.2314 -0.2081
  135OSM      N14511   6.730   2.614   1.933  0.5771  0.3412 -0.1750
  135OSM    C1514512   6.582   2.639   1.924 -0.4533 -0.6668 -0.6014
  135OSM   H15A14513   6.572   2.740   1.888  2.2794  0.4124  1.3037
  135OSM   H15B14514   6.531   2.635   2.019  0.5837 -0.4515 -0.0228
  135OSM   H15C14515   6.531   2.572   1.856  0.2915  2.0374 -4.1104
  135OSM    C1414516   6.741   2.487   2.011  0.2090  0.0281 -0.2675
  135OSM   H14A14517   6.719   2.498   2.116  1.4794 -0.3343  0.0534
  135OSM   H14B14518   6.842   2.450   2.004 -0.4215 -1.5825 -2.1034
  135OSM   H14C14519   6.670   2.410   1.981 -2.5461  2.6229 -0.8970
  135OSM    C1314520   6.784   2.593   1.802  0.0835  0.2715  0.4926
  135OSM   H13A14521   6.738   2.509   1.753 -0.8971  2.1831 -2.1044
  135OSM   H13B14522   6.891   2.581   1.801  0.1267  0.4369 -1.4401
  135OSM   H13C14523   6.772   2.678   1.736  1.2945 -0.3355 -0.5437
  135OSM    C1214524   6.802   2.728   2.014  0.7676 -0.1103  0.3574
  135OSM   H12A14525   6.903   2.690   2.012  1.0342  0.5793  0.3504
  135OSM   H12B14526   6.763   2.744   2.113  2.7399 -0.1053  1.1882
  135OSM    C1114527   6.811   2.867   1.943  0.0300  0.2967 -0.0949
  135OSM   H11A14528   6.874   2.859   1.852  1.1727 -2.2499  0.8193
  135OSM   H11B14529   6.872   2.935   2.007 -3.2358 -1.0258  4.9630
  135OSM      P14530   6.609   3.018   2.022 -0.5075 -0.6529  0.3788
  135OSM    O1314531   6.637   3.163   2.009 -0.3623  0.0876 -1.2473
  135OSM    O1414532   6.463   2.991   2.019 -0.2647 -0.3688  0.4213
  135OSM    O1114533   6.667   2.971   2.163  0.1662 -0.4235 -0.0581
  135OSM    O1214534   6.686   2.928   1.916  0.1220  0.8030  0.3780
  135OSM    C1S14535   6.603   3.023   2.284  0.6194  0.8153  1.0746
  135OSM    H1S14536   6.492   3.018   2.285  0.5265  0.9558 -1.6283
  135OSM    H1T14537   6.623   3.132   2.290 -4.3238  1.8975  1.9776
  135OSM     NF14538   6.563   3.018   2.535 -0.5198  0.4478 -0.5865
  135OSM    HNF14539   6.602   3.084   2.599 -1.2136  1.0272 -0.7546
  135OSM    C2S14540   6.653   2.972   2.424 -0.8269 -0.0478 -0.3751
  135OSM    H2S14541   6.641   2.862   2.422  1.3483 -0.3206 -0.3044
  135OSM    C3S14542   6.811   3.005   2.432  0.2793  0.3021 -0.2036
  135OSM    H3S14543   6.832   3.114   2.426  1.6819 -0.0206 -1.9989
  135OSM     O314544   6.888   2.960   2.318  0.3276  0.5418 -0.4252
  135OSM    HO314545   6.818   2.947   2.254 -0.2286  1.1002  0.0537
  135OSM    C4S14546   6.870   2.940   2.562  0.3429 -0.2877 -0.3194
  135OSM    H4S14547   6.870   3.011   2.646  1.0497  0.0623 -0.6038
  135OSM    C5S14548   6.924   2.817   2.581  0.0423  0.1111 -0.3286
  135OSM    H5S14549   6.954   2.767   2.488 -2.4980  2.1403 -2.3961
  135OSM    C6S14550   6.989   2.775   2.704  0.1833 -0.1476  0.6506
  135OSM    H6S14551   7.092   2.744   2.674 -0.1424 -1.2920  0.6620
  135OSM    H6T14552   6.949   2.678   2.739 -0.3217  0.7869  2.8388
  135OSM    C7S14553   7.014   2.875   2.816  0.4031 -0.1202 -0.4977
  135OSM    H7S14554   6.916   2.916   2.847  1.3436  0.6153  1.7180
  135OSM    H7T14555   7.077   2.961   2.785 -0.2461  1.0074  1.1743
  135OSM    C8S14556   7.081   2.816   2.941  0.5194  0.2899 -0.2863
  135OSM    H8S14557   7.186   2.790   2.917 -0.1021 -1.7844 -0.9780
  135OSM    H8T14558   7.023   2.731   2.982 -0.2521  1.7388  1.7561
  135OSM    C9S14559   7.081   2.922   3.044 -0.6385  0.1662  0.1845
  135OSM    H9S14560   6.979   2.940   3.083  0.2516  0.9362  2.3183
  135OSM    H9T14561   7.128   3.019   3.015 -1.0301  1.1980  2.7236
  135OSM   C10S14562   7.168   2.877   3.166 -0.9143 -0.3893  1.0718
  135OSM   H10S14563   7.272   2.879   3.128 -0.9903 -1.7419  0.7535
  135OSM   H10T14564   7.137   2.772   3.186  0.0225 -1.1026 -0.9467
  135OSM   C11S14565   7.156   2.973   3.284  1.1293 -0.3169  0.0890
  135OSM   H11S14566   7.052   2.964   3.322  1.3818 -0.0168  0.8746
  135OSM   H11T14567   7.170   3.078   3.251 -0.7345  0.2576  1.0030
  135OSM   C12S14568   7.251   2.955   3.399  0.1866  0.6137 -0.2755
  135OSM   H12S14569   7.219   3.019   3.484 -0.9689 -0.8258  0.4365
  135OSM   H12T14570   7.346   3.002   3.366 -0.8014  2.4284 -0.6776
  135OSM   C13S14571   7.271   2.808   3.451  0.3472 -0.4647  0.4200
  135OSM   H13S14572   7.320   2.756   3.366  1.7567  0.2482  0.7499
  135OSM   H13T14573   7.168   2.768   3.458  1.0074 -2.0279  2.0822
  135OSM   C14S14574   7.351   2.799   3.583 -0.3739  0.4735 -0.3097
  135OSM   H14S14575   7.305   2.866   3.659  1.9436  1.7818  0.0286
  135OSM   H14T14576   7.458   2.828   3.574  0.0312 -0.4458  1.1669
  135OSM   C15S14577   7.342   2.662   3.659  0.2953 -0.0474  0.8020
  135OSM   H15S14578   7.389   2.582   3.599 -0.4041  0.2053 -0.1004
  135OSM   H15T14579   7.236   2.633   3.666  0.3237 -0.6195 -0.7799
  135OSM   C16S14580   7.398   2.672   3.800 -0.2366  0.5472 -0.3205
  135OSM   H16S14581   7.345   2.751   3.858 -0.6703 -0.4060  0.6220
  135OSM   H16T14582   7.505   2.699   3.794 -0.2926  0.7097 -0.5952
  135OSM   C17S14583   7.388   2.541   3.884  0.8797 -0.3357 -0.1502
  135OSM   H17S14584   7.416   2.462   3.812 -0.4903 -1.0000  0.0162
  135OSM   H17T14585   7.279   2.536   3.907  0.6937  1.9733 -0.3388
  135OSM   C18S14586   7.470   2.533   4.006 -0.3171  0.2521 -0.1690
  135OSM   H18S14587   7.569   2.583   3.996 -0.7367  0.9801 -0.6782
  135OSM   H18T14588   7.482   2.430   4.048 -2.1746  0.3708  0.7568
  135OSM   H18U14589   7.431   2.593   4.091 -0.1425 -2.0737  1.6605
  135OSM    C1F14590   6.439   2.966   2.552  0.0634 -0.5969 -0.0672
  135OSM     OF14591   6.393   2.882   2.479  1.2058 -0.0401 -0.3401
  135OSM    C2F14592   6.367   2.992   2.682  0.1285  0.4732  0.4301
  135OSM    H2F14593   6.414   3.082   2.726  0.3259 -0.2023  1.6530
  135OSM    H2G14594   6.376   2.901   2.746  0.7692 -0.1876 -0.5859
  135OSM    C3F14595   6.215   3.015   2.650  0.4986 -0.5222 -0.0984
  135OSM    H3F14596   6.190   2.971   2.551  0.9674  1.3639 -1.0950
  135OSM    H3G14597   6.209   3.125   2.637  0.3473 -0.1353  2.7159
  135OSM    C4F14598   6.119   2.948   2.747 -0.0003 -0.5126  0.1248
  135OSM    H4F14599   6.114   2.840   2.720  0.0329  0.2517 -3.4129
  135OSM    H4G14600   6.017   2.987   2.729 -0.1092 -1.0768 -0.5271
  135OSM    C5F14601   6.161   2.967   2.887 -0.5489 -0.2128 -0.4193
  135OSM    H5F14602   6.183   3.073   2.913  3.7864 -0.9834 -0.2559
  135OSM    H5G14603   6.253   2.906   2.900  0.3983  1.1315 -0.5754
  135OSM    C6F14604   6.053   2.919   2.991  0.0721  0.3366  0.5044
  135OSM    H6F14605   6.004   2.834   2.938  2.0247 -0.5309  0.0198
  135OSM    H6G14606   5.983   3.005   3.006  0.6173  1.1081 -1.0995
  135OSM    C7F14607   6.103   2.875   3.124 -0.4807  0.7277 -0.5134
  135OSM    H7F14608   6.028   2.886   3.206  0.0841  0.6904  0.0213
  135OSM    H7G14609   6.184   2.943   3.158  0.6744  0.0149 -1.7615
  135OSM    C8F14610   6.162   2.727   3.113  0.0347  0.4890 -0.3936
  135OSM    H8F14611   6.211   2.707   3.211 -2.2443  0.5423  0.8229
  135OSM    H8G14612   6.252   2.713   3.050  0.1431  2.1468 -0.6294
  135OSM    C9F14613   6.052   2.630   3.092 -0.5879  0.4165 -0.4310
  135OSM    H9F14614   6.025   2.618   2.986 -1.7904 -1.7057  0.0584
  135OSM   C10F14615   5.975   2.579   3.184  0.2589  0.1310 -0.3139
  135OSM   H10F14616   5.901   2.503   3.158  0.1554  0.5241 -1.2197
  135OSM   C11F14617   5.984   2.593   3.332  0.1407 -0.1109  0.0191
  135OSM   H11F14618   6.058   2.673   3.355  0.0633 -0.6963  2.6599
  135OSM   H11G14619   6.014   2.494   3.371 -0.7889 -0.0389  0.9763
  135OSM   C12F14620   5.854   2.638   3.390 -0.2052  0.7275  0.3188
  135OSM   H12F14621   5.786   2.558   3.351  0.1706 -0.2660  1.5996
  135OSM   H12G14622   5.827   2.733   3.340  0.0258 -0.4571 -2.2461
  135OSM   C13F14623   5.863   2.649   3.542  0.1538  0.2766  0.0175
  135OSM   H13F14624   5.781   2.714   3.579  1.0982  1.0174  0.8835
  135OSM   H13G14625   5.961   2.698   3.563 -0.5850  1.3392  1.1019
  135OSM   C14F14626   5.858   2.518   3.626  0.4561 -0.4672 -0.4192
  135OSM   H14F14627   5.944   2.456   3.591  1.3582  0.2463  0.4607
  135OSM   H14G14628   5.763   2.463   3.609 -0.6851  0.8340  1.4754
  135OSM   C15F14629   5.858   2.545   3.779 -0.6170  0.8717  0.0484
  135OSM   H15F14630   5.772   2.607   3.812 -0.9825  0.0855  0.6151
  135OSM   H15G14631   5.946   2.612   3.794 -0.1810  0.6527 -1.4125
  135OSM   C16F14632   5.857   2.429   3.883 -0.0129  0.3203  0.0385
  135OSM   H16F14633   5.948   2.373   3.854 -1.0377 -0.0632 -2.6747
  135OSM   H16G14634   5.772   2.360   3.867 -1.1498  1.8306 -0.7322
  135OSM   C17F14635   5.858   2.471   4.027 -0.0641 -0.2286 -1.3532
  135OSM   H17F14636   5.816   2.385   4.083  0.1421 -0.6550 -1.8477
  135OSM   H17G14637   5.788   2.556   4.044 -1.9033 -1.7630 -0.8307
  135OSM   C18F14638   5.999   2.499   4.076  0.2268  0.0417  0.2051
  135OSM   H18F14639   6.015   2.528   4.181 -1.0575 -0.8123  0.6633
  135OSM   H18G14640   6.050   2.573   4.011  0.5224 -0.6405 -0.3676
  135OSM   H18H14641   6.065   2.410   4.063 -0.7673 -0.7208  0.2223
  136OSM      N14642   2.067   4.963   1.898 -0.0727 -0.1537  0.1806
  136OSM    C1514643   2.161   4.920   1.790 -0.6255 -0.7605 -0.0060
  136OSM   H15A14644   2.238   4.994   1.781 -0.8881 -0.4408  0.3190
  136OSM   H15B14645   2.112   4.912   1.694 -4.0005 -2.0477  1.6241
  136OSM   H15C14646   2.205   4.825   1.815  0.1163 -0.0499  1.5643
  136OSM    C1414647   2.005   5.087   1.842  0.4816 -0.4421  0.1372
  136OSM   H14A14648   2.077   5.165   1.824  2.2520 -1.5564  2.0528
  136OSM   H14B14649   1.929   5.129   1.907  0.7514  0.0903  0.1045
  136OSM   H14C14650   1.951   5.061   1.751  0.1842 -1.2280  0.5212
  136OSM    C1314651   1.973   4.846   1.914  0.1251 -0.0024  0.5217
  136OSM   H13A14652   1.905   4.827   1.833 -1.7413 -1.2076  2.2666
  136OSM   H13B14653   1.897   4.856   1.990 -0.9172 -2.5206 -0.0843
  136OSM   H13C14654   2.032   4.760   1.942  1.7011  0.2528 -1.7820
  136OSM    C1214655   2.147   4.998   2.022  0.3774  0.1368  0.1320
  136OSM   H12A14656   2.079   5.025   2.101 -0.2145 -1.2576  0.1190
  136OSM   H12B14657   2.211   5.082   1.997  0.6716  0.1503  0.9024
  136OSM    C1114658   2.244   4.887   2.075 -0.3145 -0.1849 -0.0357
  136OSM   H11A14659   2.196   4.792   2.044 -2.5714  0.7603  0.3502
  136OSM   H11B14660   2.244   4.893   2.186 -2.9966  0.0127  0.0090
  136OSM      P14661   2.468   4.995   2.074  0.0983 -0.0219 -0.4538
  136OSM    O1314662   2.601   4.963   2.019  0.2682  0.0356  0.8401
  136OSM    O1414663   2.429   5.135   2.055  0.3415 -0.3206 -0.1224
  136OSM    O1114664   2.468   4.961   2.232  0.7631 -0.1315  0.4627
  136OSM    O1214665   2.370   4.889   2.004  0.0974 -0.0800 -0.1882
  136OSM    C1S14666   2.518   4.838   2.280 -1.1975 -0.0593 -0.2108
  136OSM    H1S14667   2.624   4.820   2.251 -1.1745 -2.6216  1.2578
  136OSM    H1T14668   2.459   4.747   2.256 -1.6107  0.1026  0.1661
  136OSM     NF14669   2.606   4.734   2.484 -0.1146  0.2900  0.2763
  136OSM    HNF14670   2.557   4.661   2.530  0.5904 -0.7676 -0.6140
  136OSM    C2S14671   2.535   4.852   2.440  0.2003  1.1276 -0.3882
  136OSM    H2S14672   2.598   4.940   2.464 -0.1664  1.5135 -0.8117
  136OSM    C3S14673   2.390   4.869   2.499 -0.5680  0.0009  0.4966
  136OSM    H3S14674   2.344   4.768   2.501  0.7230 -0.6152  0.4330
  136OSM     O314675   2.297   4.953   2.427 -0.3811  0.0025 -0.3206
  136OSM    HO314676   2.350   4.982   2.353  0.8027  0.6327  0.7201
  136OSM    C4S14677   2.390   4.902   2.652 -0.0715 -0.2250  0.9246
  136OSM    H4S14678   2.378   4.807   2.706 -1.1506  0.6563  2.3031
  136OSM    C5S14679   2.360   5.020   2.710 -0.0178  0.6892  0.3723
  136OSM    H5S14680   2.312   5.096   2.647 -0.7483 -0.9129 -1.0762
  136OSM    C6S14681   2.321   5.040   2.850 -0.1983  0.1350  0.4263
  136OSM    H6S14682   2.226   5.098   2.851 -1.4418 -1.8255  2.1620
  136OSM    H6T14683   2.392   5.103   2.908  0.2177  0.2362 -0.1801
  136OSM    C7S14684   2.280   4.922   2.943  0.3339  0.3712  0.3283
  136OSM    H7S14685   2.368   4.860   2.973 -0.1940  0.4168  2.1209
  136OSM    H7T14686   2.202   4.863   2.891 -0.0809  1.0821  0.1326
  136OSM    C8S14687   2.216   4.961   3.082  0.0001  0.1060 -0.2542
  136OSM    H8S14688   2.131   4.893   3.103 -0.7523  1.0964 -0.0211
  136OSM    H8T14689   2.183   5.066   3.064  2.3566  0.4720 -3.2142
  136OSM    C9S14690   2.321   4.949   3.194 -0.1359  0.2143 -0.2780
  136OSM    H9S14691   2.406   5.008   3.155 -2.3400  0.9072 -4.6335
  136OSM    H9T14692   2.354   4.843   3.205  2.0466  0.9961  1.1928
  136OSM   C10S14693   2.257   4.993   3.326  0.6592  0.0267  0.1709
  136OSM   H10S14694   2.157   4.947   3.344  0.3364  0.2413 -0.9587
  136OSM   H10T14695   2.237   5.099   3.299  2.7940  0.4319  0.0080
  136OSM   C11S14696   2.339   4.999   3.449 -0.1607  0.5298 -0.6954
  136OSM   H11S14697   2.414   5.082   3.446  1.4439 -0.7960  0.5924
  136OSM   H11T14698   2.409   4.913   3.448  0.4078  0.9381  0.8483
  136OSM   C12S14699   2.264   4.981   3.577  0.1197 -0.7510 -0.0646
  136OSM   H12S14700   2.193   4.897   3.558 -1.9829  0.7431  0.7916
  136OSM   H12T14701   2.200   5.065   3.611  3.0039  1.4918  0.2424
  136OSM   C13S14702   2.357   4.950   3.699  0.0940  0.1449 -0.2276
  136OSM   H13S14703   2.420   4.859   3.687  1.5515  0.8040  1.7585
  136OSM   H13T14704   2.285   4.924   3.780 -1.3852  0.0920 -1.5223
  136OSM   C14S14705   2.427   5.069   3.760  0.2773  0.1995  0.2974
  136OSM   H14S14706   2.353   5.144   3.795  0.0813 -0.4582  1.3484
  136OSM   H14T14707   2.490   5.109   3.678  1.1134 -1.4154  0.1031
  136OSM   C15S14708   2.521   5.044   3.879  0.0379 -1.0404  0.0622
  136OSM   H15S14709   2.537   5.144   3.926 -1.9570 -0.5197 -0.2764
  136OSM   H15T14710   2.617   5.000   3.847  0.2852 -1.6230  1.5227
  136OSM   C16S14711   2.470   4.963   3.996  0.6759 -0.5101  0.9262
  136OSM   H16S14712   2.544   4.980   4.077 -0.0956  0.5255  1.4251
  136OSM   H16T14713   2.459   4.860   3.954  1.0365  0.4051 -1.5622
  136OSM   C17S14714   2.338   5.014   4.058 -0.8638  0.1660  0.0091
  136OSM   H17S14715   2.303   4.943   4.136 -1.7082  0.9018  0.3188
  136OSM   H17T14716   2.255   5.027   3.985 -0.6587  1.9657  0.0346
  136OSM   C18S14717   2.346   5.148   4.134 -0.8875  0.0014 -0.5338
  136OSM   H18S14718   2.252   5.198   4.165 -1.0077  0.3946 -1.4913
  136OSM   H18T14719   2.405   5.222   4.075 -1.7868  1.8312  0.8014
  136OSM   H18U14720   2.400   5.139   4.231 -2.0473 -2.7885 -0.0453
  136OSM    C1F14721   2.735   4.725   2.474 -0.3008  0.7269 -0.4298
  136OSM     OF14722   2.804   4.829   2.457 -0.4902  0.7283 -0.7623
  136OSM    C2F14723   2.797   4.585   2.500 -0.3703  0.3129  0.1115
  136OSM    H2F14724   2.813   4.539   2.400 -0.4332  1.2925 -0.3611
  136OSM    H2G14725   2.715   4.530   2.551  0.1893  0.1117  0.7991
  136OSM    C3F14726   2.910   4.584   2.599  0.2402  0.1256 -0.0823
  136OSM    H3F14727   2.875   4.638   2.689  0.3660 -0.0090  0.0489
  136OSM    H3G14728   2.996   4.643   2.560  0.5816 -0.1059  0.3037
  136OSM    C4F14729   2.952   4.437   2.636 -0.6557  0.2451 -0.5955
  136OSM    H4F14730   2.936   4.385   2.540  2.1389  1.1977 -1.6626
  136OSM    H4G14731   2.881   4.392   2.708 -0.0419  1.6068  0.9334
  136OSM    C5F14732   3.097   4.415   2.686 -0.6392 -0.0800 -0.1191
  136OSM    H5F14733   3.164   4.498   2.656  1.0798 -1.4614 -0.3091
  136OSM    H5G14734   3.144   4.329   2.633  1.9279 -0.3939  2.3980
  136OSM    C6F14735   3.117   4.407   2.838 -0.2494 -0.7652 -0.8100
  136OSM    H6F14736   3.228   4.399   2.841 -0.2422 -0.6217 -0.7009
  136OSM    H6G14737   3.062   4.317   2.873  0.3656  0.5229  4.2152
  136OSM    C7F14738   3.065   4.531   2.910  0.2468  0.0404 -0.4195
  136OSM    H7F14739   2.961   4.540   2.871 -0.0426  0.7449  0.4974
  136OSM    H7G14740   3.123   4.622   2.884  1.3229 -0.6667 -0.5606
  136OSM    C8F14741   3.066   4.508   3.065 -0.4567  0.2643  0.9297
  136OSM    H8F14742   3.049   4.402   3.094  0.4714  0.3914  2.0139
  136OSM    H8G14743   2.982   4.570   3.104 -0.2827  1.0788  0.0487
  136OSM    C9F14744   3.199   4.534   3.124  0.3468  0.8089 -0.1417
  136OSM    H9F14745   3.275   4.555   3.047  0.7879  1.4936  0.4657
  136OSM   C10F14746   3.222   4.559   3.257  1.3164  0.2034 -0.3202
  136OSM   H10F14747   3.321   4.587   3.296  0.1971  2.0094  1.3939
  136OSM   C11F14748   3.130   4.541   3.373  0.1162  0.3276  0.1378
  136OSM   H11F14749   3.030   4.510   3.335  0.2912 -0.5071  0.3485
  136OSM   H11G14750   3.111   4.642   3.414 -2.4066  0.3957 -0.9960
  136OSM   C12F14751   3.175   4.457   3.490  0.1920 -0.3107 -0.6694
  136OSM   H12F14752   3.285   4.460   3.497  0.3474 -0.5138 -2.5082
  136OSM   H12G14753   3.143   4.351   3.476  0.3003 -0.9706  3.0308
  136OSM   C13F14754   3.125   4.517   3.624  0.2081  0.1767  0.0005
  136OSM   H13F14755   3.018   4.544   3.615  0.4185  2.0804  2.2409
  136OSM   H13G14756   3.189   4.607   3.633  1.8560 -0.9199 -0.1815
  136OSM   C14F14757   3.176   4.427   3.743  0.4979 -1.1543 -0.1624
  136OSM   H14F14758   3.287   4.423   3.750  0.4824 -0.7272  0.3899
  136OSM   H14G14759   3.144   4.325   3.714 -0.8122 -1.0943  0.9872
  136OSM   C15F14760   3.107   4.459   3.880  0.1099  0.0936  0.1251
  136OSM   H15F14761   3.009   4.508   3.859 -0.1342 -0.7038 -0.6510
  136OSM   H15G14762   3.173   4.537   3.924 -0.3361  0.9329 -0.6589
  136OSM   C16F14763   3.104   4.350   3.978  0.3862 -0.2976 -0.0410
  136OSM   H16F14764   3.020   4.284   3.948  0.6233 -1.0316  0.8712
  136OSM   H16G14765   3.067   4.385   4.077 -0.1134 -1.1521  0.0797
  136OSM   C17F14766   3.225   4.269   3.995  0.2213 -0.1941  0.1944
  136OSM   H17F14767   3.317   4.331   4.000 -0.5493  0.8909  1.4645
  136OSM   H17G14768   3.242   4.202   3.908 -0.3109 -0.6704  0.4574
  136OSM   C18F14769   3.234   4.187   4.126  0.9351 -0.3289 -0.2734
  136OSM   H18F14770   3.155   4.109   4.124 -0.5275  1.1027 -0.0620
  136OSM   H18G14771   3.233   4.249   4.218 -1.5160 -0.1997 -0.3249
  136OSM   H18H14772   3.334   4.138   4.131  0.6151 -0.9269  0.4683
  137OSM      N14773   1.764   1.491   1.974  0.0951  0.6051  0.2276
  137OSM    C1514774   1.897   1.437   2.007  0.0143 -0.5456 -0.0461
  137OSM   H15A14775   1.958   1.427   1.919  0.5576  0.2870  0.2210
  137OSM   H15B14776   1.887   1.342   2.057  2.0600 -0.7400  0.0613
  137OSM   H15C14777   1.942   1.506   2.077 -0.9241 -1.3016  1.3534
  137OSM    C1414778   1.789   1.619   1.892  1.0588  0.0155  0.0682
  137OSM   H14A14779   1.848   1.685   1.954  0.8744  0.6375 -0.4126
  137OSM   H14B14780   1.696   1.665   1.863  0.5156 -1.5013 -0.7308
  137OSM   H14C14781   1.844   1.595   1.803  1.4195 -1.7502  0.7182
  137OSM    C1314782   1.700   1.387   1.892  0.2534 -0.0626 -0.0602
  137OSM   H13A14783   1.612   1.428   1.845 -0.7410 -0.8976  1.0233
  137OSM   H13B14784   1.663   1.298   1.940 -0.0230 -0.2370 -0.5911
  137OSM   H13C14785   1.759   1.356   1.807 -2.4330  1.0422 -2.5013
  137OSM    C1214786   1.691   1.516   2.109 -0.5340  0.3002  0.0837
  137OSM   H12A14787   1.669   1.422   2.156 -0.2311 -0.3726 -1.0799
  137OSM   H12B14788   1.591   1.546   2.083  0.5728  2.5606 -2.0451
  137OSM    C1114789   1.758   1.607   2.205  0.2215 -0.4577 -0.1210
  137OSM   H11A14790   1.679   1.622   2.281  0.1243 -1.9284  0.0985
  137OSM   H11B14791   1.786   1.698   2.148  0.6383 -0.8499 -0.5572
  137OSM      P14792   1.880   1.467   2.381 -0.1997  0.1393  0.4232
  137OSM    O1314793   1.839   1.328   2.344  0.0177 -0.4265 -0.1555
  137OSM    O1414794   2.005   1.483   2.461  0.0726  0.0389 -0.0175
  137OSM    O1114795   1.768   1.534   2.467 -0.5711  0.7657 -0.3287
  137OSM    O1214796   1.887   1.563   2.255 -0.0661 -0.1602 -0.3908
  137OSM    C1S14797   1.682   1.479   2.568  0.1273  0.1409 -0.5239
  137OSM    H1S14798   1.676   1.371   2.545  0.6576  0.7460 -4.0709
  137OSM    H1T14799   1.582   1.524   2.547 -0.9821 -1.2417  1.5231
  137OSM     NF14800   1.642   1.451   2.810  0.2892 -0.5544  0.2161
  137OSM    HNF14801   1.587   1.514   2.864  1.5085  0.8884 -0.1494
  137OSM    C2S14802   1.733   1.506   2.708 -0.9618 -0.8162 -0.2757
  137OSM    H2S14803   1.828   1.448   2.713 -0.7165 -0.3129  1.2436
  137OSM    C3S14804   1.764   1.662   2.730  0.0978 -0.1893  0.9387
  137OSM    H3S14805   1.670   1.721   2.718  0.8579  1.0557  0.9771
  137OSM     O314806   1.856   1.728   2.641  0.2494  0.5777 -0.2527
  137OSM    HO314807   1.881   1.662   2.578  2.3702 -0.2329  1.3242
  137OSM    C4S14808   1.806   1.680   2.870  0.2482 -0.6579  0.1341
  137OSM    H4S14809   1.721   1.722   2.925 -0.9277 -0.1285 -1.9773
  137OSM    C5S14810   1.931   1.642   2.927  0.0065  0.1082 -0.1990
  137OSM    H5S14811   2.016   1.619   2.861 -0.3521  0.7633 -0.9131
  137OSM    C6S14812   1.960   1.654   3.072  0.1113  0.8914  0.1201
  137OSM    H6S14813   2.041   1.730   3.075  0.2556  1.0120 -3.0080
  137OSM    H6T14814   1.997   1.551   3.092 -1.1576  0.1407 -1.1859
  137OSM    C7S14815   1.858   1.690   3.175  0.1275  0.5016  0.1134
  137OSM    H7S14816   1.791   1.603   3.197  3.1456 -1.8735  0.5690
  137OSM    H7T14817   1.808   1.782   3.138  0.6166  1.0738  0.8486
  137OSM    C8S14818   1.925   1.729   3.308  0.9251 -0.0196 -0.1823
  137OSM    H8S14819   1.969   1.830   3.294 -0.2134  0.3557 -1.1625
  137OSM    H8T14820   2.001   1.653   3.338  0.2552 -0.0737  1.5108
  137OSM    C9S14821   1.828   1.722   3.430 -1.4298  0.4461  0.3521
  137OSM    H9S14822   1.724   1.704   3.397 -0.6315 -2.2000 -0.9908
  137OSM    H9T14823   1.842   1.817   3.486  1.0867 -0.0193  0.6711
  137OSM   C10S14824   1.858   1.600   3.516 -0.4618  0.3345 -0.2420
  137OSM   H10S14825   1.959   1.609   3.563 -1.1683 -0.5503  1.5458
  137OSM   H10T14826   1.865   1.508   3.454  0.9131 -0.2633  0.7526
  137OSM   C11S14827   1.768   1.601   3.641 -0.3015 -0.5406  0.2020
  137OSM   H11S14828   1.661   1.613   3.611 -0.3025  2.6457  1.1363
  137OSM   H11T14829   1.784   1.695   3.698 -2.9558  0.4359 -0.5127
  137OSM   C12S14830   1.794   1.478   3.724  0.2019 -0.4526 -0.6112
  137OSM   H12S14831   1.882   1.497   3.789 -1.6552  0.8742  1.6545
  137OSM   H12T14832   1.805   1.394   3.653  2.5389 -1.3743  0.7403
  137OSM   C13S14833   1.688   1.446   3.823  0.5871  0.1891  0.1754
  137OSM   H13S14834   1.588   1.484   3.795 -0.6481 -1.8049  1.6184
  137OSM   H13T14835   1.725   1.477   3.923 -0.1777 -0.9452  0.8270
  137OSM   C14S14836   1.667   1.290   3.846  0.2515  0.1478  0.6544
  137OSM   H14S14837   1.768   1.246   3.835 -0.0629 -1.1078  2.2956
  137OSM   H14T14838   1.599   1.251   3.767  2.5325  0.4619 -1.6049
  137OSM   C15S14839   1.606   1.251   3.975 -0.1304 -0.0597  0.1409
  137OSM   H15S14840   1.520   1.313   4.009  1.7529  2.0938  1.2521
  137OSM   H15T14841   1.686   1.279   4.047  1.1609 -0.6062 -1.0427
  137OSM   C16S14842   1.593   1.103   3.984  0.7360 -0.3166 -0.1031
  137OSM   H16S14843   1.693   1.058   3.968  1.5482  1.5743 -0.6124
  137OSM   H16T14844   1.523   1.079   3.901 -2.9001  2.1652  1.9361
  137OSM   C17S14845   1.533   1.041   4.115 -0.3723 -0.0369  0.3340
  137OSM   H17S14846   1.591   1.090   4.196 -0.1016  0.2605 -0.0322
  137OSM   H17T14847   1.554   0.932   4.118 -0.0513  0.0167  0.1101
  137OSM   C18S14848   1.384   1.064   4.125  1.0700  1.0382 -0.3148
  137OSM   H18S14849   1.344   1.020   4.219 -2.1235  1.7675 -1.2310
  137OSM   H18T14850   1.336   1.021   4.034 -2.2297 -0.1153  1.7919
  137OSM   H18U14851   1.377   1.175   4.134  0.2089  0.9340  0.3930
  137OSM    C1F14852   1.626   1.317   2.826 -0.2241  0.3147 -0.1603
  137OSM     OF14853   1.703   1.240   2.765  0.2655 -0.0019  0.6894
  137OSM    C2F14854   1.519   1.262   2.917 -0.4707 -0.4185  0.2777
  137OSM    H2F14855   1.436   1.336   2.908  1.3379  1.6897 -0.0378
  137OSM    H2G14856   1.551   1.263   3.023  0.6195  0.3084 -0.0406
  137OSM    C3F14857   1.486   1.118   2.870  1.0500  0.9097 -0.0522
  137OSM    H3F14858   1.573   1.054   2.897 -1.9785 -3.1040  1.2024
  137OSM    H3G14859   1.470   1.117   2.760 -2.0629  1.6773  0.2852
  137OSM    C4F14860   1.353   1.064   2.939 -0.1053  0.2302  0.4030
  137OSM    H4F14861   1.333   0.973   2.879 -0.7676  0.0885  0.8268
  137OSM    H4G14862   1.277   1.144   2.925 -0.3696 -0.0540  0.1966
  137OSM    C5F14863   1.376   1.034   3.083  0.3957 -0.0112  1.3878
  137OSM    H5F14864   1.401   1.130   3.133  1.9298  0.3353  0.0388
  137OSM    H5G14865   1.463   0.968   3.104  0.2192 -0.0483  2.0376
  137OSM    C6F14866   1.246   0.988   3.144 -0.0075  0.3489  0.1767
  137OSM    H6F14867   1.271   0.956   3.248  0.9487 -1.7759 -0.6368
  137OSM    H6G14868   1.209   0.903   3.082  1.9099 -0.4469  0.0376
  137OSM    C7F14869   1.134   1.090   3.156  0.2540  0.6868 -0.0356
  137OSM    H7F14870   1.092   1.106   3.055 -1.3278 -3.5522 -0.2207
  137OSM    H7G14871   1.174   1.186   3.195  3.2321 -0.3262 -0.4050
  137OSM    C8F14872   1.019   1.024   3.237  0.0768  0.3610 -0.3841
  137OSM    H8F14873   1.046   1.011   3.344 -1.6740 -0.4465  0.0037
  137OSM    H8G14874   0.995   0.921   3.205 -1.6050  0.3925  0.6462
  137OSM    C9F14875   0.898   1.114   3.236 -0.1583 -0.1948 -0.0806
  137OSM    H9F14876   0.817   1.100   3.162  0.4091  0.7211 -0.9000
  137OSM   C10F14877   0.881   1.215   3.321 -0.0609  0.0734 -0.0040
  137OSM   H10F14878   0.807   1.294   3.303 -0.4266 -0.4067 -0.6641
  137OSM   C11F14879   0.968   1.255   3.432 -0.2796  0.0155  0.1658
  137OSM   H11F14880   0.981   1.365   3.428  0.2929 -0.0944 -2.9821
  137OSM   H11G14881   1.072   1.229   3.402 -0.3770  0.8377 -0.9253
  137OSM   C12F14882   0.930   1.212   3.573 -1.0360 -0.3944  0.1632
  137OSM   H12F14883   0.827   1.238   3.605 -1.0911 -1.0006  0.5068
  137OSM   H12G14884   1.003   1.255   3.645  1.3791 -0.4657 -2.0969
  137OSM   C13F14885   0.950   1.059   3.594  0.2311 -0.7263 -0.0150
  137OSM   H13F14886   1.053   1.024   3.570  0.4652 -2.2600  2.7713
  137OSM   H13G14887   0.877   0.999   3.536  0.1852 -0.6277 -0.0596
  137OSM   C14F14888   0.936   1.031   3.748  0.0960 -0.2974 -0.7652
  137OSM   H14F14889   1.006   1.094   3.806 -1.4800  0.9247 -0.0985
  137OSM   H14G14890   0.978   0.928   3.748  0.8424  0.0079 -0.6553
  137OSM   C15F14891   0.797   1.020   3.803 -0.3041  0.0026  0.2182
  137OSM   H15F14892   0.737   0.956   3.734  0.0705 -0.9719  0.7721
  137OSM   H15G14893   0.749   1.119   3.796  0.1078  0.1375 -0.8933
  137OSM   C16F14894   0.770   0.963   3.943  0.1933 -0.1899  0.0823
  137OSM   H16F14895   0.795   0.856   3.931 -1.6673 -0.6102 -0.3574
  137OSM   H16G14896   0.662   0.974   3.965 -0.4492 -0.6664 -2.5507
  137OSM   C17F14897   0.840   1.024   4.056  0.6564 -0.4347  0.3018
  137OSM   H17F14898   0.826   1.134   4.064  0.8630 -0.4798  1.5253
  137OSM   H17G14899   0.947   1.010   4.030  1.1725  2.2866  0.6423
  137OSM   C18F14900   0.813   0.960   4.195  0.3457  0.4676 -0.2135
  137OSM   H18F14901   0.875   1.009   4.273 -0.1977  1.0612 -0.1401
  137OSM   H18G14902   0.822   0.850   4.186 -2.4956  0.2383 -1.5036
  137OSM   H18H14903   0.707   0.973   4.228  0.4219 -0.6292  0.5420
  138OSM      N14904   4.151   3.370   1.945 -0.0124 -0.2576 -0.6502
  138OSM    C1514905   4.229   3.248   1.933  0.1956 -0.5631 -0.5310
  138OSM   H15A14906   4.241   3.213   1.832  0.0595 -3.6256  0.4144
  138OSM   H15B14907   4.180   3.163   1.979 -1.3906  0.4244 -0.3236
  138OSM   H15C14908   4.326   3.257   1.980 -0.4447  0.7658  0.5892
  138OSM    C1414909   4.219   3.478   1.863  0.0949  0.4437  0.5193
  138OSM   H14A14910   4.185   3.575   1.898  0.0656  1.0351 -1.0918
  138OSM   H14B14911   4.200   3.473   1.757  2.3179 -1.4312  0.1149
  138OSM   H14C14912   4.327   3.472   1.874  0.2037  0.4379 -0.4856
  138OSM    C1314913   4.014   3.344   1.903  0.0510  0.4545 -0.2250
  138OSM   H13A14914   3.966   3.441   1.905  2.5407  1.7670  0.3293
  138OSM   H13B14915   3.962   3.273   1.965  0.6011  0.4930  0.2890
  138OSM   H13C14916   4.024   3.304   1.803  2.1009 -1.1801  0.5651
  138OSM    C1214917   4.155   3.401   2.097  0.1329 -0.6090  0.1224
  138OSM   H12A14918   4.258   3.416   2.127  0.2188 -0.5099 -0.2191
  138OSM   H12B14919   4.123   3.315   2.153 -0.4305 -0.2629  0.3525
  138OSM    C1114920   4.066   3.517   2.139 -0.5485 -0.9400 -0.2483
  138OSM   H11A14921   4.061   3.522   2.250 -1.4130  1.3892 -0.3281
  138OSM   H11B14922   3.959   3.507   2.111 -0.7567 -1.1481  0.6030
  138OSM      P14923   4.231   3.721   2.159  0.0593 -0.0033 -0.2586
  138OSM    O1314924   4.332   3.613   2.184 -0.4412 -0.2218  0.3007
  138OSM    O1414925   4.269   3.848   2.083  0.8780  0.3758  0.2748
  138OSM    O1114926   4.166   3.766   2.298 -0.2391  0.3277 -0.1230
  138OSM    O1214927   4.112   3.649   2.085  0.2463  0.5061 -0.1327
  138OSM    C1S14928   4.238   3.817   2.415  0.3065  0.0784 -0.2363
  138OSM    H1S14929   4.268   3.920   2.388 -1.2821  0.3883 -0.9915
  138OSM    H1T14930   4.325   3.754   2.443 -2.0817 -2.8350  1.2704
  138OSM     NF14931   4.192   3.894   2.652  0.6407 -0.1286  0.2974
  138OSM    HNF14932   4.215   3.840   2.733 -1.6920 -0.2422  0.9761
  138OSM    C2S14933   4.137   3.826   2.532  0.5008  0.5520 -1.0931
  138OSM    H2S14934   4.055   3.894   2.499 -0.7963  0.1249  1.0153
  138OSM    C3S14935   4.068   3.689   2.554  0.6650 -0.7062 -0.7663
  138OSM    H3S14936   4.143   3.618   2.595 -1.6282 -3.4618 -1.0380
  138OSM     O314937   4.007   3.629   2.440 -0.0666  0.1036  0.2455
  138OSM    HO314938   4.052   3.684   2.376  3.0454 -0.1763  1.9727
  138OSM    C4S14939   3.948   3.700   2.659  0.1966 -0.2377  0.3308
  138OSM    H4S14940   3.972   3.652   2.755 -0.3556  2.6640  2.0494
  138OSM    C5S14941   3.834   3.775   2.646  0.1710  0.0276  0.3272
  138OSM    H5S14942   3.822   3.834   2.553 -0.6859  0.4742  0.7002
  138OSM    C6S14943   3.726   3.790   2.755 -0.4022  0.0341 -0.2492
  138OSM    H6S14944   3.642   3.722   2.729  0.4891 -0.3371 -2.4327
  138OSM    H6T14945   3.698   3.897   2.745  2.0784  0.7443 -0.3826
  138OSM    C7S14946   3.782   3.758   2.897 -0.7602 -0.1608  0.4643
  138OSM    H7S14947   3.870   3.823   2.916  0.3148 -1.6111  0.5514
  138OSM    H7T14948   3.825   3.656   2.902  0.4380  0.3437  0.7639
  138OSM    C8S14949   3.682   3.770   3.011 -0.1600  0.3608 -0.1156
  138OSM    H8S14950   3.598   3.699   2.995  0.1225  0.2609 -1.2812
  138OSM    H8T14951   3.639   3.872   3.014 -0.2576  0.3012  0.6767
  138OSM    C9S14952   3.749   3.749   3.150  0.3847 -0.0742  1.2485
  138OSM    H9S14953   3.842   3.809   3.150  0.4509 -0.1388 -0.3332
  138OSM    H9T14954   3.772   3.640   3.154  0.0280 -0.1487  1.2751
  138OSM   C10S14955   3.653   3.780   3.270 -0.1820 -0.7103  0.2062
  138OSM   H10S14956   3.575   3.702   3.259 -2.4467  1.5384 -0.6498
  138OSM   H10T14957   3.603   3.878   3.252  1.3402 -0.1315 -1.1890
  138OSM   C11S14958   3.728   3.768   3.401 -0.0130 -0.1141  0.1434
  138OSM   H11S14959   3.801   3.849   3.419  0.3203 -0.6835  1.4897
  138OSM   H11T14960   3.784   3.673   3.385 -0.1587 -0.2879  0.6693
  138OSM   C12S14961   3.633   3.769   3.520  0.3882  0.0784  0.3691
  138OSM   H12S14962   3.604   3.662   3.529  1.5209 -0.4126 -1.4795
  138OSM   H12T14963   3.547   3.837   3.503 -0.1842  0.0541  2.7383
  138OSM   C13S14964   3.693   3.820   3.643  0.3067 -0.2868 -0.0974
  138OSM   H13S14965   3.715   3.928   3.638  2.0603 -0.6684 -2.0550
  138OSM   H13T14966   3.792   3.774   3.665  0.0581  0.2659  2.5148
  138OSM   C14S14967   3.604   3.795   3.758  0.2120 -0.1366  0.2985
  138OSM   H14S14968   3.591   3.685   3.766  1.8113 -0.3274  0.6603
  138OSM   H14T14969   3.499   3.830   3.748  0.2907 -0.2496 -1.0114
  138OSM   C15S14970   3.663   3.845   3.891  0.5732  0.2671 -0.2346
  138OSM   H15S14971   3.659   3.955   3.884 -0.7562  0.1676 -1.5502
  138OSM   H15T14972   3.767   3.809   3.907  0.7463  0.1122 -1.5986
  138OSM   C16S14973   3.590   3.801   4.015  0.1015 -0.7228 -1.1744
  138OSM   H16S14974   3.582   3.691   4.025  1.3592 -0.7252  0.1206
  138OSM   H16T14975   3.487   3.841   4.003  0.0110 -0.1764  0.9658
  138OSM   C17S14976   3.658   3.857   4.143  0.1899 -0.4747  0.2026
  138OSM   H17S14977   3.663   3.968   4.138 -1.0015 -0.3451  1.4611
  138OSM   H17T14978   3.761   3.815   4.140  0.0766 -0.7219 -0.4855
  138OSM   C18S14979   3.590   3.819   4.274 -0.2307  0.2358  0.3265
  138OSM   H18S14980   3.652   3.863   4.354 -1.0139 -0.4425  1.3362
  138OSM   H18T14981   3.585   3.710   4.295  0.5767  0.2369  0.5502
  138OSM   H18U14982   3.484   3.854   4.282 -0.1781  1.6295 -3.3023
  138OSM    C1F14983   4.238   4.017   2.664  0.2333  0.8282  0.1355
  138OSM     OF14984   4.238   4.090   2.574  0.3029  0.0441 -0.7427
  138OSM    C2F14985   4.305   4.048   2.797 -0.1756 -0.0867 -0.8457
  138OSM    H2F14986   4.339   3.947   2.829 -1.7976 -0.9013 -1.5449
  138OSM    H2G14987   4.226   4.085   2.866 -0.1009  0.4428 -1.0404
  138OSM    C3F14988   4.424   4.150   2.784 -0.6070 -0.3734  0.5235
  138OSM    H3F14989   4.388   4.246   2.741 -1.8175  0.4940  3.2499
  138OSM    H3G14990   4.488   4.100   2.709  0.4880 -1.0722  1.8710
  138OSM    C4F14991   4.511   4.169   2.913  0.3511  0.0590  0.2537
  138OSM    H4F14992   4.450   4.206   2.997 -0.1604  1.7876 -0.8265
  138OSM    H4G14993   4.574   4.260   2.900 -0.5204  0.9175  1.8006
  138OSM    C5F14994   4.586   4.048   2.951 -1.0629 -0.2559  0.0449
  138OSM    H5F14995   4.664   4.027   2.874 -0.7139 -0.7428  0.5244
  138OSM    H5G14996   4.512   3.965   2.956 -1.5799  0.3005  3.4680
  138OSM    C6F14997   4.644   4.053   3.091  0.1624  0.2479  0.0574
  138OSM    H6F14998   4.691   4.152   3.108 -0.9547  0.6958  0.6568
  138OSM    H6G14999   4.721   3.973   3.096  0.9634  1.0592  2.6552
  138OSM    C7F15000   4.538   4.025   3.211 -0.7372 -0.3215  0.2714
  138OSM    H7F15001   4.476   3.943   3.169  1.5562 -3.0315  1.7478
  138OSM    H7G15002   4.484   4.121   3.221 -0.2239  0.3222 -2.4067
  138OSM    C8F15003   4.618   3.991   3.335 -0.1849 -0.3090 -0.4493
  138OSM    H8F15004   4.674   4.083   3.363  0.2561 -0.6662 -0.1382
  138OSM    H8G15005   4.689   3.907   3.319 -1.2062 -1.1502 -0.6526
  138OSM    C9F15006   4.511   3.954   3.431  0.8574  0.5147 -0.3019
  138OSM    H9F15007   4.455   3.863   3.406  2.6447 -1.2598  1.6647
  138OSM   C10F15008   4.489   4.002   3.557  0.2392  0.5123 -0.2012
  138OSM   H10F15009   4.405   3.961   3.614  1.4943 -1.7384  0.1623
  138OSM   C11F15010   4.568   4.106   3.627 -0.2923  0.2002 -0.1005
  138OSM   H11F15011   4.513   4.196   3.662 -2.3246 -0.3400 -1.7303
  138OSM   H11G15012   4.639   4.143   3.550 -0.3911 -1.0454 -0.8061
  138OSM   C12F15013   4.653   4.048   3.742  0.8222 -0.1668 -0.4612
  138OSM   H12F15014   4.707   4.136   3.783  1.7340 -0.0880 -1.7616
  138OSM   H12G15015   4.741   3.992   3.703  0.3777 -0.1736 -1.5002
  138OSM   C13F15016   4.566   3.972   3.838 -0.9662  0.6189  0.4391
  138OSM   H13F15017   4.530   3.873   3.802 -1.0304  0.9459 -0.4204
  138OSM   H13G15018   4.472   4.027   3.856 -0.8107  1.2592 -0.6206
  138OSM   C14F15019   4.642   3.943   3.967  0.2005 -0.0244  0.2634
  138OSM   H14F15020   4.714   4.026   3.981  0.8967 -0.6295  0.3713
  138OSM   H14G15021   4.700   3.848   3.956 -0.9257 -0.6131 -0.8131
  138OSM   C15F15022   4.559   3.921   4.089  0.8112 -0.4864  0.7226
  138OSM   H15F15023   4.508   3.827   4.058  1.5644 -0.3619 -0.9932
  138OSM   H15G15024   4.488   4.005   4.100 -0.3887 -1.7017  3.0924
  138OSM   C16F15025   4.644   3.902   4.218 -0.6675  0.2732 -0.1300
  138OSM   H16F15026   4.695   3.999   4.237  2.9197 -1.1225 -1.7482
  138OSM   H16G15027   4.726   3.829   4.202  0.4243  1.1089  1.3871
  138OSM   C17F15028   4.563   3.837   4.338  0.2606  0.0396 -0.9770
  138OSM   H17F15029   4.631   3.781   4.405  1.9845  0.9579 -1.8966
  138OSM   H17G15030   4.495   3.760   4.295 -0.2031  0.6117 -1.2799
  138OSM   C18F15031   4.477   3.943   4.416 -0.2365  0.4127  0.1200
  138OSM   H18F15032   4.536   4.032   4.448 -1.7338  1.3639  0.3255
  138OSM   H18G15033   4.420   3.892   4.496  1.0187 -0.4127  0.5183
  138OSM   H18H15034   4.396   3.979   4.349 -0.1097  1.9918  0.7810
  139OSM      N15035   1.231   2.482   1.889  0.0264 -0.1288 -0.0868
  139OSM    C1515036   1.112   2.576   1.880 -0.0723  0.2400  0.2508
  139OSM   H15A15037   1.019   2.523   1.890  0.7148 -0.9257  1.9352
  139OSM   H15B15038   1.102   2.633   1.788 -0.1759 -0.6093 -0.2731
  139OSM   H15C15039   1.108   2.645   1.963 -0.0750  0.6031 -0.0481
  139OSM    C1415040   1.233   2.433   2.031 -0.4438  0.1128  0.6649
  139OSM   H14A15041   1.313   2.362   2.049  0.8423  1.2169 -0.4297
  139OSM   H14B15042   1.137   2.400   2.068  0.0891 -1.3448  0.8303
  139OSM   H14C15043   1.256   2.517   2.094  0.2477  0.5608 -0.1636
  139OSM    C1315044   1.214   2.372   1.788 -0.4046 -0.2446 -0.1513
  139OSM   H13A15045   1.206   2.421   1.692 -0.0614 -1.1129 -0.6350
  139OSM   H13B15046   1.122   2.320   1.809  0.2984 -0.8729  1.5535
  139OSM   H13C15047   1.296   2.302   1.787  0.2222  0.4782 -0.7492
  139OSM    C1215048   1.361   2.562   1.864 -0.6422 -0.1894 -0.1203
  139OSM   H12A15049   1.333   2.619   1.776 -3.8587 -0.8135  0.3967
  139OSM   H12B15050   1.439   2.490   1.844  0.5461  0.9793  0.1678
  139OSM    C1115051   1.409   2.667   1.962 -0.5777 -0.4115 -0.6759
  139OSM   H11A15052   1.331   2.740   1.993 -0.9682 -0.7096 -0.9640
  139OSM   H11B15053   1.489   2.728   1.915 -0.7767  0.3223 -0.0824
  139OSM      P15054   1.588   2.529   2.078 -0.0885  0.3716  0.1632
  139OSM    O1315055   1.582   2.412   1.982  0.5084  0.2256 -0.1326
  139OSM    O1415056   1.706   2.620   2.067 -0.8019 -0.4880 -0.3320
  139OSM    O1115057   1.589   2.466   2.224  0.2182 -0.0632  0.0505
  139OSM    O1215058   1.459   2.611   2.079  0.5363 -0.0864  0.3630
  139OSM    C1S15059   1.539   2.547   2.334  0.3817  0.0186 -0.5516
  139OSM    H1S15060   1.428   2.550   2.338  0.3241  0.7841 -2.2493
  139OSM    H1T15061   1.594   2.642   2.342 -1.7187  1.4348 -1.9527
  139OSM     NF15062   1.478   2.540   2.569 -0.6092  0.4749 -0.2906
  139OSM    HNF15063   1.531   2.600   2.628 -1.4542  0.3342  0.6364
  139OSM    C2S15064   1.552   2.472   2.471 -0.3233  0.9858  0.2252
  139OSM    H2S15065   1.503   2.372   2.462 -1.4205  1.2634  2.4880
  139OSM    C3S15066   1.704   2.439   2.501 -0.6307 -0.5880  0.2653
  139OSM    H3S15067   1.758   2.536   2.504 -1.1578 -0.1721 -1.9262
  139OSM     O315068   1.772   2.371   2.396 -0.8563  0.0800  0.6687
  139OSM    HO315069   1.706   2.354   2.329  0.0405 -2.6534  0.3396
  139OSM    C4S15070   1.729   2.375   2.630  0.0936  0.7017  1.4278
  139OSM    H4S15071   1.643   2.312   2.660  0.1567 -0.0759  0.0287
  139OSM    C5S15072   1.808   2.413   2.727  0.1487 -0.5200 -0.1801
  139OSM    H5S15073   1.872   2.500   2.711  2.1950 -1.5560  1.7746
  139OSM    C6S15074   1.796   2.371   2.872  0.3914  0.0402  0.1162
  139OSM    H6S15075   1.877   2.412   2.936 -1.3355  1.1538  1.7142
  139OSM    H6T15076   1.791   2.261   2.889  0.4868  0.3398  2.4452
  139OSM    C7S15077   1.664   2.430   2.937 -0.1948 -0.1197 -0.1401
  139OSM    H7S15078   1.572   2.404   2.881  1.6758 -0.8982 -3.0775
  139OSM    H7T15079   1.680   2.540   2.937 -0.2710 -0.0481  2.6625
  139OSM    C8S15080   1.642   2.382   3.076  0.5259  0.0871 -0.3280
  139OSM    H8S15081   1.736   2.405   3.130  0.1256 -1.8691  1.3308
  139OSM    H8T15082   1.644   2.271   3.076  2.0557  0.0658  1.9696
  139OSM    C9S15083   1.517   2.435   3.144  0.5400 -0.2287 -0.8568
  139OSM    H9S15084   1.430   2.411   3.079  1.0052 -0.0378 -1.5738
  139OSM    H9T15085   1.511   2.546   3.144 -1.3215 -0.2776  0.8649
  139OSM   C10S15086   1.498   2.386   3.287  0.3985  0.1651 -0.3063
  139OSM   H10S15087   1.492   2.275   3.299  1.3839  0.1008 -0.3062
  139OSM   H10T15088   1.401   2.429   3.320  0.5038 -0.8571  1.4804
  139OSM   C11S15089   1.599   2.433   3.394 -0.4880  0.3571  0.2933
  139OSM   H11S15090   1.617   2.543   3.396  2.0421  0.0160 -0.2083
  139OSM   H11T15091   1.701   2.399   3.366  0.5965  2.1064  1.8253
  139OSM   C12S15092   1.586   2.371   3.538  0.6435 -0.2536  0.4121
  139OSM   H12S15093   1.554   2.265   3.529  3.4504 -1.0594 -1.2319
  139OSM   H12T15094   1.498   2.419   3.584  0.2406 -1.1661  0.6119
  139OSM   C13S15095   1.707   2.392   3.624  0.2539 -0.3630 -0.1417
  139OSM   H13S15096   1.712   2.499   3.654 -3.1466  0.5835 -2.3012
  139OSM   H13T15097   1.792   2.358   3.561  0.3178 -0.3719 -0.0496
  139OSM   C14S15098   1.710   2.302   3.745  0.5395 -0.2443 -0.5023
  139OSM   H14S15099   1.706   2.198   3.707 -0.6812 -1.2701  2.1819
  139OSM   H14T15100   1.607   2.313   3.786 -0.0199  0.2908 -1.9982
  139OSM   C15S15101   1.825   2.333   3.844 -0.1052  0.6194  0.3586
  139OSM   H15S15102   1.846   2.442   3.850  1.4242  0.3396  0.4053
  139OSM   H15T15103   1.918   2.287   3.805 -0.8322  1.3660 -2.5012
  139OSM   C16S15104   1.797   2.283   3.987 -0.5603  0.6939  0.2499
  139OSM   H16S15105   1.692   2.312   4.006 -0.6767  0.8937 -0.6809
  139OSM   H16T15106   1.861   2.335   4.061 -2.2841  2.8690  0.2967
  139OSM   C17S15107   1.812   2.135   3.990 -0.1618  0.2488 -0.2748
  139OSM   H17S15108   1.913   2.112   3.949  0.5494 -1.0356  1.9805
  139OSM   H17T15109   1.746   2.087   3.916 -0.4392 -1.6140  1.1037
  139OSM   C18S15110   1.794   2.073   4.129  0.0045  0.3984  0.2137
  139OSM   H18S15111   1.688   2.074   4.162 -1.2651 -1.3036 -3.3538
  139OSM   H18T15112   1.851   2.131   4.205  0.7318 -2.0986  1.6846
  139OSM   H18U15113   1.828   1.968   4.114  0.0706  0.6574 -1.5766
  139OSM    C1F15114   1.347   2.528   2.591  0.5798 -0.2391 -0.0350
  139OSM     OF15115   1.277   2.443   2.538 -0.0573  0.5033 -0.3314
  139OSM    C2F15116   1.278   2.636   2.667  0.1911  0.2354  0.4131
  139OSM    H2F15117   1.190   2.650   2.601  1.3245  1.0961 -0.9423
  139OSM    H2G15118   1.340   2.727   2.655  0.3904 -0.1094 -1.4892
  139OSM    C3F15119   1.265   2.589   2.817  0.0071 -0.3698  0.0622
  139OSM    H3F15120   1.361   2.612   2.868 -0.1801  0.6615 -0.0285
  139OSM    H3G15121   1.239   2.481   2.816  1.4679 -0.7623 -1.2589
  139OSM    C4F15122   1.173   2.680   2.896 -0.4597  0.6989  0.4234
  139OSM    H4F15123   1.077   2.687   2.841 -1.5505 -0.7358  2.0142
  139OSM    H4G15124   1.213   2.783   2.897  1.3431  0.0830 -1.1285
  139OSM    C5F15125   1.163   2.639   3.040 -0.0072  0.1336  0.9326
  139OSM    H5F15126   1.252   2.673   3.097 -0.3849 -0.0005  1.6115
  139OSM    H5G15127   1.170   2.528   3.037 -3.2625 -0.2160 -3.4357
  139OSM    C6F15128   1.040   2.698   3.110 -0.5919  0.5282 -0.1811
  139OSM    H6F15129   0.955   2.681   3.039 -1.5469 -0.4881  1.1535
  139OSM    H6G15130   1.046   2.808   3.129 -0.7861  0.7245 -1.1856
  139OSM    C7F15131   1.017   2.618   3.242  0.9885 -0.2210  0.4937
  139OSM    H7F15132   1.112   2.608   3.300  2.4480  0.8441 -1.5668
  139OSM    H7G15133   0.966   2.522   3.220 -1.2054  1.1046 -0.5458
  139OSM    C8F15134   0.911   2.692   3.339  0.0498 -0.2712 -0.3510
  139OSM    H8F15135   0.812   2.691   3.289 -0.4263 -1.6050  0.5484
  139OSM    H8G15136   0.942   2.797   3.353  0.7783 -0.5867  0.5031
  139OSM    C9F15137   0.897   2.611   3.464 -0.4849 -0.1052 -0.1908
  139OSM    H9F15138   0.831   2.523   3.454 -0.7185 -0.0539  0.8494
  139OSM   C10F15139   0.973   2.628   3.573 -0.2378  0.1506  0.0309
  139OSM   H10F15140   0.947   2.562   3.657 -1.1833 -0.2597 -0.5620
  139OSM   C11F15141   1.077   2.738   3.610  0.3011 -0.4970  0.2665
  139OSM   H11F15142   1.036   2.809   3.685  0.1515  0.6660 -0.8629
  139OSM   H11G15143   1.093   2.801   3.519 -2.0973 -1.7721 -1.1461
  139OSM   C12F15144   1.210   2.683   3.661 -0.4475  0.5577  0.8558
  139OSM   H12F15145   1.278   2.770   3.650  0.1397 -0.0240 -0.2742
  139OSM   H12G15146   1.237   2.602   3.591  1.5780  0.5925  1.5365
  139OSM   C13F15147   1.211   2.634   3.802 -0.5098  0.1424 -0.4988
  139OSM   H13F15148   1.121   2.569   3.812  0.1532 -0.7716 -0.3147
  139OSM   H13G15149   1.187   2.721   3.866 -0.3589 -0.0698 -0.1533
  139OSM   C14F15150   1.335   2.574   3.859  0.4380 -0.0846 -0.6123
  139OSM   H14F15151   1.406   2.658   3.875 -1.1868  1.5583 -1.5808
  139OSM   H14G15152   1.371   2.501   3.784  1.6370 -0.9447  0.7446
  139OSM   C15F15153   1.313   2.485   3.985 -0.3394  0.0878  0.3869
  139OSM   H15F15154   1.248   2.399   3.958  1.1530 -0.6498 -1.0798
  139OSM   H15G15155   1.275   2.541   4.073  1.6376 -0.4441  1.6582
  139OSM   C16F15156   1.444   2.424   4.042  0.5676 -1.2178 -0.8021
  139OSM   H16F15157   1.529   2.496   4.038  1.0382 -1.7443 -0.3828
  139OSM   H16G15158   1.481   2.339   3.981  0.8740 -0.5039 -1.6339
  139OSM   C17F15159   1.424   2.368   4.182  0.2805 -0.1706 -0.3329
  139OSM   H17F15160   1.367   2.275   4.162 -0.5286  0.1056  0.6107
  139OSM   H17G15161   1.347   2.427   4.237 -1.4134  0.4809 -3.2027
  139OSM   C18F15162   1.547   2.361   4.271  0.1175 -0.4254 -0.8760
  139OSM   H18F15163   1.622   2.297   4.220  0.8555 -0.3112  0.0319
  139OSM   H18G15164   1.525   2.320   4.372  1.0396  0.8958 -0.1120
  139OSM   H18H15165   1.588   2.461   4.295  0.7439 -1.4194  2.7437
  140OSM      N15166   4.427   5.505   1.942  0.0650 -0.6718  0.3701
  140OSM    C1515167   4.391   5.520   1.793  0.0346  0.4770  0.9897
  140OSM   H15A15168   4.347   5.618   1.778 -1.2672  0.0536  1.8652
  140OSM   H15B15169   4.317   5.449   1.758 -0.7204  1.5778  0.2720
  140OSM   H15C15170   4.485   5.529   1.741 -0.7869 -1.1518 -0.9051
  140OSM    C1415171   4.518   5.620   1.963 -0.4205 -0.1493 -0.1895
  140OSM   H14A15172   4.611   5.614   1.908  1.3334 -1.7582  2.6737
  140OSM   H14B15173   4.546   5.615   2.068  0.3254 -2.5698 -0.4343
  140OSM   H14C15174   4.469   5.715   1.952  3.3695  1.8022 -2.4026
  140OSM    C1315175   4.306   5.512   2.027  0.4659 -0.2262  0.3502
  140OSM   H13A15176   4.238   5.429   2.012 -0.8138  0.0315  3.8095
  140OSM   H13B15177   4.236   5.588   1.995 -0.2763 -0.5280  1.2058
  140OSM   H13C15178   4.326   5.523   2.132  1.6698 -1.3718  0.2588
  140OSM    C1215179   4.500   5.376   1.959 -0.1117 -0.2878  0.2200
  140OSM   H12A15180   4.576   5.371   1.883  1.2382 -0.9555  1.5689
  140OSM   H12B15181   4.427   5.296   1.949 -0.4801  0.1630 -0.7241
  140OSM    C1115182   4.562   5.354   2.099  0.5493  0.3359  0.0094
  140OSM   H11A15183   4.607   5.252   2.097  0.1471  0.1535  0.4069
  140OSM   H11B15184   4.479   5.345   2.172  1.4448  0.5892  1.0748
  140OSM      P15185   4.673   5.481   2.290 -0.0749 -0.1076  0.5667
  140OSM    O1315186   4.774   5.589   2.316  0.6407 -0.1115 -0.1488
  140OSM    O1415187   4.542   5.493   2.357 -0.2102 -0.0880  0.4286
  140OSM    O1115188   4.743   5.341   2.335 -0.1610 -0.1457  0.3860
  140OSM    O1215189   4.650   5.460   2.137  0.1471  0.7229 -0.5866
  140OSM    C1S15190   4.824   5.343   2.455 -0.3472  0.2665 -0.0693
  140OSM    H1S15191   4.907   5.417   2.456  0.4553 -0.6152 -0.2226
  140OSM    H1T15192   4.891   5.254   2.462 -0.5250  0.1929  0.7860
  140OSM     NF15193   4.860   5.337   2.691  0.6401  0.0940 -0.0871
  140OSM    HNF15194   4.888   5.251   2.733  1.3856 -0.8932 -2.4138
  140OSM    C2S15195   4.753   5.322   2.589 -1.2181 -1.2567 -0.6052
  140OSM    H2S15196   4.677   5.402   2.604 -2.1097 -2.1077 -0.4713
  140OSM    C3S15197   4.680   5.183   2.602 -0.1160 -0.3579 -0.4559
  140OSM    H3S15198   4.749   5.097   2.599  0.9140  0.0758  4.0717
  140OSM     O315199   4.595   5.155   2.491  0.0100  0.4442 -0.1334
  140OSM    HO315200   4.621   5.225   2.430  2.1410  0.2338  0.4343
  140OSM    C4S15201   4.600   5.172   2.733 -0.1431 -0.1060 -0.5275
  140OSM    H4S15202   4.661   5.148   2.822  0.7258  3.4902  0.0064
  140OSM    C5S15203   4.466   5.193   2.752 -0.6045 -0.0529 -0.3951
  140OSM    H5S15204   4.398   5.229   2.673 -1.4615  0.6682  0.6365
  140OSM    C6S15205   4.394   5.179   2.887 -0.0046  0.0594  0.4738
  140OSM    H6S15206   4.305   5.118   2.862  0.2287  0.0115 -0.2751
  140OSM    H6T15207   4.347   5.275   2.917 -0.9260  0.2122 -1.3238
  140OSM    C7S15208   4.478   5.129   3.011 -0.0309  0.2560 -0.6592
  140OSM    H7S15209   4.563   5.200   3.016 -0.5835  0.9592 -0.9429
  140OSM    H7T15210   4.498   5.021   2.997  1.5377  0.1200  1.9055
  140OSM    C8S15211   4.400   5.147   3.141 -0.0198 -0.2897  0.5211
  140OSM    H8S15212   4.300   5.106   3.116  0.2709 -1.7907  1.6774
  140OSM    H8T15213   4.402   5.256   3.165  0.1800 -0.8053  3.0842
  140OSM    C9S15214   4.433   5.061   3.266  0.5604  0.3967 -0.2276
  140OSM    H9S15215   4.533   5.090   3.305  0.2942  0.2512  0.5872
  140OSM    H9T15216   4.434   4.951   3.247 -0.8733  0.0306  1.5475
  140OSM   C10S15217   4.346   5.080   3.392  0.3212 -0.2121 -0.0438
  140OSM   H10S15218   4.392   5.029   3.479 -0.6262 -1.9510 -0.5146
  140OSM   H10T15219   4.245   5.033   3.383  0.2576 -0.7110  2.6099
  140OSM   C11S15220   4.323   5.226   3.435 -0.0979  0.9403 -0.6912
  140OSM   H11S15221   4.222   5.264   3.408  0.3116  2.0123 -0.7653
  140OSM   H11T15222   4.402   5.285   3.384  1.0833  0.2234  0.2681
  140OSM   C12S15223   4.338   5.248   3.592  0.1659  0.5029 -1.0351
  140OSM   H12S15224   4.328   5.357   3.609 -1.3353  0.4853 -1.6826
  140OSM   H12T15225   4.437   5.204   3.618 -0.6922 -2.9740 -3.0198
  140OSM   C13S15226   4.233   5.184   3.693 -0.2663 -0.8157 -0.3448
  140OSM   H13S15227   4.254   5.074   3.692 -0.5439 -0.9374 -3.2478
  140OSM   H13T15228   4.134   5.223   3.660  0.2385 -0.3299 -1.2999
  140OSM   C14S15229   4.269   5.243   3.835  0.3778  0.2282 -0.0676
  140OSM   H14S15230   4.262   5.353   3.834 -0.6580  0.2140  1.7533
  140OSM   H14T15231   4.374   5.213   3.859  0.7416 -1.1469 -2.9312
  140OSM   C15S15232   4.155   5.198   3.933  0.2935 -0.2617  0.7073
  140OSM   H15S15233   4.149   5.088   3.921 -2.2107 -0.1553  0.4619
  140OSM   H15T15234   4.060   5.237   3.891  1.2715 -0.5573 -1.9836
  140OSM   C16S15235   4.174   5.230   4.083  0.1936  0.6550 -0.0279
  140OSM   H16S15236   4.074   5.252   4.125  0.2123 -1.3852  1.2250
  140OSM   H16T15237   4.231   5.321   4.110 -0.9216  1.1239  0.8050
  140OSM   C17S15238   4.241   5.118   4.172  1.0224 -0.4140 -0.3645
  140OSM   H17S15239   4.229   5.026   4.111 -3.0341  0.4102 -1.1254
  140OSM   H17T15240   4.186   5.124   4.268  0.7349  0.9946 -0.5943
  140OSM   C18S15241   4.386   5.158   4.203 -0.8150  1.0976  0.0174
  140OSM   H18S15242   4.442   5.071   4.242 -0.7790  0.4216 -1.4595
  140OSM   H18T15243   4.397   5.250   4.264  0.1820 -0.7681  2.8384
  140OSM   H18U15244   4.427   5.186   4.103 -1.5015  1.3382 -0.2040
  140OSM    C1F15245   4.907   5.451   2.735 -0.0417 -0.3774  0.2818
  140OSM     OF15246   4.850   5.555   2.698  0.3419 -0.4440  0.1961
  140OSM    C2F15247   5.018   5.451   2.833 -0.4257 -0.1722 -0.0837
  140OSM    H2F15248   5.088   5.377   2.788  1.1528  1.6405 -0.7143
  140OSM    H2G15249   4.976   5.421   2.932  0.9938 -0.5368  0.4355
  140OSM    C3F15250   5.079   5.594   2.846 -0.2969  0.4980  0.3065
  140OSM    H3F15251   4.999   5.664   2.880 -0.8623 -0.4946  1.0941
  140OSM    H3G15252   5.119   5.624   2.747 -1.4784 -0.5864 -0.5357
  140OSM    C4F15253   5.195   5.599   2.938  0.2034  0.5418 -0.0319
  140OSM    H4F15254   5.222   5.707   2.935 -0.4153  0.6878 -1.2894
  140OSM    H4G15255   5.278   5.540   2.895 -0.9008  0.2122 -1.8340
  140OSM    C5F15256   5.171   5.553   3.085 -0.0301 -0.3184  0.9848
  140OSM    H5F15257   5.167   5.442   3.088  1.2785 -0.4078  0.0244
  140OSM    H5G15258   5.079   5.600   3.126 -0.1175  2.0202 -1.6365
  140OSM    C6F15259   5.284   5.591   3.177  0.0167 -0.3496  0.2600
  140OSM    H6F15260   5.318   5.697   3.183  0.8672 -0.6767  1.6579
  140OSM    H6G15261   5.369   5.529   3.143 -0.5521  0.1390 -2.2972
  140OSM    C7F15262   5.257   5.575   3.328 -0.4237 -0.2365 -0.0330
  140OSM    H7F15263   5.348   5.605   3.385 -1.3694  4.2978 -0.5219
  140OSM    H7G15264   5.233   5.468   3.344  0.7029 -0.2338  2.0577
  140OSM    C8F15265   5.140   5.667   3.374  0.4733 -0.3591  0.1924
  140OSM    H8F15266   5.048   5.638   3.319 -1.3296  0.1173  2.7595
  140OSM    H8G15267   5.170   5.771   3.353  0.7767 -0.2572  1.0916
  140OSM    C9F15268   5.095   5.652   3.518  0.6834  0.0341  0.0588
  140OSM    H9F15269   5.011   5.582   3.533  1.8201 -1.1294  1.2938
  140OSM   C10F15270   5.148   5.716   3.619 -0.4753  0.3646  0.0748
  140OSM   H10F15271   5.108   5.701   3.721  0.7605  1.8221  0.8119
  140OSM   C11F15272   5.268   5.805   3.612 -0.3913 -0.3083  0.4804
  140OSM   H11F15273   5.228   5.901   3.651  1.0509  1.8230 -2.8676
  140OSM   H11G15274   5.291   5.828   3.506 -2.9801  1.4208  0.2206
  140OSM   C12F15275   5.399   5.767   3.689  0.0742  0.3936  0.8849
  140OSM   H12F15276   5.480   5.834   3.655  2.5238 -2.5368  0.4254
  140OSM   H12G15277   5.424   5.669   3.643  2.6273  1.9224 -1.2644
  140OSM   C13F15278   5.378   5.750   3.847  0.4251 -0.6390  0.7019
  140OSM   H13F15279   5.472   5.725   3.901  0.8325  1.7795  1.2278
  140OSM   H13G15280   5.300   5.672   3.862  0.4053 -0.7554  0.0442
  140OSM   C14F15281   5.321   5.878   3.913  0.2206  0.4756  0.2456
  140OSM   H14F15282   5.224   5.913   3.870 -2.0184 -2.5660  2.4219
  140OSM   H14G15283   5.398   5.957   3.899  1.4624 -0.8241 -0.4575
  140OSM   C15F15284   5.315   5.868   4.066 -0.7704  0.0937 -0.6099
  140OSM   H15F15285   5.289   5.973   4.093  3.1414  1.5658 -1.8457
  140OSM   H15G15286   5.415   5.840   4.104 -1.3163 -0.2761  0.6001
  140OSM   C16F15287   5.191   5.785   4.121  0.3342 -0.4351  0.6544
  140OSM   H16F15288   5.190   5.688   4.068 -1.5740 -0.5669  0.8810
  140OSM   H16G15289   5.108   5.855   4.096  2.0586  1.5129  0.0526
  140OSM   C17F15290   5.194   5.762   4.271 -0.4466 -0.0177  0.2062
  140OSM   H17F15291   5.287   5.705   4.292 -0.4075 -0.4912 -1.1335
  140OSM   H17G15292   5.113   5.698   4.314  0.8538 -0.9025  1.4158
  140OSM   C18F15293   5.195   5.896   4.353  0.4994 -0.3270  1.0929
  140OSM   H18F15294   5.099   5.951   4.350  0.1865 -0.8864  0.2558
  140OSM   H18G15295   5.276   5.959   4.308 -0.2789 -0.3450 -0.4111
  140OSM   H18H15296   5.219   5.868   4.458 -1.0815  0.6436  1.7343
  141OSM      N15297   1.202   3.905   1.542 -0.2404  0.3400 -0.0035
  141OSM    C1515298   1.240   3.762   1.507 -0.5480  0.0403 -0.1095
  141OSM   H15A15299   1.256   3.696   1.591 -1.4991  0.1395  0.1546
  141OSM   H15B15300   1.326   3.776   1.443 -1.1779  0.8398 -0.8113
  141OSM   H15C15301   1.170   3.713   1.442  0.2011  0.1431 -1.0155
  141OSM    C1415302   1.222   3.988   1.417  0.0068  0.4258  0.1545
  141OSM   H14A15303   1.324   3.993   1.381 -0.0029  0.9480  0.1925
  141OSM   H14B15304   1.171   4.082   1.429 -4.2135 -1.7663  1.5681
  141OSM   H14C15305   1.163   3.943   1.339 -0.0737 -0.4170  0.6909
  141OSM    C1315306   1.056   3.914   1.584  0.6053 -0.0883  0.3966
  141OSM   H13A15307   1.035   3.836   1.657  0.4189 -0.8510 -0.4560
  141OSM   H13B15308   0.994   3.896   1.497  0.3908 -0.8716  0.6991
  141OSM   H13C15309   1.031   4.013   1.618 -1.0988  1.5904 -4.8221
  141OSM    C1215310   1.298   3.974   1.634  0.1328  0.0075  0.2991
  141OSM   H12A15311   1.296   4.081   1.618 -0.4058 -0.3416 -2.4189
  141OSM   H12B15312   1.399   3.944   1.609  0.5711  2.3272 -0.9880
  141OSM    C1115313   1.266   3.946   1.780 -0.0460 -0.7403 -0.1343
  141OSM   H11A15314   1.361   3.973   1.832  0.0777  3.0948 -2.0017
  141OSM   H11B15315   1.251   3.838   1.801  0.4328 -0.6650  0.6714
  141OSM      P15316   1.055   3.974   1.943 -0.3118  0.2835 -0.2754
  141OSM    O1315317   0.983   4.095   1.998  0.2849  0.1940  0.2471
  141OSM    O1415318   0.974   3.861   1.894 -0.2397  0.3534 -0.1595
  141OSM    O1115319   1.150   3.912   2.055  0.6272  0.6726  0.0355
  141OSM    O1215320   1.159   4.025   1.831  0.6042  0.6597 -0.1786
  141OSM    C1S15321   1.200   4.002   2.154 -0.3619 -0.4591  0.1972
  141OSM    H1S15322   1.223   4.100   2.108  0.6433 -0.7582  0.0580
  141OSM    H1T15323   1.295   3.964   2.196 -1.4580 -2.5045  0.9452
  141OSM     NF15324   1.181   4.105   2.378  0.5480  0.0576  0.4920
  141OSM    HNF15325   1.195   4.073   2.471  2.7446 -0.6066  0.0000
  141OSM    C2S15326   1.117   4.018   2.285  0.1092  0.2441  0.3534
  141OSM    H2S15327   1.021   4.062   2.250  0.9318  0.7960 -1.3124
  141OSM    C3S15328   1.074   3.883   2.347  0.6384  0.4157 -0.0631
  141OSM    H3S15329   1.169   3.836   2.378  0.6590  0.1917 -0.4590
  141OSM     O315330   1.011   3.790   2.264  0.1132  0.2508  0.3192
  141OSM    HO315331   1.024   3.815   2.173  1.8489 -2.5899 -0.3388
  141OSM    C4S15332   0.986   3.893   2.470 -0.3321  0.0783  0.1170
  141OSM    H4S15333   1.047   3.920   2.558  0.2789  0.1502 -0.3268
  141OSM    C5S15334   0.854   3.917   2.486  0.8068 -0.4796 -0.6121
  141OSM    H5S15335   0.786   3.933   2.401 -1.0633 -0.4767  0.8115
  141OSM    C6S15336   0.792   3.936   2.627 -0.2638 -0.5508 -0.1602
  141OSM    H6S15337   0.694   3.886   2.639  0.0645 -1.0136  0.6744
  141OSM    H6T15338   0.768   4.043   2.643 -0.8297 -0.7300  0.2331
  141OSM    C7S15339   0.882   3.888   2.748  0.5356  0.3275 -0.4769
  141OSM    H7S15340   0.977   3.944   2.742  0.0484  1.2648  0.1546
  141OSM    H7T15341   0.886   3.777   2.741  0.2574  0.2328  0.5574
  141OSM    C8S15342   0.819   3.924   2.889  0.0449  0.0178  0.4055
  141OSM    H8S15343   0.710   3.907   2.882  0.4607 -3.7745  0.8592
  141OSM    H8T15344   0.844   4.032   2.894 -0.4184  0.3227 -2.4952
  141OSM    C9S15345   0.893   3.853   2.999  0.1896 -0.0454 -0.7306
  141OSM    H9S15346   1.003   3.863   2.987  0.1529 -0.2637 -1.3007
  141OSM    H9T15347   0.871   3.744   2.988 -1.9082  0.2017  0.4262
  141OSM   C10S15348   0.855   3.905   3.144 -0.0889 -0.7449 -0.0691
  141OSM   H10S15349   0.746   3.890   3.152 -0.2816  0.5381  0.0468
  141OSM   H10T15350   0.870   4.016   3.144 -0.3611 -0.6922  1.3226
  141OSM   C11S15351   0.938   3.847   3.258  0.1992 -0.2303 -0.2490
  141OSM   H11S15352   1.040   3.874   3.223  0.3701  2.0346  1.7853
  141OSM   H11T15353   0.925   3.737   3.250  1.1078 -0.4809  1.3289
  141OSM   C12S15354   0.912   3.902   3.402 -0.4818  0.5429  0.3372
  141OSM   H12S15355   0.899   4.012   3.396 -0.4936  0.5269  0.0837
  141OSM   H12T15356   1.004   3.874   3.458 -0.1214  0.8358 -0.1053
  141OSM   C13S15357   0.792   3.840   3.468 -0.2869  0.2996  0.1134
  141OSM   H13S15358   0.792   3.729   3.472  0.6740  0.3218  1.4726
  141OSM   H13T15359   0.705   3.877   3.408 -1.9649 -1.4948  1.3098
  141OSM   C14S15360   0.777   3.886   3.615 -0.5595 -0.7653 -0.5714
  141OSM   H14S15361   0.878   3.882   3.662 -1.2734  0.6795  1.2023
  141OSM   H14T15362   0.718   3.804   3.662  3.0556 -2.3227  1.7608
  141OSM   C15S15363   0.718   4.024   3.637  0.0803  0.1402  0.2016
  141OSM   H15S15364   0.625   4.027   3.576 -0.0204  2.9625  0.3540
  141OSM   H15T15365   0.792   4.097   3.598  1.2117  0.4248  2.6635
  141OSM   C16S15366   0.696   4.057   3.788 -0.5214 -0.1278  0.1081
  141OSM   H16S15367   0.791   4.054   3.847 -0.4720 -1.1191 -0.0078
  141OSM   H16T15368   0.625   3.981   3.826 -0.2613 -0.0842  0.6928
  141OSM   C17S15369   0.639   4.206   3.795  1.0888 -0.8337 -0.4349
  141OSM   H17S15370   0.663   4.261   3.701  3.2538 -0.2215  0.4122
  141OSM   H17T15371   0.696   4.262   3.872 -1.2774  0.3352  0.5831
  141OSM   C18S15372   0.493   4.219   3.844  0.6878 -0.6593 -0.5919
  141OSM   H18S15373   0.416   4.203   3.765 -2.1525  3.1908  1.0354
  141OSM   H18T15374   0.468   4.325   3.865  3.4499  0.5723 -2.8076
  141OSM   H18U15375   0.462   4.146   3.921  1.3595 -0.0895  0.2330
  141OSM    C1F15376   1.232   4.226   2.355  0.4596  0.8759 -0.0972
  141OSM     OF15377   1.208   4.287   2.252 -0.5998 -0.7799  0.4096
  141OSM    C2F15378   1.320   4.283   2.459  0.2638 -0.3351 -0.4763
  141OSM    H2F15379   1.429   4.274   2.439  1.1683  0.4821  3.2446
  141OSM    H2G15380   1.288   4.249   2.560 -4.9586 -1.6825 -2.2869
  141OSM    C3F15381   1.307   4.442   2.465  0.1024 -0.3620  0.1392
  141OSM    H3F15382   1.207   4.478   2.498 -0.8349 -0.6235 -2.2467
  141OSM    H3G15383   1.335   4.483   2.366 -1.3666 -0.6796 -0.4205
  141OSM    C4F15384   1.403   4.505   2.568  0.4949  0.7769 -0.2404
  141OSM    H4F15385   1.406   4.615   2.548 -0.7063  0.6938 -0.9865
  141OSM    H4G15386   1.509   4.478   2.548  0.6409  1.5421 -0.5380
  141OSM    C5F15387   1.364   4.488   2.720  0.4110 -0.4493  0.4303
  141OSM    H5F15388   1.417   4.397   2.755  0.7700 -1.3339 -2.2213
  141OSM    H5G15389   1.254   4.472   2.718  0.1490  1.2092 -0.7855
  141OSM    C6F15390   1.393   4.608   2.811  0.0974 -0.1394 -0.2413
  141OSM    H6F15391   1.393   4.710   2.768 -1.7137 -0.7918 -1.9414
  141OSM    H6G15392   1.494   4.594   2.855  0.1423 -1.5372 -0.7338
  141OSM    C7F15393   1.284   4.624   2.923 -0.3872  0.6257 -0.6698
  141OSM    H7F15394   1.313   4.538   2.986  1.5655  0.5423 -1.5934
  141OSM    H7G15395   1.181   4.620   2.882 -0.8747  1.4587  0.4440
  141OSM    C8F15396   1.302   4.753   3.008  0.2297 -0.0059  0.1632
  141OSM    H8F15397   1.213   4.743   3.074  0.1923 -3.1787 -0.1883
  141OSM    H8G15398   1.278   4.830   2.932  0.6428  1.0620  1.0975
  141OSM    C9F15399   1.428   4.782   3.087 -0.2652 -0.2487  0.5474
  141OSM    H9F15400   1.512   4.808   3.021 -0.3319  1.9251  1.2464
  141OSM   C10F15401   1.441   4.789   3.222 -0.2527 -0.4229 -0.0889
  141OSM   H10F15402   1.532   4.819   3.274 -1.2510  0.9039  0.9525
  141OSM   C11F15403   1.336   4.739   3.314  0.3736  0.1821 -0.4167
  141OSM   H11F15404   1.290   4.647   3.270  0.2363  0.4062 -0.7437
  141OSM   H11G15405   1.254   4.814   3.310 -1.5130 -1.7233  0.6170
  141OSM   C12F15406   1.376   4.709   3.456 -0.3389  0.0520 -0.3991
  141OSM   H12F15407   1.430   4.791   3.508 -0.8231  1.7764 -2.4783
  141OSM   H12G15408   1.439   4.618   3.452 -1.6857 -1.0473  1.5923
  141OSM   C13F15409   1.256   4.692   3.548  0.1396  0.1577 -0.6186
  141OSM   H13F15410   1.188   4.629   3.487  1.6557 -1.7755 -0.4082
  141OSM   H13G15411   1.218   4.795   3.567  2.0206  0.4765  1.9146
  141OSM   C14F15412   1.289   4.629   3.683  0.3219  0.5066 -0.1968
  141OSM   H14F15413   1.355   4.544   3.656 -1.5105 -0.0787 -3.4004
  141OSM   H14G15414   1.206   4.589   3.744  1.1615 -0.2028  0.4876
  141OSM   C15F15415   1.354   4.733   3.771 -0.4265  0.2791  0.3446
  141OSM   H15F15416   1.283   4.818   3.783 -0.6565  0.8041 -3.3195
  141OSM   H15G15417   1.439   4.775   3.713 -1.6127  0.3663 -1.4294
  141OSM   C16F15418   1.413   4.681   3.897  0.4068  0.3162 -0.3410
  141OSM   H16F15419   1.325   4.668   3.964 -0.1452  2.5118 -0.5639
  141OSM   H16G15420   1.469   4.765   3.944 -0.9380  1.1497 -0.1782
  141OSM   C17F15421   1.498   4.553   3.896 -0.1450  0.0810  0.6787
  141OSM   H17F15422   1.585   4.582   3.834 -0.9036  2.5384  0.6803
  141OSM   H17G15423   1.443   4.469   3.847  1.5222 -1.1658  0.8828
  141OSM   C18F15424   1.546   4.508   4.039  0.8600  0.6200  0.7716
  141OSM   H18F15425   1.617   4.423   4.032 -0.6707 -0.5816 -1.9487
  141OSM   H18G15426   1.458   4.482   4.102 -0.6138  1.1891 -0.9532
  141OSM   H18H15427   1.607   4.590   4.082  2.6615  0.1913 -0.8390
  142OSM      N15428   1.819   5.477   2.259 -0.3191 -0.3270 -0.0640
  142OSM    C1515429   1.927   5.378   2.232 -0.2874  0.0841  0.2462
  142OSM   H15A15430   2.022   5.405   2.275  0.3361 -1.7339  0.1197
  142OSM   H15B15431   1.954   5.378   2.128  0.0446 -0.2877  0.3295
  142OSM   H15C15432   1.901   5.282   2.276 -1.7558  0.6862  0.7626
  142OSM    C1415433   1.692   5.434   2.181  0.4404 -0.4705  0.7080
  142OSM   H14A15434   1.603   5.492   2.200  1.4150  1.8525 -1.2804
  142OSM   H14B15435   1.655   5.337   2.212  0.8707 -0.1671  2.2585
  142OSM   H14C15436   1.708   5.425   2.074 -2.2581 -0.8544  0.2668
  142OSM    C1315437   1.778   5.476   2.399  0.1371 -0.9629 -0.7295
  142OSM   H13A15438   1.732   5.383   2.427  0.1801 -0.4929  1.0011
  142OSM   H13B15439   1.712   5.555   2.432 -2.4645 -2.9504 -0.8869
  142OSM   H13C15440   1.869   5.488   2.455 -1.1288  0.3406  1.1866
  142OSM    C1215441   1.861   5.617   2.222 -0.3441 -0.0278  0.0588
  142OSM   H12A15442   1.775   5.682   2.227 -0.6840 -0.5599  2.1150
  142OSM   H12B15443   1.906   5.614   2.124 -1.8752 -0.0983 -0.6615
  142OSM    C1115444   1.969   5.694   2.307 -0.2073 -0.5369  0.0309
  142OSM   H11A15445   1.926   5.707   2.409 -1.3316 -0.2737 -0.4612
  142OSM   H11B15446   1.974   5.798   2.270 -1.1210 -0.0998  1.0692
  142OSM      P15447   2.177   5.653   2.167  0.0300  0.2435  0.5036
  142OSM    O1315448   2.091   5.648   2.044  0.7527 -0.1997  0.5269
  142OSM    O1415449   2.255   5.773   2.189  0.1670  0.1065 -0.3561
  142OSM    O1115450   2.279   5.534   2.161 -0.1940  0.0366 -0.3902
  142OSM    O1215451   2.093   5.619   2.301 -0.0615  0.2081 -0.1409
  142OSM    C1S15452   2.419   5.549   2.200  0.0046 -0.5171 -0.7680
  142OSM    H1S15453   2.460   5.642   2.157 -0.5398  0.3136  0.4506
  142OSM    H1T15454   2.491   5.471   2.167  1.7163 -0.0296  1.5030
  142OSM     NF15455   2.574   5.582   2.393 -0.3573 -0.4924 -0.0763
  142OSM    HNF15456   2.634   5.506   2.416  1.8077  0.8436 -0.9254
  142OSM    C2S15457   2.442   5.553   2.357  0.8615  0.3488  0.6901
  142OSM    H2S15458   2.380   5.632   2.404 -1.5874 -0.2887 -1.2581
  142OSM    C3S15459   2.390   5.423   2.426 -0.1664 -0.2839 -0.7565
  142OSM    H3S15460   2.445   5.336   2.383  3.3461  1.9521 -1.1183
  142OSM     O315461   2.251   5.398   2.417  0.3995 -0.1795 -0.3937
  142OSM    HO315462   2.215   5.472   2.368 -0.6385 -0.6313 -0.3563
  142OSM    C4S15463   2.415   5.424   2.572 -0.4357 -0.0353 -0.0141
  142OSM    H4S15464   2.355   5.497   2.628 -0.0964  0.7042 -0.6020
  142OSM    C5S15465   2.513   5.352   2.632  0.2887 -0.6903  0.4553
  142OSM    H5S15466   2.579   5.285   2.575  0.9796 -0.5240  1.0571
  142OSM    C6S15467   2.546   5.359   2.778  0.1178  0.3021  1.2592
  142OSM    H6S15468   2.643   5.411   2.792  1.3040 -0.7042 -2.2532
  142OSM    H6T15469   2.558   5.254   2.814 -0.6422 -0.5746 -0.8576
  142OSM    C7S15470   2.430   5.427   2.871 -0.4271  0.1252  0.1283
  142OSM    H7S15471   2.351   5.350   2.860  1.7216 -1.9969 -1.6411
  142OSM    H7T15472   2.407   5.522   2.817 -1.3728 -0.5437 -0.6807
  142OSM    C8S15473   2.464   5.439   3.022  0.0911 -0.0383 -0.6077
  142OSM    H8S15474   2.387   5.495   3.079  1.6705 -0.7191  2.3708
  142OSM    H8T15475   2.567   5.480   3.031 -0.6234  2.2580 -1.9484
  142OSM    C9S15476   2.462   5.310   3.111 -0.3488 -0.4036  0.1500
  142OSM    H9S15477   2.537   5.235   3.076 -0.2371 -1.0442  1.6552
  142OSM    H9T15478   2.362   5.263   3.106 -1.4686  1.7013  1.4322
  142OSM   C10S15479   2.492   5.329   3.262 -0.1021  1.3203  0.2902
  142OSM   H10S15480   2.523   5.231   3.304 -0.4026  2.1030  2.4367
  142OSM   H10T15481   2.400   5.366   3.311 -0.4648  0.7257  0.0665
  142OSM   C11S15482   2.616   5.418   3.287  0.1338 -0.6266  0.5158
  142OSM   H11S15483   2.596   5.522   3.253  1.7987 -0.5972 -0.5003
  142OSM   H11T15484   2.682   5.378   3.207  0.4393  0.4758  0.2040
  142OSM   C12S15485   2.667   5.404   3.427  0.1030 -0.0180  0.7730
  142OSM   H12S15486   2.752   5.470   3.452  0.5285  0.7655 -2.3977
  142OSM   H12T15487   2.696   5.299   3.449  1.3495  0.5234  1.9048
  142OSM   C13S15488   2.557   5.434   3.535  0.6843  0.2415 -0.1859
  142OSM   H13S15489   2.469   5.367   3.521 -0.6320  1.5984  1.2499
  142OSM   H13T15490   2.519   5.536   3.515  0.6204  0.1664 -0.4480
  142OSM   C14S15491   2.617   5.410   3.673 -0.0138 -1.2184 -0.0675
  142OSM   H14S15492   2.688   5.494   3.692 -1.8178  1.2342 -3.2207
  142OSM   H14T15493   2.672   5.314   3.683  1.5235 -0.3362  0.4219
  142OSM   C15S15494   2.515   5.412   3.790  0.3014  0.0563  1.0003
  142OSM   H15S15495   2.579   5.410   3.881  1.3557  1.7556  0.3535
  142OSM   H15T15496   2.451   5.321   3.785  0.5516 -0.1865  1.9725
  142OSM   C16S15497   2.439   5.546   3.803 -0.5986  0.0549  0.7752
  142OSM   H16S15498   2.488   5.632   3.753 -0.8418 -0.8402 -1.0931
  142OSM   H16T15499   2.416   5.561   3.911 -0.9789 -1.1050  0.8630
  142OSM   C17S15500   2.299   5.524   3.754  0.4297  0.2611 -0.5661
  142OSM   H17S15501   2.240   5.455   3.817  0.4334 -1.3150 -2.1952
  142OSM   H17T15502   2.299   5.475   3.654  0.0711  0.7878 -0.8354
  142OSM   C18S15503   2.224   5.658   3.748  0.3883  0.1342  0.2273
  142OSM   H18S15504   2.240   5.720   3.839  1.5727  0.0161  0.1159
  142OSM   H18T15505   2.115   5.636   3.743  0.4727 -0.0593 -1.4296
  142OSM   H18U15506   2.259   5.711   3.657 -1.0559  0.9481  0.1103
  142OSM    C1F15507   2.623   5.698   2.372 -0.2428  0.2347  0.3728
  142OSM     OF15508   2.555   5.786   2.326 -0.7166  0.2869  0.1090
  142OSM    C2F15509   2.767   5.725   2.392  0.4297  0.1369  0.5619
  142OSM    H2F15510   2.822   5.749   2.299  1.3353 -1.8832  0.5138
  142OSM    H2G15511   2.822   5.640   2.437 -1.0213 -1.3283 -0.3310
  142OSM    C3F15512   2.795   5.852   2.483  0.4537 -0.3957  0.7445
  142OSM    H3F15513   2.739   5.935   2.434 -1.0247 -0.7363  1.7620
  142OSM    H3G15514   2.900   5.884   2.496  0.9548 -1.2929 -0.8622
  142OSM    C4F15515   2.750   5.839   2.629  0.0418 -0.5167  1.1644
  142OSM    H4F15516   2.644   5.806   2.627  0.5451 -2.2345 -0.3513
  142OSM    H4G15517   2.752   5.941   2.673 -0.3058 -0.2213  0.5191
  142OSM    C5F15518   2.834   5.737   2.718 -0.3409 -0.0583  0.6403
  142OSM    H5F15519   2.942   5.762   2.724  0.2538 -2.1374 -0.4325
  142OSM    H5G15520   2.840   5.640   2.665  1.4168 -0.7248  1.9980
  142OSM    C6F15521   2.770   5.703   2.851  0.6424  0.3343 -0.2924
  142OSM    H6F15522   2.820   5.616   2.900  0.3241  0.9454  1.1638
  142OSM    H6G15523   2.667   5.666   2.832  0.9169 -1.6040  1.6267
  142OSM    C7F15524   2.782   5.819   2.948 -0.4866  0.2294 -0.8784
  142OSM    H7F15525   2.712   5.900   2.919  0.4273  1.3803 -0.0105
  142OSM    H7G15526   2.880   5.871   2.956 -0.8895  0.7419  2.7692
  142OSM    C8F15527   2.742   5.772   3.094  0.2362  0.3631 -0.2267
  142OSM    H8F15528   2.805   5.688   3.129  1.3293  1.1184 -0.3385
  142OSM    H8G15529   2.639   5.730   3.091  1.2588 -2.3482 -1.5269
  142OSM    C9F15530   2.747   5.891   3.187 -0.0588 -0.3991 -0.0224
  142OSM    H9F15531   2.716   5.982   3.134 -2.1910 -0.2062  1.4644
  142OSM   C10F15532   2.802   5.899   3.309  0.6194 -0.2020 -0.3977
  142OSM   H10F15533   2.800   6.000   3.353  0.2357 -1.0195  1.5903
  142OSM   C11F15534   2.848   5.785   3.396  0.6187  0.0561 -0.5672
  142OSM   H11F15535   2.950   5.798   3.436  1.2798 -0.9948 -1.8484
  142OSM   H11G15536   2.860   5.696   3.331  1.0627  0.1783 -0.6493
  142OSM   C12F15537   2.749   5.753   3.514  0.2152 -0.4306 -0.0651
  142OSM   H12F15538   2.777   5.659   3.567  3.8845  0.4396 -0.1968
  142OSM   H12G15539   2.647   5.739   3.472 -0.8097  1.0553  1.7892
  142OSM   C13F15540   2.739   5.864   3.624 -0.1532 -0.3381  0.6912
  142OSM   H13F15541   2.640   5.908   3.601  1.0701  0.4327 -4.2608
  142OSM   H13G15542   2.822   5.938   3.616  1.3709 -1.6319  3.1332
  142OSM   C14F15543   2.729   5.813   3.769 -0.3805 -0.3648  0.0403
  142OSM   H14F15544   2.831   5.802   3.812  0.0757  0.4607 -0.7842
  142OSM   H14G15545   2.693   5.708   3.766  0.9812 -0.9236  1.4103
  142OSM   C15F15546   2.653   5.907   3.860  0.3156 -0.5098 -0.8504
  142OSM   H15F15547   2.553   5.914   3.812 -0.4472 -1.0752  0.6006
  142OSM   H15G15548   2.697   6.009   3.868  2.2579 -1.4071  0.9874
  142OSM   C16F15549   2.635   5.857   4.007 -0.4382  0.5301  0.5200
  142OSM   H16F15550   2.734   5.854   4.056  0.3381 -0.9498 -1.0451
  142OSM   H16G15551   2.599   5.752   4.003  2.2968 -0.4428 -1.2996
  142OSM   C17F15552   2.543   5.938   4.101 -0.3922  0.2202  0.1873
  142OSM   H17F15553   2.517   6.034   4.052 -0.9362 -0.4709 -0.9459
  142OSM   H17G15554   2.595   5.972   4.193 -1.1561 -1.0183  1.1106
  142OSM   C18F15555   2.414   5.868   4.130 -0.5915  1.2028 -0.1002
  142OSM   H18F15556   2.342   5.918   4.199 -0.0747 -0.3099  1.5977
  142OSM   H18G15557   2.432   5.768   4.176 -1.6080  0.9606 -0.1949
  142OSM   H18H15558   2.362   5.846   4.035  0.5630  0.0883 -0.4954
  143OSM      N15559   0.994   5.355   1.495 -0.4051  0.2682 -0.0294
  143OSM    C1515560   1.014   5.322   1.346 -0.2197 -0.6960 -0.3263
  143OSM   H15A15561   0.968   5.228   1.319 -0.4500 -1.3296  2.0304
  143OSM   H15B15562   1.117   5.336   1.320 -0.2362  0.6621  0.2340
  143OSM   H15C15563   0.959   5.393   1.286 -1.8236 -2.9700 -1.6688
  143OSM    C1415564   1.068   5.483   1.529  0.4749 -0.0963 -0.1815
  143OSM   H14A15565   1.031   5.519   1.624  2.4689 -0.2065  0.6720
  143OSM   H14B15566   1.060   5.558   1.452  1.1879 -0.1893 -0.3452
  143OSM   H14C15567   1.172   5.462   1.547  0.9853  1.6133 -0.9686
  143OSM    C1315568   0.849   5.358   1.499 -0.3352 -0.1477 -0.5577
  143OSM   H13A15569   0.818   5.395   1.596 -2.1653  1.2504 -1.6046
  143OSM   H13B15570   0.799   5.263   1.490 -0.2576 -0.1591 -0.8498
  143OSM   H13C15571   0.822   5.423   1.417 -0.5644  1.4441  0.7186
  143OSM    C1215572   1.031   5.231   1.588  0.4073  0.0107 -0.0353
  143OSM   H12A15573   1.009   5.135   1.543  1.5851 -0.5116  0.4677
  143OSM   H12B15574   0.972   5.235   1.678 -2.1023 -0.1934 -1.5799
  143OSM    C1115575   1.177   5.219   1.625 -0.4199  0.5209  0.0057
  143OSM   H11A15576   1.226   5.304   1.677 -0.1698  0.8443 -0.7489
  143OSM   H11B15577   1.233   5.206   1.530  0.4449  0.1789  0.5543
  143OSM      P15578   1.318   5.077   1.791  0.0425 -0.0311 -0.3463
  143OSM    O1315579   1.306   4.964   1.882 -0.4605 -0.3441 -0.2523
  143OSM    O1415580   1.446   5.087   1.712  0.3981  0.4810 -0.0894
  143OSM    O1115581   1.318   5.197   1.893  0.0567 -0.3292  0.3755
  143OSM    O1215582   1.189   5.094   1.695 -0.1484 -0.1047  0.2753
  143OSM    C1S15583   1.199   5.222   1.966 -0.6090 -0.0973 -0.5229
  143OSM    H1S15584   1.121   5.145   1.949  1.6536 -1.9499 -3.3816
  143OSM    H1T15585   1.162   5.326   1.957 -1.0777  0.0906  2.5231
  143OSM     NF15586   1.109   5.249   2.190  0.4907  0.3604 -1.0471
  143OSM    HNF15587   1.103   5.331   2.246 -2.8183 -0.2380 -0.3269
  143OSM    C2S15588   1.226   5.209   2.120  0.0013  0.0157 -0.3178
  143OSM    H2S15589   1.248   5.101   2.137 -1.2204  0.1058  2.3986
  143OSM    C3S15590   1.367   5.274   2.166  0.1171 -0.1952  0.0515
  143OSM    H3S15591   1.368   5.381   2.134 -2.9432 -0.2763 -0.6574
  143OSM     O315592   1.481   5.213   2.106 -0.1076  0.2562  0.5275
  143OSM    HO315593   1.438   5.152   2.046 -1.4215  1.8051 -0.1790
  143OSM    C4S15594   1.392   5.263   2.316  1.1929  0.3894 -0.1826
  143OSM    H4S15595   1.411   5.158   2.339 -1.8582 -0.3777 -0.7292
  143OSM    C5S15596   1.412   5.349   2.420 -0.1564 -0.1770 -0.8263
  143OSM    H5S15597   1.409   5.458   2.415 -0.1957  0.0068  1.7859
  143OSM    C6S15598   1.463   5.305   2.560  0.5222 -0.1290  0.3583
  143OSM    H6S15599   1.548   5.369   2.594  0.8650 -0.3813 -0.0013
  143OSM    H6T15600   1.492   5.199   2.575 -1.2158 -1.1901 -2.8875
  143OSM    C7S15601   1.350   5.321   2.669 -0.0669  0.3790  0.2865
  143OSM    H7S15602   1.254   5.282   2.627  0.5840 -0.2407 -0.6681
  143OSM    H7T15603   1.335   5.426   2.702  0.2461 -0.2089  2.4247
  143OSM    C8S15604   1.390   5.237   2.795  0.5751  0.1110  0.8155
  143OSM    H8S15605   1.495   5.259   2.826  1.1720 -0.5154 -0.6800
  143OSM    H8T15606   1.385   5.130   2.765  0.5776  0.4811 -0.5732
  143OSM    C9S15607   1.299   5.267   2.913 -0.5016  0.0781 -0.6829
  143OSM    H9S15608   1.198   5.226   2.894 -0.5751 -1.8610  2.9866
  143OSM    H9T15609   1.291   5.376   2.933  1.8308 -0.1079  1.9239
  143OSM   C10S15610   1.357   5.198   3.036  0.3395 -0.1091  0.2487
  143OSM   H10S15611   1.451   5.241   3.075  1.7086 -1.4064 -1.4893
  143OSM   H10T15612   1.385   5.094   3.009  0.5514  0.1355 -0.4963
  143OSM   C11S15613   1.260   5.209   3.149 -0.0953  0.0481 -0.2163
  143OSM   H11S15614   1.172   5.150   3.114  1.1258 -1.5775 -0.7011
  143OSM   H11T15615   1.239   5.315   3.175  1.0926  0.0377  0.8922
  143OSM   C12S15616   1.315   5.148   3.284 -0.3760  0.4148  0.4397
  143OSM   H12S15617   1.414   5.183   3.320 -0.0668 -0.0312  0.0352
  143OSM   H12T15618   1.329   5.038   3.280  1.6684  0.5969  1.2979
  143OSM   C13S15619   1.209   5.165   3.393 -0.4984 -0.7306  0.3881
  143OSM   H13S15620   1.105   5.136   3.365 -0.0840 -0.1878 -1.9075
  143OSM   H13T15621   1.201   5.276   3.394  0.6441 -0.6167  1.8964
  143OSM   C14S15622   1.246   5.100   3.523 -0.3706  0.2312 -0.1473
  143OSM   H14S15623   1.270   4.993   3.506  1.2247  0.0190  2.7240
  143OSM   H14T15624   1.158   5.095   3.591 -0.8327 -0.4917 -0.7844
  143OSM   C15S15625   1.355   5.177   3.598 -0.0724  0.7541 -0.1314
  143OSM   H15S15626   1.313   5.280   3.608  0.8198  0.9603  1.9171
  143OSM   H15T15627   1.446   5.178   3.533 -0.8540 -0.3541 -1.2979
  143OSM   C16S15628   1.377   5.103   3.728 -0.8719 -0.5444 -0.4944
  143OSM   H16S15629   1.387   4.996   3.702 -2.2829 -0.9650  0.5251
  143OSM   H16T15630   1.287   5.118   3.791  0.1711  1.1670  0.6796
  143OSM   C17S15631   1.506   5.155   3.807  0.0492  0.0347  0.1593
  143OSM   H17S15632   1.493   5.263   3.829 -0.3009 -0.0486  0.3627
  143OSM   H17T15633   1.593   5.133   3.742 -0.6752 -0.3316 -0.7006
  143OSM   C18S15634   1.511   5.078   3.940 -0.2368 -0.0281 -0.2690
  143OSM   H18S15635   1.609   5.092   3.990 -0.7380  2.2208  0.1807
  143OSM   H18T15636   1.484   4.971   3.926 -1.3146 -0.0301  1.5025
  143OSM   H18U15637   1.431   5.116   4.007  1.0735 -0.8187  1.8322
  143OSM    C1F15638   1.005   5.163   2.202  0.7428  0.0308 -0.0144
  143OSM     OF15639   0.988   5.059   2.130  0.1128  0.0183 -0.7959
  143OSM    C2F15640   0.899   5.197   2.298  0.1319 -0.4422  0.6925
  143OSM    H2F15641   0.808   5.211   2.236  0.7931 -0.5881 -0.3330
  143OSM    H2G15642   0.919   5.287   2.360  1.1013  0.6730 -1.1459
  143OSM    C3F15643   0.871   5.077   2.395  0.4997  0.0254 -0.3909
  143OSM    H3F15644   0.968   5.033   2.425 -0.8136 -2.6785  0.2119
  143OSM    H3G15645   0.820   4.988   2.350 -2.3034  1.1865  0.2593
  143OSM    C4F15646   0.791   5.121   2.519  0.2502 -1.0198  0.1743
  143OSM    H4F15647   0.840   5.199   2.582  1.0821 -1.6121  0.2727
  143OSM    H4G15648   0.776   5.032   2.584 -0.2940  0.4062  2.0973
  143OSM    C5F15649   0.655   5.191   2.500 -0.0558  0.1065 -0.3964
  143OSM    H5F15650   0.603   5.146   2.413  0.9398  1.4810 -1.7451
  143OSM    H5G15651   0.669   5.294   2.461  2.7187  0.0155  0.1504
  143OSM    C6F15652   0.572   5.176   2.624  0.1406 -0.3492  0.4882
  143OSM    H6F15653   0.559   5.066   2.621  0.3292 -0.3527 -0.7854
  143OSM    H6G15654   0.472   5.221   2.610  0.8966  0.7300 -2.1525
  143OSM    C7F15655   0.625   5.213   2.764 -0.3347 -0.5359  0.0020
  143OSM    H7F15656   0.652   5.319   2.750 -0.3328 -0.8171 -2.6640
  143OSM    H7G15657   0.723   5.168   2.791 -0.4750 -0.8892 -0.0696
  143OSM    C8F15658   0.545   5.191   2.894 -0.5376 -0.2760  1.1976
  143OSM    H8F15659   0.600   5.243   2.974 -0.4946  0.3685  0.7547
  143OSM    H8G15660   0.546   5.084   2.924 -0.1210 -1.4331 -2.4479
  143OSM    C9F15661   0.402   5.240   2.903  0.1581 -0.0090 -0.2943
  143OSM    H9F15662   0.379   5.318   2.828  0.5869  1.7433  1.3114
  143OSM   C10F15663   0.315   5.193   2.998  0.2891  0.0665 -0.4392
  143OSM   H10F15664   0.208   5.217   3.000 -0.4797 -2.7246 -2.1349
  143OSM   C11F15665   0.333   5.093   3.106 -0.0626  0.5527  0.1940
  143OSM   H11F15666   0.417   5.025   3.080  0.1886  2.0337 -3.5844
  143OSM   H11G15667   0.240   5.035   3.118 -0.4641  1.0654 -0.3492
  143OSM   C12F15668   0.367   5.156   3.248 -0.4983  0.0203  0.1653
  143OSM   H12F15669   0.461   5.213   3.233  0.4785 -1.5506  0.0158
  143OSM   H12G15670   0.384   5.077   3.325  2.4991  0.3986  0.0108
  143OSM   C13F15671   0.258   5.249   3.306 -0.1552 -0.5055 -0.6150
  143OSM   H13F15672   0.161   5.201   3.332 -0.6132  0.4455 -0.5252
  143OSM   H13G15673   0.231   5.327   3.231  4.7091  1.1137 -1.0062
  143OSM   C14F15674   0.307   5.314   3.436 -0.1764 -0.1689 -0.5291
  143OSM   H14F15675   0.233   5.391   3.464  1.1050  1.0154 -0.3152
  143OSM   H14G15676   0.407   5.363   3.428  0.3418 -1.1246 -0.1376
  143OSM   C15F15677   0.316   5.209   3.544  0.1593 -0.8321 -0.6876
  143OSM   H15F15678   0.424   5.196   3.569  0.1454 -0.8736 -0.6492
  143OSM   H15G15679   0.289   5.109   3.506  1.1433 -2.1739  1.9214
  143OSM   C16F15680   0.245   5.240   3.675  0.7142  0.1332  0.8274
  143OSM   H16F15681   0.215   5.146   3.726 -0.7239  0.1784  0.1212
  143OSM   H16G15682   0.142   5.277   3.655 -0.0484 -2.2334  0.0478
  143OSM   C17F15683   0.321   5.343   3.759  0.2192  0.8339  0.3877
  143OSM   H17F15684   0.318   5.430   3.690  0.0355 -1.3144 -2.4810
  143OSM   H17G15685   0.428   5.313   3.767 -0.0344  0.1920  1.5435
  143OSM   C18F15686   0.258   5.376   3.892 -0.5530  0.1476  0.0062
  143OSM   H18F15687   0.250   5.295   3.967 -0.2985 -0.0174 -0.1433
  143OSM   H18G15688   0.152   5.406   3.880 -0.3788  0.8665  0.2048
  143OSM   H18H15689   0.321   5.454   3.940 -0.8935  1.3465 -1.4071
  144OSM      N15690   6.488   5.606   2.265  0.2139 -0.2214  0.0741
  144OSM    C1515691   6.458   5.493   2.166 -0.9356 -0.4025 -0.3473
  144OSM   H15A15692   6.516   5.499   2.075  0.1710  0.1840  0.3782
  144OSM   H15B15693   6.355   5.498   2.134 -0.8873  4.7247 -0.6017
  144OSM   H15C15694   6.469   5.397   2.213 -1.3655  0.1595  0.9497
  144OSM    C1415695   6.637   5.618   2.293  0.4912  0.0283 -0.4328
  144OSM   H14A15696   6.658   5.717   2.329 -0.9659  0.0709  0.3652
  144OSM   H14B15697   6.689   5.599   2.200 -2.2439 -1.0511 -1.8611
  144OSM   H14C15698   6.678   5.546   2.363  1.6623 -1.0380 -2.1110
  144OSM    C1315699   6.446   5.725   2.195  0.5649  0.1704 -0.4980
  144OSM   H13A15700   6.460   5.814   2.255 -2.5670  0.5979 -0.2281
  144OSM   H13B15701   6.342   5.723   2.164  0.1973 -0.8170  0.7501
  144OSM   H13C15702   6.504   5.743   2.105 -1.4014  1.8322 -1.5317
  144OSM    C1215703   6.414   5.591   2.394 -0.0551  0.0353  0.2782
  144OSM   H12A15704   6.446   5.504   2.450  0.9071  0.3898  0.3012
  144OSM   H12B15705   6.311   5.574   2.366 -0.0420 -0.2658  0.4066
  144OSM    C1115706   6.400   5.714   2.483 -0.1427  0.5973  0.3270
  144OSM   H11A15707   6.491   5.775   2.505  0.8441  0.2106 -2.3510
  144OSM   H11B15708   6.370   5.673   2.582 -0.6923 -1.2839 -0.5746
  144OSM      P15709   6.157   5.792   2.433  0.2246 -0.1507  0.0807
  144OSM    O1315710   6.095   5.925   2.402  0.3430  0.6754  0.6672
  144OSM    O1415711   6.121   5.679   2.345 -0.3312  0.3584  0.1908
  144OSM    O1115712   6.129   5.755   2.583  0.2735 -0.5819 -0.8697
  144OSM    O1215713   6.308   5.808   2.438  0.1516  0.2593  0.3392
  144OSM    C1S15714   6.149   5.845   2.692  0.0146  0.5008 -0.0887
  144OSM    H1S15715   6.068   5.921   2.693 -0.8863 -0.3545 -1.8954
  144OSM    H1T15716   6.254   5.879   2.694  0.5823 -0.7268 -3.0056
  144OSM     NF15717   6.142   5.869   2.930 -0.0482  0.4117  0.9134
  144OSM    HNF15718   6.230   5.892   2.971  0.1354  0.0496  0.7252
  144OSM    C2S15719   6.133   5.771   2.825 -0.3429 -0.8947 -0.0913
  144OSM    H2S15720   6.028   5.740   2.807 -0.6659  1.0747 -2.0195
  144OSM    C3S15721   6.230   5.652   2.834  0.0053 -0.5316 -0.3523
  144OSM    H3S15722   6.337   5.683   2.833  0.5878 -2.4283 -0.2523
  144OSM     O315723   6.223   5.563   2.722  0.1268  0.3376  0.6147
  144OSM    HO315724   6.161   5.603   2.661 -0.0674  0.3444  0.8151
  144OSM    C4S15725   6.193   5.576   2.954 -0.1378  0.2536 -0.4102
  144OSM    H4S15726   6.163   5.473   2.933  1.2131 -0.1349 -0.4999
  144OSM    C5S15727   6.251   5.592   3.074  0.1011  0.3628 -0.3138
  144OSM    H5S15728   6.320   5.677   3.081 -0.6940  0.9292  0.9580
  144OSM    C6S15729   6.238   5.508   3.198 -0.2408  0.1261 -0.5994
  144OSM    H6S15730   6.336   5.497   3.248 -0.8403 -0.1964  0.5498
  144OSM    H6T15731   6.201   5.406   3.176 -1.0122  0.4355 -0.8040
  144OSM    C7S15732   6.162   5.572   3.318  0.1971  0.7291 -0.2733
  144OSM    H7S15733   6.060   5.528   3.320  0.0784  0.9232 -1.3164
  144OSM    H7T15734   6.147   5.680   3.297 -0.7126  1.0593  1.8383
  144OSM    C8S15735   6.238   5.570   3.453 -0.8244  0.6458  0.5510
  144OSM    H8S15736   6.326   5.638   3.459 -1.1717  1.0402  1.3442
  144OSM    H8T15737   6.279   5.467   3.463  4.1397  2.0289 -2.2378
  144OSM    C9S15738   6.151   5.611   3.576  0.5198  0.0110  0.0183
  144OSM    H9S15739   6.053   5.559   3.576 -0.2736  1.4538 -0.3540
  144OSM    H9T15740   6.118   5.716   3.559 -1.1309 -0.4189  0.4038
  144OSM   C10S15741   6.220   5.591   3.712 -0.1977  0.2286 -0.6502
  144OSM   H10S15742   6.328   5.614   3.706 -0.1523  0.2386  0.1574
  144OSM   H10T15743   6.214   5.486   3.749  0.8502  0.6264  0.6998
  144OSM   C11S15744   6.163   5.686   3.822 -0.3200  0.6578  1.2893
  144OSM   H11S15745   6.052   5.682   3.814 -0.1769 -1.9706 -0.4206
  144OSM   H11T15746   6.192   5.791   3.799 -2.8997  1.2307  0.3426
  144OSM   C12S15747   6.202   5.649   3.958  0.3502 -0.0693 -0.2061
  144OSM   H12S15748   6.304   5.691   3.966  0.7144 -1.2308  1.8691
  144OSM   H12T15749   6.212   5.538   3.954  1.7387 -0.1249  2.5344
  144OSM   C13S15750   6.104   5.689   4.070  0.3641 -1.3469  0.4071
  144OSM   H13S15751   6.009   5.633   4.053  0.4369 -1.1377 -0.7536
  144OSM   H13T15752   6.069   5.795   4.067  2.0840 -0.6564  2.3002
  144OSM   C14S15753   6.170   5.657   4.201  0.4833  0.2542  0.6778
  144OSM   H14S15754   6.227   5.748   4.227 -0.7970  0.6278  2.3943
  144OSM   H14T15755   6.232   5.566   4.185  1.3685  1.1391 -1.1197
  144OSM   C15S15756   6.062   5.647   4.322  0.6042 -0.7363 -0.1871
  144OSM   H15S15757   6.008   5.550   4.328  1.9758 -1.4401  1.7865
  144OSM   H15T15758   5.987   5.728   4.310  0.4954 -0.3989  2.2338
  144OSM   C16S15759   6.123   5.671   4.462 -0.4694 -0.1595 -0.3997
  144OSM   H16S15760   6.038   5.650   4.530  0.6069 -3.0092  0.1839
  144OSM   H16T15761   6.154   5.778   4.474 -1.6629  0.1565  0.0327
  144OSM   C17S15762   6.243   5.582   4.496  0.0297  0.1965 -0.2114
  144OSM   H17S15763   6.333   5.627   4.450 -0.0183  0.2879 -0.2156
  144OSM   H17T15764   6.240   5.485   4.441  0.0737 -0.0266  0.1783
  144OSM   C18S15765   6.260   5.560   4.645  0.4278 -0.2137 -0.0722
  144OSM   H18S15766   6.163   5.527   4.687 -1.3929  1.9422 -2.2718
  144OSM   H18T15767   6.302   5.646   4.701  0.3937  0.6799 -1.3785
  144OSM   H18U15768   6.331   5.475   4.653 -0.1486 -0.6701  0.2416
  144OSM    C1F15769   6.038   5.942   2.962  0.1572  0.7075 -0.5576
  144OSM     OF15770   5.950   5.969   2.885 -0.3767 -0.7924  0.0518
  144OSM    C2F15771   6.039   6.001   3.106  0.1553  0.1487 -0.2937
  144OSM    H2F15772   6.123   6.073   3.113 -0.1561  0.4473  0.4287
  144OSM    H2G15773   6.060   5.911   3.169  1.6211  1.0410  0.5410
  144OSM    C3F15774   5.904   6.058   3.159  0.1044  0.5360  0.3188
  144OSM    H3F15775   5.823   5.983   3.147 -0.4197  0.5219  3.1789
  144OSM    H3G15776   5.877   6.151   3.104 -3.0596 -0.8114 -0.6311
  144OSM    C4F15777   5.908   6.101   3.310  0.3194  0.2124  0.7050
  144OSM    H4F15778   5.808   6.141   3.335 -0.2994  1.2545 -2.8189
  144OSM    H4G15779   5.963   6.197   3.327 -0.7277  0.9802 -0.0598
  144OSM    C5F15780   5.943   5.997   3.405  0.3973  0.1361 -0.3219
  144OSM    H5F15781   6.054   5.987   3.411  0.4717  1.6711  2.7431
  144OSM    H5G15782   5.900   5.901   3.367 -0.3339  1.1204 -2.0961
  144OSM    C6F15783   5.898   6.013   3.548  0.1365 -0.3697  0.5237
  144OSM    H6F15784   5.787   6.014   3.552  0.0980  2.6283  2.0345
  144OSM    H6G15785   5.916   6.119   3.576 -0.2267  0.1826 -1.2225
  144OSM    C7F15786   5.946   5.899   3.640  0.0795  0.0227  0.3116
  144OSM    H7F15787   6.054   5.891   3.617  0.0498  0.6777 -0.0788
  144OSM    H7G15788   5.896   5.803   3.615  1.5286 -2.0469  4.4089
  144OSM    C8F15789   5.923   5.940   3.791  0.5478  0.2946 -0.9016
  144OSM    H8F15790   5.906   6.049   3.801  2.8301  0.6959 -0.8787
  144OSM    H8G15791   6.017   5.914   3.846 -0.3640  1.3089  1.2497
  144OSM    C9F15792   5.794   5.877   3.839  0.2018 -0.9096  0.1517
  144OSM    H9F15793   5.748   5.811   3.764 -0.4857 -2.9578  2.2475
  144OSM   C10F15794   5.739   5.881   3.964 -0.2335  0.3072 -1.0492
  144OSM   H10F15795   5.643   5.830   3.983  0.0377 -0.3118 -1.2872
  144OSM   C11F15796   5.801   5.948   4.081  0.4818  0.5456 -0.3850
  144OSM   H11F15797   5.818   6.055   4.055  0.6993  0.7017  0.3725
  144OSM   H11G15798   5.903   5.906   4.094 -0.0722 -1.4171 -1.9711
  144OSM   C12F15799   5.725   5.937   4.211 -0.0257  0.8107  0.1110
  144OSM   H12F15800   5.630   5.994   4.208 -0.5813 -0.1168 -1.1277
  144OSM   H12G15801   5.788   5.993   4.283 -0.0204  0.9574 -0.0066
  144OSM   C13F15802   5.690   5.793   4.260 -0.4844 -0.1119  0.2181
  144OSM   H13F15803   5.761   5.717   4.222 -1.7943 -1.8899  1.1756
  144OSM   H13G15804   5.586   5.762   4.235  0.1431 -2.3510  0.1785
  144OSM   C14F15805   5.691   5.777   4.417  0.1808  0.5634  0.6020
  144OSM   H14F15806   5.797   5.786   4.449  0.9997 -0.5466 -1.6034
  144OSM   H14G15807   5.659   5.671   4.430 -0.3615  0.5976 -0.3696
  144OSM   C15F15808   5.603   5.879   4.486  0.2541  0.8439  0.6183
  144OSM   H15F15809   5.513   5.881   4.421 -0.0528 -1.2169  0.8954
  144OSM   H15G15810   5.651   5.978   4.472  0.6901  0.3932 -1.5328
  144OSM   C16F15811   5.590   5.851   4.633 -0.7978 -0.4382  0.5270
  144OSM   H16F15812   5.683   5.817   4.684 -0.7370 -1.1570 -0.0547
  144OSM   H16G15813   5.519   5.768   4.654 -0.2861 -0.6376  1.5459
  144OSM   C17F15814   5.541   5.982   4.704 -0.7981  0.2291  0.0867
  144OSM   H17F15815   5.503   5.947   4.802  2.3278 -0.2716  1.2375
  144OSM   H17G15816   5.451   6.034   4.665 -1.4020  1.1114  2.4689
  144OSM   C18F15817   5.650   6.081   4.724 -0.2724  0.1411 -0.1474
  144OSM   H18F15818   5.684   6.122   4.627  1.9450 -1.7707 -0.2434
  144OSM   H18G15819   5.738   6.027   4.764 -1.4956 -0.0963  2.4248
  144OSM   H18H15820   5.627   6.155   4.805 -1.2519  0.9213 -1.0931
  145SAPE     N15821   0.155   6.063   6.782 -0.0182  0.4240  0.5968
  145SAPE   HN115822   0.238   6.015   6.823  1.0127  1.5934 -0.0312
  145SAPE   HN215823   0.174   6.161   6.814 -1.9265  0.6489  1.1983
  145SAPE   HN315824   0.073   6.030   6.836 -0.4136  0.7942  0.2345
  145SAPE   C1215825   0.161   6.047   6.634  0.3086  0.4934  0.0510
  145SAPE  H12A15826   0.107   6.132   6.586 -1.5553 -1.8162 -2.1643
  145SAPE  H12B15827   0.110   5.951   6.614  0.1390 -0.0513  2.7785
  145SAPE   C1115828   0.307   6.038   6.585 -0.1367 -0.1533  0.3597
  145SAPE  H11A15829   0.367   6.125   6.620  0.6319 -0.1343 -0.9354
  145SAPE  H11B15830   0.293   6.053   6.475 -0.2717  0.1388  0.4160
  145SAPE     P15831   0.480   5.909   6.722  0.1385 -0.1063  0.0633
  145SAPE   O1315832   0.404   5.966   6.832 -0.3379 -0.2683 -0.0692
  145SAPE   O1415833   0.543   5.772   6.745 -0.5020 -0.1145  0.9335
  145SAPE   O1215834   0.365   5.904   6.616  0.2418 -0.1940  0.0181
  145SAPE   O1115835   0.595   6.011   6.665  0.5458  0.2172  0.1570
  145SAPE    C115836   0.701   5.957   6.583 -0.5425  0.2928 -0.7738
  145SAPE    HA15837   0.784   6.030   6.592  1.3995 -2.0118  2.3957
  145SAPE    HB15838   0.748   5.866   6.626 -0.1129  1.0243  0.3440
  145SAPE    C215839   0.655   5.949   6.432  0.2880 -0.0785 -0.2493
  145SAPE    HS15840   0.596   6.042   6.421 -0.4251 -0.3234  1.2369
  145SAPE   O2115841   0.581   5.829   6.413 -0.3884  0.2883 -0.4639
  145SAPE   C2115842   0.487   5.831   6.328  0.2878  0.2576  0.1084
  145SAPE   O2215843   0.439   5.931   6.274  0.2559 -0.1664 -0.0214
  145SAPE   C2215844   0.438   5.689   6.310  0.1959  0.1634  0.1439
  145SAPE   H2R15845   0.533   5.632   6.304  0.8172  1.1697  0.1354
  145SAPE   H2S15846   0.379   5.667   6.402 -2.4319  2.5341 -0.8242
  145SAPE    C315847   0.781   5.952   6.343  0.3148  0.0057 -1.0033
  145SAPE    HX15848   0.833   5.862   6.382  0.5619  0.4655 -0.2450
  145SAPE    HY15849   0.852   6.036   6.364  2.4319 -2.2070  1.5603
  145SAPE   O3115850   0.748   5.935   6.210  0.9527  0.4314  0.0696
  145SAPE   C3115851   0.695   6.048   6.157  0.0751 -0.3873  0.2968
  145SAPE   O3215852   0.678   6.151   6.218 -0.2819  0.0192 -0.2687
  145SAPE   C3215853   0.657   6.022   6.005 -0.0196  0.1917 -0.5425
  145SAPE   H2X15854   0.548   6.002   6.011  0.5092 -2.6124  1.4913
  145SAPE   H2Y15855   0.701   5.927   5.969  2.0784  0.8197  0.2001
  145SAPE   C2315856   0.351   5.666   6.184  0.0163 -0.2979  0.9345
  145SAPE   H3R15857   0.255   5.722   6.189 -0.3703 -0.9637  1.1993
  145SAPE   H3S15858   0.338   5.556   6.177 -1.3834 -0.1119  0.1354
  145SAPE   C2415859   0.418   5.705   6.048  0.0927  0.5899 -0.3202
  145SAPE   H4R15860   0.424   5.816   6.043  1.0575  0.6566  1.5236
  145SAPE   H4S15861   0.352   5.682   5.962 -0.8903  3.2017 -0.3637
  145SAPE   C2515862   0.546   5.616   6.032  0.3885  0.3731 -0.1175
  145SAPE   H5R15863   0.622   5.638   6.109  2.3997  0.4335 -1.9952
  145SAPE   C2615864   0.589   5.543   5.929  0.1036  0.1905  0.6992
  145SAPE   H6R15865   0.681   5.489   5.953  1.2327  2.4482  1.7458
  145SAPE   C2715866   0.525   5.504   5.795 -0.1945 -0.0139  0.1739
  145SAPE   H7R15867   0.593   5.424   5.761  0.1728 -0.3743  1.6749
  145SAPE   H7S15868   0.538   5.588   5.724  0.3352  1.6850  2.1601
  145SAPE   C2815869   0.380   5.463   5.786 -0.3309  0.2266 -0.0604
  145SAPE   H8R15870   0.333   5.462   5.886  2.5764 -0.1105  1.4191
  145SAPE   C2915871   0.317   5.415   5.680  0.2951  0.2455 -0.0164
  145SAPE   H9R15872   0.217   5.370   5.690  0.5631 -0.3780 -0.0850
  145SAPE  C21015873   0.378   5.398   5.546  0.2802 -0.2843  1.0335
  145SAPE  H10R15874   0.344   5.295   5.521  0.8511  0.1860 -2.1650
  145SAPE  H10S15875   0.489   5.391   5.551  0.4716  0.3603 -1.2675
  145SAPE  C21115876   0.330   5.493   5.438 -0.6393 -0.2764 -0.1733
  145SAPE  H11R15877   0.323   5.598   5.471 -1.0980 -0.1800 -0.5565
  145SAPE  C21215878   0.301   5.457   5.314  0.2187 -0.2565 -0.0362
  145SAPE  H12R15879   0.269   5.532   5.241 -0.8934 -0.6741  0.0156
  145SAPE  C21315880   0.324   5.321   5.258 -0.0160  0.2851  1.0770
  145SAPE  H13R15881   0.223   5.275   5.258  0.0003  0.2447  2.0773
  145SAPE  H13S15882   0.393   5.262   5.322 -0.5618 -1.3192  0.2355
  145SAPE  C21415883   0.380   5.312   5.115 -0.1977  0.4801  0.1058
  145SAPE  H14R15884   0.489   5.296   5.108 -0.5044 -1.5909 -0.6162
  145SAPE  C21515885   0.314   5.325   5.001  0.0169  0.1811  1.1784
  145SAPE  H15R15886   0.361   5.327   4.902 -1.8654  0.8682  0.2483
  145SAPE  C21615887   0.168   5.346   4.992  0.2342 -0.2301  0.1978
  145SAPE  H16R15888   0.146   5.452   4.968 -1.6916 -0.7363 -0.4958
  145SAPE  H16S15889   0.121   5.327   5.092  1.1029 -0.1647  0.6259
  145SAPE  C21715890   0.105   5.242   4.894 -0.8121 -0.0666 -0.3663
  145SAPE  H17R15891  -0.006   5.249   4.892 -0.8054  0.1818 -2.9068
  145SAPE  H17S15892   0.127   5.134   4.911  0.4390  0.3922  1.1426
  145SAPE  C21815893   0.157   5.261   4.749 -0.0334  0.0490 -0.0188
  145SAPE  H18R15894   0.265   5.236   4.756  0.1957  0.5496 -1.4643
  145SAPE  H18S15895   0.143   5.367   4.721 -2.0534 -0.1198  0.2009
  145SAPE  C21915896   0.089   5.179   4.642 -0.3510 -0.4091 -0.0621
  145SAPE  H19R15897  -0.020   5.200   4.645 -0.4297 -0.5557 -1.2940
  145SAPE  H19S15898   0.107   5.072   4.668  2.6580  0.5527  2.3860
  145SAPE  C22015899   0.145   5.198   4.502 -0.4296 -0.4111 -0.4001
  145SAPE  H20R15900   0.078   5.145   4.430 -0.0576 -2.3798  0.6277
  145SAPE  H20S15901   0.248   5.164   4.480 -0.9774 -1.2053 -1.9325
  145SAPE  H20T15902   0.146   5.307   4.483 -0.4128  0.4372  3.6191
  145SAPE   C3315903   0.692   6.137   5.911  0.3912  0.5208 -0.1786
  145SAPE   H3X15904   0.803   6.134   5.903  0.6687 -0.4019  2.8485
  145SAPE   H3Y15905   0.656   6.227   5.964 -0.9593 -1.3393  2.2403
  145SAPE   C3415906   0.618   6.121   5.778  0.3905  0.0579  0.1345
  145SAPE   H4X15907   0.656   6.209   5.722 -1.0271  0.0476 -0.9031
  145SAPE   H4Y15908   0.509   6.126   5.800  0.5048  0.3662  0.6303
  145SAPE   C3515909   0.644   5.992   5.702 -0.5693 -0.3513 -0.6961
  145SAPE   H5X15910   0.602   5.903   5.753  0.6575 -0.7953 -0.4274
  145SAPE   H5Y15911   0.754   5.977   5.695 -0.3321  1.6924 -2.2396
  145SAPE   C3615912   0.606   6.004   5.548  0.4413  0.6145 -0.7734
  145SAPE   H6X15913   0.682   6.077   5.511  0.9791  0.3923 -0.1340
  145SAPE   H6Y15914   0.499   6.033   5.543  0.7818  3.0906  2.6241
  145SAPE   C3715915   0.618   5.867   5.473  0.5904 -0.0237 -0.5954
  145SAPE   H7X15916   0.544   5.788   5.500  0.0791  0.3248 -0.9515
  145SAPE   H7Y15917   0.713   5.814   5.496  0.4077  0.1980  0.7067
  145SAPE   C3815918   0.598   5.887   5.325  0.3148  0.4732  0.3442
  145SAPE   H8X15919   0.648   5.963   5.261  1.4431 -0.9754 -0.5593
  145SAPE   H8Y15920   0.492   5.923   5.321  0.3855  0.7033  0.5055
  145SAPE   C3915921   0.606   5.752   5.259 -0.0528  0.1136  0.3702
  145SAPE   H9X15922   0.536   5.681   5.307 -1.5254  0.7483 -0.7541
  145SAPE   H9Y15923   0.711   5.717   5.252 -0.0286  0.1408  0.5942
  145SAPE  C31015924   0.549   5.771   5.115 -0.2709  0.9211 -0.1322
  145SAPE  H10X15925   0.618   5.845   5.069  2.1531  1.3028  3.6581
  145SAPE  H10Y15926   0.442   5.801   5.121  0.0112  2.2567 -1.2663
  145SAPE  C31115927   0.551   5.637   5.032 -0.1391 -0.1820  0.2113
  145SAPE  H11X15928   0.493   5.560   5.086  2.9202 -3.3683 -0.6487
  145SAPE  H11Y15929   0.658   5.608   5.021  0.3069  1.5765 -0.4764
  145SAPE  C31215930   0.507   5.654   4.879  0.6846 -0.2055 -0.6803
  145SAPE  H12X15931   0.412   5.710   4.871 -1.0904 -3.0985 -1.2622
  145SAPE  H12Y15932   0.478   5.553   4.844 -1.4922  0.6295 -1.4143
  145SAPE  C31315933   0.608   5.714   4.785 -0.2570 -0.1092 -0.6259
  145SAPE  H13X15934   0.713   5.688   4.810 -0.1466  0.4937 -0.4595
  145SAPE  H13Y15935   0.596   5.824   4.782 -0.7555 -0.1528 -0.3274
  145SAPE  C31415936   0.596   5.652   4.646 -0.2599 -0.1636  0.4746
  145SAPE  H14X15937   0.497   5.675   4.603  0.7655  0.9759 -1.3931
  145SAPE  H14Y15938   0.605   5.541   4.642 -0.3711 -0.1986  1.0078
  145SAPE  C31515939   0.700   5.716   4.554  0.2635 -0.5056  0.2927
  145SAPE  H15X15940   0.733   5.641   4.479 -0.2404 -0.8736  0.4324
  145SAPE  H15Y15941   0.791   5.750   4.608  1.6478 -0.4269 -1.9711
  145SAPE  C31615942   0.647   5.846   4.480  0.1191 -0.0135 -0.0631
  145SAPE  H16X15943   0.595   5.907   4.557  0.6493 -1.1453  1.2463
  145SAPE  H16Y15944   0.565   5.820   4.410  0.3112  0.0648 -0.3163
  145SAPE  C31715945   0.763   5.921   4.411 -0.4933  0.3007 -0.1957
  145SAPE  H17X15946   0.826   5.847   4.358 -0.0356 -0.6353  1.5927
  145SAPE  H17Y15947   0.831   5.953   4.493  0.6337  1.2013 -1.4305
  145SAPE  C31815948   0.712   6.035   4.317  0.1325 -0.2131 -0.3808
  145SAPE  H18X15949   0.645   5.988   4.241 -0.5211  0.4170 -0.2036
  145SAPE  H18Y15950   0.781   6.112   4.278 -2.9083  2.1437 -1.4523
  145SAPE  H18Z15951   0.651   6.102   4.380  1.5399  0.4271  0.3416
  146SAPE     N15952   3.068   5.172   6.616 -0.7895  0.4903  0.0885
  146SAPE   HN115953   2.988   5.203   6.557  0.6142  4.5249 -0.0409
  146SAPE   HN215954   3.125   5.107   6.559 -2.1988 -2.4703  1.8208
  146SAPE   HN315955   3.034   5.117   6.698 -1.4585 -2.0358 -1.7745
  146SAPE   C1215956   3.137   5.291   6.659  0.2763  0.0107 -0.2133
  146SAPE  H12A15957   3.064   5.350   6.719 -1.8064  0.1256 -2.6594
  146SAPE  H12B15958   3.160   5.348   6.567  0.7210  0.6492  0.2884
  146SAPE   C1115959   3.258   5.261   6.738  0.0346  0.1935  0.1467
  146SAPE  H11A15960   3.318   5.203   6.664 -0.6895 -1.3532  0.7245
  146SAPE  H11B15961   3.231   5.190   6.819 -4.1378  1.2384 -0.0793
  146SAPE     P15962   3.476   5.399   6.802  0.3838 -0.2837  0.0507
  146SAPE   O1315963   3.500   5.504   6.901  0.1940 -0.0242 -0.2547
  146SAPE   O1415964   3.548   5.272   6.809 -0.4861 -0.0674  0.3211
  146SAPE   O1215965   3.320   5.372   6.796 -0.1341 -0.7511  0.1661
  146SAPE   O1115966   3.504   5.470   6.657  0.2213 -0.4929  0.0293
  146SAPE    C115967   3.418   5.568   6.604  0.8090  0.5529  0.3019
  146SAPE    HA15968   3.325   5.520   6.568  0.7994  1.0473 -0.3593
  146SAPE    HB15969   3.388   5.639   6.684  1.0016  1.4219 -0.3859
  146SAPE    C215970   3.494   5.662   6.508 -0.5822 -0.5546 -0.2021
  146SAPE    HS15971   3.439   5.759   6.509  0.4721  0.0516  0.1962
  146SAPE   O2115972   3.505   5.606   6.375  0.0192  0.5057  0.2200
  146SAPE   C2115973   3.393   5.586   6.304 -0.4839 -0.4874  0.4251
  146SAPE   O2215974   3.283   5.627   6.341  0.4788 -0.5006  0.0925
  146SAPE   C2215975   3.432   5.526   6.167  0.0654 -0.0982  0.0685
  146SAPE   H2R15976   3.337   5.481   6.130 -0.2616  1.3016 -0.8757
  146SAPE   H2S15977   3.475   5.603   6.100  1.0820  0.0215  0.8370
  146SAPE    C315978   3.631   5.701   6.580 -0.1010 -0.4165  0.4127
  146SAPE    HX15979   3.689   5.616   6.621  1.1526 -1.8923 -3.8690
  146SAPE    HY15980   3.595   5.750   6.673  1.1857 -0.9443  1.2133
  146SAPE   O3115981   3.714   5.784   6.496 -0.3760 -0.1416 -0.2053
  146SAPE   C3115982   3.805   5.707   6.432  0.6507 -0.0596  0.2304
  146SAPE   O3215983   3.818   5.591   6.433 -0.4826  0.9967  0.4121
  146SAPE   C3215984   3.880   5.795   6.335 -1.2134  0.4946  0.5402
  146SAPE   H2X15985   3.971   5.827   6.390 -1.3129  2.1430 -0.1757
  146SAPE   H2Y15986   3.825   5.891   6.323 -1.4365  0.5323  1.7692
  146SAPE   C2315987   3.529   5.410   6.177 -0.4710 -0.1402 -0.2474
  146SAPE   H3R15988   3.476   5.330   6.234 -1.8423  0.9031  0.0102
  146SAPE   H3S15989   3.618   5.446   6.232  0.5391 -0.1343 -1.8257
  146SAPE   C2415990   3.584   5.364   6.040 -0.3557 -0.2647  0.2174
  146SAPE   H4R15991   3.667   5.291   6.052  0.4750  0.4051 -1.2421
  146SAPE   H4S15992   3.635   5.442   5.979 -0.4230 -1.3506 -1.3000
  146SAPE   C2515993   3.474   5.305   5.962 -0.3212  1.5644  0.9519
  146SAPE   H5R15994   3.397   5.254   6.023  1.4370 -1.5582  0.7659
  146SAPE   C2615995   3.468   5.295   5.832  0.0599 -0.1702 -0.4163
  146SAPE   H6R15996   3.394   5.232   5.780 -1.6824  0.4396  1.2275
  146SAPE   C2715997   3.575   5.360   5.740 -0.3297 -0.5774 -0.3606
  146SAPE   H7R15998   3.676   5.346   5.783  0.1423  1.0884 -0.8684
  146SAPE   H7S15999   3.557   5.469   5.752  0.1854 -0.5635  0.3398
  146SAPE   C2816000   3.579   5.316   5.594  1.2734  0.2312  0.2596
  146SAPE   H8R16001   3.663   5.248   5.572  0.9275  0.1886 -1.0142
  146SAPE   C2916002   3.502   5.353   5.487  0.9591  0.0346 -0.1955
  146SAPE   H9R16003   3.529   5.314   5.387  1.0325 -2.3237  0.6758
  146SAPE  C21016004   3.384   5.443   5.499 -0.2919  0.1429 -0.4221
  146SAPE  H10R16005   3.412   5.547   5.471  2.2890 -0.5000 -0.4560
  146SAPE  H10S16006   3.346   5.455   5.602 -1.1720  0.6240 -0.7859
  146SAPE  C21116007   3.284   5.384   5.403 -0.1951  0.7145  0.2968
  146SAPE  H11R16008   3.219   5.311   5.452  0.9332 -0.8939 -0.5162
  146SAPE  C21216009   3.266   5.401   5.272  0.3748 -0.4153 -0.6249
  146SAPE  H12R16010   3.198   5.326   5.229  0.1872 -1.2473  1.0565
  146SAPE  C21316011   3.341   5.495   5.177  0.0073  0.5371  0.0038
  146SAPE  H13R16012   3.429   5.445   5.132 -1.2096  0.2462 -2.1800
  146SAPE  H13S16013   3.381   5.589   5.222  1.7984 -0.4013  0.4669
  146SAPE  C21416014   3.239   5.529   5.069  0.5251  0.2992  0.4232
  146SAPE  H14R16015   3.152   5.590   5.100  0.3203  1.2666 -1.8868
  146SAPE  C21516016   3.244   5.497   4.936 -0.2759 -0.0901 -0.4738
  146SAPE  H15R16017   3.171   5.529   4.861 -0.7756  0.9145  0.4066
  146SAPE  C21616018   3.362   5.430   4.871  0.2879 -0.7886  0.6130
  146SAPE  H16R16019   3.344   5.328   4.830  4.3331 -2.6822  2.9712
  146SAPE  H16S16020   3.435   5.414   4.954  0.8492  1.1125  0.5332
  146SAPE  C21716021   3.450   5.507   4.766  0.0488  0.3020  0.4958
  146SAPE  H17R16022   3.480   5.596   4.826 -0.5449  0.0068  1.2407
  146SAPE  H17S16023   3.398   5.536   4.672 -1.8145 -0.1911  1.3341
  146SAPE  C21816024   3.582   5.440   4.727 -0.9754 -0.0418 -0.1052
  146SAPE  H18R16025   3.633   5.397   4.816  0.4258  0.3426 -0.6805
  146SAPE  H18S16026   3.657   5.514   4.691 -1.2497  0.2395 -0.1034
  146SAPE  C21916027   3.567   5.336   4.611  0.3391 -0.2609 -0.5197
  146SAPE  H19R16028   3.513   5.366   4.519 -0.2191 -3.1219 -1.2226
  146SAPE  H19S16029   3.499   5.259   4.653 -0.6889  0.4936 -0.7804
  146SAPE  C22016030   3.701   5.290   4.559  0.2691 -0.2397  0.4553
  146SAPE  H20R16031   3.699   5.207   4.485  1.8438  2.2501 -2.6009
  146SAPE  H20S16032   3.772   5.266   4.641  0.5734 -0.6535  0.0772
  146SAPE  H20T16033   3.764   5.361   4.503  0.6663 -0.7390  0.2568
  146SAPE   C3316034   3.913   5.726   6.199 -0.1421  0.2210 -0.2727
  146SAPE   H3X16035   3.924   5.617   6.212 -0.7028  0.1882 -0.0194
  146SAPE   H3Y16036   3.999   5.772   6.146 -0.6115  0.0920 -1.1514
  146SAPE   C3416037   3.797   5.752   6.103 -0.2956  0.4081  0.1502
  146SAPE   H4X16038   3.785   5.861   6.087 -0.8894  0.3448  0.1449
  146SAPE   H4Y16039   3.698   5.710   6.134  0.1684  0.7040  2.1799
  146SAPE   C3516040   3.825   5.697   5.963 -0.0020 -0.7524  0.5331
  146SAPE   H5X16041   3.810   5.588   5.953  3.6316 -1.2216 -1.7127
  146SAPE   H5Y16042   3.933   5.711   5.943 -0.4086  0.4359 -1.1128
  146SAPE   C3616043   3.749   5.761   5.850  0.4141 -0.4576 -0.1295
  146SAPE   H6X16044   3.772   5.870   5.843 -0.6423 -0.2030  0.2785
  146SAPE   H6Y16045   3.639   5.757   5.859 -0.0061  2.7584 -2.0220
  146SAPE   C3716046   3.801   5.694   5.720  0.3008  0.0350 -0.6437
  146SAPE   H7X16047   3.764   5.590   5.706 -0.5072  0.2790 -0.4061
  146SAPE   H7Y16048   3.910   5.699   5.738  0.5050 -0.3347 -1.7411
  146SAPE   C3816049   3.755   5.762   5.600 -0.3093 -0.1933  0.7599
  146SAPE   H8X16050   3.757   5.872   5.619  0.7949  0.2463 -1.5522
  146SAPE   H8Y16051   3.650   5.729   5.592  0.1703 -1.5595 -0.1432
  146SAPE   C3916052   3.831   5.711   5.478  0.2478  1.0280 -0.1642
  146SAPE   H9X16053   3.842   5.602   5.491  2.6489  1.4429  2.0239
  146SAPE   H9Y16054   3.928   5.766   5.471  0.0772  1.2139 -1.3529
  146SAPE  C31016055   3.761   5.746   5.348 -0.2789  0.2271  0.3512
  146SAPE  H10X16056   3.764   5.856   5.337 -0.7336  0.3720  1.5527
  146SAPE  H10Y16057   3.652   5.725   5.353 -0.2649  0.2878  1.1976
  146SAPE  C31116058   3.829   5.684   5.230 -0.0097  0.0467 -0.1568
  146SAPE  H11X16059   3.836   5.575   5.252 -0.2736  0.6218  3.2960
  146SAPE  H11Y16060   3.925   5.741   5.227 -1.7858  3.2570 -1.0586
  146SAPE  C31216061   3.748   5.702   5.099  0.1493  0.2331 -0.6970
  146SAPE  H12X16062   3.705   5.805   5.100  0.0200  0.2142  1.7316
  146SAPE  H12Y16063   3.672   5.623   5.084  0.8601 -0.2301 -2.0510
  146SAPE  C31316064   3.845   5.685   4.990 -0.4466  0.0203  0.0869
  146SAPE  H13X16065   3.886   5.581   4.993 -0.6111 -0.0881 -0.9330
  146SAPE  H13Y16066   3.926   5.758   5.011  0.3789 -0.7206 -0.4070
  146SAPE  C31416067   3.786   5.724   4.854  0.0080  0.4650 -0.4745
  146SAPE  H14X16068   3.733   5.822   4.848  0.5716  0.8638  0.7574
  146SAPE  H14Y16069   3.702   5.655   4.831 -0.8699  1.8990 -1.8711
  146SAPE  C31516070   3.887   5.710   4.733  0.3098 -0.3831 -0.6620
  146SAPE  H15X16071   3.824   5.724   4.642 -0.4088 -1.3274 -0.3303
  146SAPE  H15Y16072   3.928   5.607   4.735 -1.2350 -1.0215  0.1365
  146SAPE  C31616073   4.001   5.814   4.726 -0.5252  0.8938  0.4825
  146SAPE  H16X16074   4.078   5.773   4.657 -0.7085  0.9633  0.2338
  146SAPE  H16Y16075   4.041   5.823   4.829  0.2680 -2.3800  0.5706
  146SAPE  C31716076   3.950   5.945   4.651 -0.5535 -0.3514  0.0308
  146SAPE  H17X16077   3.870   5.995   4.711  1.2190  0.0907  2.1474
  146SAPE  H17Y16078   3.909   5.909   4.554 -0.1083 -2.3833  0.5544
  146SAPE  C31816079   4.045   6.060   4.631 -0.1161 -0.2215 -0.1041
  146SAPE  H18X16080   4.113   6.031   4.547  0.2200  0.1117  0.0498
  146SAPE  H18Y16081   4.103   6.072   4.725 -0.7568 -0.7246  0.3606
  146SAPE  H18Z16082   3.989   6.151   4.603 -1.6713 -1.3421 -0.7491
  147SAPE     N16083   5.584   2.627   6.866  0.0111  0.5579  0.0817
  147SAPE   HN116084   5.578   2.683   6.778  2.0140  0.5157 -0.1149
  147SAPE   HN216085   5.552   2.529   6.854  0.5645  0.3227  0.5375
  147SAPE   HN316086   5.508   2.661   6.929  0.1883 -0.4697  0.8817
  147SAPE   C1216087   5.723   2.638   6.923  0.2303  0.0476  0.0733
  147SAPE  H12A16088   5.717   2.581   7.018 -1.8387  1.8878  1.1357
  147SAPE  H12B16089   5.741   2.744   6.949  0.9284 -0.0922  0.1828
  147SAPE   C1116090   5.829   2.587   6.822  0.5376 -0.2267  0.4106
  147SAPE  H11A16091   5.817   2.653   6.733 -0.4649 -0.0188  0.6877
  147SAPE  H11B16092   5.811   2.482   6.792 -0.4435  0.0824 -0.1434
  147SAPE     P16093   6.067   2.701   6.822 -0.1363  0.3868  0.1550
  147SAPE   O1316094   6.017   2.840   6.802  0.5550 -0.1574 -0.0565
  147SAPE   O1416095   6.184   2.683   6.909 -0.4272 -0.4442 -0.4677
  147SAPE   O1216096   5.951   2.612   6.874 -0.1195 -0.3121 -0.5421
  147SAPE   O1116097   6.082   2.630   6.686  0.3629  0.1322 -0.3223
  147SAPE    C116098   6.163   2.514   6.664  0.2107  0.3898  0.0692
  147SAPE    HA16099   6.205   2.473   6.759  1.8810 -0.4658 -0.9838
  147SAPE    HB16100   6.093   2.433   6.635  1.4636 -0.8492  0.3724
  147SAPE    C216101   6.262   2.525   6.551  0.0626 -0.4883 -0.0419
  147SAPE    HS16102   6.350   2.584   6.585  0.6386  0.4478 -2.8613
  147SAPE   O2116103   6.186   2.573   6.442 -0.7558  0.2254 -0.4505
  147SAPE   C2116104   6.198   2.702   6.408 -0.2727  0.2710 -0.2577
  147SAPE   O2216105   6.257   2.788   6.469  0.4686 -0.8686  0.0523
  147SAPE   C2216106   6.133   2.732   6.273 -0.2617  0.0280 -0.9646
  147SAPE   H2R16107   6.219   2.725   6.203  1.8443  0.0108  1.4858
  147SAPE   H2S16108   6.060   2.653   6.244  0.5980 -0.5432 -1.6544
  147SAPE    C316109   6.316   2.386   6.512 -0.2952  0.3037 -0.0769
  147SAPE    HX16110   6.225   2.345   6.463 -1.6548  1.0871  1.6885
  147SAPE    HY16111   6.342   2.332   6.606 -1.1880  0.7915  0.4560
  147SAPE   O3116112   6.423   2.385   6.409  0.0003  0.3863 -0.5516
  147SAPE   C3116113   6.535   2.431   6.450 -0.0891  0.2017  0.3951
  147SAPE   O3216114   6.563   2.449   6.566 -0.1041  0.0847 -0.2798
  147SAPE   C3216115   6.634   2.457   6.332  0.6550 -0.4996  0.5087
  147SAPE   H2X16116   6.707   2.373   6.333  0.6840 -0.5192 -0.9037
  147SAPE   H2Y16117   6.685   2.553   6.353  0.6401 -0.6821  1.4006
  147SAPE   C2316118   6.078   2.882   6.251 -0.6568  0.1397 -0.5971
  147SAPE   H3R16119   6.177   2.933   6.257 -0.3836 -0.4913  0.6407
  147SAPE   H3S16120   6.016   2.900   6.342 -0.6567 -1.8354 -0.1523
  147SAPE   C2416121   6.014   2.908   6.115  0.0655 -0.1355  0.4960
  147SAPE   H4R16122   6.087   2.870   6.040 -0.7525  0.7671 -0.8154
  147SAPE   H4S16123   6.015   3.019   6.106  3.6903 -0.0904 -0.1314
  147SAPE   C2516124   5.876   2.838   6.104 -0.4604  0.3920 -0.9519
  147SAPE   H5R16125   5.809   2.847   6.191  0.8611 -1.4171  0.3057
  147SAPE   C2616126   5.840   2.783   5.983  0.2851 -0.0819  0.6175
  147SAPE   H6R16127   5.745   2.728   5.978  0.5410 -0.8230  2.6823
  147SAPE   C2716128   5.913   2.773   5.853 -0.0254  0.1104 -0.1439
  147SAPE   H7R16129   5.875   2.691   5.789  2.0040 -0.4421 -0.7067
  147SAPE   H7S16130   6.019   2.741   5.865 -0.6456 -1.6050  1.1099
  147SAPE   C2816131   5.920   2.905   5.775 -0.4851 -0.0045  0.3597
  147SAPE   H8R16132   5.961   2.983   5.840  1.3733  0.8465 -1.6995
  147SAPE   C2916133   5.896   2.938   5.645  0.0554 -0.4164  0.2294
  147SAPE   H9R16134   5.914   3.041   5.612  2.7650 -1.5154 -2.0952
  147SAPE  C21016135   5.846   2.851   5.534 -0.1370 -0.2008  0.6355
  147SAPE  H10R16136   5.821   2.916   5.448  2.2901 -0.3114 -0.2138
  147SAPE  H10S16137   5.755   2.792   5.559 -0.3389 -0.1857 -0.0377
  147SAPE  C21116138   5.948   2.749   5.494  0.1914 -0.0624  0.4828
  147SAPE  H11R16139   6.025   2.720   5.568 -1.6707 -0.9674  2.1607
  147SAPE  C21216140   5.947   2.687   5.373  0.0875 -0.0380  0.3673
  147SAPE  H12R16141   6.023   2.610   5.354 -0.8610 -1.4307  1.9528
  147SAPE  C21316142   5.843   2.703   5.263 -0.6983 -0.4788 -0.4709
  147SAPE  H13R16143   5.746   2.725   5.313 -0.2029  0.0021  0.2984
  147SAPE  H13S16144   5.833   2.611   5.202 -1.5317  0.3939 -1.6932
  147SAPE  C21416145   5.882   2.823   5.180 -0.3608  0.9230  0.0049
  147SAPE  H14R16146   5.875   2.921   5.230  0.3415  0.3927  1.1860
  147SAPE  C21516147   5.908   2.820   5.050 -0.3001  0.9892  0.8452
  147SAPE  H15R16148   5.917   2.915   4.996 -2.3670  0.3227 -0.8152
  147SAPE  C21616149   5.905   2.696   4.965 -0.5951  0.3780  0.2968
  147SAPE  H16R16150   5.878   2.736   4.865 -0.0319  1.6608  0.6370
  147SAPE  H16S16151   5.817   2.635   4.995 -0.4499 -0.0726 -0.1704
  147SAPE  C21716152   6.023   2.592   4.946 -0.3385  0.0645 -0.5944
  147SAPE  H17R16153   6.066   2.549   5.039 -0.3912 -0.7045 -0.9163
  147SAPE  H17S16154   6.111   2.633   4.892  1.2705 -0.6464  1.3419
  147SAPE  C21816155   5.978   2.469   4.868 -0.2140  0.4113  0.9449
  147SAPE  H18R16156   5.875   2.439   4.897  0.0780 -1.5339  0.1481
  147SAPE  H18S16157   6.029   2.374   4.895  1.6301 -0.3990 -4.3228
  147SAPE  C21916158   5.979   2.479   4.712 -0.3152 -0.2094  0.2197
  147SAPE  H19R16159   5.922   2.572   4.691 -0.6616 -0.9018 -2.2129
  147SAPE  H19S16160   5.937   2.384   4.673 -0.1452  1.1484 -3.7444
  147SAPE  C22016161   6.114   2.502   4.650 -0.2629 -0.0716  1.1806
  147SAPE  H20R16162   6.175   2.412   4.672 -0.1423 -0.3544 -0.1876
  147SAPE  H20S16163   6.172   2.591   4.683 -0.2442 -0.4041  2.0660
  147SAPE  H20T16164   6.095   2.504   4.540 -0.8882 -0.4904  1.2785
  147SAPE   C3316165   6.563   2.454   6.193 -0.7413 -0.9573 -0.1088
  147SAPE   H3X16166   6.487   2.535   6.189 -0.2174 -0.4722 -0.5988
  147SAPE   H3Y16167   6.516   2.353   6.192 -0.5897 -1.0689  1.8770
  147SAPE   C3416168   6.673   2.466   6.078  0.1615  0.8565 -0.5026
  147SAPE   H4X16169   6.753   2.390   6.090 -2.3508 -1.8267  0.6499
  147SAPE   H4Y16170   6.705   2.573   6.079 -1.4471  1.3868  1.5259
  147SAPE   C3516171   6.622   2.438   5.932  0.1858 -0.4634 -0.1260
  147SAPE   H5X16172   6.532   2.503   5.925  0.8969  0.9389  2.4900
  147SAPE   H5Y16173   6.585   2.334   5.920 -0.7496 -0.0416 -1.0758
  147SAPE   C3616174   6.743   2.468   5.837  0.6355 -0.6788  0.6462
  147SAPE   H6X16175   6.833   2.413   5.872 -1.0958 -3.2938  1.3844
  147SAPE   H6Y16176   6.759   2.577   5.844 -1.7558 -0.1977 -0.3006
  147SAPE   C3716177   6.710   2.433   5.686 -0.2796 -0.3950 -0.0030
  147SAPE   H7X16178   6.648   2.514   5.641 -0.4624 -1.1256 -1.1258
  147SAPE   H7Y16179   6.656   2.336   5.675 -1.2406  0.1140  0.1108
  147SAPE   C3816180   6.854   2.440   5.621  0.1649  0.0104 -0.2025
  147SAPE   H8X16181   6.922   2.361   5.660  0.0653 -0.3396 -0.7316
  147SAPE   H8Y16182   6.888   2.543   5.643  0.7419 -0.0714 -0.6932
  147SAPE   C3916183   6.848   2.432   5.466 -0.2075 -0.3069  0.0115
  147SAPE   H9X16184   6.785   2.342   5.449 -1.4609 -0.0089  2.6108
  147SAPE   H9Y16185   6.950   2.427   5.421 -0.3300  0.0586 -0.3119
  147SAPE  C31016186   6.779   2.561   5.416  0.4001 -0.2581  0.3285
  147SAPE  H10X16187   6.802   2.646   5.483 -0.7607  1.4622 -1.3592
  147SAPE  H10Y16188   6.671   2.536   5.403  0.4047 -1.2193  1.8844
  147SAPE  C31116189   6.842   2.616   5.281 -0.2726  0.0828  0.2396
  147SAPE  H11X16190   6.952   2.618   5.298 -0.2279  0.0664 -0.0464
  147SAPE  H11Y16191   6.794   2.714   5.262 -1.9403 -0.6551  0.5286
  147SAPE  C31216192   6.818   2.522   5.163  0.1066  0.2875  0.7425
  147SAPE  H12X16193   6.718   2.475   5.168  0.2340 -0.0882 -0.0298
  147SAPE  H12Y16194   6.899   2.447   5.180  0.0051  0.2454  1.0401
  147SAPE  C31316195   6.842   2.586   5.028 -0.6928 -0.0967 -0.1624
  147SAPE  H13X16196   6.930   2.653   5.044 -0.6513 -0.7888  3.1763
  147SAPE  H13Y16197   6.754   2.653   5.015 -0.5816  0.4613  1.6424
  147SAPE  C31416198   6.856   2.490   4.914 -0.7920 -0.2009  0.4454
  147SAPE  H14X16199   6.787   2.406   4.933  0.5552 -1.3727  0.3283
  147SAPE  H14Y16200   6.950   2.431   4.910 -0.9237 -0.4251  0.6415
  147SAPE  C31516201   6.823   2.546   4.772 -0.5674  0.5955 -0.3235
  147SAPE  H15X16202   6.913   2.604   4.744 -0.2720 -0.6975 -2.2169
  147SAPE  H15Y16203   6.740   2.619   4.784  0.6772  1.8676  0.8883
  147SAPE  C31616204   6.810   2.434   4.667  0.3534  0.1845  0.5202
  147SAPE  H16X16205   6.722   2.370   4.688 -1.1630  1.8840 -0.3453
  147SAPE  H16Y16206   6.897   2.367   4.685  0.3721 -0.0945 -0.5531
  147SAPE  C31716207   6.777   2.475   4.528 -0.2668 -0.1361  0.1593
  147SAPE  H17X16208   6.856   2.517   4.463 -1.1335 -1.5043 -1.8885
  147SAPE  H17Y16209   6.709   2.562   4.538  2.5472  2.1413  0.5770
  147SAPE  C31816210   6.709   2.368   4.445  0.1439  0.0681 -0.0621
  147SAPE  H18X16211   6.773   2.279   4.426  0.1057  0.1761 -0.7030
  147SAPE  H18Y16212   6.687   2.425   4.352  2.8710  2.1384  0.4490
  147SAPE  H18Z16213   6.621   2.324   4.497 -0.1655 -0.0220 -0.6598
  148SAPE     N16214   5.253   3.796   6.688  0.2768  0.2051  0.2685
  148SAPE   HN116215   5.306   3.872   6.734  0.8461  1.1622 -1.8378
  148SAPE   HN216216   5.207   3.841   6.607  0.7115 -0.2211 -0.2207
  148SAPE   HN316217   5.171   3.757   6.740 -0.0824  1.2037  0.4822
  148SAPE   C1216218   5.334   3.672   6.656  0.6604  0.4348  0.0998
  148SAPE  H12A16219   5.367   3.626   6.752 -0.8257  0.7813  0.7999
  148SAPE  H12B16220   5.423   3.711   6.603  0.4874  0.4038 -0.2186
  148SAPE   C1116221   5.254   3.575   6.572  0.0487 -0.2158  0.8905
  148SAPE  H11A16222   5.308   3.484   6.540 -2.1450 -1.0532 -0.7139
  148SAPE  H11B16223   5.226   3.622   6.475  1.5784 -1.3040 -0.1188
  148SAPE     P16224   5.115   3.420   6.728 -0.1407  0.1808 -0.3005
  148SAPE   O1316225   5.212   3.410   6.836 -0.2625 -0.4613 -0.1600
  148SAPE   O1416226   4.974   3.419   6.762  1.0857  0.5026  0.1749
  148SAPE   O1216227   5.138   3.543   6.641 -0.0972  0.1242 -0.1507
  148SAPE   O1116228   5.148   3.312   6.614 -0.4033  0.3658 -0.2235
  148SAPE    C116229   5.057   3.276   6.512  0.2182 -0.0250  0.0306
  148SAPE    HA16230   4.980   3.210   6.557  1.4886 -0.0855  2.2476
  148SAPE    HB16231   5.011   3.365   6.463 -1.8948 -1.1324 -0.1309
  148SAPE    C216232   5.123   3.192   6.396 -0.2483  0.0209  0.8039
  148SAPE    HS16233   5.174   3.107   6.445 -1.1522 -0.5226  0.8280
  148SAPE   O2116234   5.216   3.269   6.321 -0.5419  0.2676 -0.0121
  148SAPE   C2116235   5.345   3.275   6.368  0.8842  0.6351 -0.3906
  148SAPE   O2216236   5.391   3.206   6.457 -0.0184  0.5689  0.3104
  148SAPE   C2216237   5.418   3.389   6.294  0.9090  0.6665 -0.2106
  148SAPE   H2R16238   5.354   3.478   6.311 -2.0781 -1.4543  0.4169
  148SAPE   H2S16239   5.516   3.402   6.346  1.4804  0.6274 -1.2588
  148SAPE    C316240   5.017   3.155   6.290  0.0903  0.2191 -0.0689
  148SAPE    HX16241   4.994   3.237   6.219  0.8086  0.2826 -0.2405
  148SAPE    HY16242   4.925   3.126   6.345 -1.5094  1.5478 -1.8894
  148SAPE   O3116243   5.064   3.037   6.230 -0.5614 -0.1448 -0.3442
  148SAPE   C3116244   4.981   2.999   6.133  0.4255 -0.2114 -0.5562
  148SAPE   O3216245   4.874   3.052   6.103  0.3870 -0.9409  0.0113
  148SAPE   C3216246   5.027   2.881   6.058  0.1417  0.2539  0.6074
  148SAPE   H2X16247   4.974   2.794   6.103  2.1995 -1.2042  0.3468
  148SAPE   H2Y16248   5.137   2.868   6.066  0.2106 -1.2581 -1.7182
  148SAPE   C2316249   5.428   3.364   6.144 -0.3110  0.2815  1.1500
  148SAPE   H3R16250   5.446   3.461   6.094 -0.7338 -1.6908 -3.2860
  148SAPE   H3S16251   5.336   3.328   6.094 -0.2753  0.6841  0.7944
  148SAPE   C2416252   5.555   3.288   6.092 -0.6867  0.3422 -0.2661
  148SAPE   H4R16253   5.637   3.354   6.129 -0.3041  0.0442 -0.5791
  148SAPE   H4S16254   5.558   3.297   5.981 -0.1260  2.7291 -0.1279
  148SAPE   C2516255   5.592   3.151   6.134 -1.3667  0.8351 -0.4636
  148SAPE   H5R16256   5.671   3.136   6.208 -1.2244 -0.1757 -0.8138
  148SAPE   C2616257   5.543   3.042   6.075 -0.4310 -0.1690  0.2248
  148SAPE   H6R16258   5.581   2.943   6.107 -2.3285 -0.7338  0.9065
  148SAPE   C2716259   5.452   3.042   5.962 -0.1315  0.1911  0.1970
  148SAPE   H7R16260   5.444   3.141   5.912 -0.2295 -0.9420 -2.1920
  148SAPE   H7S16261   5.347   3.018   5.991 -0.9926  1.6763 -1.5160
  148SAPE   C2816262   5.498   2.949   5.850  0.3482 -0.3306 -0.8370
  148SAPE   H8R16263   5.523   2.845   5.876  0.0160 -0.0700  0.6086
  148SAPE   C2916264   5.526   2.987   5.721 -0.6798 -0.1061 -0.2703
  148SAPE   H9R16265   5.559   2.909   5.651  1.0844  1.0732 -0.8228
  148SAPE  C21016266   5.516   3.126   5.660 -0.2336  0.2166  0.3336
  148SAPE  H10R16267   5.607   3.132   5.596 -1.9329 -0.4026 -2.2976
  148SAPE  H10S16268   5.496   3.219   5.717 -0.5296  0.4765 -0.1821
  148SAPE  C21116269   5.403   3.120   5.561  0.1101 -0.5423 -1.2539
  148SAPE  H11R16270   5.311   3.069   5.594 -0.5055  1.0878 -0.3695
  148SAPE  C21216271   5.408   3.160   5.428  0.1607 -0.0634 -0.1672
  148SAPE  H12R16272   5.322   3.134   5.364  1.0624  0.4587 -1.6502
  148SAPE  C21316273   5.523   3.222   5.361  0.2153  0.1062  0.4247
  148SAPE  H13R16274   5.620   3.168   5.366  0.1507 -0.2999 -1.6752
  148SAPE  H13S16275   5.537   3.313   5.423 -1.4085  0.0994  0.8414
  148SAPE  C21416276   5.485   3.262   5.227  0.2649 -0.4471  0.1063
  148SAPE  H14R16277   5.422   3.351   5.227  1.8853  0.7457 -0.2479
  148SAPE  C21516278   5.529   3.217   5.111 -0.1343 -0.4137  0.5589
  148SAPE  H15R16279   5.492   3.267   5.020  0.2534  1.5112  1.4089
  148SAPE  C21616280   5.635   3.112   5.084  0.4756  0.0304 -0.0850
  148SAPE  H16R16281   5.606   3.010   5.116  0.9657 -0.2293 -0.4493
  148SAPE  H16S16282   5.719   3.137   5.153  0.9219 -2.9117  0.5531
  148SAPE  C21716283   5.686   3.127   4.938  0.7386  0.7667  0.1677
  148SAPE  H17R16284   5.789   3.086   4.933 -0.5648 -2.7978 -0.0225
  148SAPE  H17S16285   5.691   3.233   4.904  1.8589  0.4181 -0.7912
  148SAPE  C21816286   5.588   3.057   4.841  0.1367 -0.0767 -0.4796
  148SAPE  H18R16287   5.551   2.968   4.896  2.2682 -0.7007  0.0552
  148SAPE  H18S16288   5.649   3.026   4.753  0.1732 -1.1450 -0.0896
  148SAPE  C21916289   5.474   3.148   4.793  0.3258 -0.1365  0.4198
  148SAPE  H19R16290   5.516   3.248   4.771  1.2191  0.1060  2.9466
  148SAPE  H19S16291   5.389   3.146   4.865 -1.4978  0.5495 -1.5974
  148SAPE  C22016292   5.429   3.097   4.657 -0.3644  0.3633  0.3420
  148SAPE  H20R16293   5.335   3.150   4.634  0.0810  2.0080  2.1085
  148SAPE  H20S16294   5.408   2.988   4.656 -1.1943  0.5067  1.2210
  148SAPE  H20T16295   5.506   3.117   4.579  1.9303 -0.1431  2.3508
  148SAPE   C3316296   4.980   2.884   5.915  0.6955 -0.2499  0.3137
  148SAPE   H3X16297   5.012   2.974   5.859 -0.0894 -1.0034 -1.4249
  148SAPE   H3Y16298   4.870   2.864   5.920  1.0836 -2.4317  1.3589
  148SAPE   C3416299   5.029   2.763   5.837 -0.5295 -0.1778  0.1622
  148SAPE   H4X16300   4.978   2.673   5.877  1.5521 -1.5529 -0.1500
  148SAPE   H4Y16301   5.139   2.758   5.847 -0.2546  2.5037 -0.4914
  148SAPE   C3516302   5.002   2.777   5.684  0.2151 -0.1158 -0.3472
  148SAPE   H5X16303   4.893   2.789   5.668 -0.4461 -2.1189  1.9696
  148SAPE   H5Y16304   5.012   2.675   5.641  1.7093 -0.4396  0.6801
  148SAPE   C3616305   5.091   2.866   5.602  0.0974 -0.6847  0.6758
  148SAPE   H6X16306   5.196   2.873   5.640 -0.3540  0.1986  1.7981
  148SAPE   H6Y16307   5.058   2.967   5.632  0.3184 -1.4263  3.7266
  148SAPE   C3716308   5.085   2.850   5.450 -0.0694 -0.0812 -0.1736
  148SAPE   H7X16309   5.118   2.946   5.404 -2.3058  1.5219  1.3257
  148SAPE   H7Y16310   4.978   2.835   5.423  0.6140  0.1168 -3.4203
  148SAPE   C3816311   5.167   2.730   5.399  0.0236  0.3332 -0.7210
  148SAPE   H8X16312   5.120   2.636   5.434  2.1721 -0.2467  0.8785
  148SAPE   H8Y16313   5.259   2.740   5.461 -2.1500  1.3083  2.5901
  148SAPE   C3916314   5.178   2.714   5.252  0.0489  0.2517  0.8373
  148SAPE   H9X16315   5.088   2.696   5.190  0.5181 -4.1169  1.1451
  148SAPE   H9Y16316   5.227   2.621   5.216 -0.0170  0.9881 -1.3239
  148SAPE  C31016317   5.265   2.821   5.183 -0.8369  0.2176  0.0518
  148SAPE  H10X16318   5.345   2.841   5.258  2.3347  0.7747 -3.1879
  148SAPE  H10Y16319   5.210   2.915   5.163 -0.9778 -0.0561 -0.9260
  148SAPE  C31116320   5.324   2.769   5.054 -0.2059 -0.0663 -0.1883
  148SAPE  H11X16321   5.392   2.683   5.073  1.7261  1.1650 -1.2611
  148SAPE  H11Y16322   5.393   2.846   5.014  3.9517 -1.9107  2.5821
  148SAPE  C31216323   5.224   2.730   4.948  0.5846 -0.3187  0.0880
  148SAPE  H12X16324   5.137   2.798   4.958  0.5015 -0.5496  1.0806
  148SAPE  H12Y16325   5.184   2.628   4.961  0.7201 -0.4289 -0.3610
  148SAPE  C31316326   5.280   2.740   4.805  0.0818  0.1295  0.1016
  148SAPE  H13X16327   5.312   2.846   4.794 -0.3042  0.3698  1.1388
  148SAPE  H13Y16328   5.198   2.735   4.731 -0.7295  3.7772  0.5820
  148SAPE  C31416329   5.396   2.640   4.777 -0.2419  0.3383 -0.0838
  148SAPE  H14X16330   5.353   2.538   4.782 -1.3927  0.7725 -0.7400
  148SAPE  H14Y16331   5.468   2.654   4.860 -0.1503 -0.8437  0.0444
  148SAPE  C31516332   5.472   2.658   4.642  0.1539  0.2468  0.3478
  148SAPE  H15X16333   5.490   2.766   4.629 -1.1811  0.4773  0.2518
  148SAPE  H15Y16334   5.396   2.627   4.567  1.6840  0.0595 -1.1838
  148SAPE  C31616335   5.602   2.577   4.627 -0.1876  0.3189  0.5501
  148SAPE  H16X16336   5.582   2.468   4.639 -2.0142  0.6844  1.1385
  148SAPE  H16Y16337   5.659   2.601   4.720 -0.5627 -2.1503  1.4972
  148SAPE  C31716338   5.693   2.600   4.498  0.2556  0.3800 -0.2743
  148SAPE  H17X16339   5.780   2.531   4.505  1.5415  2.0103  0.5300
  148SAPE  H17Y16340   5.735   2.703   4.504 -0.1294  0.5241  0.0205
  148SAPE  C31816341   5.617   2.592   4.361  0.4118 -0.1250 -0.5011
  148SAPE  H18X16342   5.693   2.613   4.283 -0.3217 -1.1496 -1.5321
  148SAPE  H18Y16343   5.531   2.662   4.371  0.1637 -0.4317 -0.4752
  148SAPE  H18Z16344   5.574   2.491   4.344 -2.1456  0.8750 -0.5007
  149SAPE     N16345   6.008   1.227   6.797  0.2953 -0.4833  1.0253
  149SAPE   HN116346   5.989   1.300   6.725 -0.7508  1.1267  2.8446
  149SAPE   HN216347   5.967   1.265   6.884  0.1145  2.2688 -0.1633
  149SAPE   HN316348   6.111   1.226   6.815  0.2916 -1.0208  1.0153
  149SAPE   C1216349   5.965   1.084   6.755 -0.0304 -0.2763 -0.5922
  149SAPE  H12A16350   5.858   1.093   6.724  0.5782 -1.9847 -3.6293
  149SAPE  H12B16351   5.963   1.025   6.850 -2.9332 -0.7032 -0.8139
  149SAPE   C1116352   6.045   1.035   6.634  1.1183  0.0441 -0.3190
  149SAPE  H11A16353   6.019   1.108   6.554 -1.9094  2.4372  2.5851
  149SAPE  H11B16354   6.010   0.937   6.594 -2.7458  1.1474  0.0466
  149SAPE     P16355   6.259   0.910   6.730  0.2174 -0.4446  0.0177
  149SAPE   O1316356   6.253   0.913   6.876  0.2676  0.0367 -0.7090
  149SAPE   O1416357   6.213   0.780   6.665 -0.2839 -0.3617  0.2798
  149SAPE   O1216358   6.188   1.035   6.666 -0.1128  0.2787  0.0304
  149SAPE   O1116359   6.410   0.937   6.682 -0.7145 -0.1113 -0.2922
  149SAPE    C116360   6.493   0.836   6.618 -0.2153  0.5036 -0.4782
  149SAPE    HA16361   6.585   0.812   6.676  2.1370 -0.3473 -4.1894
  149SAPE    HB16362   6.444   0.737   6.608 -1.3807  0.7543  1.9303
  149SAPE    C216363   6.554   0.878   6.474 -0.7527  0.3422 -0.0613
  149SAPE    HS16364   6.638   0.807   6.458 -0.1505  1.2194 -0.8328
  149SAPE   O2116365   6.626   1.006   6.472 -0.0332  0.0256 -0.2300
  149SAPE   C2116366   6.719   1.034   6.563  0.2082  0.6450  0.2793
  149SAPE   O2216367   6.766   0.965   6.649  0.1496  0.2388  0.1241
  149SAPE   C2216368   6.777   1.172   6.516 -0.6587  0.0659 -0.3691
  149SAPE   H2R16369   6.762   1.180   6.406 -0.4314 -1.5010 -0.5411
  149SAPE   H2S16370   6.709   1.250   6.557 -1.7497 -0.6001 -0.8651
  149SAPE    C316371   6.448   0.866   6.363 -0.1764 -0.2365 -0.2258
  149SAPE    HX16372   6.365   0.925   6.407  1.1745  0.3174  1.7067
  149SAPE    HY16373   6.401   0.765   6.353 -1.9375  0.5396 -0.0852
  149SAPE   O3116374   6.493   0.910   6.235  0.7543 -0.0856  0.4620
  149SAPE   C3116375   6.474   1.042   6.215  0.0595 -0.1320 -0.0772
  149SAPE   O3216376   6.405   1.115   6.289 -0.4531  0.6030  0.4198
  149SAPE   C3216377   6.535   1.076   6.081  0.0169  0.2090  0.2650
  149SAPE   H2X16378   6.632   1.022   6.074  0.6922  1.2877  1.0934
  149SAPE   H2Y16379   6.554   1.185   6.072 -2.9893  0.7131 -1.3424
  149SAPE   C2316380   6.931   1.199   6.550  0.6942  0.2308  0.0181
  149SAPE   H3R16381   6.970   1.146   6.639  0.9351  0.4551  0.0503
  149SAPE   H3S16382   6.933   1.310   6.564 -0.7618  0.2430  0.2777
  149SAPE   C2416383   7.029   1.168   6.443 -0.3210  0.3831 -0.1382
  149SAPE   H4R16384   7.132   1.180   6.483  0.1563  0.4749 -1.3245
  149SAPE   H4S16385   7.016   1.242   6.360 -0.5801  0.7709  0.2432
  149SAPE   C2516386   7.010   1.023   6.396 -0.3957  0.0373  0.5204
  149SAPE   H5R16387   7.049   0.942   6.459 -0.0418 -2.5886 -2.7834
  149SAPE   C2616388   6.980   0.974   6.274 -0.2514 -0.0957  0.0998
  149SAPE   H6R16389   6.964   0.866   6.269  2.3973 -0.5152 -0.7935
  149SAPE   C2716390   6.956   1.061   6.152  0.0293  0.1377  0.4106
  149SAPE   H7R16391   6.977   1.169   6.164 -0.5073  0.0542  2.3215
  149SAPE   H7S16392   6.849   1.061   6.122  0.3388  0.4189 -0.7718
  149SAPE   C2816393   7.051   1.014   6.040  0.1963  0.5276  1.0466
  149SAPE   H8R16394   7.122   0.941   6.082 -0.5647 -0.7175  0.2298
  149SAPE   C2916395   7.036   1.034   5.903 -0.1037  0.0338  0.0047
  149SAPE   H9R16396   7.120   0.996   5.844 -0.8432  0.2921 -1.2561
  149SAPE  C21016397   6.932   1.124   5.839 -0.0762  0.3647  0.3012
  149SAPE  H10R16398   6.982   1.217   5.804 -0.5284  0.2701 -0.6415
  149SAPE  H10S16399   6.853   1.161   5.907 -0.1134  0.1452  0.3782
  149SAPE  C21116400   6.868   1.056   5.725  0.1370 -0.2722 -0.0817
  149SAPE  H11R16401   6.800   0.977   5.762 -2.1313  1.1484 -0.9901
  149SAPE  C21216402   6.864   1.085   5.594 -0.1000 -0.3545 -0.9037
  149SAPE  H12R16403   6.809   1.031   5.516 -1.4807  0.6504 -0.6608
  149SAPE  C21316404   6.931   1.209   5.544 -0.4487 -0.0048  0.2034
  149SAPE  H13R16405   7.019   1.250   5.598  0.4038 -1.8111  0.2889
  149SAPE  H13S16406   6.855   1.289   5.552 -2.3987 -1.7649 -0.0303
  149SAPE  C21416407   6.962   1.184   5.397  0.0598 -0.4922  0.3627
  149SAPE  H14R16408   6.893   1.229   5.325  0.4427  1.2723  1.0455
  149SAPE  C21516409   7.071   1.114   5.355  1.0133 -0.4161  0.4336
  149SAPE  H15R16410   7.079   1.116   5.245 -2.7835  0.6767  0.0384
  149SAPE  C21616411   7.181   1.021   5.406 -0.4971  0.2931  0.3640
  149SAPE  H16R16412   7.169   0.917   5.369 -3.9056  0.3802  0.9511
  149SAPE  H16S16413   7.158   1.015   5.514  0.6210 -0.0029  0.5995
  149SAPE  C21716414   7.329   1.072   5.377  0.4449  0.3350 -0.1574
  149SAPE  H17R16415   7.330   1.177   5.414 -0.3465  0.1241  0.4836
  149SAPE  H17S16416   7.357   1.062   5.270 -3.1948 -0.5644 -1.1504
  149SAPE  C21816417   7.429   0.991   5.463  0.3929  0.6094  0.4834
  149SAPE  H18R16418   7.421   0.886   5.429 -2.3177  0.8500  0.1662
  149SAPE  H18S16419   7.395   0.999   5.569  0.2943  2.1089  0.3598
  149SAPE  C21916420   7.577   1.039   5.448  0.5363  0.2868  0.9738
  149SAPE  H19R16421   7.584   1.148   5.466  0.8526  0.4707 -0.1662
  149SAPE  H19S16422   7.604   1.013   5.343  2.8620  0.2900  1.5124
  149SAPE  C22016423   7.674   0.975   5.544  0.8572  0.4752  0.8210
  149SAPE  H20R16424   7.674   0.864   5.534 -0.4056  0.4889  0.5330
  149SAPE  H20S16425   7.645   0.985   5.651 -0.1011  1.5963  0.4775
  149SAPE  H20T16426   7.779   1.001   5.520  0.3251  0.5160 -1.6994
  149SAPE   C3316427   6.438   1.054   5.963 -0.3608  0.1326  0.1529
  149SAPE   H3X16428   6.343   1.107   5.983 -0.4958  0.0751 -0.3336
  149SAPE   H3Y16429   6.417   0.945   5.952 -0.1392  0.0374  0.6423
  149SAPE   C3416430   6.492   1.100   5.827  0.8869  0.5340  0.0200
  149SAPE   H4X16431   6.579   1.036   5.802 -1.7917 -3.5124  0.0594
  149SAPE   H4Y16432   6.519   1.208   5.836  1.6662  0.2885  0.8168
  149SAPE   C3516433   6.394   1.078   5.704  0.7225  0.3443  0.3779
  149SAPE   H5X16434   6.298   1.133   5.715  2.0444  2.7660  0.3561
  149SAPE   H5Y16435   6.367   0.970   5.709 -1.0538  0.7255 -0.1907
  149SAPE   C3616436   6.459   1.108   5.571  0.4319  0.5774  0.1088
  149SAPE   H6X16437   6.562   1.069   5.561 -0.5707 -2.0050 -1.1389
  149SAPE   H6Y16438   6.469   1.218   5.579 -0.9423  0.5827  3.2574
  149SAPE   C3716439   6.380   1.068   5.450 -0.4571  0.4050  0.6213
  149SAPE   H7X16440   6.274   1.100   5.457 -0.9079 -0.6679 -0.8101
  149SAPE   H7Y16441   6.381   0.958   5.430 -1.3098  0.4793  0.0972
  149SAPE   C3816442   6.430   1.144   5.323  0.1589  0.1643 -0.5336
  149SAPE   H8X16443   6.472   1.239   5.362  0.5349  0.0294 -0.6002
  149SAPE   H8Y16444   6.342   1.164   5.258  1.8008 -0.3784 -3.1053
  149SAPE   C3916445   6.537   1.073   5.240 -0.2217  0.2210  0.0750
  149SAPE   H9X16446   6.492   0.977   5.209 -3.8077  0.3592  3.9983
  149SAPE   H9Y16447   6.613   1.040   5.314 -0.0500  1.4803  0.4919
  149SAPE  C31016448   6.598   1.158   5.129 -0.4635  0.0047  0.0432
  149SAPE  H10X16449   6.634   1.255   5.170 -0.3071  0.6251 -1.5158
  149SAPE  H10Y16450   6.515   1.171   5.057 -0.8838 -0.3416  0.4592
  149SAPE  C31116451   6.717   1.091   5.057 -1.1299 -0.5240 -0.3931
  149SAPE  H11X16452   6.690   0.990   5.021 -0.6448 -1.0884  0.7927
  149SAPE  H11Y16453   6.802   1.091   5.130 -1.3339  3.3071  0.0533
  149SAPE  C31216454   6.760   1.172   4.935  0.1966 -0.9360  0.4309
  149SAPE  H12X16455   6.756   1.280   4.959 -1.9583 -1.2708  1.8401
  149SAPE  H12Y16456   6.680   1.162   4.859  0.9726  1.1444 -0.7480
  149SAPE  C31316457   6.895   1.137   4.878  0.6230 -0.7823  0.1674
  149SAPE  H13X16458   6.905   1.027   4.871  1.2789 -0.7558  0.6765
  149SAPE  H13Y16459   6.963   1.180   4.954 -1.0578  0.2171  1.1750
  149SAPE  C31416460   6.919   1.199   4.745  0.4269  0.0274  0.2224
  149SAPE  H14X16461   6.887   1.304   4.733 -4.6915 -1.5306 -3.3450
  149SAPE  H14Y16462   6.845   1.152   4.677  0.2286  0.3573  0.2118
  149SAPE  C31516463   7.053   1.152   4.690  0.2872 -0.5657 -0.5663
  149SAPE  H15X16464   7.070   1.043   4.700  0.5028 -0.3249  2.8267
  149SAPE  H15Y16465   7.130   1.203   4.751  0.4514  0.6819 -1.7567
  149SAPE  C31616466   7.086   1.202   4.552  0.0705 -0.0388 -0.7445
  149SAPE  H16X16467   7.095   1.312   4.564 -0.5136 -0.0419 -0.2215
  149SAPE  H16Y16468   7.002   1.187   4.480  0.6217  2.4553 -2.0349
  149SAPE  C31716469   7.214   1.131   4.513 -0.1142  0.5648  0.4880
  149SAPE  H17X16470   7.201   1.087   4.412  2.7826  0.8964 -0.1018
  149SAPE  H17Y16471   7.224   1.044   4.581  3.0917  0.2385 -0.2471
  149SAPE  C31816472   7.346   1.205   4.510  0.1470  0.0295  0.3668
  149SAPE  H18X16473   7.419   1.121   4.504  0.4508  0.1276  2.1188
  149SAPE  H18Y16474   7.366   1.254   4.607  0.1628 -0.0911  0.4244
  149SAPE  H18Z16475   7.344   1.282   4.430 -1.5112 -0.3709  0.0026
  150SAPE     N16476   0.957   0.968   6.598 -0.1058 -0.8510 -0.0008
  150SAPE   HN116477   0.887   0.940   6.669  1.1538 -0.5634  1.4038
  150SAPE   HN216478   0.974   1.070   6.599  0.3646 -0.9235 -0.0303
  150SAPE   HN316479   0.932   0.944   6.500 -0.8387  0.8237 -0.2566
  150SAPE   C1216480   1.087   0.903   6.636  0.2408 -0.4322  0.2693
  150SAPE  H12A16481   1.066   0.796   6.660  1.8295 -0.5231  1.3997
  150SAPE  H12B16482   1.113   0.945   6.735  2.6816 -0.2151 -0.3884
  150SAPE   C1116483   1.203   0.916   6.537 -0.8060 -0.4434  0.5881
  150SAPE  H11A16484   1.167   0.871   6.442 -1.5113 -0.4732  0.8587
  150SAPE  H11B16485   1.293   0.859   6.567  0.5960  1.7258  0.6483
  150SAPE     P16486   1.364   1.127   6.579 -0.1245 -0.1001  0.2440
  150SAPE   O1316487   1.372   1.253   6.507 -0.1766 -0.6738  0.1228
  150SAPE   O1416488   1.358   1.140   6.727 -0.1733  0.4009  0.2943
  150SAPE   O1216489   1.236   1.049   6.518 -0.2881 -0.5741 -0.1282
  150SAPE   O1116490   1.488   1.040   6.524 -0.0591 -0.2632 -0.3593
  150SAPE    C116491   1.497   1.016   6.378 -0.0568 -0.9396 -0.4462
  150SAPE    HA16492   1.423   1.073   6.319  0.8936  0.2244 -0.5554
  150SAPE    HB16493   1.600   1.049   6.352  0.6122  0.5933  3.4666
  150SAPE    C216494   1.502   0.865   6.341  0.0312  0.5992 -0.5623
  150SAPE    HS16495   1.401   0.831   6.371  1.3829 -0.4457  3.3824
  150SAPE   O2116496   1.607   0.805   6.419  0.0187 -0.2108 -0.2232
  150SAPE   C2116497   1.606   0.675   6.423 -0.2435 -0.5167  1.0931
  150SAPE   O2216498   1.523   0.603   6.369  0.1996  0.4678  0.4870
  150SAPE   C2216499   1.718   0.622   6.503  0.4168  0.5546 -0.5303
  150SAPE   H2R16500   1.680   0.615   6.607  0.6080  0.0883 -0.4903
  150SAPE   H2S16501   1.718   0.513   6.480  1.1823 -0.2251  2.7455
  150SAPE    C316502   1.535   0.848   6.190  0.8915 -0.0123 -0.3653
  150SAPE    HX16503   1.548   0.740   6.168  0.7242 -0.4308  1.3953
  150SAPE    HY16504   1.633   0.898   6.175  1.6915 -0.7637  1.8744
  150SAPE   O3116505   1.446   0.923   6.102 -0.4989  0.8234 -0.6996
  150SAPE   C3116506   1.339   0.857   6.070  0.4827  0.2740  0.3288
  150SAPE   O3216507   1.322   0.737   6.084 -0.2821 -0.0546  0.1189
  150SAPE   C3216508   1.236   0.945   5.994 -0.6932  0.6265  0.0246
  150SAPE   H2X16509   1.265   1.052   6.003  1.4046  0.1838 -0.9492
  150SAPE   H2Y16510   1.151   0.926   6.063 -0.4078  0.6648  0.3863
  150SAPE   C2316511   1.844   0.701   6.491  0.3060 -0.4084 -0.0453
  150SAPE   H3R16512   1.913   0.678   6.575 -2.4501  1.2149  2.9044
  150SAPE   H3S16513   1.827   0.808   6.514  0.5069  0.0037 -1.6686
  150SAPE   C2416514   1.895   0.707   6.349  0.2469  0.1598 -0.1529
  150SAPE   H4R16515   1.942   0.806   6.334  3.2016 -0.8526  1.5256
  150SAPE   H4S16516   1.828   0.697   6.261 -0.2602  0.9195  0.1313
  150SAPE   C2516517   2.003   0.610   6.345 -0.7446 -0.0752 -0.2710
  150SAPE   H5R16518   2.043   0.572   6.440  1.0886  4.1549  0.8552
  150SAPE   C2616519   2.061   0.562   6.231  0.0037  1.1661  0.2611
  150SAPE   H6R16520   2.128   0.478   6.254 -0.8731  0.2741 -0.3577
  150SAPE   C2716521   2.031   0.601   6.088  0.3785 -0.0765  0.7831
  150SAPE   H7R16522   2.126   0.608   6.031 -0.0723  0.0261  0.0293
  150SAPE   H7S16523   1.999   0.708   6.080 -0.0789 -0.3665 -2.1830
  150SAPE   C2816524   1.917   0.520   6.018 -0.1682  0.2657 -0.2618
  150SAPE   H8R16525   1.850   0.476   6.093  0.5412  1.1237  0.9108
  150SAPE   C2916526   1.896   0.502   5.890 -0.9641 -0.1411 -0.2516
  150SAPE   H9R16527   1.819   0.436   5.849 -0.3304  0.5947 -2.8749
  150SAPE  C21016528   1.987   0.552   5.777  1.0363  0.1524 -0.4429
  150SAPE  H10R16529   2.030   0.647   5.815  3.9118 -1.7563  1.4691
  150SAPE  H10S16530   1.929   0.571   5.684  0.9599  1.1738 -0.2027
  150SAPE  C21116531   2.103   0.450   5.764 -0.3033  0.1784 -0.0642
  150SAPE  H11R16532   2.187   0.444   5.835  0.5472 -1.7712 -1.1438
  150SAPE  C21216533   2.145   0.378   5.660 -0.4042 -0.4020  0.9090
  150SAPE  H12R16534   2.226   0.306   5.677  0.1872 -0.0231 -0.2331
  150SAPE  C21316535   2.079   0.363   5.523 -0.2859 -0.3310  0.0011
  150SAPE  H13R16536   1.969   0.369   5.527 -0.3865 -1.1238 -1.0813
  150SAPE  H13S16537   2.103   0.262   5.482  1.4797  1.0955 -2.8311
  150SAPE  C21416538   2.134   0.471   5.425  0.1320  0.1689  0.0757
  150SAPE  H14R16539   2.166   0.563   5.477  1.1081  0.7641 -1.5270
  150SAPE  C21516540   2.164   0.464   5.296 -0.1979 -0.0631 -0.0602
  150SAPE  H15R16541   2.205   0.545   5.235  1.2201  0.6697  1.7740
  150SAPE  C21616542   2.151   0.332   5.228  0.1048  0.2138 -0.2286
  150SAPE  H16R16543   2.054   0.281   5.244  0.3183  0.3152  1.6686
  150SAPE  H16S16544   2.228   0.266   5.275 -0.1243 -0.5688 -0.9364
  150SAPE  C21716545   2.168   0.353   5.074  0.4935  0.2752 -0.2416
  150SAPE  H17R16546   2.218   0.257   5.047 -1.4245 -1.0375  0.5891
  150SAPE  H17S16547   2.221   0.448   5.056 -3.1244  2.5565  0.0941
  150SAPE  C21816548   2.031   0.369   5.000 -0.2219 -0.1001 -0.3046
  150SAPE  H18R16549   1.993   0.465   5.041  1.2304  1.0932 -1.6415
  150SAPE  H18S16550   1.954   0.290   5.013 -0.0207 -0.5628 -1.7263
  150SAPE  C21916551   2.059   0.403   4.855  0.4766  0.5960 -0.0665
  150SAPE  H19R16552   2.097   0.311   4.805  2.0900  1.2812 -0.1517
  150SAPE  H19S16553   2.137   0.482   4.853 -0.0926  1.1847  0.4654
  150SAPE  C22016554   1.934   0.453   4.792  1.0519 -0.3629  0.0457
  150SAPE  H20R16555   1.937   0.464   4.682 -1.0109 -0.2122 -0.0375
  150SAPE  H20S16556   1.904   0.546   4.845  0.2598 -1.3044  1.2867
  150SAPE  H20T16557   1.847   0.385   4.804 -1.3797  2.4466 -0.6433
  150SAPE   C3316558   1.194   0.905   5.854  0.2167  0.1295  1.2922
  150SAPE   H3X16559   1.100   0.959   5.829  0.1742 -0.2681  0.5857
  150SAPE   H3Y16560   1.142   0.807   5.861 -1.3868  0.8722  0.4052
  150SAPE   C3416561   1.308   0.917   5.750 -0.2387  0.9402  0.5351
  150SAPE   H4X16562   1.401   0.884   5.801 -0.1986  0.1368 -0.0224
  150SAPE   H4Y16563   1.324   1.022   5.718  1.2071  0.6828  0.3167
  150SAPE   C3516564   1.275   0.835   5.627 -0.3875  0.3744 -0.0730
  150SAPE   H5X16565   1.190   0.878   5.569 -0.7328 -2.8769 -2.3019
  150SAPE   H5Y16566   1.255   0.731   5.660  1.6248  1.0211  3.6570
  150SAPE   C3616567   1.396   0.829   5.535 -0.3786  0.4330  0.3598
  150SAPE   H6X16568   1.474   0.764   5.578  1.7062  0.5980 -2.8094
  150SAPE   H6Y16569   1.434   0.933   5.523  2.5988 -0.6180 -0.2969
  150SAPE   C3716570   1.346   0.787   5.391 -0.5053 -0.5255 -0.2205
  150SAPE   H7X16571   1.267   0.857   5.357 -0.4758 -1.4857 -2.4662
  150SAPE   H7Y16572   1.301   0.686   5.398 -2.7740  0.1647 -3.0104
  150SAPE   C3816573   1.457   0.777   5.285 -0.5154 -0.0967  0.8740
  150SAPE   H8X16574   1.537   0.709   5.321 -1.9685 -1.7052  1.1906
  150SAPE   H8Y16575   1.510   0.873   5.267  0.3365 -0.5792  0.7512
  150SAPE   C3916576   1.400   0.718   5.151 -0.6015 -0.6110 -0.0680
  150SAPE   H9X16577   1.324   0.786   5.107  0.8014 -0.1966 -1.9519
  150SAPE   H9Y16578   1.349   0.623   5.177 -0.1260 -1.4770 -2.1022
  150SAPE  C31016579   1.498   0.689   5.035 -0.2843 -0.2794 -0.5383
  150SAPE  H10X16580   1.580   0.627   5.077  0.1223  1.6935  1.8450
  150SAPE  H10Y16581   1.538   0.781   4.987 -0.7186  0.0662 -0.2487
  150SAPE  C31116582   1.409   0.621   4.930 -0.6334 -0.1317 -0.0743
  150SAPE  H11X16583   1.341   0.695   4.883  0.4421 -0.3061 -2.0379
  150SAPE  H11Y16584   1.340   0.544   4.969  1.3190 -2.3085 -0.7058
  150SAPE  C31216585   1.508   0.561   4.828  0.3190 -0.6627 -0.2686
  150SAPE  H12X16586   1.580   0.498   4.884  1.4366  0.4945 -0.3867
  150SAPE  H12Y16587   1.558   0.654   4.797  1.6692 -0.5209  2.1001
  150SAPE  C31316588   1.450   0.477   4.715  0.4075 -0.0375  0.2287
  150SAPE  H13X16589   1.364   0.415   4.746  0.6461  1.0654  3.4178
  150SAPE  H13Y16590   1.527   0.404   4.681  0.7338  0.9262 -1.2376
  150SAPE  C31416591   1.414   0.553   4.594  1.0773  0.5512 -0.2201
  150SAPE  H14X16592   1.506   0.600   4.552  1.6142  0.1030  0.4225
  150SAPE  H14Y16593   1.354   0.636   4.634  0.3655  0.3810 -0.9173
  150SAPE  C31516594   1.333   0.474   4.485  0.1476  0.6293  0.0147
  150SAPE  H15X16595   1.303   0.540   4.401 -1.2714  0.1306  0.1145
  150SAPE  H15Y16596   1.237   0.448   4.533  0.1192  1.5661  0.4888
  150SAPE  C31616597   1.398   0.348   4.425  0.1115 -0.4306 -0.2380
  150SAPE  H16X16598   1.452   0.293   4.505  0.2227  1.7880  1.3048
  150SAPE  H16Y16599   1.483   0.394   4.371  1.6510 -1.1832  1.3978
  150SAPE  C31716600   1.299   0.256   4.349  0.5325  0.4729 -0.0836
  150SAPE  H17X16601   1.356   0.196   4.275 -2.3276 -0.1091 -2.0123
  150SAPE  H17Y16602   1.233   0.320   4.286  1.7442  0.9012 -0.9537
  150SAPE  C31816603   1.223   0.161   4.437 -0.0135 -0.8539  0.9837
  150SAPE  H18X16604   1.128   0.137   4.385  0.5205 -0.7900 -0.0481
  150SAPE  H18Y16605   1.189   0.207   4.532 -0.5922 -0.2726  0.4969
  150SAPE  H18Z16606   1.288   0.074   4.462  2.4100  0.6804  0.4339
  151SAPE     N16607   2.952   2.355   6.893  0.1766 -0.4967  0.0050
  151SAPE   HN116608   2.862   2.328   6.937 -1.5762  1.4268 -2.1206
  151SAPE   HN216609   2.943   2.320   6.795  0.9820  0.2401 -0.3492
  151SAPE   HN316610   3.035   2.311   6.938  0.9631  1.9152  1.1048
  151SAPE   C1216611   2.981   2.504   6.892  0.2896 -0.1564 -0.0279
  151SAPE  H12A16612   3.091   2.514   6.897  0.5555 -1.5681 -2.0417
  151SAPE  H12B16613   2.947   2.548   6.988  0.8703  0.4537 -0.0989
  151SAPE   C1116614   2.921   2.571   6.758  0.2369  0.3579 -1.0945
  151SAPE  H11A16615   2.812   2.560   6.770  0.3755  1.7405  2.8525
  151SAPE  H11B16616   2.944   2.519   6.662 -0.5941  0.2423 -1.2385
  151SAPE     P16617   2.875   2.827   6.749  0.2820 -0.2901  0.3209
  151SAPE   O1316618   2.792   2.823   6.870 -0.2478 -0.2660 -0.2503
  151SAPE   O1416619   2.954   2.951   6.715  0.2705 -0.0133  0.0627
  151SAPE   O1216620   2.967   2.703   6.747  0.0778  0.4470 -0.0060
  151SAPE   O1116621   2.776   2.796   6.629  0.5028 -0.1246 -0.5313
  151SAPE    C116622   2.822   2.750   6.503 -0.5716  0.3912 -0.5229
  151SAPE    HA16623   2.933   2.756   6.502 -0.3465  0.4718  3.7167
  151SAPE    HB16624   2.807   2.642   6.482  0.1227  0.7076 -2.9437
  151SAPE    C216625   2.770   2.833   6.383 -0.3406 -0.4163 -0.3921
  151SAPE    HS16626   2.803   2.937   6.403  1.1990 -0.8541 -0.5103
  151SAPE   O2116627   2.628   2.809   6.365 -0.1236  0.5484 -0.1779
  151SAPE   C2116628   2.563   2.915   6.343  0.2614 -0.3458 -0.4215
  151SAPE   O2216629   2.607   3.027   6.325 -0.7431  0.0676  0.2474
  151SAPE   C2216630   2.410   2.888   6.338  0.1428 -0.0406  0.4863
  151SAPE   H2R16631   2.393   2.823   6.426  0.3886  0.5397  0.9671
  151SAPE   H2S16632   2.356   2.985   6.338 -1.9873 -1.1049 -1.9722
  151SAPE    C316633   2.856   2.793   6.256  0.3299  0.1914 -0.2604
  151SAPE    HX16634   2.856   2.683   6.265  3.2812  0.2561  1.9189
  151SAPE    HY16635   2.956   2.830   6.286 -0.5144  2.1648  0.3094
  151SAPE   O3116636   2.799   2.843   6.130 -0.2134 -0.1093  0.7038
  151SAPE   C3116637   2.843   2.965   6.093 -0.4744  0.1764 -0.4096
  151SAPE   O3216638   2.929   3.027   6.153 -0.3239 -0.1094  0.6196
  151SAPE   C3216639   2.735   3.030   6.008  0.4762  0.2875  0.4037
  151SAPE   H2X16640   2.677   3.084   6.086  1.9188  0.2063  1.5668
  151SAPE   H2Y16641   2.668   2.957   5.958 -0.3390  2.6344 -2.2059
  151SAPE   C2316642   2.358   2.806   6.207  0.0512 -0.3986 -0.6188
  151SAPE   H3R16643   2.248   2.791   6.217 -0.2264  1.3316 -0.7458
  151SAPE   H3S16644   2.408   2.707   6.214 -1.1309 -1.2308 -2.8853
  151SAPE   C2416645   2.371   2.886   6.074 -0.4110 -0.1773  0.1164
  151SAPE   H4R16646   2.338   2.814   5.997 -0.2976  1.3579 -1.4523
  151SAPE   H4S16647   2.479   2.910   6.063 -0.1402 -0.1080  2.4590
  151SAPE   C2516648   2.297   3.018   6.058 -0.7891  0.0165  0.7100
  151SAPE   H5R16649   2.271   3.063   6.155 -1.0536 -0.8870  1.0716
  151SAPE   C2616650   2.251   3.084   5.947  0.3425 -0.2272  0.2028
  151SAPE   H6R16651   2.200   3.180   5.958  0.5279 -0.1174  0.1172
  151SAPE   C2716652   2.271   3.035   5.800  0.1174  0.3853  0.9927
  151SAPE   H7R16653   2.195   3.073   5.729  1.4968 -1.3760 -1.6012
  151SAPE   H7S16654   2.259   2.925   5.797  1.5018  0.2404 -1.4003
  151SAPE   C2816655   2.405   3.076   5.740  0.7655  0.0759  0.9931
  151SAPE   H8R16656   2.488   3.088   5.811  2.6475 -1.8811 -0.7591
  151SAPE   C2916657   2.441   3.087   5.606  0.3271  0.4857 -0.3175
  151SAPE   H9R16658   2.539   3.131   5.585  0.3539  2.0198  2.4479
  151SAPE  C21016659   2.336   3.077   5.501 -0.3053 -0.5480 -0.0688
  151SAPE  H10R16660   2.252   3.144   5.529  0.9744  0.5930  1.1280
  151SAPE  H10S16661   2.284   2.979   5.500  0.4333 -0.9507 -0.4806
  151SAPE  C21116662   2.377   3.124   5.367  0.2384 -0.8589 -0.0681
  151SAPE  H11R16663   2.464   3.192   5.368  1.3326 -2.1887 -1.2567
  151SAPE  C21216664   2.325   3.097   5.248 -0.5398  0.8548 -0.0910
  151SAPE  H12R16665   2.362   3.141   5.154 -4.0941  1.1229 -1.5197
  151SAPE  C21316666   2.213   3.001   5.226  0.1254  0.3075  0.6149
  151SAPE  H13R16667   2.117   3.051   5.199  0.4846  0.2125 -0.9092
  151SAPE  H13S16668   2.188   2.939   5.315 -1.8938  0.3553  0.1317
  151SAPE  C21416669   2.250   2.911   5.109  0.0354 -0.7596  0.0706
  151SAPE  H14R16670   2.208   2.938   5.012  2.2643  0.7609 -0.5509
  151SAPE  C21516671   2.325   2.800   5.112  0.3034  0.6741  0.2052
  151SAPE  H15R16672   2.320   2.737   5.022 -0.8173  0.6042  0.3019
  151SAPE  C21616673   2.414   2.757   5.228  0.0387 -0.1619 -0.4233
  151SAPE  H16R16674   2.384   2.653   5.250  0.2834 -0.7508 -2.6417
  151SAPE  H16S16675   2.398   2.807   5.326 -0.2537 -2.9592  1.0431
  151SAPE  C21716676   2.564   2.752   5.209  0.2665  0.7783  0.1265
  151SAPE  H17R16677   2.604   2.817   5.129  0.1332  0.6473 -0.0464
  151SAPE  H17S16678   2.576   2.647   5.175  0.4039  0.9028 -0.2147
  151SAPE  C21816679   2.646   2.776   5.336 -0.2185 -0.0818 -0.2333
  151SAPE  H18R16680   2.605   2.708   5.414  1.0978 -0.9873 -0.2957
  151SAPE  H18S16681   2.639   2.879   5.378  1.4128 -0.3904  0.8915
  151SAPE  C21916682   2.803   2.754   5.330  0.0536  0.0238 -0.2523
  151SAPE  H19R16683   2.846   2.816   5.411 -2.1978  1.7357 -0.2794
  151SAPE  H19S16684   2.849   2.805   5.243 -0.9146  0.7185 -0.3720
  151SAPE  C22016685   2.854   2.608   5.342 -0.5859  0.0850  0.0151
  151SAPE  H20R16686   2.961   2.617   5.373 -0.7706  1.3658  0.3036
  151SAPE  H20S16687   2.840   2.559   5.243  2.1668  1.5530 -1.2192
  151SAPE  H20T16688   2.798   2.539   5.409 -2.1544 -1.3671 -2.6195
  151SAPE   C3316689   2.795   3.126   5.905  0.2309  0.9698 -0.0673
  151SAPE   H3X16690   2.883   3.178   5.949  1.8670 -0.7772 -1.1069
  151SAPE   H3Y16691   2.716   3.199   5.875  0.0687  0.8253  0.0090
  151SAPE   C3416692   2.837   3.053   5.779 -0.0208  0.5106  0.2778
  151SAPE   H4X16693   2.757   2.980   5.755 -0.0158  0.3487  0.7428
  151SAPE   H4Y16694   2.935   3.005   5.801 -0.7215 -1.0247  0.1346
  151SAPE   C3516695   2.851   3.144   5.662  0.4149 -0.5458 -0.5335
  151SAPE   H5X16696   2.948   3.200   5.665 -0.3720  0.8368  0.6807
  151SAPE   H5Y16697   2.775   3.225   5.669  0.3736 -0.5172 -1.3235
  151SAPE   C3616698   2.831   3.074   5.529  0.7402  0.0790  0.7863
  151SAPE   H6X16699   2.743   3.006   5.534  0.3197  0.0544 -3.4593
  151SAPE   H6Y16700   2.916   3.006   5.508 -0.3935 -0.4575 -2.6992
  151SAPE   C3716701   2.820   3.182   5.420 -0.0218 -0.0087 -0.1023
  151SAPE   H7X16702   2.916   3.238   5.429 -0.3136  0.3925  0.6360
  151SAPE   H7Y16703   2.734   3.251   5.434  0.2320  0.6167 -1.4106
  151SAPE   C3816704   2.809   3.113   5.288 -0.6188  0.1770 -0.2162
  151SAPE   H8X16705   2.717   3.054   5.267 -0.9845  1.4233 -2.4949
  151SAPE   H8Y16706   2.900   3.049   5.278  2.1973  4.0282 -1.7559
  151SAPE   C3916707   2.829   3.225   5.177  0.0167 -0.2190 -0.6375
  151SAPE   H9X16708   2.932   3.268   5.188  0.4815 -1.9234  3.4594
  151SAPE   H9Y16709   2.757   3.304   5.207 -1.1375 -1.9140  1.2985
  151SAPE  C31016710   2.799   3.189   5.031 -0.3889  0.2504 -0.5798
  151SAPE  H10X16711   2.869   3.110   4.997 -0.5040  0.9764 -2.6546
  151SAPE  H10Y16712   2.800   3.280   4.967 -1.8807  1.1042  0.5459
  151SAPE  C31116713   2.654   3.135   5.003 -0.0370 -0.0808 -0.1034
  151SAPE  H11X16714   2.571   3.202   5.032 -1.4450 -1.2573 -1.2723
  151SAPE  H11Y16715   2.634   3.047   5.068 -1.9695 -0.4871 -1.1948
  151SAPE  C31216716   2.632   3.099   4.855 -0.3302  0.3862  0.1759
  151SAPE  H12X16717   2.692   3.010   4.826 -2.1128 -1.4334  1.7876
  151SAPE  H12Y16718   2.667   3.181   4.788 -1.1427  0.4161 -0.2239
  151SAPE  C31316719   2.490   3.081   4.795  0.0723  0.1202  0.1839
  151SAPE  H13X16720   2.438   3.178   4.812 -0.2292 -0.4039  2.8333
  151SAPE  H13Y16721   2.436   3.001   4.852  0.4292 -1.6242 -1.8024
  151SAPE  C31416722   2.500   3.041   4.647 -0.2825 -0.6587  0.3204
  151SAPE  H14X16723   2.587   2.972   4.640 -0.0504 -0.3188 -0.1749
  151SAPE  H14Y16724   2.522   3.130   4.586 -2.1141 -0.9476 -0.8416
  151SAPE  C31516725   2.373   2.966   4.601 -0.2241  0.2308  0.4444
  151SAPE  H15X16726   2.376   2.963   4.490 -1.2744  0.3364  0.4096
  151SAPE  H15Y16727   2.283   3.024   4.629 -0.7871 -0.4050 -0.0015
  151SAPE  C31616728   2.361   2.825   4.650 -0.0811  0.1019 -0.3555
  151SAPE  H16X16729   2.289   2.809   4.733 -0.8115 -0.7998 -1.1468
  151SAPE  H16Y16730   2.463   2.796   4.685  1.4132  2.6302 -2.2458
  151SAPE  C31716731   2.311   2.736   4.542  0.2184  0.6270 -0.0830
  151SAPE  H17X16732   2.337   2.628   4.553  0.1569  0.5705 -0.4702
  151SAPE  H17Y16733   2.354   2.764   4.443 -2.2048  0.2075 -1.3276
  151SAPE  C31816734   2.158   2.742   4.505 -0.5075 -0.0834 -0.1847
  151SAPE  H18X16735   2.124   2.666   4.430 -0.2050 -1.5716  1.1407
  151SAPE  H18Y16736   2.128   2.842   4.468  1.5727  0.5574 -0.2633
  151SAPE  H18Z16737   2.107   2.722   4.602 -1.3526  1.5653 -0.2452
  152SAPE     N16738   5.436   5.960   6.706 -0.0235 -0.2094  0.1993
  152SAPE   HN116739   5.537   5.970   6.731 -0.0162  2.9532 -0.6280
  152SAPE   HN216740   5.401   5.975   6.803  3.0951  1.0541  1.2485
  152SAPE   HN316741   5.428   5.862   6.674  0.0101  0.4854 -2.1147
  152SAPE   C1216742   5.391   6.058   6.603  0.4478 -0.3591 -0.3910
  152SAPE  H12A16743   5.464   6.046   6.521  1.3850  1.7559  0.0569
  152SAPE  H12B16744   5.414   6.156   6.651 -0.2110 -0.9225  1.1581
  152SAPE   C1116745   5.250   6.045   6.555 -0.1258  0.3340 -0.0435
  152SAPE  H11A16746   5.254   5.961   6.483  1.7534 -0.2143  0.6464
  152SAPE  H11B16747   5.226   6.143   6.508 -1.5781 -0.2262 -0.5417
  152SAPE     P16748   5.007   6.039   6.666 -0.2068  0.2188 -0.3266
  152SAPE   O1316749   4.958   5.944   6.767 -0.9367 -0.1769  0.0907
  152SAPE   O1416750   4.987   6.187   6.694 -0.0356  0.6605 -0.2282
  152SAPE   O1216751   5.163   6.019   6.666  0.2105  0.0056  0.1350
  152SAPE   O1116752   4.951   5.999   6.518 -0.2383 -0.0646 -0.5895
  152SAPE    C116753   4.973   5.877   6.446  0.4691 -0.8837 -0.3412
  152SAPE    HA16754   5.066   5.826   6.478  1.2666  1.5348  1.5622
  152SAPE    HB16755   4.900   5.805   6.488  1.1047 -0.7682  1.0479
  152SAPE    C216756   4.950   5.883   6.295  0.0779  0.0560 -0.4704
  152SAPE    HS16757   4.937   5.782   6.252  2.0305  0.5024 -2.2848
  152SAPE   O2116758   5.053   5.948   6.218  0.3202  0.0990  0.3031
  152SAPE   C2116759   5.153   5.873   6.201 -0.4753 -0.1054  0.0909
  152SAPE   O2216760   5.157   5.752   6.227  0.4714  0.7538  0.5948
  152SAPE   C2216761   5.274   5.947   6.141 -0.7632 -0.6201 -0.3500
  152SAPE   H2R16762   5.262   5.977   6.034 -0.1115 -0.1881 -0.3090
  152SAPE   H2S16763   5.294   6.040   6.199 -0.7854  0.0554 -1.3837
  152SAPE    C316764   4.809   5.958   6.268  0.1615 -0.1214 -0.0548
  152SAPE    HX16765   4.818   6.063   6.302  0.3660  0.8660 -2.8877
  152SAPE    HY16766   4.736   5.893   6.321  0.7913 -1.5390 -0.8482
  152SAPE   O3116767   4.776   5.975   6.126  0.0119  0.2890 -0.4024
  152SAPE   C3116768   4.686   5.907   6.083 -0.0788 -0.7333 -0.2325
  152SAPE   O3216769   4.619   5.816   6.130 -0.3598 -0.2533 -0.2378
  152SAPE   C3216770   4.657   5.958   5.937 -0.3362 -0.2235  0.7915
  152SAPE   H2X16771   4.742   6.008   5.886 -0.7114 -0.8823 -0.5205
  152SAPE   H2Y16772   4.579   6.037   5.943  1.5746  1.8253 -0.0349
  152SAPE   C2316773   5.403   5.860   6.162 -0.3506 -0.1934 -0.6348
  152SAPE   H3R16774   5.419   5.822   6.265  1.9203  0.5459 -0.6562
  152SAPE   H3S16775   5.486   5.931   6.141  0.4415 -1.7535 -3.3722
  152SAPE   C2416776   5.426   5.747   6.055 -0.4044  0.2746 -0.1438
  152SAPE   H4R16777   5.346   5.673   6.076  1.0976 -1.6330 -0.7539
  152SAPE   H4S16778   5.520   5.693   6.082  0.2429  1.9319  1.0792
  152SAPE   C2516779   5.431   5.781   5.910 -0.0972 -0.4549 -0.1419
  152SAPE   H5R16780   5.376   5.873   5.884 -0.3033 -0.7019 -0.5878
  152SAPE   C2616781   5.493   5.719   5.817  0.1269  0.4195 -0.3242
  152SAPE   H6R16782   5.492   5.756   5.713  1.1117  0.5343 -0.3025
  152SAPE   C2716783   5.582   5.599   5.843 -0.0399 -0.4271 -0.3648
  152SAPE   H7R16784   5.515   5.512   5.821 -0.2589 -0.0677 -1.1751
  152SAPE   H7S16785   5.624   5.585   5.945 -1.0092  1.7122  0.3758
  152SAPE   C2816786   5.705   5.588   5.758 -0.1180  0.6288 -0.1284
  152SAPE   H8R16787   5.785   5.641   5.812 -0.4907  0.0281  1.0639
  152SAPE   C2916788   5.727   5.536   5.633  0.2963 -0.3848  0.3321
  152SAPE   H9R16789   5.824   5.558   5.586 -0.6890 -0.1086 -1.6736
  152SAPE  C21016790   5.640   5.442   5.545 -0.1720 -0.2728  0.1404
  152SAPE  H10R16791   5.573   5.376   5.604 -0.7592  1.7130  1.7886
  152SAPE  H10S16792   5.714   5.376   5.495 -1.4330 -0.9659 -0.8541
  152SAPE  C21116793   5.555   5.521   5.449  0.8637 -0.8499 -0.0859
  152SAPE  H11R16794   5.452   5.539   5.484  0.3659 -0.7380 -1.5730
  152SAPE  C21216795   5.576   5.558   5.319  0.4802  0.4014  0.3022
  152SAPE  H12R16796   5.500   5.621   5.272  0.9333  0.8869  0.2170
  152SAPE  C21316797   5.698   5.525   5.236 -0.2758 -0.1342  0.5163
  152SAPE  H13R16798   5.782   5.512   5.308  1.2227 -1.1346 -1.2927
  152SAPE  H13S16799   5.735   5.604   5.167 -0.3287 -1.8918 -1.6474
  152SAPE  C21416800   5.677   5.405   5.157  0.6441 -0.2269 -0.1577
  152SAPE  H14R16801   5.716   5.313   5.203  0.6633 -1.3983 -2.3817
  152SAPE  C21516802   5.609   5.389   5.039  0.4298  0.4658  0.8818
  152SAPE  H15R16803   5.584   5.286   5.011  1.5405  0.4353 -0.0785
  152SAPE  C21616804   5.546   5.505   4.965 -0.5670 -0.4626 -0.7652
  152SAPE  H16R16805   5.505   5.585   5.029 -2.4082  1.0975 -3.6553
  152SAPE  H16S16806   5.459   5.472   4.904  0.1903 -2.2048 -0.9702
  152SAPE  C21716807   5.652   5.567   4.871 -0.7075 -0.4401  0.6089
  152SAPE  H17R16808   5.742   5.596   4.930 -1.2561 -0.5741  1.5307
  152SAPE  H17S16809   5.613   5.663   4.830  1.5213 -0.8173 -2.8389
  152SAPE  C21816810   5.688   5.484   4.755 -0.3340 -0.2376 -0.6888
  152SAPE  H18R16811   5.611   5.469   4.676 -0.1760  0.6062 -1.0072
  152SAPE  H18S16812   5.715   5.385   4.798  0.2024  0.1358 -0.1583
  152SAPE  C21916813   5.819   5.525   4.684 -0.4541 -0.4822 -0.3328
  152SAPE  H19R16814   5.901   5.533   4.759  0.7846  1.0714 -1.7746
  152SAPE  H19S16815   5.809   5.624   4.634  0.1336 -1.7476 -3.0903
  152SAPE  C22016816   5.857   5.421   4.579 -0.1271  0.2149  0.4681
  152SAPE  H20R16817   5.923   5.464   4.501 -0.4417 -2.2427 -1.3033
  152SAPE  H20S16818   5.768   5.388   4.521 -0.6896 -0.6110  1.7447
  152SAPE  H20T16819   5.914   5.339   4.628  0.5639  0.8870  0.8093
  152SAPE   C3316820   4.605   5.847   5.850  0.1967  0.4327  0.2795
  152SAPE   H3X16821   4.509   5.814   5.895 -0.1231  1.1745  0.1601
  152SAPE   H3Y16822   4.683   5.768   5.851 -0.4822 -0.2340  0.7036
  152SAPE   C3416823   4.587   5.896   5.706  0.1629 -0.6747  0.4016
  152SAPE   H4X16824   4.690   5.895   5.664  0.2205 -0.7048  0.5434
  152SAPE   H4Y16825   4.541   5.998   5.708  0.0546 -0.5914 -2.3471
  152SAPE   C3516826   4.500   5.804   5.614 -0.2269 -0.2975  0.2055
  152SAPE   H5X16827   4.519   5.846   5.512 -1.1410  2.6700  1.1432
  152SAPE   H5Y16828   4.393   5.821   5.639  0.4353  0.6586  2.6119
  152SAPE   C3616829   4.546   5.652   5.599  0.0570  0.2249 -0.0202
  152SAPE   H6X16830   4.529   5.603   5.697 -3.7891 -0.4983 -0.8906
  152SAPE   H6Y16831   4.651   5.656   5.562  0.5896 -0.4993  1.3418
  152SAPE   C3716832   4.468   5.580   5.488 -0.2142 -0.1080  0.2284
  152SAPE   H7X16833   4.359   5.583   5.512 -0.3888 -0.1226 -0.5525
  152SAPE   H7Y16834   4.501   5.474   5.490 -0.2134 -0.1468 -1.2219
  152SAPE   C3816835   4.511   5.627   5.348  0.4414 -0.2671  0.0178
  152SAPE   H8X16836   4.622   5.625   5.348  0.4422 -0.5141  0.9278
  152SAPE   H8Y16837   4.477   5.725   5.306  0.7624 -1.1471 -2.4696
  152SAPE   C3916838   4.469   5.524   5.250  0.5309  0.2216  0.0051
  152SAPE   H9X16839   4.478   5.419   5.282 -0.0970 -0.0392 -0.6413
  152SAPE   H9Y16840   4.522   5.531   5.152  0.6389 -2.9387 -0.2466
  152SAPE  C31016841   4.327   5.548   5.205 -0.1568  0.4842  0.9872
  152SAPE  H10X16842   4.309   5.648   5.159 -0.8607 -0.7712 -1.6435
  152SAPE  H10Y16843   4.262   5.555   5.295  1.1074  2.4298  1.8258
  152SAPE  C31116844   4.260   5.436   5.117  0.5952 -0.4176  0.2088
  152SAPE  H11X16845   4.150   5.428   5.124  0.6627  0.0068  3.0594
  152SAPE  H11Y16846   4.303   5.343   5.161  0.5992 -0.7012 -0.3874
  152SAPE  C31216847   4.307   5.452   4.973  0.3731 -0.3657  0.6034
  152SAPE  H12X16848   4.411   5.488   4.957  0.2983  0.5310  1.9377
  152SAPE  H12Y16849   4.256   5.534   4.918  0.3510 -1.3503 -0.8896
  152SAPE  C31316850   4.303   5.319   4.887 -0.0642  0.2353 -0.4735
  152SAPE  H13X16851   4.206   5.275   4.856  0.7719 -1.4274 -0.8556
  152SAPE  H13Y16852   4.351   5.252   4.962 -1.1760 -1.8482 -1.5225
  152SAPE  C31416853   4.396   5.329   4.760  0.1083  0.2270 -0.5186
  152SAPE  H14X16854   4.492   5.384   4.774 -0.0075  0.4740 -0.6969
  152SAPE  H14Y16855   4.350   5.395   4.683  0.1714  1.1004  0.1703
  152SAPE  C31516856   4.422   5.191   4.697 -0.2915  0.7989 -0.2751
  152SAPE  H15X16857   4.335   5.126   4.676  0.4870 -0.0050 -1.0933
  152SAPE  H15Y16858   4.486   5.131   4.766 -2.0415  0.6605  1.3189
  152SAPE  C31616859   4.501   5.192   4.560  0.1082  0.1494 -0.5755
  152SAPE  H16X16860   4.430   5.239   4.489  1.3341  1.2355 -1.1208
  152SAPE  H16Y16861   4.539   5.095   4.521  0.1860  0.2740 -0.8101
  152SAPE  C31716862   4.632   5.278   4.562 -0.5650 -0.6879 -0.1643
  152SAPE  H17X16863   4.610   5.385   4.580  1.4110 -0.3163  0.3150
  152SAPE  H17Y16864   4.689   5.265   4.468  1.7804 -0.5121  1.1564
  152SAPE  C31816865   4.734   5.249   4.668 -0.1426 -0.5873  0.3052
  152SAPE  H18X16866   4.692   5.281   4.766  0.1166  1.4681 -0.1920
  152SAPE  H18Y16867   4.825   5.308   4.645 -0.2176 -1.1036 -1.4401
  152SAPE  H18Z16868   4.769   5.144   4.674  0.9796 -0.1426  2.2842
  153SAPE     N16869   2.586   5.316   6.687 -0.1393  0.2692 -0.3008
  153SAPE   HN116870   2.664   5.263   6.644 -0.3280 -0.3187  0.0802
  153SAPE   HN216871   2.556   5.260   6.769  1.9863 -0.3324  0.1408
  153SAPE   HN316872   2.515   5.342   6.616  0.3837  2.5413 -0.0928
  153SAPE   C1216873   2.659   5.437   6.730  0.1139 -0.8164  0.0073
  153SAPE  H12A16874   2.727   5.411   6.814 -0.7103 -2.8551  0.1099
  153SAPE  H12B16875   2.595   5.517   6.773 -0.3995 -0.5134 -1.2952
  153SAPE   C1116876   2.738   5.504   6.616 -0.1204  0.3523  0.1481
  153SAPE  H11A16877   2.790   5.588   6.667  0.3208  0.5147 -0.5467
  153SAPE  H11B16878   2.666   5.546   6.542  1.3541  2.3135 -0.2626
  153SAPE     P16879   2.838   5.376   6.410  0.3812 -0.0931  0.0378
  153SAPE   O1316880   2.938   5.270   6.399 -0.1489 -0.2048 -1.1343
  153SAPE   O1416881   2.700   5.357   6.364 -0.0563  0.4120 -0.2267
  153SAPE   O1216882   2.833   5.415   6.560  0.7143  0.1411 -0.2216
  153SAPE   O1116883   2.894   5.515   6.363 -0.1243 -0.3291  0.1009
  153SAPE    C116884   2.812   5.602   6.284 -0.5319 -0.9699 -0.6319
  153SAPE    HA16885   2.703   5.584   6.298 -0.9809  1.1471 -1.0874
  153SAPE    HB16886   2.829   5.706   6.319 -2.3974 -0.8930  0.1436
  153SAPE    C216887   2.852   5.602   6.133 -0.0702 -0.0884  0.0958
  153SAPE    HS16888   2.823   5.696   6.081  0.4136 -0.4289 -0.8171
  153SAPE   O2116889   2.780   5.495   6.065  0.0780 -0.3575  0.1515
  153SAPE   C2116890   2.647   5.514   6.050 -0.5790 -0.8260 -0.6113
  153SAPE   O2216891   2.581   5.605   6.098  0.1429 -0.2058  0.2407
  153SAPE   C2216892   2.590   5.394   5.964  0.1035 -0.2076 -0.0932
  153SAPE   H2R16893   2.650   5.408   5.872  2.7745  0.9075  1.6819
  153SAPE   H2S16894   2.628   5.297   6.002  0.7918  0.3097  0.5819
  153SAPE    C316895   3.006   5.587   6.103  0.4932  0.0719 -0.9722
  153SAPE    HX16896   3.031   5.493   6.156  2.3144 -0.6054 -2.8838
  153SAPE    HY16897   3.071   5.665   6.148 -2.0657  2.0361 -0.4325
  153SAPE   O3116898   3.027   5.579   5.963 -0.2269  0.6092  0.1293
  153SAPE   C3116899   3.066   5.458   5.928 -0.5652 -0.4886 -0.6236
  153SAPE   O3216900   3.090   5.364   6.004  0.4508  0.8058  0.6588
  153SAPE   C3216901   3.084   5.451   5.779 -0.1953 -0.1704  0.3598
  153SAPE   H2X16902   3.099   5.346   5.746 -3.4322 -0.0520 -1.9285
  153SAPE   H2Y16903   3.171   5.517   5.755 -0.6137 -0.5625 -2.5354
  153SAPE   C2316904   2.439   5.398   5.931  0.1776  0.5509 -0.1366
  153SAPE   H3R16905   2.412   5.494   5.881  0.0962 -0.5650 -2.3996
  153SAPE   H3S16906   2.377   5.385   6.022  1.8981 -1.1990  0.8639
  153SAPE   C2416907   2.400   5.277   5.845  0.4582  0.3770 -0.1643
  153SAPE   H4R16908   2.291   5.279   5.822  0.2418  0.7185  0.8431
  153SAPE   H4S16909   2.408   5.182   5.902  0.3236 -1.1836 -2.5556
  153SAPE   C2516910   2.463   5.265   5.708 -0.3472  0.0482  0.1463
  153SAPE   H5R16911   2.399   5.300   5.626 -1.6686 -0.7376  0.7899
  153SAPE   C2616912   2.577   5.203   5.682  0.0977  0.0114  0.5921
  153SAPE   H6R16913   2.603   5.170   5.580  1.2312 -0.0895  0.9017
  153SAPE   C2716914   2.682   5.144   5.773  0.3095  0.6592 -0.0689
  153SAPE   H7R16915   2.661   5.128   5.881  3.3793 -3.3822  0.1799
  153SAPE   H7S16916   2.776   5.201   5.755  0.1174  0.7957 -0.6386
  153SAPE   C2816917   2.716   5.003   5.722 -0.1188  0.1425 -0.4392
  153SAPE   H8R16918   2.634   4.930   5.723 -1.4191  1.5491  0.5633
  153SAPE   C2916919   2.840   4.963   5.685 -0.0326  0.1885  0.1290
  153SAPE   H9R16920   2.855   4.857   5.659 -1.6095  0.0071 -0.1384
  153SAPE  C21016921   2.966   5.046   5.677 -0.1645  0.2034 -0.5869
  153SAPE  H10R16922   2.953   5.137   5.613 -0.4830  0.5625 -0.0206
  153SAPE  H10S16923   3.041   4.988   5.619  0.8826 -1.9882  2.7048
  153SAPE  C21116924   3.020   5.072   5.817 -0.3622 -0.4248 -0.5219
  153SAPE  H11R16925   2.971   5.153   5.873 -0.0841 -0.3294 -0.4141
  153SAPE  C21216926   3.134   5.029   5.875 -0.0633 -0.4047 -0.6482
  153SAPE  H12R16927   3.154   5.069   5.975 -0.5534  0.3316 -0.8302
  153SAPE  C21316928   3.229   4.926   5.833  0.4828  0.4279  0.5171
  153SAPE  H13R16929   3.196   4.882   5.736  1.5676  1.2427 -0.2496
  153SAPE  H13S16930   3.207   4.849   5.910 -1.0941  0.6883  0.3599
  153SAPE  C21416931   3.368   4.960   5.838 -0.0342  0.0680 -0.3650
  153SAPE  H14R16932   3.407   4.985   5.938 -0.3437  0.0665 -0.2437
  153SAPE  C21516933   3.460   4.937   5.737 -0.6131  0.0378  0.2761
  153SAPE  H15R16934   3.561   4.975   5.755 -0.5135 -0.7051  1.3498
  153SAPE  C21616935   3.430   4.889   5.598  0.5224 -0.8273 -0.5671
  153SAPE  H16R16936   3.332   4.837   5.591  0.5139 -0.7413 -1.1958
  153SAPE  H16S16937   3.508   4.819   5.561  0.2384 -0.5470 -1.7543
  153SAPE  C21716938   3.413   5.008   5.501 -0.1632 -0.0352 -0.0877
  153SAPE  H17R16939   3.515   5.035   5.467 -0.3193  1.0581  0.2785
  153SAPE  H17S16940   3.363   5.095   5.548  1.0051  1.4324 -1.4740
  153SAPE  C21816941   3.329   4.971   5.384  0.1014  0.1223 -0.0289
  153SAPE  H18R16942   3.329   5.056   5.312  0.3318  1.4243  1.4477
  153SAPE  H18S16943   3.223   4.955   5.412  0.2654  1.6386  1.6676
  153SAPE  C21916944   3.376   4.839   5.317  0.5008 -0.8051 -0.0129
  153SAPE  H19R16945   3.351   4.759   5.390  0.2002  1.0064  1.9901
  153SAPE  H19S16946   3.483   4.841   5.287  0.5117  2.6321 -0.1737
  153SAPE  C22016947   3.300   4.815   5.182  0.2719 -0.2473 -0.3570
  153SAPE  H20R16948   3.326   4.895   5.110  1.5125 -0.3292 -0.0245
  153SAPE  H20S16949   3.191   4.824   5.204  0.5237  0.1990  0.7532
  153SAPE  H20T16950   3.320   4.717   5.134 -0.6132  0.2489 -1.8162
  153SAPE   C3316951   2.967   5.513   5.698 -0.2054  0.3108  0.2436
  153SAPE   H3X16952   2.944   5.613   5.740  0.5548  0.2843  0.7496
  153SAPE   H3Y16953   2.872   5.455   5.705  0.2470 -0.3425  1.2941
  153SAPE   C3416954   2.992   5.502   5.548 -0.2493  0.2436 -0.5063
  153SAPE   H4X16955   3.032   5.401   5.525 -1.8524 -0.3683 -0.8031
  153SAPE   H4Y16956   3.077   5.570   5.528 -0.4837  0.8903  0.6230
  153SAPE   C3516957   2.866   5.510   5.457 -0.1665  0.4026 -0.0448
  153SAPE   H5X16958   2.800   5.599   5.468 -1.0624 -0.1796 -0.5144
  153SAPE   H5Y16959   2.799   5.427   5.488  1.1532  0.0466  2.0566
  153SAPE   C3616960   2.895   5.471   5.308 -0.1454 -1.0672  0.4556
  153SAPE   H6X16961   2.948   5.373   5.308 -1.8758 -2.0531 -0.0313
  153SAPE   H6Y16962   2.971   5.540   5.267  0.4355 -0.6314  2.1497
  153SAPE   C3716963   2.765   5.453   5.219  0.0140 -0.1660 -0.3078
  153SAPE   H7X16964   2.715   5.552   5.216  0.4481  0.1478  1.5849
  153SAPE   H7Y16965   2.698   5.383   5.271 -0.1001  0.5238  0.4979
  153SAPE   C3816966   2.783   5.412   5.072 -0.3482  0.3849 -0.4586
  153SAPE   H8X16967   2.683   5.370   5.049 -0.2365 -0.5074  0.6225
  153SAPE   H8Y16968   2.857   5.329   5.064  0.3996  0.8780  0.9483
  153SAPE   C3916969   2.821   5.526   4.977  0.2412  0.2250  0.0373
  153SAPE   H9X16970   2.889   5.596   5.030 -1.4483  0.4108  2.1178
  153SAPE   H9Y16971   2.734   5.592   4.957  0.3556  0.6951  1.0116
  153SAPE  C31016972   2.880   5.482   4.846  0.1950  0.3758 -0.2085
  153SAPE  H10X16973   2.815   5.403   4.802  0.2938 -0.0171  0.3508
  153SAPE  H10Y16974   2.975   5.426   4.855  0.1574  0.5001  1.1265
  153SAPE  C31116975   2.897   5.593   4.741  0.2548  0.7181 -0.2477
  153SAPE  H11X16976   2.987   5.645   4.779  0.9363 -0.8726  0.3972
  153SAPE  H11Y16977   2.804   5.655   4.741 -0.0392  0.3304 -2.1462
  153SAPE  C31216978   2.929   5.567   4.599  0.5556 -0.1748  0.6455
  153SAPE  H12X16979   2.913   5.656   4.534 -0.8208 -1.1630 -0.4223
  153SAPE  H12Y16980   2.880   5.477   4.557 -1.8243  0.6066  1.5658
  153SAPE  C31316981   3.074   5.524   4.560 -0.2773 -1.1787  0.3914
  153SAPE  H13X16982   3.102   5.418   4.579  0.5835 -0.8850  0.8481
  153SAPE  H13Y16983   3.143   5.588   4.620 -1.6251  1.5492 -0.7816
  153SAPE  C31416984   3.106   5.559   4.406  0.3422 -0.4891 -0.3575
  153SAPE  H14X16985   3.120   5.669   4.401  0.5069 -0.5097 -0.3791
  153SAPE  H14Y16986   3.023   5.528   4.339 -1.2231  1.9363  0.3466
  153SAPE  C31516987   3.235   5.504   4.349 -0.2564  0.2496 -0.1745
  153SAPE  H15X16988   3.321   5.558   4.394  1.2112  0.3634 -2.9310
  153SAPE  H15Y16989   3.246   5.521   4.240 -1.1222  0.4297 -0.2451
  153SAPE  C31616990   3.267   5.354   4.372 -0.2702 -0.3296 -0.2104
  153SAPE  H16X16991   3.172   5.302   4.348 -0.7939  0.6955 -0.3657
  153SAPE  H16Y16992   3.290   5.334   4.479  0.8635  1.0670 -0.1677
  153SAPE  C31716993   3.384   5.313   4.282  0.0202 -0.4845 -0.5215
  153SAPE  H17X16994   3.464   5.384   4.309 -1.8415  0.7510  2.0762
  153SAPE  H17Y16995   3.363   5.345   4.177 -2.6859  1.9126  0.6219
  153SAPE  C31816996   3.411   5.166   4.285  0.0748 -0.5469 -0.4552
  153SAPE  H18X16997   3.463   5.138   4.379 -1.9537  1.9070  1.5471
  153SAPE  H18Y16998   3.467   5.128   4.197  1.4827 -1.5056  0.7915
  153SAPE  H18Z16999   3.315   5.111   4.276 -0.8247  1.0843 -1.2841
  154SAPE     N17000   2.425   4.185   6.672  0.4216 -0.1523  0.1342
  154SAPE   HN117001   2.336   4.229   6.641  0.7229 -0.6651 -1.5230
  154SAPE   HN217002   2.418   4.081   6.683  0.3661 -0.0354  1.3938
  154SAPE   HN317003   2.437   4.243   6.758 -1.7552  0.3711  0.1413
  154SAPE   C1217004   2.527   4.213   6.572 -0.2040  0.4809 -0.0867
  154SAPE  H12A17005   2.481   4.197   6.472 -1.4217  2.0664  0.1881
  154SAPE  H12B17006   2.603   4.136   6.597  1.4039  2.2468  0.6899
  154SAPE   C1117007   2.577   4.355   6.587  0.4920  0.1929 -0.0361
  154SAPE  H11A17008   2.636   4.377   6.495  0.8355  3.4918  0.8200
  154SAPE  H11B17009   2.648   4.375   6.670  1.2133  0.9488 -0.8059
  154SAPE     P17010   2.445   4.522   6.732 -0.2654  0.1202 -0.3942
  154SAPE   O1317011   2.368   4.426   6.819 -0.1749  1.0043  0.3245
  154SAPE   O1417012   2.571   4.575   6.787  0.5580  0.0938 -0.9260
  154SAPE   O1217013   2.474   4.453   6.593  0.1078 -0.1276  0.4821
  154SAPE   O1117014   2.348   4.642   6.705  0.6469 -0.0234 -0.1954
  154SAPE    C117015   2.216   4.623   6.647 -0.0512  0.1868  0.0251
  154SAPE    HA17016   2.199   4.514   6.636 -0.4563  0.4032 -1.9847
  154SAPE    HB17017   2.133   4.663   6.709  0.4550 -0.4659  1.1441
  154SAPE    C217018   2.209   4.693   6.508 -0.7777  0.4156 -0.6016
  154SAPE    HS17019   2.108   4.666   6.468 -0.0244 -1.0407 -1.6060
  154SAPE   O2117020   2.312   4.651   6.414 -0.6004  0.4846 -0.7764
  154SAPE   C2117021   2.304   4.520   6.367  0.2452 -0.2868 -0.2659
  154SAPE   O2217022   2.217   4.442   6.402 -0.0225 -0.2922 -0.2472
  154SAPE   C2217023   2.405   4.482   6.269 -0.2529  0.0378  0.4393
  154SAPE   H2R17024   2.413   4.560   6.189  0.0263 -0.0275  0.4004
  154SAPE   H2S17025   2.505   4.481   6.318 -0.0615 -0.4812  0.0546
  154SAPE    C317026   2.230   4.847   6.519 -0.4662  0.0640  0.4187
  154SAPE    HX17027   2.334   4.863   6.555 -1.2774 -0.0788  3.0548
  154SAPE    HY17028   2.162   4.886   6.598  0.5867  1.5691  0.6375
  154SAPE   O3117029   2.199   4.919   6.400  0.2854  0.1234  0.1859
  154SAPE   C3117030   2.225   5.051   6.410 -0.0186 -0.0304  0.2525
  154SAPE   O3217031   2.258   5.103   6.514  0.3740 -0.7065 -0.4039
  154SAPE   C3217032   2.204   5.120   6.282 -0.1406 -0.0243 -0.6295
  154SAPE   H2X17033   2.273   5.088   6.201 -0.8046 -0.7851 -0.9055
  154SAPE   H2Y17034   2.223   5.226   6.306 -0.7520 -0.1382  0.4321
  154SAPE   C2317035   2.378   4.346   6.199 -0.0425  0.5685  0.3686
  154SAPE   H3R17036   2.275   4.344   6.156 -1.4765 -0.4253  3.5185
  154SAPE   H3S17037   2.385   4.267   6.277  0.4378 -1.4631 -1.6323
  154SAPE   C2417038   2.476   4.302   6.101  0.2285  0.4205  0.6033
  154SAPE   H4R17039   2.447   4.201   6.063  2.8976 -0.0511 -0.4257
  154SAPE   H4S17040   2.574   4.271   6.143  0.7667 -0.8504 -1.3970
  154SAPE   C2517041   2.501   4.401   5.995  0.1863 -0.5630  1.4670
  154SAPE   H5R17042   2.579   4.478   6.011 -1.0142  1.1771 -0.5605
  154SAPE   C2617043   2.432   4.412   5.883 -0.1030 -0.1684  0.7423
  154SAPE   H6R17044   2.464   4.484   5.806 -1.0795  2.0105  2.2682
  154SAPE   C2717045   2.316   4.326   5.835  0.3772  0.4639  0.0242
  154SAPE   H7R17046   2.245   4.409   5.815  1.1533  0.6705 -2.2405
  154SAPE   H7S17047   2.280   4.250   5.907 -0.0063 -0.1212 -0.7715
  154SAPE   C2817048   2.349   4.266   5.697  0.3439  0.0042 -0.8178
  154SAPE   H8R17049   2.412   4.178   5.715  0.9165  0.8137  1.6308
  154SAPE   C2917050   2.299   4.307   5.583 -0.0035  0.0840  0.3157
  154SAPE   H9R17051   2.329   4.267   5.485  0.2182  1.6644 -0.2867
  154SAPE  C21017052   2.203   4.428   5.575 -0.1437  0.0253 -0.6461
  154SAPE  H10R17053   2.246   4.511   5.636 -1.2503 -1.4173  2.2677
  154SAPE  H10S17054   2.109   4.404   5.629  0.4253  0.2760  0.4933
  154SAPE  C21117055   2.165   4.469   5.438 -0.0126  0.2131 -0.1091
  154SAPE  H11R17056   2.084   4.404   5.401  0.8715 -1.9180  1.5151
  154SAPE  C21217057   2.226   4.547   5.353  0.0172 -0.4424  0.1332
  154SAPE  H12R17058   2.180   4.563   5.254  2.1770  0.5683 -0.7611
  154SAPE  C21317059   2.352   4.627   5.381  0.0922 -0.8339 -0.6680
  154SAPE  H13R17060   2.367   4.658   5.487 -0.6707 -0.1261 -0.7560
  154SAPE  H13S17061   2.340   4.728   5.336  0.2404  0.3548  1.7521
  154SAPE  C21417062   2.479   4.561   5.345  0.0937  0.0755 -0.9342
  154SAPE  H14R17063   2.509   4.484   5.417  0.9871 -0.1336 -1.5151
  154SAPE  C21517064   2.547   4.576   5.236  0.2035  0.3031 -0.0072
  154SAPE  H15R17065   2.628   4.503   5.225 -1.4533 -1.8238  1.1408
  154SAPE  C21617066   2.523   4.674   5.120 -0.1407 -0.0503  0.2010
  154SAPE  H16R17067   2.624   4.713   5.098 -0.2819 -0.4134 -1.1850
  154SAPE  H16S17068   2.465   4.767   5.135 -1.1630 -0.6218 -0.1249
  154SAPE  C21717069   2.449   4.618   4.996 -0.9092 -0.1566 -0.2547
  154SAPE  H17R17070   2.342   4.615   5.025 -0.6263 -3.4474  0.8673
  154SAPE  H17S17071   2.466   4.510   4.976 -0.6728 -0.2646  0.4907
  154SAPE  C21817072   2.476   4.701   4.868 -0.0875 -0.2410  0.3974
  154SAPE  H18R17073   2.441   4.639   4.783  2.9190  0.2632 -1.3068
  154SAPE  H18S17074   2.583   4.708   4.841 -0.2467 -0.7844 -0.4205
  154SAPE  C21917075   2.412   4.838   4.868 -0.1259 -0.2094  0.1384
  154SAPE  H19R17076   2.477   4.899   4.802  0.2132  1.0329  1.5711
  154SAPE  H19S17077   2.413   4.893   4.964  0.4269  3.4133 -1.7988
  154SAPE  C22017078   2.260   4.850   4.824 -0.0657  0.0796  0.0083
  154SAPE  H20R17079   2.247   4.789   4.732  2.0136  0.8997 -0.8994
  154SAPE  H20S17080   2.212   4.949   4.811 -3.8457 -1.4830  0.7245
  154SAPE  H20T17081   2.193   4.803   4.899  1.8338 -0.4369  1.4622
  154SAPE   C3317082   2.063   5.083   6.234  0.0649  0.3723 -0.5124
  154SAPE   H3X17083   1.988   5.066   6.314 -0.2149 -0.4546 -0.9433
  154SAPE   H3Y17084   2.086   4.989   6.181 -0.6395  0.1579 -0.4477
  154SAPE   C3417085   1.980   5.189   6.146 -0.2052  1.1212  0.1986
  154SAPE   H4X17086   2.037   5.237   6.064  0.8986 -0.3402  0.0703
  154SAPE   H4Y17087   1.952   5.270   6.216 -0.2677  0.2300  1.2321
  154SAPE   C3517088   1.850   5.131   6.091 -0.1111 -0.3099  0.4952
  154SAPE   H5X17089   1.790   5.105   6.181 -1.5896  1.6215  0.1433
  154SAPE   H5Y17090   1.874   5.044   6.027  0.9056  0.8366 -0.7321
  154SAPE   C3617091   1.772   5.228   6.004 -0.7936  0.0028 -0.3306
  154SAPE   H6X17092   1.786   5.330   6.045  1.5060  0.5476 -2.2433
  154SAPE   H6Y17093   1.665   5.198   6.010 -1.1257  1.3909  1.2205
  154SAPE   C3717094   1.820   5.230   5.860 -0.8136  0.2929 -0.5542
  154SAPE   H7X17095   1.927   5.261   5.855 -1.3113  2.2210  0.0553
  154SAPE   H7Y17096   1.762   5.310   5.811  1.2915  2.0074 -0.4083
  154SAPE   C3817097   1.806   5.096   5.776  0.3179 -0.4521 -0.6106
  154SAPE   H8X17098   1.707   5.047   5.793 -0.4196  0.0841 -3.0623
  154SAPE   H8Y17099   1.881   5.023   5.814 -0.1735 -0.5717  0.1607
  154SAPE   C3917100   1.855   5.112   5.634 -0.8804 -0.8529  0.0714
  154SAPE   H9X17101   1.893   5.018   5.589  1.2640  0.6014 -1.3551
  154SAPE   H9Y17102   1.939   5.184   5.638 -1.1512 -0.5798  1.3438
  154SAPE  C31017103   1.752   5.161   5.527 -0.3891  0.3134 -0.0866
  154SAPE  H10X17104   1.709   5.251   5.575  1.5347  1.0648  0.3324
  154SAPE  H10Y17105   1.675   5.083   5.508  0.2704  0.0228 -1.7663
  154SAPE  C31117106   1.827   5.193   5.395 -0.1675 -0.0176  0.7514
  154SAPE  H11X17107   1.897   5.110   5.372  1.0051  1.2796 -0.5500
  154SAPE  H11Y17108   1.882   5.290   5.401 -1.0020  0.7043 -2.0007
  154SAPE  C31217109   1.734   5.225   5.276 -0.8218 -0.3953  0.4221
  154SAPE  H12X17110   1.656   5.293   5.317  1.0709  3.0036 -1.1513
  154SAPE  H12Y17111   1.703   5.127   5.233 -1.6721 -0.1934  0.5436
  154SAPE  C31317112   1.800   5.298   5.166  0.0541  0.4843  0.0461
  154SAPE  H13X17113   1.851   5.387   5.209  0.7091 -0.8569  2.2025
  154SAPE  H13Y17114   1.716   5.323   5.097 -0.6829 -0.1305  0.7082
  154SAPE  C31417115   1.894   5.205   5.087 -0.1137  0.7868  0.1341
  154SAPE  H14X17116   1.830   5.119   5.057  1.5473 -0.4381 -0.0346
  154SAPE  H14Y17117   1.962   5.156   5.160  0.3717  0.7375 -0.3418
  154SAPE  C31517118   1.962   5.286   4.976 -0.5915  0.0989 -0.8935
  154SAPE  H15X17119   2.047   5.347   5.013  2.0753 -1.6207 -3.7214
  154SAPE  H15Y17120   1.892   5.365   4.939 -3.2698 -1.7277 -0.0227
  154SAPE  C31617121   2.018   5.189   4.869 -0.7236  0.4017  0.4187
  154SAPE  H16X17122   1.928   5.142   4.822  0.4706  1.1152 -2.8532
  154SAPE  H16Y17123   2.084   5.109   4.910 -0.6720 -0.1351 -0.6695
  154SAPE  C31717124   2.104   5.257   4.762  0.1363  0.5444  0.6074
  154SAPE  H17X17125   2.197   5.291   4.812  0.1231 -0.7956  1.5929
  154SAPE  H17Y17126   2.051   5.352   4.738  0.6252  0.3930 -1.1497
  154SAPE  C31817127   2.131   5.176   4.629  0.2580 -0.3837  0.7662
  154SAPE  H18X17128   2.164   5.245   4.548  0.1695 -0.0404  1.0195
  154SAPE  H18Y17129   2.038   5.124   4.596 -0.9148  2.0661  0.0035
  154SAPE  H18Z17130   2.213   5.102   4.645  0.7984  0.0900  0.2534
  155SAPE     N17131   3.476   2.668   6.599 -0.1716 -0.8786  0.4342
  155SAPE   HN117132   3.470   2.641   6.699  2.2065 -3.1009  0.0690
  155SAPE   HN217133   3.389   2.719   6.574  1.2915  1.5903  0.0145
  155SAPE   HN317134   3.475   2.584   6.538  0.2057  0.1312 -1.0167
  155SAPE   C1217135   3.596   2.749   6.578  0.6956  0.1900 -0.7715
  155SAPE  H12A17136   3.611   2.743   6.468 -1.7806 -1.3041 -1.0938
  155SAPE  H12B17137   3.685   2.706   6.628 -0.1577  0.9421  1.5147
  155SAPE   C1117138   3.572   2.899   6.618  0.5866  0.1325 -0.7206
  155SAPE  H11A17139   3.676   2.937   6.604  0.9869 -0.6623 -0.0340
  155SAPE  H11B17140   3.548   2.903   6.726 -0.3927  1.7908 -0.9612
  155SAPE     P17141   3.388   3.069   6.562 -0.4345  0.0961  0.1389
  155SAPE   O1317142   3.273   3.003   6.623  0.0803  0.1477  0.2080
  155SAPE   O1417143   3.464   3.164   6.643 -0.7012  0.4397 -0.3751
  155SAPE   O1217144   3.479   2.957   6.534 -0.3041 -0.4931  0.0570
  155SAPE   O1117145   3.361   3.128   6.418 -0.1178 -0.5370  0.0829
  155SAPE    C117146   3.374   3.267   6.392 -0.3201  0.0557 -0.0321
  155SAPE    HA17147   3.283   3.314   6.350  0.5617  2.8795  0.9238
  155SAPE    HB17148   3.395   3.327   6.484  1.3848 -0.2816 -0.1589
  155SAPE    C217149   3.485   3.303   6.280 -0.5003  0.0292 -0.0312
  155SAPE    HS17150   3.470   3.411   6.262 -2.7938 -0.5763 -2.2128
  155SAPE   O2117151   3.471   3.229   6.163  0.3089 -0.4207  0.1297
  155SAPE   C2117152   3.366   3.264   6.087 -0.5888 -0.0082  0.0238
  155SAPE   O2217153   3.292   3.356   6.115 -0.6728 -0.4561  0.2424
  155SAPE   C2217154   3.370   3.190   5.956 -0.3349  0.1171 -0.0000
  155SAPE   H2R17155   3.468   3.203   5.905 -0.3838 -1.7798 -0.6526
  155SAPE   H2S17156   3.372   3.083   5.984 -1.4992  0.5608  1.9554
  155SAPE    C317157   3.632   3.272   6.325 -0.2495 -0.2617  0.1521
  155SAPE    HX17158   3.626   3.172   6.374 -1.3151 -0.5211 -0.4868
  155SAPE    HY17159   3.649   3.353   6.399  2.6097 -1.0453  0.4965
  155SAPE   O3117160   3.728   3.287   6.217  0.3140 -0.3890  0.1014
  155SAPE   C3117161   3.762   3.415   6.194 -0.2407  0.4096  0.0886
  155SAPE   O3217162   3.711   3.515   6.247  0.2832 -0.2851 -0.3185
  155SAPE   C3217163   3.862   3.419   6.080  0.1301 -0.2710  0.2017
  155SAPE   H2X17164   3.842   3.335   6.011 -0.7084  0.7150 -0.7882
  155SAPE   H2Y17165   3.959   3.410   6.134 -0.7018 -2.0329  1.5132
  155SAPE   C2317166   3.239   3.200   5.869 -0.1391 -0.0824 -0.4706
  155SAPE   H3R17167   3.222   3.297   5.818  0.0495  0.6577  0.8440
  155SAPE   H3S17168   3.150   3.193   5.936  0.8456 -0.8446  0.7828
  155SAPE   C2417169   3.238   3.086   5.761 -0.1918 -0.3689 -0.4396
  155SAPE   H4R17170   3.136   3.088   5.718  0.3789  0.6028 -1.8188
  155SAPE   H4S17171   3.242   2.987   5.813 -2.1550 -0.6989 -0.8434
  155SAPE   C2517172   3.350   3.110   5.659  0.0850  0.6069 -0.5123
  155SAPE   H5R17173   3.441   3.050   5.670  0.6652  1.8923  3.0466
  155SAPE   C2617174   3.341   3.178   5.539  0.4424  0.3083  0.3397
  155SAPE   H6R17175   3.423   3.178   5.465 -1.0196 -0.9865 -1.3835
  155SAPE   C2717176   3.222   3.251   5.488 -1.3231  0.1228 -0.5171
  155SAPE   H7R17177   3.246   3.358   5.506  1.8264 -0.2345 -1.9026
  155SAPE   H7S17178   3.132   3.224   5.548 -1.5901  0.0346 -0.9553
  155SAPE   C2817179   3.197   3.220   5.342 -0.1073 -0.3167  0.1122
  155SAPE   H8R17180   3.096   3.181   5.324 -1.0527  1.8350  0.4981
  155SAPE   C2917181   3.266   3.246   5.233 -0.1598  0.1564  0.2645
  155SAPE   H9R17182   3.240   3.206   5.134  0.8295  0.0279  0.0425
  155SAPE  C21017183   3.400   3.310   5.216  0.4830  0.4977 -0.5078
  155SAPE  H10R17184   3.420   3.352   5.317 -0.3678 -1.6159  0.5915
  155SAPE  H10S17185   3.403   3.399   5.150  1.2350 -0.5849 -1.9948
  155SAPE  C21117186   3.511   3.208   5.183  0.5801  0.0100 -0.3274
  155SAPE  H11R17187   3.488   3.102   5.198 -0.3846  0.0357 -1.4617
  155SAPE  C21217188   3.630   3.243   5.139  0.5371 -0.2837 -0.5424
  155SAPE  H12R17189   3.699   3.161   5.117 -1.5917 -2.0258 -1.0290
  155SAPE  C21317190   3.675   3.380   5.124  0.3815 -0.7253  0.2661
  155SAPE  H13R17191   3.679   3.418   5.228 -1.1184 -2.8078  1.1525
  155SAPE  H13S17192   3.612   3.445   5.061  1.5070  0.9242  0.7803
  155SAPE  C21417193   3.812   3.399   5.063 -0.4775  0.7601  0.1832
  155SAPE  H14R17194   3.886   3.423   5.141 -0.5762  1.3837  0.0873
  155SAPE  C21517195   3.841   3.394   4.929 -0.5258  0.2083  0.2476
  155SAPE  H15R17196   3.938   3.403   4.880  0.3504 -1.5842  1.5429
  155SAPE  C21617197   3.743   3.371   4.819 -0.2716  0.1595 -0.2320
  155SAPE  H16R17198   3.643   3.337   4.852 -0.1417 -0.3422 -0.3436
  155SAPE  H16S17199   3.775   3.280   4.764  2.6491  0.8963  0.0870
  155SAPE  C21717200   3.711   3.485   4.715  0.3156 -0.0363  0.2068
  155SAPE  H17R17201   3.804   3.513   4.660  0.7117  2.5591  1.9978
  155SAPE  H17S17202   3.692   3.586   4.758  0.2342  0.0570 -0.0407
  155SAPE  C21817203   3.586   3.454   4.628 -0.0563  0.2035  0.5641
  155SAPE  H18R17204   3.498   3.435   4.694 -0.1543 -0.4699  0.2484
  155SAPE  H18S17205   3.600   3.358   4.574 -0.3741  0.6700 -0.3598
  155SAPE  C21917206   3.539   3.564   4.529  0.7816  0.1127  0.0471
  155SAPE  H19R17207   3.627   3.598   4.470 -0.3767  2.3032 -0.5230
  155SAPE  H19S17208   3.496   3.646   4.591 -1.1828 -0.5346 -0.4054
  155SAPE  C22017209   3.420   3.522   4.443  0.4710 -0.2110  0.3649
  155SAPE  H20R17210   3.438   3.415   4.415 -0.4003  0.0465 -1.2959
  155SAPE  H20S17211   3.426   3.572   4.345  0.6985 -2.6570 -0.9532
  155SAPE  H20T17212   3.320   3.539   4.490 -0.8119 -2.5150 -1.3363
  155SAPE   C3317213   3.864   3.553   6.005  0.1710  0.1141  0.8783
  155SAPE   H3X17214   3.883   3.635   6.077 -0.6588  0.5558  0.6056
  155SAPE   H3Y17215   3.763   3.575   5.965  0.0720  0.0492  1.0915
  155SAPE   C3417216   3.984   3.571   5.903 -0.6967 -0.5866 -0.8331
  155SAPE   H4X17217   3.987   3.495   5.821  0.8612 -2.6080  0.9615
  155SAPE   H4Y17218   4.074   3.538   5.959 -0.7706  2.4657  1.3076
  155SAPE   C3517219   4.001   3.712   5.853 -0.6636 -0.7926 -0.1879
  155SAPE   H5X17220   4.033   3.780   5.935 -0.2330 -1.7625  0.4706
  155SAPE   H5Y17221   3.904   3.750   5.815  0.0935  1.5110  0.0276
  155SAPE   C3617222   4.103   3.723   5.738 -0.0560 -0.1147  0.0469
  155SAPE   H6X17223   4.070   3.644   5.666  0.4684 -0.8066  0.5510
  155SAPE   H6Y17224   4.205   3.694   5.773 -0.3069 -3.4028 -1.4925
  155SAPE   C3717225   4.104   3.865   5.672  0.3824  0.8131  0.0366
  155SAPE   H7X17226   4.131   3.934   5.755  1.3955 -1.7746  1.9876
  155SAPE   H7Y17227   4.004   3.896   5.636  1.2718  1.4722 -2.0092
  155SAPE   C3817228   4.200   3.873   5.558 -0.2221 -0.7173 -0.3968
  155SAPE   H8X17229   4.299   3.834   5.593 -0.1685 -0.2564 -0.0254
  155SAPE   H8Y17230   4.199   3.979   5.527  1.7279 -0.8598 -1.1131
  155SAPE   C3917231   4.163   3.787   5.435  0.2613 -0.4126 -1.4084
  155SAPE   H9X17232   4.065   3.824   5.400  0.2762  0.0885 -0.9262
  155SAPE   H9Y17233   4.163   3.677   5.449 -0.3318 -0.3049 -0.4723
  155SAPE  C31017234   4.249   3.814   5.311 -0.1850 -0.0356  0.1541
  155SAPE  H10X17235   4.358   3.797   5.324 -0.5743 -0.9667  2.5772
  155SAPE  H10Y17236   4.233   3.920   5.280 -1.3509 -0.4606 -0.8138
  155SAPE  C31117237   4.210   3.742   5.180 -0.7077  0.4268 -0.4762
  155SAPE  H11X17238   4.100   3.741   5.172 -1.2012 -0.8171  3.8661
  155SAPE  H11Y17239   4.234   3.636   5.201 -2.3707  0.5139  2.2691
  155SAPE  C31217240   4.273   3.796   5.057 -0.3677 -0.4596  0.0786
  155SAPE  H12X17241   4.382   3.807   5.076 -0.1996 -0.3719 -0.8924
  155SAPE  H12Y17242   4.225   3.888   5.019 -1.5617 -1.3511 -0.6583
  155SAPE  C31317243   4.261   3.707   4.941 -0.2126 -0.3628  0.0905
  155SAPE  H13X17244   4.304   3.607   4.964 -0.1449 -0.5792 -0.9225
  155SAPE  H13Y17245   4.319   3.766   4.867 -1.7325  2.7346  1.1768
  155SAPE  C31417246   4.116   3.683   4.900  0.0885  0.3545 -0.2010
  155SAPE  H14X17247   4.059   3.640   4.985 -0.3927 -1.4056 -1.3689
  155SAPE  H14Y17248   4.111   3.604   4.822  0.2253  1.2982 -1.1801
  155SAPE  C31517249   4.051   3.805   4.832 -0.4131  0.1560  0.2224
  155SAPE  H15X17250   4.119   3.863   4.766  1.1467 -1.5486  0.2486
  155SAPE  H15Y17251   4.022   3.878   4.910 -0.3000  0.8487 -0.3786
  155SAPE  C31617252   3.931   3.766   4.751 -0.3935 -0.0130  0.2885
  155SAPE  H16X17253   3.877   3.676   4.788  2.0644 -2.4769 -1.6773
  155SAPE  H16Y17254   3.975   3.726   4.657  0.4388 -0.9190  1.0411
  155SAPE  C31717255   3.844   3.889   4.712 -0.5788  0.3731  0.7542
  155SAPE  H17X17256   3.909   3.970   4.672 -0.6575  0.0144 -0.1280
  155SAPE  H17Y17257   3.803   3.914   4.812  3.4963  1.5589  2.3366
  155SAPE  C31817258   3.738   3.860   4.607 -0.1685 -0.5432  0.0601
  155SAPE  H18X17259   3.684   3.955   4.587  1.0564  0.4399  1.2406
  155SAPE  H18Y17260   3.659   3.787   4.636 -0.4787 -1.4548 -2.7449
  155SAPE  H18Z17261   3.784   3.828   4.511 -2.0212  0.8921 -1.3876
  156SAPE     N17262   5.081   4.380   6.395  0.8241  0.0841 -0.2010
  156SAPE   HN117263   4.994   4.386   6.337  1.6532 -0.2911 -1.5380
  156SAPE   HN217264   5.060   4.292   6.446  0.0847  1.3384  1.7674
  156SAPE   HN317265   5.081   4.457   6.464 -0.8388 -1.6201  1.8389
  156SAPE   C1217266   5.202   4.370   6.302  0.3673  0.3621 -0.2156
  156SAPE  H12A17267   5.211   4.456   6.233 -0.5531  1.2250  0.7055
  156SAPE  H12B17268   5.192   4.290   6.226  1.3893  1.5832 -1.7061
  156SAPE   C1117269   5.334   4.335   6.376  0.3793  0.1563  0.9311
  156SAPE  H11A17270   5.418   4.313   6.306  0.1673 -1.3398  1.1263
  156SAPE  H11B17271   5.312   4.241   6.431  3.3664 -0.8368  0.6304
  156SAPE     P17272   5.483   4.433   6.565 -0.1396  0.4879  0.2239
  156SAPE   O1317273   5.484   4.556   6.652  0.3849 -0.1620  0.1484
  156SAPE   O1417274   5.468   4.301   6.639  0.2300  0.6326 -0.3236
  156SAPE   O1217275   5.368   4.440   6.463 -0.1025 -0.2550  0.6699
  156SAPE   O1117276   5.608   4.433   6.461  0.3745 -0.1135 -0.3925
  156SAPE    C117277   5.640   4.562   6.394 -0.5248 -0.5277 -0.1105
  156SAPE    HA17278   5.563   4.581   6.316  3.1141  1.2907 -3.6049
  156SAPE    HB17279   5.651   4.645   6.467 -0.0810 -0.2780 -0.4599
  156SAPE    C217280   5.777   4.558   6.313  0.1674  0.4791  0.4564
  156SAPE    HS17281   5.795   4.654   6.260 -0.1017 -0.4531 -1.3862
  156SAPE   O2117282   5.781   4.452   6.214 -0.2349 -0.9235  0.3459
  156SAPE   C2117283   5.726   4.486   6.099  0.3828  0.3792  0.0147
  156SAPE   O2217284   5.675   4.592   6.069 -0.1033 -0.0344 -0.3886
  156SAPE   C2217285   5.742   4.376   5.992  0.0482  0.6548 -0.2171
  156SAPE   H2R17286   5.823   4.411   5.924 -1.3123  2.2308 -1.0960
  156SAPE   H2S17287   5.773   4.291   6.057 -0.7387  1.8419  1.7695
  156SAPE    C317288   5.902   4.538   6.408 -0.7975 -0.1595 -0.0912
  156SAPE    HX17289   5.881   4.454   6.478  2.2882 -0.4688  0.5988
  156SAPE    HY17290   5.899   4.622   6.480 -1.3194  0.4615 -0.8214
  156SAPE   O3117291   6.025   4.536   6.326  0.0690  0.4068 -0.3936
  156SAPE   C3117292   6.082   4.416   6.315  0.4039  0.4255  0.4753
  156SAPE   O3217293   6.030   4.303   6.322  0.0132  0.4196  0.2192
  156SAPE   C3217294   6.227   4.435   6.287 -0.1388  0.3717 -0.3706
  156SAPE   H2X17295   6.284   4.389   6.371 -1.0070  2.4666  1.4741
  156SAPE   H2Y17296   6.257   4.538   6.258  1.2840 -0.4516 -1.9375
  156SAPE   C2317297   5.611   4.343   5.919  0.0997 -0.0710 -0.2051
  156SAPE   H3R17298   5.633   4.255   5.856  1.5649  0.2139 -0.1192
  156SAPE   H3S17299   5.569   4.425   5.856  1.1245  1.4139  0.9495
  156SAPE   C2417300   5.497   4.321   6.023  0.7142  0.3273 -0.0081
  156SAPE   H4R17301   5.409   4.314   5.955  0.6104 -0.5011  0.2021
  156SAPE   H4S17302   5.487   4.409   6.091  0.1513  0.0546  0.2707
  156SAPE   C2517303   5.501   4.191   6.097 -0.1514  0.6237  0.4976
  156SAPE   H5R17304   5.595   4.163   6.146  0.0509  0.6429  0.1232
  156SAPE   C2617305   5.407   4.094   6.096  0.5196 -0.2261  0.0452
  156SAPE   H6R17306   5.426   4.008   6.162  0.5460  0.2838  0.7127
  156SAPE   C2717307   5.275   4.097   6.020 -0.6628 -0.1526 -0.3219
  156SAPE   H7R17308   5.240   4.202   6.026  2.3605  1.0903 -2.4967
  156SAPE   H7S17309   5.209   4.032   6.083  0.1518 -0.2286  0.4768
  156SAPE   C2817310   5.283   4.052   5.875 -0.3901 -0.3852 -0.4241
  156SAPE   H8R17311   5.325   3.950   5.870  2.8511  0.8674 -1.7721
  156SAPE   C2917312   5.245   4.124   5.766 -0.2194 -0.1066  0.0951
  156SAPE   H9R17313   5.246   4.080   5.665  0.5799  1.8618 -0.8193
  156SAPE  C21017314   5.195   4.270   5.756 -0.3337 -0.6232 -0.0191
  156SAPE  H10R17315   5.230   4.325   5.666  0.1819  1.1967  1.2302
  156SAPE  H10S17316   5.226   4.327   5.847  0.1944 -2.0947  0.7538
  156SAPE  C21117317   5.045   4.262   5.756  0.0244  0.4332 -1.1175
  156SAPE  H11R17318   4.989   4.245   5.850  0.2974  0.6500 -0.9137
  156SAPE  C21217319   4.966   4.269   5.651 -0.2519  0.0784  0.2301
  156SAPE  H12R17320   4.856   4.257   5.654 -0.1699 -0.9637 -0.2677
  156SAPE  C21317321   5.022   4.299   5.513 -0.2138  0.5437  1.0241
  156SAPE  H13R17322   5.091   4.387   5.523  0.8270 -0.0452 -0.5691
  156SAPE  H13S17323   4.939   4.335   5.448  1.4939  1.3945 -0.8207
  156SAPE  C21417324   5.091   4.190   5.432  0.4882  0.2895 -0.1327
  156SAPE  H14R17325   5.061   4.092   5.472  1.8574  0.6959  2.0751
  156SAPE  C21517326   5.191   4.194   5.343  0.8214  0.1703  0.5848
  156SAPE  H15R17327   5.230   4.095   5.316 -2.0217 -1.0810  0.7024
  156SAPE  C21617328   5.254   4.308   5.271  1.0624 -0.3398  0.1182
  156SAPE  H16R17329   5.353   4.339   5.312  0.9318 -0.8189  0.8319
  156SAPE  H16S17330   5.181   4.389   5.290 -0.2925 -1.5121  0.0640
  156SAPE  C21717331   5.259   4.289   5.121  0.0492  0.5368  0.6067
  156SAPE  H17R17332   5.164   4.241   5.089  1.4205 -0.8928 -1.6221
  156SAPE  H17S17333   5.344   4.220   5.100  0.0962  1.3147 -2.1995
  156SAPE  C21817334   5.271   4.425   5.039  0.8848 -0.3289 -0.9273
  156SAPE  H18R17335   5.364   4.484   5.057  1.4664 -1.9295  2.0707
  156SAPE  H18S17336   5.185   4.483   5.079  2.0774  0.5318  0.4936
  156SAPE  C21917337   5.246   4.417   4.890  0.1203  0.6873 -0.7695
  156SAPE  H19R17338   5.235   4.521   4.853  1.6810  0.6012 -1.5563
  156SAPE  H19S17339   5.157   4.354   4.866 -0.6876  1.4326  0.1815
  156SAPE  C22017340   5.364   4.355   4.810  0.1373  0.1332 -0.8248
  156SAPE  H20R17341   5.383   4.253   4.848  1.8983  0.0305 -1.9055
  156SAPE  H20S17342   5.450   4.421   4.833 -0.5238  0.5626  0.5508
  156SAPE  H20T17343   5.332   4.362   4.704 -1.4484 -0.9798 -0.4654
  156SAPE   C3317344   6.281   4.354   6.169  0.3239  0.1143 -0.2794
  156SAPE   H3X17345   6.237   4.256   6.138  1.4360  0.0400 -1.7423
  156SAPE   H3Y17346   6.389   4.331   6.185  0.4133  0.2587 -0.6682
  156SAPE   C3417347   6.287   4.436   6.038  0.5573 -0.6868  0.8746
  156SAPE   H4X17348   6.353   4.382   5.967 -0.3696  1.6575 -1.9708
  156SAPE   H4Y17349   6.336   4.534   6.060 -1.0670  0.3095  0.2073
  156SAPE   C3517350   6.146   4.443   5.971 -0.8356 -0.0181 -0.7672
  156SAPE   H5X17351   6.074   4.482   6.045 -0.8277 -2.6729  0.7661
  156SAPE   H5Y17352   6.112   4.338   5.955 -2.0966 -0.3349  3.1044
  156SAPE   C3617353   6.148   4.523   5.838  0.4409 -0.0495  1.2195
  156SAPE   H6X17354   6.215   4.465   5.772 -1.8816  0.7546 -2.1148
  156SAPE   H6Y17355   6.171   4.630   5.861  2.5088 -0.3151  0.5236
  156SAPE   C3717356   6.014   4.526   5.767 -0.1316 -0.4396  0.0422
  156SAPE   H7X17357   5.951   4.596   5.825  0.5723  3.4171 -3.3644
  156SAPE   H7Y17358   5.965   4.426   5.770 -0.7703 -0.1442 -0.3061
  156SAPE   C3817359   6.014   4.575   5.628  0.6912 -0.4663  0.1269
  156SAPE   H8X17360   5.910   4.558   5.592 -0.3373  0.8612  2.2620
  156SAPE   H8Y17361   6.089   4.518   5.569 -1.5301 -0.1549 -3.3315
  156SAPE   C3917362   6.048   4.723   5.599  0.6820 -0.1826 -0.6342
  156SAPE   H9X17363   6.156   4.735   5.625  0.4530 -2.4428  1.7272
  156SAPE   H9Y17364   5.995   4.803   5.654  0.6510 -0.5288 -0.1558
  156SAPE  C31017365   6.039   4.753   5.447  0.3208 -0.3287 -0.3128
  156SAPE  H10X17366   6.041   4.863   5.430 -0.1821 -0.4277 -1.0783
  156SAPE  H10Y17367   5.940   4.722   5.409  0.4995  0.3461 -1.3963
  156SAPE  C31117368   6.157   4.692   5.363  0.6754 -0.4823  0.7903
  156SAPE  H11X17369   6.138   4.583   5.354  1.1875 -0.4698 -0.7043
  156SAPE  H11Y17370   6.258   4.709   5.404  0.6981 -1.6843  1.2447
  156SAPE  C31217371   6.148   4.750   5.215  0.2908  0.9545  0.0878
  156SAPE  H12X17372   6.149   4.861   5.210  1.0042  0.9330 -0.3939
  156SAPE  H12Y17373   6.052   4.730   5.163  0.6983  1.7674 -1.0043
  156SAPE  C31317374   6.261   4.703   5.124  0.5159  0.0747  0.6807
  156SAPE  H13X17375   6.253   4.592   5.123 -2.0863  0.2029  0.8060
  156SAPE  H13Y17376   6.359   4.742   5.159  0.4463  1.9634 -1.0528
  156SAPE  C31417377   6.242   4.753   4.981  0.1628 -0.0254  0.4915
  156SAPE  H14X17378   6.328   4.729   4.915  0.2417 -1.5752  1.1347
  156SAPE  H14Y17379   6.233   4.864   4.992 -1.7961 -0.1281  0.2835
  156SAPE  C31517380   6.116   4.702   4.908  0.2219 -0.0565 -0.3456
  156SAPE  H15X17381   6.025   4.754   4.943  0.0846  1.0269 -2.2150
  156SAPE  H15Y17382   6.112   4.593   4.929  1.5237 -0.3082 -1.2629
  156SAPE  C31617383   6.121   4.727   4.751  0.3152 -0.0582 -0.3414
  156SAPE  H16X17384   6.191   4.649   4.714  1.3979  0.8358 -0.2624
  156SAPE  H16Y17385   6.172   4.821   4.719  1.0342 -1.2379 -3.0035
  156SAPE  C31717386   5.983   4.727   4.684  0.2915 -0.6427 -0.6230
  156SAPE  H17X17387   5.911   4.786   4.745  0.5382 -2.4529  1.5392
  156SAPE  H17Y17388   5.938   4.627   4.667  0.1396 -0.1773 -3.3122
  156SAPE  C31817389   5.993   4.791   4.536  0.1620  1.0388 -1.2325
  156SAPE  H18X17390   5.952   4.894   4.539  1.7048  1.7292  2.9537
  156SAPE  H18Y17391   5.924   4.733   4.471 -0.4999 -1.5304  1.5321
  156SAPE  H18Z17392   6.098   4.776   4.502  0.6441 -1.1996  0.9225
  157SAPE     N17393   3.566   2.441   6.974  0.9087 -0.2544 -0.4344
  157SAPE   HN117394   3.657   2.426   6.925  0.3547  0.3206 -1.6737
  157SAPE   HN217395   3.508   2.365   6.933 -0.6656  1.7602 -2.1966
  157SAPE   HN317396   3.527   2.531   6.938 -0.8846 -1.5327 -1.8851
  157SAPE   C1217397   3.595   2.436   7.120 -0.7601 -0.3533  0.5949
  157SAPE  H12A17398   3.583   2.329   7.148 -0.7611 -1.2267 -2.4337
  157SAPE  H12B17399   3.517   2.499   7.168 -0.9998 -0.0477 -0.1823
  157SAPE   C1117400   3.742   2.481   7.153  0.8416  0.1135 -0.2642
  157SAPE  H11A17401   3.737   2.484   7.264  0.0198  2.5725 -0.2947
  157SAPE  H11B17402   3.747   2.582   7.106 -3.9030  0.4081 -0.6553
  157SAPE     P17403   3.988   2.429   7.096 -0.2032 -0.2337  0.2427
  157SAPE   O1317404   3.987   2.559   7.023 -0.5571  0.1094  0.3515
  157SAPE   O1417405   4.045   2.423   7.230 -0.5241  0.0386  0.0165
  157SAPE   O1217406   3.834   2.381   7.106  0.2383  0.4809  0.5600
  157SAPE   O1117407   4.061   2.322   7.008  0.0050  0.2754  0.0570
  157SAPE    C117408   4.030   2.194   6.973  0.6417  0.6847 -0.4924
  157SAPE    HA17409   4.070   2.122   7.047  0.1217 -0.6479 -1.4619
  157SAPE    HB17410   3.920   2.180   6.966  0.5849  0.7986  0.1239
  157SAPE    C217411   4.084   2.163   6.834  0.1227  1.1468  0.3785
  157SAPE    HS17412   4.193   2.167   6.852  0.5865  0.9906 -2.0330
  157SAPE   O2117413   4.026   2.254   6.741 -0.1560 -0.1342  0.4471
  157SAPE   C2117414   4.102   2.269   6.636  0.5574  0.6007  0.5210
  157SAPE   O2217415   4.218   2.237   6.627 -0.3675 -0.6289  0.3748
  157SAPE   C2217416   4.014   2.321   6.522  0.6839  0.3746 -0.4929
  157SAPE   H2R17417   3.909   2.292   6.546  0.7797  1.3308  1.2477
  157SAPE   H2S17418   4.025   2.431   6.513  0.9967  0.6915  2.5777
  157SAPE    C317419   4.036   2.016   6.804 -0.5920 -0.1805  0.2764
  157SAPE    HX17420   3.925   2.025   6.811 -0.4561  1.2094  1.0605
  157SAPE    HY17421   4.065   1.946   6.886  0.6497  0.1031  0.0999
  157SAPE   O3117422   4.077   1.959   6.678  0.3101 -0.7146 -0.2576
  157SAPE   C3117423   4.196   1.910   6.668 -0.2786  0.2095 -0.0972
  157SAPE   O3217424   4.276   1.901   6.762 -0.3060 -0.2225  0.1953
  157SAPE   C3217425   4.204   1.852   6.529 -0.8808 -0.1561  1.0457
  157SAPE   H2X17426   4.146   1.920   6.463  1.8419  1.1864 -0.1366
  157SAPE   H2Y17427   4.151   1.754   6.520 -2.0490  0.4253  1.4325
  157SAPE   C2317428   4.063   2.267   6.384  0.0074  0.5921 -0.3646
  157SAPE   H3R17429   4.087   2.159   6.377  0.0339  0.7061 -2.3606
  157SAPE   H3S17430   4.161   2.317   6.369  0.0938  0.7782  0.7178
  157SAPE   C2417431   3.969   2.292   6.263 -0.5468 -0.5834  0.8188
  157SAPE   H4R17432   3.885   2.219   6.268 -2.2048  1.2959  2.2769
  157SAPE   H4S17433   4.027   2.260   6.174 -2.3260  0.1318 -0.6594
  157SAPE   C2517434   3.894   2.421   6.251 -0.1351 -0.1346  0.0730
  157SAPE   H5R17435   3.830   2.457   6.333 -0.1979  0.3321 -0.1790
  157SAPE   C2617436   3.923   2.514   6.153 -0.3552  1.0692 -0.5416
  157SAPE   H6R17437   3.874   2.612   6.156 -1.2587  0.5944  0.5894
  157SAPE   C2717438   4.013   2.489   6.031 -0.1915 -0.0338 -0.3814
  157SAPE   H7R17439   4.101   2.423   6.052 -0.9366 -0.2574  2.2821
  157SAPE   H7S17440   4.061   2.585   6.000 -1.4631  0.7810  0.1394
  157SAPE   C2817441   3.950   2.411   5.914  0.0094  0.2383  0.2839
  157SAPE   H8R17442   3.958   2.301   5.914  0.0299  0.2186  1.9895
  157SAPE   C2917443   3.926   2.470   5.791  0.8380 -0.6803 -0.2529
  157SAPE   H9R17444   3.881   2.405   5.715  0.3411  0.2587 -0.7780
  157SAPE  C21017445   3.937   2.625   5.762  0.3438  0.3668  0.5334
  157SAPE  H10R17446   3.891   2.684   5.845  1.1272  1.3079  0.3159
  157SAPE  H10S17447   3.871   2.639   5.674  1.6189  1.2130 -0.3247
  157SAPE  C21117448   4.074   2.670   5.724  0.6129 -0.2007 -0.0862
  157SAPE  H11R17449   4.154   2.645   5.796  0.0066 -1.7113  0.0967
  157SAPE  C21217450   4.105   2.742   5.612  0.3053  0.0330  0.0819
  157SAPE  H12R17451   4.210   2.773   5.609  0.4544 -0.3164  1.2015
  157SAPE  C21317452   4.015   2.800   5.500  0.1687 -0.5253 -0.0610
  157SAPE  H13R17453   4.077   2.877   5.449  0.6453  1.1600  2.8023
  157SAPE  H13S17454   3.925   2.848   5.545 -0.2971 -0.1515 -1.3585
  157SAPE  C21417455   3.974   2.689   5.398 -0.8444  0.5311 -0.5792
  157SAPE  H14R17456   4.054   2.630   5.350 -1.0135  0.2966 -0.5713
  157SAPE  C21517457   3.861   2.689   5.339  0.5601 -0.4304  0.1566
  157SAPE  H15R17458   3.848   2.608   5.266  2.5419  0.6396 -1.4988
  157SAPE  C21617459   3.726   2.761   5.347  0.5599 -0.2466 -0.1356
  157SAPE  H16R17460   3.703   2.799   5.449 -1.2239 -1.7797  0.0700
  157SAPE  H16S17461   3.647   2.688   5.322  0.6332  0.1375 -1.5407
  157SAPE  C21717462   3.714   2.871   5.240  0.0568  0.0217 -0.3129
  157SAPE  H17R17463   3.807   2.930   5.229  0.1427 -0.0310  0.1143
  157SAPE  H17S17464   3.636   2.942   5.273  0.2310  0.4616 -0.8283
  157SAPE  C21817465   3.668   2.810   5.106 -0.2771 -0.2958 -0.1021
  157SAPE  H18R17466   3.572   2.761   5.132 -0.1526 -2.6686 -3.4849
  157SAPE  H18S17467   3.743   2.729   5.090 -0.4999 -0.6513  0.6289
  157SAPE  C21917468   3.655   2.901   4.989 -0.7841 -1.5785  0.1494
  157SAPE  H19R17469   3.579   2.978   5.013  1.6808  0.6538  1.2827
  157SAPE  H19S17470   3.614   2.840   4.906 -3.2053  0.3962 -0.2190
  157SAPE  C22017471   3.787   2.955   4.929  0.0336  0.3947  0.1420
  157SAPE  H20R17472   3.831   3.025   5.004  0.1151 -0.2873  0.7453
  157SAPE  H20S17473   3.759   3.018   4.842  2.4676 -0.6216 -1.5085
  157SAPE  H20T17474   3.843   2.868   4.890 -0.4931 -0.5422  1.4048
  157SAPE   C3317475   4.346   1.830   6.469 -0.0818  0.0557 -0.7371
  157SAPE   H3X17476   4.359   1.738   6.409 -2.3501  1.3562 -3.4531
  157SAPE   H3Y17477   4.423   1.807   6.546 -1.1964 -2.2726 -0.2523
  157SAPE   C3417478   4.394   1.941   6.376  0.4876  1.1267  0.1360
  157SAPE   H4X17479   4.500   1.911   6.364  0.0662 -1.9939  2.6577
  157SAPE   H4Y17480   4.383   2.039   6.427  1.6771  2.8856 -2.7923
  157SAPE   C3517481   4.317   1.951   6.247  0.0382 -0.6268  0.1798
  157SAPE   H5X17482   4.209   1.926   6.249  0.2587 -1.7617 -0.6175
  157SAPE   H5Y17483   4.348   1.879   6.167 -2.3869  2.7087 -4.2376
  157SAPE   C3617484   4.341   2.083   6.178 -0.2731 -0.3099  0.4676
  157SAPE   H6X17485   4.451   2.090   6.163 -0.3850 -1.7017 -1.3481
  157SAPE   H6Y17486   4.310   2.169   6.242 -0.5956 -1.1002  1.3923
  157SAPE   C3717487   4.279   2.106   6.040 -0.2686  0.4733  0.9236
  157SAPE   H7X17488   4.169   2.109   6.060 -0.3069 -1.4170  1.1654
  157SAPE   H7Y17489   4.306   2.013   5.985 -0.6584  2.4416 -3.0205
  157SAPE   C3817490   4.342   2.222   5.967  0.1402 -0.0949  0.2598
  157SAPE   H8X17491   4.450   2.200   5.948 -0.1175  1.2105 -3.6142
  157SAPE   H8Y17492   4.335   2.308   6.037  0.0255  0.4503 -0.4109
  157SAPE   C3917493   4.278   2.246   5.829 -0.5293 -0.1181  0.3885
  157SAPE   H9X17494   4.170   2.274   5.836 -0.0582  2.5456 -1.2039
  157SAPE   H9Y17495   4.279   2.150   5.774 -1.1949  0.0004  0.1516
  157SAPE  C31017496   4.334   2.352   5.735  0.4740  0.8674 -0.1461
  157SAPE  H10X17497   4.445   2.345   5.731  0.3774 -0.4970 -0.9328
  157SAPE  H10Y17498   4.293   2.450   5.769  0.3024  1.6936 -2.5617
  157SAPE  C31117499   4.269   2.339   5.597 -0.2287  0.3302  0.1163
  157SAPE  H11X17500   4.158   2.334   5.602 -0.1812 -1.2583  0.1717
  157SAPE  H11Y17501   4.300   2.237   5.566  0.1230  0.6740 -0.6959
  157SAPE  C31217502   4.322   2.442   5.499  0.2777  0.5586  0.0927
  157SAPE  H12X17503   4.432   2.451   5.502  0.2407  1.2385 -0.3966
  157SAPE  H12Y17504   4.267   2.534   5.528 -1.2299 -0.1397 -0.4040
  157SAPE  C31317505   4.281   2.402   5.359  0.2306 -0.6125  0.0001
  157SAPE  H13X17506   4.172   2.384   5.347  0.3759 -1.0009 -0.8220
  157SAPE  H13Y17507   4.319   2.307   5.315  0.4634 -0.5343  0.0307
  157SAPE  C31417508   4.309   2.518   5.259 -0.6567 -0.2457 -0.0112
  157SAPE  H14X17509   4.416   2.524   5.231 -0.2469  0.8144  1.6456
  157SAPE  H14Y17510   4.276   2.606   5.318 -0.3853  0.8066 -1.3674
  157SAPE  C31517511   4.218   2.530   5.139  0.0297  0.0915 -0.6039
  157SAPE  H15X17512   4.113   2.549   5.171  0.1028 -0.5650  0.0588
  157SAPE  H15Y17513   4.221   2.438   5.077 -0.9899 -0.0135 -0.5060
  157SAPE  C31617514   4.269   2.637   5.044  0.4604  0.1208 -0.2334
  157SAPE  H16X17515   4.367   2.608   5.000 -1.1422 -0.6651 -3.6576
  157SAPE  H16Y17516   4.271   2.728   5.107  1.8846 -0.3056  0.3722
  157SAPE  C31717517   4.173   2.655   4.920  0.6818  0.8817  0.4404
  157SAPE  H17X17518   4.075   2.683   4.965  1.0843  0.8614  1.3462
  157SAPE  H17Y17519   4.173   2.570   4.848  1.1156  1.7702 -0.6323
  157SAPE  C31817520   4.216   2.769   4.829 -0.4663 -0.4932 -0.4204
  157SAPE  H18X17521   4.218   2.867   4.880 -1.2226 -1.2425  1.1321
  157SAPE  H18Y17522   4.150   2.781   4.740 -1.1405 -0.2609  0.1122
  157SAPE  H18Z17523   4.315   2.747   4.781  0.1389  1.2679 -0.0282
  158SAPE     N17524   4.186   4.072   7.121  0.2593  0.2777 -0.5323
  158SAPE   HN117525   4.169   4.174   7.126 -0.9771  0.0259  2.8710
  158SAPE   HN217526   4.106   4.020   7.162 -0.2827  0.1363 -1.7339
  158SAPE   HN317527   4.263   4.042   7.185  0.4977  2.5948  0.3533
  158SAPE   C1217528   4.198   4.022   6.977  0.3094  0.6066 -0.2104
  158SAPE  H12A17529   4.109   4.065   6.927  0.7999  0.8338 -0.9163
  158SAPE  H12B17530   4.192   3.911   6.978 -3.2748  0.6791 -1.3176
  158SAPE   C1117531   4.325   4.063   6.906 -0.0673  0.3734  0.0208
  158SAPE  H11A17532   4.314   4.173   6.896 -1.8762  0.1144 -1.4090
  158SAPE  H11B17533   4.324   4.010   6.809  3.5360 -1.1797  0.6967
  158SAPE     P17534   4.541   3.914   6.943  0.2843 -0.6916  0.2832
  158SAPE   O1317535   4.677   3.949   6.978 -0.1345  0.1521  0.0902
  158SAPE   O1417536   4.490   3.789   6.997  0.1613 -0.0049 -0.4064
  158SAPE   O1217537   4.446   4.032   6.979  0.3279 -0.4428  0.4294
  158SAPE   O1117538   4.527   3.900   6.783 -0.5374  0.4600  0.2663
  158SAPE    C117539   4.567   4.007   6.699 -0.4542  0.6709 -0.3887
  158SAPE    HA17540   4.578   4.102   6.756 -0.5353 -0.4278  1.5223
  158SAPE    HB17541   4.672   3.993   6.665 -0.3015  1.1108 -0.1045
  158SAPE    C217542   4.482   4.025   6.576 -0.1541  0.8892  0.0015
  158SAPE    HS17543   4.379   4.018   6.617 -0.4548  1.1363 -0.6927
  158SAPE   O2117544   4.519   3.925   6.482  0.3969  0.1437  0.0211
  158SAPE   C2117545   4.419   3.880   6.408  0.4877  0.2475 -0.3719
  158SAPE   O2217546   4.300   3.890   6.428  0.2751  0.0790  0.1502
  158SAPE   C2217547   4.478   3.808   6.283 -0.1187  0.5346 -0.4358
  158SAPE   H2R17548   4.520   3.877   6.208 -2.1561  1.5044 -0.7540
  158SAPE   H2S17549   4.556   3.736   6.318 -1.4380 -0.4965  0.5180
  158SAPE    C317550   4.509   4.167   6.508  0.2217  0.4289 -0.1325
  158SAPE    HX17551   4.615   4.161   6.474 -0.1421  0.9901 -1.4286
  158SAPE    HY17552   4.493   4.251   6.578 -0.3317 -0.8502  1.3146
  158SAPE   O3117553   4.421   4.182   6.394  0.2638  0.6906  0.5366
  158SAPE   C3117554   4.452   4.275   6.308 -0.4820 -0.5143  0.1161
  158SAPE   O3217555   4.542   4.355   6.318  0.1122 -0.5033 -1.1036
  158SAPE   C3217556   4.353   4.284   6.188 -0.0978 -0.1354  0.5943
  158SAPE   H2X17557   4.373   4.372   6.123 -0.0600  0.3822  1.2809
  158SAPE   H2Y17558   4.249   4.287   6.227 -1.3350 -0.0643 -2.4960
  158SAPE   C2317559   4.368   3.729   6.210  0.6652  0.6009  1.0202
  158SAPE   H3R17560   4.281   3.799   6.207  0.6197  0.5812  1.7599
  158SAPE   H3S17561   4.334   3.648   6.278 -1.2684 -0.4393 -1.0483
  158SAPE   C2417562   4.401   3.669   6.070 -0.1098 -1.0608  0.3530
  158SAPE   H4R17563   4.322   3.602   6.031 -0.1672 -0.6274 -0.3127
  158SAPE   H4S17564   4.496   3.615   6.090 -0.1470 -0.2427  3.0047
  158SAPE   C2517565   4.416   3.776   5.962  0.3583  0.4553  0.0740
  158SAPE   H5R17566   4.330   3.843   5.954  1.0322  1.1720 -1.6034
  158SAPE   C2617567   4.507   3.790   5.859 -1.3281  0.3441 -0.3697
  158SAPE   H6R17568   4.494   3.875   5.791 -0.5672  0.1773 -0.7342
  158SAPE   C2717569   4.634   3.722   5.846 -0.5277 -0.0657  0.2091
  158SAPE   H7R17570   4.645   3.641   5.921  0.2915  0.0654  0.2344
  158SAPE   H7S17571   4.711   3.796   5.874 -0.8902  0.1568  0.6316
  158SAPE   C2817572   4.670   3.682   5.703  0.5964  0.4973  0.0595
  158SAPE   H8R17573   4.617   3.591   5.672  0.1416  1.4931 -2.2694
  158SAPE   C2917574   4.758   3.740   5.617  0.0730  1.0160  0.0656
  158SAPE   H9R17575   4.776   3.685   5.524  4.6306 -2.3884  2.5050
  158SAPE  C21017576   4.861   3.847   5.659  0.1386  0.4222 -0.4201
  158SAPE  H10R17577   4.812   3.912   5.735  0.9305 -0.9028  1.3130
  158SAPE  H10S17578   4.876   3.919   5.576 -1.6002  2.5136  0.9838
  158SAPE  C21117579   4.999   3.804   5.712  0.4971 -0.1591  0.2558
  158SAPE  H11R17580   4.995   3.775   5.818 -0.7682  2.4898  0.9984
  158SAPE  C21217581   5.105   3.777   5.632  0.1466  0.3632  0.9220
  158SAPE  H12R17582   5.205   3.770   5.677 -0.4268 -1.5077  2.0177
  158SAPE  C21317583   5.113   3.784   5.482  0.5964  0.0724  0.1314
  158SAPE  H13R17584   5.192   3.853   5.446  0.0717  0.0867 -1.0154
  158SAPE  H13S17585   5.027   3.837   5.438  0.5848 -0.8084 -0.9388
  158SAPE  C21417586   5.125   3.646   5.421  0.0616 -0.0320  0.3067
  158SAPE  H14R17587   5.043   3.579   5.450  0.5014 -0.6869  0.0716
  158SAPE  C21517588   5.226   3.605   5.341 -0.7091  0.3361 -0.1774
  158SAPE  H15R17589   5.226   3.502   5.303 -0.9429  0.6606 -1.0886
  158SAPE  C21617590   5.352   3.684   5.302  0.1076 -0.0212  0.2922
  158SAPE  H16R17591   5.436   3.616   5.280  0.8039  0.6309  0.8794
  158SAPE  H16S17592   5.387   3.743   5.390 -0.8781  0.2529  0.5228
  158SAPE  C21717593   5.325   3.773   5.181 -0.0227 -0.0547 -0.0343
  158SAPE  H17R17594   5.234   3.831   5.206  1.2761  1.2646  2.0037
  158SAPE  H17S17595   5.301   3.718   5.088  1.1012  2.5985 -2.0244
  158SAPE  C21817596   5.437   3.871   5.160  0.0354  0.2592 -1.0221
  158SAPE  H18R17597   5.521   3.800   5.144  0.3940 -0.5730  3.3006
  158SAPE  H18S17598   5.458   3.933   5.249 -1.0370 -1.4300  0.4744
  158SAPE  C21917599   5.412   3.952   5.035  0.2619  0.5863  0.1423
  158SAPE  H19R17600   5.313   4.002   5.048 -0.6958 -1.1069 -0.3211
  158SAPE  H19S17601   5.400   3.880   4.952  0.6902 -1.3195  1.6486
  158SAPE  C22017602   5.527   4.049   5.007  0.1464  0.3672  0.4145
  158SAPE  H20R17603   5.511   4.100   4.909  1.2236 -1.4845 -0.7985
  158SAPE  H20S17604   5.628   4.002   5.005 -0.0223 -0.0741 -2.8047
  158SAPE  H20T17605   5.537   4.121   5.091 -0.6067  2.7517 -1.4266
  158SAPE   C3317606   4.361   4.167   6.087 -0.1328  0.0743 -0.0656
  158SAPE   H3X17607   4.338   4.072   6.139  1.0577  0.3728  1.0549
  158SAPE   H3Y17608   4.468   4.157   6.060 -0.5885 -0.3066 -1.8886
  158SAPE   C3417609   4.268   4.188   5.966 -0.3576 -0.2418  0.0837
  158SAPE   H4X17610   4.175   4.239   5.997 -1.8525 -0.4611 -3.5527
  158SAPE   H4Y17611   4.242   4.088   5.925 -1.2194  0.1640 -0.3777
  158SAPE   C3517612   4.346   4.256   5.854  0.4703 -0.2543 -0.2450
  158SAPE   H5X17613   4.382   4.355   5.887  2.3761 -0.6029 -1.1642
  158SAPE   H5Y17614   4.272   4.271   5.772  2.0251 -2.1875 -2.1213
  158SAPE   C3617615   4.466   4.184   5.797 -0.2357  0.0775  0.1149
  158SAPE   H6X17616   4.464   4.079   5.830  2.7093  0.2208  1.0158
  158SAPE   H6Y17617   4.560   4.220   5.843 -1.4238  2.2960  0.9765
  158SAPE   C3717618   4.460   4.196   5.645  0.0328  0.2952 -0.0669
  158SAPE   H7X17619   4.478   4.298   5.606 -0.2626  1.1731  1.9526
  158SAPE   H7Y17620   4.359   4.167   5.610  0.7392 -2.4509 -0.0834
  158SAPE   C3817621   4.562   4.105   5.577 -0.0361 -0.7148 -0.2349
  158SAPE   H8X17622   4.530   3.999   5.577 -0.3882 -0.6451 -1.9100
  158SAPE   H8Y17623   4.665   4.104   5.618 -0.0731  2.8727  0.2252
  158SAPE   C3917624   4.574   4.152   5.427 -0.1293  0.5871  0.1634
  158SAPE   H9X17625   4.597   4.261   5.427  0.7723  0.4528  2.6166
  158SAPE   H9Y17626   4.478   4.128   5.377 -0.3512  2.2344 -0.2583
  158SAPE  C31017627   4.692   4.089   5.346 -0.0858 -0.4112  0.7123
  158SAPE  H10X17628   4.788   4.126   5.387 -0.2310  0.6239  0.1635
  158SAPE  H10Y17629   4.698   4.121   5.240  1.1750 -2.6070  0.0512
  158SAPE  C31117630   4.703   3.938   5.342  1.0196 -0.3849 -0.0450
  158SAPE  H11X17631   4.627   3.899   5.413 -0.4510  0.2820 -1.2140
  158SAPE  H11Y17632   4.804   3.900   5.371 -0.6447 -2.9227  3.1803
  158SAPE  C31217633   4.660   3.874   5.205 -0.5399  0.3298  0.0327
  158SAPE  H12X17634   4.556   3.909   5.186 -1.5972 -2.3767  0.4081
  158SAPE  H12Y17635   4.633   3.769   5.230  1.0139 -0.0285  0.2689
  158SAPE  C31317636   4.767   3.888   5.094 -0.4387 -0.1910  0.6612
  158SAPE  H13X17637   4.861   3.841   5.130 -0.5773  1.1025  2.9200
  158SAPE  H13Y17638   4.766   3.998   5.077 -4.5050 -0.2365 -0.6130
  158SAPE  C31417639   4.734   3.833   4.958 -0.0205 -0.3648  0.7428
  158SAPE  H14X17640   4.640   3.869   4.912 -0.5450 -2.5613 -0.0407
  158SAPE  H14Y17641   4.719   3.724   4.973  3.0053 -1.0547 -0.5584
  158SAPE  C31517642   4.853   3.862   4.860 -0.3527 -0.0535 -0.4208
  158SAPE  H15X17643   4.908   3.766   4.849  0.6417  0.6069 -1.4458
  158SAPE  H15Y17644   4.931   3.929   4.903 -0.3020  0.9018 -1.9333
  158SAPE  C31617645   4.818   3.911   4.723  0.1632  0.3286  0.5479
  158SAPE  H16X17646   4.768   4.010   4.724 -0.0027  0.2438  0.9970
  158SAPE  H16Y17647   4.748   3.837   4.678  0.8493  1.8890 -3.4933
  158SAPE  C31717648   4.930   3.917   4.624  0.5140 -0.3098  0.0913
  158SAPE  H17X17649   4.982   3.820   4.635  0.7922  0.0484  2.5559
  158SAPE  H17Y17650   4.994   3.999   4.662 -0.3681  1.4547 -1.9811
  158SAPE  C31817651   4.888   3.964   4.480  0.0567 -0.1054 -0.2118
  158SAPE  H18X17652   4.804   3.911   4.430  0.5281  0.8942 -2.2094
  158SAPE  H18Y17653   4.979   3.960   4.416  0.1839 -0.0616 -0.0317
  158SAPE  H18Z17654   4.859   4.071   4.479  0.4456  0.0220 -1.9573
  159SAPE     N17655   5.787   0.237   2.614  0.1941 -0.4630 -0.0450
  159SAPE   HN117656   5.758   0.235   2.714 -1.4364 -2.0846 -0.4909
  159SAPE   HN217657   5.890   0.222   2.607  0.4458  1.4030 -0.9004
  159SAPE   HN317658   5.784   0.331   2.570 -0.9414 -0.9098 -0.9790
  159SAPE   C1217659   5.717   0.129   2.544 -0.0360  0.1627 -0.7720
  159SAPE  H12A17660   5.742   0.038   2.602  0.3709  0.7178 -0.0565
  159SAPE  H12B17661   5.759   0.126   2.441  0.0722 -2.0104 -0.6988
  159SAPE   C1117662   5.569   0.148   2.537  0.4831 -0.2372  0.1340
  159SAPE  H11A17663   5.518   0.161   2.635 -0.5118  0.3337 -0.4479
  159SAPE  H11B17664   5.525   0.057   2.492 -0.6889  0.8202 -0.9201
  159SAPE     P17665   5.476   0.399   2.473 -0.0292  0.0148 -0.0233
  159SAPE   O1317666   5.452   0.458   2.344  1.1366 -0.2790 -0.4644
  159SAPE   O1417667   5.355   0.389   2.557 -0.0572 -0.8178  0.9718
  159SAPE   O1217668   5.532   0.254   2.452 -0.4185  0.3421 -0.0138
  159SAPE   O1117669   5.599   0.472   2.546 -0.2860  0.1195  0.0097
  159SAPE    C117670   5.584   0.616   2.558 -0.2712 -0.2248  0.1888
  159SAPE    HA17671   5.671   0.671   2.516  0.9108 -0.0609  2.7153
  159SAPE    HB17672   5.499   0.661   2.502  0.2928 -0.7984 -1.1643
  159SAPE    C217673   5.576   0.670   2.707  0.1996  0.7416 -0.2320
  159SAPE    HS17674   5.578   0.781   2.701  1.5809  0.8062  0.9453
  159SAPE   O2117675   5.690   0.626   2.789  0.0095 -0.4554  1.0768
  159SAPE   C2117676   5.818   0.675   2.757 -0.3583 -0.0187 -0.4624
  159SAPE   O2217677   5.839   0.749   2.659  0.3013  0.5260 -1.0231
  159SAPE   C2217678   5.924   0.633   2.857  0.2056  0.5258  0.1840
  159SAPE   H2R17679   5.886   0.643   2.961 -0.1408  2.0818 -0.0604
  159SAPE   H2S17680   5.932   0.523   2.843  1.1291  0.7056 -0.7928
  159SAPE    C317681   5.450   0.619   2.769 -0.2592  0.1856 -1.2377
  159SAPE    HX17682   5.467   0.523   2.822 -0.6614  0.5374 -0.4594
  159SAPE    HY17683   5.373   0.608   2.690 -1.9054  0.5030  0.2572
  159SAPE   O3117684   5.400   0.726   2.860  0.4194  0.0503 -0.2903
  159SAPE   C3117685   5.407   0.693   2.994  0.3069 -0.4830  0.3013
  159SAPE   O3217686   5.482   0.607   3.031 -0.0035  0.2402  0.5075
  159SAPE   C3217687   5.319   0.776   3.084  0.1797  0.3342  0.0207
  159SAPE   H2X17688   5.211   0.754   3.066  0.1631 -0.3388  0.8958
  159SAPE   H2Y17689   5.340   0.885   3.081 -1.0813  0.5919 -0.5840
  159SAPE   C2317690   6.071   0.690   2.853 -0.4008 -0.0745  0.1500
  159SAPE   H3R17691   6.052   0.796   2.827 -1.1771 -0.1244  0.5039
  159SAPE   H3S17692   6.130   0.653   2.766  0.2231  1.0377  0.0804
  159SAPE   C2417693   6.148   0.667   2.977 -0.1703 -0.3674 -0.8586
  159SAPE   H4R17694   6.255   0.695   2.971 -0.9376  2.9439 -0.9555
  159SAPE   H4S17695   6.135   0.560   3.004 -0.7320  0.2217  1.4102
  159SAPE   C2517696   6.117   0.755   3.095  0.2591  0.4359 -0.3774
  159SAPE   H5R17697   6.051   0.836   3.063  0.6201  0.0399 -2.2710
  159SAPE   C2617698   6.145   0.735   3.228  0.7746  0.4109 -0.4698
  159SAPE   H6R17699   6.111   0.815   3.294 -1.9745 -0.6021 -0.5417
  159SAPE   C2717700   6.215   0.617   3.294  0.7944  0.4407  0.5664
  159SAPE   H7R17701   6.252   0.554   3.210  2.2031  0.5229  1.0995
  159SAPE   H7S17702   6.142   0.564   3.358  0.0233 -0.0020 -0.6351
  159SAPE   C2817703   6.331   0.645   3.375  0.2712 -0.3684 -0.0952
  159SAPE   H8R17704   6.426   0.635   3.320 -1.0120  1.8936 -3.0127
  159SAPE   C2917705   6.324   0.680   3.509  0.1341 -0.1744 -0.0083
  159SAPE   H9R17706   6.419   0.699   3.561  1.4687 -1.0133 -2.0262
  159SAPE  C21017707   6.202   0.692   3.594  0.4036  0.3773 -0.5191
  159SAPE  H10R17708   6.112   0.676   3.530  1.0830 -1.1559 -1.1252
  159SAPE  H10S17709   6.205   0.800   3.623  2.3128  0.3000 -0.2775
  159SAPE  C21117710   6.205   0.614   3.718  0.4887  0.0062 -0.0202
  159SAPE  H11R17711   6.232   0.508   3.705  1.7846  0.4405 -1.0742
  159SAPE  C21217712   6.179   0.658   3.843  0.0782  0.3833  0.1200
  159SAPE  H12R17713   6.192   0.581   3.921 -0.4892 -0.1221 -0.2765
  159SAPE  C21317714   6.125   0.796   3.890  0.5102  0.5398  0.2842
  159SAPE  H13R17715   6.036   0.782   3.955  0.7225  0.6839  0.6071
  159SAPE  H13S17716   6.098   0.863   3.805 -1.9847  2.7923  2.6621
  159SAPE  C21417717   6.235   0.867   3.962  0.3366 -0.4130 -0.2215
  159SAPE  H14R17718   6.291   0.944   3.908  3.1840 -1.6771  0.7508
  159SAPE  C21517719   6.275   0.841   4.087  1.0586  0.3911 -0.9255
  159SAPE  H15R17720   6.359   0.897   4.130  1.7218  0.1068 -1.8054
  159SAPE  C21617721   6.218   0.747   4.186  0.4713 -0.5837 -0.4377
  159SAPE  H16R17722   6.301   0.699   4.242  0.8048  2.2068  1.6834
  159SAPE  H16S17723   6.181   0.655   4.135 -0.4774 -1.3015  1.4345
  159SAPE  C21717724   6.102   0.816   4.273 -0.2313 -0.1061 -0.1082
  159SAPE  H17R17725   6.001   0.808   4.228  0.7869 -0.0372 -2.5207
  159SAPE  H17S17726   6.119   0.926   4.273  0.6478 -0.2351 -0.7598
  159SAPE  C21817727   6.090   0.770   4.413 -0.9010 -0.2557 -0.4316
  159SAPE  H18R17728   6.190   0.778   4.459 -1.9888 -0.2897  2.1012
  159SAPE  H18S17729   6.055   0.665   4.424 -0.1862 -0.4413  0.1461
  159SAPE  C21917730   5.991   0.854   4.500 -0.0621  0.1003 -0.2405
  159SAPE  H19R17731   5.981   0.959   4.463 -1.5705  0.1285  0.2043
  159SAPE  H19S17732   6.034   0.881   4.599  2.1503 -3.0116 -0.1979
  159SAPE  C22017733   5.854   0.794   4.514 -0.5450 -0.1782 -0.1589
  159SAPE  H20R17734   5.803   0.864   4.583  0.2115  1.3015 -1.0696
  159SAPE  H20S17735   5.865   0.691   4.556  3.8076 -0.0239 -0.3803
  159SAPE  H20T17736   5.793   0.786   4.422 -1.1142  0.2205  0.1765
  159SAPE   C3317737   5.337   0.732   3.230 -0.1421  0.0128  0.2496
  159SAPE   H3X17738   5.439   0.738   3.273  0.1393  0.0085 -0.3952
  159SAPE   H3Y17739   5.300   0.627   3.233  0.0767 -0.1339 -1.2126
  159SAPE   C3417740   5.256   0.818   3.326  0.0359 -0.2853  0.2371
  159SAPE   H4X17741   5.150   0.836   3.297  0.7042  2.9608 -0.6135
  159SAPE   H4Y17742   5.294   0.923   3.326 -1.2486  0.2558 -2.0193
  159SAPE   C3517743   5.275   0.765   3.469  0.5149 -0.1869  0.0577
  159SAPE   H5X17744   5.383   0.765   3.495  0.1755  2.4048  1.8174
  159SAPE   H5Y17745   5.241   0.660   3.479 -1.5534  0.4817  0.5169
  159SAPE   C3617746   5.205   0.855   3.573  0.3176 -0.0232 -0.0740
  159SAPE   H6X17747   5.100   0.857   3.536  0.0528  0.2595  0.6612
  159SAPE   H6Y17748   5.243   0.959   3.566 -2.7027  1.3532  1.9211
  159SAPE   C3717749   5.210   0.811   3.713 -0.0850  0.4876  0.0364
  159SAPE   H7X17750   5.170   0.708   3.721  2.0334 -0.3428  0.4250
  159SAPE   H7Y17751   5.145   0.878   3.773  1.8732  2.6084 -0.0923
  159SAPE   C3817752   5.350   0.807   3.783  0.6799 -0.3254  0.0902
  159SAPE   H8X17753   5.389   0.911   3.773  0.9161 -0.6038 -2.2264
  159SAPE   H8Y17754   5.421   0.741   3.729 -0.7340 -1.5020 -0.4028
  159SAPE   C3917755   5.345   0.761   3.932  0.0832  0.2744 -0.1347
  159SAPE   H9X17756   5.296   0.662   3.940 -0.6714  0.6109 -0.5136
  159SAPE   H9Y17757   5.283   0.832   3.992  1.2392  1.2410 -0.0441
  159SAPE  C31017758   5.481   0.747   4.002  0.3982  0.1806 -0.1602
  159SAPE  H10X17759   5.536   0.840   3.974  1.4584 -0.3416  0.1462
  159SAPE  H10Y17760   5.530   0.661   3.952  1.1653 -0.1294  1.0869
  159SAPE  C31117761   5.478   0.721   4.162  0.7396  0.1923  0.7057
  159SAPE  H11X17762   5.423   0.805   4.209 -1.6605  0.0907 -1.6378
  159SAPE  H11Y17763   5.582   0.715   4.201  0.8797 -0.3921  0.2560
  159SAPE  C31217764   5.406   0.587   4.196  0.4307 -0.1562  0.3202
  159SAPE  H12X17765   5.454   0.512   4.130 -0.3404 -1.0468  0.7544
  159SAPE  H12Y17766   5.296   0.588   4.179  0.4262  0.2568  0.3541
  159SAPE  C31317767   5.437   0.543   4.339  0.6163  0.2365 -0.3232
  159SAPE  H13X17768   5.542   0.506   4.341  0.8521  0.9328  1.1900
  159SAPE  H13Y17769   5.366   0.460   4.359  1.2014 -0.4860 -1.1854
  159SAPE  C31417770   5.435   0.652   4.448 -0.0115 -0.5865  0.0166
  159SAPE  H14X17771   5.509   0.732   4.428 -0.5812 -0.3573 -1.2737
  159SAPE  H14Y17772   5.453   0.606   4.548  2.1177  1.0523  0.4579
  159SAPE  C31517773   5.297   0.715   4.459  0.0271 -0.6163 -0.9546
  159SAPE  H15X17774   5.233   0.636   4.506  0.0654  0.1420  0.4468
  159SAPE  H15Y17775   5.254   0.751   4.363 -2.2734 -0.5310  0.0322
  159SAPE  C31617776   5.281   0.822   4.575  0.4476 -0.8742 -0.2864
  159SAPE  H16X17777   5.175   0.856   4.583  1.0513  1.0509 -0.0569
  159SAPE  H16Y17778   5.336   0.916   4.555  0.1403 -0.3796  1.0450
  159SAPE  C31717779   5.319   0.782   4.720  0.5974  0.3837  0.3482
  159SAPE  H17X17780   5.327   0.867   4.792 -1.0422 -0.5456  1.7084
  159SAPE  H17Y17781   5.418   0.733   4.730 -0.5168 -2.2111 -0.4114
  159SAPE  C31817782   5.224   0.677   4.785  0.3614 -0.4527  0.1846
  159SAPE  H18X17783   5.264   0.668   4.888  0.6912  1.3606  0.2357
  159SAPE  H18Y17784   5.237   0.577   4.737  0.4740 -0.3418 -0.0162
  159SAPE  H18Z17785   5.119   0.712   4.774  0.0416 -0.5777  2.3936
  160SAPE     N17786   4.756   6.233   2.232 -0.2535  0.0713  0.2302
  160SAPE   HN117787   4.809   6.300   2.291 -1.3364  0.0927  1.2113
  160SAPE   HN217788   4.803   6.216   2.141 -1.1755  1.0578 -0.4613
  160SAPE   HN317789   4.656   6.259   2.217  0.3314  1.4411 -1.6405
  160SAPE   C1217790   4.763   6.112   2.322 -0.2385  0.1204  0.0411
  160SAPE  H12A17791   4.719   6.023   2.273  1.1448 -1.5967  1.7419
  160SAPE  H12B17792   4.695   6.133   2.407 -0.5922  0.6084 -0.3580
  160SAPE   C1117793   4.908   6.078   2.350 -0.1621  0.6981  0.4077
  160SAPE  H11A17794   4.913   5.976   2.392 -0.6115  0.7834  0.6719
  160SAPE  H11B17795   4.957   6.138   2.430 -1.6369 -1.9170  3.4683
  160SAPE     P17796   5.112   5.996   2.210  0.0337  0.1195 -0.2356
  160SAPE   O1317797   5.085   5.853   2.198 -0.0898  0.3744 -0.1647
  160SAPE   O1417798   5.189   6.049   2.097 -0.4615 -0.5461 -0.3879
  160SAPE   O1217799   4.979   6.073   2.224  0.3365  0.0253 -0.1179
  160SAPE   O1117800   5.195   6.035   2.333 -0.6465  0.5408 -0.1671
  160SAPE    C117801   5.252   6.160   2.356  0.1453 -0.9336  0.2934
  160SAPE    HA17802   5.330   6.185   2.282  0.6375 -0.3257  1.0002
  160SAPE    HB17803   5.176   6.241   2.353  0.9126 -0.0894  2.3220
  160SAPE    C217804   5.319   6.159   2.495  0.6977  0.6140  0.4110
  160SAPE    HS17805   5.386   6.070   2.493  1.2926  1.0593 -0.3241
  160SAPE   O2117806   5.223   6.159   2.600  0.3656  0.4519  0.0533
  160SAPE   C2117807   5.177   6.036   2.642 -0.1406 -0.2008 -0.2130
  160SAPE   O2217808   5.227   5.928   2.624  0.5296 -0.0518  0.5089
  160SAPE   C2217809   5.053   6.053   2.734 -0.0142  0.5847 -0.3580
  160SAPE   H2R17810   5.042   6.161   2.759  1.4872  0.4167  1.2403
  160SAPE   H2S17811   4.965   6.010   2.682 -0.8333  2.0404 -0.2276
  160SAPE    C317812   5.415   6.291   2.513 -0.1331 -0.0005 -0.2319
  160SAPE    HX17813   5.357   6.385   2.514  0.0793  0.1304 -0.0958
  160SAPE    HY17814   5.476   6.296   2.420  3.5058  4.7118  1.9847
  160SAPE   O3117815   5.489   6.283   2.636 -0.1755 -0.0393  0.0481
  160SAPE   C3117816   5.551   6.395   2.673 -0.3294 -0.7443 -0.1812
  160SAPE   O3217817   5.569   6.496   2.606 -0.3124  0.0238 -0.3086
  160SAPE   C3217818   5.599   6.366   2.815  0.5998  0.9750  0.0449
  160SAPE   H2X17819   5.703   6.328   2.804  0.4843  0.7326 -0.2407
  160SAPE   H2Y17820   5.533   6.285   2.854 -0.1493  0.8179 -1.4664
  160SAPE   C2317821   5.066   5.979   2.869  0.2603  1.1974 -0.0742
  160SAPE   H3R17822   5.153   6.030   2.916  0.9612  1.9326 -2.0885
  160SAPE   H3S17823   5.086   5.870   2.859 -1.5580  0.6095  1.8684
  160SAPE   C2417824   4.942   5.990   2.961 -0.3679 -0.0632 -0.6770
  160SAPE   H4R17825   4.855   5.943   2.911 -0.8605 -1.5088  1.4276
  160SAPE   H4S17826   4.928   6.096   2.992  2.4163 -0.0639  0.8915
  160SAPE   C2517827   4.961   5.907   3.084  0.3387 -0.7828 -0.9399
  160SAPE   H5R17828   4.988   5.801   3.076  0.4747 -0.9361  1.1284
  160SAPE   C2617829   4.962   5.944   3.215 -0.3382 -0.8797 -0.1338
  160SAPE   H6R17830   4.976   5.871   3.296  0.5207 -0.8194 -0.2254
  160SAPE   C2717831   4.954   6.086   3.267 -0.1572  0.3528  0.1206
  160SAPE   H7R17832   4.859   6.091   3.326  1.6561 -0.8902  3.4068
  160SAPE   H7S17833   4.952   6.157   3.182  0.9159  1.2754  0.8240
  160SAPE   C2817834   5.070   6.109   3.366 -0.3610 -0.5993 -0.2783
  160SAPE   H8R17835   5.170   6.091   3.323  0.1327 -0.1119  0.6199
  160SAPE   C2917836   5.065   6.162   3.492 -0.2469  0.2520  0.1310
  160SAPE   H9R17837   5.157   6.154   3.552 -0.1149 -1.7496 -0.2658
  160SAPE  C21017838   4.942   6.215   3.557  0.2126 -0.0779  0.6172
  160SAPE  H10R17839   4.900   6.128   3.612  0.2341  0.0432  0.8253
  160SAPE  H10S17840   4.870   6.251   3.480 -0.2885 -0.1047  1.0625
  160SAPE  C21117841   4.966   6.324   3.664  0.0910  0.1602 -0.0933
  160SAPE  H11R17842   4.952   6.424   3.620  0.0859  0.4244  0.5054
  160SAPE  C21217843   5.024   6.313   3.783 -0.4087 -0.1967 -0.6043
  160SAPE  H12R17844   5.020   6.401   3.848  1.5019 -0.1705 -0.4574
  160SAPE  C21317845   5.065   6.182   3.846  0.3289  0.1613 -0.2203
  160SAPE  H13R17846   5.168   6.177   3.885 -0.5079 -2.1152  1.9325
  160SAPE  H13S17847   5.069   6.088   3.787  1.4451 -1.2940  2.0780
  160SAPE  C21417848   4.976   6.149   3.965  0.4358 -0.1010  0.0208
  160SAPE  H14R17849   4.880   6.100   3.943  0.5773 -2.6225  4.1084
  160SAPE  C21517850   4.982   6.203   4.088 -0.0532 -0.2958  0.3532
  160SAPE  H15R17851   4.908   6.166   4.160  1.3924 -1.7323  1.1658
  160SAPE  C21617852   5.107   6.275   4.136 -0.0675 -0.1622  0.3901
  160SAPE  H16R17853   5.187   6.246   4.065  0.1118  1.6940 -0.2266
  160SAPE  H16S17854   5.136   6.250   4.240 -2.0192  1.9639  1.5581
  160SAPE  C21717855   5.095   6.427   4.135 -0.0433 -0.3654  0.2003
  160SAPE  H17R17856   5.007   6.462   4.078 -0.3263 -1.1774  0.1219
  160SAPE  H17S17857   5.187   6.453   4.079  0.9951 -4.3003 -0.2712
  160SAPE  C21817858   5.096   6.487   4.275 -0.4444 -0.2519 -0.1529
  160SAPE  H18R17859   5.014   6.447   4.338  1.1297 -2.1797  0.8072
  160SAPE  H18S17860   5.080   6.597   4.272  1.0900  0.0063  0.0964
  160SAPE  C21917861   5.217   6.463   4.364  0.2881  0.0216  0.1131
  160SAPE  H19R17862   5.294   6.529   4.318  1.0407  0.0513  1.3621
  160SAPE  H19S17863   5.252   6.358   4.377 -0.7118 -0.0237  3.2867
  160SAPE  C22017864   5.200   6.522   4.512 -0.1286 -0.6021 -0.0748
  160SAPE  H20R17865   5.128   6.606   4.507  1.5551  0.8713 -0.9236
  160SAPE  H20S17866   5.299   6.557   4.548 -0.1898 -1.0041  0.4936
  160SAPE  H20T17867   5.159   6.446   4.581  0.8925 -1.9151 -0.8507
  160SAPE   C3317868   5.602   6.482   2.914 -0.2188  0.5999 -0.2164
  160SAPE   H3X17869   5.499   6.522   2.929  0.0893  0.4677  2.7814
  160SAPE   H3Y17870   5.672   6.562   2.884  1.8007 -0.9943  0.0219
  160SAPE   C3417871   5.638   6.432   3.050  0.6334 -0.3678  0.0987
  160SAPE   H4X17872   5.745   6.402   3.047  0.8373  0.4385 -1.6042
  160SAPE   H4Y17873   5.561   6.356   3.075  1.0778 -0.9688 -0.3228
  160SAPE   C3517874   5.658   6.544   3.159  0.3618  0.5228 -0.2285
  160SAPE   H5X17875   5.560   6.594   3.166  0.3301  0.3666  0.5662
  160SAPE   H5Y17876   5.721   6.627   3.121 -0.9002  0.4078 -2.7385
  160SAPE   C3617877   5.695   6.487   3.295  0.5360  0.6769  0.0210
  160SAPE   H6X17878   5.782   6.418   3.288  3.5394  4.1637 -0.6114
  160SAPE   H6Y17879   5.599   6.436   3.314 -0.5339  1.7854 -2.1216
  160SAPE   C3717880   5.724   6.591   3.407  0.3235  0.6914 -0.2571
  160SAPE   H7X17881   5.651   6.673   3.392  0.3953  0.8051  0.0016
  160SAPE   H7Y17882   5.819   6.642   3.380  1.3694 -1.9767 -2.0111
  160SAPE   C3817883   5.723   6.539   3.554  0.6882 -0.1871  0.3540
  160SAPE   H8X17884   5.635   6.476   3.579  2.1356 -2.0801  0.9192
  160SAPE   H8Y17885   5.689   6.622   3.619 -0.7971 -1.2015  0.9090
  160SAPE   C3917886   5.851   6.467   3.592 -0.3606 -0.3932  0.4947
  160SAPE   H9X17887   5.934   6.508   3.530 -1.3010 -0.4465 -0.8423
  160SAPE   H9Y17888   5.838   6.364   3.553  0.6676  0.1660 -1.4410
  160SAPE  C31017889   5.900   6.461   3.736 -0.0223 -0.0368  0.1482
  160SAPE  H10X17890   5.823   6.425   3.808 -3.2141  2.4750 -1.7453
  160SAPE  H10Y17891   5.945   6.557   3.765 -0.1364 -0.5627  2.2010
  160SAPE  C31117892   6.027   6.362   3.749  0.3762  0.0296  0.0309
  160SAPE  H11X17893   6.101   6.379   3.667 -0.8253 -0.0205 -1.0988
  160SAPE  H11Y17894   5.989   6.258   3.759 -1.6675  0.9118  2.6911
  160SAPE  C31217895   6.113   6.384   3.875 -0.3678 -0.4645  0.3806
  160SAPE  H12X17896   6.150   6.488   3.881  1.3760 -0.9775 -0.8834
  160SAPE  H12Y17897   6.204   6.321   3.872  0.0272  0.1047 -2.5728
  160SAPE  C31317898   6.023   6.361   4.000 -0.1853 -0.0107 -0.4037
  160SAPE  H13X17899   5.981   6.259   3.992  1.5013 -0.7512 -0.4109
  160SAPE  H13Y17900   5.939   6.433   4.001 -0.0611  0.1301  0.0801
  160SAPE  C31417901   6.114   6.391   4.125  0.0411  0.6646  0.0131
  160SAPE  H14X17902   6.209   6.334   4.117 -0.6460 -0.2371 -2.5891
  160SAPE  H14Y17903   6.060   6.365   4.219  1.2736  0.3231  0.6427
  160SAPE  C31517904   6.137   6.546   4.134  0.3212  0.7245  0.1999
  160SAPE  H15X17905   6.052   6.614   4.112  0.1720  0.1952 -0.9346
  160SAPE  H15Y17906   6.226   6.563   4.071  2.6584 -0.0928  3.0317
  160SAPE  C31617907   6.196   6.577   4.277 -0.0966  0.9846 -0.4246
  160SAPE  H16X17908   6.278   6.651   4.274  0.3973  0.6502  2.2666
  160SAPE  H16Y17909   6.238   6.483   4.321  0.5950  0.9179 -1.2140
  160SAPE  C31717910   6.099   6.645   4.377 -0.3379 -0.7482  0.3925
  160SAPE  H17X17911   6.000   6.596   4.366 -1.4852  1.6647 -0.8921
  160SAPE  H17Y17912   6.095   6.743   4.324  1.6850  0.0705  1.6451
  160SAPE  C31817913   6.152   6.654   4.515 -0.2826 -0.6236  0.4168
  160SAPE  H18X17914   6.169   6.551   4.553  1.5094 -1.4955 -2.4393
  160SAPE  H18Y17915   6.086   6.719   4.577 -1.6961 -1.3991 -0.2320
  160SAPE  H18Z17916   6.251   6.705   4.518 -1.5848  2.5122 -2.5643
  161SAPE     N17917   3.626   1.023   2.502 -0.3010 -0.1291 -0.6183
  161SAPE   HN117918   3.704   0.959   2.526  1.3540  2.1729  0.5030
  161SAPE   HN217919   3.548   0.957   2.482 -0.5783 -0.8244  2.2249
  161SAPE   HN317920   3.654   1.080   2.420 -0.3229 -1.5997 -1.6847
  161SAPE   C1217921   3.600   1.107   2.627  0.5115  0.0333  0.5541
  161SAPE  H12A17922   3.694   1.139   2.676  1.9584  0.6607 -2.4157
  161SAPE  H12B17923   3.544   1.048   2.702 -0.9408  0.5914 -0.0428
  161SAPE   C1117924   3.515   1.226   2.586  0.2013 -0.6610  0.4035
  161SAPE  H11A17925   3.447   1.197   2.504 -1.5679 -0.7409  1.8334
  161SAPE  H11B17926   3.574   1.317   2.558 -0.5587  0.3607  1.9750
  161SAPE     P17927   3.326   1.374   2.690 -0.0966  0.0583 -0.4664
  161SAPE   O1317928   3.281   1.382   2.552  0.1852  0.1742  0.2494
  161SAPE   O1417929   3.218   1.349   2.783 -0.0140 -0.4945  0.0675
  161SAPE   O1217930   3.432   1.249   2.701  0.5061 -0.5196 -0.1314
  161SAPE   O1117931   3.410   1.493   2.737 -0.5918 -0.5062 -0.1317
  161SAPE    C117932   3.511   1.494   2.838 -0.2357 -0.3053  0.0707
  161SAPE    HA17933   3.602   1.439   2.805  0.5715  0.3954  1.0612
  161SAPE    HB17934   3.551   1.598   2.845 -1.2175  0.2919 -2.0902
  161SAPE    C217935   3.484   1.464   2.987  0.1360  0.6843  0.3970
  161SAPE    HS17936   3.579   1.478   3.043 -0.4589  1.4396  1.2494
  161SAPE   O2117937   3.433   1.335   3.008  0.1079 -0.2657 -0.6347
  161SAPE   C2117938   3.521   1.237   3.007  0.7566 -0.3352 -0.3055
  161SAPE   O2217939   3.643   1.238   2.990  0.2455  0.1582  0.5918
  161SAPE   C2217940   3.449   1.109   3.048 -0.0831  0.8520 -0.4086
  161SAPE   H2R17941   3.399   1.130   3.145  1.9747 -2.0509  1.4408
  161SAPE   H2S17942   3.366   1.079   2.980  0.6465  0.0411 -0.9604
  161SAPE    C317943   3.385   1.571   3.034  0.8186  0.6949 -0.5656
  161SAPE    HX17944   3.290   1.548   2.982  0.1890 -0.8106  1.1433
  161SAPE    HY17945   3.400   1.677   3.005  1.0372  0.6355 -0.6733
  161SAPE   O3117946   3.356   1.553   3.175  0.3826 -0.1473  0.3844
  161SAPE   C3117947   3.435   1.638   3.247 -0.6167 -0.3847  0.1434
  161SAPE   O3217948   3.513   1.716   3.196 -0.3711  0.2024  0.2231
  161SAPE   C3217949   3.410   1.626   3.399 -0.6293 -0.4425 -0.4437
  161SAPE   H2X17950   3.425   1.520   3.427 -3.1040 -0.5596  0.6926
  161SAPE   H2Y17951   3.305   1.657   3.417 -0.2859 -0.9338  3.1916
  161SAPE   C2317952   3.541   0.987   3.069  0.0277 -0.1171  0.4111
  161SAPE   H3R17953   3.642   1.020   3.103  2.0030 -2.7435 -2.3474
  161SAPE   H3S17954   3.570   0.934   2.976  1.5145  1.4502 -0.0629
  161SAPE   C2417955   3.494   0.893   3.178  0.0687  0.8399 -0.4176
  161SAPE   H4R17956   3.385   0.872   3.171  0.1303 -0.2088  1.2133
  161SAPE   H4S17957   3.502   0.948   3.274  2.6214 -3.1020  1.9110
  161SAPE   C2517958   3.586   0.771   3.179  0.7545  0.3230 -0.0738
  161SAPE   H5R17959   3.547   0.683   3.125  0.0687 -0.3062  1.3756
  161SAPE   C2617960   3.711   0.763   3.227  0.3742 -0.0860 -0.4636
  161SAPE   H6R17961   3.762   0.665   3.218  0.7012 -0.0152  0.4365
  161SAPE   C2717962   3.787   0.877   3.297 -0.4357 -0.1482  0.1128
  161SAPE   H7R17963   3.809   0.865   3.406 -1.4284  0.9158  0.4599
  161SAPE   H7S17964   3.732   0.974   3.293 -0.4832 -0.2216 -1.1538
  161SAPE   C2817965   3.929   0.898   3.239 -0.7502  0.4711 -0.1334
  161SAPE   H8R17966   3.948   0.847   3.144 -0.1912  0.6929 -0.1422
  161SAPE   C2917967   4.034   0.965   3.293  0.0273 -0.3783 -0.6192
  161SAPE   H9R17968   4.123   0.973   3.228 -0.5963 -2.5553 -1.8522
  161SAPE  C21017969   4.030   1.051   3.416 -0.1716 -0.1210 -0.2085
  161SAPE  H10R17970   4.070   0.987   3.498  1.0493 -0.9878 -1.4315
  161SAPE  H10S17971   3.925   1.080   3.439  0.1331  1.7645 -0.9921
  161SAPE  C21117972   4.122   1.173   3.409 -0.5632  0.1472  0.0571
  161SAPE  H11R17973   4.115   1.240   3.322  0.9769  1.9819  1.2658
  161SAPE  C21217974   4.223   1.194   3.488 -0.4818 -0.6055  1.0028
  161SAPE  H12R17975   4.290   1.279   3.471  0.1374 -0.9538  1.6415
  161SAPE  C21317976   4.258   1.111   3.607 -0.1699  0.4036 -0.5221
  161SAPE  H13R17977   4.172   1.092   3.675  2.3084 -0.2559  2.7398
  161SAPE  H13S17978   4.327   1.165   3.676 -2.1939 -0.2110  2.1764
  161SAPE  C21417979   4.329   0.979   3.587  0.6309  0.0953 -0.0427
  161SAPE  H14R17980   4.384   0.972   3.492 -1.9320 -1.7474 -1.5045
  161SAPE  C21517981   4.327   0.881   3.677  0.5491  0.8710  0.3948
  161SAPE  H15R17982   4.360   0.779   3.650  0.2420  0.4435  1.5593
  161SAPE  C21617983   4.247   0.885   3.808  0.1162  0.0037 -0.0842
  161SAPE  H16R17984   4.188   0.794   3.833  1.5316 -1.2506 -1.0814
  161SAPE  H16S17985   4.163   0.955   3.824 -1.8537 -2.9713  4.4603
  161SAPE  C21717986   4.337   0.923   3.927  0.4127  0.6352 -0.2600
  161SAPE  H17R17987   4.397   1.014   3.910  2.4106 -0.8206 -1.5064
  161SAPE  H17S17988   4.409   0.839   3.940  0.4560  0.3956 -1.8146
  161SAPE  C21817989   4.249   0.932   4.050  0.2993  0.3943  0.5410
  161SAPE  H18R17990   4.185   0.844   4.073  0.4248 -0.2215 -1.3087
  161SAPE  H18S17991   4.184   1.018   4.023 -0.4097 -0.5355 -0.8467
  161SAPE  C21917992   4.326   0.964   4.178 -0.6437  0.0150 -0.2701
  161SAPE  H19R17993   4.367   1.066   4.164  2.7392 -0.9639  1.3678
  161SAPE  H19S17994   4.407   0.892   4.203  0.5905  0.5883 -2.3664
  161SAPE  C22017995   4.244   0.960   4.307  0.3483 -0.3400  0.1370
  161SAPE  H20R17996   4.162   1.035   4.303  2.4147  2.0737  0.5260
  161SAPE  H20S17997   4.310   1.006   4.383  1.7230 -1.5232 -0.2945
  161SAPE  H20T17998   4.204   0.861   4.338  1.3636 -0.7915  0.0455
  161SAPE   C3317999   3.515   1.709   3.487 -0.4792 -0.2435 -0.1123
  161SAPE   H3X18000   3.505   1.819   3.480  0.1272 -0.1271  0.8212
  161SAPE   H3Y18001   3.619   1.691   3.454  0.0576  1.4447  0.5921
  161SAPE   C3418002   3.504   1.665   3.636 -0.1470 -0.1150  0.6536
  161SAPE   H4X18003   3.512   1.554   3.630  0.6723 -0.0089 -0.6282
  161SAPE   H4Y18004   3.402   1.696   3.668 -0.9156 -1.4390 -0.3760
  161SAPE   C3518005   3.615   1.722   3.729  0.3208  0.1147 -0.7729
  161SAPE   H5X18006   3.600   1.832   3.731  0.2275  0.0957  0.1568
  161SAPE   H5Y18007   3.711   1.706   3.675  1.5395  3.0904  0.2633
  161SAPE   C3618008   3.615   1.659   3.872 -0.9795 -0.1743  0.7058
  161SAPE   H6X18009   3.695   1.699   3.937 -0.7600  0.8639 -0.1678
  161SAPE   H6Y18010   3.623   1.548   3.871 -2.1005 -0.2674  0.9491
  161SAPE   C3718011   3.477   1.680   3.946 -0.1259  0.2999  0.0405
  161SAPE   H7X18012   3.397   1.653   3.874 -1.1929 -0.0138  1.2974
  161SAPE   H7Y18013   3.456   1.788   3.965  0.0982  0.2019  0.8986
  161SAPE   C3818014   3.473   1.601   4.068  0.3208 -0.1993 -1.1806
  161SAPE   H8X18015   3.492   1.493   4.047  1.1095 -0.3836  0.3230
  161SAPE   H8Y18016   3.376   1.616   4.120 -0.8579 -0.9965 -3.0280
  161SAPE   C3918017   3.575   1.634   4.183 -0.3622  0.1374  0.3043
  161SAPE   H9X18018   3.571   1.738   4.222 -2.0915  0.5268 -0.7918
  161SAPE   H9Y18019   3.673   1.636   4.131  0.2602 -0.0359  1.4460
  161SAPE  C31018020   3.589   1.537   4.296  1.0187  0.9218 -0.5587
  161SAPE  H10X18021   3.676   1.545   4.365  0.4986  0.0626  0.2229
  161SAPE  H10Y18022   3.582   1.439   4.244 -1.3350  0.4605  0.5124
  161SAPE  C31118023   3.468   1.535   4.394  0.2610 -0.3108 -0.0251
  161SAPE  H11X18024   3.385   1.579   4.333  0.4192 -1.9997 -1.5426
  161SAPE  H11Y18025   3.482   1.610   4.474  0.8128 -0.5122  0.0668
  161SAPE  C31218026   3.434   1.405   4.466 -0.0022  0.5476 -0.1292
  161SAPE  H12X18027   3.531   1.355   4.484  0.4623  1.3228 -0.4349
  161SAPE  H12Y18028   3.381   1.354   4.383 -2.6291 -0.7016  2.1570
  161SAPE  C31318029   3.341   1.419   4.587 -0.4690 -0.3426  0.1229
  161SAPE  H13X18030   3.248   1.362   4.566 -0.1133 -0.5214 -1.0361
  161SAPE  H13Y18031   3.324   1.528   4.604 -1.5701 -0.5365  0.3597
  161SAPE  C31418032   3.396   1.360   4.715 -0.0995 -0.0471  0.1210
  161SAPE  H14X18033   3.324   1.395   4.792  0.0712 -1.8358  1.1364
  161SAPE  H14Y18034   3.489   1.420   4.728 -0.9067  1.5181 -0.9056
  161SAPE  C31518035   3.419   1.206   4.715 -0.4559 -0.9345  0.8240
  161SAPE  H15X18036   3.499   1.172   4.784 -1.0897 -3.8767  0.2484
  161SAPE  H15Y18037   3.455   1.175   4.615  0.1371 -0.6984  0.9597
  161SAPE  C31618038   3.303   1.128   4.763 -0.4491 -0.0560 -0.3288
  161SAPE  H16X18039   3.214   1.164   4.706 -0.9466  1.3541  1.2380
  161SAPE  H16Y18040   3.289   1.156   4.869 -0.8993  0.7859 -0.5978
  161SAPE  C31718041   3.315   0.978   4.747 -0.2146 -0.1218  0.4945
  161SAPE  H17X18042   3.357   0.955   4.646 -1.1421  0.1230  0.0391
  161SAPE  H17Y18043   3.209   0.944   4.745 -0.5487  0.8667 -1.4338
  161SAPE  C31818044   3.396   0.923   4.857 -0.2683  0.1264 -0.0785
  161SAPE  H18X18045   3.345   0.935   4.955 -1.7521  1.4983 -0.9677
  161SAPE  H18Y18046   3.500   0.964   4.857 -1.0153  2.1443  1.0242
  161SAPE  H18Z18047   3.401   0.812   4.848  2.6432  0.2299 -0.7277
  162SAPE     N18048   1.328   4.403   2.056 -0.5760  0.5993 -0.0547
  162SAPE   HN118049   1.425   4.389   2.020 -1.0075 -2.6582 -0.2169
  162SAPE   HN218050   1.310   4.351   2.144  1.2613  0.0951  0.0670
  162SAPE   HN318051   1.273   4.354   1.982 -1.0654  0.0927  0.6326
  162SAPE   C1218052   1.289   4.549   2.057  0.9318 -0.6139  0.2585
  162SAPE  H12A18053   1.327   4.604   2.146 -1.4006  0.7532  0.4908
  162SAPE  H12B18054   1.178   4.541   2.056  0.3916  3.6786  2.2017
  162SAPE   C1118055   1.331   4.616   1.929  0.2125 -0.4869  0.8681
  162SAPE  H11A18056   1.328   4.722   1.961 -3.9766 -1.1370  3.3968
  162SAPE  H11B18057   1.256   4.607   1.848  0.3036  1.6727  0.4820
  162SAPE     P18058   1.602   4.656   1.891  0.0321  0.7068 -0.0191
  162SAPE   O1318059   1.715   4.560   1.891 -0.1071  0.3230  0.7112
  162SAPE   O1418060   1.608   4.765   1.795  0.2650  0.1640 -0.3522
  162SAPE   O1218061   1.467   4.578   1.878  0.0928 -0.1699  0.1718
  162SAPE   O1118062   1.585   4.708   2.030  0.0369  0.0648 -0.4557
  162SAPE    C118063   1.646   4.824   2.084  0.0367  0.0471  0.6377
  162SAPE    HA18064   1.754   4.818   2.112  0.6301 -0.5622 -1.5848
  162SAPE    HB18065   1.628   4.909   2.015 -0.9261 -1.4516 -1.0420
  162SAPE    C218066   1.567   4.864   2.212 -0.0140 -0.3987 -0.5169
  162SAPE    HS18067   1.587   4.970   2.237  3.1118 -1.0797  0.3062
  162SAPE   O2118068   1.596   4.774   2.325 -0.7200  0.1201  0.3774
  162SAPE   C2118069   1.712   4.795   2.382 -0.0500  0.1494 -0.6930
  162SAPE   O2218070   1.805   4.863   2.340  0.2415 -0.0112  0.5796
  162SAPE   C2218071   1.710   4.722   2.516  0.6549  0.0046  0.9113
  162SAPE   H2R18072   1.605   4.727   2.552  0.6576 -0.1344  0.9362
  162SAPE   H2S18073   1.743   4.616   2.510  1.2760  0.0932  2.5023
  162SAPE    C318074   1.411   4.884   2.185 -0.1251  0.7533  0.1806
  162SAPE    HX18075   1.375   4.781   2.163 -0.5263  1.2021 -1.3580
  162SAPE    HY18076   1.407   4.936   2.088  0.6587  0.3652 -0.0661
  162SAPE   O3118077   1.343   4.952   2.294  0.5684 -0.0833  0.0413
  162SAPE   C3118078   1.261   4.879   2.372 -0.3545 -0.0545  0.0594
  162SAPE   O3218079   1.209   4.771   2.354  0.2383  0.4179 -0.0448
  162SAPE   C3218080   1.225   4.976   2.484  0.4991  1.2039  0.3679
  162SAPE   H2X18081   1.162   5.053   2.435 -0.3119  0.2864 -0.0635
  162SAPE   H2Y18082   1.316   5.017   2.532  1.3012 -0.7274  0.5997
  162SAPE   C2318083   1.806   4.776   2.622 -0.2403 -1.4167  0.1912
  162SAPE   H3R18084   1.908   4.779   2.578 -0.2459  0.6672  0.2436
  162SAPE   H3S18085   1.817   4.707   2.709  0.8829 -2.2943 -0.6066
  162SAPE   C2418086   1.766   4.913   2.691 -0.6624  0.7453  0.0820
  162SAPE   H4R18087   1.677   4.886   2.752  0.0259  3.0644  2.2778
  162SAPE   H4S18088   1.728   4.982   2.613  0.7267  0.7184 -0.6616
  162SAPE   C2518089   1.878   4.978   2.766  0.0427 -0.4030  0.3528
  162SAPE   H5R18090   1.955   5.014   2.697 -0.7457  3.0157  1.0925
  162SAPE   C2618091   1.887   5.011   2.898  1.0186  0.0475  0.1405
  162SAPE   H6R18092   1.979   5.059   2.934 -0.0614  2.6410 -0.2903
  162SAPE   C2718093   1.776   4.983   2.996 -0.4823 -0.4545 -0.2206
  162SAPE   H7R18094   1.696   4.928   2.941 -0.2467 -2.7396  1.5507
  162SAPE   H7S18095   1.738   5.080   3.035 -1.5735 -1.0602  0.2702
  162SAPE   C2818096   1.822   4.897   3.109 -0.1613 -1.0979 -0.7881
  162SAPE   H8R18097   1.858   4.803   3.063 -0.0479 -0.2814 -2.4407
  162SAPE   C2918098   1.829   4.924   3.240  0.1328  0.7772 -0.1089
  162SAPE   H9R18099   1.886   4.854   3.302 -1.3542 -1.6979 -1.4022
  162SAPE  C21018100   1.796   5.052   3.317 -0.1371  0.8442 -0.0622
  162SAPE  H10R18101   1.739   5.119   3.248 -2.2284 -1.7633 -1.0571
  162SAPE  H10S18102   1.896   5.095   3.339  0.9103 -0.1078 -2.5758
  162SAPE  C21118103   1.709   5.033   3.444  0.5717  0.0882 -0.1352
  162SAPE  H11R18104   1.603   5.062   3.430  0.2739 -0.8267  0.1383
  162SAPE  C21218105   1.749   4.990   3.565  0.1644  0.1859 -0.5679
  162SAPE  H12R18106   1.676   4.989   3.648  1.5627  3.8890  0.9388
  162SAPE  C21318107   1.896   4.968   3.601  0.1721 -0.6000  0.4484
  162SAPE  H13R18108   1.935   5.054   3.659  2.5310 -1.5680  0.4213
  162SAPE  H13S18109   1.967   4.973   3.515  0.2484 -0.6189  0.5101
  162SAPE  C21418110   1.896   4.843   3.684  0.7691  0.5180 -1.0470
  162SAPE  H14R18111   1.870   4.754   3.624 -1.3739  0.5297 -0.2231
  162SAPE  C21518112   1.949   4.825   3.811 -0.2015  0.6827 -0.3398
  162SAPE  H15R18113   1.936   4.723   3.848 -1.8155  0.4216 -1.4933
  162SAPE  C21618114   2.013   4.929   3.894  0.5577  0.1563  0.0150
  162SAPE  H16R18115   2.065   5.004   3.831 -1.0134  0.2553 -1.2221
  162SAPE  H16S18116   2.091   4.880   3.956  0.1310  0.1892  0.5862
  162SAPE  C21718117   1.904   4.990   3.986 -0.1034 -0.0351 -0.0158
  162SAPE  H17R18118   1.840   4.912   4.032 -1.0842  1.4766  1.3237
  162SAPE  H17S18119   1.840   5.053   3.920 -2.3498 -2.4699 -0.3183
  162SAPE  C21818120   1.962   5.075   4.094  2.2075 -0.5894 -0.4342
  162SAPE  H18R18121   2.018   5.160   4.048  2.0773  0.0032  0.4651
  162SAPE  H18S18122   2.029   5.014   4.159  0.0170 -0.1564  2.4348
  162SAPE  C21918123   1.855   5.127   4.195  0.1037 -0.6823 -0.2539
  162SAPE  H19R18124   1.779   5.189   4.144 -1.0826 -0.2366  1.9153
  162SAPE  H19S18125   1.924   5.192   4.254  1.1578  0.2107 -2.3444
  162SAPE  C22018126   1.780   5.027   4.285 -0.1196 -0.1238  0.7754
  162SAPE  H20R18127   1.713   4.965   4.223 -1.1880  1.4871  0.2682
  162SAPE  H20S18128   1.724   5.086   4.361  0.0452 -0.3886  1.1038
  162SAPE  H20T18129   1.861   4.974   4.340 -0.8840  0.0520  2.1397
  162SAPE   C3318130   1.140   4.902   2.590 -0.3945  0.5081 -0.0783
  162SAPE   H3X18131   1.185   4.806   2.623 -1.8628  0.1564  0.9898
  162SAPE   H3Y18132   1.043   4.875   2.542 -0.6666  0.0797  0.7002
  162SAPE   C3418133   1.116   4.991   2.703  0.0929 -0.0509 -0.4193
  162SAPE   H4X18134   1.103   5.097   2.671  0.2580  0.5115  1.2919
  162SAPE   H4Y18135   1.206   5.001   2.768 -0.2630 -3.3257  0.7285
  162SAPE   C3518136   1.005   4.953   2.797 -0.3036  0.5205  0.1587
  162SAPE   H5X18137   1.029   4.855   2.845  1.7834  0.5069 -0.7756
  162SAPE   H5Y18138   0.911   4.939   2.740 -0.5095  2.6354 -0.0943
  162SAPE   C3618139   0.992   5.062   2.898  0.4888  0.4737 -0.0782
  162SAPE   H6X18140   0.982   5.162   2.851 -0.3836  1.6180  2.3466
  162SAPE   H6Y18141   1.076   5.064   2.970  0.9057  1.1757 -0.5733
  162SAPE   C3718142   0.874   5.037   2.987 -0.1288 -0.2514 -0.6384
  162SAPE   H7X18143   0.791   4.981   2.939 -0.7749  1.1428 -1.2142
  162SAPE   H7Y18144   0.831   5.138   3.007 -1.0302 -0.0626 -3.1906
  162SAPE   C3818145   0.895   4.967   3.122 -0.1616 -0.2384  0.7466
  162SAPE   H8X18146   0.965   5.033   3.176 -0.4142  0.4216  0.2790
  162SAPE   H8Y18147   0.939   4.865   3.118 -0.9933 -0.6213  1.1877
  162SAPE   C3918148   0.758   4.970   3.198  0.0117 -0.0415  0.9989
  162SAPE   H9X18149   0.683   4.927   3.129  0.8244  0.4278 -0.2043
  162SAPE   H9Y18150   0.734   5.077   3.214 -0.0918 -0.0471  0.8756
  162SAPE  C31018151   0.761   4.907   3.341 -0.2013 -0.0184  0.7923
  162SAPE  H10X18152   0.826   4.963   3.411  2.0068  0.2204 -1.3221
  162SAPE  H10Y18153   0.791   4.801   3.332 -1.5154 -0.5789  2.4828
  162SAPE  C31118154   0.616   4.912   3.404  0.8335 -0.3946 -0.1018
  162SAPE  H11X18155   0.539   4.853   3.349 -0.9450 -0.2458  2.0965
  162SAPE  H11Y18156   0.578   5.016   3.398  1.0363 -0.3822 -3.3786
  162SAPE  C31218157   0.623   4.876   3.551  0.2909  0.5349  1.3145
  162SAPE  H12X18158   0.703   4.923   3.611 -0.0992  0.1210  2.1846
  162SAPE  H12Y18159   0.649   4.768   3.558 -0.6590  0.1098 -0.8358
  162SAPE  C31318160   0.494   4.889   3.625  0.7096 -0.4163  0.2642
  162SAPE  H13X18161   0.412   4.830   3.579  0.3652 -0.3942  0.8428
  162SAPE  H13Y18162   0.468   4.997   3.617  1.1586 -0.2762  0.6650
  162SAPE  C31418163   0.497   4.854   3.775 -0.1545 -0.6895  0.6268
  162SAPE  H14X18164   0.598   4.882   3.809 -0.8753  1.3697  1.2295
  162SAPE  H14Y18165   0.467   4.747   3.783  0.1106 -0.9179 -1.0277
  162SAPE  C31518166   0.408   4.951   3.845  0.1399  0.3237 -1.2358
  162SAPE  H15X18167   0.303   4.933   3.814 -0.7943  3.3202 -0.1995
  162SAPE  H15Y18168   0.435   5.057   3.824  3.5327  0.2421  1.7557
  162SAPE  C31618169   0.425   4.930   3.996 -0.6412  0.1678  0.4107
  162SAPE  H16X18170   0.533   4.944   4.020 -1.2698  0.4041  3.5151
  162SAPE  H16Y18171   0.386   4.829   4.019 -1.2510  0.4487  0.6302
  162SAPE  C31718172   0.343   5.022   4.084  0.3863 -0.2418 -0.2320
  162SAPE  H17X18173   0.385   5.124   4.081  0.4524 -0.2345  0.6541
  162SAPE  H17Y18174   0.367   4.984   4.186 -1.5149  0.6465  0.6068
  162SAPE  C31818175   0.190   5.010   4.054 -0.7116  0.0809  0.0167
  162SAPE  H18X18176   0.161   4.903   4.058  3.2378 -1.1964 -1.2189
  162SAPE  H18Y18177   0.155   5.054   3.958  0.1584  2.2076  0.6166
  162SAPE  H18Z18178   0.145   5.071   4.136  2.1810  2.0939  0.2482
  163SAPE     N18179   1.636   3.434   1.664 -0.0553  0.7573  0.3622
  163SAPE   HN118180   1.595   3.496   1.737 -0.5380 -1.2020  1.8263
  163SAPE   HN218181   1.647   3.498   1.583 -0.4200 -0.7742 -0.9602
  163SAPE   HN318182   1.571   3.355   1.644  1.2686  0.0874 -1.5932
  163SAPE   C1218183   1.769   3.380   1.706 -0.6239  0.3330 -0.8160
  163SAPE  H12A18184   1.829   3.469   1.732 -1.9267  0.9125  0.3113
  163SAPE  H12B18185   1.816   3.325   1.621 -1.9240 -0.8962 -0.7729
  163SAPE   C1118186   1.749   3.277   1.825 -0.2191 -0.5360 -0.9719
  163SAPE  H11A18187   1.749   3.335   1.920 -0.1687 -2.5270  0.3063
  163SAPE  H11B18188   1.841   3.215   1.826  1.5773  1.9404 -1.9360
  163SAPE     P18189   1.573   3.074   1.878  0.4472 -0.1222  0.3837
  163SAPE   O1318190   1.424   3.067   1.865  0.2158 -0.0920  0.4506
  163SAPE   O1418191   1.656   2.969   1.820  0.1435 -0.6095  0.1966
  163SAPE   O1218192   1.622   3.213   1.819 -0.2039 -0.2492  0.5183
  163SAPE   O1118193   1.622   3.084   2.032  0.0104 -0.3923 -0.1463
  163SAPE    C118194   1.646   2.962   2.102 -0.5738  0.2223  0.8237
  163SAPE    HA18195   1.555   2.898   2.093  0.3982 -1.2029  0.7915
  163SAPE    HB18196   1.730   2.914   2.048 -0.4416  0.2044  1.0446
  163SAPE    C218197   1.671   2.978   2.251  0.1066 -0.1901 -0.6462
  163SAPE    HS18198   1.696   2.877   2.291 -1.0460 -0.4158 -0.4741
  163SAPE   O2118199   1.551   3.031   2.309 -0.2333 -0.0094 -0.2248
  163SAPE   C2118200   1.528   3.000   2.439 -0.1355  0.3536 -0.6693
  163SAPE   O2218201   1.611   2.947   2.516  0.5986 -0.0920  0.2796
  163SAPE   C2218202   1.387   3.053   2.487 -0.8322 -0.0782 -0.1996
  163SAPE   H2R18203   1.376   3.157   2.451 -1.9219 -0.2284 -0.3346
  163SAPE   H2S18204   1.304   2.989   2.449 -0.8102  1.2946 -2.7884
  163SAPE    C318205   1.789   3.075   2.272  0.0485 -0.2396 -0.1725
  163SAPE    HX18206   1.745   3.176   2.258  1.4117  0.2410 -1.1515
  163SAPE    HY18207   1.865   3.072   2.191 -1.4541 -3.0256 -1.6155
  163SAPE   O3118208   1.858   3.067   2.402  0.5870  0.1349 -0.1956
  163SAPE   C3118209   1.934   2.955   2.413  0.1350 -0.3055  0.1019
  163SAPE   O3218210   1.942   2.867   2.331  0.6923 -0.2304 -0.5180
  163SAPE   C3218211   1.995   2.964   2.555  0.0884  0.3777  0.0996
  163SAPE   H2X18212   1.961   3.060   2.598  2.2909  0.8507  0.9388
  163SAPE   H2Y18213   2.105   2.952   2.546 -0.0251 -1.5995  0.7806
  163SAPE   C2318214   1.376   3.061   2.646 -0.8446  0.8009  0.9437
  163SAPE   H3R18215   1.464   3.117   2.686 -0.3112  0.3347  0.4371
  163SAPE   H3S18216   1.388   2.957   2.685  1.4742  0.4119 -0.6029
  163SAPE   C2418217   1.253   3.141   2.678  0.7019 -0.1818 -0.3562
  163SAPE   H4R18218   1.168   3.110   2.613  0.3194  0.8688 -0.3748
  163SAPE   H4S18219   1.256   3.247   2.643 -0.3257  0.1101  0.4153
  163SAPE   C2518220   1.208   3.135   2.827  0.1581  0.5962 -0.1265
  163SAPE   H5R18221   1.216   3.037   2.875  0.0888  0.2776 -0.7525
  163SAPE   C2618222   1.181   3.248   2.907  0.7503  0.1205 -0.6216
  163SAPE   H6R18223   1.147   3.227   3.010 -1.0594 -0.1920 -1.2503
  163SAPE   C2718224   1.189   3.394   2.874 -0.2079  0.2082 -0.7052
  163SAPE   H7R18225   1.180   3.396   2.763 -0.8207  0.1175 -0.6626
  163SAPE   H7S18226   1.274   3.443   2.925 -0.6613  0.4412 -0.1555
  163SAPE   C2818227   1.066   3.461   2.932 -0.1257  0.3472  0.4861
  163SAPE   H8R18228   0.983   3.452   2.860  0.4959 -1.1621 -0.0710
  163SAPE   C2918229   1.056   3.523   3.048  0.5392 -0.2892 -0.0811
  163SAPE   H9R18230   0.961   3.553   3.095  0.8956 -0.3968  0.7284
  163SAPE  C21018231   1.168   3.552   3.140  0.2361 -0.1022 -0.0069
  163SAPE  H10R18232   1.138   3.638   3.203  1.2388 -0.0911  0.4824
  163SAPE  H10S18233   1.258   3.583   3.084  0.7584 -1.2147  0.1794
  163SAPE  C21118234   1.191   3.429   3.233  0.0134  0.2973  0.1570
  163SAPE  H11R18235   1.262   3.356   3.191 -0.4271 -0.5159  0.7911
  163SAPE  C21218236   1.142   3.405   3.356  0.2841 -0.8833  0.2524
  163SAPE  H12R18237   1.185   3.320   3.410  1.6837 -0.5321 -0.2666
  163SAPE  C21318238   1.040   3.497   3.430  0.4949  0.5121 -0.1264
  163SAPE  H13R18239   0.999   3.419   3.497 -0.1622 -0.3167 -1.4439
  163SAPE  H13S18240   0.951   3.519   3.368  0.9519  0.2655 -0.8809
  163SAPE  C21418241   1.096   3.614   3.511  0.6569 -0.4703 -0.2560
  163SAPE  H14R18242   1.138   3.693   3.448  0.0477  0.5781  0.6217
  163SAPE  C21518243   1.092   3.624   3.642  0.5238 -0.0574  0.0793
  163SAPE  H15R18244   1.112   3.723   3.686 -0.5657 -0.2725  1.1396
  163SAPE  C21618245   1.021   3.537   3.744  0.0559  0.2274 -0.1220
  163SAPE  H16R18246   1.092   3.507   3.824  1.5368 -0.8110 -1.7396
  163SAPE  H16S18247   0.981   3.440   3.707  1.5042 -0.7471  0.7794
  163SAPE  C21718248   0.891   3.612   3.794  0.5906  0.3033  0.6602
  163SAPE  H17R18249   0.823   3.623   3.707  0.1089  3.0177  1.3098
  163SAPE  H17S18250   0.898   3.716   3.833 -3.2683  1.1316 -0.4253
  163SAPE  C21818251   0.817   3.526   3.900 -0.4161 -0.3718  1.2128
  163SAPE  H18R18252   0.795   3.429   3.852 -0.6649  1.4890 -2.8745
  163SAPE  H18S18253   0.716   3.561   3.929  0.0956  1.2566  1.1606
  163SAPE  C21918254   0.876   3.508   4.038  0.4576  0.2094  0.0162
  163SAPE  H19R18255   0.856   3.604   4.091  0.7303 -0.2330  0.9373
  163SAPE  H19S18256   0.982   3.474   4.032 -0.4458 -2.5567 -2.4331
  163SAPE  C22018257   0.799   3.405   4.123  0.2255  0.0095  0.4815
  163SAPE  H20R18258   0.821   3.305   4.079  0.6705  0.0498  0.6083
  163SAPE  H20S18259   0.692   3.423   4.099  0.5713 -0.5936 -1.7302
  163SAPE  H20T18260   0.817   3.409   4.233 -0.0110  0.4119  0.5063
  163SAPE   C3318261   1.932   2.846   2.639 -0.5236 -0.2543 -0.7651
  163SAPE   H3X18262   1.978   2.748   2.612  1.1573  1.2144 -3.7372
  163SAPE   H3Y18263   1.821   2.843   2.632 -0.7978 -3.6657  1.9128
  163SAPE   C3418264   1.992   2.853   2.783  0.2108  0.0852 -0.0267
  163SAPE   H4X18265   1.961   2.937   2.848  0.4265 -1.8394  2.7491
  163SAPE   H4Y18266   2.101   2.851   2.761  0.2994 -0.4794  0.4490
  163SAPE   C3518267   1.963   2.728   2.871 -0.1630  0.4613 -0.1027
  163SAPE   H5X18268   2.033   2.649   2.837 -1.1821 -0.1786 -0.7673
  163SAPE   H5Y18269   1.865   2.680   2.853  0.6083 -0.8423 -1.0131
  163SAPE   C3618270   1.998   2.766   3.021  0.0461 -0.4606  0.0874
  163SAPE   H6X18271   1.926   2.840   3.061 -0.9883 -1.5081  0.2134
  163SAPE   H6Y18272   2.100   2.812   3.018 -0.1744 -0.0044 -1.0993
  163SAPE   C3718273   1.979   2.639   3.100  0.3661 -0.4585  0.5394
  163SAPE   H7X18274   2.046   2.565   3.052 -2.3165 -2.3252 -0.5656
  163SAPE   H7Y18275   1.874   2.609   3.077  0.4418 -0.2643 -0.0925
  163SAPE   C3818276   2.005   2.641   3.249 -0.3937  0.3024 -0.0963
  163SAPE   H8X18277   2.106   2.679   3.276 -0.7047  0.6372  0.6298
  163SAPE   H8Y18278   1.998   2.536   3.285 -1.8760  0.5350  0.3670
  163SAPE   C3918279   1.912   2.726   3.336  0.5271 -0.1848  0.4635
  163SAPE   H9X18280   1.806   2.716   3.304  0.0400  0.8613  1.6998
  163SAPE   H9Y18281   1.943   2.831   3.318  1.7268 -0.2531  1.9468
  163SAPE  C31018282   1.914   2.684   3.479  0.5924 -1.6637 -0.0406
  163SAPE  H10X18283   2.020   2.691   3.511  0.3665 -0.2092  0.4372
  163SAPE  H10Y18284   1.877   2.580   3.488 -2.0797 -0.8092 -0.3279
  163SAPE  C31118285   1.847   2.791   3.576  0.0184  0.3347  0.2012
  163SAPE  H11X18286   1.736   2.781   3.576 -0.3001  3.0143 -0.1686
  163SAPE  H11Y18287   1.865   2.886   3.521  1.3373 -1.3576 -2.5392
  163SAPE  C31218288   1.916   2.795   3.714  0.2028  0.0183  0.1308
  163SAPE  H12X18289   2.022   2.825   3.699  0.3825  0.3600  1.8679
  163SAPE  H12Y18290   1.919   2.690   3.749 -0.8225 -0.3365 -0.8021
  163SAPE  C31318291   1.851   2.876   3.823 -0.3101  0.2339 -0.6520
  163SAPE  H13X18292   1.837   2.981   3.790 -2.5673 -0.2188 -1.2934
  163SAPE  H13Y18293   1.925   2.868   3.905  0.6495  2.0543 -1.2897
  163SAPE  C31418294   1.721   2.810   3.871  0.0770  0.2097 -0.5346
  163SAPE  H14X18295   1.740   2.713   3.920 -0.2996  0.3163 -0.1701
  163SAPE  H14Y18296   1.649   2.795   3.787  0.4488 -2.0473 -0.5014
  163SAPE  C31518297   1.650   2.897   3.974  0.4033  0.2578 -0.6929
  163SAPE  H15X18298   1.642   3.006   3.952  0.8091  0.4952  0.2799
  163SAPE  H15Y18299   1.714   2.901   4.065  0.9032  2.3312 -1.0732
  163SAPE  C31618300   1.508   2.860   4.017  0.3185  0.0108  0.5438
  163SAPE  H16X18301   1.512   2.753   4.048 -0.6933 -0.2424 -0.1532
  163SAPE  H16Y18302   1.434   2.871   3.934  0.0140  2.8069  1.0785
  163SAPE  C31718303   1.455   2.939   4.140 -0.6506 -0.8457 -0.1695
  163SAPE  H17X18304   1.472   3.049   4.134 -2.8162 -0.3350  1.6638
  163SAPE  H17Y18305   1.504   2.908   4.234 -0.5429  1.1630  0.4887
  163SAPE  C31818306   1.306   2.921   4.152  0.1105 -0.3957  0.1483
  163SAPE  H18X18307   1.244   2.978   4.080 -1.3758 -1.3162  0.6486
  163SAPE  H18Y18308   1.267   2.956   4.250  0.4827  1.1641 -0.2335
  163SAPE  H18Z18309   1.274   2.816   4.136 -0.4269  0.0599 -2.0896
  164SAPE     N18310   4.600   3.640   2.092 -0.1130 -0.3203 -0.6632
  164SAPE   HN118311   4.601   3.581   2.007 -2.7367 -1.6916  0.1624
  164SAPE   HN218312   4.505   3.632   2.134  0.8795 -2.2638  1.3984
  164SAPE   HN318313   4.618   3.739   2.063 -1.7572  0.0135 -0.6693
  164SAPE   C1218314   4.700   3.580   2.181 -1.0817  0.4937 -0.6955
  164SAPE  H12A18315   4.705   3.473   2.152 -2.5434  0.8050 -2.2842
  164SAPE  H12B18316   4.688   3.595   2.290  0.1744 -0.2931 -0.4320
  164SAPE   C1118317   4.832   3.650   2.157 -0.4557  0.0265  0.0097
  164SAPE  H11A18318   4.816   3.760   2.159  0.0477  0.1371 -1.2478
  164SAPE  H11B18319   4.873   3.618   2.059  4.9756  0.3802  1.8358
  164SAPE     P18320   5.087   3.628   2.225 -0.1128 -0.7840  0.1888
  164SAPE   O1318321   5.160   3.510   2.285  0.1639  0.2386 -0.4013
  164SAPE   O1418322   5.097   3.652   2.078  0.1400  0.0237 -0.2840
  164SAPE   O1218323   4.932   3.610   2.251 -0.1862  0.0732 -0.5828
  164SAPE   O1118324   5.122   3.761   2.299 -0.4056  0.3456  0.2082
  164SAPE    C118325   5.046   3.830   2.394  0.3370  0.1925  0.6315
  164SAPE    HA18326   5.063   3.937   2.367 -1.5662 -0.1336 -2.3170
  164SAPE    HB18327   4.939   3.802   2.387  1.2590 -3.8417  0.7333
  164SAPE    C218328   5.089   3.811   2.546  0.4288 -0.5247 -0.4898
  164SAPE    HS18329   5.199   3.826   2.543  0.4077 -0.5955 -2.5976
  164SAPE   O2118330   5.050   3.681   2.590  0.4875 -0.6636 -0.0160
  164SAPE   C2118331   5.146   3.611   2.647 -0.8813  0.3680 -0.1549
  164SAPE   O2218332   5.260   3.645   2.666  0.4124  0.7349 -0.1208
  164SAPE   C2218333   5.106   3.462   2.660 -0.0193 -0.1425  0.9729
  164SAPE   H2R18334   5.009   3.454   2.712 -1.5953 -1.4149 -1.9157
  164SAPE   H2S18335   5.064   3.435   2.561  1.7917 -0.1164  0.1513
  164SAPE    C318336   5.025   3.914   2.639 -0.2586  0.3027 -0.7884
  164SAPE    HX18337   4.915   3.909   2.628 -0.5332 -1.2629  1.7381
  164SAPE    HY18338   5.054   4.019   2.621 -0.3223  0.5006  0.1780
  164SAPE   O3118339   5.055   3.875   2.777 -0.2512  0.8242 -0.7619
  164SAPE   C3118340   5.172   3.928   2.818 -0.1635  0.6875  0.5642
  164SAPE   O3218341   5.263   3.966   2.747  0.3213  0.4316 -0.1289
  164SAPE   C3218342   5.178   3.894   2.967 -0.9231  0.1703  0.4064
  164SAPE   H2X18343   5.132   3.802   3.008 -1.4950  1.5150  2.9739
  164SAPE   H2Y18344   5.116   3.973   3.015 -2.6773 -1.6348  1.2852
  164SAPE   C2318345   5.210   3.364   2.717 -0.3910 -0.8641 -1.0321
  164SAPE   H3R18346   5.307   3.391   2.672 -0.0134  2.8753  1.5324
  164SAPE   H3S18347   5.188   3.257   2.701  0.3939 -0.9524 -1.5304
  164SAPE   C2418348   5.225   3.399   2.867 -0.6118 -0.0259  0.0559
  164SAPE   H4R18349   5.257   3.506   2.871  1.6193 -0.6208 -0.2598
  164SAPE   H4S18350   5.315   3.341   2.897  0.3694  1.3213 -0.1774
  164SAPE   C2518351   5.107   3.377   2.955 -0.2949  0.0755 -0.3118
  164SAPE   H5R18352   5.006   3.394   2.916 -1.3526  2.0025  2.8989
  164SAPE   C2618353   5.105   3.345   3.086 -0.5061  0.2135 -0.3818
  164SAPE   H6R18354   5.008   3.322   3.133 -1.9475  1.3182 -2.6632
  164SAPE   C2718355   5.222   3.326   3.179  0.4344  0.1632  0.0686
  164SAPE   H7R18356   5.316   3.345   3.124 -0.0903 -1.7575 -1.6105
  164SAPE   H7S18357   5.227   3.219   3.206  0.9203  0.3059  0.5716
  164SAPE   C2818358   5.196   3.409   3.294  0.0304  0.5664  0.2695
  164SAPE   H8R18359   5.218   3.514   3.271  0.7245  0.9995  2.6528
  164SAPE   C2918360   5.147   3.388   3.413 -0.5943 -0.7987 -0.4043
  164SAPE   H9R18361   5.133   3.471   3.484 -1.2773 -1.4304  0.2172
  164SAPE  C21018362   5.107   3.256   3.453 -0.2981  0.7075  0.7446
  164SAPE  H10R18363   5.203   3.213   3.485 -0.3451  0.9032  1.1547
  164SAPE  H10S18364   5.060   3.191   3.376  2.8156 -0.3143 -0.4320
  164SAPE  C21118365   5.007   3.265   3.570  0.0376 -0.5332 -0.6439
  164SAPE  H11R18366   4.903   3.279   3.536  0.0485  1.8400  0.0840
  164SAPE  C21218367   5.038   3.278   3.697  0.1427 -0.2861  1.1686
  164SAPE  H12R18368   4.951   3.290   3.763 -0.8511  2.0943 -0.4846
  164SAPE  C21318369   5.179   3.269   3.764  0.8687  0.2767  0.3839
  164SAPE  H13R18370   5.226   3.194   3.696  0.4006 -1.4728  1.8915
  164SAPE  H13S18371   5.178   3.223   3.865  1.3191  1.1636  0.7947
  164SAPE  C21418372   5.262   3.396   3.754 -0.3805  0.2377  0.1434
  164SAPE  H14R18373   5.340   3.394   3.677 -0.4258  1.3759  0.0613
  164SAPE  C21518374   5.249   3.512   3.818  0.8287  0.3913  0.0051
  164SAPE  H15R18375   5.311   3.602   3.801  1.1272  0.3658  0.9139
  164SAPE  C21618376   5.134   3.537   3.917 -0.4266  0.6990  0.0251
  164SAPE  H16R18377   5.061   3.454   3.926  0.0008  0.3035 -0.1123
  164SAPE  H16S18378   5.071   3.623   3.886  0.4294  1.0693 -0.7383
  164SAPE  C21718379   5.183   3.572   4.058 -0.7741  0.0648  0.8827
  164SAPE  H17R18380   5.235   3.670   4.053 -0.4524 -0.0987  0.9550
  164SAPE  H17S18381   5.267   3.502   4.081 -1.1769 -1.0154 -0.7347
  164SAPE  C21818382   5.081   3.575   4.170  0.5553 -0.6511  0.2431
  164SAPE  H18R18383   5.024   3.480   4.176 -1.8312  0.7315  0.6256
  164SAPE  H18S18384   5.011   3.661   4.161 -1.1661 -2.0023  0.1554
  164SAPE  C21918385   5.160   3.596   4.302 -0.2443  0.4038 -0.4084
  164SAPE  H19R18386   5.192   3.702   4.296 -0.3163  0.4210 -0.4942
  164SAPE  H19S18387   5.245   3.524   4.304 -0.2535  0.4101  0.3740
  164SAPE  C22018388   5.081   3.573   4.430  0.2202 -0.8145  0.5538
  164SAPE  H20R18389   5.145   3.610   4.513  0.3129  2.2814 -0.7434
  164SAPE  H20S18390   5.049   3.468   4.446  0.2081 -0.8275  0.4404
  164SAPE  H20T18391   4.989   3.634   4.442 -1.0798 -1.9820 -2.4688
  164SAPE   C3318392   5.322   3.915   3.021 -0.1251 -0.4519 -0.0601
  164SAPE   H3X18393   5.314   3.939   3.129 -0.4213 -0.1722 -0.1428
  164SAPE   H3Y18394   5.375   4.000   2.974  1.2769 -1.5530 -0.5235
  164SAPE   C3418395   5.425   3.806   2.995 -0.8050  0.1866 -0.1843
  164SAPE   H4X18396   5.460   3.822   2.891 -1.1281  1.4010 -0.1199
  164SAPE   H4Y18397   5.373   3.708   2.997 -0.9825  0.2886  0.5707
  164SAPE   C3518398   5.553   3.803   3.089 -0.8665 -0.3299  0.7906
  164SAPE   H5X18399   5.592   3.906   3.083  0.4303 -0.8932 -3.7272
  164SAPE   H5Y18400   5.632   3.739   3.045 -0.0558  0.3817  1.1917
  164SAPE   C3618401   5.525   3.768   3.233  0.3164  0.0507  0.0069
  164SAPE   H6X18402   5.469   3.672   3.235 -0.0397  0.1859 -1.5757
  164SAPE   H6Y18403   5.457   3.842   3.279 -0.5714  0.3702 -1.7239
  164SAPE   C3718404   5.665   3.741   3.298  0.0161  0.4409  0.1802
  164SAPE   H7X18405   5.735   3.828   3.302 -0.1194  0.5384  0.4838
  164SAPE   H7Y18406   5.726   3.666   3.245 -0.0603 -0.4272  1.2833
  164SAPE   C3818407   5.643   3.699   3.449  0.8208 -0.1086  0.3989
  164SAPE   H8X18408   5.736   3.656   3.493 -0.5811 -1.3418  2.3246
  164SAPE   H8Y18409   5.562   3.624   3.456 -0.3771  0.9151 -1.7477
  164SAPE   C3918410   5.602   3.811   3.545 -0.6461 -0.6146  0.2160
  164SAPE   H9X18411   5.509   3.857   3.503  0.4553  0.7449 -0.8521
  164SAPE   H9Y18412   5.681   3.889   3.538 -0.6353 -0.6377  0.0873
  164SAPE  C31018413   5.582   3.767   3.689 -0.1411  0.2631  0.9243
  164SAPE  H10X18414   5.673   3.713   3.724  0.6017  1.3068  0.6387
  164SAPE  H10Y18415   5.491   3.703   3.691 -0.7005  0.9549 -1.0330
  164SAPE  C31118416   5.546   3.873   3.797 -0.3106 -0.5684  0.6080
  164SAPE  H11X18417   5.460   3.936   3.765 -2.3324 -2.2989  2.3587
  164SAPE  H11Y18418   5.641   3.928   3.818 -0.3110 -0.4854  0.3972
  164SAPE  C31218419   5.506   3.797   3.922  0.1594 -0.1116 -0.0140
  164SAPE  H12X18420   5.573   3.716   3.959 -1.3028 -1.1945  0.3589
  164SAPE  H12Y18421   5.405   3.750   3.930 -0.5057  1.2419 -0.2388
  164SAPE  C31318422   5.494   3.900   4.038  0.2730 -0.5665  0.5602
  164SAPE  H13X18423   5.398   3.955   4.027  1.6032  1.7277 -0.2075
  164SAPE  H13Y18424   5.576   3.975   4.030  1.4563 -1.7854  0.7909
  164SAPE  C31418425   5.514   3.849   4.176 -0.0472  0.2427 -0.2237
  164SAPE  H14X18426   5.613   3.802   4.194 -1.5851 -2.8204  0.8876
  164SAPE  H14Y18427   5.442   3.767   4.194 -0.6805  0.8653  0.1547
  164SAPE  C31518428   5.474   3.953   4.282 -0.4411 -0.5535 -0.5723
  164SAPE  H15X18429   5.389   4.003   4.230  1.3230 -0.2878 -3.4004
  164SAPE  H15Y18430   5.548   4.035   4.295 -2.3682  0.9868  1.6751
  164SAPE  C31618431   5.444   3.888   4.421 -0.2118  0.3426  0.6912
  164SAPE  H16X18432   5.519   3.811   4.447 -1.7432 -2.1424 -1.7510
  164SAPE  H16Y18433   5.349   3.832   4.410 -1.2373  1.9753  0.7852
  164SAPE  C31718434   5.422   3.983   4.534  0.4623 -0.4481 -0.2250
  164SAPE  H17X18435   5.511   4.049   4.538  0.3480 -0.2807 -0.4427
  164SAPE  H17Y18436   5.424   3.915   4.621  0.1021 -1.2487 -0.8287
  164SAPE  C31818437   5.285   4.055   4.540 -0.5810  0.1035  0.0324
  164SAPE  H18X18438   5.201   3.982   4.537 -0.2492 -0.2557 -0.9049
  164SAPE  H18Y18439   5.291   4.123   4.452  2.6672  1.9923  1.5158
  164SAPE  H18Z18440   5.280   4.113   4.635 -1.0645 -0.3625  0.2961
  165SAPE     N18441   3.098   3.505   2.016  0.3608  0.6429 -0.1377
  165SAPE   HN118442   3.082   3.422   1.954  0.6179  0.5634 -0.0973
  165SAPE   HN218443   3.010   3.556   2.038  0.6981  0.1401  2.8318
  165SAPE   HN318444   3.171   3.563   1.971  1.4587 -0.5103  0.0945
  165SAPE   C1218445   3.141   3.454   2.147 -0.0593  0.2306 -0.4835
  165SAPE  H12A18446   3.047   3.422   2.197 -0.7493 -0.0445 -1.9207
  165SAPE  H12B18447   3.195   3.532   2.204  2.1607 -0.0151 -2.1051
  165SAPE   C1118448   3.225   3.326   2.137  0.5135 -0.3086  0.3163
  165SAPE  H11A18449   3.252   3.282   2.235 -0.1757  0.9029  1.0739
  165SAPE  H11B18450   3.326   3.365   2.111  1.0162 -0.5617  1.7944
  165SAPE     P18451   3.055   3.155   2.046  0.2431 -0.0658  0.2035
  165SAPE   O1318452   2.936   3.241   2.019  0.2487  0.1510 -0.3868
  165SAPE   O1418453   3.072   3.037   1.963 -0.4288 -0.2921 -0.1023
  165SAPE   O1218454   3.184   3.241   2.034 -0.3684  0.7118 -0.2683
  165SAPE   O1118455   3.040   3.115   2.195 -0.0885 -0.1727 -0.0478
  165SAPE    C118456   3.110   3.004   2.256 -0.2687 -0.7970  0.3122
  165SAPE    HA18457   3.089   2.904   2.213  1.1846 -1.3241  0.7922
  165SAPE    HB18458   3.218   3.011   2.234 -0.7162  0.3157 -1.7931
  165SAPE    C218459   3.092   2.980   2.414  1.0044 -0.5892  1.4019
  165SAPE    HS18460   3.113   2.874   2.440 -0.3078 -1.1898  0.1244
  165SAPE   O2118461   2.962   3.011   2.460 -0.2474  0.1114  0.4182
  165SAPE   C2118462   2.864   2.931   2.408 -0.2504  0.4707  0.2555
  165SAPE   O2218463   2.879   2.832   2.338  0.1239  0.4310  0.3309
  165SAPE   C2218464   2.723   2.977   2.456 -0.4406  0.8403 -0.3034
  165SAPE   H2R18465   2.701   3.068   2.395 -1.0342  0.5865 -0.4775
  165SAPE   H2S18466   2.661   2.889   2.431  1.8423 -1.6650  2.2128
  165SAPE    C318467   3.191   3.069   2.486 -1.2200 -0.4711 -0.1777
  165SAPE    HX18468   3.198   3.168   2.435 -1.1587  1.1648  2.7397
  165SAPE    HY18469   3.292   3.025   2.476 -0.5861  1.0215 -0.7058
  165SAPE   O3118470   3.154   3.094   2.625 -0.2594  0.4506 -0.0586
  165SAPE   C3118471   3.197   3.000   2.712  0.7477  0.4269  0.2498
  165SAPE   O3218472   3.233   2.886   2.680  0.7428  0.4169  0.2409
  165SAPE   C3218473   3.183   3.050   2.856  0.1235  0.7110 -0.7049
  165SAPE   H2X18474   3.076   3.038   2.883  1.0829 -2.8824  2.2141
  165SAPE   H2Y18475   3.227   3.152   2.860  1.4982  0.1582 -1.0155
  165SAPE   C2318476   2.716   3.015   2.606  0.9412 -0.2251  0.0048
  165SAPE   H3R18477   2.638   3.094   2.603  1.6821  0.5650  0.8361
  165SAPE   H3S18478   2.810   3.062   2.641  0.9176  0.0905 -0.3471
  165SAPE   C2418479   2.676   2.898   2.698 -0.7180 -0.4909 -0.6884
  165SAPE   H4R18480   2.589   2.844   2.654  0.3910  0.2604 -4.0173
  165SAPE   H4S18481   2.638   2.924   2.800  0.1246 -3.2812  0.4498
  165SAPE   C2518482   2.799   2.816   2.724 -0.7256 -0.4716 -0.3874
  165SAPE   H5R18483   2.836   2.763   2.635 -0.5668 -0.9136 -0.0624
  165SAPE   C2618484   2.875   2.812   2.834 -0.5182 -0.5310  0.4721
  165SAPE   H6R18485   2.968   2.754   2.835  0.5217  1.0710  1.4785
  165SAPE   C2718486   2.844   2.882   2.961 -0.9482  0.3680 -0.5788
  165SAPE   H7R18487   2.927   2.854   3.029 -0.4065  0.3204 -1.2497
  165SAPE   H7S18488   2.764   2.829   3.018 -0.2500  0.7095  0.7592
  165SAPE   C2818489   2.826   3.033   2.974  0.6908  0.0994  0.1635
  165SAPE   H8R18490   2.813   3.083   2.876  1.4569  2.2763  1.1018
  165SAPE   C2918491   2.852   3.100   3.084  0.5072  0.1761 -0.2774
  165SAPE   H9R18492   2.859   3.210   3.079  1.9116  0.1427  0.3686
  165SAPE  C21018493   2.876   3.047   3.221 -0.2646 -0.1584 -0.3781
  165SAPE  H10R18494   2.889   3.143   3.275 -1.0728 -0.3614  0.1895
  165SAPE  H10S18495   2.979   3.005   3.228 -0.2380  0.0821  0.9593
  165SAPE  C21118496   2.767   2.965   3.288 -0.4421 -0.1924 -0.0073
  165SAPE  H11R18497   2.728   2.883   3.226 -0.9479 -0.6804  0.9318
  165SAPE  C21218498   2.718   2.997   3.413 -0.0654  0.3934 -0.2077
  165SAPE  H12R18499   2.638   2.938   3.460  0.4097  1.1780  1.6916
  165SAPE  C21318500   2.764   3.105   3.502 -0.3691 -0.3479  0.0833
  165SAPE  H13R18501   2.686   3.146   3.569 -0.0897  0.0245  0.1904
  165SAPE  H13S18502   2.801   3.190   3.439 -1.5309  0.1723  0.0701
  165SAPE  C21418503   2.894   3.074   3.583  1.2299  0.0500 -0.0694
  165SAPE  H14R18504   2.987   3.098   3.529  0.2889 -1.9999 -2.8240
  165SAPE  C21518505   2.891   2.981   3.686  0.1895  0.1730 -0.4924
  165SAPE  H15R18506   2.985   2.959   3.739 -1.6196 -1.8114  2.1499
  165SAPE  C21618507   2.773   2.904   3.749  0.2656 -0.1572  0.1000
  165SAPE  H16R18508   2.782   2.794   3.736  3.1132  0.0884 -0.5923
  165SAPE  H16S18509   2.678   2.935   3.699  1.5932  0.2934 -2.2724
  165SAPE  C21718510   2.762   2.934   3.898  0.3410 -0.6944  0.4740
  165SAPE  H17R18511   2.721   3.036   3.909 -0.6870 -1.2118  1.7063
  165SAPE  H17S18512   2.861   2.921   3.947 -0.1472 -0.7937  1.4593
  165SAPE  C21818513   2.665   2.841   3.973 -0.0219 -0.6546 -0.7798
  165SAPE  H18R18514   2.701   2.736   3.964 -0.2341 -0.6803 -1.3505
  165SAPE  H18S18515   2.563   2.857   3.933  0.7505  0.4153 -2.4267
  165SAPE  C21918516   2.654   2.878   4.123 -0.1717  0.1130  0.5654
  165SAPE  H19R18517   2.623   2.984   4.123  1.4061  0.7757 -3.4410
  165SAPE  H19S18518   2.751   2.861   4.176  0.3660  0.8563 -0.1574
  165SAPE  C22018519   2.552   2.799   4.195 -0.1156  0.5815  0.0650
  165SAPE  H20R18520   2.456   2.836   4.153 -0.6631  0.1629  0.9243
  165SAPE  H20S18521   2.551   2.822   4.304 -1.0771 -0.6628  0.3473
  165SAPE  H20T18522   2.554   2.688   4.182 -0.3655  0.0646  3.5643
  165SAPE   C3318523   3.261   2.954   2.958  0.4011  0.4443  0.2378
  165SAPE   H3X18524   3.368   2.952   2.927  0.3431  0.5260  0.0313
  165SAPE   H3Y18525   3.208   2.856   2.968  1.8241 -0.4318 -0.4879
  165SAPE   C3418526   3.260   3.016   3.095  0.5953  0.0693 -0.4333
  165SAPE   H4X18527   3.155   3.048   3.106  0.6015 -0.6921  3.0796
  165SAPE   H4Y18528   3.328   3.104   3.090  0.7343  0.0546  0.7867
  165SAPE   C3518529   3.293   2.925   3.217  0.6443  0.2649  0.6837
  165SAPE   H5X18530   3.398   2.891   3.207  1.3391  2.0329  1.4648
  165SAPE   H5Y18531   3.238   2.831   3.235 -0.6809  0.7018 -0.8150
  165SAPE   C3618532   3.305   3.012   3.348  0.7807 -0.3809  0.4320
  165SAPE   H6X18533   3.232   3.094   3.333  1.0386 -0.1610  0.3653
  165SAPE   H6Y18534   3.405   3.060   3.356  1.0138 -0.5876 -1.0157
  165SAPE   C3718535   3.284   2.936   3.476  0.1427 -0.4302  0.1206
  165SAPE   H7X18536   3.352   2.849   3.481  1.3799  0.5632  2.3524
  165SAPE   H7Y18537   3.177   2.908   3.476 -0.0229  0.1729 -0.5197
  165SAPE   C3818538   3.308   3.037   3.601 -0.1145  0.7696  0.5825
  165SAPE   H8X18539   3.228   3.108   3.569  0.5939  1.8188  1.1098
  165SAPE   H8Y18540   3.409   3.082   3.606  1.1858 -1.8935 -0.1379
  165SAPE   C3918541   3.275   2.976   3.740 -0.3122  0.3039  0.1237
  165SAPE   H9X18542   3.359   2.913   3.775 -2.9938 -2.9614  1.2669
  165SAPE   H9Y18543   3.190   2.907   3.719  1.5019 -1.4701 -1.9092
  165SAPE  C31018544   3.244   3.074   3.856  0.1831  0.4817  0.1208
  165SAPE  H10X18545   3.161   3.140   3.824 -1.3655 -0.9681  0.9754
  165SAPE  H10Y18546   3.329   3.146   3.864  0.3915  0.0559  2.9064
  165SAPE  C31118547   3.197   3.004   3.988  0.0766  0.0679  0.2317
  165SAPE  H11X18548   3.117   2.928   3.975 -0.6658  0.7900  0.4690
  165SAPE  H11Y18549   3.169   3.085   4.060  1.2652 -0.6803  1.5766
  165SAPE  C31218550   3.325   2.950   4.056  0.2187 -0.1592  0.4084
  165SAPE  H12X18551   3.382   3.045   4.058 -2.2658  1.4052  2.0623
  165SAPE  H12Y18552   3.375   2.866   4.002 -0.9457  0.9217 -2.5425
  165SAPE  C31318553   3.296   2.917   4.201  0.1123 -0.0712 -0.1799
  165SAPE  H13X18554   3.196   2.872   4.215 -0.0656  0.8897  2.2725
  165SAPE  H13Y18555   3.297   3.010   4.263 -0.0165 -0.3489  0.2426
  165SAPE  C31418556   3.404   2.819   4.257  0.1409 -0.2213  0.1034
  165SAPE  H14X18557   3.503   2.867   4.241  0.8996 -1.1874  1.6919
  165SAPE  H14Y18558   3.401   2.721   4.205  1.7908 -1.6538  2.5173
  165SAPE  C31518559   3.388   2.814   4.408 -0.3302  0.0696 -0.0073
  165SAPE  H15X18560   3.459   2.741   4.451  3.1093  1.6766 -2.4748
  165SAPE  H15Y18561   3.288   2.783   4.443  0.0905 -1.6060 -0.2011
  165SAPE  C31618562   3.410   2.953   4.476 -0.7256  0.5054 -0.0831
  165SAPE  H16X18563   3.331   3.026   4.449  1.8610  3.2056 -0.8724
  165SAPE  H16Y18564   3.498   3.007   4.437  0.9416 -2.3322 -0.5619
  165SAPE  C31718565   3.418   2.955   4.632  0.5756  0.5094  0.0420
  165SAPE  H17X18566   3.520   2.917   4.654 -0.1365 -1.1959  0.5475
  165SAPE  H17Y18567   3.337   2.894   4.678  2.4459  0.1331  3.0563
  165SAPE  C31818568   3.431   3.103   4.689 -0.7154 -0.1625  0.0752
  165SAPE  H18X18569   3.442   3.086   4.798 -0.8022 -0.6363  0.0114
  165SAPE  H18Y18570   3.334   3.154   4.666 -1.6820 -1.5412  0.9665
  165SAPE  H18Z18571   3.513   3.163   4.643 -0.9566  1.1499  1.2816
  166SAPE     N18572   0.229   4.645   2.007  0.0141  0.0477  0.8248
  166SAPE   HN118573   0.215   4.743   1.974  0.3247 -0.5240 -1.0955
  166SAPE   HN218574   0.317   4.614   1.962 -1.4064  1.7378 -3.6637
  166SAPE   HN318575   0.152   4.587   1.967 -0.9461 -0.5855  3.3765
  166SAPE   C1218576   0.225   4.636   2.161  0.3006  0.2943  0.2632
  166SAPE  H12A18577   0.306   4.702   2.198  2.2025 -1.4970 -0.5122
  166SAPE  H12B18578   0.253   4.533   2.192  0.9993  0.7592  1.2059
  166SAPE   C1118579   0.082   4.678   2.214 -0.2006 -0.5941  0.1308
  166SAPE  H11A18580   0.096   4.679   2.324  0.7179  0.1226  0.0198
  166SAPE  H11B18581   0.019   4.589   2.190  1.5631 -1.4405 -1.6050
  166SAPE     P18582  -0.116   4.821   2.116 -0.4375  0.2737  0.1398
  166SAPE   O1318583  -0.134   4.941   2.030 -0.1026  0.1857 -0.1139
  166SAPE   O1418584  -0.159   4.692   2.054 -0.3307 -0.0024  0.2232
  166SAPE   O1218585   0.034   4.806   2.156 -0.1153  0.6882 -0.3157
  166SAPE   O1118586  -0.186   4.829   2.257  0.1275 -0.7653  0.0846
  166SAPE    C118587  -0.137   4.927   2.353 -0.2055  0.8005  0.5562
  166SAPE    HA18588  -0.026   4.926   2.354 -0.1893 -1.4073  1.6922
  166SAPE    HB18589  -0.164   5.026   2.310 -0.5412  0.8830  0.9495
  166SAPE    C218590  -0.199   4.912   2.496  0.1223  0.8276 -0.6432
  166SAPE    HS18591  -0.189   5.010   2.548  0.1950  1.4750 -1.8379
  166SAPE   O2118592  -0.115   4.833   2.577 -0.1730  0.1052  0.0622
  166SAPE   C2118593  -0.108   4.699   2.557 -0.6972 -0.1094 -0.4261
  166SAPE   O2218594  -0.179   4.629   2.486 -0.4850 -0.2112 -0.6608
  166SAPE   C2218595   0.006   4.659   2.648  0.1729 -0.0861  0.1436
  166SAPE   H2R18596   0.101   4.690   2.602  1.0007 -0.1805  1.7034
  166SAPE   H2S18597  -0.011   4.694   2.752 -0.9200 -0.1965  0.0146
  166SAPE    C318598  -0.348   4.876   2.516  0.2813  0.2291 -0.0350
  166SAPE    HX18599  -0.371   4.780   2.466 -0.2430  0.8275 -0.9848
  166SAPE    HY18600  -0.396   4.954   2.452  1.0215  0.3958 -0.4005
  166SAPE   O3118601  -0.382   4.881   2.658  0.3485  0.6800  0.5340
  166SAPE   C3118602  -0.508   4.848   2.675  0.4965 -0.9286  0.1387
  166SAPE   O3218603  -0.593   4.830   2.590 -0.0434 -0.2250 -0.1695
  166SAPE   C3218604  -0.542   4.848   2.822  0.2905 -0.7264 -0.1616
  166SAPE   H2X18605  -0.450   4.827   2.882  1.7379  1.3792 -1.5141
  166SAPE   H2Y18606  -0.611   4.761   2.830 -1.2352  0.3235 -1.4325
  166SAPE   C2318607   0.007   4.503   2.678 -0.6498  0.1631 -0.3303
  166SAPE   H3R18608   0.044   4.458   2.584 -2.9268  0.2206 -1.3007
  166SAPE   H3S18609  -0.095   4.467   2.702 -0.4897  0.9933  1.7953
  166SAPE   C2418610   0.103   4.463   2.789 -0.1703  0.0745  0.4325
  166SAPE   H4R18611   0.093   4.530   2.877 -0.5842  0.7387 -0.1098
  166SAPE   H4S18612   0.198   4.489   2.739 -0.9513  0.6762 -0.7917
  166SAPE   C2518613   0.111   4.317   2.820 -0.3064  0.1857 -1.2304
  166SAPE   H5R18614   0.152   4.251   2.742  0.6525 -0.6145 -0.0844
  166SAPE   C2618615   0.071   4.258   2.935 -0.3129 -0.5409 -0.4881
  166SAPE   H6R18616   0.102   4.153   2.949 -2.7382 -0.9445  3.1132
  166SAPE   C2718617   0.026   4.336   3.058 -0.0209  0.7568  0.0766
  166SAPE   H7R18618  -0.018   4.431   3.021  1.4900  1.3770 -0.1985
  166SAPE   H7S18619   0.114   4.372   3.116  0.5704 -0.1543 -0.2364
  166SAPE   C2818620  -0.082   4.264   3.142 -0.6952  0.2727  0.8188
  166SAPE   H8R18621  -0.146   4.189   3.094  2.8083 -1.7878 -0.9740
  166SAPE   C2918622  -0.107   4.284   3.271 -1.4367  0.5792  0.2357
  166SAPE   H9R18623  -0.178   4.217   3.323  0.4901 -0.4538  1.6375
  166SAPE  C21018624  -0.031   4.384   3.360  0.4390  0.2698  0.7317
  166SAPE  H10R18625   0.045   4.455   3.320 -2.0609  2.3760 -0.5383
  166SAPE  H10S18626   0.025   4.327   3.438 -1.8550 -2.3746  0.6117
  166SAPE  C21118627  -0.143   4.475   3.413  0.6122  0.6432  0.4729
  166SAPE  H11R18628  -0.171   4.564   3.355 -0.5536 -0.2132 -0.3216
  166SAPE  C21218629  -0.187   4.477   3.545  0.3227 -0.2190  0.2745
  166SAPE  H12R18630  -0.271   4.545   3.566 -1.4763 -2.2268 -0.1157
  166SAPE  C21318631  -0.154   4.389   3.666  0.7073 -0.2129 -0.2312
  166SAPE  H13R18632  -0.194   4.432   3.760 -0.6772 -2.5989  0.3615
  166SAPE  H13S18633  -0.044   4.389   3.676  0.6863  0.7697  0.1300
  166SAPE  C21418634  -0.203   4.246   3.642  0.4276 -0.9297  0.1140
  166SAPE  H14R18635  -0.202   4.225   3.534  0.3203 -2.6969  0.4171
  166SAPE  C21518636  -0.229   4.152   3.739  0.4808 -0.0353  0.0095
  166SAPE  H15R18637  -0.267   4.055   3.705  0.2247  0.7800 -2.1824
  166SAPE  C21618638  -0.216   4.171   3.886  0.1527 -0.4871 -0.0840
  166SAPE  H16R18639  -0.229   4.276   3.920 -1.5030 -0.7535  0.2212
  166SAPE  H16S18640  -0.114   4.150   3.924  0.8493  1.0343 -1.0245
  166SAPE  C21718641  -0.315   4.090   3.969  0.5740 -0.9563 -0.5407
  166SAPE  H17R18642  -0.323   3.987   3.928 -1.2124 -1.0776  0.0286
  166SAPE  H17S18643  -0.419   4.125   3.948  0.9616  0.6497  0.0793
  166SAPE  C21818644  -0.282   4.082   4.122 -0.2204 -0.0103 -0.9454
  166SAPE  H18R18645  -0.315   4.172   4.178 -0.5025  0.6828 -2.2023
  166SAPE  H18S18646  -0.172   4.073   4.133 -0.4656 -0.0689  2.6470
  166SAPE  C21918647  -0.358   3.974   4.195 -0.2892 -0.0394  1.1460
  166SAPE  H19R18648  -0.350   3.875   4.147  0.9922  1.3684 -1.7624
  166SAPE  H19S18649  -0.466   3.997   4.179  0.0445 -0.9590 -3.8652
  166SAPE  C22018650  -0.320   3.966   4.340 -0.5927  0.1372  0.2463
  166SAPE  H20R18651  -0.336   4.064   4.389  0.7537 -0.3836  1.8386
  166SAPE  H20S18652  -0.213   3.937   4.353 -1.2562 -1.9972  1.5204
  166SAPE  H20T18653  -0.382   3.892   4.395  0.3231 -0.7447  0.1417
  166SAPE   C3318654  -0.615   4.974   2.879  0.5090  0.0422 -0.3605
  166SAPE   H3X18655  -0.723   4.950   2.873  0.0196  1.7844  0.8617
  166SAPE   H3Y18656  -0.592   5.071   2.831  1.2589  0.5237  0.9385
  166SAPE   C3418657  -0.596   4.992   3.034 -0.2681  0.1406 -1.1153
  166SAPE   H4X18658  -0.646   4.912   3.094  0.6841  1.2683  1.2967
  166SAPE   H4Y18659  -0.637   5.090   3.064  0.3789  1.4301 -4.1286
  166SAPE   C3518660  -0.451   5.008   3.084  0.1358 -0.2261 -0.2023
  166SAPE   H5X18661  -0.388   5.054   3.004 -0.6881  3.6867  1.1830
  166SAPE   H5Y18662  -0.412   4.904   3.081  2.4279  0.5778 -0.3828
  166SAPE   C3618663  -0.442   5.087   3.223  0.0889  0.8351 -0.3559
  166SAPE   H6X18664  -0.489   5.187   3.219 -1.7156  0.1576  1.7389
  166SAPE   H6Y18665  -0.335   5.102   3.248  0.6038  0.3516 -2.1175
  166SAPE   C3718666  -0.510   5.016   3.341  0.3963  0.7203 -0.2169
  166SAPE   H7X18667  -0.470   4.914   3.354 -1.3055  0.0477  0.0177
  166SAPE   H7Y18668  -0.621   5.020   3.328  0.3354  4.0194  0.4768
  166SAPE   C3818669  -0.469   5.082   3.474  0.1781  0.1171  0.4750
  166SAPE   H8X18670  -0.507   5.185   3.458  3.0554  1.0004 -1.2956
  166SAPE   H8Y18671  -0.358   5.084   3.474  0.2832 -0.9953 -2.4396
  166SAPE   C3918672  -0.516   5.020   3.602  0.1639  0.5499  0.1278
  166SAPE   H9X18673  -0.473   4.919   3.623 -0.0810 -0.1104 -2.2593
  166SAPE   H9Y18674  -0.624   4.992   3.601  0.2941 -0.0596 -2.4717
  166SAPE  C31018675  -0.483   5.113   3.730 -0.7510  0.2965 -0.1841
  166SAPE  H10X18676  -0.553   5.199   3.717 -1.0205  0.0407 -0.4468
  166SAPE  H10Y18677  -0.383   5.157   3.711  0.6866 -2.0912  1.3014
  166SAPE  C31118678  -0.490   5.052   3.872  0.3196 -0.6272 -0.3145
  166SAPE  H11X18679  -0.413   4.975   3.895  1.5268  0.2036 -1.4301
  166SAPE  H11Y18680  -0.590   5.003   3.867 -1.0468  1.8726  0.6575
  166SAPE  C31218681  -0.482   5.163   3.975  0.2072 -0.8459  0.3623
  166SAPE  H12X18682  -0.543   5.254   3.952  0.2474 -0.5374  1.3934
  166SAPE  H12Y18683  -0.376   5.193   3.985  0.2524 -1.0872  0.6039
  166SAPE  C31318684  -0.519   5.111   4.107  0.2458  0.6520  0.1715
  166SAPE  H13X18685  -0.614   5.054   4.099 -1.1558  3.0894 -2.6998
  166SAPE  H13Y18686  -0.550   5.196   4.173 -0.9681 -0.3699  0.9631
  166SAPE  C31418687  -0.403   5.044   4.178 -0.3838  0.4663  0.5297
  166SAPE  H14X18688  -0.314   5.112   4.183  0.1428 -0.1443 -0.3142
  166SAPE  H14Y18689  -0.362   4.966   4.112  1.5023  2.7250 -1.1594
  166SAPE  C31518690  -0.442   4.978   4.308 -0.5919 -0.4080 -0.1452
  166SAPE  H15X18691  -0.525   4.910   4.280 -1.9178  0.8705  0.5523
  166SAPE  H15Y18692  -0.466   5.067   4.370 -0.2247  0.0013 -0.5847
  166SAPE  C31618693  -0.332   4.903   4.382  0.8951 -0.0574 -0.5622
  166SAPE  H16X18694  -0.252   4.973   4.413  3.0172 -1.1552 -3.0718
  166SAPE  H16Y18695  -0.298   4.827   4.308 -1.6888 -1.5099 -0.3635
  166SAPE  C31718696  -0.403   4.838   4.506  0.0740 -0.3655 -0.0971
  166SAPE  H17X18697  -0.470   4.756   4.474  0.5245 -0.8369  0.1470
  166SAPE  H17Y18698  -0.464   4.920   4.549 -0.4662 -0.2853 -0.9869
  166SAPE  C31818699  -0.322   4.767   4.617 -0.0883  0.5370 -0.4605
  166SAPE  H18X18700  -0.241   4.825   4.666 -0.4127 -1.4453  2.6780
  166SAPE  H18Y18701  -0.273   4.674   4.580 -1.3531 -0.0952 -0.5866
  166SAPE  H18Z18702  -0.394   4.730   4.693 -0.4574  4.2849  1.2385
  167SAPE     N18703   5.334   3.321   2.302  0.7474  0.4999  0.0373
  167SAPE   HN118704   5.338   3.284   2.206  0.2117  1.5681 -0.4149
  167SAPE   HN218705   5.319   3.235   2.358 -0.2212  0.2461 -0.6006
  167SAPE   HN318706   5.246   3.377   2.306 -1.6823 -2.8387 -1.8348
  167SAPE   C1218707   5.463   3.392   2.324  0.5117 -0.8744 -0.4254
  167SAPE  H12A18708   5.459   3.424   2.431 -3.8414 -0.8180 -0.4539
  167SAPE  H12B18709   5.465   3.474   2.249  0.3164  0.6591  1.1793
  167SAPE   C1118710   5.582   3.300   2.298  0.8999  0.3331  0.2072
  167SAPE  H11A18711   5.679   3.352   2.313  1.7578 -0.3025 -2.4780
  167SAPE  H11B18712   5.564   3.256   2.198  1.3846 -0.8856  0.6393
  167SAPE     P18713   5.678   3.066   2.376  0.5225  0.1838 -0.2386
  167SAPE   O1318714   5.592   2.955   2.343 -0.1411  0.8068 -0.3378
  167SAPE   O1418715   5.783   3.088   2.268  0.3672 -0.3780  0.0543
  167SAPE   O1218716   5.577   3.184   2.387 -0.7072  0.4189  0.1684
  167SAPE   O1118717   5.735   3.047   2.515 -0.0134  0.0263 -0.4757
  167SAPE    C118718   5.661   3.018   2.633 -0.0321  0.6132  0.6256
  167SAPE    HA18719   5.570   2.957   2.614 -0.1710  1.1697 -0.5972
  167SAPE    HB18720   5.726   2.952   2.694 -2.0679 -2.2306 -0.1190
  167SAPE    C218721   5.623   3.149   2.706 -0.4556  0.0237 -0.5982
  167SAPE    HS18722   5.578   3.210   2.625 -0.2198 -1.0695 -1.5744
  167SAPE   O2118723   5.745   3.197   2.757 -0.1344 -0.9191  0.2625
  167SAPE   C2118724   5.753   3.331   2.769  0.7874  0.4592  0.3124
  167SAPE   O2218725   5.659   3.403   2.738 -0.5812 -0.0308  0.6615
  167SAPE   C2218726   5.888   3.374   2.811  0.3151 -0.0034 -0.7964
  167SAPE   H2R18727   5.935   3.280   2.847  0.4268  0.5348  0.5280
  167SAPE   H2S18728   5.946   3.413   2.725 -0.2267 -1.5946 -1.9185
  167SAPE    C318729   5.521   3.128   2.823  1.0524  0.3256 -0.5458
  167SAPE    HX18730   5.422   3.126   2.772  0.1576 -1.5373  1.1516
  167SAPE    HY18731   5.518   3.215   2.892 -0.5278 -1.6632  2.0457
  167SAPE   O3118732   5.548   3.005   2.889  0.4856 -0.0542  0.3053
  167SAPE   C3118733   5.473   2.975   2.980  0.1585 -0.2213 -0.4638
  167SAPE   O3218734   5.377   3.035   3.026 -0.0350  0.5127 -0.4211
  167SAPE   C3218735   5.531   2.848   3.051 -0.9810  1.2915 -0.1284
  167SAPE   H2X18736   5.616   2.891   3.107 -0.2074  0.5008 -0.6630
  167SAPE   H2Y18737   5.553   2.777   2.969 -1.3742 -3.0893  3.1801
  167SAPE   C2318738   5.891   3.478   2.927  0.1911  0.3085 -0.6249
  167SAPE   H3R18739   5.837   3.565   2.883 -0.8153 -0.3638 -0.7370
  167SAPE   H3S18740   5.994   3.508   2.957 -0.1787  1.1008 -0.0693
  167SAPE   C2418741   5.815   3.431   3.051  0.3771 -0.5675 -0.0762
  167SAPE   H4R18742   5.714   3.401   3.017  1.3206 -2.1470 -1.6527
  167SAPE   H4S18743   5.817   3.517   3.122 -0.7257 -1.2991  0.8881
  167SAPE   C2518744   5.897   3.315   3.110 -0.0613 -0.1786  0.5092
  167SAPE   H5R18745   5.995   3.292   3.066  0.4239  0.6790  1.1094
  167SAPE   C2618746   5.863   3.259   3.228  0.3974 -0.6302  0.5039
  167SAPE   H6R18747   5.928   3.176   3.261 -0.3338 -1.6813 -0.6226
  167SAPE   C2718748   5.738   3.282   3.308 -0.3918 -0.3305 -0.3183
  167SAPE   H7R18749   5.714   3.390   3.303  1.2572  0.0288 -1.3360
  167SAPE   H7S18750   5.780   3.257   3.408  0.3974  1.0763 -0.2726
  167SAPE   C2818751   5.601   3.224   3.281 -0.3906 -0.5735 -0.0567
  167SAPE   H8R18752   5.539   3.275   3.205 -3.7168 -0.8965  2.2098
  167SAPE   C2918753   5.541   3.118   3.340 -0.5013  0.1901 -0.3587
  167SAPE   H9R18754   5.441   3.101   3.298 -0.2769  2.0990 -1.8027
  167SAPE  C21018755   5.593   3.025   3.448  0.2841 -0.2189  0.9131
  167SAPE  H10R18756   5.686   3.069   3.490  0.8443  0.1752 -0.6546
  167SAPE  H10S18757   5.614   2.928   3.399 -0.6120 -0.2242  0.5188
  167SAPE  C21118758   5.493   2.990   3.554  0.1902 -0.0305  0.2392
  167SAPE  H11R18759   5.394   2.970   3.511  0.4789 -1.5605  0.2201
  167SAPE  C21218760   5.507   3.037   3.679 -0.3744 -0.0154 -0.3047
  167SAPE  H12R18761   5.438   3.003   3.759  0.2200  2.2533  1.2711
  167SAPE  C21318762   5.629   3.090   3.747 -0.0446 -0.2956 -0.1176
  167SAPE  H13R18763   5.722   3.037   3.718  0.9017  0.1429  1.9590
  167SAPE  H13S18764   5.620   3.087   3.858 -1.5011 -1.1294 -0.2250
  167SAPE  C21418765   5.643   3.230   3.701 -0.8006 -0.7812  0.6667
  167SAPE  H14R18766   5.602   3.253   3.602  2.0449 -0.2530 -0.5013
  167SAPE  C21518767   5.684   3.332   3.777 -0.0656  0.0091  0.2900
  167SAPE  H15R18768   5.677   3.428   3.725 -3.8950  0.9634  2.1234
  167SAPE  C21618769   5.733   3.331   3.918 -0.0232  0.2028  0.0418
  167SAPE  H16R18770   5.813   3.408   3.917 -0.1746  0.3620 -0.4192
  167SAPE  H16S18771   5.771   3.234   3.954 -1.3431 -0.8025 -1.1186
  167SAPE  C21718772   5.616   3.384   3.998 -0.6295 -0.0090  0.0978
  167SAPE  H17R18773   5.521   3.328   4.008 -2.0143  2.4509  2.0879
  167SAPE  H17S18774   5.592   3.487   3.964  0.8905  0.7802  1.2536
  167SAPE  C21818775   5.666   3.380   4.145 -0.0540 -0.3994 -0.2176
  167SAPE  H18R18776   5.751   3.451   4.152  0.5725 -1.1205 -0.2962
  167SAPE  H18S18777   5.711   3.282   4.175  5.0358  2.7044  4.1067
  167SAPE  C21918778   5.547   3.406   4.242 -0.3071 -0.6250 -0.8861
  167SAPE  H19R18779   5.463   3.338   4.214 -1.8135  0.4713  0.7470
  167SAPE  H19S18780   5.521   3.513   4.234 -1.9782 -0.7643  1.4462
  167SAPE  C22018781   5.583   3.384   4.391  0.0943 -0.1577 -0.6084
  167SAPE  H20R18782   5.694   3.377   4.394  0.1639 -1.5261 -3.1793
  167SAPE  H20S18783   5.545   3.284   4.422  1.0173 -1.4847 -3.3994
  167SAPE  H20T18784   5.544   3.464   4.457 -1.6442  0.0437 -1.8071
  167SAPE   C3318785   5.428   2.779   3.154 -0.0061  0.1647 -0.1137
  167SAPE   H3X18786   5.340   2.734   3.102 -1.3961  0.7167  1.6715
  167SAPE   H3Y18787   5.382   2.860   3.214 -1.0194  0.0047 -0.6470
  167SAPE   C3418788   5.507   2.678   3.243 -0.2167 -0.0612  0.1066
  167SAPE   H4X18789   5.596   2.718   3.296  0.5531 -0.1807 -1.0800
  167SAPE   H4Y18790   5.531   2.586   3.185 -0.5357 -0.4931  0.6452
  167SAPE   C3518791   5.415   2.624   3.357 -0.1287 -0.2390  0.2729
  167SAPE   H5X18792   5.307   2.617   3.332 -0.3363  2.5003  0.1720
  167SAPE   H5Y18793   5.424   2.705   3.433  2.1973 -0.3527  0.1788
  167SAPE   C3618794   5.473   2.498   3.416  1.2046  0.6419  0.0140
  167SAPE   H6X18795   5.583   2.507   3.426  1.2206  0.4402  0.0455
  167SAPE   H6Y18796   5.457   2.418   3.340 -1.3360  1.8382 -0.8260
  167SAPE   C3718797   5.409   2.460   3.556 -0.1923  0.1679 -0.3209
  167SAPE   H7X18798   5.315   2.403   3.545 -0.8470  0.9982  0.7743
  167SAPE   H7Y18799   5.383   2.554   3.609 -0.8519 -0.9268  1.3745
  167SAPE   C3818800   5.482   2.371   3.663 -0.3110 -0.0380 -0.2879
  167SAPE   H8X18801   5.585   2.402   3.691 -0.3620  1.9244 -2.0312
  167SAPE   H8Y18802   5.481   2.265   3.632 -2.0513  0.1173 -0.8888
  167SAPE   C3918803   5.387   2.368   3.782  0.8271 -0.9455  0.3099
  167SAPE   H9X18804   5.285   2.336   3.751  0.9974 -1.6530  0.4547
  167SAPE   H9Y18805   5.369   2.471   3.821 -2.4625  0.2846 -3.7335
  167SAPE  C31018806   5.422   2.276   3.895 -0.1480 -0.3198 -0.8286
  167SAPE  H10X18807   5.522   2.305   3.933 -0.0584 -1.0262 -0.5181
  167SAPE  H10Y18808   5.430   2.171   3.860 -0.2519 -0.6344  0.0824
  167SAPE  C31118809   5.319   2.288   4.015 -0.1453 -0.1556 -0.1358
  167SAPE  H11X18810   5.215   2.284   3.976 -0.4255  1.9993  0.2364
  167SAPE  H11Y18811   5.335   2.383   4.070 -1.4521  0.7964 -1.3176
  167SAPE  C31218812   5.320   2.178   4.118 -0.0881 -0.5689 -0.1653
  167SAPE  H12X18813   5.235   2.187   4.189  0.9798 -1.3772  1.2786
  167SAPE  H12Y18814   5.409   2.197   4.182  0.0114 -0.3012 -0.3768
  167SAPE  C31318815   5.314   2.039   4.072 -0.4141  1.3081  0.0515
  167SAPE  H13X18816   5.384   2.031   3.986 -0.7044  0.5921 -0.1269
  167SAPE  H13Y18817   5.213   2.018   4.032  0.8115 -0.7544 -2.2212
  167SAPE  C31418818   5.338   1.936   4.189  0.7634 -0.1765 -0.0198
  167SAPE  H14X18819   5.268   1.960   4.272  2.0716  2.9419  0.3336
  167SAPE  H14Y18820   5.438   1.963   4.229  0.2556  0.7570  0.6927
  167SAPE  C31518821   5.338   1.789   4.149  0.5017 -0.0084  0.1304
  167SAPE  H15X18822   5.239   1.758   4.110  0.6530  0.3723 -0.5704
  167SAPE  H15Y18823   5.349   1.732   4.244 -0.0317 -0.0491  0.1709
  167SAPE  C31618824   5.451   1.759   4.053 -0.1080 -0.4409 -1.1408
  167SAPE  H16X18825   5.539   1.801   4.106 -1.7532  1.5329  0.2158
  167SAPE  H16Y18826   5.436   1.820   3.961 -0.5120  0.8398 -0.2516
  167SAPE  C31718827   5.468   1.610   4.022 -0.6956  0.2007 -0.4271
  167SAPE  H17X18828   5.530   1.601   3.930 -0.1621 -0.0586 -0.0526
  167SAPE  H17Y18829   5.364   1.584   3.996 -1.2809  0.5570  1.4236
  167SAPE  C31818830   5.517   1.533   4.143 -0.3229  0.2501  0.0891
  167SAPE  H18X18831   5.609   1.581   4.183  0.3050  0.3329 -1.3846
  167SAPE  H18Y18832   5.543   1.426   4.128  1.0073  0.0228  3.1718
  167SAPE  H18Z18833   5.442   1.521   4.224  0.7154 -0.7360  0.9341
  168SAPE     N18834   2.876   3.972   2.218  0.1714 -0.5157 -0.0048
  168SAPE   HN118835   2.936   4.041   2.169  0.0060  0.7456  1.5145
  168SAPE   HN218836   2.857   4.029   2.302  1.6977 -0.0957  0.0708
  168SAPE   HN318837   2.942   3.895   2.241 -0.1297 -0.3873  1.3522
  168SAPE   C1218838   2.749   3.945   2.143  0.0260 -0.2194  0.1431
  168SAPE  H12A18839   2.687   3.882   2.210 -0.4669 -1.7053 -1.6434
  168SAPE  H12B18840   2.769   3.895   2.046 -1.4629  0.1061 -0.3581
  168SAPE   C1118841   2.682   4.078   2.096  0.3315 -0.4192 -0.7833
  168SAPE  H11A18842   2.600   4.057   2.024  1.2475 -0.3550 -1.8655
  168SAPE  H11B18843   2.757   4.133   2.035  2.5160 -0.9687  1.2823
  168SAPE     P18844   2.703   4.298   2.236  0.1560 -0.1425  0.1499
  168SAPE   O1318845   2.844   4.271   2.276  0.1108  0.0071  0.3442
  168SAPE   O1418846   2.686   4.391   2.120 -0.7885 -0.3048 -0.0696
  168SAPE   O1218847   2.640   4.155   2.209  0.1807  0.1587 -0.2446
  168SAPE   O1118848   2.618   4.352   2.356  0.4625  1.0515 -0.3722
  168SAPE    C118849   2.481   4.324   2.369 -0.8901  0.8211  0.0854
  168SAPE    HA18850   2.424   4.337   2.274  0.4870 -0.3953 -0.9474
  168SAPE    HB18851   2.463   4.217   2.395 -0.9612  1.3341  2.3057
  168SAPE    C218852   2.414   4.395   2.483  0.0728 -0.1517 -0.1139
  168SAPE    HS18853   2.420   4.504   2.461  4.1780  0.2321  1.9363
  168SAPE   O2118854   2.489   4.358   2.598 -0.1224 -0.5570 -0.4493
  168SAPE   C2118855   2.491   4.451   2.688 -0.7305 -0.0191 -1.0525
  168SAPE   O2218856   2.455   4.567   2.672 -0.3201  0.1048 -0.3821
  168SAPE   C2218857   2.568   4.398   2.809  0.2334  0.2678 -0.3621
  168SAPE   H2R18858   2.515   4.311   2.855  1.5795 -1.3866 -1.8070
  168SAPE   H2S18859   2.668   4.363   2.778  1.0549  2.2530 -0.0970
  168SAPE    C318860   2.258   4.357   2.493  0.1434 -0.2243 -0.3246
  168SAPE    HX18861   2.262   4.247   2.513 -2.1561 -0.4420 -0.6950
  168SAPE    HY18862   2.223   4.365   2.387 -0.8969  0.1612  0.0380
  168SAPE   O3118863   2.182   4.418   2.601 -0.5161  0.0077  0.3888
  168SAPE   C3118864   2.155   4.544   2.566  0.3621 -0.1548 -0.0497
  168SAPE   O3218865   2.170   4.591   2.454 -0.3323 -0.0406 -0.4635
  168SAPE   C3218866   2.111   4.626   2.685  0.0958  0.1267 -0.3039
  168SAPE   H2X18867   2.000   4.629   2.686  0.1159  2.0576 -0.7422
  168SAPE   H2Y18868   2.142   4.729   2.660  0.2633 -0.2059 -1.5142
  168SAPE   C2318869   2.588   4.503   2.922 -0.8819 -0.0818 -0.1228
  168SAPE   H3R18870   2.507   4.579   2.926 -1.5222 -0.7765  1.4162
  168SAPE   H3S18871   2.682   4.552   2.890 -0.1163 -1.2969  0.2209
  168SAPE   C2418872   2.608   4.450   3.058 -0.5809  0.1649  0.1376
  168SAPE   H4R18873   2.521   4.392   3.097  0.7984 -1.2434  1.2194
  168SAPE   H4S18874   2.620   4.535   3.127 -2.1915  0.9466 -0.4955
  168SAPE   C2518875   2.736   4.362   3.073  0.1016 -0.0040  0.7071
  168SAPE   H5R18876   2.796   4.340   2.983 -0.3423 -0.9154  0.6208
  168SAPE   C2618877   2.774   4.294   3.186 -0.1680 -0.4006  0.1410
  168SAPE   H6R18878   2.874   4.248   3.190 -0.2861 -0.6884 -0.2035
  168SAPE   C2718879   2.698   4.308   3.319 -0.1881 -0.0240 -0.0528
  168SAPE   H7R18880   2.626   4.224   3.321  1.1856 -1.2205  0.6734
  168SAPE   H7S18881   2.639   4.401   3.328 -0.8158 -0.5469  1.4563
  168SAPE   C2818882   2.790   4.298   3.437 -0.2877  0.7610  0.0293
  168SAPE   H8R18883   2.896   4.308   3.413 -0.3735 -0.9298 -1.2179
  168SAPE   C2918884   2.751   4.284   3.557  0.0117  0.3471 -0.6753
  168SAPE   H9R18885   2.830   4.262   3.630  0.6222  1.6803 -0.9067
  168SAPE  C21018886   2.610   4.265   3.605  0.5093  0.0388  0.1208
  168SAPE  H10R18887   2.603   4.159   3.640 -1.2449  0.3023  0.6533
  168SAPE  H10S18888   2.540   4.288   3.522  0.4767 -1.5783 -0.3485
  168SAPE  C21118889   2.598   4.371   3.709 -0.0323 -0.3572  0.5697
  168SAPE  H11R18890   2.608   4.472   3.666  0.3792 -0.9991 -0.9039
  168SAPE  C21218891   2.583   4.359   3.836 -0.3027 -0.0385 -0.6659
  168SAPE  H12R18892   2.557   4.448   3.895  1.2827 -0.2248  0.3443
  168SAPE  C21318893   2.567   4.237   3.925 -1.4682  0.4098 -0.6202
  168SAPE  H13R18894   2.527   4.151   3.867  1.0485  0.0058 -1.9244
  168SAPE  H13S18895   2.496   4.255   4.008  0.1821 -0.2653  0.9958
  168SAPE  C21418896   2.700   4.195   3.988 -0.1057 -0.5599  0.2654
  168SAPE  H14R18897   2.791   4.206   3.927  2.0790 -0.6559  3.2765
  168SAPE  C21518898   2.719   4.137   4.105  0.6530  1.0836 -0.0906
  168SAPE  H15R18899   2.821   4.113   4.136 -0.8309 -3.4205  2.1183
  168SAPE  C21618900   2.606   4.108   4.207 -0.0980 -0.2728  0.2112
  168SAPE  H16R18901   2.645   4.043   4.288  1.5648  2.2785  1.6059
  168SAPE  H16S18902   2.521   4.059   4.156 -0.2744 -0.8705  1.0748
  168SAPE  C21718903   2.569   4.238   4.280  0.8105 -0.7894  0.1562
  168SAPE  H17R18904   2.510   4.302   4.212  1.1200  0.8872  1.4056
  168SAPE  H17S18905   2.660   4.295   4.307 -0.1747  0.3479  1.2211
  168SAPE  C21818906   2.490   4.210   4.410 -0.0913  0.0232 -0.3468
  168SAPE  H18R18907   2.547   4.156   4.488 -1.9967 -1.4794  0.0793
  168SAPE  H18S18908   2.403   4.148   4.379  1.9730 -2.1352 -2.2388
  168SAPE  C21918909   2.432   4.340   4.471 -0.2670 -0.1988 -0.9235
  168SAPE  H19R18910   2.346   4.380   4.413 -0.6633  0.4842  0.0959
  168SAPE  H19S18911   2.500   4.428   4.465 -0.7583  0.3000  0.4001
  168SAPE  C22018912   2.396   4.323   4.616 -0.0893  1.0846  0.3536
  168SAPE  H20R18913   2.303   4.261   4.615  0.1740  0.4735 -4.2605
  168SAPE  H20S18914   2.375   4.422   4.661 -2.8999  0.6360  0.2130
  168SAPE  H20T18915   2.480   4.268   4.666 -1.8623 -0.2263  2.0620
  168SAPE   C3318916   2.169   4.583   2.824  0.3527 -1.0250  0.0424
  168SAPE   H3X18917   2.267   4.633   2.838 -0.3629  0.1104  1.1869
  168SAPE   H3Y18918   2.197   4.476   2.831 -1.3504 -1.4540  0.7525
  168SAPE   C3418919   2.073   4.623   2.933  0.4547 -0.6519  0.4630
  168SAPE   H4X18920   1.992   4.547   2.930  0.4022 -0.6307  1.0789
  168SAPE   H4Y18921   2.030   4.722   2.908  1.0347  0.2548  2.7859
  168SAPE   C3518922   2.144   4.621   3.066 -0.0108 -0.0676  0.2939
  168SAPE   H5X18923   2.093   4.684   3.142  0.0939 -0.8214  0.9990
  168SAPE   H5Y18924   2.249   4.657   3.058  0.6022 -1.5156  1.4440
  168SAPE   C3618925   2.149   4.472   3.126 -0.8920  0.3422 -0.0491
  168SAPE   H6X18926   2.194   4.414   3.043 -1.5072 -1.1124  0.6159
  168SAPE   H6Y18927   2.046   4.440   3.153  0.0776 -1.5626  1.6728
  168SAPE   C3718928   2.240   4.460   3.251  0.6776  0.0235 -0.2590
  168SAPE   H7X18929   2.331   4.521   3.234  0.8947  0.0839  1.0674
  168SAPE   H7Y18930   2.279   4.357   3.262  3.0518  0.8499 -0.3477
  168SAPE   C3818931   2.180   4.517   3.383 -0.0548 -0.3771 -0.3198
  168SAPE   H8X18932   2.086   4.464   3.408 -0.4855 -0.0346 -1.1508
  168SAPE   H8Y18933   2.151   4.624   3.370 -1.9111 -0.6834  0.9550
  168SAPE   C3918934   2.256   4.493   3.510 -0.2125 -1.0192 -0.2934
  168SAPE   H9X18935   2.357   4.534   3.489 -0.8864  0.4079 -0.8722
  168SAPE   H9Y18936   2.266   4.384   3.530 -2.4168 -1.0196  1.1057
  168SAPE  C31018937   2.195   4.565   3.638 -0.2968  0.1695  0.4343
  168SAPE  H10X18938   2.108   4.505   3.671 -1.2875  1.8280  0.9595
  168SAPE  H10Y18939   2.166   4.672   3.628  0.9826  0.6085  1.0916
  168SAPE  C31118940   2.300   4.546   3.748  0.6039  0.1728  0.0489
  168SAPE  H11X18941   2.387   4.614   3.742 -0.7056  1.8443 -1.1878
  168SAPE  H11Y18942   2.329   4.443   3.777 -1.9711 -0.4902  0.5745
  168SAPE  C31218943   2.231   4.593   3.875  0.4598  0.1362 -0.5496
  168SAPE  H12X18944   2.139   4.531   3.872  1.1476 -0.8879 -1.4100
  168SAPE  H12Y18945   2.207   4.702   3.869 -1.0716 -0.0898  0.7654
  168SAPE  C31318946   2.309   4.568   4.009 -0.3749  0.6593  0.5110
  168SAPE  H13X18947   2.373   4.657   4.022 -0.9111  1.0410  0.5494
  168SAPE  H13Y18948   2.364   4.474   3.986 -0.7399  0.7893 -1.0260
  168SAPE  C31418949   2.215   4.552   4.126  0.3210  0.3361 -0.0957
  168SAPE  H14X18950   2.285   4.545   4.213 -0.2976 -1.0418  0.3224
  168SAPE  H14Y18951   2.140   4.471   4.118  1.8081 -0.8960 -3.9347
  168SAPE  C31518952   2.127   4.676   4.143 -0.0682 -0.0502  0.3164
  168SAPE  H15X18953   2.056   4.685   4.058 -1.3174 -0.3011  1.3004
  168SAPE  H15Y18954   2.191   4.767   4.149  3.6769 -2.5324  1.7340
  168SAPE  C31618955   2.032   4.665   4.264 -0.0393  0.7534 -0.0136
  168SAPE  H16X18956   1.970   4.572   4.267 -1.1210  1.2117 -3.4059
  168SAPE  H16Y18957   1.959   4.748   4.269  0.6273  1.3030  0.6278
  168SAPE  C31718958   2.107   4.687   4.403  0.1792 -0.2509  0.6787
  168SAPE  H17X18959   2.170   4.597   4.417  1.6494  0.5786 -0.3049
  168SAPE  H17Y18960   2.032   4.678   4.484 -0.3493  0.7305  0.3273
  168SAPE  C31818961   2.188   4.816   4.427 -0.2912  0.1801  0.2678
  168SAPE  H18X18962   2.117   4.900   4.409 -1.9575 -0.8152  1.8524
  168SAPE  H18Y18963   2.273   4.822   4.356 -0.1732 -1.4603  0.2384
  168SAPE  H18Z18964   2.228   4.824   4.531 -1.3675  0.7315  0.6551
  169SAPE     N18965   1.468   6.226   2.594 -0.3783  0.0862  0.0957
  169SAPE   HN118966   1.523   6.311   2.569 -1.8117  0.8805 -0.4642
  169SAPE   HN218967   1.500   6.165   2.672 -2.3006 -0.2279  0.6950
  169SAPE   HN318968   1.479   6.176   2.503  1.2353  0.3221  0.1249
  169SAPE   C1218969   1.335   6.285   2.620  0.1193 -0.7395  0.6239
  169SAPE  H12A18970   1.350   6.355   2.705  0.8743 -0.8969  0.6252
  169SAPE  H12B18971   1.260   6.204   2.636 -0.1680 -1.0177 -1.7820
  169SAPE   C1118972   1.293   6.367   2.498  0.4927 -0.2486  0.4633
  169SAPE  H11A18973   1.193   6.411   2.517  0.8384  0.9781 -0.4706
  169SAPE  H11B18974   1.293   6.284   2.424  2.0950 -0.9853  1.2262
  169SAPE     P18975   1.354   6.600   2.417  0.3276 -0.4750  0.2529
  169SAPE   O1318976   1.478   6.658   2.362 -0.3504 -0.0053 -0.1329
  169SAPE   O1418977   1.234   6.598   2.325 -0.1594 -0.2463 -0.2790
  169SAPE   O1218978   1.396   6.459   2.461  0.5530  0.1959  0.4906
  169SAPE   O1118979   1.331   6.665   2.558  0.5379  0.6040 -0.0741
  169SAPE    C118980   1.436   6.649   2.647 -0.7982  0.4571 -0.1837
  169SAPE    HA18981   1.394   6.607   2.741 -1.4707 -0.3025 -0.8085
  169SAPE    HB18982   1.525   6.588   2.618 -0.4807  1.5945 -1.7351
  169SAPE    C218983   1.499   6.784   2.675  0.7339 -0.0022 -0.3273
  169SAPE    HS18984   1.565   6.818   2.592  0.0558  1.8346 -0.1743
  169SAPE   O2118985   1.584   6.756   2.790  0.6059  0.1639 -0.4238
  169SAPE   C2118986   1.686   6.839   2.798 -0.0630 -0.1429 -0.1629
  169SAPE   O2218987   1.705   6.940   2.728 -0.2940 -0.8341  0.1548
  169SAPE   C2218988   1.772   6.793   2.910 -0.1393  0.2213 -0.0980
  169SAPE   H2R18989   1.783   6.684   2.891 -2.6455 -0.4051  1.5859
  169SAPE   H2S18990   1.868   6.850   2.911 -0.1607  0.2545  0.2038
  169SAPE    C318991   1.391   6.892   2.715  0.3556  0.6647  0.1517
  169SAPE    HX18992   1.361   6.862   2.818  2.5796  0.4307  0.7815
  169SAPE    HY18993   1.307   6.893   2.643 -0.3829  1.3422  1.0014
  169SAPE   O3118994   1.438   7.025   2.713 -0.1104 -0.2903 -0.2916
  169SAPE   C3118995   1.459   7.082   2.594 -0.4938  0.3382  0.5442
  169SAPE   O3218996   1.427   7.041   2.484 -0.4225  0.8263 -0.2439
  169SAPE   C3218997   1.535   7.215   2.603  0.8313 -0.0038 -0.1362
  169SAPE   H2X18998   1.610   7.230   2.521  0.3124  0.4330 -0.5433
  169SAPE   H2Y18999   1.591   7.229   2.698 -0.4716 -0.6523  0.7459
  169SAPE   C2319000   1.710   6.812   3.051 -0.2325 -0.8038  0.0813
  169SAPE   H3R19001   1.782   6.761   3.119 -0.0012  1.5695  1.7566
  169SAPE   H3S19002   1.608   6.768   3.059 -1.1385  1.0864 -0.5965
  169SAPE   C2419003   1.682   6.958   3.083 -0.4195  0.2420  0.4170
  169SAPE   H4R19004   1.610   6.996   3.007  0.3900 -0.5063 -0.7418
  169SAPE   H4S19005   1.778   7.012   3.066 -1.2187  1.6982  0.3314
  169SAPE   C2519006   1.637   6.984   3.222  0.0123 -0.2028  0.6930
  169SAPE   H5R19007   1.721   6.993   3.292  0.4255  0.9365  0.0830
  169SAPE   C2619008   1.511   6.988   3.269 -0.3647 -0.5100  0.2792
  169SAPE   H6R19009   1.496   7.015   3.374 -0.9008  0.0649  0.0606
  169SAPE   C2719010   1.390   6.974   3.185 -0.8842  0.2554 -0.1906
  169SAPE   H7R19011   1.378   6.865   3.172  1.4017  0.1078 -1.7050
  169SAPE   H7S19012   1.399   7.009   3.080 -1.3579 -0.3977 -0.4523
  169SAPE   C2819013   1.274   7.047   3.240  0.5564  0.1413 -0.0893
  169SAPE   H8R19014   1.253   7.145   3.195  2.8662  1.0453  0.6737
  169SAPE   C2919015   1.183   6.994   3.336 -0.5321 -0.2388  0.2466
  169SAPE   H9R19016   1.102   7.060   3.372 -0.6940 -0.2890 -0.0251
  169SAPE  C21019017   1.190   6.871   3.418 -0.3531  0.3057  0.3976
  169SAPE  H10R19018   1.139   6.903   3.511  0.2646 -0.1641  0.9014
  169SAPE  H10S19019   1.294   6.838   3.435 -0.7984 -0.7941  1.1211
  169SAPE  C21119020   1.116   6.762   3.344 -0.4420 -0.4183  0.1900
  169SAPE  H11R19021   1.091   6.775   3.238 -0.1275  0.7967  0.2549
  169SAPE  C21219022   1.056   6.665   3.414  0.0985 -0.3679  0.6393
  169SAPE  H12R19023   0.993   6.588   3.367  0.8694 -1.5101  1.4212
  169SAPE  C21319024   1.053   6.655   3.562 -0.5141  0.1178 -0.0702
  169SAPE  H13R19025   1.125   6.724   3.611 -1.0121 -1.2165  2.7456
  169SAPE  H13S19026   1.074   6.550   3.594 -1.3464  0.0750  0.3626
  169SAPE  C21419027   0.913   6.697   3.613  0.0707 -0.1791 -0.7801
  169SAPE  H14R19028   0.916   6.807   3.612 -0.8914 -0.1396 -1.9761
  169SAPE  C21519029   0.810   6.620   3.653  0.6715 -0.0422  0.2316
  169SAPE  H15R19030   0.714   6.666   3.681  0.0119 -1.1366 -0.1643
  169SAPE  C21619031   0.805   6.464   3.668  0.4898 -0.8203  0.3247
  169SAPE  H16R19032   0.891   6.413   3.621  0.9437  0.2716 -0.0655
  169SAPE  H16S19033   0.725   6.419   3.606 -0.9696 -1.8650  2.8022
  169SAPE  C21719034   0.788   6.422   3.815  0.6178  0.6232  0.1972
  169SAPE  H17R19035   0.788   6.311   3.811 -0.5052  0.6290 -3.7874
  169SAPE  H17S19036   0.687   6.456   3.846  0.0281 -0.8870  0.0465
  169SAPE  C21819037   0.891   6.480   3.902 -0.4952 -0.3992 -0.6055
  169SAPE  H18R19038   0.881   6.590   3.917  1.4367 -0.2785 -0.0123
  169SAPE  H18S19039   0.990   6.468   3.854 -0.1799  0.4320 -0.1839
  169SAPE  C21919040   0.908   6.407   4.036  0.0842 -0.4019  0.2000
  169SAPE  H19R19041   0.998   6.454   4.082  0.3756 -1.1525  0.4229
  169SAPE  H19S19042   0.931   6.300   4.019 -0.8123 -0.7846  1.2944
  169SAPE  C22019043   0.774   6.414   4.115 -0.4366 -0.1271 -0.2350
  169SAPE  H20R19044   0.692   6.349   4.081 -0.2926 -1.0546  1.1194
  169SAPE  H20S19045   0.739   6.520   4.113  3.6651  1.4306 -1.1335
  169SAPE  H20T19046   0.794   6.386   4.220  1.5552  2.2780  0.1426
  169SAPE   C3319047   1.434   7.335   2.597  0.0034  0.3008  0.3706
  169SAPE   H3X19048   1.388   7.337   2.496 -0.2444  1.7304  0.4984
  169SAPE   H3Y19049   1.485   7.433   2.608  1.0469 -0.1722 -0.0695
  169SAPE   C3419050   1.319   7.344   2.696  0.1084 -0.1975 -0.0112
  169SAPE   H4X19051   1.273   7.243   2.708 -0.7709  0.1822 -0.1106
  169SAPE   H4Y19052   1.241   7.410   2.652 -1.8137 -0.5212  2.6311
  169SAPE   C3519053   1.363   7.401   2.834 -0.2364  0.4686 -0.0143
  169SAPE   H5X19054   1.384   7.509   2.818 -0.4447  0.4539 -0.4058
  169SAPE   H5Y19055   1.459   7.350   2.855  0.2439  0.6150 -1.6859
  169SAPE   C3619056   1.254   7.384   2.934  0.0088 -1.3447  0.1682
  169SAPE   H6X19057   1.190   7.296   2.913 -4.7283  0.7169  3.7856
  169SAPE   H6Y19058   1.173   7.461   2.928 -0.8023 -2.2758 -1.2618
  169SAPE   C3719059   1.288   7.405   3.079  0.3450  0.3974 -0.0310
  169SAPE   H7X19060   1.361   7.483   3.109  2.2405 -0.5041 -2.0545
  169SAPE   H7Y19061   1.348   7.321   3.119 -0.8232 -1.8663 -2.6979
  169SAPE   C3819062   1.169   7.425   3.170  0.2710  0.2001 -0.0864
  169SAPE   H8X19063   1.095   7.347   3.142  0.8408 -0.6401  0.7045
  169SAPE   H8Y19064   1.129   7.525   3.143 -1.1056  0.3142  2.2072
  169SAPE   C3919065   1.197   7.431   3.321  0.1191  0.4157  0.1310
  169SAPE   H9X19066   1.269   7.513   3.343 -1.4513  1.9661 -0.2920
  169SAPE   H9Y19067   1.230   7.327   3.343 -2.4899 -0.9878 -2.0620
  169SAPE  C31019068   1.062   7.457   3.392  1.1468 -0.5873  0.3697
  169SAPE  H10X19069   0.991   7.374   3.372 -0.2723  0.4028  1.1213
  169SAPE  H10Y19070   1.016   7.553   3.361  0.4523 -0.9491  0.2691
  169SAPE  C31119071   1.081   7.464   3.544 -0.0540  0.0273 -0.0509
  169SAPE  H11X19072   1.114   7.562   3.585 -3.1198  1.4916 -0.7895
  169SAPE  H11Y19073   1.143   7.379   3.578 -2.0623 -1.7184 -0.4849
  169SAPE  C31219074   0.943   7.420   3.606 -0.1862  0.0203  0.1030
  169SAPE  H12X19075   0.914   7.317   3.573 -1.1964 -0.0510  1.1567
  169SAPE  H12Y19076   0.858   7.478   3.565 -3.5945 -3.6793  1.2335
  169SAPE  C31319077   0.945   7.435   3.758 -0.3513  0.8678 -0.0949
  169SAPE  H13X19078   0.857   7.482   3.805 -0.3307  1.2830 -0.4709
  169SAPE  H13Y19079   1.025   7.509   3.779  0.2599  1.0330 -2.5764
  169SAPE  C31419080   0.988   7.307   3.837  0.3952  0.4391  0.9538
  169SAPE  H14X19081   1.084   7.266   3.797 -1.3175 -3.1664  0.1286
  169SAPE  H14Y19082   0.914   7.224   3.836 -0.7171  1.4044  0.5122
  169SAPE  C31519083   1.030   7.334   3.981 -0.3725  0.4479  0.3205
  169SAPE  H15X19084   1.040   7.235   4.031 -1.1213  1.6074  2.9405
  169SAPE  H15Y19085   0.949   7.385   4.037  0.1149  4.1481 -2.0288
  169SAPE  C31619086   1.157   7.416   4.005  0.2752  0.3284  0.8567
  169SAPE  H16X19087   1.132   7.498   4.076 -0.9767 -2.1829  3.5130
  169SAPE  H16Y19088   1.191   7.453   3.905  0.3609 -2.1727 -0.1059
  169SAPE  C31719089   1.272   7.338   4.076  0.0178  1.0328  0.1316
  169SAPE  H17X19090   1.316   7.255   4.017 -0.2490  0.5458  0.6182
  169SAPE  H17Y19091   1.248   7.287   4.171  0.5086  1.5604  0.5493
  169SAPE  C31819092   1.386   7.437   4.112  0.5228  0.3559  0.7939
  169SAPE  H18X19093   1.434   7.473   4.019  0.5061 -1.5218  0.0270
  169SAPE  H18Y19094   1.467   7.383   4.166 -0.9777 -1.8895  0.9269
  169SAPE  H18Z19095   1.366   7.531   4.168  2.1069  1.4816 -0.4266
  170SAPE     N19096   0.623   2.072   2.457  0.0814  0.0170 -0.0397
  170SAPE   HN119097   0.550   2.012   2.500 -1.8020  0.3921 -2.4969
  170SAPE   HN219098   0.604   2.053   2.357 -0.8560  0.7613 -0.0141
  170SAPE   HN319099   0.716   2.029   2.474  0.6701 -1.0388 -4.5475
  170SAPE   C1219100   0.613   2.215   2.503  0.3612  0.1815 -0.2216
  170SAPE  H12A19101   0.692   2.277   2.457 -0.3140  1.1117 -0.1575
  170SAPE  H12B19102   0.621   2.214   2.614  1.2407  4.2888 -0.1103
  170SAPE   C1119103   0.477   2.264   2.470 -0.3356 -0.3745 -0.3622
  170SAPE  H11A19104   0.484   2.361   2.525  2.3446 -1.7860  2.0385
  170SAPE  H11B19105   0.407   2.197   2.524  1.3223 -1.3146  0.7215
  170SAPE     P19106   0.446   2.371   2.225 -0.1800 -0.1960 -0.2079
  170SAPE   O1319107   0.549   2.340   2.125 -0.2636  0.0108 -0.4550
  170SAPE   O1419108   0.309   2.392   2.168 -0.6605 -0.1484  0.8113
  170SAPE   O1219109   0.447   2.253   2.329 -0.1711  0.1651 -0.4802
  170SAPE   O1119110   0.480   2.502   2.306 -0.2148  0.1645  0.8223
  170SAPE    C119111   0.582   2.592   2.258  0.1741 -0.1268  0.1934
  170SAPE    HA19112   0.668   2.541   2.210  0.3868  2.0318 -1.9561
  170SAPE    HB19113   0.550   2.669   2.184 -0.2932 -0.8887 -0.4112
  170SAPE    C219114   0.637   2.675   2.379  0.4000 -0.0945  0.1972
  170SAPE    HS19115   0.685   2.768   2.342  0.1746 -0.1667 -0.2802
  170SAPE   O2119116   0.728   2.583   2.438  0.5557  0.1569 -0.2116
  170SAPE   C2119117   0.823   2.637   2.510  0.0473 -0.6476 -0.7080
  170SAPE   O2219118   0.835   2.758   2.522 -0.0463 -0.0023  0.3590
  170SAPE   C2219119   0.907   2.530   2.571  0.0085  0.1525  0.9788
  170SAPE   H2R19120   0.927   2.461   2.487  1.1408  0.9653  0.5493
  170SAPE   H2S19121   1.002   2.575   2.609  0.1513  0.0649  0.7244
  170SAPE    C319122   0.520   2.721   2.473  0.7223 -0.1203  0.6142
  170SAPE    HX19123   0.453   2.636   2.498  0.9864 -0.2323  0.9457
  170SAPE    HY19124   0.470   2.798   2.410  3.1814 -1.4717 -3.3492
  170SAPE   O3119125   0.571   2.774   2.603 -0.1652  0.1695  0.5848
  170SAPE   C3119126   0.603   2.899   2.620 -0.4281 -0.0643  0.0304
  170SAPE   O3219127   0.591   2.981   2.526 -0.2426  0.0294 -0.0744
  170SAPE   C3219128   0.639   2.921   2.768  0.8807  0.4010  0.4667
  170SAPE   H2X19129   0.693   2.830   2.802 -0.3508 -0.3820  0.3826
  170SAPE   H2Y19130   0.548   2.945   2.826 -1.0653  0.1988 -2.3244
  170SAPE   C2319131   0.860   2.454   2.696  0.3070  0.2344  0.1362
  170SAPE   H3R19132   0.936   2.379   2.726 -0.3422 -0.8884 -0.9522
  170SAPE   H3S19133   0.780   2.387   2.657 -0.2871  2.1871 -2.2407
  170SAPE   C2419134   0.807   2.548   2.804 -0.3475  0.3408 -0.0617
  170SAPE   H4R19135   0.718   2.602   2.763 -0.2103 -0.0215 -0.8625
  170SAPE   H4S19136   0.879   2.629   2.826 -0.3307  0.7716 -1.5573
  170SAPE   C2519137   0.765   2.471   2.933 -0.5623 -1.4180 -0.0849
  170SAPE   H5R19138   0.844   2.429   2.996 -0.0476  0.4447  0.5865
  170SAPE   C2619139   0.640   2.461   2.984  0.1585 -0.0801  0.4173
  170SAPE   H6R19140   0.628   2.418   3.085 -3.9627 -0.6331 -0.1447
  170SAPE   C2719141   0.510   2.522   2.932 -0.1017 -0.5625 -0.1236
  170SAPE   H7R19142   0.534   2.602   2.859  0.5119 -0.6899 -0.0714
  170SAPE   H7S19143   0.466   2.581   3.014 -0.8208 -1.7283  0.3567
  170SAPE   C2819144   0.419   2.424   2.870  0.1598  0.7323  0.3323
  170SAPE   H8R19145   0.437   2.391   2.767 -1.8829  2.4494 -0.6817
  170SAPE   C2919146   0.309   2.366   2.923 -0.6432 -0.2041  0.0834
  170SAPE   H9R19147   0.248   2.301   2.858  0.9041 -0.7165 -0.9277
  170SAPE  C21019148   0.247   2.384   3.060  0.3553 -0.1375  0.4998
  170SAPE  H10R19149   0.301   2.459   3.122 -0.0030 -0.9421  1.8370
  170SAPE  H10S19150   0.247   2.285   3.111  2.2679 -1.0411 -1.1049
  170SAPE  C21119151   0.106   2.430   3.053  0.5529 -0.0636 -0.0731
  170SAPE  H11R19152   0.049   2.416   2.960  0.1459 -0.1719  0.1883
  170SAPE  C21219153   0.042   2.513   3.143  0.2764 -0.2900 -0.1764
  170SAPE  H12R19154  -0.064   2.533   3.122  1.1210  1.8760 -2.9514
  170SAPE  C21319155   0.088   2.564   3.276 -0.3264  0.5895 -0.4212
  170SAPE  H13R19156   0.188   2.527   3.307 -0.5292  1.1661  1.0007
  170SAPE  H13S19157   0.014   2.531   3.352  0.3435  2.6590  1.2283
  170SAPE  C21419158   0.086   2.715   3.283  0.3456  1.3386 -0.1249
  170SAPE  H14R19159   0.110   2.757   3.184  2.6344  0.2703 -0.0800
  170SAPE  C21519160   0.057   2.794   3.386  0.1225 -0.1994  0.0974
  170SAPE  H15R19161   0.043   2.900   3.360 -1.6927 -0.3869  0.1664
  170SAPE  C21619162   0.022   2.758   3.527 -0.4658 -0.2324  0.5075
  170SAPE  H16R19163  -0.002   2.650   3.530 -1.0189 -0.2171 -1.6410
  170SAPE  H16S19164  -0.072   2.812   3.554 -1.8861 -2.5641  0.4648
  170SAPE  C21719165   0.119   2.790   3.641 -0.9577  0.7798 -0.2124
  170SAPE  H17R19166   0.157   2.895   3.639  0.3354  0.3251 -0.7708
  170SAPE  H17S19167   0.213   2.733   3.624 -0.1222  1.6576  1.2179
  170SAPE  C21819168   0.071   2.768   3.785  0.1978  0.1834 -0.0029
  170SAPE  H18R19169   0.036   2.663   3.785 -0.6016  0.4381 -0.2559
  170SAPE  H18S19170  -0.018   2.835   3.794  0.1860  0.3402 -1.1343
  170SAPE  C21919171   0.182   2.785   3.891 -0.3932 -0.6497  0.1625
  170SAPE  H19R19172   0.229   2.885   3.874 -0.1307 -1.1255 -2.2492
  170SAPE  H19S19173   0.260   2.715   3.855 -1.5253 -1.7443 -0.2396
  170SAPE  C22019174   0.151   2.754   4.035  0.6040 -0.1336 -0.0457
  170SAPE  H20R19175   0.095   2.836   4.084  0.3823 -0.1533 -0.2612
  170SAPE  H20S19176   0.241   2.737   4.097  0.3268  0.0903  0.4188
  170SAPE  H20T19177   0.095   2.658   4.046 -1.7524  1.2725  0.8504
  170SAPE   C3319178   0.735   3.037   2.780 -0.8323 -1.1789  0.0112
  170SAPE   H3X19179   0.698   3.128   2.729 -1.2308 -0.8037  0.9394
  170SAPE   H3Y19180   0.832   3.003   2.738 -0.6845  0.2225 -0.8121
  170SAPE   C3419181   0.739   3.074   2.934 -0.3315 -0.7689  0.8645
  170SAPE   H4X19182   0.636   3.089   2.971 -1.7549  2.9568 -3.5625
  170SAPE   H4Y19183   0.787   3.174   2.943 -1.9137 -0.1238  2.9757
  170SAPE   C3519184   0.827   2.975   3.009 -0.2325 -0.3054  0.1848
  170SAPE   H5X19185   0.930   2.993   2.970 -0.6879 -0.3931 -1.1061
  170SAPE   H5Y19186   0.810   2.869   2.983  2.7083 -0.4250 -1.7020
  170SAPE   C3619187   0.810   2.996   3.160 -0.0733 -0.4659  0.9284
  170SAPE   H6X19188   0.834   2.908   3.222  1.9301 -0.3403  0.3929
  170SAPE   H6Y19189   0.702   3.013   3.183 -0.3223 -1.6270  0.6824
  170SAPE   C3719190   0.904   3.110   3.208 -0.8744 -1.0722 -0.0323
  170SAPE   H7X19191   0.885   3.188   3.131 -3.9617 -0.6907  0.9677
  170SAPE   H7Y19192   1.011   3.086   3.224 -0.6910  0.7701  2.0312
  170SAPE   C3819193   0.855   3.169   3.344 -0.0974 -0.2831 -0.1765
  170SAPE   H8X19194   0.748   3.199   3.347 -0.0933 -0.2815 -0.0520
  170SAPE   H8Y19195   0.915   3.260   3.364 -1.9485  0.6736  1.3389
  170SAPE   C3919196   0.862   3.066   3.460  0.6266  0.2404  0.7656
  170SAPE   H9X19197   0.964   3.022   3.450  0.8205  1.1339 -2.0662
  170SAPE   H9Y19198   0.804   2.974   3.440  0.8006  0.4155 -0.6561
  170SAPE  C31019199   0.828   3.130   3.597 -0.1062 -0.0008 -0.1815
  170SAPE  H10X19200   0.730   3.179   3.581  1.3040  2.9133 -0.6329
  170SAPE  H10Y19201   0.902   3.211   3.614 -0.8587  0.3651  1.4846
  170SAPE  C31119202   0.829   3.036   3.722  0.1293 -0.0768 -0.2667
  170SAPE  H11X19203   0.937   3.013   3.737 -0.1588 -1.3395  0.0256
  170SAPE  H11Y19204   0.773   2.945   3.691 -0.8336 -0.1867  1.6518
  170SAPE  C31219205   0.772   3.111   3.844  0.4896  0.8410 -0.8520
  170SAPE  H12X19206   0.668   3.146   3.832 -0.6317 -1.6338  0.8526
  170SAPE  H12Y19207   0.828   3.202   3.874 -1.7501  1.9481  0.1574
  170SAPE  C31319208   0.757   3.021   3.970 -0.0118 -0.1863  0.1217
  170SAPE  H13X19209   0.665   2.959   3.976  0.5147 -1.0183 -0.1920
  170SAPE  H13Y19210   0.751   3.087   4.060 -0.2401  0.3620 -0.2918
  170SAPE  C31419211   0.877   2.937   4.008  0.1871 -0.7874 -0.0410
  170SAPE  H14X19212   0.973   2.994   4.011 -0.1169 -0.2409 -0.5150
  170SAPE  H14Y19213   0.896   2.858   3.933  0.3046 -1.7192  0.9496
  170SAPE  C31519214   0.862   2.865   4.143  0.4595  0.9977  0.3385
  170SAPE  H15X19215   0.767   2.808   4.136  0.1954  1.6857 -3.1480
  170SAPE  H15Y19216   0.846   2.945   4.219 -0.0902  1.6853 -0.4810
  170SAPE  C31619217   0.970   2.759   4.169  0.1869 -0.2414 -0.1964
  170SAPE  H16X19218   1.076   2.791   4.175  0.9178 -2.4573 -0.2433
  170SAPE  H16Y19219   0.960   2.688   4.084 -2.6686  1.0928 -1.1066
  170SAPE  C31719220   0.953   2.672   4.292  0.2446 -0.0537 -0.6101
  170SAPE  H17X19221   0.847   2.639   4.286  0.5587 -0.7826 -3.1781
  170SAPE  H17Y19222   0.956   2.740   4.380  0.2548  1.5621 -1.8037
  170SAPE  C31819223   1.049   2.555   4.286 -0.3633 -0.5212  0.3694
  170SAPE  H18X19224   1.046   2.507   4.186  1.0951  0.1201 -0.0093
  170SAPE  H18Y19225   1.041   2.485   4.372  0.8621 -0.4962  0.5279
  170SAPE  H18Z19226   1.156   2.587   4.285  0.2458 -2.3977  0.2602
  171SAPE     N19227   1.029   1.872   2.125 -0.0499 -0.4387  0.2817
  171SAPE   HN119228   1.022   1.779   2.170 -1.8164 -0.7525 -0.5208
  171SAPE   HN219229   0.931   1.900   2.102  0.1135 -0.3538 -0.3273
  171SAPE   HN319230   1.080   1.856   2.036  1.9195 -1.0329  1.4821
  171SAPE   C1219231   1.096   1.970   2.222  0.4915  0.0021 -0.5706
  171SAPE  H12A19232   1.013   1.994   2.291  0.1013 -0.3468 -0.9108
  171SAPE  H12B19233   1.137   2.056   2.165  2.6698  0.9592  2.1799
  171SAPE   C1119234   1.215   1.907   2.298  0.3209 -0.0998 -0.0347
  171SAPE  H11A19235   1.253   1.965   2.385 -0.9731 -0.2958  0.6864
  171SAPE  H11B19236   1.297   1.907   2.224  0.6737 -1.1608  0.3452
  171SAPE     P19237   1.117   1.719   2.462 -0.2251  0.0123 -0.0324
  171SAPE   O1319238   0.999   1.802   2.501  0.5835  0.4120  0.0027
  171SAPE   O1419239   1.083   1.574   2.446  0.3431  0.0798 -0.3503
  171SAPE   O1219240   1.186   1.776   2.336 -0.7445 -0.5500 -0.3147
  171SAPE   O1119241   1.229   1.742   2.572 -0.1338 -0.0319 -0.4924
  171SAPE    C119242   1.335   1.657   2.605 -0.2081  0.3315  0.1178
  171SAPE    HA19243   1.333   1.575   2.530 -3.7524 -2.2209  2.7018
  171SAPE    HB19244   1.429   1.716   2.596  0.1497 -0.2242  0.1883
  171SAPE    C219245   1.327   1.603   2.748  0.3405 -0.1167  0.6364
  171SAPE    HS19246   1.409   1.530   2.765  1.2769  0.8466  0.3721
  171SAPE   O2119247   1.209   1.531   2.771  0.3507 -0.8105 -0.7028
  171SAPE   C2119248   1.195   1.406   2.723  0.0278 -0.7347 -0.5068
  171SAPE   O2219249   1.279   1.355   2.654  0.4339  0.3922  0.1153
  171SAPE   C2219250   1.068   1.345   2.784 -0.4610  0.1229  0.7920
  171SAPE   H2R19251   1.008   1.319   2.694 -0.5459 -0.1993  0.9404
  171SAPE   H2S19252   1.105   1.257   2.839  1.9017  1.2710  1.1669
  171SAPE    C319253   1.344   1.711   2.864  0.4815 -0.6436 -0.3339
  171SAPE    HX19254   1.276   1.792   2.832  0.3216 -0.0593  1.3705
  171SAPE    HY19255   1.448   1.751   2.860  0.0054  1.0013  1.8993
  171SAPE   O3119256   1.307   1.670   3.003 -0.0949 -1.1095  0.1955
  171SAPE   C3119257   1.401   1.608   3.067 -0.3341  0.2754  0.1747
  171SAPE   O3219258   1.511   1.578   3.026 -0.0355 -0.0468 -0.6735
  171SAPE   C3219259   1.359   1.604   3.215  0.5782  0.2270  0.1238
  171SAPE   H2X19260   1.248   1.604   3.220  0.5925 -1.2724  1.1065
  171SAPE   H2Y19261   1.407   1.693   3.262  1.5317 -0.6310  0.8320
  171SAPE   C2319262   0.988   1.426   2.886 -0.3041 -1.4504 -0.6972
  171SAPE   H3R19263   1.061   1.461   2.962 -1.1186 -1.4444  0.1067
  171SAPE   H3S19264   0.921   1.368   2.954 -2.1721  2.5120  1.1703
  171SAPE   C2419265   0.905   1.536   2.828 -0.7764 -0.4830  0.4478
  171SAPE   H4R19266   0.958   1.606   2.760  1.1216 -0.0199  2.3027
  171SAPE   H4S19267   0.873   1.606   2.908  0.5887  0.2522  0.3816
  171SAPE   C2519268   0.787   1.480   2.746 -0.3775 -0.3732 -0.5170
  171SAPE   H5R19269   0.818   1.393   2.686  3.3129 -1.1366  2.0980
  171SAPE   C2619270   0.655   1.515   2.749 -0.0499  0.3045  0.0040
  171SAPE   H6R19271   0.580   1.466   2.684  0.5078 -1.0887  0.3768
  171SAPE   C2719272   0.610   1.626   2.843  0.5168 -0.7873  0.8655
  171SAPE   H7R19273   0.554   1.702   2.785  1.7735 -1.3334 -1.1324
  171SAPE   H7S19274   0.693   1.683   2.889  0.1535  0.6649 -0.2200
  171SAPE   C2819275   0.531   1.550   2.947  0.2971 -0.2684 -0.5575
  171SAPE   H8R19276   0.454   1.482   2.907  0.7074 -0.9787 -0.1514
  171SAPE   C2919277   0.537   1.558   3.084 -0.3041  0.4726  0.5079
  171SAPE   H9R19278   0.475   1.489   3.142 -0.3969 -2.4676 -2.7474
  171SAPE  C21019279   0.632   1.642   3.161 -0.7098  0.3963 -0.6111
  171SAPE  H10R19280   0.600   1.672   3.264 -0.8331  1.5709 -0.9725
  171SAPE  H10S19281   0.645   1.740   3.110  2.9013  0.6873  0.5762
  171SAPE  C21119282   0.766   1.570   3.163  1.5119 -0.2828  0.4831
  171SAPE  H11R19283   0.802   1.517   3.073 -1.5729  1.1126 -1.7229
  171SAPE  C21219284   0.859   1.568   3.256  0.2567  0.6384 -0.2202
  171SAPE  H12R19285   0.935   1.489   3.241 -1.1407 -0.6136 -1.0134
  171SAPE  C21319286   0.866   1.638   3.388 -0.1461  0.1936 -0.6419
  171SAPE  H13R19287   0.817   1.738   3.388  1.1270  0.8373 -1.1454
  171SAPE  H13S19288   0.971   1.658   3.418 -0.2292  1.4251 -1.1195
  171SAPE  C21419289   0.795   1.553   3.493  0.8757  0.0578  0.0417
  171SAPE  H14R19290   0.741   1.463   3.462 -0.0580  0.0702  1.5461
  171SAPE  C21519291   0.791   1.593   3.619 -0.1409 -0.6801 -0.9327
  171SAPE  H15R19292   0.740   1.531   3.694 -2.0306  0.1322 -1.4775
  171SAPE  C21619293   0.850   1.715   3.677 -0.0334 -0.7143 -0.5761
  171SAPE  H16R19294   0.781   1.744   3.759  3.8717 -0.7956  3.1086
  171SAPE  H16S19295   0.834   1.796   3.604 -0.8755 -1.9025 -1.7660
  171SAPE  C21719296   0.998   1.715   3.737  0.4788 -0.4867 -0.0068
  171SAPE  H17R19297   1.028   1.819   3.763  0.2310 -1.0864  3.1528
  171SAPE  H17S19298   1.074   1.683   3.663  0.8926 -1.3255  0.7617
  171SAPE  C21819299   1.020   1.629   3.859  0.1854 -0.1477  0.1124
  171SAPE  H18R19300   0.924   1.578   3.880 -0.4632  1.7170  2.0635
  171SAPE  H18S19301   1.029   1.685   3.954 -0.7485 -2.6374  1.7810
  171SAPE  C21919302   1.138   1.529   3.847  0.0517 -0.2977  0.6528
  171SAPE  H19R19303   1.228   1.593   3.839 -0.6905  0.7143  0.1761
  171SAPE  H19S19304   1.130   1.463   3.758 -0.5402 -0.0476  0.5149
  171SAPE  C22019305   1.174   1.439   3.971 -0.5016 -0.1889  0.3444
  171SAPE  H20R19306   1.224   1.504   4.047 -0.6673  0.0457  0.2553
  171SAPE  H20S19307   1.248   1.360   3.952  2.5233  1.5850  3.5497
  171SAPE  H20T19308   1.087   1.393   4.024 -0.3951 -0.8448 -0.0534
  171SAPE   C3319309   1.409   1.482   3.298  0.2453 -0.0644  0.7735
  171SAPE   H3X19310   1.519   1.470   3.285  0.1916 -0.9221  1.0819
  171SAPE   H3Y19311   1.365   1.388   3.258  0.4809 -0.2245  0.8880
  171SAPE   C3419312   1.362   1.478   3.440 -0.5988 -0.1864 -0.5369
  171SAPE   H4X19313   1.251   1.483   3.447 -0.5563 -0.4500  0.5191
  171SAPE   H4Y19314   1.396   1.563   3.502 -1.6263 -0.3622  0.2985
  171SAPE   C3519315   1.414   1.352   3.513  0.1778 -0.2712  0.4238
  171SAPE   H5X19316   1.392   1.358   3.622 -0.8373  1.0062  0.1825
  171SAPE   H5Y19317   1.523   1.363   3.495  0.0683 -0.4471 -0.3809
  171SAPE   C3619318   1.389   1.208   3.467  1.1985 -0.5318  0.4263
  171SAPE   H6X19319   1.425   1.196   3.363  0.6084 -2.3986  0.4040
  171SAPE   H6Y19320   1.279   1.191   3.470  1.2975 -1.1513  0.6341
  171SAPE   C3719321   1.444   1.108   3.561 -0.1415  0.5609  0.9917
  171SAPE   H7X19322   1.398   1.110   3.662 -0.9941 -0.0474  0.6319
  171SAPE   H7Y19323   1.554   1.124   3.571  0.7840 -1.6290 -3.1821
  171SAPE   C3819324   1.410   0.966   3.507 -0.0092 -0.5605  0.0284
  171SAPE   H8X19325   1.443   0.964   3.401  0.1426 -2.0788  0.0876
  171SAPE   H8Y19326   1.302   0.948   3.525 -0.2089  0.6669  0.1429
  171SAPE   C3919327   1.483   0.857   3.582 -0.5457 -0.4890  0.1452
  171SAPE   H9X19328   1.471   0.853   3.692  2.1311  0.8080  0.5518
  171SAPE   H9Y19329   1.592   0.868   3.568 -0.8325  1.9475 -0.7504
  171SAPE  C31019330   1.472   0.714   3.518  0.1410 -0.9443 -1.1060
  171SAPE  H10X19331   1.486   0.728   3.409 -0.2601 -1.2260 -1.1980
  171SAPE  H10Y19332   1.366   0.682   3.523  0.2154 -1.0487  2.1084
  171SAPE  C31119333   1.558   0.606   3.576  0.1483  0.3253  0.0041
  171SAPE  H11X19334   1.554   0.622   3.686 -3.3086  0.8049 -0.0728
  171SAPE  H11Y19335   1.654   0.622   3.523 -1.6779  0.3818 -3.5506
  171SAPE  C31219336   1.500   0.467   3.556  0.3847 -0.2340 -0.4011
  171SAPE  H12X19337   1.523   0.452   3.448  0.2647 -0.1789 -0.4345
  171SAPE  H12Y19338   1.391   0.473   3.580  0.7453 -1.2474  1.6565
  171SAPE  C31319339   1.562   0.363   3.643 -0.6611 -0.2129 -0.2595
  171SAPE  H13X19340   1.660   0.403   3.678 -0.7769 -1.0097  1.0791
  171SAPE  H13Y19341   1.574   0.262   3.597  0.8583 -0.0549 -0.2786
  171SAPE  C31419342   1.487   0.341   3.773 -0.3358 -0.2276 -0.8733
  171SAPE  H14X19343   1.455   0.440   3.810 -1.6695 -0.6582 -0.8318
  171SAPE  H14Y19344   1.546   0.289   3.852 -1.3323 -1.7454 -1.0898
  171SAPE  C31519345   1.362   0.251   3.743 -0.3061  0.4100  0.3966
  171SAPE  H15X19346   1.405   0.161   3.694 -1.7226  0.2077 -0.5000
  171SAPE  H15Y19347   1.290   0.307   3.681 -0.5156 -0.0908  0.1872
  171SAPE  C31619348   1.285   0.201   3.868  0.6748 -0.5719 -0.1115
  171SAPE  H16X19349   1.249   0.288   3.927 -1.1022  0.6352 -2.7893
  171SAPE  H16Y19350   1.345   0.138   3.938 -0.3989 -2.1783 -0.5776
  171SAPE  C31719351   1.160   0.119   3.825 -0.5064  0.1022 -0.4160
  171SAPE  H17X19352   1.197   0.022   3.785  4.1810  1.4004  0.1738
  171SAPE  H17Y19353   1.090   0.180   3.763  0.2633  1.4760  0.0188
  171SAPE  C31819354   1.067   0.100   3.946  0.4745 -0.1154  0.2534
  171SAPE  H18X19355   1.032   0.199   3.982  0.4346 -0.1628  0.3445
  171SAPE  H18Y19356   1.133   0.059   4.026  1.6671  2.3502  0.6469
  171SAPE  H18Z19357   0.972   0.046   3.931  0.2100  0.1587  0.8905
  172SAPE     N19358   0.788   5.801   1.969 -0.4045 -0.3511 -0.1627
  172SAPE   HN119359   0.687   5.828   1.970 -0.6046 -1.0489  1.2275
  172SAPE   HN219360   0.845   5.887   1.960  1.8241 -1.4157  2.4083
  172SAPE   HN319361   0.803   5.740   1.886  0.0937 -0.2660 -0.1360
  172SAPE   C1219362   0.837   5.736   2.094 -0.5775 -0.1912 -0.8944
  172SAPE  H12A19363   0.940   5.770   2.119 -0.5952  0.4543 -1.6603
  172SAPE  H12B19364   0.834   5.625   2.091 -1.7737 -0.4061  2.6747
  172SAPE   C1119365   0.738   5.759   2.213  0.7082 -0.6662 -0.1926
  172SAPE  H11A19366   0.756   5.860   2.257  2.8772 -0.6200 -1.0637
  172SAPE  H11B19367   0.770   5.681   2.286  0.9620  0.5199  1.0040
  172SAPE     P19368   0.494   5.760   2.287 -0.3193 -0.0273 -0.1099
  172SAPE   O1319369   0.454   5.900   2.279 -0.0753 -0.4001 -0.1105
  172SAPE   O1419370   0.391   5.655   2.272  0.1072 -0.4394 -0.1633
  172SAPE   O1219371   0.601   5.733   2.173  0.0958 -0.1574 -0.4592
  172SAPE   O1119372   0.580   5.729   2.420  1.1058 -0.4914 -0.0673
  172SAPE    C119373   0.605   5.822   2.527  0.4514 -0.0020 -0.2206
  172SAPE    HA19374   0.595   5.926   2.488 -2.8017  0.1246  0.6916
  172SAPE    HB19375   0.532   5.810   2.610 -1.9063  3.8250 -1.4821
  172SAPE    C219376   0.746   5.806   2.592  0.2947  0.0052 -1.1929
  172SAPE    HS19377   0.815   5.851   2.517  1.4601  0.0211 -0.1462
  172SAPE   O2119378   0.778   5.662   2.609 -0.2277 -0.1926  0.0801
  172SAPE   C2119379   0.909   5.639   2.612  0.0603 -0.1155 -0.3678
  172SAPE   O2219380   0.993   5.725   2.582 -0.0269  0.6448 -0.6846
  172SAPE   C2219381   0.932   5.496   2.660 -0.2910 -0.4947  0.0661
  172SAPE   H2R19382   0.837   5.443   2.680 -1.2048  0.8727 -0.5103
  172SAPE   H2S19383   0.992   5.443   2.583 -0.4130 -1.4559  0.6196
  172SAPE    C319384   0.758   5.893   2.722  0.4998  0.2808 -0.5020
  172SAPE    HX19385   0.722   5.995   2.693 -1.4845  0.0561  0.9906
  172SAPE    HY19386   0.865   5.899   2.750  0.3100 -0.7017  0.4587
  172SAPE   O3119387   0.685   5.829   2.834  0.3520  0.3426 -0.2391
  172SAPE   C3119388   0.565   5.878   2.858 -0.2842  0.0987  0.6506
  172SAPE   O3219389   0.522   5.984   2.811 -0.1477  0.1367 -0.6077
  172SAPE   C3219390   0.478   5.786   2.938  0.5141 -0.1729 -0.4863
  172SAPE   H2X19391   0.423   5.853   3.007 -1.0333 -0.0191 -1.7940
  172SAPE   H2Y19392   0.541   5.715   2.995 -1.9448 -1.7191  0.4770
  172SAPE   C2319393   1.017   5.489   2.788  0.2751 -0.1306  0.1059
  172SAPE   H3R19394   1.119   5.525   2.764  0.3316 -1.2728 -1.5390
  172SAPE   H3S19395   1.019   5.380   2.810 -0.2462 -0.0558  0.5511
  172SAPE   C2419396   0.964   5.563   2.909 -0.4748 -0.4737  0.0802
  172SAPE   H4R19397   0.964   5.671   2.881  0.5648 -0.1664  1.1865
  172SAPE   H4S19398   1.046   5.547   2.983  0.8484 -1.1762 -1.4823
  172SAPE   C2519399   0.829   5.512   2.947  0.1282  0.5393 -0.3743
  172SAPE   H5R19400   0.768   5.496   2.857 -1.0957 -0.4722  0.6054
  172SAPE   C2619401   0.786   5.485   3.074 -0.1947  0.6594 -0.8181
  172SAPE   H6R19402   0.680   5.459   3.089  0.8423 -3.1152  1.6251
  172SAPE   C2719403   0.878   5.489   3.198  0.2643  0.5505  0.3960
  172SAPE   H7R19404   0.981   5.524   3.177  0.1957  0.1461 -0.6942
  172SAPE   H7S19405   0.895   5.386   3.236  0.0637  0.6890  0.8626
  172SAPE   C2819406   0.810   5.557   3.312  1.0340 -0.0245  0.7447
  172SAPE   H8R19407   0.790   5.663   3.287 -1.3088 -0.9857 -2.0099
  172SAPE   C2919408   0.777   5.515   3.440 -1.1506  0.5357 -0.1585
  172SAPE   H9R19409   0.720   5.579   3.509  0.7489  1.8304  0.2764
  172SAPE  C21019410   0.812   5.382   3.493  0.0994  0.3104  0.2009
  172SAPE  H10R19411   0.911   5.402   3.537 -1.4316  1.2451  3.5249
  172SAPE  H10S19412   0.819   5.304   3.414 -0.8349  0.3584  0.0541
  172SAPE  C21119413   0.715   5.317   3.587  0.4069  0.8292  0.7241
  172SAPE  H11R19414   0.608   5.323   3.564  0.6048 -0.3320 -0.5735
  172SAPE  C21219415   0.740   5.235   3.690 -0.4706  0.6709  0.1726
  172SAPE  H12R19416   0.658   5.191   3.748  0.3098  0.5368  1.2184
  172SAPE  C21319417   0.870   5.183   3.732  0.2206  0.1388  0.0962
  172SAPE  H13R19418   0.953   5.189   3.659  1.0674 -1.2057  0.9188
  172SAPE  H13S19419   0.860   5.073   3.743  1.6376 -0.1641 -1.3309
  172SAPE  C21419420   0.912   5.244   3.861 -0.3879 -0.3555 -0.3204
  172SAPE  H14R19421   0.909   5.354   3.861 -2.3718 -0.3740 -0.7153
  172SAPE  C21519422   0.961   5.181   3.967  0.2861 -0.6877 -0.3030
  172SAPE  H15R19423   1.000   5.238   4.052 -1.2486  1.1368 -0.7449
  172SAPE  C21619424   0.982   5.030   3.981  0.6479 -0.0358  0.3019
  172SAPE  H16R19425   1.066   4.998   3.915 -0.8505 -1.4571 -1.0119
  172SAPE  H16S19426   0.900   4.977   3.929  0.4655  1.7302 -1.3180
  172SAPE  C21719427   1.020   4.968   4.118 -0.5456 -0.0555  0.4121
  172SAPE  H17R19428   1.027   4.858   4.110 -0.6475 -0.1079  1.0243
  172SAPE  H17S19429   0.937   4.995   4.187 -1.2718 -3.0452  0.8265
  172SAPE  C21819430   1.151   5.017   4.168  0.2160 -0.6254  0.2148
  172SAPE  H18R19431   1.142   5.122   4.201  0.9834 -1.1203  2.0976
  172SAPE  H18S19432   1.229   5.004   4.090  1.2468  1.9602  0.7360
  172SAPE  C21919433   1.193   4.929   4.287  0.0684 -0.2496 -0.4268
  172SAPE  H19R19434   1.098   4.888   4.329 -1.9717  1.2562 -3.1798
  172SAPE  H19S19435   1.246   4.999   4.355  0.2844 -0.3761 -0.4661
  172SAPE  C22019436   1.269   4.804   4.253 -0.6364  0.1040  0.2480
  172SAPE  H20R19437   1.283   4.760   4.354  1.8152 -1.3314 -0.6218
  172SAPE  H20S19438   1.360   4.833   4.197  0.3419 -1.0392  1.1813
  172SAPE  H20T19439   1.202   4.739   4.194 -0.6807  1.2680 -1.0369
  172SAPE   C3319440   0.381   5.716   2.841  0.1459 -1.3864  0.0963
  172SAPE   H3X19441   0.433   5.693   2.746  0.4009  0.6888 -0.3166
  172SAPE   H3Y19442   0.302   5.786   2.806  0.3242 -1.0569  0.3446
  172SAPE   C3419443   0.305   5.592   2.902  0.0117  0.2740 -0.5335
  172SAPE   H4X19444   0.383   5.522   2.939  1.7693  0.5979 -3.2565
  172SAPE   H4Y19445   0.249   5.537   2.823 -1.6968  1.7952 -0.4529
  172SAPE   C3519446   0.203   5.646   3.005 -0.4468  0.7107 -0.4366
  172SAPE   H5X19447   0.138   5.728   2.970  0.1125  0.4352 -2.1921
  172SAPE   H5Y19448   0.263   5.672   3.095 -1.6318 -0.2900  0.6889
  172SAPE   C3619449   0.104   5.528   3.042 -0.2924 -0.5571  0.6171
  172SAPE   H6X19450   0.163   5.438   3.069 -1.0593 -0.9399  1.0275
  172SAPE   H6Y19451   0.054   5.502   2.946  0.7207 -0.1005 -0.0586
  172SAPE   C3719452   0.001   5.561   3.150  0.1613 -0.1516 -0.0656
  172SAPE   H7X19453  -0.066   5.644   3.119  2.5065  1.4927 -1.0464
  172SAPE   H7Y19454   0.059   5.586   3.241 -0.7648  2.3573 -0.0817
  172SAPE   C3819455  -0.091   5.442   3.185  0.6233  0.1479 -0.1645
  172SAPE   H8X19456  -0.027   5.353   3.205 -1.2391 -0.9812  1.1358
  172SAPE   H8Y19457  -0.153   5.412   3.098 -1.6864  1.4379  0.9338
  172SAPE   C3919458  -0.185   5.461   3.306 -0.0458 -0.3921 -0.5686
  172SAPE   H9X19459  -0.261   5.380   3.306 -0.2850 -0.2419  2.1945
  172SAPE   H9Y19460  -0.232   5.562   3.297  2.1457  1.0086  2.1264
  172SAPE  C31019461  -0.104   5.466   3.431 -0.4870  0.4166 -0.5703
  172SAPE  H10X19462  -0.042   5.559   3.435 -0.5993  0.5728 -1.8760
  172SAPE  H10Y19463  -0.029   5.385   3.424 -1.1488 -0.1444 -1.2013
  172SAPE  C31119464  -0.192   5.453   3.554 -0.2945 -0.0137 -0.1041
  172SAPE  H11X19465  -0.249   5.357   3.554 -2.0142  0.8826 -2.6657
  172SAPE  H11Y19466  -0.268   5.533   3.540  1.6178  1.9159  0.0455
  172SAPE  C31219467  -0.120   5.472   3.686 -0.6755  0.4440 -0.5683
  172SAPE  H12X19468  -0.082   5.576   3.697  2.0780 -0.6163  1.1179
  172SAPE  H12Y19469  -0.032   5.404   3.680  0.1292  1.5328 -1.8128
  172SAPE  C31319470  -0.205   5.434   3.807  0.4350  0.0317 -0.3562
  172SAPE  H13X19471  -0.219   5.324   3.811  1.7809 -0.1428  0.2425
  172SAPE  H13Y19472  -0.302   5.487   3.813  0.7450  0.4352  2.0298
  172SAPE  C31419473  -0.139   5.467   3.943 -0.7768  0.3285 -0.0192
  172SAPE  H14X19474  -0.147   5.578   3.950 -1.9450  0.2051  1.0110
  172SAPE  H14Y19475  -0.033   5.436   3.951 -1.4224 -2.2326 -0.5753
  172SAPE  C31519476  -0.219   5.412   4.058  0.4814  0.2126  0.1673
  172SAPE  H15X19477  -0.228   5.301   4.053 -0.8053  0.3794 -1.9711
  172SAPE  H15Y19478  -0.323   5.447   4.046 -0.3974 -2.8537 -2.6653
  172SAPE  C31619479  -0.191   5.458   4.205  0.5736  0.3861 -0.1083
  172SAPE  H16X19480  -0.175   5.567   4.199 -0.6657  0.7411  1.8779
  172SAPE  H16Y19481  -0.092   5.417   4.235 -0.2114 -1.2239  0.3881
  172SAPE  C31719482  -0.289   5.404   4.308 -0.0933  0.3878 -0.7515
  172SAPE  H17X19483  -0.313   5.298   4.287  1.6978 -0.2930  0.4009
  172SAPE  H17Y19484  -0.379   5.468   4.315 -0.8631 -0.8864  3.0158
  172SAPE  C31819485  -0.223   5.413   4.451 -0.1451  0.1237  0.0223
  172SAPE  H18X19486  -0.280   5.357   4.529  1.3403 -0.1727  0.9376
  172SAPE  H18Y19487  -0.218   5.520   4.481 -1.5777  0.2003  0.0621
  172SAPE  H18Z19488  -0.118   5.378   4.450  0.0294  0.5315  1.3704
  173SLPC     N19489   3.048   4.041   6.894 -0.5722 -0.6065  0.2640
  173SLPC   C1319490   3.170   4.076   6.981  0.5787 -1.2277  0.1074
  173SLPC  H13A19491   3.221   4.157   6.931 -0.0789 -1.2392 -0.5961
  173SLPC  H13B19492   3.141   4.120   7.076  1.6352 -0.0440 -0.0908
  173SLPC  H13C19493   3.235   3.993   7.007  0.0976 -1.1743  1.6132
  173SLPC   C1419494   2.971   4.169   6.865 -0.3128 -0.1296 -0.5151
  173SLPC  H14A19495   3.027   4.228   6.795 -0.1891  0.8297  0.3754
  173SLPC  H14B19496   2.883   4.141   6.809  0.5304 -1.8880 -1.0310
  173SLPC  H14C19497   2.946   4.218   6.958 -1.1093  0.4060 -1.0016
  173SLPC   C1519498   2.957   3.943   6.960  0.3543 -0.4086 -0.3637
  173SLPC  H15A19499   2.951   3.951   7.068 -3.1569 -0.6698 -0.4429
  173SLPC  H15B19500   2.857   3.935   6.921  1.0640 -4.1475 -1.8401
  173SLPC  H15C19501   3.009   3.849   6.953  3.3001  0.6456  3.5703
  173SLPC   C1219502   3.106   3.975   6.771  0.0539 -0.6562 -0.0572
  173SLPC  H12A19503   3.022   3.934   6.717 -0.3359  0.5301 -0.3671
  173SLPC  H12B19504   3.182   3.901   6.795  1.4015  0.4017 -0.8818
  173SLPC   C1119505   3.189   4.055   6.660 -0.2065  0.0446  0.3317
  173SLPC  H11A19506   3.124   4.134   6.619 -0.1065  0.4028  0.8526
  173SLPC  H11B19507   3.238   3.979   6.596  1.5459  1.4770 -0.0921
  173SLPC     P19508   3.346   4.260   6.688  0.2674 -0.1782  0.0280
  173SLPC   O1319509   3.258   4.363   6.746 -0.3429 -0.1688  0.1927
  173SLPC   O1419510   3.486   4.281   6.711 -0.4911 -0.9592 -0.4076
  173SLPC   O1219511   3.298   4.121   6.725  0.0240  0.6754 -0.0993
  173SLPC   O1119512   3.329   4.271   6.530  0.2404 -0.0944  0.1480
  173SLPC    C119513   3.403   4.199   6.438 -0.4069  0.1318  0.7931
  173SLPC    HA19514   3.502   4.248   6.425 -0.4485 -0.0407 -0.2550
  173SLPC    HB19515   3.419   4.100   6.486  0.2415  0.0795  0.4877
  173SLPC    C219516   3.335   4.179   6.298  0.3131 -0.7155 -0.0409
  173SLPC    HS19517   3.396   4.101   6.248  0.5980 -0.0942 -0.6819
  173SLPC   O2119518   3.320   4.306   6.231 -0.0301 -0.3418  0.3455
  173SLPC   C2119519   3.431   4.326   6.158  0.4488 -0.4752 -0.1960
  173SLPC   O2219520   3.519   4.241   6.144  0.2314  0.6306  0.2041
  173SLPC   C2219521   3.428   4.460   6.108 -0.2767  0.0128 -0.0590
  173SLPC   H2R19522   3.326   4.478   6.069  0.1578 -1.8479 -2.2974
  173SLPC   H2S19523   3.443   4.535   6.189  0.7755  0.9582 -1.1004
  173SLPC    C319524   3.193   4.129   6.312 -0.0530  0.6174 -1.0466
  173SLPC    HX19525   3.132   4.214   6.348 -0.6008 -1.3494  3.2733
  173SLPC    HY19526   3.187   4.057   6.396 -0.9245  2.0926  0.1918
  173SLPC   O3119527   3.156   4.063   6.186  0.0761 -0.4238 -0.3413
  173SLPC   C3119528   3.035   4.092   6.149  0.4757  0.4152 -0.0863
  173SLPC   O3219529   2.945   4.144   6.210 -0.1501 -0.0758 -0.7703
  173SLPC   C3219530   3.021   4.063   5.999  0.5682 -0.5408  0.0988
  173SLPC   H2X19531   3.050   3.957   5.985 -1.2041 -0.9054 -1.2270
  173SLPC   H2Y19532   3.088   4.131   5.942 -0.8947  0.4943 -0.4411
  173SLPC   C2319533   3.508   4.464   5.980  0.0086  0.3111 -0.1833
  173SLPC   H3R19534   3.498   4.376   5.913  1.1512  0.2016 -0.2274
  173SLPC   H3S19535   3.616   4.466   6.005 -0.2553 -2.6833  1.6994
  173SLPC   C2419536   3.493   4.593   5.894 -0.3211  0.3536  0.0773
  173SLPC   H4R19537   3.521   4.673   5.966  0.9557 -0.2902  0.3197
  173SLPC   H4S19538   3.390   4.629   5.877 -0.6529 -0.4475  0.3470
  173SLPC   C2519539   3.570   4.592   5.765 -0.2616  0.4375 -0.6509
  173SLPC   H5R19540   3.680   4.576   5.773 -0.2357  1.0489  0.5346
  173SLPC   H5S19541   3.578   4.700   5.741  0.1380  1.4219  3.1468
  173SLPC   C2619542   3.498   4.507   5.659  0.3090 -0.7313  0.4314
  173SLPC   H6R19543   3.392   4.541   5.651  0.5025 -0.1826  0.0921
  173SLPC   H6S19544   3.499   4.398   5.676  0.9692 -0.8343 -0.2225
  173SLPC   C2719545   3.557   4.525   5.513  0.0867  0.3036 -0.1191
  173SLPC   H7R19546   3.667   4.523   5.526 -0.0401 -0.7456  0.9770
  173SLPC   H7S19547   3.526   4.623   5.470  0.2485  0.5076  0.2183
  173SLPC   C2819548   3.519   4.414   5.407 -0.0935 -0.1301  0.0389
  173SLPC   H8R19549   3.408   4.410   5.419 -0.0136  1.6853  1.9126
  173SLPC   H8S19550   3.551   4.319   5.455 -2.6683 -0.0534  2.1747
  173SLPC   C2919551   3.554   4.434   5.264  0.0934 -0.1108  0.0107
  173SLPC   H9R19552   3.530   4.537   5.234 -0.2238 -0.2209 -0.1121
  173SLPC  C21019553   3.596   4.339   5.175 -0.4886  0.1212  0.4094
  173SLPC  H10R19554   3.616   4.376   5.074  0.3908 -0.5118  0.3405
  173SLPC  C21119555   3.638   4.201   5.212 -0.0844 -0.0921  0.1375
  173SLPC  H11R19556   3.592   4.136   5.134 -1.2782  1.3949 -0.4594
  173SLPC  H11S19557   3.598   4.166   5.309 -2.0476  1.4076 -0.0647
  173SLPC  C21219558   3.792   4.196   5.210 -0.0689  1.0026 -0.5675
  173SLPC  H12R19559   3.841   4.227   5.116  1.6784  0.8178  0.2471
  173SLPC  C21319560   3.871   4.159   5.316 -0.6443 -0.1577 -0.1677
  173SLPC  H13R19561   3.981   4.158   5.313 -0.6567  0.2306 -1.3692
  173SLPC  C21419562   3.818   4.121   5.455 -0.1501  0.1271  0.2926
  173SLPC  H14R19563   3.884   4.046   5.504  1.3722  0.7741 -0.7107
  173SLPC  H14S19564   3.710   4.093   5.454 -0.4765  1.0218  2.5045
  173SLPC  C21519565   3.824   4.240   5.557  0.7162 -0.0888 -0.5069
  173SLPC  H15R19566   3.756   4.324   5.529 -0.3368  0.0323  2.1385
  173SLPC  H15S19567   3.931   4.268   5.559  1.0934 -1.3992 -1.2047
  173SLPC  C21619568   3.794   4.187   5.701  0.2513  0.1287 -0.0799
  173SLPC  H16R19569   3.866   4.104   5.716  1.4660  1.1467 -0.0985
  173SLPC  H16S19570   3.692   4.146   5.709  0.1911 -0.1522 -1.8300
  173SLPC  C21719571   3.832   4.294   5.810  0.0133  0.0404  0.8239
  173SLPC  H17R19572   3.768   4.382   5.790  1.6012  1.1758  0.5597
  173SLPC  H17S19573   3.932   4.335   5.784 -0.2420 -0.8048 -1.7908
  173SLPC  C21819574   3.832   4.242   5.947  0.1576 -0.4892 -0.8422
  173SLPC  H18R19575   3.919   4.174   5.962  1.7813  1.8517  1.3065
  173SLPC  H18S19576   3.735   4.193   5.967  1.6152 -2.9074  0.8912
  173SLPC  H18T19577   3.859   4.329   6.011  0.3912  1.0817 -2.9803
  173SLPC   C3319578   2.875   4.092   5.949 -0.3479 -0.6167 -0.0847
  173SLPC   H3X19579   2.858   4.199   5.927 -0.0730 -0.9086 -1.8727
  173SLPC   H3Y19580   2.801   4.057   6.025 -0.3585  0.6961  0.5366
  173SLPC   C3419581   2.861   4.029   5.814  0.7011 -0.0549 -0.3866
  173SLPC   H4X19582   2.878   3.920   5.824 -1.1718 -0.3320  0.1153
  173SLPC   H4Y19583   2.928   4.078   5.740 -0.7659 -1.1114 -2.5428
  173SLPC   C3519584   2.718   4.074   5.764  0.1204  0.6482 -0.5203
  173SLPC   H5X19585   2.719   4.184   5.752  0.5314  0.7706  0.5160
  173SLPC   H5Y19586   2.653   4.042   5.848 -0.9174  0.3573 -1.4170
  173SLPC   C3619587   2.666   4.015   5.631 -0.4840  1.2213  0.5461
  173SLPC   H6X19588   2.562   4.047   5.607 -0.8383 -0.2024  0.1314
  173SLPC   H6Y19589   2.671   3.907   5.654 -1.2864  0.9948 -0.2939
  173SLPC   C3719590   2.763   4.029   5.506  0.1991 -0.7545  0.2456
  173SLPC   H7X19591   2.860   3.977   5.519  1.0610 -0.4165 -3.6038
  173SLPC   H7Y19592   2.806   4.131   5.506  2.4145 -1.6297 -0.7893
  173SLPC   C3819593   2.706   3.985   5.371  0.2346  0.1183  0.2516
  173SLPC   H8X19594   2.607   4.021   5.337 -1.3280 -1.5277  2.7345
  173SLPC   H8Y19595   2.696   3.875   5.380  0.7172 -0.1478 -1.8329
  173SLPC   C3919596   2.809   3.999   5.256  0.6953  0.1626  0.4167
  173SLPC   H9X19597   2.901   3.939   5.275  1.1193  0.0532 -1.7360
  173SLPC   H9Y19598   2.830   4.108   5.266  2.8585 -0.0604 -0.9376
  173SLPC  C31019599   2.755   3.975   5.111  0.2747 -0.2026  0.0635
  173SLPC  H10X19600   2.660   4.031   5.096  1.4633  3.1952  3.4249
  173SLPC  H10Y19601   2.735   3.873   5.072 -0.9743  0.3119 -0.7048
  173SLPC  C31119602   2.847   4.041   5.009  0.0495 -0.1921  0.5357
  173SLPC  H11X19603   2.946   3.997   4.983  1.2113  2.4711  0.0872
  173SLPC  H11Y19604   2.871   4.141   5.051 -0.6869  0.3017 -0.1875
  173SLPC  C31219605   2.769   4.059   4.877  0.5233  0.7737  0.5838
  173SLPC  H12X19606   2.813   4.153   4.837 -1.6435  1.4153 -0.4546
  173SLPC  H12Y19607   2.659   4.070   4.892  0.1570  0.9851 -1.8472
  173SLPC  C31319608   2.790   3.944   4.777  0.2351  0.4633  0.3392
  173SLPC  H13X19609   2.806   3.846   4.827  1.5852  0.5945  0.2185
  173SLPC  H13Y19610   2.887   3.963   4.726 -0.6130  3.0497 -0.4906
  173SLPC  C31419611   2.689   3.933   4.670 -0.6662 -1.2600 -0.1818
  173SLPC  H14X19612   2.650   4.037   4.662  1.9293 -0.3325 -2.7121
  173SLPC  H14Y19613   2.602   3.870   4.699 -1.7328  0.7078  1.1312
  173SLPC  C31519614   2.749   3.894   4.525  0.1325  0.5570 -0.4026
  173SLPC  H15X19615   2.830   3.965   4.499  0.8264 -0.3438 -0.7485
  173SLPC  H15Y19616   2.674   3.881   4.444 -0.0752 -2.4216  0.1729
  173SLPC  C31619617   2.806   3.749   4.523 -0.3180 -0.6836 -0.4566
  173SLPC  H16X19618   2.713   3.694   4.549  0.0426 -0.4032  1.5732
  173SLPC  H16Y19619   2.876   3.746   4.609 -0.9321  0.7272  0.1291
  173SLPC  C31719620   2.877   3.699   4.403  0.1850 -0.1390  0.2448
  173SLPC  H17X19621   2.976   3.749   4.394  1.6116 -2.7992  0.1652
  173SLPC  H17Y19622   2.818   3.722   4.311  3.2517 -0.6352 -1.9842
  173SLPC  C31819623   2.903   3.548   4.405 -0.1956 -0.7057 -0.3689
  173SLPC  H18X19624   2.979   3.522   4.482  1.0944  0.5254 -1.1642
  173SLPC  H18Y19625   2.952   3.511   4.312  1.3494  0.8253 -0.2198
  173SLPC  H18Z19626   2.815   3.495   4.446 -0.2355  1.4215  2.6216
  174SLPC     N19627   1.264   6.686   6.808  0.0937 -0.6812  0.2778
  174SLPC   C1319628   1.318   6.828   6.799  0.6319  0.8683 -0.3508
  174SLPC  H13A19629   1.266   6.890   6.728  0.3280  2.0300  0.8525
  174SLPC  H13B19630   1.291   6.877   6.891 -2.0923  2.0653 -1.6802
  174SLPC  H13C19631   1.425   6.823   6.783  0.5045 -1.7824 -0.9056
  174SLPC   C1419632   1.331   6.600   6.914 -0.2857 -0.0844 -0.4521
  174SLPC  H14A19633   1.295   6.498   6.909 -1.5017  0.1799  1.6518
  174SLPC  H14B19634   1.439   6.603   6.909 -0.0541 -1.7322  2.1625
  174SLPC  H14C19635   1.325   6.638   7.015  0.0345 -1.5142  0.1217
  174SLPC   C1519636   1.296   6.620   6.678 -0.7976 -0.0021 -0.5246
  174SLPC  H15A19637   1.266   6.685   6.597  0.8398  2.8507  0.9952
  174SLPC  H15B19638   1.403   6.603   6.673 -0.8997 -1.7240  1.4585
  174SLPC  H15C19639   1.244   6.526   6.666  0.7333 -0.6609 -2.7038
  174SLPC   C1219640   1.114   6.676   6.824 -0.2871 -0.5456  0.0980
  174SLPC  H12A19641   1.095   6.699   6.928 -0.1462  0.2022 -0.0358
  174SLPC  H12B19642   1.092   6.571   6.809  2.3374 -0.9937 -1.2197
  174SLPC   C1119643   1.024   6.760   6.744  0.1539 -1.1793  0.2485
  174SLPC  H11A19644   0.926   6.709   6.740  0.3330 -1.4938 -0.2258
  174SLPC  H11B19645   1.039   6.777   6.635 -1.4099 -1.0335  0.0307
  174SLPC     P19646   1.037   7.019   6.754 -0.0516 -0.6744  0.2693
  174SLPC   O1319647   0.907   7.061   6.692  0.5465  0.0131  0.2651
  174SLPC   O1419648   1.095   7.099   6.865  0.3890 -0.2628  0.2872
  174SLPC   O1219649   1.011   6.878   6.822  0.4878 -0.2619 -0.1683
  174SLPC   O1119650   1.144   6.992   6.641 -0.1757  0.2967  0.4332
  174SLPC    C119651   1.215   7.092   6.573 -0.3413 -0.3885 -0.0400
  174SLPC    HA19652   1.223   7.184   6.634  0.9544  0.1839 -1.0247
  174SLPC    HB19653   1.320   7.055   6.564 -1.1716 -2.4430 -2.2419
  174SLPC    C219654   1.151   7.117   6.434 -0.1957  0.0427 -0.2135
  174SLPC    HS19655   1.042   7.134   6.445 -0.4074  1.4392 -3.5122
  174SLPC   O2119656   1.185   7.005   6.342 -0.2555  0.6367  0.0520
  174SLPC   C2119657   1.092   6.923   6.285 -0.1690  0.3930 -0.7889
  174SLPC   O2219658   0.969   6.932   6.299  0.2036 -0.2169 -0.1550
  174SLPC   C2219659   1.164   6.811   6.211 -0.2766 -0.2592  0.1666
  174SLPC   H2R19660   1.274   6.818   6.225 -0.2515  1.0251 -0.5221
  174SLPC   H2S19661   1.109   6.721   6.248 -0.3271 -0.2770  0.0486
  174SLPC    C319662   1.213   7.251   6.382  0.3851 -1.0721  0.2755
  174SLPC    HX19663   1.320   7.228   6.364  0.8878  1.1970  0.0440
  174SLPC    HY19664   1.204   7.326   6.463  0.7111  1.0407 -1.5448
  174SLPC   O3119665   1.147   7.293   6.260  0.1537  0.1658 -0.6815
  174SLPC   C3119666   1.038   7.371   6.276 -0.3470  0.3946  0.2632
  174SLPC   O3219667   0.986   7.394   6.385 -0.1597  0.0019  0.2286
  174SLPC   C3219668   0.981   7.418   6.141  0.3662 -0.8488  0.3377
  174SLPC   H2X19669   0.988   7.529   6.131  0.1380 -0.8787 -0.1719
  174SLPC   H2Y19670   0.871   7.404   6.147 -0.0489  1.6074 -0.4354
  174SLPC   C2319671   1.148   6.829   6.051 -0.2346 -0.1435 -0.6406
  174SLPC   H3R19672   1.195   6.925   6.022  1.8803 -0.4375  1.5057
  174SLPC   H3S19673   1.039   6.818   6.029 -0.3842 -1.0588  0.4776
  174SLPC   C2419674   1.230   6.724   5.969  0.7356  0.2843 -0.9833
  174SLPC   H4R19675   1.194   6.622   5.997 -0.2650  0.7913 -0.3905
  174SLPC   H4S19676   1.336   6.736   5.998  0.3058  1.2143  0.2666
  174SLPC   C2519677   1.202   6.735   5.818 -0.9125 -0.5859 -0.4055
  174SLPC   H5R19678   1.162   6.833   5.785  0.7079  0.7164  1.2871
  174SLPC   H5S19679   1.129   6.653   5.801 -1.3551 -0.5418  1.1627
  174SLPC   C2619680   1.325   6.706   5.724 -0.3658  1.0995 -0.0327
  174SLPC   H6R19681   1.334   6.596   5.737 -0.4733  1.1042  0.0882
  174SLPC   H6S19682   1.421   6.755   5.750  0.6102 -0.7038 -0.1364
  174SLPC   C2719683   1.288   6.745   5.575  0.2556  0.1272 -0.6567
  174SLPC   H7R19684   1.384   6.720   5.526  0.8823 -0.1321  0.6707
  174SLPC   H7S19685   1.286   6.856   5.564 -0.2633  0.1502 -0.3899
  174SLPC   C2819686   1.173   6.688   5.499  0.3445 -0.1474  0.2754
  174SLPC   H8R19687   1.160   6.757   5.413 -1.2397  0.3154  0.8421
  174SLPC   H8S19688   1.083   6.694   5.564  0.2633  1.7810  0.0389
  174SLPC   C2919689   1.203   6.547   5.464  0.3069 -0.6344  0.0513
  174SLPC   H9R19690   1.194   6.476   5.548 -0.6034 -1.1188 -0.4350
  174SLPC  C21019691   1.233   6.498   5.346  0.1233  0.4683  0.2689
  174SLPC  H10R19692   1.257   6.391   5.346 -1.0339  0.1707 -1.4190
  174SLPC  C21119693   1.246   6.570   5.214  0.3371  0.0251 -0.9891
  174SLPC  H11R19694   1.244   6.680   5.234 -3.7621 -0.2507  1.2625
  174SLPC  H11S19695   1.157   6.551   5.150 -0.6048 -0.0751  0.2907
  174SLPC  C21219696   1.380   6.543   5.150 -0.1398 -0.8638 -0.1894
  174SLPC  H12R19697   1.460   6.608   5.187 -0.3970  0.1010 -1.2525
  174SLPC  C21319698   1.409   6.441   5.065  0.1032 -0.0047 -0.1336
  174SLPC  H13R19699   1.509   6.433   5.018  1.5896  1.4297  2.5470
  174SLPC  C21419700   1.312   6.330   5.017  0.5357  0.1158 -0.8150
  174SLPC  H14R19701   1.297   6.349   4.909  0.3267  0.5614 -0.7102
  174SLPC  H14S19702   1.208   6.336   5.056 -0.3724 -1.4880 -2.8458
  174SLPC  C21519703   1.357   6.192   5.044  0.2477  0.8291  0.3282
  174SLPC  H15R19704   1.273   6.129   5.007  0.5826  0.8842 -0.5535
  174SLPC  H15S19705   1.364   6.181   5.154 -1.4482  0.7560  0.4504
  174SLPC  C21619706   1.486   6.138   4.974 -0.0458  0.7314  0.7011
  174SLPC  H16R19707   1.574   6.188   5.019 -0.8658 -0.0021  3.3171
  174SLPC  H16S19708   1.488   6.161   4.866  0.8155  2.1118  0.9892
  174SLPC  C21719709   1.515   5.983   4.996  0.0948 -0.1430  0.5866
  174SLPC  H17R19710   1.619   5.972   4.959 -0.4405 -0.9049 -0.7766
  174SLPC  H17S19711   1.442   5.935   4.927 -0.8457  3.3605 -1.1237
  174SLPC  C21819712   1.501   5.931   5.137  0.3551  0.0981 -0.3478
  174SLPC  H18R19713   1.580   5.977   5.201 -0.9236  0.5754  0.9341
  174SLPC  H18S19714   1.509   5.820   5.133 -0.4457  0.0217 -4.2033
  174SLPC  H18T19715   1.403   5.960   5.181  1.5708  1.7173  1.4452
  174SLPC   C3319716   1.033   7.340   6.024 -0.1635  0.5743  0.5136
  174SLPC   H3X19717   1.013   7.231   6.030 -1.1437  0.8019  1.6367
  174SLPC   H3Y19718   1.143   7.345   6.007 -0.4493 -0.2723 -2.0537
  174SLPC   C3419719   0.962   7.387   5.898  0.5400  0.3346 -0.3932
  174SLPC   H4X19720   0.956   7.498   5.890  0.3059  0.2554 -1.5205
  174SLPC   H4Y19721   0.856   7.357   5.905 -0.0225  2.1651 -0.4284
  174SLPC   C3519722   1.026   7.341   5.761  0.6056 -0.5205 -0.2039
  174SLPC   H5X19723   1.029   7.231   5.770  1.1772 -0.4693  0.3211
  174SLPC   H5Y19724   1.130   7.379   5.773  0.6383 -0.6219 -0.1696
  174SLPC   C3619725   0.965   7.380   5.631 -0.1746 -1.8056 -0.7474
  174SLPC   H6X19726   0.986   7.488   5.616 -4.3837 -0.4355  1.5274
  174SLPC   H6Y19727   0.854   7.366   5.630 -0.8594  2.0901 -4.0896
  174SLPC   C3719728   1.021   7.293   5.516  0.5717 -0.8735  0.0456
  174SLPC   H7X19729   1.021   7.191   5.560  1.0767  0.6785  4.0866
  174SLPC   H7Y19730   1.128   7.320   5.500  0.7021 -1.1660  0.3993
  174SLPC   C3819731   0.953   7.282   5.384 -0.5057  0.2450 -0.4368
  174SLPC   H8X19732   0.854   7.241   5.412  0.0924  0.5195  2.4879
  174SLPC   H8Y19733   1.015   7.217   5.318 -1.9696  0.5568 -2.1714
  174SLPC   C3919734   0.933   7.418   5.318 -0.1382 -0.5113  0.3998
  174SLPC   H9X19735   1.028   7.475   5.305 -0.2092  0.1748  2.5335
  174SLPC   H9Y19736   0.881   7.482   5.392 -0.0750  1.9894 -1.5588
  174SLPC  C31019737   0.864   7.426   5.173 -0.1158 -0.2937 -0.1900
  174SLPC  H10X19738   0.849   7.534   5.151 -1.3397 -0.4678 -0.2954
  174SLPC  H10Y19739   0.760   7.388   5.179 -0.0552 -0.4114  0.1302
  174SLPC  C31119740   0.954   7.364   5.066  0.0853 -0.0778  0.2317
  174SLPC  H11X19741   0.955   7.257   5.096 -1.1427  0.8205  3.9786
  174SLPC  H11Y19742   1.057   7.404   5.076  0.1767 -0.5916  1.6248
  174SLPC  C31219743   0.904   7.346   4.927  0.5632 -0.4290 -0.7453
  174SLPC  H12X19744   0.888   7.442   4.873 -2.9300 -0.2955  0.2202
  174SLPC  H12Y19745   0.804   7.299   4.916 -0.6933  2.3753 -2.5597
  174SLPC  C31319746   1.006   7.263   4.841 -0.0146 -0.2926 -0.3013
  174SLPC  H13X19747   1.040   7.172   4.896 -2.5601 -1.5532 -0.6683
  174SLPC  H13Y19748   1.094   7.328   4.824  0.1938 -0.5952 -0.3918
  174SLPC  C31419749   0.946   7.208   4.711  0.4326  0.1031  0.4753
  174SLPC  H14X19750   0.867   7.133   4.732  0.6188 -0.5471 -1.0771
  174SLPC  H14Y19751   1.025   7.150   4.659  0.0084  0.4870 -0.6235
  174SLPC  C31519752   0.894   7.319   4.616  0.4035 -0.4149 -0.1602
  174SLPC  H15X19753   0.980   7.384   4.591 -0.1318  0.6303  0.6125
  174SLPC  H15Y19754   0.813   7.378   4.663 -0.4401 -0.6969 -1.2225
  174SLPC  C31619755   0.844   7.261   4.487  0.2510  0.1133  0.1620
  174SLPC  H16X19756   0.781   7.336   4.434 -0.3540  0.2270  1.0198
  174SLPC  H16Y19757   0.778   7.175   4.510  1.0580 -0.6789 -0.4328
  174SLPC  C31719758   0.967   7.222   4.400  0.1593 -0.0290 -0.7369
  174SLPC  H17X19759   1.038   7.155   4.452  0.3397  0.7536  0.0348
  174SLPC  H17Y19760   1.025   7.307   4.358  1.3927 -0.3184  0.3097
  174SLPC  C31819761   0.920   7.137   4.280 -0.0300 -0.8325 -0.2975
  174SLPC  H18X19762   0.841   7.194   4.226 -1.2548 -3.4621 -1.4615
  174SLPC  H18Y19763   0.875   7.042   4.313  0.5753 -0.9847  0.1136
  174SLPC  H18Z19764   1.010   7.117   4.219  0.6505 -1.3887  0.8562
  175SLPC     N19765   1.573   2.819   7.074 -0.8959 -0.4050  0.2911
  175SLPC   C1319766   1.450   2.872   7.141  0.2259  0.3819  0.2089
  175SLPC  H13A19767   1.387   2.791   7.174 -0.5421  1.2350  0.9044
  175SLPC  H13B19768   1.476   2.928   7.230  0.5083 -0.1056  0.4312
  175SLPC  H13C19769   1.384   2.938   7.086  0.3306 -0.3513 -0.8184
  175SLPC   C1419770   1.654   2.730   7.170  0.7111  0.0506  0.4573
  175SLPC  H14A19771   1.714   2.788   7.238 -0.3452  1.2170  0.4405
  175SLPC  H14B19772   1.583   2.669   7.225  0.8320 -0.9581 -0.4853
  175SLPC  H14C19773   1.715   2.665   7.110  1.4512 -0.3657  1.6301
  175SLPC   C1519774   1.680   2.929   7.049 -0.9616 -0.2736 -0.0004
  175SLPC  H15A19775   1.698   2.975   7.145 -0.6655  0.4222 -0.3848
  175SLPC  H15B19776   1.773   2.881   7.022 -0.1562 -0.5970  3.0617
  175SLPC  H15C19777   1.641   2.996   6.973 -1.9018  0.7651  1.3577
  175SLPC   C1219778   1.544   2.751   6.941  0.5280  0.1502  0.4479
  175SLPC  H12A19779   1.532   2.821   6.860 -0.1727 -1.2131 -0.6557
  175SLPC  H12B19780   1.445   2.709   6.936 -0.2346  1.7798  1.1741
  175SLPC   C1119781   1.659   2.668   6.879  0.2857  0.2997 -1.0868
  175SLPC  H11A19782   1.608   2.622   6.792  1.1486 -2.8635 -0.0572
  175SLPC  H11B19783   1.686   2.587   6.949 -0.9628  0.3156 -0.5784
  175SLPC     P19784   1.813   2.771   6.687  0.1206  0.1260 -0.2688
  175SLPC   O1319785   1.713   2.858   6.622 -0.6879 -0.3079  0.6490
  175SLPC   O1419786   1.950   2.819   6.686 -0.2108 -0.4130 -0.0611
  175SLPC   O1219787   1.768   2.752   6.841  0.6400 -0.6263  0.0812
  175SLPC   O1119788   1.800   2.624   6.628  0.0198 -0.1938 -0.3923
  175SLPC    C119789   1.889   2.523   6.668  0.6260 -0.3768  0.6661
  175SLPC    HA19790   1.916   2.528   6.776  2.2312  1.2822  0.2292
  175SLPC    HB19791   1.838   2.426   6.647 -1.7522  0.8162  0.6224
  175SLPC    C219792   2.018   2.508   6.588  0.2154 -1.2698 -0.2445
  175SLPC    HS19793   2.085   2.589   6.623 -0.4642 -0.3422 -1.0633
  175SLPC   O2119794   1.988   2.536   6.447 -0.3290 -0.1189 -0.3505
  175SLPC   C2119795   2.062   2.626   6.381 -0.0810 -0.0333 -0.5212
  175SLPC   O2219796   2.167   2.675   6.421 -0.1389  0.2885  0.5713
  175SLPC   C2219797   2.006   2.655   6.249  0.6557  0.4737  0.4399
  175SLPC   H2R19798   1.898   2.664   6.273  0.9259  2.3824  1.1525
  175SLPC   H2S19799   2.044   2.755   6.219 -0.2415  0.1762 -1.8875
  175SLPC    C319800   2.078   2.371   6.607 -1.1385  0.4157  0.1731
  175SLPC    HX19801   2.000   2.308   6.558 -2.5661  0.3101  2.4119
  175SLPC    HY19802   2.084   2.346   6.715 -0.0488 -1.3111 -0.2482
  175SLPC   O3119803   2.209   2.346   6.549  0.0270  0.0356  0.0033
  175SLPC   C3119804   2.307   2.407   6.612  0.4472  0.7420  0.3553
  175SLPC   O3219805   2.293   2.467   6.720  0.6202 -0.2959 -0.7860
  175SLPC   C3219806   2.427   2.408   6.521 -0.4739 -0.3926  0.3214
  175SLPC   H2X19807   2.457   2.303   6.498  2.3933  0.4331 -0.1395
  175SLPC   H2Y19808   2.505   2.456   6.583 -0.0852  0.2721 -0.6555
  175SLPC   C2319809   2.035   2.546   6.147  0.1764 -0.1722 -0.0742
  175SLPC   H3R19810   1.972   2.456   6.166 -2.7328  1.7789  0.2139
  175SLPC   H3S19811   2.144   2.527   6.147  0.2732  0.1295 -2.5529
  175SLPC   C2419812   1.993   2.596   6.007  0.3040 -0.3601 -0.1992
  175SLPC   H4R19813   2.044   2.693   5.990  0.7991 -0.2742  1.6636
  175SLPC   H4S19814   1.883   2.615   6.010  0.3947  0.1079  0.1012
  175SLPC   C2519815   2.007   2.487   5.901 -0.1553 -0.9114  0.0348
  175SLPC   H5R19816   1.912   2.430   5.907 -1.0569  0.2673 -2.1113
  175SLPC   H5S19817   2.092   2.419   5.923  1.7399  0.6058 -2.1812
  175SLPC   C2619818   2.007   2.533   5.756 -0.4395 -0.9573 -0.0726
  175SLPC   H6R19819   1.899   2.537   5.730 -0.7700 -2.0198  1.0374
  175SLPC   H6S19820   2.061   2.452   5.701  0.8850 -0.0109 -0.2189
  175SLPC   C2719821   2.075   2.675   5.735  0.1190  0.1036  0.1497
  175SLPC   H7R19822   2.168   2.664   5.796  0.1719 -0.5217 -0.0277
  175SLPC   H7S19823   2.019   2.754   5.790 -0.3799 -0.0270 -0.1710
  175SLPC   C2819824   2.094   2.721   5.587 -0.3512  0.9347 -0.0411
  175SLPC   H8R19825   2.146   2.819   5.599  0.6639  0.2031  2.0664
  175SLPC   H8S19826   1.998   2.725   5.532 -0.8386  2.0333  0.8590
  175SLPC   C2919827   2.184   2.621   5.516  0.1468 -1.4170  0.2656
  175SLPC   H9R19828   2.283   2.613   5.564  1.2755 -0.3694 -1.7823
  175SLPC  C21019829   2.163   2.543   5.414 -0.4704 -0.2352 -0.0081
  175SLPC  H10R19830   2.247   2.500   5.357 -1.0617 -1.4282 -0.0079
  175SLPC  C21119831   2.034   2.514   5.340  0.4214  0.6384 -0.6214
  175SLPC  H11R19832   1.941   2.509   5.402  0.8526  1.1051  0.0749
  175SLPC  H11S19833   2.033   2.407   5.310 -0.8093  1.0937 -2.3553
  175SLPC  C21219834   1.992   2.602   5.225  0.4833  0.2628  0.2573
  175SLPC  H12R19835   1.927   2.687   5.250 -0.4815 -0.9148  1.9110
  175SLPC  C21319836   2.006   2.575   5.094 -0.0086  0.4145  0.1281
  175SLPC  H13R19837   1.976   2.651   5.020 -0.5881  3.2642  3.0587
  175SLPC  C21419838   2.081   2.452   5.043 -0.2790  0.2538  0.3649
  175SLPC  H14R19839   2.021   2.392   4.971 -0.7876  1.3814 -0.1808
  175SLPC  H14S19840   2.123   2.390   5.124 -1.7584 -1.3110  0.0076
  175SLPC  C21519841   2.205   2.499   4.964  0.1364 -0.7176  0.1029
  175SLPC  H15R19842   2.279   2.549   5.030  0.2710 -0.2152 -0.4103
  175SLPC  H15S19843   2.175   2.579   4.893 -0.2672  0.1683  1.2529
  175SLPC  C21619844   2.268   2.386   4.884 -0.1614 -0.2476  0.3660
  175SLPC  H16R19845   2.193   2.348   4.811  0.3027 -0.1276 -0.1785
  175SLPC  H16S19846   2.309   2.307   4.951  0.7985 -2.9864 -3.1252
  175SLPC  C21719847   2.390   2.433   4.798 -0.1180  0.1004 -0.3800
  175SLPC  H17R19848   2.455   2.510   4.844 -0.3763  0.1964 -0.1727
  175SLPC  H17S19849   2.342   2.472   4.706 -0.6485 -3.0095 -1.5539
  175SLPC  C21819850   2.483   2.316   4.776 -0.1946 -0.0235  0.1466
  175SLPC  H18R19851   2.536   2.291   4.870  0.1791  1.4539  0.3528
  175SLPC  H18S19852   2.554   2.342   4.694 -0.5574  0.8642  0.1021
  175SLPC  H18T19853   2.429   2.224   4.744 -0.9128  0.0413  1.1276
  175SLPC   C3319854   2.408   2.482   6.390 -0.0544 -0.4909 -0.3752
  175SLPC   H3X19855   2.398   2.589   6.418  0.2604  0.1589 -2.5640
  175SLPC   H3Y19856   2.316   2.452   6.336  0.0943 -0.3133 -0.7296
  175SLPC   C3419857   2.525   2.481   6.295 -0.0814  0.0954  0.5093
  175SLPC   H4X19858   2.612   2.529   6.343  1.6076 -1.7889 -0.5275
  175SLPC   H4Y19859   2.500   2.532   6.199 -3.1642 -0.3431  0.9682
  175SLPC   C3519860   2.567   2.335   6.265  0.2796  0.0328 -0.7487
  175SLPC   H5X19861   2.480   2.268   6.249  0.4848 -1.2661  2.7110
  175SLPC   H5Y19862   2.629   2.294   6.348 -1.7513 -0.4027  0.6254
  175SLPC   C3619863   2.666   2.315   6.147 -0.4983 -0.5599  0.6580
  175SLPC   H6X19864   2.754   2.379   6.170 -1.0509 -0.2238  1.9539
  175SLPC   H6Y19865   2.624   2.350   6.051 -1.7521  1.3512  1.8248
  175SLPC   C3719866   2.708   2.174   6.144  0.7224 -0.3963 -0.0646
  175SLPC   H7X19867   2.624   2.104   6.121  1.0665 -1.1333  0.8744
  175SLPC   H7Y19868   2.730   2.145   6.249 -1.5384  0.9601  0.8690
  175SLPC   C3819869   2.829   2.140   6.057 -0.5707 -0.1978  0.4318
  175SLPC   H8X19870   2.847   2.034   6.085 -2.4704 -0.6049  0.2443
  175SLPC   H8Y19871   2.914   2.206   6.087 -0.8772 -0.7985  2.8582
  175SLPC   C3919872   2.801   2.147   5.907  0.1171  0.6852 -0.2772
  175SLPC   H9X19873   2.890   2.123   5.844  1.9883 -1.6792  2.9898
  175SLPC   H9Y19874   2.776   2.250   5.874 -1.8219  0.3973  0.1361
  175SLPC  C31019875   2.688   2.054   5.848 -0.7991 -0.1375 -0.4654
  175SLPC  H10X19876   2.593   2.085   5.899 -0.8028 -1.7350  0.5773
  175SLPC  H10Y19877   2.711   1.950   5.879  0.7759 -0.0062 -1.1214
  175SLPC  C31119878   2.673   2.068   5.695 -0.2905  0.1052  0.4160
  175SLPC  H11X19879   2.671   2.175   5.668 -0.2933 -0.4793 -2.1164
  175SLPC  H11Y19880   2.573   2.033   5.661  0.4700 -1.0035 -0.7743
  175SLPC  C31219881   2.786   1.987   5.630  0.2121  0.7730  0.7634
  175SLPC  H12X19882   2.798   1.889   5.681 -2.8032 -0.5555 -0.8353
  175SLPC  H12Y19883   2.876   2.052   5.629 -0.4370  1.7286 -0.9256
  175SLPC  C31319884   2.753   1.956   5.484 -0.4207  0.2954 -0.1949
  175SLPC  H13X19885   2.695   2.038   5.436 -1.0463 -0.4168 -0.6825
  175SLPC  H13Y19886   2.678   1.874   5.477 -0.0892  0.0985 -1.6536
  175SLPC  C31419887   2.881   1.927   5.403  0.3795  0.4391  0.1493
  175SLPC  H14X19888   2.955   1.868   5.461  1.0992 -0.7517 -1.8523
  175SLPC  H14Y19889   2.932   2.025   5.386  1.2191  0.1047  0.6653
  175SLPC  C31519890   2.855   1.840   5.283  0.1719  0.4597  0.4591
  175SLPC  H15X19891   2.786   1.896   5.217  0.8288 -1.1366 -1.6959
  175SLPC  H15Y19892   2.801   1.745   5.304  1.0577 -0.4843 -1.3692
  175SLPC  C31619893   2.992   1.817   5.213  0.4902  0.1359  0.3266
  175SLPC  H16X19894   3.071   1.784   5.283  1.7585  2.5448  0.1598
  175SLPC  H16Y19895   3.022   1.917   5.176 -0.3024 -0.4939 -2.2259
  175SLPC  C31719896   2.983   1.716   5.093 -0.2053 -0.2380  0.8276
  175SLPC  H17X19897   3.076   1.724   5.032 -0.6970  0.1676  0.1198
  175SLPC  H17Y19898   2.904   1.746   5.021  1.3231 -1.3610 -1.4392
  175SLPC  C31819899   2.973   1.571   5.122 -0.4443  0.5857 -0.2100
  175SLPC  H18X19900   2.877   1.530   5.085 -1.7765  2.2781  1.2183
  175SLPC  H18Y19901   2.985   1.557   5.232  0.3935  4.1647  0.2788
  175SLPC  H18Z19902   3.051   1.512   5.069  0.7471  1.0714  0.9271
  176SLPC     N19903   5.072   5.344   6.992 -0.2250  0.1347 -0.5431
  176SLPC   C1319904   5.004   5.273   7.110  0.4798 -0.3208 -0.2097
  176SLPC  H13A19905   4.958   5.352   7.166  0.1108  0.2141 -1.2428
  176SLPC  H13B19906   4.932   5.200   7.073 -2.5723  0.3984  3.6700
  176SLPC  H13C19907   5.080   5.224   7.168  1.3596 -1.1927 -2.0066
  176SLPC   C1419908   5.161   5.459   7.033 -0.3006  0.3825  0.0713
  176SLPC  H14A19909   5.196   5.502   6.940  0.4872  1.5892  0.9062
  176SLPC  H14B19910   5.102   5.533   7.084 -2.2028 -0.6392 -0.5290
  176SLPC  H14C19911   5.245   5.418   7.087  1.0094  0.6748 -1.6281
  176SLPC   C1519912   4.968   5.402   6.903 -0.4794 -0.1615  0.5179
  176SLPC  H15A19913   4.910   5.323   6.859  0.2807 -2.0346  2.6513
  176SLPC  H15B19914   4.896   5.457   6.963  0.7244 -0.0716  1.9434
  176SLPC  H15C19915   5.003   5.465   6.823  1.0394 -0.8321  0.6208
  176SLPC   C1219916   5.152   5.241   6.929 -0.2893  0.5542  0.6653
  176SLPC  H12A19917   5.077   5.167   6.905  1.6903 -1.8973  1.6093
  176SLPC  H12B19918   5.215   5.191   7.000 -0.5285 -2.2072 -0.9064
  176SLPC   C1119919   5.234   5.263   6.806 -0.0535  0.0816  0.4125
  176SLPC  H11A19920   5.178   5.336   6.744 -0.3759 -0.2487  0.3124
  176SLPC  H11B19921   5.246   5.167   6.751 -0.0282 -0.3293  1.1195
  176SLPC     P19922   5.482   5.259   6.886 -0.5965  0.0311  0.2413
  176SLPC   O1319923   5.567   5.356   6.959 -0.5875 -0.7170  0.3426
  176SLPC   O1419924   5.441   5.138   6.962  0.5876 -0.5494 -0.0084
  176SLPC   O1219925   5.353   5.330   6.835 -0.5303 -0.0986  0.1294
  176SLPC   O1119926   5.548   5.206   6.751  0.0333 -0.3430  0.1507
  176SLPC    C119927   5.555   5.278   6.626  0.0680  0.6357 -0.5432
  176SLPC    HA19928   5.531   5.385   6.643 -0.7182  0.9433 -3.1287
  176SLPC    HB19929   5.659   5.285   6.589  0.0440 -1.1393 -1.0354
  176SLPC    C219930   5.460   5.221   6.516  0.0043 -0.2533 -1.1436
  176SLPC    HS19931   5.353   5.240   6.538 -0.0271 -2.8484  1.6250
  176SLPC   O2119932   5.474   5.078   6.512  0.4121 -0.1454 -0.1282
  176SLPC   C2119933   5.371   4.994   6.495 -0.2707 -0.5427 -0.8711
  176SLPC   O2219934   5.251   5.022   6.502 -0.1324  0.1148  0.3298
  176SLPC   C2219935   5.427   4.869   6.443  0.1312  0.5540  0.3515
  176SLPC   H2R19936   5.505   4.878   6.364  2.8211 -0.0761  2.7645
  176SLPC   H2S19937   5.476   4.821   6.531 -0.9876  0.2032  0.8069
  176SLPC    C319938   5.494   5.283   6.373 -0.1570 -0.1424  0.0596
  176SLPC    HX19939   5.603   5.284   6.352 -0.2689 -0.7329 -0.5876
  176SLPC    HY19940   5.458   5.387   6.361  0.5793 -0.0081 -1.1312
  176SLPC   O3119941   5.434   5.216   6.258 -0.7254  1.0445  0.3187
  176SLPC   C3119942   5.315   5.242   6.217  0.0856 -0.3602 -0.7076
  176SLPC   O3219943   5.223   5.287   6.285 -1.1458 -0.3840 -0.2909
  176SLPC   C3219944   5.295   5.207   6.070 -0.1759  0.8410  0.3618
  176SLPC   H2X19945   5.185   5.210   6.060 -0.1144  0.0815 -0.6973
  176SLPC   H2Y19946   5.336   5.104   6.076 -1.9795  0.1263  1.2175
  176SLPC   C2319947   5.318   4.776   6.374 -0.5873 -0.0483  0.4420
  176SLPC   H3R19948   5.228   4.771   6.440 -0.5664  1.6161  0.6408
  176SLPC   H3S19949   5.361   4.675   6.360 -0.2005  0.3610 -1.6325
  176SLPC   C2419950   5.283   4.831   6.235  0.5091  0.2460  0.7707
  176SLPC   H4R19951   5.328   4.931   6.218 -1.7771  0.9491 -2.0436
  176SLPC   H4S19952   5.175   4.836   6.210  0.3410 -0.7942  1.2167
  176SLPC   C2519953   5.331   4.726   6.125  0.1668  0.0272  0.4433
  176SLPC   H5R19954   5.308   4.621   6.152  0.4119 -0.0128  0.5033
  176SLPC   H5S19955   5.440   4.738   6.109  0.0476  1.4567  0.6017
  176SLPC   C2619956   5.274   4.757   5.987  0.1689  0.3870  0.0128
  176SLPC   H6R19957   5.322   4.852   5.955  0.2686 -0.1201 -1.4548
  176SLPC   H6S19958   5.166   4.779   6.002  0.0529 -0.6092  0.7359
  176SLPC   C2719959   5.288   4.639   5.885 -0.4851 -0.0262 -0.4353
  176SLPC   H7R19960   5.219   4.557   5.914 -1.0597  0.1397 -1.3083
  176SLPC   H7S19961   5.391   4.600   5.897 -0.6921 -0.2461  0.7486
  176SLPC   C2819962   5.270   4.685   5.740 -0.2584 -0.4779 -0.2679
  176SLPC   H8R19963   5.321   4.614   5.671  0.8741 -1.2009  1.2740
  176SLPC   H8S19964   5.320   4.785   5.733 -4.0549  1.6332  0.2379
  176SLPC   C2919965   5.125   4.716   5.709  0.1064  0.7149 -0.0400
  176SLPC   H9R19966   5.061   4.746   5.792 -0.4934 -0.0232 -0.2206
  176SLPC  C21019967   5.072   4.723   5.585 -0.1397 -0.3745 -0.1413
  176SLPC  H10R19968   4.964   4.742   5.574  0.0809  1.9627  1.0610
  176SLPC  C21119969   5.138   4.702   5.455 -0.0476 -0.1900  0.1515
  176SLPC  H11R19970   5.102   4.606   5.413 -0.2296  0.4971 -1.3213
  176SLPC  H11S19971   5.248   4.691   5.461 -0.0421 -2.0992 -2.0614
  176SLPC  C21219972   5.088   4.810   5.359 -0.3206  0.7110 -0.1075
  176SLPC  H12R19973   4.979   4.805   5.346 -0.1682 -0.7520 -1.0437
  176SLPC  C21319974   5.157   4.890   5.275 -1.0654 -0.7335 -0.9778
  176SLPC  H13R19975   5.097   4.951   5.206 -0.7671 -0.3368 -0.8919
  176SLPC  C21419976   5.311   4.910   5.269 -0.0398  0.3417  0.1426
  176SLPC  H14R19977   5.347   4.885   5.371 -2.1726 -1.2410  0.5871
  176SLPC  H14S19978   5.340   5.016   5.255 -0.6539  0.8018  2.1196
  176SLPC  C21519979   5.398   4.821   5.168  0.4205 -0.9827 -0.3247
  176SLPC  H15R19980   5.361   4.719   5.188 -0.5464 -0.5410  0.1955
  176SLPC  H15S19981   5.507   4.830   5.188  0.5081  0.1484 -1.1673
  176SLPC  C21619982   5.376   4.854   5.016  0.0691 -0.0482  0.0254
  176SLPC  H16R19983   5.400   4.960   4.993  1.2300 -0.3998 -0.4706
  176SLPC  H16S19984   5.275   4.843   4.971  0.4952  0.0523 -0.9986
  176SLPC  C21719985   5.469   4.772   4.924 -0.5057 -0.1049 -0.6755
  176SLPC  H17R19986   5.464   4.676   4.980 -0.3330  0.9483  1.2113
  176SLPC  H17S19987   5.568   4.820   4.937 -0.9708  0.7317 -0.1676
  176SLPC  C21819988   5.428   4.757   4.785  0.6704  1.1317  0.5570
  176SLPC  H18R19989   5.408   4.857   4.740  0.7419  0.1015 -1.9102
  176SLPC  H18S19990   5.336   4.696   4.771 -0.3074  3.0476 -2.0230
  176SLPC  H18T19991   5.502   4.713   4.715  0.6648  2.1332 -0.1016
  176SLPC   C3319992   5.367   5.302   5.968 -0.6830  0.5433 -0.0575
  176SLPC   H3X19993   5.473   5.315   5.999  0.6001 -4.8188 -1.2098
  176SLPC   H3Y19994   5.309   5.396   5.961 -0.1124  0.8096 -1.4542
  176SLPC   C3419995   5.369   5.249   5.825 -0.1231  0.8762  0.4309
  176SLPC   H4X19996   5.448   5.172   5.811 -0.7258  0.2218  0.5190
  176SLPC   H4Y19997   5.404   5.336   5.765  0.3307 -0.9714 -2.1773
  176SLPC   C3519998   5.239   5.199   5.765  0.1721  0.3814 -0.4223
  176SLPC   H5X19999   5.151   5.257   5.800 -0.6535 -1.7688  1.3538
  176SLPC   H5Y20000   5.221   5.097   5.806 -1.9855 -0.2080 -2.5871
  176SLPC   C3620001   5.244   5.188   5.611 -0.1457  0.6751 -0.1234
  176SLPC   H6X20002   5.154   5.126   5.590 -0.5096  0.5852  1.5351
  176SLPC   H6Y20003   5.334   5.133   5.577 -0.8200 -0.7294  0.2937
  176SLPC   C3720004   5.222   5.317   5.532 -0.0125  0.0742  0.4676
  176SLPC   H7X20005   5.297   5.394   5.559  1.0727 -0.8137  0.1053
  176SLPC   H7Y20006   5.121   5.362   5.533  0.2944  0.7832 -0.0198
  176SLPC   C3820007   5.245   5.286   5.387 -1.4988  0.5559  1.5472
  176SLPC   H8X20008   5.205   5.186   5.363  3.5302 -0.9879 -2.1365
  176SLPC   H8Y20009   5.355   5.281   5.377 -1.6603  0.7112 -0.9820
  176SLPC   C3920010   5.192   5.390   5.288  0.2648 -0.2981 -0.0615
  176SLPC   H9X20011   5.231   5.493   5.303  0.1154 -0.1082 -0.9078
  176SLPC   H9Y20012   5.082   5.375   5.287  0.5496 -2.7661 -1.2708
  176SLPC  C31020013   5.239   5.382   5.140  0.4243 -0.0676 -0.7132
  176SLPC  H10X20014   5.223   5.277   5.109 -1.5334 -0.2202  0.6697
  176SLPC  H10Y20015   5.342   5.417   5.118  0.2171  0.5026 -0.7909
  176SLPC  C31120016   5.150   5.471   5.058 -0.4115 -0.4698 -0.2824
  176SLPC  H11X20017   5.205   5.492   4.964  0.8895 -0.2061  0.5069
  176SLPC  H11Y20018   5.135   5.566   5.112 -0.1665 -0.7181  0.2316
  176SLPC  C31220019   5.013   5.414   5.033  0.0380  0.1405  0.3509
  176SLPC  H12X20020   4.964   5.392   5.130 -0.8712  1.4102  0.2081
  176SLPC  H12Y20021   5.016   5.328   4.963  1.5293  0.1800  0.3223
  176SLPC  C31320022   4.918   5.515   4.970 -0.0258  0.4938 -0.5500
  176SLPC  H13X20023   4.915   5.610   5.028 -0.3038  0.8275 -1.0924
  176SLPC  H13Y20024   4.811   5.484   4.967 -0.5521  2.1338  0.0530
  176SLPC  C31420025   4.967   5.560   4.829 -0.0305 -0.4151  0.4084
  176SLPC  H14X20026   4.984   5.474   4.761  0.9083 -0.3357  0.5202
  176SLPC  H14Y20027   5.055   5.626   4.846  0.2090 -0.3449 -0.9799
  176SLPC  C31520028   4.858   5.648   4.758  0.2546  0.8079  0.1217
  176SLPC  H15X20029   4.832   5.723   4.835 -1.8550 -2.3492  2.7232
  176SLPC  H15Y20030   4.762   5.594   4.744  0.1384  1.2248 -0.8140
  176SLPC  C31620031   4.906   5.713   4.625  0.5342 -0.0427 -0.6423
  176SLPC  H16X20032   4.913   5.627   4.554 -1.9298  0.3285 -1.4077
  176SLPC  H16Y20033   5.007   5.757   4.640  1.6644 -1.8654 -2.4751
  176SLPC  C31720034   4.808   5.823   4.570 -0.5466  0.1236 -0.5084
  176SLPC  H17X20035   4.838   5.857   4.468  1.0611  0.0406 -0.0944
  176SLPC  H17Y20036   4.825   5.914   4.632  0.9187  0.2404 -1.0269
  176SLPC  C31820037   4.658   5.784   4.568 -0.2593 -0.0524  0.3806
  176SLPC  H18X20038   4.599   5.868   4.526  2.6363  1.4430 -1.0375
  176SLPC  H18Y20039   4.623   5.751   4.668 -1.9718  0.4928 -0.0028
  176SLPC  H18Z20040   4.637   5.698   4.500 -1.9601  1.4864 -1.1404
  177SLPC     N20041   4.220   6.556   6.991 -0.4172  0.0714  0.4282
  177SLPC   C1320042   4.335   6.462   7.017 -0.2687  0.7564 -0.1486
  177SLPC  H13A20043   4.414   6.465   6.943  1.2891  0.5939  1.4406
  177SLPC  H13B20044   4.385   6.475   7.111  0.6226 -0.3108 -0.4454
  177SLPC  H13C20045   4.293   6.362   7.018 -0.4986  0.7588 -2.7314
  177SLPC   C1420046   4.281   6.690   7.001  0.0469 -0.3305 -0.0463
  177SLPC  H14A20047   4.342   6.711   7.088 -0.5834  1.0427  0.0890
  177SLPC  H14B20048   4.343   6.720   6.917  0.6313 -3.3467 -0.8218
  177SLPC  H14C20049   4.194   6.754   7.009  1.4606  1.5409  1.2097
  177SLPC   C1520050   4.126   6.536   7.102  0.1361 -0.5881  0.0429
  177SLPC  H15A20051   4.174   6.556   7.197 -1.4996 -0.2563  0.8501
  177SLPC  H15B20052   4.041   6.603   7.102 -0.4460 -1.3027  0.4773
  177SLPC  H15C20053   4.092   6.434   7.107  1.7009 -1.0767  2.0511
  177SLPC   C1220054   4.156   6.526   6.855 -0.7785 -0.4056 -0.0613
  177SLPC  H12A20055   4.121   6.425   6.846 -1.3727 -0.3724  1.5278
  177SLPC  H12B20056   4.235   6.540   6.783 -0.7148 -1.2062 -0.1549
  177SLPC   C1120057   4.041   6.624   6.806 -0.8044  0.0534  0.0037
  177SLPC  H11A20058   3.954   6.628   6.874  0.2400 -3.5583  1.8131
  177SLPC  H11B20059   4.005   6.584   6.709 -0.4074  2.3655 -1.1715
  177SLPC     P20060   4.155   6.817   6.664 -0.1797 -0.5481  0.0983
  177SLPC   O1320061   4.086   6.760   6.549  0.7342  0.6138  0.4725
  177SLPC   O1420062   4.162   6.965   6.683  0.0175 -0.2989  0.4362
  177SLPC   O1220063   4.093   6.758   6.796  0.3544  0.1274 -0.0185
  177SLPC   O1120064   4.295   6.754   6.674 -0.1291  0.4816  0.2926
  177SLPC    C120065   4.418   6.806   6.622  0.1968 -0.1988  0.1651
  177SLPC    HA20066   4.418   6.913   6.592  1.0003 -0.2886 -0.1795
  177SLPC    HB20067   4.495   6.803   6.703  2.2516 -2.0454 -1.7085
  177SLPC    C220068   4.469   6.710   6.515  0.3537 -0.8757 -0.0394
  177SLPC    HS20069   4.558   6.756   6.466  0.2207  1.1379  1.4717
  177SLPC   O2120070   4.363   6.690   6.420  0.6225  0.6571 -0.1909
  177SLPC   C2120071   4.341   6.790   6.342 -0.2854  0.8891 -0.2671
  177SLPC   O2220072   4.410   6.891   6.328  0.2157 -0.0993  0.1904
  177SLPC   C2220073   4.217   6.764   6.257 -1.0273  0.2747 -0.5526
  177SLPC   H2R20074   4.220   6.659   6.222  1.1072  0.5686 -1.4163
  177SLPC   H2S20075   4.130   6.770   6.326  1.0813 -0.3104  2.3493
  177SLPC    C320076   4.516   6.576   6.580  0.6942  0.2141  0.5640
  177SLPC    HX20077   4.440   6.527   6.644 -1.0133 -0.2671 -1.6976
  177SLPC    HY20078   4.597   6.594   6.653 -0.5050  0.7972  1.7902
  177SLPC   O3120079   4.576   6.495   6.473  0.2343  0.0029 -0.0496
  177SLPC   C3120080   4.493   6.420   6.405 -0.2302 -0.2200 -0.0924
  177SLPC   O3220081   4.381   6.387   6.440  0.7816  0.3017  0.3659
  177SLPC   C3220082   4.559   6.377   6.267  0.3758 -0.4220 -0.6228
  177SLPC   H2X20083   4.517   6.284   6.224 -0.6178  0.2667 -1.1729
  177SLPC   H2Y20084   4.656   6.333   6.299  0.7033 -0.8250 -2.0955
  177SLPC   C2320085   4.205   6.858   6.134 -0.5046 -0.2655  0.0290
  177SLPC   H3R20086   4.300   6.898   6.094 -1.9990  2.4285 -1.1464
  177SLPC   H3S20087   4.139   6.941   6.168 -0.2048  0.8041 -1.9089
  177SLPC   C2420088   4.149   6.795   6.012  1.0313  0.4876 -0.4817
  177SLPC   H4R20089   4.053   6.746   6.040  0.9306  0.4717 -0.8472
  177SLPC   H4S20090   4.216   6.708   5.996  1.3038  0.7263 -0.6578
  177SLPC   C2520091   4.138   6.893   5.896  0.6948  0.3624 -0.6191
  177SLPC   H5R20092   4.242   6.928   5.877 -0.3479  2.9095 -2.1344
  177SLPC   H5S20093   4.081   6.981   5.932  0.7200  0.1253  0.0171
  177SLPC   C2620094   4.071   6.847   5.770 -0.2358  0.2929 -0.0951
  177SLPC   H6R20095   3.969   6.818   5.804 -0.8461  3.9645  1.7338
  177SLPC   H6S20096   4.130   6.761   5.730 -0.2394  0.7703 -1.1361
  177SLPC   C2720097   4.070   6.939   5.654  0.1614 -0.5286  0.2058
  177SLPC   H7R20098   4.170   6.967   5.614 -0.2164 -1.8238 -1.8609
  177SLPC   H7S20099   4.033   7.040   5.681  0.8120 -0.0879 -0.5178
  177SLPC   C2820100   3.987   6.897   5.535  0.8186  0.4900 -0.7586
  177SLPC   H8R20101   3.985   6.978   5.459  2.6010 -0.3943 -1.7915
  177SLPC   H8S20102   3.884   6.878   5.573  0.7613 -1.1116 -1.6382
  177SLPC   C2920103   4.040   6.767   5.476 -0.1719 -0.0251 -0.4624
  177SLPC   H9R20104   4.032   6.682   5.546 -2.5439 -1.8950 -2.7535
  177SLPC  C21020105   4.091   6.746   5.349  0.3686 -0.0049  0.5080
  177SLPC  H10R20106   4.131   6.645   5.331 -1.8078 -0.7655 -0.4805
  177SLPC  C21120107   4.124   6.848   5.246  0.2139 -0.4346 -0.5277
  177SLPC  H11R20108   4.058   6.937   5.258 -1.7949 -1.4057 -3.1986
  177SLPC  H11S20109   4.090   6.814   5.146 -2.7179 -2.2308  0.9178
  177SLPC  C21220110   4.268   6.889   5.244  0.5958  0.1597  0.2724
  177SLPC  H12R20111   4.317   6.860   5.338 -0.6015 -2.4869  0.1685
  177SLPC  C21320112   4.347   6.909   5.137  0.4992  0.4844 -0.0024
  177SLPC  H13R20113   4.456   6.925   5.142  0.3845  1.2872 -0.0422
  177SLPC  C21420114   4.289   6.935   4.993 -0.3238  0.1820  0.6379
  177SLPC  H14R20115   4.195   6.993   5.004 -1.0378 -0.9832  0.9545
  177SLPC  H14S20116   4.251   6.844   4.941  0.6953 -0.0724  0.3179
  177SLPC  C21520117   4.395   6.996   4.902 -0.4834 -0.1860 -0.2616
  177SLPC  H15R20118   4.473   6.917   4.891  0.7656  1.0155 -0.2621
  177SLPC  H15S20119   4.443   7.092   4.928  0.9121 -1.4413  2.1213
  177SLPC  C21620120   4.352   7.019   4.758 -0.4086 -0.1280 -0.0400
  177SLPC  H16R20121   4.274   7.098   4.762  0.2447  0.5182  0.1149
  177SLPC  H16S20122   4.330   6.930   4.697  1.7147 -1.2979  0.7845
  177SLPC  C21720123   4.469   7.093   4.690  0.9436  0.2819 -1.3673
  177SLPC  H17R20124   4.533   7.003   4.682  0.1104 -0.6573  1.3601
  177SLPC  H17S20125   4.524   7.162   4.757  0.3802 -1.1252  0.6422
  177SLPC  C21820126   4.444   7.155   4.544 -0.2316  0.5155 -0.7863
  177SLPC  H18R20127   4.539   7.165   4.488  0.4385 -2.2926 -0.3039
  177SLPC  H18S20128   4.399   7.256   4.557  2.4798  1.5665  1.4043
  177SLPC  H18T20129   4.379   7.083   4.489 -0.2894  0.9442 -1.2814
  177SLPC   C3320130   4.556   6.491   6.164 -0.0041  0.3949  0.1026
  177SLPC   H3X20131   4.650   6.503   6.105 -1.7672 -0.4088 -3.1228
  177SLPC   H3Y20132   4.537   6.583   6.222  0.3432 -0.4019  1.5222
  177SLPC   C3420133   4.456   6.461   6.054  0.2952  0.7295  1.3266
  177SLPC   H4X20134   4.458   6.548   5.985  2.3859  0.0223  0.4205
  177SLPC   H4Y20135   4.350   6.456   6.086 -0.2398  1.0419 -0.2654
  177SLPC   C3520136   4.501   6.345   5.959  0.2278 -0.8082 -0.2371
  177SLPC   H5X20137   4.500   6.246   6.010  0.1388 -1.5691 -1.6557
  177SLPC   H5Y20138   4.605   6.357   5.922  0.6850 -0.6066  1.0644
  177SLPC   C3620139   4.405   6.344   5.839 -0.2539 -0.0894 -0.2558
  177SLPC   H6X20140   4.309   6.314   5.885 -0.4087  0.2977 -0.3252
  177SLPC   H6Y20141   4.445   6.269   5.766 -0.3747  0.8744 -1.3423
  177SLPC   C3720142   4.389   6.475   5.771  0.2484 -0.2923  0.4011
  177SLPC   H7X20143   4.495   6.507   5.759  0.8284 -2.0572  0.4349
  177SLPC   H7Y20144   4.325   6.541   5.833 -1.0618 -0.4828 -0.7019
  177SLPC   C3820145   4.316   6.468   5.635 -0.1906  0.1949 -0.3256
  177SLPC   H8X20146   4.315   6.572   5.597 -0.7260  0.1853 -0.3504
  177SLPC   H8Y20147   4.215   6.432   5.665  0.2073  0.3400  1.2599
  177SLPC   C3920148   4.370   6.375   5.525 -0.2656 -0.5908  0.0034
  177SLPC   H9X20149   4.332   6.271   5.535 -2.3538  0.2176  1.0317
  177SLPC   H9Y20150   4.480   6.383   5.539 -0.2700 -0.9954  0.2654
  177SLPC  C31020151   4.334   6.408   5.376  1.0922 -0.3112 -0.3592
  177SLPC  H10X20152   4.358   6.515   5.355  1.9350 -0.2971  0.6583
  177SLPC  H10Y20153   4.227   6.381   5.360  0.6596  1.0174  0.1318
  177SLPC  C31120154   4.424   6.333   5.274 -0.2795 -0.1581  0.4133
  177SLPC  H11X20155   4.383   6.233   5.248 -2.1435  0.8454 -0.6735
  177SLPC  H11Y20156   4.520   6.329   5.331 -1.6087  0.0800  2.7714
  177SLPC  C31220157   4.440   6.409   5.145 -0.1505 -0.4334  0.5001
  177SLPC  H12X20158   4.512   6.354   5.080 -1.8160 -1.0015 -0.9510
  177SLPC  H12Y20159   4.484   6.511   5.151  0.0503 -0.5307  0.6668
  177SLPC  C31320160   4.315   6.412   5.059  0.4840 -0.3079  0.1176
  177SLPC  H13X20161   4.224   6.449   5.112 -0.9843 -1.0430 -1.7776
  177SLPC  H13Y20162   4.282   6.308   5.041  1.6894 -0.4824 -1.1965
  177SLPC  C31420163   4.323   6.487   4.925 -0.2312  0.2597 -0.8741
  177SLPC  H14X20164   4.412   6.454   4.867 -0.1161 -1.3442  0.1650
  177SLPC  H14Y20165   4.346   6.594   4.947 -0.5154 -0.0454  1.1585
  177SLPC  C31520166   4.188   6.472   4.847 -0.0555  0.9218  0.3060
  177SLPC  H15X20167   4.112   6.497   4.924 -0.0584 -0.0568  0.6415
  177SLPC  H15Y20168   4.183   6.363   4.822  1.2911  1.2987 -1.9235
  177SLPC  C31620169   4.172   6.555   4.719  0.1990 -1.0196  0.2305
  177SLPC  H16X20170   4.264   6.538   4.658 -0.6313  1.6274 -1.9641
  177SLPC  H16Y20171   4.179   6.663   4.746  2.1535 -1.4168  1.4924
  177SLPC  C31720172   4.039   6.540   4.649  0.3779  0.1281  0.4756
  177SLPC  H17X20173   3.962   6.551   4.729  0.4490  0.2949  0.5207
  177SLPC  H17Y20174   4.027   6.438   4.608  1.0684  1.1281 -2.3963
  177SLPC  C31820175   3.998   6.644   4.536  1.0142  0.0902 -0.7177
  177SLPC  H18X20176   3.897   6.623   4.493  0.3179 -0.4601  1.0788
  177SLPC  H18Y20177   4.082   6.641   4.464  1.8611  3.6226 -0.0736
  177SLPC  H18Z20178   3.996   6.744   4.585  1.1540 -0.4626  0.4618
  178SLPC     N20179   4.560   5.325   6.864 -0.1886 -0.2806  0.1116
  178SLPC   C1320180   4.670   5.362   6.769  0.5862  0.7415  0.3247
  178SLPC  H13A20181   4.724   5.271   6.747  0.9530 -0.1100  3.9868
  178SLPC  H13B20182   4.624   5.393   6.677  0.5895  1.3256  0.5159
  178SLPC  H13C20183   4.735   5.439   6.806  0.8917 -0.4443  2.4587
  178SLPC   C1420184   4.478   5.440   6.901 -0.4573  0.2141 -0.6765
  178SLPC  H14A20185   4.388   5.400   6.945 -0.7068 -1.2184 -2.3576
  178SLPC  H14B20186   4.533   5.516   6.954 -0.6916 -0.4686  0.5662
  178SLPC  H14C20187   4.429   5.493   6.820  0.2268 -2.2824 -2.8521
  178SLPC   C1520188   4.617   5.271   6.998  0.4894 -0.2493  1.5559
  178SLPC  H15A20189   4.532   5.244   7.058  0.4437  0.8517  2.0097
  178SLPC  H15B20190   4.679   5.185   6.979  0.7915  0.2552  0.1128
  178SLPC  H15C20191   4.676   5.349   7.045 -0.6480  1.6309 -0.0287
  178SLPC   C1220192   4.469   5.218   6.808  0.1169  0.0231  0.1744
  178SLPC  H12A20193   4.395   5.195   6.883 -0.3047  1.1568  0.1309
  178SLPC  H12B20194   4.522   5.124   6.806  0.7175  0.1315  3.6064
  178SLPC   C1120195   4.401   5.247   6.678  0.0084 -0.5426  0.3462
  178SLPC  H11A20196   4.358   5.159   6.625  0.6688 -1.0288  0.6056
  178SLPC  H11B20197   4.478   5.280   6.605  0.5890 -1.3885  0.5631
  178SLPC     P20198   4.164   5.312   6.729 -0.7540 -0.0867  0.0527
  178SLPC   O1320199   4.182   5.210   6.837  0.8675  0.1623 -0.7119
  178SLPC   O1420200   4.090   5.438   6.762  0.2924  0.3243  0.6600
  178SLPC   O1220201   4.310   5.357   6.691  0.0109  0.1879 -0.0939
  178SLPC   O1120202   4.103   5.241   6.601  0.7256 -0.4594 -0.3015
  178SLPC    C120203   4.058   5.323   6.495 -0.0102 -0.0785 -0.3941
  178SLPC    HA20204   3.961   5.368   6.524  0.3586  0.0003  0.7547
  178SLPC    HB20205   4.119   5.414   6.479 -0.3757  0.1673 -0.4152
  178SLPC    C220206   4.059   5.254   6.355 -0.4981  0.3141 -0.3367
  178SLPC    HS20207   4.009   5.156   6.367 -0.4840  0.3355 -0.0998
  178SLPC   O2120208   4.191   5.267   6.304 -0.2606  0.5565 -0.1686
  178SLPC   C2120209   4.273   5.172   6.340 -0.0689  0.7617  0.5637
  178SLPC   O2220210   4.246   5.066   6.395 -0.1587  0.2960  0.3188
  178SLPC   C2220211   4.407   5.200   6.284 -0.8491  0.2856 -0.1225
  178SLPC   H2R20212   4.403   5.293   6.223  1.2007 -0.7707 -2.0289
  178SLPC   H2S20213   4.476   5.215   6.369 -1.4243  0.2347  0.3576
  178SLPC    C320214   3.974   5.338   6.260  0.1787 -0.4425 -0.5649
  178SLPC    HX20215   4.004   5.445   6.260 -0.8570 -0.1446 -0.6804
  178SLPC    HY20216   3.871   5.333   6.301  0.7977 -3.3343  0.8823
  178SLPC   O3120217   3.991   5.294   6.126 -0.3241  0.4495  0.0837
  178SLPC   C3120218   3.920   5.186   6.099 -0.0151 -0.4035 -0.7636
  178SLPC   O3220219   3.851   5.118   6.173  0.0352 -0.0422 -0.0455
  178SLPC   C3220220   3.948   5.160   5.950 -0.1084 -0.7843  0.2867
  178SLPC   H2X20221   4.057   5.135   5.950 -0.5701 -3.0496 -0.3027
  178SLPC   H2Y20222   3.936   5.257   5.897  1.2070 -1.0675 -0.5671
  178SLPC   C2320223   4.467   5.103   6.174 -0.3330  0.5367 -0.1179
  178SLPC   H3R20224   4.486   5.007   6.228 -0.2101 -0.0756 -1.2109
  178SLPC   H3S20225   4.560   5.155   6.144 -0.4772  2.5764  2.6325
  178SLPC   C2420226   4.379   5.082   6.057 -0.3169  0.3913  0.4656
  178SLPC   H4R20227   4.365   5.174   5.996  0.7131 -0.4532 -1.1051
  178SLPC   H4S20228   4.278   5.046   6.087 -0.3176  0.2038  0.2304
  178SLPC   C2520229   4.438   4.982   5.954  0.2227  0.1694 -0.1013
  178SLPC   H5R20230   4.446   4.885   6.006  0.3794  0.6592  0.8043
  178SLPC   H5S20231   4.531   5.017   5.905  0.4941 -1.7502 -1.0513
  178SLPC   C2620232   4.327   4.950   5.846  0.3631 -0.0535  0.1851
  178SLPC   H6R20233   4.238   4.960   5.913 -0.4581 -0.4253 -0.8287
  178SLPC   H6S20234   4.332   4.843   5.817  0.2258 -0.1356  0.4528
  178SLPC   C2720235   4.323   5.053   5.731 -0.3007 -0.2027  0.0411
  178SLPC   H7R20236   4.388   5.135   5.767 -1.0313  1.1462 -1.5900
  178SLPC   H7S20237   4.221   5.097   5.734 -0.1242  0.3806 -1.5985
  178SLPC   C2820238   4.372   4.993   5.596  0.3577 -0.0596 -0.9151
  178SLPC   H8R20239   4.304   4.908   5.574  0.6574 -1.3299  2.4746
  178SLPC   H8S20240   4.472   4.947   5.609  0.7774  1.0127 -0.1978
  178SLPC   C2920241   4.360   5.103   5.490 -0.1601 -0.0339 -0.0853
  178SLPC   H9R20242   4.385   5.205   5.523 -0.3894  0.1049 -0.3342
  178SLPC  C21020243   4.332   5.089   5.360 -0.9251 -0.3064 -0.2597
  178SLPC  H10R20244   4.334   5.175   5.292  2.5806  1.6717  2.0393
  178SLPC  C21120245   4.295   4.966   5.281 -0.3372 -0.4371 -0.0747
  178SLPC  H11R20246   4.237   5.004   5.194  1.0094 -1.8692 -1.6897
  178SLPC  H11S20247   4.236   4.901   5.349  0.1201 -0.1458  0.6080
  178SLPC  C21220248   4.414   4.879   5.240  0.9139 -0.3757  0.0952
  178SLPC  H12R20249   4.514   4.911   5.273  1.0423 -0.3344 -0.3200
  178SLPC  C21320250   4.404   4.786   5.143 -0.0403  0.3017 -0.6869
  178SLPC  H13R20251   4.499   4.740   5.110 -0.7270 -1.2340 -0.6076
  178SLPC  C21420252   4.276   4.757   5.056 -0.5005  0.3642  0.1857
  178SLPC  H14R20253   4.193   4.830   5.060 -0.3279  0.5151  1.7375
  178SLPC  H14S20254   4.232   4.657   5.078 -2.9883  1.3822  0.1331
  178SLPC  C21520255   4.302   4.754   4.905 -0.0808  0.2980  0.3864
  178SLPC  H15R20256   4.347   4.850   4.872  0.5828 -0.2426 -0.3258
  178SLPC  H15S20257   4.208   4.727   4.852  0.6661 -1.4860 -0.0877
  178SLPC  C21620258   4.400   4.638   4.860 -0.4659  0.2775 -0.8489
  178SLPC  H16R20259   4.353   4.540   4.886 -0.5135  0.5370  0.0916
  178SLPC  H16S20260   4.494   4.640   4.920 -2.2458 -1.1345  2.2398
  178SLPC  C21720261   4.424   4.628   4.711 -0.2230 -0.2187  0.3529
  178SLPC  H17R20262   4.323   4.626   4.665 -0.3966  2.0933  0.5254
  178SLPC  H17S20263   4.474   4.532   4.685 -0.4384  0.0413 -1.0983
  178SLPC  C21820264   4.503   4.749   4.653  0.1920  0.5387 -0.0023
  178SLPC  H18R20265   4.596   4.765   4.713 -0.0808  0.4455  0.4495
  178SLPC  H18S20266   4.435   4.834   4.674  0.3190  0.3903  1.0465
  178SLPC  H18T20267   4.519   4.743   4.543 -1.6959  0.7558 -0.3174
  178SLPC   C3320268   3.868   5.056   5.869  0.6067  0.5369 -1.2892
  178SLPC   H3X20269   3.770   5.104   5.847 -1.6607 -1.8898  2.2364
  178SLPC   H3Y20270   3.858   4.968   5.937 -2.7597  3.2018  2.0858
  178SLPC   C3420271   3.932   5.024   5.736 -0.2482 -0.2260 -0.1142
  178SLPC   H4X20272   4.028   4.972   5.755 -1.8738 -3.6562 -0.3813
  178SLPC   H4Y20273   3.947   5.115   5.674 -0.2121 -0.3527 -0.2918
  178SLPC   C3520274   3.855   4.913   5.660 -0.3529  0.5765  0.6834
  178SLPC   H5X20275   3.749   4.940   5.644 -0.4474 -0.8302 -1.4254
  178SLPC   H5Y20276   3.851   4.815   5.711 -1.1650  0.9130  1.2840
  178SLPC   C3620277   3.913   4.898   5.524  0.1613  0.5467 -0.4687
  178SLPC   H6X20278   4.015   4.853   5.531  0.2227  0.9229  2.0575
  178SLPC   H6Y20279   3.923   4.994   5.469 -0.9463  0.5268 -0.7334
  178SLPC   C3720280   3.819   4.821   5.433  0.1459  0.2941 -0.3031
  178SLPC   H7X20281   3.718   4.865   5.435  1.5626  3.8779  0.6213
  178SLPC   H7Y20282   3.807   4.719   5.475 -0.3787  0.8969  1.0370
  178SLPC   C3820283   3.888   4.817   5.292 -0.2716  0.2924 -0.5569
  178SLPC   H8X20284   3.985   4.764   5.308 -0.5903 -0.1486 -0.0706
  178SLPC   H8Y20285   3.903   4.919   5.250  1.5319  0.5999  0.7402
  178SLPC   C3920286   3.815   4.723   5.192 -0.6173  0.1114 -0.3792
  178SLPC   H9X20287   3.711   4.760   5.178  0.1288  1.2309 -3.9486
  178SLPC   H9Y20288   3.813   4.618   5.228  1.5424 -0.0367 -0.5609
  178SLPC  C31020289   3.882   4.719   5.050 -0.9828  0.8278 -0.4983
  178SLPC  H10X20290   3.993   4.721   5.064 -1.0882 -0.7088  0.9456
  178SLPC  H10Y20291   3.845   4.808   4.996 -0.2858  0.8562 -0.9394
  178SLPC  C31120292   3.836   4.597   4.967 -0.2967  0.3478  0.2048
  178SLPC  H11X20293   3.726   4.602   4.959 -0.2963 -0.1189 -0.1446
  178SLPC  H11Y20294   3.864   4.500   5.014  0.1984 -0.9029 -2.4709
  178SLPC  C31220295   3.904   4.600   4.831  0.3526  0.5936 -0.0997
  178SLPC  H12X20296   4.005   4.556   4.845  0.2562  0.1901 -0.6399
  178SLPC  H12Y20297   3.910   4.705   4.794 -2.1169  1.1588  0.9276
  178SLPC  C31320298   3.823   4.516   4.736  0.3318 -0.1449  0.1304
  178SLPC  H13X20299   3.878   4.512   4.640 -0.3083 -0.4674 -0.2284
  178SLPC  H13Y20300   3.724   4.561   4.713 -0.2832 -1.1375  0.7844
  178SLPC  C31420301   3.815   4.373   4.776 -0.0937 -0.0842 -0.0709
  178SLPC  H14X20302   3.731   4.375   4.848 -1.5812 -0.4754 -1.7128
  178SLPC  H14Y20303   3.905   4.333   4.826 -1.1419  1.2354  3.1441
  178SLPC  C31520304   3.766   4.279   4.662  0.5857 -0.1464  0.2954
  178SLPC  H15X20305   3.773   4.178   4.708 -0.1153 -1.0894 -1.6014
  178SLPC  H15Y20306   3.841   4.280   4.580  2.9337  0.7126  2.3024
  178SLPC  C31620307   3.628   4.322   4.609 -0.3359  1.4287 -0.3601
  178SLPC  H16X20308   3.643   4.419   4.557 -0.8801  2.3455  1.1391
  178SLPC  H16Y20309   3.551   4.328   4.689 -1.4861  1.0498 -1.4129
  178SLPC  C31720310   3.577   4.224   4.511  0.1209  0.4535 -0.0578
  178SLPC  H17X20311   3.574   4.122   4.556  0.5014  0.2930 -0.3942
  178SLPC  H17Y20312   3.654   4.220   4.431 -0.9409  2.9546 -1.3052
  178SLPC  C31820313   3.442   4.278   4.453 -0.1257  0.3828 -0.1941
  178SLPC  H18X20314   3.383   4.202   4.398 -3.0051  1.8064  0.7220
  178SLPC  H18Y20315   3.459   4.374   4.400 -0.5473  0.4725 -0.1707
  178SLPC  H18Z20316   3.377   4.317   4.534 -2.1272  1.2868 -2.1313
  179SLPC     N20317   3.074   4.810   2.157  0.0848  0.2843  0.4175
  179SLPC   C1320318   2.933   4.766   2.203 -0.1630 -0.4842  0.1654
  179SLPC  H13A20319   2.945   4.666   2.241  1.8887  0.3066  1.8489
  179SLPC  H13B20320   2.884   4.828   2.276 -1.1155  0.0648 -0.9190
  179SLPC  H13C20321   2.867   4.760   2.118  1.1137 -1.4640 -0.7966
  179SLPC   C1420322   3.065   4.949   2.111  0.0942 -0.2687 -0.4238
  179SLPC  H14A20323   3.158   4.978   2.065  0.6464 -0.2066  0.6766
  179SLPC  H14B20324   2.993   4.960   2.032  0.7585 -0.8426 -1.1288
  179SLPC  H14C20325   3.063   5.016   2.196  1.9584 -1.6879  0.8517
  179SLPC   C1520326   3.113   4.718   2.044 -0.4576  0.1957 -0.4392
  179SLPC  H15A20327   3.053   4.740   1.957  1.5530  2.3423 -1.3924
  179SLPC  H15B20328   3.217   4.727   2.015  1.0590 -0.8694  3.9747
  179SLPC  H15C20329   3.092   4.617   2.078 -0.1819  0.7864  1.6068
  179SLPC   C1220330   3.175   4.795   2.267 -0.4037 -0.3479 -0.1082
  179SLPC  H12A20331   3.272   4.816   2.223 -0.8401  0.2735 -0.8012
  179SLPC  H12B20332   3.182   4.690   2.288 -1.0882 -0.8051 -1.9562
  179SLPC   C1120333   3.152   4.873   2.398 -0.0978  0.3101 -0.0983
  179SLPC  H11A20334   3.089   4.810   2.465 -0.9818  0.1010 -1.1023
  179SLPC  H11B20335   3.103   4.972   2.391  0.1599  0.4728  0.3862
  179SLPC     P20336   3.384   5.003   2.425 -0.2539  0.2513 -0.1423
  179SLPC   O1320337   3.452   4.971   2.296  0.1003 -0.5061  0.1215
  179SLPC   O1420338   3.311   5.131   2.418  0.0885  0.4500 -0.0064
  179SLPC   O1220339   3.276   4.888   2.470  0.1397 -0.4202  0.4578
  179SLPC   O1120340   3.493   5.000   2.541  0.0159  0.6478 -0.2575
  179SLPC    C120341   3.467   4.946   2.667 -0.8065  0.0582 -0.3449
  179SLPC    HA20342   3.360   4.924   2.692 -1.2109  0.8511 -1.3094
  179SLPC    HB20343   3.522   4.850   2.676  1.3817  1.2205 -0.8838
  179SLPC    C220344   3.533   5.041   2.773  0.5002 -0.3483 -0.1869
  179SLPC    HS20345   3.626   4.980   2.778 -1.0329 -2.9352 -1.2321
  179SLPC   O2120346   3.456   5.046   2.896 -0.1041  0.1394 -0.4924
  179SLPC   C2120347   3.530   5.052   2.995 -0.5897  0.4427 -0.9623
  179SLPC   O2220348   3.656   5.053   2.993  0.0946 -0.1472  0.4958
  179SLPC   C2220349   3.443   5.040   3.124 -0.3458 -0.2320  0.5618
  179SLPC   H2R20350   3.351   5.103   3.116 -0.3507 -0.1977  0.8612
  179SLPC   H2S20351   3.418   4.932   3.121  3.3068 -1.3000  2.6466
  179SLPC    C320352   3.568   5.188   2.725  0.3929 -0.0719  0.0909
  179SLPC    HX20353   3.469   5.238   2.730  1.2577  1.9127 -1.2667
  179SLPC    HY20354   3.604   5.202   2.621 -1.7252 -0.0083 -0.6839
  179SLPC   O3120355   3.656   5.252   2.819  0.2590 -0.6336  0.4895
  179SLPC   C3120356   3.787   5.233   2.794  0.4135 -0.2821  0.2644
  179SLPC   O3220357   3.830   5.179   2.691  0.1875 -0.3808  0.1663
  179SLPC   C3220358   3.864   5.315   2.893  0.2168 -0.0099  0.4644
  179SLPC   H2X20359   3.794   5.325   2.979  0.8414  0.2923  0.9413
  179SLPC   H2Y20360   3.870   5.411   2.838  0.2864 -0.1967  0.1404
  179SLPC   C2320361   3.523   5.058   3.259  0.1761  0.4261 -0.2832
  179SLPC   H3R20362   3.560   5.163   3.255 -0.8117  0.8150  0.4280
  179SLPC   H3S20363   3.611   4.991   3.268 -1.1745 -1.4479 -0.4840
  179SLPC   C2420364   3.426   5.024   3.374 -0.3845  0.0401 -0.1559
  179SLPC   H4R20365   3.370   4.933   3.342  1.6286 -0.1090 -3.8830
  179SLPC   H4S20366   3.343   5.094   3.395 -0.0909 -0.3199  2.5085
  179SLPC   C2520367   3.515   5.017   3.501  0.8372  0.3120 -0.2632
  179SLPC   H5R20368   3.564   5.117   3.502  1.8133 -0.1438 -0.9220
  179SLPC   H5S20369   3.589   4.937   3.484 -0.7310 -0.8640 -1.8705
  179SLPC   C2620370   3.435   4.996   3.633  0.3326 -0.1446  0.1882
  179SLPC   H6R20371   3.369   4.907   3.620 -0.6704  0.4524  1.0181
  179SLPC   H6S20372   3.359   5.077   3.633  1.0592  0.5936  2.4704
  179SLPC   C2720373   3.522   4.982   3.759  0.0361 -0.0384  0.0759
  179SLPC   H7R20374   3.593   5.067   3.766  1.1060 -0.9849  1.1566
  179SLPC   H7S20375   3.577   4.887   3.744  0.6845  0.6132 -1.9831
  179SLPC   C2820376   3.436   4.981   3.886 -0.5365 -0.0360 -0.2963
  179SLPC   H8R20377   3.396   5.084   3.903 -2.6871 -0.7341 -0.8560
  179SLPC   H8S20378   3.510   4.970   3.968  0.5359  1.6144 -0.9786
  179SLPC   C2920379   3.331   4.876   3.910 -0.4571 -0.2929  0.2726
  179SLPC   H9R20380   3.266   4.876   3.821  1.1240  1.3691 -0.9888
  179SLPC  C21020381   3.297   4.810   4.016 -0.0096  0.4088 -0.5618
  179SLPC  H10R20382   3.219   4.737   3.992 -0.5803  1.1283 -0.9298
  179SLPC  C21120383   3.368   4.821   4.150 -0.6652  0.5280  0.0391
  179SLPC  H11R20384   3.396   4.928   4.164  0.4025  0.0490  1.8747
  179SLPC  H11S20385   3.464   4.764   4.149 -0.9278  0.0683 -1.5617
  179SLPC  C21220386   3.277   4.786   4.267  0.3983  1.2731 -0.4218
  179SLPC  H12R20387   3.185   4.728   4.249  1.5316 -1.4649  1.7481
  179SLPC  C21320388   3.311   4.777   4.401  0.0315 -0.2717 -0.0989
  179SLPC  H13R20389   3.228   4.738   4.462 -4.0211  2.9700 -2.9538
  179SLPC  C21420390   3.437   4.816   4.468 -0.2703 -0.0828  0.3422
  179SLPC  H14R20391   3.429   4.925   4.486  2.1364 -0.1438  2.4417
  179SLPC  H14S20392   3.521   4.807   4.395  0.9511  0.5021  1.6477
  179SLPC  C21520393   3.460   4.739   4.598 -0.3185 -0.3596 -0.0576
  179SLPC  H15R20394   3.559   4.770   4.637 -0.4573  2.4499 -1.6526
  179SLPC  H15S20395   3.461   4.630   4.576 -0.8028 -0.1101 -1.4517
  179SLPC  C21620396   3.345   4.768   4.703  0.4349  1.0575 -0.0711
  179SLPC  H16R20397   3.255   4.714   4.667  0.3501  0.2656  1.2412
  179SLPC  H16S20398   3.308   4.873   4.699 -0.6737  0.7630  1.4642
  179SLPC  C21720399   3.375   4.729   4.853 -0.0363 -0.4351  0.6403
  179SLPC  H17R20400   3.279   4.730   4.908 -1.2605 -1.1769 -1.3585
  179SLPC  H17S20401   3.442   4.799   4.907  0.3553 -0.2725 -0.0394
  179SLPC  C21820402   3.445   4.594   4.866 -0.1196  0.0407 -0.0332
  179SLPC  H18R20403   3.470   4.574   4.972  0.9136 -1.3284 -0.5043
  179SLPC  H18S20404   3.539   4.591   4.808  1.4253  2.2720  2.1593
  179SLPC  H18T20405   3.379   4.509   4.838  0.4925 -1.2078  2.0845
  179SLPC   C3320406   4.006   5.264   2.920  0.2404  0.2402 -0.3157
  179SLPC   H3X20407   4.072   5.344   2.961 -0.2335 -0.2793  1.5407
  179SLPC   H3Y20408   4.058   5.221   2.832  0.2897  0.3002 -0.3162
  179SLPC   C3420409   4.008   5.154   3.025 -0.4301  0.5461  0.6930
  179SLPC   H4X20410   4.110   5.110   3.029 -0.5671  0.1643  0.1383
  179SLPC   H4Y20411   3.942   5.069   2.996 -0.1531  0.9504 -1.2895
  179SLPC   C3520412   3.972   5.203   3.166  0.1973  0.5274  0.0832
  179SLPC   H5X20413   4.051   5.277   3.189  0.3567  0.5306 -0.4510
  179SLPC   H5Y20414   3.871   5.250   3.167  1.1188  2.5922  1.4191
  179SLPC   C3620415   3.966   5.087   3.268 -0.4615 -0.4706 -0.0638
  179SLPC   H6X20416   4.068   5.043   3.273  0.2249  0.8121 -1.7888
  179SLPC   H6Y20417   3.906   5.004   3.226  2.1018 -2.5784  0.1837
  179SLPC   C3720418   3.922   5.128   3.407 -0.4818 -0.6747  1.0254
  179SLPC   H7X20419   3.818   5.167   3.402 -0.8633 -1.6418  1.2705
  179SLPC   H7Y20420   4.001   5.202   3.434 -0.6168 -0.8130  1.8352
  179SLPC   C3820421   3.933   5.023   3.515  0.4300  0.1662 -0.3659
  179SLPC   H8X20422   4.033   4.975   3.526 -0.0007 -1.0211 -1.3884
  179SLPC   H8Y20423   3.866   4.941   3.479  2.5971 -2.6419  1.5211
  179SLPC   C3920424   3.891   5.072   3.656  0.4932  0.9553 -0.0958
  179SLPC   H9X20425   3.792   5.117   3.634  2.0490  3.4558 -2.5520
  179SLPC   H9Y20426   3.953   5.157   3.691  0.2256  1.8667 -1.7827
  179SLPC  C31020427   3.891   4.958   3.755  0.6743  0.0627 -0.0906
  179SLPC  H10X20428   3.993   4.915   3.759  0.0830 -1.3729  1.8468
  179SLPC  H10Y20429   3.826   4.878   3.712  1.8725  0.0974 -2.0755
  179SLPC  C31120430   3.835   5.000   3.895 -0.1567 -0.0536 -0.4152
  179SLPC  H11X20431   3.748   5.066   3.875  0.3437  0.8371  0.2580
  179SLPC  H11Y20432   3.916   5.048   3.955 -0.2944 -0.5191  0.1487
  179SLPC  C31220433   3.787   4.883   3.975 -0.2429 -1.0465 -0.1567
  179SLPC  H12X20434   3.857   4.797   3.972 -0.1570 -0.9573 -2.6156
  179SLPC  H12Y20435   3.697   4.856   3.916 -0.4001 -1.5291  0.2968
  179SLPC  C31320436   3.753   4.906   4.125  0.2289 -0.0007  0.7454
  179SLPC  H13X20437   3.697   4.829   4.182 -1.7992  2.2383  1.9442
  179SLPC  H13Y20438   3.696   5.001   4.129  0.8272  0.5331 -1.6167
  179SLPC  C31420439   3.881   4.931   4.213  0.3405  0.4568 -0.6466
  179SLPC  H14X20440   3.940   5.021   4.184  1.7655 -0.5858 -1.1205
  179SLPC  H14Y20441   3.939   4.841   4.185  1.5598  0.7599  0.7411
  179SLPC  C31520442   3.855   4.931   4.363  0.0151  0.2415  0.3739
  179SLPC  H15X20443   3.823   4.831   4.400  1.4074 -0.2821  0.2199
  179SLPC  H15Y20444   3.772   5.004   4.375 -1.6057 -1.6679  1.4152
  179SLPC  C31620445   3.976   4.956   4.452  0.7174 -0.3176 -0.3729
  179SLPC  H16X20446   4.031   5.050   4.429 -2.0300  0.9502 -2.3550
  179SLPC  H16Y20447   4.045   4.870   4.465  2.3785  1.0829  0.4675
  179SLPC  C31720448   3.913   4.980   4.590 -0.0645 -0.7543 -0.2106
  179SLPC  H17X20449   3.856   4.889   4.618 -0.2690 -0.5709 -0.0256
  179SLPC  H17Y20450   3.835   5.060   4.592  0.6728  0.0388 -1.6107
  179SLPC  C31820451   4.026   5.017   4.696  0.4818  0.1856  0.5243
  179SLPC  H18X20452   4.121   4.960   4.697 -0.4635 -1.4886  2.5972
  179SLPC  H18Y20453   3.982   4.986   4.794  1.0146 -1.6838  0.1980
  179SLPC  H18Z20454   4.071   5.119   4.691  1.1930 -0.1196  0.6968
  180SLPC     N20455   0.836   0.083   2.040  0.1828  0.6013  0.2479
  180SLPC   C1320456   0.965  -0.002   2.019  0.9505 -0.2722  0.1295
  180SLPC  H13A20457   0.978  -0.077   2.095 -3.7232 -1.1608  0.3148
  180SLPC  H13B20458   0.965  -0.053   1.923  1.8863 -0.1846  0.0671
  180SLPC  H13C20459   1.054   0.060   2.013  0.8875 -0.0425  1.4508
  180SLPC   C1420460   0.723  -0.021   2.055 -0.1468 -0.7207 -0.0873
  180SLPC  H14A20461   0.723  -0.088   1.970 -0.0359  1.4237 -1.8734
  180SLPC  H14B20462   0.738  -0.071   2.150 -2.5243  0.6994  1.1215
  180SLPC  H14C20463   0.632   0.037   2.059  0.7393  0.8401 -1.3557
  180SLPC   C1520464   0.817   0.164   1.912 -0.3628 -0.7580  0.3890
  180SLPC  H15A20465   0.740   0.240   1.915  0.5845  0.2576 -0.3058
  180SLPC  H15B20466   0.914   0.208   1.894 -0.4513 -0.2070  1.1779
  180SLPC  H15C20467   0.791   0.101   1.829 -0.0476 -0.4537  0.0599
  180SLPC   C1220468   0.850   0.173   2.158  0.2276  0.4589 -0.7107
  180SLPC  H12A20469   0.753   0.220   2.171 -0.1144 -0.6487  1.0180
  180SLPC  H12B20470   0.924   0.248   2.133  2.4594 -1.5438 -0.4257
  180SLPC   C1120471   0.880   0.115   2.303 -0.6219 -0.1240 -0.6420
  180SLPC  H11A20472   0.888   0.187   2.387 -6.3942  2.2356 -1.6504
  180SLPC  H11B20473   0.984   0.075   2.298 -0.6955 -0.5394  0.7324
  180SLPC     P20474   0.689   0.021   2.450 -0.1501 -0.0595  0.1624
  180SLPC   O1320475   0.628   0.155   2.439  0.4178  0.3301  0.1429
  180SLPC   O1420476   0.597  -0.093   2.453  0.2992  0.2868 -0.5741
  180SLPC   O1220477   0.797   0.004   2.335  0.2909  0.3318 -0.0329
  180SLPC   O1120478   0.770   0.022   2.585 -0.5297  0.2669  0.2897
  180SLPC    C120479   0.835  -0.102   2.626 -0.0261 -0.8968 -0.1348
  180SLPC    HA20480   0.754  -0.174   2.649 -1.0684  0.8154  1.9219
  180SLPC    HB20481   0.900  -0.149   2.550  0.2644 -0.5564 -0.1003
  180SLPC    C220482   0.924  -0.076   2.750  1.0531  0.0394 -0.1576
  180SLPC    HS20483   0.913  -0.167   2.813  0.7007 -1.3265 -2.1294
  180SLPC   O2120484   0.887   0.047   2.819 -0.3004 -0.2578 -0.1511
  180SLPC   C2120485   0.865   0.041   2.949 -0.1933  0.1560 -0.0629
  180SLPC   O2220486   0.860  -0.057   3.020 -0.3692  0.0604  0.3175
  180SLPC   C2220487   0.842   0.175   2.989  0.1190  0.3034  0.3932
  180SLPC   H2R20488   0.910   0.232   2.922  0.2984 -0.5743 -0.1872
  180SLPC   H2S20489   0.740   0.208   2.960  0.2948 -0.4911 -1.2495
  180SLPC    C320490   1.074  -0.066   2.712 -0.1244  0.0119  0.4453
  180SLPC    HX20491   1.096   0.028   2.656  2.3193 -0.3023  0.7744
  180SLPC    HY20492   1.102  -0.155   2.651 -2.8222 -0.1599 -0.6901
  180SLPC   O3120493   1.148  -0.062   2.839  0.5790 -0.0067  0.1749
  180SLPC   C3120494   1.179  -0.176   2.889  0.1081 -0.3309  0.2913
  180SLPC   O3220495   1.155  -0.287   2.839 -0.6247 -0.1938 -0.4563
  180SLPC   C3220496   1.254  -0.149   3.020 -0.5452 -0.0248 -0.4114
  180SLPC   H2X20497   1.182  -0.166   3.103 -0.7282  0.6303 -0.4367
  180SLPC   H2Y20498   1.272  -0.040   3.031 -1.1909  0.0691 -0.2772
  180SLPC   C2320499   0.873   0.203   3.135  0.1569  0.3651  0.1355
  180SLPC   H3R20500   0.981   0.189   3.154 -0.1209 -1.3114  0.6961
  180SLPC   H3S20501   0.814   0.127   3.193 -0.3451 -1.2725 -2.3511
  180SLPC   C2420502   0.823   0.336   3.182 -0.8558  0.6367  0.1791
  180SLPC   H4R20503   0.739   0.369   3.117 -1.1027 -1.8208 -0.8536
  180SLPC   H4S20504   0.896   0.419   3.172 -1.6215  1.6325  2.3156
  180SLPC   C2520505   0.778   0.340   3.326 -0.1853 -1.3419  0.9733
  180SLPC   H5R20506   0.760   0.446   3.352  1.7801  0.0733 -2.6495
  180SLPC   H5S20507   0.871   0.320   3.383  0.3670 -0.6311  0.3496
  180SLPC   C2620508   0.657   0.257   3.353  0.2000 -0.6249  0.2013
  180SLPC   H6R20509   0.678   0.149   3.338 -0.7745 -0.7867 -0.1414
  180SLPC   H6S20510   0.586   0.280   3.270  0.7065 -0.9898 -0.3379
  180SLPC   C2720511   0.580   0.273   3.488 -0.3300 -0.1103  0.0570
  180SLPC   H7R20512   0.512   0.187   3.503  2.5401 -2.8466 -1.4144
  180SLPC   H7S20513   0.520   0.366   3.481 -0.8801 -0.3396  1.4378
  180SLPC   C2820514   0.678   0.289   3.609  0.1778  0.0443  0.7705
  180SLPC   H8R20515   0.743   0.374   3.581 -0.7194  0.8571  1.0826
  180SLPC   H8S20516   0.731   0.192   3.609 -0.6516 -0.4223  1.4843
  180SLPC   C2920517   0.613   0.320   3.744  0.5501 -0.2053 -0.0316
  180SLPC   H9R20518   0.579   0.425   3.749  1.0969 -0.0648  1.1414
  180SLPC  C21020519   0.588   0.238   3.842  0.7200  0.1435  0.0177
  180SLPC  H10R20520   0.568   0.277   3.943 -0.2150  0.8009 -0.4005
  180SLPC  C21120521   0.627   0.090   3.847 -0.4328  0.5530 -1.0168
  180SLPC  H11R20522   0.732   0.077   3.880 -0.3143 -2.3019 -2.2410
  180SLPC  H11S20523   0.630   0.046   3.745  0.5931  0.5470 -0.9880
  180SLPC  C21220524   0.534   0.019   3.947 -0.2867 -0.4443  0.2002
  180SLPC  H12R20525   0.450  -0.036   3.901 -0.4845 -0.3597  0.4596
  180SLPC  C21320526   0.534   0.021   4.082  0.1083  0.0948  0.1051
  180SLPC  H13R20527   0.465  -0.047   4.134 -1.2200  0.1705 -1.4822
  180SLPC  C21420528   0.630   0.109   4.155  0.4207  0.7715 -1.0928
  180SLPC  H14R20529   0.710   0.154   4.093  3.7423  0.7895  2.8053
  180SLPC  H14S20530   0.683   0.051   4.234 -1.6450  3.0303  2.2172
  180SLPC  C21520531   0.561   0.230   4.230  0.0253 -0.2653 -0.1564
  180SLPC  H15R20532   0.501   0.287   4.156 -1.4777 -2.3476 -0.6364
  180SLPC  H15S20533   0.630   0.301   4.279 -0.5210  1.8186 -2.2416
  180SLPC  C21620534   0.465   0.176   4.337 -0.0027 -0.4193 -0.5153
  180SLPC  H16R20535   0.496   0.073   4.364 -0.5526  0.3071  3.4296
  180SLPC  H16S20536   0.359   0.165   4.309 -0.0347 -0.1924 -0.4857
  180SLPC  C21720537   0.460   0.260   4.464 -0.0576  0.6606 -0.7766
  180SLPC  H17R20538   0.564   0.272   4.500  0.3564  0.1506 -1.7435
  180SLPC  H17S20539   0.402   0.207   4.542 -0.5724 -0.9934 -2.2168
  180SLPC  C21820540   0.398   0.397   4.439  0.4589 -1.0250 -0.2694
  180SLPC  H18R20541   0.289   0.394   4.459  0.3555 -0.4986 -0.7398
  180SLPC  H18S20542   0.416   0.436   4.337 -1.3928 -0.7486 -0.5171
  180SLPC  H18T20543   0.429   0.472   4.515 -1.8767 -0.0632 -0.2066
  180SLPC   C3320544   1.386  -0.225   3.032  0.4878  0.6622  0.2629
  180SLPC   H3X20545   1.440  -0.196   3.125  1.2055 -3.3390  1.3105
  180SLPC   H3Y20546   1.457  -0.204   2.949 -2.5075  2.0483 -2.1383
  180SLPC   C3420547   1.366  -0.375   3.028  0.7284 -0.0373 -0.4480
  180SLPC   H4X20548   1.464  -0.428   3.034  0.4492 -0.4362  1.1108
  180SLPC   H4Y20549   1.327  -0.398   2.927 -2.8295  0.9490  0.5531
  180SLPC   C3520550   1.270  -0.430   3.133  0.5639 -0.0468 -0.1250
  180SLPC   H5X20551   1.266  -0.538   3.104  0.6623  0.3529 -1.6978
  180SLPC   H5Y20552   1.172  -0.380   3.123  0.9114  0.8971  0.9766
  180SLPC   C3620553   1.319  -0.424   3.276 -0.0616  0.5811 -0.2077
  180SLPC   H6X20554   1.340  -0.319   3.306  0.9186  0.4596 -0.4171
  180SLPC   H6Y20555   1.409  -0.490   3.275 -0.5368 -0.2213  2.2303
  180SLPC   C3720556   1.206  -0.480   3.369 -0.3299 -0.1411 -0.2869
  180SLPC   H7X20557   1.176  -0.580   3.331  1.3119 -0.2876 -1.3037
  180SLPC   H7Y20558   1.119  -0.412   3.362 -0.6837 -0.2539  2.3283
  180SLPC   C3820559   1.258  -0.481   3.513  0.5096 -0.7463 -0.3193
  180SLPC   H8X20560   1.276  -0.376   3.544  0.2962 -0.6461 -0.5323
  180SLPC   H8Y20561   1.356  -0.534   3.505  0.0581 -1.8448  1.0506
  180SLPC   C3920562   1.164  -0.551   3.617 -0.6714  0.1993 -0.2864
  180SLPC   H9X20563   1.143  -0.655   3.583  0.0649  0.2088 -0.7987
  180SLPC   H9Y20564   1.071  -0.491   3.632  1.1392  3.4505 -1.1817
  180SLPC  C31020565   1.232  -0.559   3.762  0.0894 -0.6591 -0.2463
  180SLPC  H10X20566   1.262  -0.457   3.794 -0.3576 -1.0329  1.4382
  180SLPC  H10Y20567   1.322  -0.620   3.739  0.2258 -0.4939 -0.1553
  180SLPC  C31120568   1.167  -0.630   3.881  0.2483 -0.8269  0.4359
  180SLPC  H11X20569   1.116  -0.726   3.856 -3.0995  0.8270  0.3433
  180SLPC  H11Y20570   1.084  -0.572   3.926  0.7657  1.4315 -1.3431
  180SLPC  C31220571   1.260  -0.652   4.007 -0.4612 -1.4692 -0.4699
  180SLPC  H12X20572   1.335  -0.571   4.001 -1.2782 -0.7896 -3.4100
  180SLPC  H12Y20573   1.305  -0.751   3.986 -0.6634 -1.7268  0.2965
  180SLPC  C31320574   1.186  -0.656   4.142  0.5870 -0.0487  0.2170
  180SLPC  H13X20575   1.096  -0.720   4.131  0.0757  0.6606  0.2227
  180SLPC  H13Y20576   1.148  -0.553   4.161  2.3630  0.8299 -0.7079
  180SLPC  C31420577   1.266  -0.705   4.263  0.2180  0.5186 -0.3248
  180SLPC  H14X20578   1.365  -0.655   4.270  0.8403 -0.6732 -0.3685
  180SLPC  H14Y20579   1.289  -0.812   4.244 -3.5964 -0.2504 -1.3783
  180SLPC  C31520580   1.205  -0.705   4.401  0.8210 -0.0284  0.2414
  180SLPC  H15X20581   1.263  -0.778   4.461  0.3688 -0.1421  0.5366
  180SLPC  H15Y20582   1.101  -0.739   4.383  0.5457  0.6104  0.5940
  180SLPC  C31620583   1.212  -0.571   4.468  0.3176  1.2589 -0.3737
  180SLPC  H16X20584   1.134  -0.504   4.426  0.0299  0.3925 -1.2695
  180SLPC  H16Y20585   1.311  -0.523   4.457  0.3505  0.7371 -2.9516
  180SLPC  C31720586   1.175  -0.589   4.617 -0.1658  0.2874 -0.7563
  180SLPC  H17X20587   1.264  -0.633   4.667 -0.2060  0.0105 -0.9257
  180SLPC  H17Y20588   1.093  -0.664   4.616  0.3639 -0.3645  0.9544
  180SLPC  C31820589   1.128  -0.455   4.675 -0.0405 -1.0885 -0.6214
  180SLPC  H18X20590   1.209  -0.382   4.697 -0.9758 -0.3272  0.4768
  180SLPC  H18Y20591   1.080  -0.470   4.774 -1.4193  1.7136 -0.7490
  180SLPC  H18Z20592   1.044  -0.412   4.616 -1.5459 -0.8211  1.6052
  181SLPC     N20593   6.416   0.390   2.001  0.0510  0.0070  0.0964
  181SLPC   C1320594   6.416   0.356   1.858 -0.0884  0.1337  0.3529
  181SLPC  H13A20595   6.457   0.435   1.797 -0.5133 -0.6931 -1.0776
  181SLPC  H13B20596   6.485   0.276   1.834  0.5045  1.1102 -1.3585
  181SLPC  H13C20597   6.317   0.328   1.823 -1.9877  1.9731  3.7239
  181SLPC   C1420598   6.562   0.435   2.036 -0.2618 -0.1143  0.1834
  181SLPC  H14A20599   6.569   0.442   2.143  0.9840 -0.8439  0.1687
  181SLPC  H14B20600   6.636   0.358   2.017  0.1279 -0.3785  2.5200
  181SLPC  H14C20601   6.586   0.526   1.983 -3.3678  1.1367  0.7208
  181SLPC   C1520602   6.380   0.265   2.079  0.2782  0.2245  0.9928
  181SLPC  H15A20603   6.363   0.284   2.184 -1.7069 -0.9065  0.9240
  181SLPC  H15B20604   6.304   0.197   2.045 -0.9028 -1.5338  6.1630
  181SLPC  H15C20605   6.465   0.197   2.078 -1.0578 -1.5184  0.0967
  181SLPC   C1220606   6.321   0.502   2.038 -0.3806  0.7635 -1.0849
  181SLPC  H12A20607   6.220   0.464   2.035  0.2968 -1.1749 -0.4909
  181SLPC  H12B20608   6.317   0.577   1.961 -2.5061 -1.0709 -2.8953
  181SLPC   C1120609   6.340   0.563   2.177  0.1876 -0.5470 -0.3072
  181SLPC  H11A20610   6.271   0.650   2.173 -2.2061 -2.3242 -4.4877
  181SLPC  H11B20611   6.445   0.597   2.190 -0.5062  1.4224  0.5484
  181SLPC     P20612   6.166   0.459   2.353 -0.0828 -0.2678  0.3686
  181SLPC   O1320613   6.062   0.548   2.294 -0.1716 -0.2566 -0.0094
  181SLPC   O1420614   6.135   0.316   2.360 -0.0585 -0.1426 -0.6029
  181SLPC   O1220615   6.307   0.461   2.278 -0.0410 -0.2107 -0.2401
  181SLPC   O1120616   6.219   0.518   2.494  0.0258  0.1041  0.1359
  181SLPC    C120617   6.249   0.657   2.503  0.1538 -0.2976  0.0857
  181SLPC    HA20618   6.259   0.705   2.404 -1.6926  0.5440  0.2641
  181SLPC    HB20619   6.171   0.715   2.556 -0.9372  0.1727 -1.9295
  181SLPC    C220620   6.386   0.684   2.581  0.3884 -0.2028  0.1264
  181SLPC    HS20621   6.465   0.625   2.529 -0.8161 -0.7841 -1.1127
  181SLPC   O2120622   6.382   0.632   2.719  0.6847  0.2495  0.2023
  181SLPC   C2120623   6.494   0.598   2.777  0.0378 -0.4571  0.5350
  181SLPC   O2220624   6.603   0.624   2.721 -0.1770 -0.1489  0.2355
  181SLPC   C2220625   6.485   0.539   2.923 -0.5862  0.3064 -0.1853
  181SLPC   H2R20626   6.468   0.614   3.002  0.0735  1.5427 -1.1789
  181SLPC   H2S20627   6.396   0.473   2.915 -1.2200  1.2238 -1.0148
  181SLPC    C320628   6.411   0.836   2.568 -0.1932  0.8387  0.7594
  181SLPC    HX20629   6.408   0.855   2.458 -1.3951 -0.7854  0.4744
  181SLPC    HY20630   6.518   0.858   2.586 -0.4750  1.0783  2.3126
  181SLPC   O3120631   6.312   0.921   2.628  0.1290 -0.0423  0.2493
  181SLPC   C3120632   6.336   0.958   2.747  0.0936 -0.1593 -0.1924
  181SLPC   O3220633   6.430   0.915   2.813  0.0296  0.1870  0.0393
  181SLPC   C3220634   6.231   1.065   2.791 -0.1425 -0.2204 -0.0375
  181SLPC   H2X20635   6.128   1.043   2.757 -0.0106  1.3273 -1.5651
  181SLPC   H2Y20636   6.265   1.164   2.753 -2.0894  0.9841  1.1533
  181SLPC   C2320637   6.599   0.447   2.974 -0.4222  0.0209  0.7855
  181SLPC   H3R20638   6.660   0.529   3.016 -2.6013  1.1531  1.9293
  181SLPC   H3S20639   6.656   0.398   2.891 -0.5360 -2.7184  2.2103
  181SLPC   C2420640   6.574   0.344   3.076 -0.2414  0.2569 -0.4681
  181SLPC   H4R20641   6.658   0.272   3.095 -1.7962 -2.1970 -2.2421
  181SLPC   H4S20642   6.501   0.274   3.030  0.5680 -0.7100 -0.3295
  181SLPC   C2520643   6.524   0.397   3.214 -0.3692 -0.7543  0.1664
  181SLPC   H5R20644   6.423   0.443   3.205 -0.9535 -1.8684  0.8927
  181SLPC   H5S20645   6.596   0.468   3.260  0.7638 -1.2825 -0.7450
  181SLPC   C2620646   6.494   0.291   3.321 -0.1874  0.3676 -0.0333
  181SLPC   H6R20647   6.414   0.221   3.285  1.2988 -2.3719  1.6193
  181SLPC   H6S20648   6.458   0.342   3.413  0.1410  0.0768  0.2611
  181SLPC   C2720649   6.611   0.204   3.369 -0.7538 -0.3760  0.3347
  181SLPC   H7R20650   6.703   0.263   3.391  0.0608 -1.2775 -0.5909
  181SLPC   H7S20651   6.645   0.141   3.284  0.2358 -0.6321  0.9041
  181SLPC   C2820652   6.579   0.110   3.494  0.1699 -0.3929 -0.1830
  181SLPC   H8R20653   6.652   0.026   3.493  0.2966 -0.2830 -0.7512
  181SLPC   H8S20654   6.478   0.065   3.479  0.4436 -1.1541  0.1920
  181SLPC   C2920655   6.585   0.181   3.624 -0.0263 -0.7668 -0.4969
  181SLPC   H9R20656   6.522   0.271   3.630  0.2071 -0.6600  0.6032
  181SLPC  C21020657   6.655   0.155   3.736 -0.6020  0.8919  0.0486
  181SLPC  H10R20658   6.655   0.219   3.825 -1.5850  2.9783 -1.3754
  181SLPC  C21120659   6.747   0.034   3.760 -0.6594 -0.0248  0.3299
  181SLPC  H11R20660   6.725  -0.040   3.680  0.2882 -1.1929  1.1074
  181SLPC  H11S20661   6.733  -0.019   3.856 -0.5311  1.4778  1.2069
  181SLPC  C21220662   6.888   0.074   3.740  0.1377 -0.1229 -0.6761
  181SLPC  H12R20663   6.903   0.103   3.635 -2.0978  0.5977 -0.8501
  181SLPC  C21320664   6.983   0.094   3.840  0.6509 -0.1078 -0.4647
  181SLPC  H13R20665   7.081   0.134   3.812  0.1504  2.0408  0.6480
  181SLPC  C21420666   6.964   0.080   3.988 -0.3461 -0.6371  0.3946
  181SLPC  H14R20667   6.890   0.157   4.017 -0.8915 -0.4642 -1.3247
  181SLPC  H14S20668   7.059   0.121   4.030  0.3286 -1.5978 -0.1522
  181SLPC  C21520669   6.935  -0.052   4.061  0.4047  0.2445  0.2394
  181SLPC  H15R20670   7.025  -0.116   4.064  0.9459  0.9963  2.0303
  181SLPC  H15S20671   6.857  -0.115   4.012 -0.3729 -0.0011  1.7118
  181SLPC  C21620672   6.875  -0.028   4.199 -0.7014  0.0095 -0.1984
  181SLPC  H16R20673   6.764  -0.022   4.197 -0.9453  0.0469  4.2254
  181SLPC  H16S20674   6.914   0.069   4.237 -1.3183  0.4608 -0.6908
  181SLPC  C21720675   6.912  -0.135   4.299 -0.0479  0.1701  0.5787
  181SLPC  H17R20676   7.022  -0.124   4.313  0.1124 -1.4838  0.8775
  181SLPC  H17S20677   6.872  -0.227   4.251 -1.8675  1.5083 -0.6068
  181SLPC  C21820678   6.857  -0.105   4.437 -0.0312  0.4276 -0.1204
  181SLPC  H18R20679   6.905  -0.165   4.518 -1.7762 -0.1826  0.5005
  181SLPC  H18S20680   6.749  -0.126   4.447 -0.0713  1.3626  1.8525
  181SLPC  H18T20681   6.879  -0.000   4.468 -0.0900  0.4082 -0.0116
  181SLPC   C3320682   6.230   1.079   2.946  1.1209 -0.3643 -0.4939
  181SLPC   H3X20683   6.318   1.131   2.990 -0.0893  0.8357  0.6269
  181SLPC   H3Y20684   6.223   0.982   3.000 -1.4029  0.5583  1.0276
  181SLPC   C3420685   6.104   1.150   3.003  0.2594  0.1826 -0.2299
  181SLPC   H4X20686   6.029   1.068   2.999  2.0936 -1.5704 -1.1106
  181SLPC   H4Y20687   6.064   1.227   2.934  1.4650  1.1703  0.1478
  181SLPC   C3520688   6.110   1.205   3.148 -0.8599 -0.1414 -0.1800
  181SLPC   H5X20689   6.034   1.287   3.150  0.2415  0.9103  1.7936
  181SLPC   H5Y20690   6.203   1.266   3.152 -0.4063 -0.8550  0.2276
  181SLPC   C3620691   6.105   1.106   3.258  0.2309  0.6587  0.1721
  181SLPC   H6X20692   6.189   1.034   3.257  0.9041  1.1768  4.0282
  181SLPC   H6Y20693   6.006   1.059   3.246  0.9658 -0.6364 -1.1495
  181SLPC   C3720694   6.109   1.175   3.393  0.3998 -0.2284  0.3091
  181SLPC   H7X20695   6.018   1.235   3.413  0.8339  0.5318  0.0317
  181SLPC   H7Y20696   6.193   1.247   3.392 -0.1292  0.4244  1.2743
  181SLPC   C3820697   6.136   1.074   3.511  0.2746 -0.7207  0.3507
  181SLPC   H8X20698   6.217   1.006   3.476  2.1993  2.1357 -1.2133
  181SLPC   H8Y20699   6.046   1.018   3.544  0.0537 -0.6775 -0.1646
  181SLPC   C3920700   6.205   1.151   3.634 -0.0572 -0.4379 -0.0633
  181SLPC   H9X20701   6.297   1.210   3.611 -1.3390  1.5115 -0.4113
  181SLPC   H9Y20702   6.245   1.075   3.705  1.2806 -3.2740 -3.5259
  181SLPC  C31020703   6.102   1.246   3.702  0.4219 -0.0513  0.4973
  181SLPC  H10X20704   6.007   1.192   3.722  0.5607 -0.4869 -0.0010
  181SLPC  H10Y20705   6.086   1.323   3.623  0.2261 -0.9804 -0.3834
  181SLPC  C31120706   6.151   1.303   3.832  0.0089  0.0791 -0.3908
  181SLPC  H11X20707   6.241   1.363   3.810 -0.9636  1.4654 -0.7287
  181SLPC  H11Y20708   6.175   1.221   3.904 -1.4253  0.9502  1.1792
  181SLPC  C31220709   6.054   1.408   3.894 -0.1753 -0.5081  0.1726
  181SLPC  H12X20710   5.965   1.360   3.942 -0.2280  0.8818  1.5652
  181SLPC  H12Y20711   6.010   1.485   3.827 -1.6081 -0.4527  1.1293
  181SLPC  C31320712   6.126   1.507   3.995 -0.0304  0.0861  0.1205
  181SLPC  H13X20713   6.203   1.563   3.936 -1.2369  0.8626 -0.7751
  181SLPC  H13Y20714   6.179   1.443   4.068 -1.0852  1.5183  2.2245
  181SLPC  C31420715   6.035   1.591   4.094  0.2844 -0.1688  0.2663
  181SLPC  H14X20716   6.006   1.522   4.176  0.0730 -1.2361 -0.7013
  181SLPC  H14Y20717   5.940   1.624   4.048  0.4808 -0.9713 -0.7436
  181SLPC  C31520718   6.104   1.716   4.161  0.3230  0.0521 -0.2531
  181SLPC  H15X20719   6.025   1.787   4.195 -1.0424 -1.3423 -0.4107
  181SLPC  H15Y20720   6.165   1.767   4.083  0.1005 -1.4009 -1.4256
  181SLPC  C31620721   6.191   1.676   4.287 -0.7013 -0.2140 -0.6002
  181SLPC  H16X20722   6.274   1.613   4.249  0.3492  1.6349 -1.5230
  181SLPC  H16Y20723   6.119   1.610   4.339 -3.6394  1.7499 -1.8900
  181SLPC  C31720724   6.238   1.798   4.368  0.6040  0.7729  0.3462
  181SLPC  H17X20725   6.156   1.837   4.432  0.3177  0.2497  0.3073
  181SLPC  H17Y20726   6.259   1.884   4.301  0.6773  1.0668  0.7401
  181SLPC  C31820727   6.361   1.786   4.462 -0.2736  0.6754 -0.8035
  181SLPC  H18X20728   6.388   1.874   4.524  0.6531 -1.0130  1.3114
  181SLPC  H18Y20729   6.454   1.779   4.402  1.3773  0.2517  1.6719
  181SLPC  H18Z20730   6.343   1.695   4.524 -2.5374  0.0468 -2.2554
  182SLPC     N20731   3.505   3.947   1.766 -0.1710  0.8527 -1.0979
  182SLPC   C1320732   3.566   3.816   1.706 -0.0402 -0.4031 -0.1989
  182SLPC  H13A20733   3.548   3.735   1.775  0.8552 -2.9723 -2.8035
  182SLPC  H13B20734   3.518   3.791   1.613 -2.3119  1.7258  0.2906
  182SLPC  H13C20735   3.672   3.826   1.683 -0.1553 -1.2437 -1.1472
  182SLPC   C1420736   3.569   4.059   1.701  0.1840 -0.1448  0.6248
  182SLPC  H14A20737   3.676   4.052   1.719 -0.0990 -1.9666  1.7814
  182SLPC  H14B20738   3.540   4.065   1.597  2.3215 -1.2265 -0.0978
  182SLPC  H14C20739   3.525   4.149   1.742 -0.6979 -0.0449 -0.4989
  182SLPC   C1520740   3.543   3.946   1.909  0.0095 -0.3660 -0.3335
  182SLPC  H15A20741   3.500   3.858   1.955  2.2467 -2.3796 -1.8758
  182SLPC  H15B20742   3.649   3.953   1.924  0.0273 -0.4083 -0.4391
  182SLPC  H15C20743   3.505   4.038   1.950  0.6535  1.4276 -3.4549
  182SLPC   C1220744   3.352   3.944   1.755 -0.2094  0.0714  0.0552
  182SLPC  H12A20745   3.316   3.848   1.788 -0.2380  0.1675  0.3063
  182SLPC  H12B20746   3.323   3.964   1.653  0.9185  0.8635 -0.1278
  182SLPC   C1120747   3.271   4.051   1.848 -0.4293 -0.1325 -0.6732
  182SLPC  H11A20748   3.168   4.045   1.808 -0.4003 -0.9331 -0.6352
  182SLPC  H11B20749   3.324   4.146   1.826  1.2829 -0.1976  2.5586
  182SLPC     P20750   3.206   4.122   2.097 -0.3435 -0.6007 -0.2782
  182SLPC   O1320751   3.259   4.256   2.073 -0.1069 -0.3886  0.5970
  182SLPC   O1420752   3.061   4.107   2.107  0.2384 -0.2395 -0.1192
  182SLPC   O1220753   3.265   4.020   1.990  0.5456  0.0628  0.5062
  182SLPC   O1120754   3.271   4.071   2.225 -0.0640 -0.0225 -0.4063
  182SLPC    C120755   3.411   4.074   2.260 -0.7004  0.1627 -0.5977
  182SLPC    HA20756   3.436   3.968   2.278 -2.6847 -0.0973  1.0409
  182SLPC    HB20757   3.478   4.107   2.178  2.1720  0.7014  1.8205
  182SLPC    C220758   3.449   4.159   2.392  0.0224 -0.8661  1.0095
  182SLPC    HS20759   3.557   4.146   2.410  0.3553  1.3970  0.9481
  182SLPC   O2120760   3.367   4.117   2.496  0.2559  0.1597  0.4772
  182SLPC   C2120761   3.420   4.063   2.606  0.1672 -0.6182 -0.7098
  182SLPC   O2220762   3.529   4.009   2.616 -0.0972  0.0769  0.3617
  182SLPC   C2220763   3.318   4.067   2.718  0.0917  0.5260 -0.1396
  182SLPC   H2R20764   3.281   4.171   2.732 -2.0097  0.1764 -2.3776
  182SLPC   H2S20765   3.226   4.014   2.686  0.3566  1.1493 -2.0445
  182SLPC    C320766   3.431   4.312   2.366 -0.3798  0.1475 -0.6370
  182SLPC    HX20767   3.326   4.326   2.335 -1.2784 -2.0790  1.0828
  182SLPC    HY20768   3.503   4.332   2.283 -0.2078  1.0029 -0.2912
  182SLPC   O3120769   3.464   4.399   2.473 -0.2605 -0.7055 -0.0684
  182SLPC   C3120770   3.421   4.524   2.456  0.3607  0.3410 -0.0794
  182SLPC   O3220771   3.359   4.569   2.357 -0.4337 -0.0979 -0.3314
  182SLPC   C3220772   3.462   4.604   2.578 -0.3691 -0.6053 -0.6581
  182SLPC   H2X20773   3.375   4.667   2.605  0.3891 -0.4133  1.4883
  182SLPC   H2Y20774   3.546   4.670   2.548  0.7449 -0.7152  1.9366
  182SLPC   C2320775   3.376   4.031   2.860  0.4477 -0.3737  0.4422
  182SLPC   H3R20776   3.487   4.032   2.865  0.5568  1.1529 -1.5080
  182SLPC   H3S20777   3.352   3.926   2.888 -1.2100  0.0707  0.7560
  182SLPC   C2420778   3.327   4.124   2.973  0.4201  0.3714 -0.3205
  182SLPC   H4R20779   3.219   4.112   2.996  0.2950 -0.0721 -1.1087
  182SLPC   H4S20780   3.338   4.231   2.947 -0.3497  1.2048  2.3762
  182SLPC   C2520781   3.402   4.089   3.107  0.0907  0.4159  0.2823
  182SLPC   H5R20782   3.508   4.079   3.077 -0.2893 -1.0764 -0.6665
  182SLPC   H5S20783   3.369   3.994   3.154 -2.8606  1.8617  1.4003
  182SLPC   C2620784   3.382   4.194   3.225  0.4284  0.6784  0.1488
  182SLPC   H6R20785   3.286   4.245   3.202 -0.8222 -1.3915  0.5795
  182SLPC   H6S20786   3.469   4.263   3.231  0.1442  1.0194  0.3802
  182SLPC   C2720787   3.359   4.132   3.364  0.1604 -0.6214 -0.0063
  182SLPC   H7R20788   3.370   4.211   3.441 -0.8481  0.1018 -0.5799
  182SLPC   H7S20789   3.442   4.060   3.378  1.2756  0.2623 -1.7088
  182SLPC   C2820790   3.230   4.048   3.394 -0.7613  0.2111  0.5194
  182SLPC   H8R20791   3.224   3.957   3.330  0.7297 -0.9411  1.9399
  182SLPC   H8S20792   3.142   4.110   3.366 -0.5627 -0.2325 -1.2420
  182SLPC   C2920793   3.231   4.020   3.536  0.2435 -0.4001 -0.2081
  182SLPC   H9R20794   3.327   4.009   3.589 -0.3665  1.2481  1.3157
  182SLPC  C21020795   3.121   4.022   3.610 -0.2301  0.4399 -0.9390
  182SLPC  H10R20796   3.128   3.978   3.711 -2.4617  2.5329  0.2537
  182SLPC  C21120797   2.977   4.032   3.559  0.3507 -0.3022  0.3939
  182SLPC  H11R20798   2.969   4.090   3.464 -0.6917 -2.6370 -1.0321
  182SLPC  H11S20799   2.928   4.096   3.635  1.2833  1.8658 -0.7282
  182SLPC  C21220800   2.891   3.902   3.539  0.1767 -0.3527  0.6826
  182SLPC  H12R20801   2.904   3.831   3.621  2.1688  0.7393  1.3757
  182SLPC  C21320802   2.814   3.876   3.424 -0.1392  0.2922 -0.3611
  182SLPC  H13R20803   2.747   3.789   3.434 -2.3033  2.0213  1.1040
  182SLPC  C21420804   2.798   3.963   3.303  0.3992  0.0643  0.4564
  182SLPC  H14R20805   2.843   4.063   3.318 -1.3283  0.8125  0.8551
  182SLPC  H14S20806   2.692   3.985   3.275  0.3988 -1.6265 -1.0448
  182SLPC  C21520807   2.852   3.902   3.171 -0.3772  0.1709  0.2204
  182SLPC  H15R20808   2.784   3.825   3.129  1.2334  0.3493 -3.0412
  182SLPC  H15S20809   2.941   3.841   3.197 -1.8741 -1.7614  1.0276
  182SLPC  C21620810   2.863   3.999   3.056  0.3275 -0.3542 -0.5424
  182SLPC  H16R20811   2.944   4.073   3.075  0.4966 -0.6092 -0.2778
  182SLPC  H16S20812   2.765   4.052   3.056  0.7328  0.5734  2.3161
  182SLPC  C21720813   2.896   3.942   2.916  0.4486  0.3823  0.4158
  182SLPC  H17R20814   2.832   3.852   2.903 -1.2931  1.6206 -0.0675
  182SLPC  H17S20815   2.996   3.896   2.925  1.3849  1.8588 -1.6317
  182SLPC  C21820816   2.881   4.038   2.798 -0.3265  0.7897  0.4320
  182SLPC  H18R20817   2.786   4.094   2.816 -0.6531  0.0116  1.1394
  182SLPC  H18S20818   2.872   3.973   2.708 -2.6637 -0.0201  1.1661
  182SLPC  H18T20819   2.971   4.101   2.783 -0.6687  1.0406 -0.7062
  182SLPC   C3320820   3.506   4.515   2.698  0.1888 -0.4340  0.9843
  182SLPC   H3X20821   3.596   4.455   2.674 -0.8952 -1.4141 -0.9061
  182SLPC   H3Y20822   3.434   4.431   2.709  1.9092 -2.2875 -1.0546
  182SLPC   C3420823   3.537   4.603   2.818 -0.4935 -0.2278  0.2301
  182SLPC   H4X20824   3.456   4.679   2.824  0.1442  0.4375  0.4837
  182SLPC   H4Y20825   3.635   4.653   2.807  0.4108 -1.2866  2.7273
  182SLPC   C3520826   3.549   4.535   2.952  0.1706  0.5411 -0.8641
  182SLPC   H5X20827   3.630   4.459   2.953  1.9483  2.3608  0.3397
  182SLPC   H5Y20828   3.462   4.467   2.964  0.1860  0.6856  0.1433
  182SLPC   C3620829   3.562   4.628   3.068  0.5687  0.7761  0.0774
  182SLPC   H6X20830   3.464   4.680   3.079 -0.2932 -0.4421 -1.4885
  182SLPC   H6Y20831   3.640   4.704   3.049 -0.3388  2.1076  1.4160
  182SLPC   C3720832   3.607   4.568   3.206  0.2661  0.3206  0.4091
  182SLPC   H7X20833   3.709   4.524   3.210  0.0940 -0.0033  1.2773
  182SLPC   H7Y20834   3.536   4.489   3.239  0.8845 -0.0870  0.7706
  182SLPC   C3820835   3.618   4.678   3.313 -0.1500  0.3132  0.2207
  182SLPC   H8X20836   3.516   4.712   3.337 -0.0548  1.1588 -0.5300
  182SLPC   H8Y20837   3.662   4.765   3.260  1.0581  1.1477  2.4445
  182SLPC   C3920838   3.708   4.634   3.420 -0.0010  0.2500 -0.2094
  182SLPC   H9X20839   3.742   4.731   3.464 -1.8223  1.1706 -0.7170
  182SLPC   H9Y20840   3.790   4.569   3.384  0.4978 -0.3744  1.9194
  182SLPC  C31020841   3.613   4.571   3.530  0.7451 -0.0043 -0.0626
  182SLPC  H10X20842   3.541   4.499   3.486  1.0877 -0.3415 -0.0846
  182SLPC  H10Y20843   3.547   4.652   3.568 -0.0280 -1.7491  2.6389
  182SLPC  C31120844   3.694   4.506   3.644 -0.1194  0.2861  0.0772
  182SLPC  H11X20845   3.745   4.417   3.599  0.1343  1.0017 -1.1109
  182SLPC  H11Y20846   3.625   4.481   3.727 -0.9075 -0.2629 -0.7292
  182SLPC  C31220847   3.800   4.596   3.703  0.4042 -0.5450 -0.0738
  182SLPC  H12X20848   3.762   4.679   3.766  0.4501 -1.4610  1.1963
  182SLPC  H12Y20849   3.870   4.633   3.625 -0.8418  0.7902 -0.6017
  182SLPC  C31320850   3.901   4.534   3.807 -0.0487 -0.6987 -0.3844
  182SLPC  H13X20851   3.965   4.623   3.826 -2.1998  1.0507 -0.9842
  182SLPC  H13Y20852   3.966   4.454   3.767 -0.0371 -2.4666  2.8250
  182SLPC  C31420853   3.834   4.486   3.936 -0.3273  0.4800 -0.8865
  182SLPC  H14X20854   3.771   4.398   3.912  0.1749 -0.5820  1.4204
  182SLPC  H14Y20855   3.774   4.568   3.981  1.5364  0.4842  1.8125
  182SLPC  C31520856   3.928   4.435   4.045 -0.5445 -0.4186  0.1558
  182SLPC  H15X20857   3.997   4.519   4.070 -0.8744  0.4587 -1.7374
  182SLPC  H15Y20858   3.983   4.344   4.014 -0.7843 -0.6892  0.5146
  182SLPC  C31620859   3.871   4.394   4.176 -0.3430 -0.0641  0.8226
  182SLPC  H16X20860   3.925   4.307   4.218 -2.1560 -1.1691  0.9701
  182SLPC  H16Y20861   3.770   4.356   4.151  0.2752 -0.7415 -0.7902
  182SLPC  C31720862   3.860   4.517   4.262  0.8041 -0.3416  0.3785
  182SLPC  H17X20863   3.793   4.481   4.343 -0.6215  0.7537 -0.2699
  182SLPC  H17Y20864   3.807   4.603   4.214  0.7044  0.5575  2.0240
  182SLPC  C31820865   3.990   4.572   4.324  0.7637 -0.4454  0.2306
  182SLPC  H18X20866   4.061   4.495   4.361 -0.7338 -2.1226 -0.2898
  182SLPC  H18Y20867   3.975   4.643   4.409  0.1129 -0.9356  0.5350
  182SLPC  H18Z20868   4.044   4.638   4.253  0.9161 -0.3577  0.4257
  183SLPC     N20869   5.640   1.356   2.302 -0.1481  0.0617  0.2961
  183SLPC   C1320870   5.777   1.304   2.354  0.1561 -0.1560  0.0504
  183SLPC  H13A20871   5.772   1.243   2.443  1.0343 -2.1286 -1.1824
  183SLPC  H13B20872   5.813   1.227   2.287  1.4733 -0.9842  1.6163
  183SLPC  H13C20873   5.854   1.379   2.356  0.5971 -0.6058  0.4241
  183SLPC   C1420874   5.558   1.235   2.292  0.6692  1.0316  0.5698
  183SLPC  H14A20875   5.459   1.239   2.249 -0.3072 -0.3456  2.5463
  183SLPC  H14B20876   5.606   1.151   2.245 -1.9873 -2.0796  2.9197
  183SLPC  H14C20877   5.557   1.188   2.389  1.4767 -0.6785 -0.2091
  183SLPC   C1520878   5.654   1.418   2.168 -0.3423  0.2683  0.3719
  183SLPC  H15A20879   5.565   1.473   2.139  0.3906  1.6351  0.6310
  183SLPC  H15B20880   5.733   1.492   2.176 -2.0122  2.2497 -0.6149
  183SLPC  H15C20881   5.688   1.344   2.096  0.7892  0.3132  0.8442
  183SLPC   C1220882   5.585   1.460   2.405 -0.0253  0.7605  0.3672
  183SLPC  H12A20883   5.561   1.403   2.494  0.7316  0.8989  0.6661
  183SLPC  H12B20884   5.491   1.496   2.367  0.9346 -0.1817 -3.3100
  183SLPC   C1120885   5.656   1.591   2.436  0.3918  1.6144 -0.4097
  183SLPC  H11A20886   5.763   1.581   2.464  0.1698  3.7775  1.5204
  183SLPC  H11B20887   5.610   1.642   2.523  1.8964  0.7237  0.9743
  183SLPC     P20888   5.520   1.746   2.284  0.1074  0.3442  0.3727
  183SLPC   O1320889   5.539   1.885   2.254  0.1896 -0.1004 -0.0023
  183SLPC   O1420890   5.468   1.661   2.168 -0.2773 -0.3517  0.4479
  183SLPC   O1220891   5.654   1.680   2.333  0.4082 -0.0494 -0.3579
  183SLPC   O1120892   5.409   1.729   2.401 -0.1477 -0.3429 -0.3051
  183SLPC    C120893   5.352   1.850   2.453  0.7080  0.3947  0.0751
  183SLPC    HA20894   5.321   1.922   2.374  3.1849  0.6738 -0.7319
  183SLPC    HB20895   5.256   1.816   2.497  0.7093  0.0466 -0.1859
  183SLPC    C220896   5.447   1.928   2.555  0.4283  0.4582 -0.3063
  183SLPC    HS20897   5.535   1.952   2.491 -1.4964  1.7020 -2.6633
  183SLPC   O2120898   5.476   1.838   2.666 -0.5026 -0.3743  0.0585
  183SLPC   C2120899   5.594   1.867   2.723  0.3951  0.6821  0.0535
  183SLPC   O2220900   5.671   1.952   2.692 -0.4890 -0.0397  0.5082
  183SLPC   C2220901   5.618   1.761   2.830  0.0878 -0.4050 -1.0514
  183SLPC   H2R20902   5.528   1.764   2.894  0.8122  0.7556 -0.0373
  183SLPC   H2S20903   5.628   1.661   2.782  0.0844 -0.6000 -0.6515
  183SLPC    C320904   5.379   2.057   2.593  0.5351  0.0752 -0.2644
  183SLPC    HX20905   5.365   2.112   2.498 -0.2018  2.0401  0.9122
  183SLPC    HY20906   5.439   2.122   2.660 -1.4520 -1.4651  3.3435
  183SLPC   O3120907   5.245   2.035   2.646  0.3344  0.5258 -0.1479
  183SLPC   C3120908   5.245   2.013   2.780  0.1864 -0.8326 -0.4545
  183SLPC   O3220909   5.337   2.038   2.853  0.0442 -0.2233 -0.2976
  183SLPC   C3220910   5.100   1.969   2.827  0.0710 -0.5966  0.1259
  183SLPC   H2X20911   5.030   2.037   2.774 -1.5591 -0.3259  2.4906
  183SLPC   H2Y20912   5.084   1.980   2.936 -3.0753 -1.7559 -0.1102
  183SLPC   C2320913   5.745   1.793   2.914  0.1164  0.0952  0.5793
  183SLPC   H3R20914   5.753   1.896   2.956  2.7644  0.4601 -0.6146
  183SLPC   H3S20915   5.831   1.780   2.846  0.1374 -0.8695  0.7846
  183SLPC   C2420916   5.758   1.697   3.033 -0.7600  0.0527  0.4046
  183SLPC   H4R20917   5.734   1.595   2.995  1.7134 -0.1479 -0.8411
  183SLPC   H4S20918   5.689   1.732   3.112  0.5593  3.0163  0.3898
  183SLPC   C2520919   5.899   1.694   3.087 -0.9358  0.3585  0.2736
  183SLPC   H5R20920   5.945   1.791   3.115  2.0303 -1.0933  0.7663
  183SLPC   H5S20921   5.966   1.661   3.005 -0.9835  2.3697 -0.6349
  183SLPC   C2620922   5.896   1.604   3.208 -0.1363 -0.5927 -0.6458
  183SLPC   H6R20923   5.987   1.540   3.203  0.3927  0.2429 -3.4020
  183SLPC   H6S20924   5.815   1.529   3.205  0.4014 -1.1494 -2.0918
  183SLPC   C2720925   5.906   1.688   3.338 -0.0187  0.2538  0.2449
  183SLPC   H7R20926   5.813   1.748   3.336 -0.1394  0.0632  0.0211
  183SLPC   H7S20927   5.993   1.754   3.318 -0.5809  0.3812 -2.0561
  183SLPC   C2820928   5.922   1.605   3.471 -0.2537  0.4155  0.4143
  183SLPC   H8R20929   6.015   1.544   3.466 -0.8806 -0.6688  1.5820
  183SLPC   H8S20930   5.836   1.535   3.468  0.9565 -1.0984 -1.5672
  183SLPC   C2920931   5.920   1.687   3.595 -1.1263  0.3309  0.5011
  183SLPC   H9R20932   6.014   1.736   3.625 -0.4370 -0.6445 -0.0089
  183SLPC  C21020933   5.813   1.715   3.667 -0.1210 -0.2763 -0.1233
  183SLPC  H10R20934   5.828   1.792   3.744  0.5683  0.1429 -0.6673
  183SLPC  C21120935   5.677   1.666   3.631 -1.0781  0.3429  0.6393
  183SLPC  H11R20936   5.659   1.562   3.662  0.9227  0.0626  0.9820
  183SLPC  H11S20937   5.678   1.672   3.520  0.1906  0.2045  0.6229
  183SLPC  C21220938   5.569   1.750   3.683 -0.1554  0.1055  0.3013
  183SLPC  H12R20939   5.594   1.835   3.748 -0.7101  1.1508 -0.8018
  183SLPC  C21320940   5.437   1.722   3.659  0.3719  0.2230 -0.4735
  183SLPC  H13R20941   5.362   1.799   3.684  0.8779  0.7755 -0.6317
  183SLPC  C21420942   5.375   1.613   3.575  0.1587  0.1873  0.3532
  183SLPC  H14R20943   5.296   1.567   3.639  1.3255 -0.5365  1.3124
  183SLPC  H14S20944   5.453   1.536   3.557 -0.3914 -0.6290  1.3548
  183SLPC  C21520945   5.314   1.657   3.443 -0.2365  0.4594 -0.2533
  183SLPC  H15R20946   5.218   1.712   3.452 -1.0579 -0.8911 -0.4947
  183SLPC  H15S20947   5.283   1.564   3.392 -2.1602  0.0198  1.5861
  183SLPC  C21620948   5.418   1.732   3.357  0.8111 -0.1013  0.2389
  183SLPC  H16R20949   5.509   1.670   3.343  1.4627  1.1837 -1.5387
  183SLPC  H16S20950   5.443   1.835   3.388  3.5078  0.5479 -3.3839
  183SLPC  C21720951   5.357   1.764   3.215 -0.4145  0.1436 -0.2286
  183SLPC  H17R20952   5.428   1.830   3.161  1.2086 -0.8736  0.5591
  183SLPC  H17S20953   5.252   1.800   3.211 -1.1624 -1.8364  0.1854
  183SLPC  C21820954   5.351   1.635   3.136 -0.5414  0.1690  0.2487
  183SLPC  H18R20955   5.327   1.644   3.028  1.4273  0.7992 -0.1912
  183SLPC  H18S20956   5.286   1.562   3.189  0.3198 -0.6312  0.2229
  183SLPC  H18T20957   5.455   1.596   3.131 -0.6489 -0.0385 -0.3835
  183SLPC   C3320958   5.062   1.819   2.794 -0.2645 -0.4380 -0.3375
  183SLPC   H3X20959   5.115   1.753   2.865 -1.6658 -0.2813  0.8942
  183SLPC   H3Y20960   5.091   1.794   2.689  1.4759 -1.1770  0.2887
  183SLPC   C3420961   4.917   1.780   2.812  0.1025  0.2953 -0.2109
  183SLPC   H4X20962   4.903   1.672   2.791 -2.3598  0.9840 -2.6531
  183SLPC   H4Y20963   4.864   1.827   2.726 -0.8973  1.6534  1.0957
  183SLPC   C3520964   4.858   1.804   2.954 -0.3844 -0.8828  1.0682
  183SLPC   H5X20965   4.748   1.811   2.961 -0.4779 -1.8792  0.6970
  183SLPC   H5Y20966   4.894   1.908   2.970  0.9764 -1.1453 -0.0972
  183SLPC   C3620967   4.917   1.721   3.067 -0.0504 -0.5730 -0.4590
  183SLPC   H6X20968   5.027   1.736   3.070 -0.2453  1.1372 -0.9089
  183SLPC   H6Y20969   4.903   1.613   3.042 -0.1259 -0.5134 -0.6738
  183SLPC   C3720970   4.876   1.763   3.207  0.2194  0.5171 -0.7380
  183SLPC   H7X20971   4.766   1.747   3.217  0.3848  0.7616  2.9589
  183SLPC   H7Y20972   4.894   1.871   3.226 -0.8707  0.8055 -1.2549
  183SLPC   C3820973   4.942   1.677   3.318 -0.4870  0.4359 -0.6832
  183SLPC   H8X20974   5.052   1.691   3.314 -0.7635  2.5821 -2.1730
  183SLPC   H8Y20975   4.917   1.571   3.295 -1.5483  1.1536 -3.1155
  183SLPC   C3920976   4.883   1.721   3.450 -0.5731  0.1709  0.1576
  183SLPC   H9X20977   4.777   1.690   3.456 -0.2796 -1.6232 -2.1081
  183SLPC   H9Y20978   4.890   1.831   3.440  0.7360  0.2542  1.5306
  183SLPC  C31020979   4.969   1.684   3.572 -1.1105 -0.0241 -0.3019
  183SLPC  H10X20980   5.063   1.744   3.574 -1.7921  1.1324  2.7446
  183SLPC  H10Y20981   4.998   1.578   3.561 -0.9963 -0.1296  0.8579
  183SLPC  C31120982   4.895   1.698   3.711  0.0194  0.4747 -0.5638
  183SLPC  H11X20983   4.788   1.673   3.698 -0.0554  0.6999 -0.3827
  183SLPC  H11Y20984   4.884   1.801   3.753 -0.4983 -0.5943  2.1092
  183SLPC  C31220985   4.957   1.612   3.829 -0.3970  0.2963 -0.2618
  183SLPC  H12X20986   5.058   1.652   3.854 -0.1249 -0.8874  0.6172
  183SLPC  H12Y20987   4.961   1.510   3.783 -0.6228  0.2979 -0.2839
  183SLPC  C31320988   4.876   1.608   3.960  0.9838  0.6794 -0.1569
  183SLPC  H13X20989   4.772   1.578   3.936  1.0361 -1.0515  1.4697
  183SLPC  H13Y20990   4.879   1.702   4.020  2.3998 -0.2296  1.2915
  183SLPC  C31420991   4.921   1.499   4.051  0.3660  0.1609 -0.3008
  183SLPC  H14X20992   5.017   1.533   4.096  0.2278  0.1665 -0.0040
  183SLPC  H14Y20993   4.943   1.400   4.005  1.3802  0.0863  0.3304
  183SLPC  C31520994   4.804   1.473   4.159  0.7533  0.3402  0.3421
  183SLPC  H15X20995   4.789   1.365   4.180  0.4246  0.0123 -1.3972
  183SLPC  H15Y20996   4.704   1.507   4.125  0.9519  0.9207  0.3220
  183SLPC  C31620997   4.833   1.545   4.290  0.3879  0.4542  0.5494
  183SLPC  H16X20998   4.847   1.654   4.271 -0.5717  0.5765  0.5028
  183SLPC  H16Y20999   4.927   1.497   4.325  0.2640  0.2054  0.5424
  183SLPC  C31721000   4.738   1.524   4.402  0.0346  0.2736  0.3257
  183SLPC  H17X21001   4.794   1.511   4.498  0.6571  0.3072 -0.0243
  183SLPC  H17Y21002   4.696   1.422   4.390  0.7318 -0.0813  0.7788
  183SLPC  C31821003   4.631   1.623   4.424  0.5936 -0.2601 -0.5410
  183SLPC  H18X21004   4.672   1.721   4.458 -3.9694  1.2182  1.4862
  183SLPC  H18Y21005   4.547   1.597   4.492  1.6670 -1.0083  0.5263
  183SLPC  H18Z21006   4.580   1.650   4.329 -2.4408 -1.2357  0.6799
  184SLPC     N21007   0.570   3.439   2.312 -0.2015 -0.3117 -0.0410
  184SLPC   C1321008   0.687   3.517   2.262 -0.4528  0.1844  0.5025
  184SLPC  H13A21009   0.667   3.621   2.286 -0.4906  0.6083 -1.2748
  184SLPC  H13B21010   0.783   3.493   2.306  0.2688 -0.3905 -1.3004
  184SLPC  H13C21011   0.702   3.503   2.156 -2.9430  1.7676 -0.1478
  184SLPC   C1421012   0.590   3.291   2.277 -0.1193  0.8025  0.3720
  184SLPC  H14A21013   0.686   3.249   2.303 -0.6424 -0.0841  0.9217
  184SLPC  H14B21014   0.518   3.228   2.327 -1.2646  1.0932 -0.8719
  184SLPC  H14C21015   0.573   3.277   2.172  0.8553  1.3304  0.1283
  184SLPC   C1521016   0.448   3.484   2.234 -0.3002  0.3160  0.5096
  184SLPC  H15A21017   0.359   3.448   2.284 -1.5631 -0.0501 -1.8638
  184SLPC  H15B21018   0.441   3.592   2.235 -1.1905  0.2650  1.2763
  184SLPC  H15C21019   0.452   3.456   2.130 -0.3591  3.9274 -0.5826
  184SLPC   C1221020   0.558   3.454   2.463 -0.7427  0.1184  0.2432
  184SLPC  H12A21021   0.509   3.549   2.477 -1.8411 -0.3633 -0.2015
  184SLPC  H12B21022   0.659   3.460   2.500  0.2862 -3.3920 -1.5808
  184SLPC   C1121023   0.469   3.344   2.539 -0.3451 -0.1901  0.5801
  184SLPC  H11A21024   0.466   3.371   2.647 -2.7476  0.0488  0.5303
  184SLPC  H11B21025   0.506   3.240   2.540 -1.0920 -0.4741  2.2526
  184SLPC     P21026   0.232   3.463   2.528 -0.3882 -0.2332  0.4363
  184SLPC   O1321027   0.304   3.594   2.536  0.2085  0.5389 -0.2701
  184SLPC   O1421028   0.116   3.459   2.441 -0.4826  0.6382  0.1542
  184SLPC   O1221029   0.330   3.353   2.482  0.1430  0.5800  0.0673
  184SLPC   O1121030   0.198   3.428   2.678 -0.8573  0.4835  0.4192
  184SLPC    C121031   0.154   3.297   2.729  0.7635 -0.3592  0.0204
  184SLPC    HA21032   0.109   3.242   2.643 -0.1161 -1.9290  1.4165
  184SLPC    HB21033   0.236   3.234   2.770  0.5123 -1.6261 -1.3230
  184SLPC    C221034   0.065   3.333   2.854  0.0897  0.2266  0.2705
  184SLPC    HS21035   0.056   3.232   2.899  1.7473 -0.8873 -1.7201
  184SLPC   O2121036  -0.056   3.398   2.814  0.1326  0.0253  0.3012
  184SLPC   C2121037  -0.150   3.320   2.764 -0.3965 -0.3829 -0.6271
  184SLPC   O2221038  -0.132   3.202   2.736  0.5321  0.4228  0.6277
  184SLPC   C2221039  -0.278   3.393   2.752  0.1966  0.1605 -0.1515
  184SLPC   H2R21040  -0.253   3.501   2.753  0.6475  0.1517 -2.7922
  184SLPC   H2S21041  -0.335   3.362   2.662 -2.4437 -0.4040  1.5804
  184SLPC    C321042   0.151   3.421   2.946 -0.0223  0.0657  0.2040
  184SLPC    HX21043   0.146   3.524   2.905 -1.2237 -0.5917 -1.3686
  184SLPC    HY21044   0.253   3.377   2.937  0.2404  0.8424 -0.7257
  184SLPC   O3121045   0.103   3.415   3.086  0.2923 -0.1474  0.5815
  184SLPC   C3121046   0.112   3.309   3.160  0.0310 -0.4019  0.1762
  184SLPC   O3221047   0.160   3.201   3.124  0.6367  0.0023 -0.0282
  184SLPC   C3221048   0.068   3.341   3.303  0.1852  0.4309 -0.7518
  184SLPC   H2X21049   0.072   3.452   3.303 -1.2329  0.5271 -2.3792
  184SLPC   H2Y21050   0.149   3.306   3.371 -0.7987  2.4085  1.5542
  184SLPC   C2321051  -0.375   3.365   2.865  0.4303 -0.9113 -0.4895
  184SLPC   H3R21052  -0.399   3.257   2.859  0.0716 -0.7884 -1.3515
  184SLPC   H3S21053  -0.465   3.424   2.836 -0.6437 -1.5865  1.3118
  184SLPC   C2421054  -0.345   3.402   3.010  0.1600 -0.2951  0.6048
  184SLPC   H4R21055  -0.310   3.507   3.014 -0.3260 -0.1436  0.9341
  184SLPC   H4S21056  -0.269   3.331   3.049 -0.5338 -1.1682  0.4171
  184SLPC   C2521057  -0.471   3.395   3.104  0.4127  0.7561  0.1813
  184SLPC   H5R21058  -0.520   3.298   3.081 -2.1035  2.0694 -0.4453
  184SLPC   H5S21059  -0.545   3.471   3.069 -1.3399 -1.5238 -1.3926
  184SLPC   C2621060  -0.447   3.413   3.254  0.0308  0.6908  0.0024
  184SLPC   H6R21061  -0.389   3.506   3.270  0.8021  0.1762  0.2496
  184SLPC   H6S21062  -0.380   3.334   3.294 -0.8077 -0.1720 -0.2518
  184SLPC   C2721063  -0.583   3.410   3.322 -0.2675 -0.2717 -0.1692
  184SLPC   H7R21064  -0.637   3.320   3.287 -0.0977 -0.3881 -0.1332
  184SLPC   H7S21065  -0.640   3.500   3.290 -0.3556 -0.6487 -1.1009
  184SLPC   C2821066  -0.562   3.389   3.472 -0.3471  0.3166 -0.3641
  184SLPC   H8R21067  -0.501   3.470   3.517  0.7556 -1.1808  0.9608
  184SLPC   H8S21068  -0.503   3.295   3.479 -1.5985 -0.6300 -1.9310
  184SLPC   C2921069  -0.691   3.375   3.547 -0.2311 -0.4216 -0.1169
  184SLPC   H9R21070  -0.783   3.361   3.489  0.1708 -1.1556 -0.5961
  184SLPC  C21021071  -0.707   3.399   3.676 -0.5808 -0.3474  0.3777
  184SLPC  H10R21072  -0.803   3.393   3.729 -1.5281  2.4266 -0.8276
  184SLPC  C21121073  -0.584   3.403   3.763 -0.1377 -1.1047  0.4847
  184SLPC  H11R21074  -0.483   3.413   3.717  0.7033  0.0293  2.4675
  184SLPC  H11S21075  -0.579   3.307   3.819 -2.8059  0.3314  3.5285
  184SLPC  C21221076  -0.599   3.523   3.861 -0.0884  0.6126  0.3040
  184SLPC  H12R21077  -0.648   3.618   3.836  0.8327  1.2483  0.8854
  184SLPC  C21321078  -0.555   3.514   3.987 -0.5772 -0.6588  0.4183
  184SLPC  H13R21079  -0.545   3.610   4.039  0.0451  0.4868 -1.6956
  184SLPC  C21421080  -0.495   3.396   4.059  0.3809 -0.7820  0.1926
  184SLPC  H14R21081  -0.425   3.426   4.140 -0.7249  1.1447  0.4907
  184SLPC  H14S21082  -0.440   3.324   3.995 -0.1771 -1.6810  0.7114
  184SLPC  C21521083  -0.605   3.311   4.121  0.3155 -0.5116  0.1225
  184SLPC  H15R21084  -0.559   3.229   4.181  1.2394 -0.0501  0.0513
  184SLPC  H15S21085  -0.665   3.270   4.037  2.2886 -0.3266 -1.4425
  184SLPC  C21621086  -0.695   3.386   4.222 -0.2627  0.2263 -0.8945
  184SLPC  H16R21087  -0.789   3.423   4.176  0.5419 -1.1244 -3.8358
  184SLPC  H16S21088  -0.650   3.478   4.264  0.1166 -1.2636  2.3217
  184SLPC  C21721089  -0.713   3.299   4.354 -0.5602 -0.4418  0.7202
  184SLPC  H17R21090  -0.613   3.261   4.384  0.1703  1.8746  1.4534
  184SLPC  H17S21091  -0.759   3.204   4.320  0.7907 -0.5440 -0.9798
  184SLPC  C21821092  -0.789   3.362   4.467  0.3835 -0.4850 -0.7068
  184SLPC  H18R21093  -0.896   3.358   4.435  0.5531 -1.1256 -1.2156
  184SLPC  H18S21094  -0.760   3.466   4.492 -0.3347  0.0035 -1.7858
  184SLPC  H18T21095  -0.765   3.300   4.555  3.2241  2.3190  0.6954
  184SLPC   C3321096  -0.064   3.266   3.324 -0.2020  0.1642  0.0299
  184SLPC   H3X21097  -0.061   3.160   3.293 -0.9418 -0.3992  1.7956
  184SLPC   H3Y21098  -0.137   3.318   3.258 -0.9356  0.2492  0.8894
  184SLPC   C3421099  -0.112   3.273   3.468  0.2437  0.2429 -0.9713
  184SLPC   H4X21100  -0.222   3.256   3.464  0.1320  0.7266 -0.0723
  184SLPC   H4Y21101  -0.101   3.373   3.515 -0.5947 -1.1373  2.4710
  184SLPC   C3521102  -0.043   3.170   3.551 -1.0482  0.3372 -0.1648
  184SLPC   H5X21103   0.061   3.207   3.566  0.4824 -2.6097 -2.4742
  184SLPC   H5Y21104  -0.050   3.074   3.497  0.3791  1.7508 -3.1011
  184SLPC   C3621105  -0.102   3.145   3.694  0.1188  0.4750  0.2708
  184SLPC   H6X21106  -0.028   3.079   3.743  0.9665  1.5417  0.4629
  184SLPC   H6Y21107  -0.194   3.083   3.692  0.3018  0.1429  1.4196
  184SLPC   C3721108  -0.123   3.270   3.777  0.6204 -0.2585 -0.0727
  184SLPC   H7X21109  -0.211   3.330   3.742 -2.4312 -3.9372  0.6036
  184SLPC   H7Y21110  -0.033   3.334   3.784 -1.0502  2.1554  0.6626
  184SLPC   C3821111  -0.161   3.232   3.921  0.3126  0.0156 -0.2530
  184SLPC   H8X21112  -0.248   3.164   3.917  1.6302 -1.8485  1.1500
  184SLPC   H8Y21113  -0.198   3.321   3.976 -1.5115 -1.5433  1.1426
  184SLPC   C3921114  -0.045   3.174   3.995  0.7944  0.7151 -0.1853
  184SLPC   H9X21115   0.026   3.255   4.022 -0.1049  1.0344  1.3474
  184SLPC   H9Y21116   0.003   3.090   3.940 -3.7924 -2.2462 -0.1774
  184SLPC  C31021117  -0.098   3.112   4.126  0.1875 -0.5029 -0.0811
  184SLPC  H10X21118  -0.156   3.021   4.099 -0.3277 -0.0369 -0.5375
  184SLPC  H10Y21119  -0.171   3.177   4.177 -3.2316 -3.2006 -1.1762
  184SLPC  C31121120   0.014   3.080   4.216  0.4685 -0.3622  0.1271
  184SLPC  H11X21121   0.036   3.170   4.278  2.8329 -1.1516  0.5433
  184SLPC  H11Y21122   0.110   3.047   4.171  1.1794 -0.5611  1.6848
  184SLPC  C31221123   0.000   2.976   4.328  0.5939 -0.0756  0.3630
  184SLPC  H12X21124  -0.006   2.872   4.289  1.4476  0.3312 -0.8867
  184SLPC  H12Y21125  -0.095   2.998   4.381  0.3500 -0.6609  0.1797
  184SLPC  C31321126   0.118   2.987   4.425  0.2776 -0.1068 -0.1648
  184SLPC  H13X21127   0.124   3.089   4.469  1.0319 -0.2120 -0.0038
  184SLPC  H13Y21128   0.209   2.977   4.363 -0.5563 -1.2606 -1.2499
  184SLPC  C31421129   0.110   2.882   4.538  0.0201 -0.0107 -0.1801
  184SLPC  H14X21130   0.214   2.883   4.579 -0.0867  0.7526  0.0823
  184SLPC  H14Y21131   0.088   2.784   4.491  0.6830  0.0389 -0.6103
  184SLPC  C31521132   0.009   2.925   4.644  0.0356 -0.0217  0.6384
  184SLPC  H15X21133  -0.089   2.873   4.644 -0.2906  0.5190 -1.3803
  184SLPC  H15Y21134  -0.015   3.033   4.629  1.2601  0.3092  0.9243
  184SLPC  C31621135   0.072   2.926   4.790  0.0590  0.2796 -0.2273
  184SLPC  H16X21136   0.174   2.966   4.777  0.8910 -2.4070 -3.8196
  184SLPC  H16Y21137   0.095   2.820   4.817 -1.5605 -0.7348 -2.4333
  184SLPC  C31721138  -0.012   3.013   4.893 -0.3257 -0.1571  0.2255
  184SLPC  H17X21139  -0.123   3.002   4.887 -0.5743  1.6420  0.6816
  184SLPC  H17Y21140   0.005   3.118   4.861 -0.9654  0.1785  0.9495
  184SLPC  C31821141   0.037   3.018   5.038  0.4839  0.3203  0.1115
  184SLPC  H18X21142   0.013   2.918   5.082 -2.7903  1.4814  1.3186
  184SLPC  H18Y21143  -0.008   3.099   5.100  1.0347 -0.4448  1.5501
  184SLPC  H18Z21144   0.146   3.034   5.039  0.4997  0.2035  0.9265
  185POPC     N21145   1.199   4.799   6.957  0.2599  0.4648 -0.5255
  185POPC   C1221146   1.272   4.801   6.823 -1.1447 -0.1505  0.0646
  185POPC  H12A21147   1.240   4.885   6.763 -0.4597 -0.9549 -1.4802
  185POPC  H12B21148   1.240   4.712   6.773  0.0225 -1.0656  0.8828
  185POPC   C1321149   1.232   4.671   7.027  0.1433 -0.2137  0.1684
  185POPC  H13A21150   1.327   4.643   6.982  1.5600  3.3034  0.6323
  185POPC  H13B21151   1.256   4.682   7.132  0.5624  3.0722 -0.1723
  185POPC  H13C21152   1.168   4.592   6.991  1.5869 -1.5421  0.3891
  185POPC   C1421153   1.245   4.919   7.035  0.6737  0.3657  0.6615
  185POPC  H14A21154   1.352   4.916   7.045  0.5372  0.9232  2.7118
  185POPC  H14B21155   1.219   5.014   6.990  1.4725 -0.7307 -2.3850
  185POPC  H14C21156   1.199   4.906   7.132  0.8214 -0.5020  0.6193
  185POPC   C1521157   1.047   4.809   6.937 -0.1226 -0.1902 -0.1635
  185POPC  H15A21158   1.012   4.776   6.840  4.1808 -1.7735 -1.4153
  185POPC  H15B21159   1.010   4.907   6.962  2.2076  0.7352 -0.0765
  185POPC  H15C21160   1.011   4.731   7.003  1.9045 -1.9496 -1.0084
  185POPC   C1121161   1.430   4.803   6.833  0.6332 -0.1323  0.0238
  185POPC  H11A21162   1.459   4.876   6.912  0.8193  1.1346 -1.1912
  185POPC  H11B21163   1.471   4.851   6.742 -0.6594  0.8917 -0.0600
  185POPC     P21164   1.483   4.555   6.774 -0.2610  0.4946  0.6773
  185POPC   O1321165   1.351   4.487   6.786  0.3326  0.4448 -0.8435
  185POPC   O1421166   1.606   4.475   6.801  0.2495  0.3277 -0.1590
  185POPC   O1221167   1.489   4.677   6.874  0.7727 -0.0192  0.1044
  185POPC   O1121168   1.488   4.626   6.625  0.4756  0.5943 -0.6638
  185POPC    C121169   1.423   4.559   6.517 -0.3263  0.0610 -0.8075
  185POPC    HA21170   1.387   4.634   6.444 -0.6733  2.1589  1.4118
  185POPC    HB21171   1.336   4.496   6.546 -1.3107  0.6767 -2.3345
  185POPC    C221172   1.522   4.455   6.447 -0.1225 -0.7256 -0.3861
  185POPC    HS21173   1.585   4.409   6.526 -0.8947 -3.3136 -1.1814
  185POPC   O2121174   1.591   4.529   6.345  0.0280  0.1356  0.4262
  185POPC   C2121175   1.722   4.523   6.351 -0.6131  0.2251 -0.1626
  185POPC   O2221176   1.790   4.466   6.439  0.0694 -0.5666  0.1039
  185POPC   C2221177   1.773   4.601   6.228  0.1217  0.0468  0.9276
  185POPC   H2R21178   1.705   4.687   6.208  1.2505  1.2126  1.8604
  185POPC   H2S21179   1.763   4.536   6.138  1.6440  2.0353 -0.7875
  185POPC    C321180   1.442   4.341   6.381 -0.2773  0.2318 -0.2402
  185POPC    HX21181   1.400   4.278   6.463 -1.1756 -0.4498 -1.1969
  185POPC    HY21182   1.522   4.275   6.341 -1.1135 -0.9568 -0.0336
  185POPC   O3121183   1.342   4.388   6.295  0.3706 -0.5587 -0.4797
  185POPC   C3121184   1.380   4.387   6.166  0.6266 -0.4007  0.5220
  185POPC   O3221185   1.492   4.364   6.128  0.1738  0.7544 -0.3858
  185POPC   C3221186   1.244   4.410   6.095 -0.2560  0.0706  0.5763
  185POPC   H2X21187   1.196   4.504   6.130  1.2465  0.9347  0.3961
  185POPC   H2Y21188   1.177   4.323   6.106  0.8264 -1.1661 -1.8189
  185POPC   C2321189   1.919   4.646   6.243  0.0898  0.1398  0.2860
  185POPC   H3R21190   1.984   4.557   6.256  1.2254  1.0287  0.8078
  185POPC   H3S21191   1.925   4.696   6.342 -2.6621 -0.3015  0.7504
  185POPC   C2421192   1.966   4.724   6.120  0.0095  0.4059  0.2945
  185POPC   H4R21193   2.072   4.743   6.147 -0.7547  2.8303  1.9204
  185POPC   H4S21194   1.916   4.822   6.109  1.4318  0.9386 -2.3432
  185POPC   C2521195   1.972   4.640   5.993  0.5447  0.1629  0.3852
  185POPC   H5R21196   1.992   4.533   6.016 -1.1784 -0.4408 -0.7233
  185POPC   H5S21197   2.060   4.679   5.937  0.3908 -1.6710 -1.2678
  185POPC   C2621198   1.855   4.645   5.892  0.1488  0.2911 -0.0112
  185POPC   H6R21199   1.816   4.748   5.879  0.5867  0.5736  0.8649
  185POPC   H6S21200   1.769   4.586   5.932 -1.4670  0.0098 -3.5197
  185POPC   C2721201   1.895   4.592   5.753 -0.0465  0.1265 -0.2835
  185POPC   H7R21202   1.927   4.487   5.768 -2.5961 -1.0550 -2.2704
  185POPC   H7S21203   1.988   4.641   5.718  1.4647 -1.6196  1.1389
  185POPC   C2821204   1.779   4.604   5.650  0.2933 -0.5023  0.1932
  185POPC   H8R21205   1.684   4.558   5.685  1.1012 -2.5522 -0.1787
  185POPC   H8S21206   1.811   4.541   5.565 -0.3709 -1.5066  0.6598
  185POPC   C2921207   1.760   4.742   5.593 -0.0680 -0.2826  0.2092
  185POPC   H9121208   1.736   4.818   5.669 -1.2473 -0.7839  0.3422
  185POPC  C21021209   1.793   4.784   5.472 -0.5580  0.1177  0.5705
  185POPC  H10121210   1.777   4.890   5.447  0.1745  0.1002  0.0054
  185POPC  C21121211   1.834   4.703   5.355 -0.2383 -0.4273  0.4366
  185POPC  H11R21212   1.773   4.611   5.341 -0.5630 -0.1619  0.0887
  185POPC  H11S21213   1.940   4.676   5.372 -0.3901 -0.4938  1.3339
  185POPC  C21221214   1.843   4.772   5.219  0.0472 -0.2363 -0.8402
  185POPC  H12R21215   1.911   4.727   5.143 -0.6150 -1.9957 -0.4360
  185POPC  H12S21216   1.883   4.874   5.241 -0.7736  0.0020 -0.4298
  185POPC  C21321217   1.701   4.786   5.161  0.3104  0.9233 -0.0684
  185POPC  H13R21218   1.647   4.863   5.221  0.0311  0.5461  0.1658
  185POPC  H13S21219   1.648   4.689   5.166  0.2049  0.7776 -2.6708
  185POPC  C21421220   1.728   4.819   5.011 -0.2414  0.1772  0.7197
  185POPC  H14R21221   1.786   4.738   4.962 -1.5827 -0.6753  0.4887
  185POPC  H14S21222   1.793   4.908   4.999  1.1725 -0.9084 -0.0633
  185POPC  C21521223   1.599   4.842   4.926  0.0964  0.9327 -0.5646
  185POPC  H15R21224   1.555   4.940   4.952 -0.3636  0.3778  0.8415
  185POPC  H15S21225   1.532   4.755   4.943  2.7414 -0.8936  1.5872
  185POPC  C21621226   1.621   4.855   4.776 -0.5086  0.3783 -0.2082
  185POPC  H16R21227   1.704   4.925   4.758  0.1608 -0.1463  0.7735
  185POPC  H16S21228   1.530   4.902   4.733  0.4609 -1.4850 -4.8851
  185POPC  C21721229   1.651   4.730   4.704  0.5515 -0.4144  0.1372
  185POPC  H17R21230   1.578   4.652   4.733  1.3257 -0.3505  2.5450
  185POPC  H17S21231   1.755   4.706   4.733  1.4780  0.1512 -2.5171
  185POPC  C21821232   1.638   4.758   4.548  0.9234  0.4262  0.4186
  185POPC  H18R21233   1.734   4.800   4.510  1.4153  0.4952  1.7051
  185POPC  H18S21234   1.566   4.842   4.537  1.2803  1.1079  2.7579
  185POPC  H18T21235   1.597   4.666   4.502  0.5986  0.9930 -0.4409
  185POPC   C3321236   1.245   4.430   5.944 -0.1062  0.6461 -0.1723
  185POPC   H3X21237   1.304   4.518   5.910  0.0212  1.1976  1.4079
  185POPC   H3Y21238   1.140   4.448   5.914 -0.8038 -0.6503  1.3928
  185POPC   C3421239   1.306   4.306   5.867 -0.0654 -0.2649 -1.0488
  185POPC   H4X21240   1.247   4.214   5.889 -1.4636  0.7909 -0.2521
  185POPC   H4Y21241   1.413   4.299   5.899 -0.7266 -2.0271  1.0327
  185POPC   C3521242   1.326   4.330   5.718 -1.1241 -0.2183 -0.1045
  185POPC   H5X21243   1.404   4.258   5.684  0.5074  0.9858  0.9236
  185POPC   H5Y21244   1.385   4.424   5.720  2.5432 -2.3283  1.2816
  185POPC   C3621245   1.197   4.329   5.643  0.7599 -0.3386 -0.2957
  185POPC   H6X21246   1.138   4.422   5.664  0.0501 -0.3915 -1.8824
  185POPC   H6Y21247   1.123   4.248   5.661  1.6439 -1.4482 -1.4913
  185POPC   C3721248   1.212   4.340   5.494  0.4360  0.4414  0.2193
  185POPC   H7X21249   1.265   4.251   5.454 -1.2078 -0.0245 -1.0024
  185POPC   H7Y21250   1.272   4.428   5.461 -0.3930  0.0568 -2.5206
  185POPC   C3821251   1.081   4.355   5.414 -0.5928 -0.5989  0.4529
  185POPC   H8X21252   1.029   4.449   5.441 -2.1174 -1.8339  1.9913
  185POPC   H8Y21253   1.004   4.280   5.440 -1.6292 -0.7741 -2.7142
  185POPC   C3921254   1.114   4.324   5.263  0.2503  0.0300  1.2222
  185POPC   H9X21255   1.019   4.309   5.207 -0.2739 -1.0004  2.3126
  185POPC   H9Y21256   1.169   4.229   5.243  3.0601  1.8547 -0.3383
  185POPC  C31021257   1.187   4.428   5.185  0.0394 -0.2484  0.1783
  185POPC  H10X21258   1.286   4.444   5.234  0.1131  3.6772 -0.8940
  185POPC  H10Y21259   1.126   4.521   5.186  0.7791  0.2810  2.3904
  185POPC  C31121260   1.212   4.397   5.039 -0.3133 -0.2429 -0.4753
  185POPC  H11X21261   1.115   4.361   4.999 -1.6084 -0.5334  2.6260
  185POPC  H11Y21262   1.290   4.320   5.019 -2.1122 -2.3169  0.1162
  185POPC  C31221263   1.250   4.520   4.959  0.6992 -0.3370 -0.3234
  185POPC  H12X21264   1.331   4.568   5.017  2.0850 -2.0432 -0.7661
  185POPC  H12Y21265   1.155   4.577   4.963  0.6549 -0.4173 -0.2376
  185POPC  C31321266   1.300   4.487   4.817 -0.1112 -0.3010 -0.2382
  185POPC  H13X21267   1.407   4.470   4.842  0.1915  3.2222  1.5441
  185POPC  H13Y21268   1.284   4.582   4.761  1.3572  0.3494  0.3892
  185POPC  C31421269   1.234   4.373   4.740  0.0535  0.3366 -0.3483
  185POPC  H14X21270   1.123   4.378   4.743  0.0007 -0.8790  0.6820
  185POPC  H14Y21271   1.273   4.282   4.789  0.5944  1.1353  0.7549
  185POPC  C31521272   1.286   4.365   4.599  0.0154 -0.1922  0.2156
  185POPC  H15X21273   1.397   4.354   4.596 -0.0392 -1.5825  1.8333
  185POPC  H15Y21274   1.253   4.447   4.532  1.2318  0.5967  0.5391
  185POPC  C31621275   1.234   4.232   4.532 -0.2659 -0.9232 -0.0061
  185POPC  H16X21276   1.124   4.229   4.542 -0.4323 -0.9074 -1.5329
  185POPC  H16Y21277   1.286   4.145   4.579 -1.0662 -0.0431  2.6907
  185POPC  H16Z21278   1.259   4.227   4.424  3.2837 -0.0535  0.6510
  186POPC     N21279   0.724   2.591   6.863  0.0920 -0.5059  0.0630
  186POPC   C1221280   0.877   2.591   6.867  0.8928  0.6865  0.4015
  186POPC  H12A21281   0.914   2.501   6.819 -2.7695 -0.3567 -0.8269
  186POPC  H12B21282   0.915   2.595   6.968 -0.6916  1.6534  0.9911
  186POPC   C1321283   0.672   2.557   6.724 -0.3113  0.0249 -0.5762
  186POPC  H13A21284   0.675   2.646   6.662  0.1245 -0.2439 -0.9556
  186POPC  H13B21285   0.742   2.487   6.680  1.9271  0.7900  1.5752
  186POPC  H13C21286   0.569   2.526   6.724 -0.6845  1.2204 -1.0893
  186POPC   C1421287   0.674   2.487   6.953  0.7760  0.1447 -0.2978
  186POPC  H14A21288   0.571   2.460   6.937  1.2156 -1.2096 -1.0445
  186POPC  H14B21289   0.728   2.393   6.948 -0.8631 -0.8167 -0.6222
  186POPC  H14C21290   0.676   2.522   7.055  1.6233 -0.3215 -0.1422
  186POPC   C1521291   0.668   2.717   6.902  0.6115  0.7907  0.7478
  186POPC  H15A21292   0.681   2.738   7.007  0.9932 -0.8276  1.0520
  186POPC  H15B21293   0.560   2.722   6.894  0.4407  1.3897  2.8712
  186POPC  H15C21294   0.708   2.798   6.843 -3.3338  1.8607 -0.7873
  186POPC   C1121295   0.945   2.699   6.788 -0.4621  0.9130 -0.4432
  186POPC  H11A21296   1.054   2.698   6.809 -0.5914  0.4356  0.2368
  186POPC  H11B21297   0.911   2.801   6.818 -0.6869  1.0957 -1.2858
  186POPC     P21298   1.006   2.558   6.582 -0.0406 -0.0005 -0.1493
  186POPC   O1321299   0.930   2.433   6.611 -0.0324  0.0880 -0.2891
  186POPC   O1421300   1.147   2.553   6.618 -0.4723  0.0676 -0.0865
  186POPC   O1221301   0.934   2.685   6.650 -0.1662 -0.2088  0.1589
  186POPC   O1121302   1.001   2.596   6.422  0.0821 -0.4217 -0.2580
  186POPC    C121303   0.894   2.674   6.371  0.0662  0.4082 -0.7354
  186POPC    HA21304   0.895   2.774   6.420  0.3563 -1.0425  2.5265
  186POPC    HB21305   0.801   2.633   6.415  0.2578  1.9556  1.2427
  186POPC    C221306   0.903   2.700   6.222  0.0571 -0.2280 -0.5444
  186POPC    HS21307   0.888   2.605   6.166  1.1764 -1.2688  0.8638
  186POPC   O2121308   1.021   2.779   6.181  0.2534  0.2812  0.1800
  186POPC   C2121309   1.130   2.706   6.173  0.5206  0.4672  0.1138
  186POPC   O2221310   1.135   2.583   6.160 -0.1933 -0.4665 -0.3423
  186POPC   C2221311   1.249   2.802   6.161  0.3574  0.7311 -0.5935
  186POPC   H2R21312   1.329   2.733   6.126  1.8979  1.4252  1.3690
  186POPC   H2S21313   1.277   2.824   6.266 -0.2282  1.0631 -0.4974
  186POPC    C321314   0.782   2.786   6.174  0.2285 -0.4479  0.1132
  186POPC    HX21315   0.754   2.863   6.249 -2.9726 -0.1858 -1.2129
  186POPC    HY21316   0.690   2.725   6.185  1.3714 -2.3548 -0.4360
  186POPC   O3121317   0.794   2.845   6.042 -0.2128  0.0535 -0.1311
  186POPC   C3121318   0.817   2.969   6.028  0.1069  0.4620 -0.4699
  186POPC   O3221319   0.830   3.061   6.110  0.2114  0.3552 -0.1237
  186POPC   C3221320   0.820   2.997   5.877  0.7809  0.1479 -0.0880
  186POPC   H2X21321   0.724   2.955   5.841  1.0805 -0.1087 -0.5990
  186POPC   H2Y21322   0.901   2.931   5.838 -0.0140 -0.3510 -0.9275
  186POPC   C2321323   1.226   2.921   6.068  0.0789 -0.2094 -0.4066
  186POPC   H3R21324   1.313   2.988   6.084 -0.2306 -0.2405  1.8008
  186POPC   H3S21325   1.127   2.968   6.089 -0.7066 -1.4650 -1.1625
  186POPC   C2421326   1.227   2.864   5.927  0.0181  0.1104 -0.2865
  186POPC   H4R21327   1.141   2.795   5.919 -0.0282 -0.4573  3.3968
  186POPC   H4S21328   1.326   2.814   5.914  0.5720  1.2727 -0.7714
  186POPC   C2521329   1.217   2.969   5.812  0.9097 -0.4695  0.4996
  186POPC   H5R21330   1.297   3.044   5.831  0.8479 -0.7987  2.2130
  186POPC   H5S21331   1.117   3.017   5.827  1.7838  2.6982 -2.3727
  186POPC   C2621332   1.231   2.906   5.672  0.0951  0.6856  0.6333
  186POPC   H6R21333   1.328   2.852   5.672 -0.1791 -0.0500  4.2122
  186POPC   H6S21334   1.240   2.997   5.608 -0.1076  0.2516 -0.0149
  186POPC   C2721335   1.120   2.798   5.630  0.1000 -0.3921  0.6662
  186POPC   H7R21336   1.020   2.826   5.668 -0.7795  0.0201 -1.7680
  186POPC   H7S21337   1.148   2.698   5.667  1.7018 -0.1702  0.1441
  186POPC   C2821338   1.096   2.773   5.477  1.4148 -0.7397  0.4858
  186POPC   H8R21339   1.074   2.878   5.446  1.4315  0.5675  4.2567
  186POPC   H8S21340   1.005   2.714   5.454  2.2130 -1.5427 -0.6998
  186POPC   C2921341   1.205   2.702   5.400  0.3065 -0.4291  0.7683
  186POPC   H9121342   1.258   2.616   5.444  0.5727 -0.3446  0.6174
  186POPC  C21021343   1.248   2.739   5.276  0.4794  0.2318 -0.3197
  186POPC  H10121344   1.340   2.692   5.237  0.1852  1.1831 -2.3289
  186POPC  C21121345   1.189   2.841   5.180 -0.2100  0.5558 -0.2047
  186POPC  H11R21346   1.256   2.928   5.166  0.5606  0.0578  0.2930
  186POPC  H11S21347   1.100   2.887   5.229  1.2678 -0.3546  3.7352
  186POPC  C21221348   1.157   2.795   5.042 -0.3422  0.2257 -1.0390
  186POPC  H12R21349   1.108   2.880   4.989 -0.9158 -1.2100 -2.9362
  186POPC  H12S21350   1.096   2.703   5.057 -1.3810  1.2895  1.9905
  186POPC  C21321351   1.285   2.769   4.954  0.1755 -0.1317 -0.6319
  186POPC  H13R21352   1.336   2.677   4.990  0.4036  0.2798  0.1165
  186POPC  H13S21353   1.362   2.844   4.984  0.2636 -0.6458  0.4598
  186POPC  C21421354   1.267   2.767   4.803 -0.0654  1.1242 -0.3778
  186POPC  H14R21355   1.231   2.864   4.763  1.2584  1.9592  0.3917
  186POPC  H14S21356   1.195   2.684   4.786  1.1740 -0.3337  1.1282
  186POPC  C21521357   1.387   2.729   4.715 -0.0325 -0.4934 -0.1422
  186POPC  H15R21358   1.441   2.642   4.759 -0.7657 -1.3679 -0.9426
  186POPC  H15S21359   1.455   2.816   4.701  0.6908 -1.0156  0.0417
  186POPC  C21621360   1.342   2.704   4.574 -0.0354 -0.0955  0.4713
  186POPC  H16R21361   1.309   2.801   4.531  3.5525  0.9550 -0.2430
  186POPC  H16S21362   1.258   2.632   4.563  0.7487 -0.9407 -0.1131
  186POPC  C21721363   1.449   2.656   4.476  0.1680 -0.4226  0.3409
  186POPC  H17R21364   1.402   2.634   4.377 -1.7778  0.3091  1.0478
  186POPC  H17S21365   1.499   2.567   4.519  3.1770  1.6500  1.4716
  186POPC  C21821366   1.558   2.758   4.450  0.3924  0.1919 -0.0930
  186POPC  H18R21367   1.506   2.856   4.439  0.7490  0.4282  0.2815
  186POPC  H18S21368   1.607   2.716   4.360 -0.3229 -2.0313  0.4918
  186POPC  H18T21369   1.633   2.778   4.530 -1.3868  0.9269  1.4749
  186POPC   C3321370   0.844   3.146   5.847 -0.3778  0.1536  0.5840
  186POPC   H3X21371   0.940   3.174   5.894 -0.4419  0.7643  0.3551
  186POPC   H3Y21372   0.764   3.205   5.897 -0.1044  0.2642  0.8879
  186POPC   C3421373   0.846   3.177   5.694  0.5696  0.6453  0.1907
  186POPC   H4X21374   0.930   3.122   5.647 -0.5073  0.9548 -2.2569
  186POPC   H4Y21375   0.877   3.283   5.682  0.2952  0.8105  0.8564
  186POPC   C3521376   0.710   3.143   5.638  0.1825 -0.1096 -0.2422
  186POPC   H5X21377   0.632   3.205   5.687 -0.5401 -0.3754 -1.0287
  186POPC   H5Y21378   0.691   3.034   5.639  2.2822 -0.5047  0.2269
  186POPC   C3621379   0.692   3.184   5.485  0.2820 -0.1958 -0.6611
  186POPC   H6X21380   0.667   3.291   5.477 -1.4977 -0.5118  0.2331
  186POPC   H6Y21381   0.621   3.123   5.426  2.3566 -2.1641 -1.2857
  186POPC   C3721382   0.820   3.168   5.403  0.4660 -0.6773 -0.3902
  186POPC   H7X21383   0.868   3.068   5.408  1.7847 -0.1048 -0.9713
  186POPC   H7Y21384   0.894   3.240   5.444 -0.5998 -0.4037  1.1555
  186POPC   C3821385   0.790   3.202   5.255  0.1661  0.0164  0.2258
  186POPC   H8X21386   0.750   3.305   5.258 -0.2162 -0.1372  0.5561
  186POPC   H8Y21387   0.699   3.145   5.225  2.2393 -2.3715 -2.0057
  186POPC   C3921388   0.899   3.165   5.150  0.0159  0.6193  0.1602
  186POPC   H9X21389   0.929   3.058   5.155 -3.6869 -0.7759 -2.8362
  186POPC   H9Y21390   0.998   3.215   5.162  0.2270  0.2174  0.1432
  186POPC  C31021391   0.853   3.183   5.007 -0.2155 -0.3989 -0.2588
  186POPC  H10X21392   0.831   3.291   4.995  1.4364 -0.1046 -0.9237
  186POPC  H10Y21393   0.764   3.118   5.004  1.0019 -2.4239  2.5076
  186POPC  C31121394   0.960   3.146   4.899 -0.1546  0.4090  0.2191
  186POPC  H11X21395   0.973   3.036   4.906 -4.4395 -0.5116 -2.6088
  186POPC  H11Y21396   1.055   3.201   4.918  0.2207  0.2814 -1.1807
  186POPC  C31221397   0.924   3.175   4.760 -0.2617 -0.7832  0.0014
  186POPC  H12X21398   0.941   3.284   4.744 -4.7677  0.7358  3.3545
  186POPC  H12Y21399   0.819   3.154   4.732 -0.7062 -0.2781  1.2004
  186POPC  C31321400   1.030   3.128   4.654  0.1862 -0.2006 -1.2835
  186POPC  H13X21401   1.051   3.020   4.671  0.1821 -0.1810 -1.1562
  186POPC  H13Y21402   1.126   3.174   4.684  0.2889 -1.8477  1.1235
  186POPC  C31421403   0.981   3.155   4.509 -0.9589  0.2485 -0.0434
  186POPC  H14X21404   0.928   3.253   4.513 -1.0799  0.1533  2.7990
  186POPC  H14Y21405   0.921   3.071   4.467  1.1298 -2.2468  1.6506
  186POPC  C31521406   1.109   3.160   4.422 -0.1373  0.1532 -0.7999
  186POPC  H15X21407   1.155   3.061   4.436  0.5706  0.9254  3.6599
  186POPC  H15Y21408   1.185   3.230   4.462 -1.3038  2.0670 -1.7291
  186POPC  C31621409   1.083   3.202   4.275 -0.3176  0.5846 -0.7060
  186POPC  H16X21410   1.025   3.297   4.270 -1.6952 -0.2250 -0.6683
  186POPC  H16Y21411   1.030   3.112   4.236 -0.7287  0.2139  0.6325
  186POPC  H16Z21412   1.176   3.214   4.217 -0.4382 -0.9331 -1.2648
  187POPC     N21413   6.509   3.851   2.145  0.1741  0.4408 -0.1234
  187POPC   C1221414   6.598   3.833   2.023  0.2277  0.0646 -0.1415
  187POPC  H12A21415   6.667   3.915   2.006 -0.1220  0.1764 -1.0681
  187POPC  H12B21416   6.536   3.835   1.935  1.6491 -0.7595 -1.1970
  187POPC   C1321417   6.382   3.774   2.114 -0.3232  0.0675 -0.5896
  187POPC  H13A21418   6.306   3.840   2.076  0.4636 -0.3462 -3.0299
  187POPC  H13B21419   6.389   3.684   2.055  1.8129 -0.4408  0.3246
  187POPC  H13C21420   6.345   3.738   2.209  0.8208 -1.7846 -0.8052
  187POPC   C1421421   6.574   3.795   2.270 -0.4485 -0.3627  1.1533
  187POPC  H14A21422   6.619   3.700   2.243 -1.3612 -0.2774 -0.8692
  187POPC  H14B21423   6.652   3.861   2.304 -1.0798  0.6821  0.6392
  187POPC  H14C21424   6.505   3.789   2.353 -1.0003  0.7481  0.7976
  187POPC   C1521425   6.481   3.994   2.169 -0.2077 -0.5531  0.8555
  187POPC  H15A21426   6.406   4.031   2.100  0.3257 -1.5189 -0.2650
  187POPC  H15B21427   6.569   4.057   2.168  0.0315 -0.8788  1.2202
  187POPC  H15C21428   6.442   4.000   2.269  0.7090 -1.7107  1.2968
  187POPC   C1121429   6.688   3.708   2.025  0.3253 -0.0807  0.5959
  187POPC  H11A21430   6.718   3.689   1.920 -3.1590 -0.5821 -0.4497
  187POPC  H11B21431   6.630   3.620   2.061 -0.3589 -0.7491 -1.9509
  187POPC     P21432   6.912   3.823   2.076 -0.2450  0.3931 -0.2687
  187POPC   O1321433   6.858   3.957   2.053 -0.5058  0.4089 -0.1354
  187POPC   O1421434   7.001   3.769   1.973  0.0946  0.4615 -0.3218
  187POPC   O1221435   6.797   3.718   2.112 -0.3894 -0.0944  0.5083
  187POPC   O1121436   6.990   3.818   2.213 -0.5837  0.0923  0.2058
  187POPC    C121437   6.928   3.854   2.334  0.7576 -0.8394  0.1110
  187POPC    HA21438   6.969   3.789   2.415 -0.6021  1.6223  2.9611
  187POPC    HB21439   6.818   3.843   2.330  0.6852  0.0888 -1.1627
  187POPC    C221440   6.954   3.996   2.395 -0.3943 -0.1115 -0.4235
  187POPC    HS21441   6.928   4.077   2.323 -2.9735  1.2505  1.8587
  187POPC   O2121442   7.101   4.012   2.414  0.0607  0.4621  0.2538
  187POPC   C2121443   7.140   4.135   2.449  0.0727  0.0005 -0.6546
  187POPC   O2221444   7.062   4.224   2.445 -0.0291  0.3243 -0.0290
  187POPC   C2221445   7.282   4.151   2.502 -0.2164  0.0550  0.6160
  187POPC   H2R21446   7.344   4.197   2.422 -0.0753 -1.0342  0.0685
  187POPC   H2S21447   7.335   4.057   2.529  1.0445  1.2719  2.6572
  187POPC    C321448   6.877   4.027   2.524  0.3418 -0.3922 -0.5082
  187POPC    HX21449   6.769   4.016   2.496 -0.0787 -1.3145  1.3068
  187POPC    HY21450   6.888   4.131   2.559 -0.8901  0.1912 -1.7448
  187POPC   O3121451   6.905   3.945   2.634  0.5418 -0.2395  0.8218
  187POPC   C3121452   6.851   3.828   2.647 -0.0578  0.7966  0.4558
  187POPC   O3221453   6.760   3.783   2.578  0.1523  0.5007 -0.6761
  187POPC   C3221454   6.910   3.758   2.764 -0.3265 -0.0936 -0.1016
  187POPC   H2X21455   7.020   3.757   2.744 -0.1106 -0.2368  1.0573
  187POPC   H2Y21456   6.864   3.657   2.755  0.4136 -0.5494  0.9845
  187POPC   C2321457   7.306   4.258   2.615 -0.1052  0.1498 -0.9251
  187POPC   H3R21458   7.259   4.357   2.594  0.4521  0.8528  0.9795
  187POPC   H3S21459   7.414   4.276   2.634 -0.1789  1.0120 -1.2381
  187POPC   C2421460   7.242   4.201   2.746  0.0025  0.9872 -0.4350
  187POPC   H4R21461   7.291   4.103   2.762 -4.3339 -1.0695  2.1386
  187POPC   H4S21462   7.136   4.172   2.727 -0.1635  1.1193  0.2654
  187POPC   C2521463   7.257   4.289   2.871 -1.1857  0.0924  1.2275
  187POPC   H5R21464   7.205   4.386   2.855 -1.6163 -0.3895 -0.4078
  187POPC   H5S21465   7.366   4.305   2.878 -0.4191 -3.0647 -1.1237
  187POPC   C2621466   7.197   4.226   2.998 -0.8475  0.4005  0.4749
  187POPC   H6R21467   7.093   4.195   2.978 -1.1909  1.7036  0.1581
  187POPC   H6S21468   7.192   4.301   3.080  2.5187 -0.9610  2.1537
  187POPC   C2721469   7.269   4.104   3.045 -1.0857  0.0115  0.1593
  187POPC   H7R21470   7.379   4.116   3.059 -0.9138 -0.5122 -0.7157
  187POPC   H7S21471   7.267   4.025   2.968 -1.7508 -0.4331  0.6220
  187POPC   C2821472   7.209   4.060   3.180  0.1190 -0.1488  0.4390
  187POPC   H8R21473   7.255   3.963   3.207 -1.4935 -0.9306  0.4614
  187POPC   H8S21474   7.100   4.039   3.177 -0.2085  1.4041  0.6577
  187POPC   C2921475   7.229   4.151   3.296  0.0741  0.2015 -0.7655
  187POPC   H9121476   7.327   4.201   3.301  0.4172 -0.4378 -1.0273
  187POPC  C21021477   7.138   4.179   3.393  0.0308 -0.2264 -0.2994
  187POPC  H10121478   7.161   4.265   3.458 -2.2303  1.9359 -2.1570
  187POPC  C21121479   7.002   4.110   3.397 -0.0940  0.8553  0.3771
  187POPC  H11R21480   7.001   4.000   3.381  0.1962  0.8114  0.6318
  187POPC  H11S21481   6.926   4.148   3.326 -1.1282 -1.3100  0.2255
  187POPC  C21221482   6.948   4.117   3.533  0.2069  0.0096 -0.2658
  187POPC  H12R21483   6.840   4.088   3.528 -0.2941  0.9933  2.5961
  187POPC  H12S21484   6.961   4.219   3.577 -1.8541 -0.3690  1.3974
  187POPC  C21321485   7.012   4.013   3.622 -0.4725 -0.5822 -0.6007
  187POPC  H13R21486   7.121   4.031   3.627 -1.0296  3.4609  0.5162
  187POPC  H13S21487   6.992   3.911   3.583 -1.0535 -0.6706 -0.0808
  187POPC  C21421488   6.952   4.000   3.769 -0.2400 -0.7198  0.9209
  187POPC  H14R21489   6.850   3.957   3.769 -0.4643 -0.2001  0.9704
  187POPC  H14S21490   6.934   4.103   3.806 -2.0004 -0.5534 -0.2643
  187POPC  C21521491   7.042   3.916   3.863 -0.0422  0.3285 -0.0180
  187POPC  H15R21492   7.148   3.949   3.853 -0.3133  0.8154 -1.6347
  187POPC  H15S21493   7.038   3.810   3.830 -0.2705  0.6257 -0.9879
  187POPC  C21621494   7.012   3.926   4.010 -0.0808 -0.7666 -0.4931
  187POPC  H16R21495   7.097   3.875   4.062  1.7713 -0.7441 -3.2843
  187POPC  H16S21496   6.924   3.860   4.029 -1.3848  1.1697  0.4601
  187POPC  C21721497   6.971   4.068   4.077 -0.4860 -0.2026  0.2328
  187POPC  H17R21498   6.893   4.118   4.017  1.8643  1.8669 -1.2923
  187POPC  H17S21499   7.058   4.137   4.080 -1.8291  1.9213 -3.4910
  187POPC  C21821500   6.922   4.044   4.220  0.1796  0.5160  0.0148
  187POPC  H18R21501   6.907   4.143   4.269 -1.1913  0.4624 -0.2557
  187POPC  H18S21502   6.986   3.990   4.292 -0.7028  0.5879  0.8732
  187POPC  H18T21503   6.822   3.996   4.223 -0.4270  1.4408 -2.4751
  187POPC   C3321504   6.876   3.814   2.906 -0.9171 -0.1820 -0.4358
  187POPC   H3X21505   6.925   3.913   2.919 -0.3237 -0.3535 -1.2703
  187POPC   H3Y21506   6.932   3.746   2.974 -0.9758  1.0204  0.8570
  187POPC   C3421507   6.728   3.816   2.935  0.0964 -0.1721  0.2672
  187POPC   H4X21508   6.684   3.714   2.928 -0.3223 -0.2542  3.0184
  187POPC   H4Y21509   6.678   3.875   2.855 -0.4520 -1.9671 -0.7921
  187POPC   C3521510   6.701   3.876   3.075 -0.4845  0.9420 -0.3598
  187POPC   H5X21511   6.597   3.914   3.078 -0.5138  0.8172  2.0284
  187POPC   H5Y21512   6.769   3.963   3.091  0.3069 -0.0531  2.0488
  187POPC   C3621513   6.706   3.764   3.176  0.1280 -0.0462  0.9970
  187POPC   H6X21514   6.803   3.711   3.169  0.3260  0.1441  2.0733
  187POPC   H6Y21515   6.620   3.695   3.159  0.9540 -0.8879  0.1249
  187POPC   C3721516   6.696   3.819   3.321 -0.3218  0.3355  0.1209
  187POPC   H7X21517   6.596   3.869   3.314 -0.3064  0.4153  0.4534
  187POPC   H7Y21518   6.778   3.889   3.347  0.8080 -1.5160  1.8595
  187POPC   C3821519   6.685   3.709   3.430  0.0633 -0.8555 -0.0841
  187POPC   H8X21520   6.780   3.653   3.439 -0.2840 -1.4999 -0.3521
  187POPC   H8Y21521   6.606   3.634   3.405 -1.1982  0.3084  0.2811
  187POPC   C3921522   6.640   3.777   3.561 -0.9386 -0.0046  0.2767
  187POPC   H9X21523   6.541   3.821   3.541 -1.1509 -1.2760 -1.7730
  187POPC   H9Y21524   6.705   3.863   3.586 -0.6843  1.6528 -4.9434
  187POPC  C31021525   6.626   3.674   3.671 -0.0241  0.2869  0.6015
  187POPC  H10X21526   6.722   3.631   3.708 -1.3331 -2.6509  0.8830
  187POPC  H10Y21527   6.567   3.585   3.638 -1.1911  2.0469 -2.3882
  187POPC  C31121528   6.566   3.739   3.793  0.6251  0.5523  0.1847
  187POPC  H11X21529   6.475   3.684   3.825  0.2350  1.0866 -0.0066
  187POPC  H11Y21530   6.509   3.832   3.771 -1.3223 -0.3234  1.3113
  187POPC  C31221531   6.656   3.738   3.923  0.2259  0.1564 -0.1804
  187POPC  H12X21532   6.602   3.791   4.003 -0.9543 -0.7496 -0.3496
  187POPC  H12Y21533   6.746   3.801   3.904 -1.2602  2.5398  0.2610
  187POPC  C31321534   6.670   3.595   3.972 -0.0898  0.8485  0.6722
  187POPC  H13X21535   6.725   3.540   3.892  0.1673 -0.6967  1.8590
  187POPC  H13Y21536   6.570   3.548   3.980  0.1972 -0.2081 -1.3682
  187POPC  C31421537   6.761   3.580   4.090  0.5024  0.8033 -0.6879
  187POPC  H14X21538   6.866   3.600   4.060  0.3112  1.3625 -0.9831
  187POPC  H14Y21539   6.758   3.473   4.121 -1.2784  1.3004  1.0143
  187POPC  C31521540   6.721   3.663   4.205  0.7798 -0.2560 -0.2747
  187POPC  H15X21541   6.615   3.652   4.234  1.6029 -1.1342  2.7792
  187POPC  H15Y21542   6.737   3.770   4.181  1.5357 -0.3268 -0.1326
  187POPC  C31621543   6.805   3.632   4.329  0.4051 -0.0828  0.3868
  187POPC  H16X21544   6.754   3.569   4.406  2.8409 -1.2026  1.1809
  187POPC  H16Y21545   6.859   3.720   4.371  3.5437 -0.5222 -2.3406
  187POPC  H16Z21546   6.876   3.549   4.308  0.5125 -0.3285  1.6191
  188POPC     N21547   3.237   1.699   1.938  0.0413 -0.2837  0.1137
  188POPC   C1221548   3.167   1.640   2.060 -0.7896  0.2975 -0.0486
  188POPC  H12A21549   3.182   1.533   2.063 -1.3015  0.2236 -0.0538
  188POPC  H12B21550   3.062   1.658   2.047 -1.2282 -1.7351  0.4011
  188POPC   C1321551   3.384   1.684   1.960  0.5368 -0.0447 -0.3014
  188POPC  H13A21552   3.413   1.586   1.994  2.4065  0.4102 -0.4260
  188POPC  H13B21553   3.447   1.717   1.878  0.4800 -0.5617 -0.5570
  188POPC  H13C21554   3.404   1.747   2.045 -2.9919  1.3835 -0.3872
  188POPC   C1421555   3.187   1.634   1.815  0.5079 -0.2206 -0.0429
  188POPC  H14A21556   3.225   1.674   1.722 -3.2899  3.7738 -0.2187
  188POPC  H14B21557   3.207   1.528   1.807  0.8200 -0.2532  1.0277
  188POPC  H14C21558   3.080   1.647   1.807  0.6088  0.1439 -1.0151
  188POPC   C1521559   3.190   1.837   1.927 -0.1593  0.0014 -0.0610
  188POPC  H15A21560   3.203   1.886   2.022 -1.4685 -0.2262  0.2641
  188POPC  H15B21561   3.082   1.838   1.930 -0.3873 -2.5834 -2.8480
  188POPC  H15C21562   3.238   1.892   1.848  1.8977 -1.0345  0.4048
  188POPC   C1121563   3.215   1.703   2.194 -0.4242  0.0881 -0.4218
  188POPC  H11A21564   3.325   1.713   2.202 -0.5291  0.5050  0.6699
  188POPC  H11B21565   3.177   1.633   2.271  0.4869 -0.3614 -0.3658
  188POPC     P21566   3.230   1.956   2.265  0.0829  0.0402  0.2355
  188POPC   O1321567   3.141   2.054   2.335 -0.2387 -0.3691  0.2413
  188POPC   O1421568   3.312   2.004   2.152  0.4149  0.1415 -0.8166
  188POPC   O1221569   3.146   1.830   2.221 -0.1338  0.3543  0.2417
  188POPC   O1121570   3.331   1.897   2.373 -0.1621 -0.1224  0.1116
  188POPC    C121571   3.294   1.841   2.492 -0.8251  0.0497 -0.7628
  188POPC    HA21572   3.336   1.738   2.491  0.6038  0.6041 -1.7699
  188POPC    HB21573   3.183   1.831   2.496 -0.7608 -1.4330 -1.7411
  188POPC    C221574   3.356   1.907   2.623  0.4661  0.2580  0.0134
  188POPC    HS21575   3.306   2.005   2.633 -0.5659 -0.1493 -1.0149
  188POPC   O2121576   3.496   1.920   2.612 -0.4237  0.2217 -0.3777
  188POPC   C2121577   3.543   2.042   2.574 -0.5833 -0.0311 -0.3056
  188POPC   O2221578   3.477   2.140   2.552 -0.0178  0.2210  0.0273
  188POPC   C2221579   3.693   2.049   2.582 -0.9754  0.0123 -0.0781
  188POPC   H2R21580   3.727   2.148   2.546  0.4264  0.2077  1.6540
  188POPC   H2S21581   3.745   1.989   2.504  0.1828  1.0666 -0.1503
  188POPC    C321582   3.321   1.823   2.741  0.0504  0.4765  0.0525
  188POPC    HX21583   3.369   1.725   2.723  1.0428  0.8490  0.6213
  188POPC    HY21584   3.211   1.806   2.753  0.1244  0.1759  0.3332
  188POPC   O3121585   3.380   1.876   2.860 -0.0507 -0.1893  0.0345
  188POPC   C3121586   3.302   1.972   2.923  0.2890 -0.1598 -0.5823
  188POPC   O3221587   3.189   2.000   2.887  0.2338  0.3601 -0.1006
  188POPC   C3221588   3.369   2.019   3.048  0.0052  0.3594 -0.4072
  188POPC   H2X21589   3.373   2.130   3.049  1.0240  0.3639  1.7644
  188POPC   H2Y21590   3.475   1.989   3.037 -0.7774 -1.8527 -3.0545
  188POPC   C2321591   3.760   2.016   2.719 -0.2249 -0.4291  0.1251
  188POPC   H3R21592   3.753   1.909   2.747  1.5349 -1.2557 -2.2994
  188POPC   H3S21593   3.714   2.077   2.799 -0.6795  1.1737 -1.2919
  188POPC   C2421594   3.911   2.062   2.711 -0.0646 -0.1680  0.0715
  188POPC   H4R21595   3.913   2.153   2.648 -2.2282 -0.7552 -0.9032
  188POPC   H4S21596   3.970   1.984   2.658  1.1664 -0.5694  1.9335
  188POPC   C2521597   3.979   2.102   2.846 -0.6376 -0.2000 -0.6379
  188POPC   H5R21598   3.910   2.167   2.904 -1.9919 -1.2194 -1.0355
  188POPC   H5S21599   4.074   2.158   2.836 -0.9146  0.3353 -0.2663
  188POPC   C2621600   4.001   1.986   2.948  0.3102 -0.0602  0.1316
  188POPC   H6R21601   4.078   1.917   2.906  0.6988 -0.8740  2.0695
  188POPC   H6S21602   3.908   1.926   2.955  0.4926 -0.5384 -1.2342
  188POPC   C2721603   4.031   2.036   3.096 -0.0680 -0.1714 -0.0372
  188POPC   H7R21604   3.937   2.081   3.136  0.3227  0.8411 -0.2089
  188POPC   H7S21605   4.103   2.121   3.092  1.2034 -1.2686 -2.9856
  188POPC   C2821606   4.063   1.925   3.191 -0.0155 -0.0050 -0.2995
  188POPC   H8R21607   4.141   1.861   3.147  0.8385  1.1567 -0.5324
  188POPC   H8S21608   3.968   1.869   3.208 -0.8478 -0.1597 -4.5199
  188POPC   C2921609   4.142   1.981   3.312 -0.1230 -0.0218 -0.4813
  188POPC   H9121610   4.251   1.975   3.298 -0.1634  1.7102 -1.8164
  188POPC  C21021611   4.092   2.020   3.433 -0.4650  0.5804  0.4634
  188POPC  H10121612   4.167   2.060   3.502  2.8138  0.2585 -2.5939
  188POPC  C21121613   3.945   2.045   3.465 -0.0391 -0.3189  0.5101
  188POPC  H11R21614   3.885   2.028   3.374  0.9187  0.7321 -0.3576
  188POPC  H11S21615   3.926   2.152   3.491  1.7147  0.1997 -0.1858
  188POPC  C21221616   3.892   1.957   3.576  0.5760 -0.3029  0.8444
  188POPC  H12R21617   3.910   1.852   3.545 -0.7281 -1.2875  3.2018
  188POPC  H12S21618   3.782   1.969   3.589  0.9428  1.9219  2.4725
  188POPC  C21321619   3.966   1.984   3.708  0.4132 -0.0256  0.0619
  188POPC  H13R21620   3.992   2.092   3.717  0.6347 -0.0251 -0.5298
  188POPC  H13S21621   4.069   1.942   3.704  0.9640  1.0628  1.8236
  188POPC  C21421622   3.886   1.920   3.820 -0.1064  0.1573 -0.0846
  188POPC  H14R21623   3.893   1.810   3.803  3.4686  0.4111 -1.1576
  188POPC  H14S21624   3.784   1.961   3.806  0.0933  0.8353  0.3693
  188POPC  C21521625   3.934   1.957   3.963  0.2750 -0.8392  1.0398
  188POPC  H15R21626   3.904   2.060   3.993 -1.8958 -0.6731 -1.3593
  188POPC  H15S21627   4.044   1.953   3.976  0.2620 -0.9526  1.1148
  188POPC  C21621628   3.878   1.857   4.069  0.3870  0.0441  0.4929
  188POPC  H16R21629   3.897   1.755   4.030 -1.9019 -0.8697  1.6624
  188POPC  H16S21630   3.769   1.874   4.073  0.1291 -0.7572 -1.5041
  188POPC  C21721631   3.945   1.890   4.202  0.0810  0.3570 -0.2586
  188POPC  H17R21632   3.931   1.994   4.240  1.0836 -0.4681  2.6778
  188POPC  H17S21633   4.051   1.893   4.168 -0.0282  0.6388 -0.5787
  188POPC  C21821634   3.925   1.790   4.320 -0.3193  0.3402  0.2558
  188POPC  H18R21635   3.820   1.797   4.357 -0.6684 -0.1250 -0.6371
  188POPC  H18S21636   3.995   1.811   4.404 -1.6671  2.7969  0.8703
  188POPC  H18T21637   3.952   1.685   4.299  0.8277  0.7266 -0.3129
  188POPC   C3321638   3.292   1.972   3.176 -0.0144 -0.2012  0.3926
  188POPC   H3X21639   3.301   1.865   3.202  0.1277 -0.1593  0.5191
  188POPC   H3Y21640   3.184   1.999   3.169 -0.2577 -0.8985  1.2425
  188POPC   C3421641   3.342   2.039   3.314  0.4742  0.0473  0.5325
  188POPC   H4X21642   3.325   2.148   3.299 -2.0091 -0.3907 -0.3669
  188POPC   H4Y21643   3.453   2.031   3.319  0.3953 -0.9120  0.8207
  188POPC   C3521644   3.276   1.992   3.444 -0.0281 -0.3671  0.0271
  188POPC   H5X21645   3.279   1.881   3.449  1.3636 -0.4210 -1.1409
  188POPC   H5Y21646   3.172   2.026   3.463  0.0484 -0.8310  1.4120
  188POPC   C3621647   3.354   2.048   3.565 -0.1808  0.0127  0.2126
  188POPC   H6X21648   3.351   2.159   3.565 -1.5310  0.0485 -2.2805
  188POPC   H6Y21649   3.460   2.012   3.563 -0.5544 -1.2981  1.7405
  188POPC   C3721650   3.293   1.995   3.692  0.3253  0.0579 -0.3566
  188POPC   H7X21651   3.283   1.885   3.682 -0.7861  0.1885 -0.8666
  188POPC   H7Y21652   3.192   2.042   3.703 -0.2724 -0.6151 -2.5890
  188POPC   C3821653   3.362   2.038   3.819  0.1108 -0.1318 -0.2252
  188POPC   H8X21654   3.378   2.147   3.821 -0.7874 -0.0003  0.8859
  188POPC   H8Y21655   3.464   1.995   3.826 -0.2391 -1.3554 -1.9825
  188POPC   C3921656   3.286   2.010   3.949  0.0342 -0.2642 -0.2421
  188POPC   H9X21657   3.283   1.899   3.951 -2.1482 -0.2408  0.6555
  188POPC   H9Y21658   3.177   2.031   3.946 -0.5444 -3.0234 -1.1766
  188POPC  C31021659   3.352   2.068   4.068  0.3645  0.6940 -0.4925
  188POPC  H10X21660   3.353   2.179   4.069  1.5876  0.7602 -2.6584
  188POPC  H10Y21661   3.459   2.039   4.073  0.0325 -0.3935  1.4241
  188POPC  C31121662   3.306   1.993   4.194  0.5613  0.6992  0.0164
  188POPC  H11X21663   3.343   1.889   4.206  0.8988  0.8933  0.6978
  188POPC  H11Y21664   3.196   1.978   4.189  0.2872  1.7955  1.8328
  188POPC  C31221665   3.350   2.059   4.331 -0.0134 -0.1353  0.4863
  188POPC  H12X21666   3.308   2.161   4.313 -0.1281 -0.7745 -4.2762
  188POPC  H12Y21667   3.460   2.063   4.345  0.1890 -0.3022 -0.9082
  188POPC  C31321668   3.277   1.978   4.452 -0.8692  0.2996  0.3060
  188POPC  H13X21669   3.310   1.872   4.451 -0.5856  0.2269  3.8264
  188POPC  H13Y21670   3.168   1.990   4.439 -0.6200  0.1283 -2.7437
  188POPC  C31421671   3.322   2.028   4.590  0.5600 -0.0525 -0.5372
  188POPC  H14X21672   3.256   2.012   4.678 -1.1176 -0.5056 -1.8228
  188POPC  H14Y21673   3.325   2.138   4.574  2.0802 -0.4509 -3.9102
  188POPC  C31521674   3.453   1.976   4.634 -0.4063 -0.0509  0.4714
  188POPC  H15X21675   3.526   1.993   4.552 -1.0674  0.4424 -0.0312
  188POPC  H15Y21676   3.451   1.868   4.660  0.2248 -0.0736  0.4299
  188POPC  C31621677   3.498   2.038   4.766  0.2518  0.0266  1.0016
  188POPC  H16X21678   3.496   2.149   4.766  1.1735  0.0551  1.5257
  188POPC  H16Y21679   3.599   1.999   4.792  0.4935  1.3924  2.2634
  188POPC  H16Z21680   3.428   1.999   4.843  0.4964  1.4299  1.9688
  189SAPI   C1221681   6.389   5.441   7.238  0.0528  0.4086 -0.5029
  189SAPI    H221682   6.458   5.461   7.323  1.8855  1.3069 -2.1360
  189SAPI    O221683   6.462   5.407   7.126 -0.0813 -0.5728 -0.1747
  189SAPI   HO221684   6.482   5.492   7.086 -0.6875 -0.4503 -0.2254
  189SAPI   C1321685   6.294   5.326   7.279  0.2483 -0.0598 -0.1473
  189SAPI    H321686   6.237   5.375   7.362  1.8498  2.3619 -0.3670
  189SAPI    O321687   6.362   5.211   7.331  0.4174 -0.8262 -1.1827
  189SAPI   HO321688   6.323   5.133   7.292 -1.0293 -1.7883  1.8591
  189SAPI   C1421689   6.204   5.295   7.159 -0.5157 -0.8209 -0.1556
  189SAPI    H421690   6.273   5.262   7.078 -0.0997  0.7269 -0.4661
  189SAPI    O421691   6.122   5.186   7.183 -0.2343  0.6275 -0.0697
  189SAPI   HO421692   6.097   5.144   7.101 -0.9470  0.1957  0.3621
  189SAPI   C1521693   6.132   5.415   7.100  0.0053 -0.5465 -0.1134
  189SAPI    H521694   6.048   5.433   7.170 -1.4488 -0.0018 -1.9393
  189SAPI    O521695   6.077   5.391   6.973 -0.7213  0.6297  0.2037
  189SAPI   HO521696   5.986   5.421   6.973 -0.4221  1.5519 -0.3637
  189SAPI   C1621697   6.211   5.550   7.098 -0.1877  0.1815 -0.3048
  189SAPI    H621698   6.271   5.553   7.004  1.0435 -2.3152  0.3036
  189SAPI    O621699   6.120   5.652   7.080  0.3748 -0.6556 -0.5813
  189SAPI   HO621700   6.164   5.733   7.051 -0.5938  0.3323  0.5770
  189SAPI   C1121701   6.315   5.564   7.204 -0.3020 -0.0320 -0.5517
  189SAPI    H121702   6.265   5.593   7.299  0.0797  0.5807 -0.5251
  189SAPI     P21703   6.408   5.829   7.207 -0.1532 -0.1557  0.0242
  189SAPI   O1321704   6.544   5.880   7.223  0.1790  0.1586 -0.7375
  189SAPI   O1421705   6.315   5.851   7.324  0.0885 -0.2167 -0.2289
  189SAPI   O1221706   6.416   5.671   7.179 -0.1758  0.1070 -0.3964
  189SAPI   O1121707   6.337   5.879   7.076 -0.6477 -0.0474 -0.4369
  189SAPI    C121708   6.418   5.859   6.951 -0.1528  0.3046 -0.3458
  189SAPI    HA21709   6.507   5.926   6.942 -0.1427  0.4433  0.6783
  189SAPI    HB21710   6.439   5.751   6.934 -0.8580 -0.2093  1.8450
  189SAPI    C221711   6.327   5.899   6.837  0.5998  0.8431 -0.2162
  189SAPI    HS21712   6.269   5.989   6.862 -0.1442  0.2639  0.1844
  189SAPI   O2121713   6.225   5.791   6.822  0.0235  0.3415  0.0786
  189SAPI   C2121714   6.137   5.814   6.728 -0.9866 -0.3103  0.5473
  189SAPI   O2221715   6.115   5.929   6.685  0.8147  0.6529  0.3562
  189SAPI   C2221716   6.066   5.686   6.703  0.0197 -0.4265  0.6181
  189SAPI   H2R21717   6.124   5.608   6.649  1.6258  1.5315 -0.6082
  189SAPI   H2S21718   6.032   5.641   6.799  0.4494 -1.5069  0.2782
  189SAPI    C321719   6.407   5.920   6.697 -0.1122 -0.0825 -0.5378
  189SAPI    HX21720   6.455   6.017   6.722  0.0320 -0.4806  0.8254
  189SAPI    HY21721   6.340   5.947   6.613  0.8701 -0.4169 -1.4498
  189SAPI   O3121722   6.493   5.810   6.654 -0.7894 -0.2959 -0.3586
  189SAPI   C3121723   6.625   5.826   6.652  0.5880 -0.0712  0.1367
  189SAPI   O3221724   6.682   5.921   6.697 -0.0714 -0.0253 -0.1888
  189SAPI   C3221725   6.693   5.693   6.595 -0.1445  0.0850  0.1382
  189SAPI   H2X21726   6.623   5.637   6.530  0.2794 -1.5219  1.0050
  189SAPI   H2Y21727   6.698   5.630   6.687 -0.6834 -0.2694 -0.0722
  189SAPI   C2321728   5.948   5.701   6.604  0.1427 -0.3648  0.1829
  189SAPI   H3R21729   5.983   5.707   6.499  0.3056 -3.3807 -0.0320
  189SAPI   H3S21730   5.887   5.794   6.608  0.0180 -0.1097 -3.7325
  189SAPI   C2421731   5.843   5.586   6.620  0.7440 -0.4078  0.6138
  189SAPI   H4R21732   5.756   5.611   6.555  1.6084  0.7363 -0.1340
  189SAPI   H4S21733   5.804   5.594   6.723  1.0105 -2.4455  0.9142
  189SAPI   C2521734   5.884   5.449   6.573 -0.0636 -0.1240  0.2222
  189SAPI   H5R21735   5.916   5.375   6.648  0.6373  0.6081  0.6664
  189SAPI   C2621736   5.901   5.420   6.441  0.0847  0.4250  0.2303
  189SAPI   H6R21737   5.915   5.315   6.410 -0.3831  0.5086 -0.2814
  189SAPI   C2721738   5.871   5.521   6.330 -0.0436 -0.1061 -0.0590
  189SAPI   H7R21739   5.957   5.589   6.310  0.8302 -0.7075  1.4479
  189SAPI   H7S21740   5.786   5.585   6.362 -1.0080 -1.5434  0.3599
  189SAPI   C2821741   5.835   5.448   6.200  0.0291  0.0891  0.2565
  189SAPI   H8R21742   5.727   5.445   6.182  0.1578 -0.7795 -0.3964
  189SAPI   C2921743   5.930   5.426   6.102  0.1898 -0.1518 -0.4466
  189SAPI   H9R21744   5.910   5.359   6.017  3.7398 -0.7941 -0.9265
  189SAPI  C21021745   6.082   5.445   6.121  0.3590 -0.5212  0.1732
  189SAPI  H10R21746   6.114   5.407   6.221 -0.7241 -2.9065 -0.2997
  189SAPI  H10S21747   6.101   5.554   6.116 -2.0796 -0.0536 -0.0570
  189SAPI  C21121748   6.191   5.389   6.041  0.3813 -0.3584  0.2476
  189SAPI  H11R21749   6.253   5.311   6.087  0.0993 -0.3919  0.5735
  189SAPI  C21221750   6.208   5.422   5.912  0.4804 -0.3034  0.1826
  189SAPI  H12R21751   6.290   5.365   5.868  1.7389  0.9311  0.8543
  189SAPI  C21321752   6.124   5.511   5.818 -0.2150 -0.2436  0.0904
  189SAPI  H13R21753   6.060   5.575   5.882  0.8323 -0.4217  1.3819
  189SAPI  H13S21754   6.043   5.457   5.764 -2.1749  0.5114  2.0910
  189SAPI  C21421755   6.209   5.588   5.728 -0.1264 -0.2939  0.5053
  189SAPI  H14R21756   6.237   5.688   5.764 -0.3511 -1.0070  2.7712
  189SAPI  C21521757   6.237   5.551   5.604 -0.0194 -0.4232  0.6920
  189SAPI  H15R21758   6.309   5.612   5.547 -0.8435  2.1966  2.2903
  189SAPI  C21621759   6.210   5.419   5.537  0.1564 -0.0549 -0.2316
  189SAPI  H16R21760   6.175   5.342   5.609  0.3195  1.3345  1.3866
  189SAPI  H16S21761   6.302   5.368   5.503 -0.4639 -1.0041 -0.5527
  189SAPI  C21721762   6.106   5.426   5.424 -1.0208 -0.6976  0.5487
  189SAPI  H17R21763   6.155   5.506   5.364 -3.0041 -0.2689 -0.5829
  189SAPI  H17S21764   6.003   5.447   5.460 -0.4696  0.5073  1.4808
  189SAPI  C21821765   6.118   5.298   5.350  0.1513  1.1065  0.1061
  189SAPI  H18R21766   6.101   5.213   5.421 -2.3183  0.5159 -1.0961
  189SAPI  H18S21767   6.225   5.282   5.324  0.0888  0.8938 -0.0278
  189SAPI  C21921768   6.024   5.277   5.237 -0.3874 -0.4632 -0.4233
  189SAPI  H19R21769   5.925   5.305   5.278 -0.7372 -1.0300 -0.8602
  189SAPI  H19S21770   6.016   5.170   5.207  0.1184 -0.6766  0.1723
  189SAPI  C22021771   6.035   5.381   5.120 -0.4426 -0.8278  0.0977
  189SAPI  H20R21772   6.135   5.401   5.078 -1.2617  2.6337 -0.4776
  189SAPI  H20S21773   6.009   5.484   5.152 -1.5084 -0.8847 -0.5082
  189SAPI  H20T21774   5.969   5.349   5.036  0.4794  0.0330 -0.9874
  189SAPI   C3321775   6.820   5.707   6.515 -0.3758  0.7582 -0.0234
  189SAPI   H3X21776   6.853   5.605   6.487 -1.0472  1.0562 -2.0591
  189SAPI   H3Y21777   6.904   5.749   6.575 -0.1914 -1.2853  1.2455
  189SAPI   C3421778   6.819   5.788   6.388 -0.4361  0.1613  0.3292
  189SAPI   H4X21779   6.911   5.765   6.332 -1.7573 -0.5941 -1.6487
  189SAPI   H4Y21780   6.809   5.894   6.418 -2.9973  0.5777 -1.6188
  189SAPI   C3521781   6.704   5.758   6.291  0.2048 -0.2934  0.3223
  189SAPI   H5X21782   6.606   5.769   6.340  0.0348  2.9808 -0.5079
  189SAPI   H5Y21783   6.715   5.659   6.241 -0.2218  1.0153 -2.5522
  189SAPI   C3621784   6.702   5.851   6.168  0.0202  0.0185 -0.1396
  189SAPI   H6X21785   6.659   5.952   6.187  1.1170  0.6108 -0.6743
  189SAPI   H6Y21786   6.626   5.807   6.100 -1.4670 -0.7861  1.9795
  189SAPI   C3721787   6.839   5.857   6.100 -0.2437  0.7120  0.4636
  189SAPI   H7X21788   6.869   5.750   6.093  2.4581  1.4146 -0.2105
  189SAPI   H7Y21789   6.913   5.911   6.164 -1.0830  1.1664  1.0636
  189SAPI   C3821790   6.834   5.910   5.954  0.2390 -0.2523  0.4962
  189SAPI   H8X21791   6.780   6.008   5.956  0.6266  0.0076 -0.8100
  189SAPI   H8Y21792   6.766   5.858   5.884  0.3666  0.7091 -0.3769
  189SAPI   C3921793   6.974   5.923   5.893  0.5642  0.3572 -0.9593
  189SAPI   H9X21794   7.024   5.824   5.885  0.4539 -0.1345  2.6117
  189SAPI   H9Y21795   7.044   5.973   5.965 -2.3074  2.1934  0.7607
  189SAPI  C31021796   6.984   5.984   5.754 -0.7670 -0.3338 -0.5789
  189SAPI  H10X21797   7.093   6.001   5.740 -0.5617 -1.9102 -1.0763
  189SAPI  H10Y21798   6.917   6.072   5.743  1.7450  2.0103  1.2451
  189SAPI  C31121799   6.942   5.881   5.649 -0.2136 -0.0121 -0.3453
  189SAPI  H11X21800   6.840   5.839   5.658 -2.0818  3.2799 -3.6062
  189SAPI  H11Y21801   6.998   5.788   5.673 -0.1718  0.0077 -0.3647
  189SAPI  C31221802   6.969   5.929   5.507  0.0357 -0.4546 -0.0236
  189SAPI  H12X21803   7.076   5.924   5.478 -0.2111  1.7071 -1.5449
  189SAPI  H12Y21804   6.936   6.035   5.508 -0.3520 -0.5742 -0.0418
  189SAPI  C31321805   6.882   5.858   5.398  0.7169  0.5576 -0.2555
  189SAPI  H13X21806   6.776   5.863   5.433  0.9060 -1.0129  0.6558
  189SAPI  H13Y21807   6.908   5.750   5.399 -0.3087  0.2577  2.5085
  189SAPI  C31421808   6.898   5.924   5.264 -0.2511 -0.1737  0.4321
  189SAPI  H14X21809   7.006   5.924   5.239 -0.5671  2.7551 -1.3856
  189SAPI  H14Y21810   6.869   6.029   5.284  1.8256  1.1323 -2.6245
  189SAPI  C31521811   6.815   5.869   5.151  0.0010 -0.2307  0.2222
  189SAPI  H15X21812   6.711   5.881   5.189  0.9683  0.8856  2.7204
  189SAPI  H15Y21813   6.840   5.761   5.142 -1.1212 -0.4969  0.1156
  189SAPI  C31621814   6.835   5.946   5.018 -0.0357  0.1363 -0.0577
  189SAPI  H16X21815   6.849   6.055   5.034 -1.9382  0.3491  0.3041
  189SAPI  H16Y21816   6.742   5.927   4.961 -0.1205  0.7214 -0.1214
  189SAPI  C31721817   6.948   5.897   4.928 -0.2837 -0.1816 -0.3864
  189SAPI  H17X21818   6.911   5.848   4.836 -1.0078 -0.6268  0.1355
  189SAPI  H17Y21819   6.997   5.821   4.993 -2.4205 -0.5409  0.8876
  189SAPI  C31821820   7.047   6.011   4.904 -0.4160  0.8328 -0.0710
  189SAPI  H18X21821   7.000   6.099   4.854  2.1062  2.8623  0.8731
  189SAPI  H18Y21822   7.133   5.978   4.843 -0.3749  2.6784 -1.0960
  189SAPI  H18Z21823   7.084   6.048   5.002  1.7566 -0.4213 -0.3769
  190SAPI   C1221824   5.228   0.165   6.787  0.3890 -0.6504  0.0135
  190SAPI    H221825   5.205   0.069   6.737  0.1566 -0.3136 -0.5392
  190SAPI    O221826   5.172   0.271   6.711  0.0477 -0.3529 -0.1471
  190SAPI   HO221827   5.198   0.251   6.620  0.0968 -2.0929  0.2149
  190SAPI   C1321828   5.175   0.158   6.929 -0.8252  0.6681  0.1882
  190SAPI    H321829   5.224   0.081   6.992  0.8447  2.2350  0.9061
  190SAPI    O321830   5.036   0.137   6.921  0.3370 -0.1779  0.1798
  190SAPI   HO321831   4.999   0.212   6.874  1.0963 -1.4176 -2.6121
  190SAPI   C1421832   5.203   0.293   6.998  0.2927  0.0783 -0.5454
  190SAPI    H421833   5.146   0.370   6.943  0.9890  0.5594 -0.6018
  190SAPI    O421834   5.148   0.290   7.127  0.4361 -0.4034 -0.6974
  190SAPI   HO421835   5.108   0.376   7.140 -0.0627 -0.9218  1.6724
  190SAPI   C1521836   5.348   0.330   6.999  0.3003  0.4204  0.5273
  190SAPI    H521837   5.402   0.276   7.079  0.7823 -0.2067 -0.2161
  190SAPI    O521838   5.364   0.474   7.030 -0.2409  0.5720  0.3490
  190SAPI   HO521839   5.319   0.520   6.959 -2.5143  1.0258  1.9651
  190SAPI   C1621840   5.429   0.301   6.866  0.5202  0.1685  0.4857
  190SAPI    H621841   5.420   0.385   6.794 -0.3521  0.4659  0.9194
  190SAPI    O621842   5.573   0.309   6.883 -0.0588 -0.1203  0.4431
  190SAPI   HO621843   5.611   0.247   6.821 -0.3176 -0.2675  0.4293
  190SAPI   C1121844   5.383   0.175   6.798  0.3754  0.6393  0.4163
  190SAPI    H121845   5.409   0.089   6.864 -0.8318  0.5804  0.8454
  190SAPI     P21846   5.571   0.069   6.623  0.3548 -0.4871 -0.0074
  190SAPI   O1321847   5.673   0.110   6.718 -0.4334 -0.0187 -0.3416
  190SAPI   O1421848   5.594   0.093   6.476  0.4358 -0.1263  0.1149
  190SAPI   O1221849   5.436   0.158   6.667  0.7659 -0.7984 -0.4376
  190SAPI   O1121850   5.510  -0.079   6.642 -0.5726  0.2983  0.6084
  190SAPI    C121851   5.576  -0.191   6.579  0.6578 -0.0245 -0.2785
  190SAPI    HA21852   5.685  -0.180   6.563  0.2786  1.3726 -2.3264
  190SAPI    HB21853   5.550  -0.275   6.647 -2.0410  0.9672  0.0388
  190SAPI    C221854   5.510  -0.241   6.445  0.6452  0.7002  0.1723
  190SAPI    HS21855   5.577  -0.205   6.364  0.7334 -0.3543 -0.2407
  190SAPI   O2121856   5.376  -0.184   6.438 -0.0316 -0.4978 -0.5731
  190SAPI   C2121857   5.286  -0.242   6.517 -0.4341 -0.6140  0.2574
  190SAPI   O2221858   5.289  -0.349   6.568  0.7743 -0.4130 -0.1064
  190SAPI   C2221859   5.170  -0.140   6.530 -0.2540 -0.5870  0.0528
  190SAPI   H2R21860   5.203  -0.036   6.548 -0.3070 -0.0605 -2.4790
  190SAPI   H2S21861   5.119  -0.131   6.431  3.9217  2.0097 -2.1614
  190SAPI    C321862   5.518  -0.398   6.427  0.3009 -0.3378  0.3639
  190SAPI    HX21863   5.475  -0.464   6.506  1.5598 -2.0031 -0.2782
  190SAPI    HY21864   5.624  -0.427   6.444  0.3448 -0.3839  0.0120
  190SAPI   O3121865   5.481  -0.447   6.296  0.2389 -0.0560  0.7478
  190SAPI   C3121866   5.554  -0.418   6.191  0.7713 -0.7290  0.5104
  190SAPI   O3221867   5.643  -0.334   6.182  0.0277  0.7988 -0.6728
  190SAPI   C3221868   5.472  -0.475   6.072  0.0477  0.4974 -0.2268
  190SAPI   H2X21869   5.414  -0.397   6.020 -0.0143 -0.4208 -1.5768
  190SAPI   H2Y21870   5.404  -0.554   6.111 -0.0994  0.3084 -0.8697
  190SAPI   C2321871   5.080  -0.179   6.644  0.3764 -0.5246 -0.3966
  190SAPI   H3R21872   5.012  -0.094   6.668 -0.3244 -0.3704 -2.7285
  190SAPI   H3S21873   5.142  -0.205   6.732  2.1114 -1.7178 -1.9112
  190SAPI   C2421874   4.985  -0.299   6.616  0.1988  0.4748  0.0107
  190SAPI   H4R21875   4.900  -0.307   6.687  1.1360 -1.9118  0.9902
  190SAPI   H4S21876   5.039  -0.396   6.613 -0.9135 -0.1422 -2.8414
  190SAPI   C2521877   4.918  -0.266   6.484  0.3014  0.2839 -0.2439
  190SAPI   H5R21878   4.832  -0.198   6.494 -0.3167 -0.5665  0.4585
  190SAPI   C2621879   4.925  -0.329   6.361  0.2433 -0.3429 -0.9162
  190SAPI   H6R21880   4.851  -0.278   6.298 -2.1456 -0.7501  1.3880
  190SAPI   C2721881   5.015  -0.441   6.318 -0.0415  0.2251  0.4316
  190SAPI   H7R21882   4.960  -0.536   6.300 -2.8261  2.2715 -3.2292
  190SAPI   H7S21883   5.085  -0.465   6.402  0.4778  1.4609  0.3743
  190SAPI   C2821884   5.109  -0.405   6.201  0.4860  1.9621  0.1993
  190SAPI   H8R21885   5.181  -0.325   6.225  1.5794  1.0821 -0.0220
  190SAPI   C2921886   5.105  -0.476   6.081 -0.2413 -0.7079 -0.7470
  190SAPI   H9R21887   5.190  -0.454   6.014 -0.5099  0.1311 -0.8188
  190SAPI  C21021888   5.024  -0.592   6.019  0.3458  0.4731 -0.1505
  190SAPI  H10R21889   4.985  -0.652   6.103  0.1848 -0.3329 -0.7867
  190SAPI  H10S21890   5.085  -0.652   5.947  2.7543  2.8271 -0.2347
  190SAPI  C21121891   4.907  -0.540   5.944  0.0866  0.6198  0.3009
  190SAPI  H11R21892   4.853  -0.468   6.008  2.7422  0.6325  2.7636
  190SAPI  C21221893   4.860  -0.575   5.819 -0.2948  0.4192  0.3291
  190SAPI  H12R21894   4.767  -0.530   5.783  0.4836  2.7057  1.0297
  190SAPI  C21321895   4.934  -0.669   5.722  0.3019  0.8416 -0.3901
  190SAPI  H13R21896   4.909  -0.774   5.747 -1.2993  1.3079  0.1249
  190SAPI  H13S21897   5.044  -0.660   5.724  0.2720  1.6423 -1.5011
  190SAPI  C21421898   4.872  -0.650   5.591 -0.8281 -0.0377 -0.8923
  190SAPI  H14R21899   4.780  -0.705   5.569 -1.2936 -0.2490  1.4019
  190SAPI  C21521900   4.933  -0.581   5.490 -0.1873  0.3251 -0.1335
  190SAPI  H15R21901   4.881  -0.582   5.393 -0.9265 -6.1566 -0.1269
  190SAPI  C21621902   5.061  -0.492   5.487  0.0266  0.1331  0.1416
  190SAPI  H16R21903   5.113  -0.494   5.586  3.8186  0.6139 -1.6714
  190SAPI  H16S21904   5.034  -0.386   5.471 -0.4972 -0.1179 -0.6680
  190SAPI  C21721905   5.150  -0.550   5.379 -0.1158 -0.4218  0.8883
  190SAPI  H17R21906   5.154  -0.661   5.379  0.2072 -0.6323 -4.3223
  190SAPI  H17S21907   5.254  -0.516   5.401  0.0978 -0.0917 -0.5340
  190SAPI  C21821908   5.112  -0.505   5.238  0.1553 -0.2260  0.7490
  190SAPI  H18R21909   5.055  -0.410   5.243 -0.8905 -0.6864 -1.3234
  190SAPI  H18S21910   5.043  -0.573   5.184  1.1389 -1.8943  1.5215
  190SAPI  C21921911   5.228  -0.488   5.140 -0.1758 -0.2834  0.2015
  190SAPI  H19R21912   5.219  -0.575   5.072  2.7639 -1.0180  0.6004
  190SAPI  H19S21913   5.320  -0.500   5.201 -1.2364 -2.8930  1.4284
  190SAPI  C22021914   5.221  -0.351   5.065 -0.5677  0.1414 -0.0584
  190SAPI  H20R21915   5.121  -0.336   5.019 -0.5280  0.0710 -0.1696
  190SAPI  H20S21916   5.298  -0.347   4.985 -0.7708 -0.1331 -0.2704
  190SAPI  H20T21917   5.241  -0.264   5.130  1.9014 -1.0642  0.9314
  190SAPI   C3321918   5.567  -0.524   5.960  0.4351  0.2538 -0.1031
  190SAPI   H3X21919   5.642  -0.596   5.998 -1.7030 -2.2028 -0.1731
  190SAPI   H3Y21920   5.611  -0.432   5.917 -1.3878  0.2044 -2.2837
  190SAPI   C3421921   5.491  -0.592   5.849  1.0453 -0.4276  0.4936
  190SAPI   H4X21922   5.427  -0.513   5.804  2.6149 -0.0621 -1.1885
  190SAPI   H4Y21923   5.426  -0.666   5.902  0.4450  0.5267  1.1239
  190SAPI   C3521924   5.588  -0.661   5.751  0.5799 -0.3609 -0.2097
  190SAPI   H5X21925   5.648  -0.738   5.804  0.2645 -1.3638 -1.2805
  190SAPI   H5Y21926   5.659  -0.585   5.710  0.9122 -0.0024  0.9895
  190SAPI   C3621927   5.509  -0.721   5.634 -0.6504 -0.0302 -0.0786
  190SAPI   H6X21928   5.466  -0.635   5.579 -1.1567 -0.6131 -0.6147
  190SAPI   H6Y21929   5.424  -0.777   5.679 -1.3232  1.1936  0.2214
  190SAPI   C3721930   5.593  -0.794   5.533 -0.3671  0.1727 -0.2803
  190SAPI   H7X21931   5.649  -0.878   5.579  1.2492 -0.1651 -2.6908
  190SAPI   H7Y21932   5.671  -0.730   5.486  0.0385  0.2849  0.5279
  190SAPI   C3821933   5.505  -0.844   5.413 -0.3319  0.6082  0.1305
  190SAPI   H8X21934   5.402  -0.859   5.452  0.1409  0.9255  1.5764
  190SAPI   H8Y21935   5.548  -0.945   5.395  0.4779  1.0059 -0.2132
  190SAPI   C3921936   5.502  -0.750   5.293  0.9162 -0.0067  0.4855
  190SAPI   H9X21937   5.605  -0.711   5.283  0.0169  2.4407 -0.0237
  190SAPI   H9Y21938   5.425  -0.670   5.301  2.0593  1.1413  0.2881
  190SAPI  C31021939   5.466  -0.819   5.156  0.2537  0.1020 -0.5562
  190SAPI  H10X21940   5.543  -0.897   5.140  0.7656  0.6459 -0.7890
  190SAPI  H10Y21941   5.478  -0.744   5.075  1.9899  0.2125 -0.2442
  190SAPI  C31121942   5.328  -0.884   5.164  0.0771 -0.3918  0.3086
  190SAPI  H11X21943   5.252  -0.811   5.201 -0.5363 -1.1618  0.6016
  190SAPI  H11Y21944   5.330  -0.959   5.246 -1.5204  0.6325  1.3482
  190SAPI  C31221945   5.282  -0.948   5.039  0.2109 -0.2769  0.0118
  190SAPI  H12X21946   5.189  -1.006   5.057  0.4378 -0.9040 -0.7802
  190SAPI  H12Y21947   5.355  -1.023   5.000  0.3411 -0.1905  0.0883
  190SAPI  C31321948   5.249  -0.852   4.924  0.0163 -0.0949  0.0787
  190SAPI  H13X21949   5.266  -0.900   4.825 -2.3101 -0.4869 -0.1864
  190SAPI  H13Y21950   5.310  -0.760   4.924 -2.0262  1.3335 -0.3353
  190SAPI  C31421951   5.104  -0.802   4.925 -0.2361  0.6528 -0.5110
  190SAPI  H14X21952   5.099  -0.744   5.020  1.2900  1.2114 -0.7331
  190SAPI  H14Y21953   5.029  -0.883   4.928 -0.2787  0.7199  0.5999
  190SAPI  C31521954   5.082  -0.696   4.822 -0.2691  0.1001  0.0900
  190SAPI  H15X21955   5.091  -0.741   4.721 -0.7896  0.0189  0.0740
  190SAPI  H15Y21956   5.172  -0.635   4.844 -0.0102  0.1215 -0.9698
  190SAPI  C31621957   4.947  -0.618   4.840  0.5876  0.5511 -0.2095
  190SAPI  H16X21958   4.937  -0.603   4.950  0.0400  1.0106 -0.3153
  190SAPI  H16Y21959   4.856  -0.674   4.810 -1.5502  3.3611  0.5885
  190SAPI  C31721960   4.933  -0.490   4.757 -0.3170  0.5859 -0.2533
  190SAPI  H17X21961   5.018  -0.420   4.770  1.1173 -0.7375 -1.8861
  190SAPI  H17Y21962   4.842  -0.448   4.804 -1.6327 -2.5389  0.2410
  190SAPI  C31821963   4.902  -0.497   4.606  0.4169 -0.1271  0.0513
  190SAPI  H18X21964   4.990  -0.550   4.565  0.7052  0.1997  0.2417
  190SAPI  H18Y21965   4.889  -0.394   4.566  0.1555 -0.8403 -1.7855
  190SAPI  H18Z21966   4.810  -0.554   4.581  1.0402 -0.4031 -1.7350
  191SAPI   C1221967   3.836   0.498   2.517 -0.2751 -0.1986 -0.4580
  191SAPI    H221968   3.883   0.514   2.617  0.5041 -0.0703 -0.8408
  191SAPI    O221969   3.914   0.416   2.440 -0.0861  0.0391  0.7256
  191SAPI   HO221970   4.003   0.430   2.476 -0.4690 -0.5099  1.9589
  191SAPI   C1321971   3.707   0.442   2.555  0.3992 -0.0808 -0.8993
  191SAPI    H321972   3.654   0.522   2.611  0.6875 -0.8092  0.4523
  191SAPI    O321973   3.733   0.344   2.658 -0.7614 -0.2114  0.4948
  191SAPI   HO321974   3.751   0.263   2.609  0.0816  0.7879 -0.9241
  191SAPI   C1421975   3.623   0.403   2.433  0.5540  0.8055 -0.4410
  191SAPI    H421976   3.677   0.315   2.390 -1.0528  0.1168 -1.1258
  191SAPI    O421977   3.493   0.362   2.469 -0.5212 -0.7396 -0.5427
  191SAPI   HO421978   3.442   0.437   2.502  0.3080 -0.2702 -0.2860
  191SAPI   C1521979   3.627   0.516   2.324 -0.2001  0.3101  0.1343
  191SAPI    H521980   3.529   0.569   2.331 -1.0893 -1.3389  0.6043
  191SAPI    O521981   3.626   0.456   2.195 -0.0929  0.7216  0.5443
  191SAPI   HO521982   3.714   0.419   2.182 -0.7610 -1.1193  1.0576
  191SAPI   C1621983   3.740   0.624   2.329 -0.4108  0.1256 -0.7404
  191SAPI    H621984   3.810   0.597   2.247 -0.8528 -2.6480 -0.2806
  191SAPI    O621985   3.683   0.751   2.291 -0.1688  0.3016 -0.7188
  191SAPI   HO621986   3.753   0.817   2.287  0.7743 -0.2284  2.9335
  191SAPI   C1121987   3.812   0.635   2.464 -0.4996 -0.4621  1.2300
  191SAPI    H121988   3.740   0.689   2.530  1.4657  1.6485  1.7675
  191SAPI     P21989   3.960   0.830   2.560  0.0678  0.0261 -0.6283
  191SAPI   O1321990   3.829   0.895   2.595  0.0369  0.0309  0.3269
  191SAPI   O1421991   4.075   0.916   2.515  0.6642 -0.1571 -0.0138
  191SAPI   O1221992   3.941   0.702   2.453 -0.1769 -0.3549 -0.4357
  191SAPI   O1121993   4.009   0.754   2.684 -0.2780  0.4033 -0.5725
  191SAPI    C121994   4.135   0.692   2.693  0.7250 -0.1032  0.2747
  191SAPI    HA21995   4.147   0.607   2.623 -1.2481 -0.3088  0.1099
  191SAPI    HB21996   4.213   0.768   2.674  0.6270 -0.5276 -2.0669
  191SAPI    C221997   4.163   0.648   2.840  0.2522  0.5089 -0.3132
  191SAPI    HS21998   4.255   0.588   2.852  0.5684  1.5145  3.2297
  191SAPI   O2121999   4.051   0.560   2.889 -0.4285 -1.0101  0.7494
  191SAPI   C2122000   4.059   0.435   2.863  0.8203  0.0233  0.4459
  191SAPI   O2222001   4.153   0.375   2.813  0.5234  0.0778 -0.0154
  191SAPI   C2222002   3.931   0.379   2.928  1.0690  0.0954 -0.2347
  191SAPI   H2R22003   3.934   0.412   3.034 -1.6920  0.1636 -0.0948
  191SAPI   H2S22004   3.839   0.430   2.892  1.2280  0.2434 -0.4349
  191SAPI    C322005   4.171   0.760   2.945 -0.4121 -0.0421 -0.6652
  191SAPI    HX22006   4.092   0.834   2.920  0.2421  0.4393 -1.3894
  191SAPI    HY22007   4.267   0.810   2.918  0.6110 -0.8748  1.2758
  191SAPI   O3122008   4.171   0.712   3.085  0.0023 -0.1414  0.2879
  191SAPI   C3122009   4.290   0.667   3.134 -0.0840  0.7035 -0.2288
  191SAPI   O3222010   4.392   0.663   3.074  0.2499 -0.0715 -0.1273
  191SAPI   C3222011   4.275   0.656   3.286 -0.2220 -0.4104 -0.0204
  191SAPI   H2X22012   4.277   0.760   3.323  2.5382 -0.4995  0.3054
  191SAPI   H2Y22013   4.369   0.611   3.327 -0.3534  0.0856  0.8493
  191SAPI   C2322014   3.911   0.227   2.907 -0.4116 -0.0541  0.0618
  191SAPI   H3R22015   3.988   0.158   2.948 -0.5278  0.6450  1.5216
  191SAPI   H3S22016   3.900   0.208   2.798 -1.6073 -2.1575  0.4784
  191SAPI   C2422017   3.776   0.183   2.967  0.1722 -0.5926  0.4073
  191SAPI   H4R22018   3.690   0.225   2.910  0.1989 -0.2322  0.6262
  191SAPI   H4S22019   3.762   0.230   3.067  1.4492 -2.0724  1.3250
  191SAPI   C2522020   3.759   0.029   2.968  0.1828 -0.4621 -0.1947
  191SAPI   H5R22021   3.742  -0.011   2.867 -0.6020  3.0176 -1.5888
  191SAPI   C2622022   3.737  -0.049   3.076 -0.0856 -0.1660 -0.9932
  191SAPI   H6R22023   3.721  -0.157   3.063 -1.8862 -0.0309 -0.1455
  191SAPI   C2722024   3.763  -0.013   3.222 -0.0704 -1.0884 -0.2468
  191SAPI   H7R22025   3.795   0.094   3.220  0.2610 -1.0937  2.0354
  191SAPI   H7S22026   3.849  -0.075   3.253  1.1932 -0.3556 -2.1106
  191SAPI   C2822027   3.647  -0.018   3.317  0.7579 -0.2200 -0.1169
  191SAPI   H8R22028   3.585   0.072   3.327  0.7422 -0.1600 -0.7286
  191SAPI   C2922029   3.626  -0.116   3.408 -0.3000 -0.0755  0.0337
  191SAPI   H9R22030   3.545  -0.112   3.483  1.0990  0.3701  1.5758
  191SAPI  C21022031   3.698  -0.243   3.412 -0.5803  0.1790 -0.8127
  191SAPI  H10R22032   3.739  -0.242   3.515 -0.3201  3.8618 -0.8222
  191SAPI  H10S22033   3.777  -0.253   3.334 -1.0566 -0.3738 -1.2385
  191SAPI  C21122034   3.595  -0.348   3.394  0.2894 -0.1670 -0.1162
  191SAPI  H11R22035   3.542  -0.339   3.297 -0.9127  0.8213  0.5997
  191SAPI  C21222036   3.568  -0.452   3.472 -0.2295  0.0583  0.4135
  191SAPI  H12R22037   3.480  -0.512   3.444 -1.5988  1.2786  1.9359
  191SAPI  C21322038   3.605  -0.487   3.610  0.1978  0.5799  0.0134
  191SAPI  H13R22039   3.630  -0.393   3.663 -0.6848  0.6388  0.3262
  191SAPI  H13S22040   3.700  -0.546   3.617  0.5098  1.0195 -0.4352
  191SAPI  C21422041   3.497  -0.577   3.679 -0.5384 -0.5395  0.3323
  191SAPI  H14R22042   3.425  -0.625   3.612 -2.3523  2.8398 -0.3291
  191SAPI  C21522043   3.467  -0.572   3.808  0.2565 -0.6578 -0.3133
  191SAPI  H15R22044   3.381  -0.627   3.847  0.9357 -0.5365  1.4420
  191SAPI  C21622045   3.548  -0.492   3.906 -0.2280 -0.3996  0.9101
  191SAPI  H16R22046   3.479  -0.428   3.966 -1.0164 -0.0716 -0.3183
  191SAPI  H16S22047   3.625  -0.422   3.868 -0.3161 -0.8075 -0.0283
  191SAPI  C21722048   3.625  -0.591   3.994 -0.4184 -0.0504 -0.9296
  191SAPI  H17R22049   3.701  -0.637   3.928 -2.2434 -0.7367 -2.6788
  191SAPI  H17S22050   3.558  -0.668   4.038  0.6111 -0.6435 -0.3763
  191SAPI  C21822051   3.693  -0.518   4.112 -0.1599 -0.4773 -0.1810
  191SAPI  H18R22052   3.610  -0.455   4.150 -0.1200 -0.8655  0.5747
  191SAPI  H18S22053   3.787  -0.467   4.084  0.1072 -0.6537  0.3805
  191SAPI  C21922054   3.740  -0.621   4.225 -0.2170 -0.3336 -0.2146
  191SAPI  H19R22055   3.810  -0.698   4.185 -1.1776 -1.6113  0.4942
  191SAPI  H19S22056   3.662  -0.683   4.275 -0.2426  0.7579  1.1845
  191SAPI  C22022057   3.805  -0.542   4.345 -0.0188  0.9846 -0.0327
  191SAPI  H20R22058   3.840  -0.613   4.422 -1.3185  1.4428  1.0118
  191SAPI  H20S22059   3.723  -0.487   4.396 -1.5928 -1.4240  0.1460
  191SAPI  H20T22060   3.885  -0.478   4.300  0.9648  0.3340  0.7595
  191SAPI   C3322061   4.145   0.579   3.327  0.7230  0.2239  0.7621
  191SAPI   H3X22062   4.051   0.637   3.317 -0.2445 -1.4285 -0.3622
  191SAPI   H3Y22063   4.141   0.566   3.437 -1.6990  1.4206  0.8847
  191SAPI   C3422064   4.113   0.438   3.261 -0.4578 -0.5954  0.0369
  191SAPI   H4X22065   4.209   0.384   3.270  0.2321  0.3712 -1.2783
  191SAPI   H4Y22066   4.096   0.461   3.154  2.0818 -2.0627 -0.7606
  191SAPI   C3522067   3.980   0.373   3.311  0.5146 -0.5192 -0.3595
  191SAPI   H5X22068   3.968   0.273   3.264 -1.6612 -1.3435  1.7089
  191SAPI   H5Y22069   3.885   0.423   3.281  1.5537  1.1348 -1.0038
  191SAPI   C3622070   3.967   0.353   3.460  0.3439  0.5566 -0.1101
  191SAPI   H6X22071   3.918   0.439   3.510  2.4309  0.1372  2.8982
  191SAPI   H6Y22072   4.065   0.336   3.508 -0.0344  0.4992  0.6425
  191SAPI   C3722073   3.874   0.233   3.488 -0.2870 -0.2174  0.5161
  191SAPI   H7X22074   3.912   0.140   3.441 -0.8047 -1.3142  2.1999
  191SAPI   H7Y22075   3.780   0.252   3.431  2.7041  1.8736 -4.3556
  191SAPI   C3822076   3.849   0.219   3.640 -0.3793 -0.3639  0.4806
  191SAPI   H8X22077   3.771   0.289   3.677  2.0275  2.6509  0.3111
  191SAPI   H8Y22078   3.946   0.240   3.691  1.0119  0.4021 -2.2692
  191SAPI   C3922079   3.792   0.076   3.673  0.5456 -0.2124 -0.1190
  191SAPI   H9X22080   3.877   0.018   3.633  1.0306  1.2322 -1.2944
  191SAPI   H9Y22081   3.705   0.054   3.607  0.0718 -1.2316  0.8278
  191SAPI  C31022082   3.776   0.046   3.819 -0.1259 -0.5055 -0.1519
  191SAPI  H10X22083   3.697   0.108   3.867  1.0487 -1.0460  2.7076
  191SAPI  H10Y22084   3.861   0.078   3.882  0.5619 -0.0576 -1.2823
  191SAPI  C31122085   3.741  -0.107   3.844  0.3190  0.3557 -0.1324
  191SAPI  H11X22086   3.807  -0.169   3.780  0.5236 -1.1013  1.4190
  191SAPI  H11Y22087   3.638  -0.119   3.805  0.0546  2.6730 -0.2866
  191SAPI  C31222088   3.732  -0.154   3.989 -0.7862 -0.1997  0.3807
  191SAPI  H12X22089   3.827  -0.123   4.038  1.6916 -1.2531 -3.2978
  191SAPI  H12Y22090   3.745  -0.263   3.972  2.8209  0.3585 -1.4198
  191SAPI  C31322091   3.600  -0.131   4.062  0.0200  0.5522 -0.4707
  191SAPI  H13X22092   3.518  -0.203   4.041  0.0668 -0.0689  1.3392
  191SAPI  H13Y22093   3.574  -0.025   4.039  0.2104  0.6067 -0.4352
  191SAPI  C31422094   3.618  -0.154   4.214 -0.0972 -0.1728 -0.1838
  191SAPI  H14X22095   3.714  -0.101   4.233  0.1762 -1.1104  1.2174
  191SAPI  H14Y22096   3.643  -0.259   4.242  1.1749 -0.0162 -0.6360
  191SAPI  C31522097   3.501  -0.103   4.300  0.6057 -0.2432 -0.4090
  191SAPI  H15X22098   3.409  -0.135   4.246 -0.2180 -0.0825  0.8640
  191SAPI  H15Y22099   3.501   0.007   4.312 -0.2848 -0.4363  1.9215
  191SAPI  C31622100   3.514  -0.160   4.444 -0.2484  1.1119  0.7146
  191SAPI  H16X22101   3.620  -0.156   4.476 -0.1826  0.2766  0.6326
  191SAPI  H16Y22102   3.488  -0.267   4.429  0.5515  1.0358 -0.2867
  191SAPI  C31722103   3.420  -0.080   4.541  0.1135 -0.1767  0.4863
  191SAPI  H17X22104   3.461   0.023   4.533  0.4983 -0.3501  0.1898
  191SAPI  H17Y22105   3.418  -0.128   4.642 -2.1921  0.3223  0.7220
  191SAPI  C31822106   3.274  -0.099   4.510  0.4495 -0.1146 -0.1684
  191SAPI  H18X22107   3.247  -0.206   4.506  0.1529 -0.2428  3.0316
  191SAPI  H18Y22108   3.267  -0.058   4.407  0.7076 -0.1364 -0.1962
  191SAPI  H18Z22109   3.201  -0.047   4.576  0.7805  0.7607 -0.4680
  192SAPI   C1222110   0.200   5.953   1.994 -0.0370 -0.0747  0.4000
  192SAPI    H222111   0.191   6.048   2.050 -0.8387 -0.4960  1.0189
  192SAPI    O222112   0.109   5.967   1.889 -0.9537 -0.2944 -0.3456
  192SAPI   HO222113   0.065   6.050   1.907  3.5276  1.8439  2.5754
  192SAPI   C1322114   0.349   5.931   1.953  0.7046 -0.1706 -0.5910
  192SAPI    H322115   0.400   5.915   2.050 -0.2234 -2.6370 -0.4444
  192SAPI    O322116   0.416   6.048   1.893  0.6552 -0.0634 -0.3967
  192SAPI   HO322117   0.491   6.059   1.951 -0.0858  0.6624  0.4652
  192SAPI   C1422118   0.374   5.801   1.877  0.7131  0.8941 -0.2617
  192SAPI    H422119   0.321   5.825   1.782  0.3140 -2.4672 -1.0195
  192SAPI    O422120   0.506   5.775   1.846 -0.4136  0.0695 -0.4114
  192SAPI   HO422121   0.515   5.726   1.764  1.9887  1.4965 -1.1116
  192SAPI   C1522122   0.298   5.686   1.936  0.0727  1.3765  0.1856
  192SAPI    H522123   0.372   5.643   2.007  0.9849  2.2612 -0.2142
  192SAPI    O522124   0.270   5.582   1.846  0.2386  0.0558 -0.1513
  192SAPI   HO522125   0.188   5.602   1.800 -0.3686 -0.4821  0.6814
  192SAPI   C1622126   0.173   5.709   2.026 -0.0006  0.0962  0.7842
  192SAPI    H622127   0.090   5.684   1.955 -0.6734  0.3347  1.4729
  192SAPI    O622128   0.169   5.613   2.128  0.6908 -0.4039  0.1332
  192SAPI   HO622129   0.248   5.624   2.180  0.1474 -0.8734  1.0861
  192SAPI   C1122130   0.152   5.846   2.089  0.0233 -0.6895  0.4676
  192SAPI    H122131   0.227   5.848   2.172 -0.8760 -1.3640  1.3127
  192SAPI     P22132  -0.021   5.974   2.261  0.2659 -0.3196  0.0179
  192SAPI   O1322133  -0.159   6.026   2.242 -0.7889 -0.3097  0.4198
  192SAPI   O1422134   0.085   6.078   2.279 -0.6557 -0.2147  0.6870
  192SAPI   O1222135   0.019   5.869   2.143  0.2259 -0.1882 -0.7684
  192SAPI   O1122136  -0.022   5.883   2.386 -0.7763  0.1190 -0.3121
  192SAPI    C122137   0.099   5.829   2.434 -0.7142  0.9640  0.4503
  192SAPI    HA22138   0.099   5.719   2.420  0.5870  1.1199 -1.0619
  192SAPI    HB22139   0.192   5.861   2.383  0.7715 -0.1321  2.3399
  192SAPI    C222140   0.120   5.883   2.581  0.9489  0.4864 -0.2223
  192SAPI    HS22141   0.212   5.828   2.609 -0.5978 -1.0963  2.0817
  192SAPI   O2122142   0.011   5.831   2.664 -0.1893 -0.0561 -0.6065
  192SAPI   C2122143   0.010   5.695   2.662 -0.4536  0.1994 -0.5155
  192SAPI   O2222144   0.098   5.622   2.624 -0.7331 -0.4016  0.0441
  192SAPI   C2222145  -0.117   5.649   2.733 -0.8471 -0.0698  0.0061
  192SAPI   H2R22146  -0.103   5.691   2.835  1.0137  2.7383 -1.2776
  192SAPI   H2S22147  -0.208   5.700   2.693 -0.8542 -0.6291 -0.7028
  192SAPI    C322148   0.121   6.040   2.595  0.7214  1.2187  0.4343
  192SAPI    HX22149   0.017   6.078   2.588  0.4374  0.3572 -0.2289
  192SAPI    HY22150   0.178   6.082   2.509  0.9863 -0.0513 -0.0396
  192SAPI   O3122151   0.185   6.081   2.710  1.0214 -0.3709 -0.0362
  192SAPI   C3122152   0.125   6.097   2.830  1.2442 -0.7478  0.6871
  192SAPI   O3222153   0.007   6.069   2.851  0.0611 -0.4930 -0.1163
  192SAPI   C3222154   0.228   6.151   2.929  0.3775  0.4136 -0.1366
  192SAPI   H2X22155   0.259   6.252   2.896  0.1208  0.0474 -1.5956
  192SAPI   H2Y22156   0.313   6.082   2.907  0.2736  0.0227  0.6660
  192SAPI   C2322157  -0.145   5.497   2.735 -0.4883  0.2402 -0.0043
  192SAPI   H3R22158  -0.050   5.445   2.761 -0.3836  0.3286 -0.2102
  192SAPI   H3S22159  -0.190   5.468   2.638 -1.9122 -2.0897  1.2680
  192SAPI   C2422160  -0.253   5.451   2.835  0.2282  0.4186 -0.0262
  192SAPI   H4R22161  -0.352   5.495   2.811  0.5208  0.9101 -0.3527
  192SAPI   H4S22162  -0.221   5.484   2.937  3.6070  0.5557 -1.0103
  192SAPI   C2522163  -0.281   5.306   2.825  0.1008  0.2956  0.2376
  192SAPI   H5R22164  -0.361   5.281   2.753  2.0309 -2.7207 -1.0921
  192SAPI   C2622165  -0.226   5.200   2.881 -0.5723  0.0270 -0.1665
  192SAPI   H6R22166  -0.258   5.099   2.852 -2.1387 -0.0212  1.5227
  192SAPI   C2722167  -0.100   5.189   2.963 -0.4171  0.3827  0.4501
  192SAPI   H7R22168  -0.129   5.166   3.068  0.8150  1.5067  1.0650
  192SAPI   H7S22169  -0.044   5.284   2.976 -1.8862  0.9257  3.8513
  192SAPI   C2822170   0.004   5.090   2.910 -0.2479  0.6080 -0.2669
  192SAPI   H8R22171   0.085   5.120   2.843 -0.0296  0.2685 -0.1601
  192SAPI   C2922172   0.005   4.954   2.935  0.0531  0.3056  0.7863
  192SAPI   H9R22173   0.083   4.890   2.892 -1.2069 -1.2173  0.6848
  192SAPI  C21022174  -0.081   4.886   3.036  0.0709 -0.3676  1.0708
  192SAPI  H10R22175  -0.168   4.844   2.982  0.0885  0.3417  0.4651
  192SAPI  H10S22176  -0.128   4.966   3.097 -0.9775 -0.0597 -0.1022
  192SAPI  C21122177  -0.007   4.783   3.114 -0.5779 -0.0451 -0.1050
  192SAPI  H11R22178   0.024   4.689   3.065  0.2195  0.1974 -0.0756
  192SAPI  C21222179   0.023   4.791   3.250 -0.3882  0.0768  0.1346
  192SAPI  H12R22180   0.048   4.698   3.304  2.1746 -0.3095 -1.5187
  192SAPI  C21322181  -0.019   4.906   3.334  0.3111  0.1206 -0.3603
  192SAPI  H13R22182  -0.127   4.898   3.359  0.4127 -2.2565 -0.4821
  192SAPI  H13S22183  -0.004   5.005   3.286  0.2089  1.5391  2.3183
  192SAPI  C21422184   0.073   4.893   3.458 -0.4091 -0.7822  0.1349
  192SAPI  H14R22185   0.175   4.861   3.431 -0.1238  1.0517 -1.1045
  192SAPI  C21522186   0.047   4.927   3.585 -0.5824  0.1358 -0.1836
  192SAPI  H15R22187   0.126   4.928   3.661 -1.5613  1.2458  0.8577
  192SAPI  C21622188  -0.083   4.985   3.635  0.2801  0.3590 -0.0919
  192SAPI  H16R22189  -0.165   4.952   3.568 -0.7932  2.1021  0.2963
  192SAPI  H16S22190  -0.075   5.095   3.625  2.2182  0.2991  0.3961
  192SAPI  C21722191  -0.106   4.953   3.783 -0.5507  0.6946 -0.3190
  192SAPI  H17R22192  -0.170   5.032   3.828 -0.5576  1.3027 -1.3619
  192SAPI  H17S22193  -0.019   4.940   3.851 -1.3729  0.4343  0.7162
  192SAPI  C21822194  -0.191   4.820   3.795 -0.5211 -0.0081 -0.0883
  192SAPI  H18R22195  -0.129   4.746   3.739 -0.3292  0.1024 -0.0223
  192SAPI  H18S22196  -0.291   4.842   3.753  0.3854  1.0596 -1.8342
  192SAPI  C21922197  -0.189   4.763   3.944  0.6261  0.5947  0.4610
  192SAPI  H19R22198  -0.151   4.834   4.020  1.3710 -0.3591  1.0029
  192SAPI  H19S22199  -0.123   4.674   3.938 -2.2285 -1.5736 -2.9353
  192SAPI  C22022200  -0.322   4.711   3.984  0.3412  0.0653 -0.2397
  192SAPI  H20R22201  -0.358   4.637   3.909 -3.1646  0.1969  1.1471
  192SAPI  H20S22202  -0.403   4.786   3.996 -0.5080 -1.0215  1.1203
  192SAPI  H20T22203  -0.304   4.651   4.075  0.6863 -1.3865 -1.2361
  192SAPI   C3322204   0.187   6.143   3.078 -0.5310  0.0749 -0.1636
  192SAPI   H3X22205   0.087   6.192   3.078 -0.5705  0.0406  1.2295
  192SAPI   H3Y22206   0.249   6.208   3.143 -1.3138  0.2783  0.3898
  192SAPI   C3422207   0.187   6.002   3.140 -0.6197 -0.1378  0.6701
  192SAPI   H4X22208   0.283   5.956   3.111  0.1434 -0.1410  2.9630
  192SAPI   H4Y22209   0.094   5.949   3.110 -0.6248  0.6412 -0.7687
  192SAPI   C3522210   0.191   6.019   3.289  0.7142 -0.2789  0.0852
  192SAPI   H5X22211   0.110   6.088   3.322  1.0993 -0.9201  2.5729
  192SAPI   H5Y22212   0.290   6.056   3.321  0.8032 -0.9239  0.5747
  192SAPI   C3622213   0.192   5.889   3.366  0.6191  0.3105 -0.1485
  192SAPI   H6X22214   0.253   5.807   3.322 -1.8816 -0.5386 -2.2655
  192SAPI   H6Y22215   0.093   5.839   3.354  0.3673  1.2223 -2.3421
  192SAPI   C3722216   0.228   5.905   3.516  0.3776 -0.8076 -0.2820
  192SAPI   H7X22217   0.153   5.977   3.555  1.1826 -1.1069  1.9252
  192SAPI   H7Y22218   0.330   5.947   3.530  1.0451 -2.5396  0.3766
  192SAPI   C3822219   0.200   5.774   3.591 -0.5568 -0.3550  0.2315
  192SAPI   H8X22220   0.275   5.704   3.549 -0.1875  0.1868 -0.0255
  192SAPI   H8Y22221   0.099   5.734   3.571 -1.2448  0.6595  1.5191
  192SAPI   C3922222   0.207   5.760   3.740  0.8388 -0.0189  0.1973
  192SAPI   H9X22223   0.210   5.655   3.776 -0.7072  0.2633  1.1936
  192SAPI   H9Y22224   0.116   5.810   3.777  1.4738  1.1004  0.3087
  192SAPI  C31022225   0.320   5.832   3.805  0.0293 -0.6677 -0.5379
  192SAPI  H10X22226   0.317   5.935   3.763 -0.4888 -0.2070  0.5943
  192SAPI  H10Y22227   0.416   5.780   3.781  0.1566 -0.0144 -1.5489
  192SAPI  C31122228   0.311   5.852   3.953  0.1439 -0.3541  0.0846
  192SAPI  H11X22229   0.210   5.887   3.982  0.2589  1.7580 -1.7786
  192SAPI  H11Y22230   0.379   5.937   3.977  0.7109 -0.8966  0.4291
  192SAPI  C31222231   0.350   5.726   4.029 -0.1670  0.0176 -0.3526
  192SAPI  H12X22232   0.451   5.697   3.994  0.4785  0.3621  1.1601
  192SAPI  H12Y22233   0.286   5.639   4.006  0.7365 -0.1463 -2.4381
  192SAPI  C31322234   0.348   5.748   4.177 -0.2583  0.4875 -0.7307
  192SAPI  H13X22235   0.248   5.788   4.203 -0.4226 -1.2503  1.6890
  192SAPI  H13Y22236   0.408   5.841   4.193  0.5918  0.1933 -2.0953
  192SAPI  C31422237   0.372   5.627   4.263 -0.7157 -0.2974 -0.5808
  192SAPI  H14X22238   0.401   5.656   4.367 -4.0080  0.8915  0.1361
  192SAPI  H14Y22239   0.459   5.576   4.217 -0.5763 -0.9416  0.3575
  192SAPI  C31522240   0.258   5.526   4.274  0.0301 -0.3002  0.1472
  192SAPI  H15X22241   0.309   5.436   4.316  0.3967 -0.0597  0.2203
  192SAPI  H15Y22242   0.206   5.509   4.177 -1.6301 -0.0657  0.9495
  192SAPI  C31622243   0.142   5.582   4.365 -0.5777  0.3060 -0.2898
  192SAPI  H16X22244   0.056   5.511   4.362 -0.9934  0.7940 -0.1162
  192SAPI  H16Y22245   0.109   5.680   4.322 -0.1859  0.9365  0.8056
  192SAPI  C31722246   0.187   5.606   4.515  0.3268  1.0790  0.5066
  192SAPI  H17X22247   0.251   5.696   4.524 -0.1627  1.3959  0.8072
  192SAPI  H17Y22248   0.245   5.517   4.550 -1.7506 -1.3766 -1.8956
  192SAPI  C31822249   0.070   5.616   4.612 -0.0723  0.1764  0.2249
  192SAPI  H18X22250  -0.015   5.678   4.576 -1.1712 -0.1324  2.1954
  192SAPI  H18Y22251   0.115   5.657   4.705  0.9780  1.4706 -0.7967
  192SAPI  H18Z22252   0.036   5.515   4.642  0.2532  0.3821  1.3243
  193SOD    SOD22253   4.667   0.391   6.898 -0.5611  0.3381 -0.1872
  194SOD    SOD22254   3.930   0.893   0.788  0.0593 -0.6669 -0.1718
  195SOD    SOD22255   0.516   3.753   7.993  0.7825 -0.1956  0.1981
  196SOD    SOD22256   1.418   1.238   0.082  0.0025 -0.5283  0.4034
  197SOD    SOD22257   0.588   3.934   2.066 -0.0277 -0.3197  0.4679
  198SOD    SOD22258   0.815   6.733   7.211  0.0199 -0.1370  0.5160
  199SOD    SOD22259   2.491   1.302   1.334 -0.2583 -0.0837 -0.0801
  200SOD    SOD22260   2.797   1.393   7.597  0.0842  0.3701  0.2002
  201SOD    SOD22261   2.251   4.208   0.078 -0.1680  0.4592  0.4288
  202SOD    SOD22262   5.312   4.624   2.126 -0.5282 -0.0744  0.3551
  203SOD    SOD22263   3.799   4.202   8.170  0.0056  0.4285 -0.2420
  204SOD    SOD22264   5.629   0.487   7.021  0.1973  0.3599  0.3141
  205SOD    SOD22265   1.136   5.823   7.572  0.4031  0.2376 -0.3833
  206SOD    SOD22266   3.019   0.465   2.383 -0.5979  0.2798 -0.2779
  207SOD    SOD22267   4.868   4.316   6.818  0.0634  0.0475 -0.1459
  208SOD    SOD22268   5.041   1.354   8.463  0.1792  0.2674 -0.4794
  209SOD    SOD22269   4.995   6.066   1.661 -0.2289 -0.2252 -0.1421
  210SOD    SOD22270   2.458   2.031   2.408 -0.0876  0.3206  0.8514
  211SOD    SOD22271   5.728   4.847   7.692 -0.2262  0.1530 -0.6849
  212SOD    SOD22272   3.289   6.227   0.156  0.1916  0.4003  0.2737
  213SOD    SOD22273   4.341   5.818   1.229  0.0962 -0.4564 -0.4646
  214SOD    SOD22274   5.697   5.386   0.552  0.0132  0.2123  0.1005
  215SOD    SOD22275   6.729   0.242   6.835 -0.0047 -0.1232  0.3542
  216SOD    SOD22276   3.122   4.915   0.132  0.1417  0.1351  0.1466
  217SOD    SOD22277   3.004   5.455   7.165  0.3362  0.5325 -0.2139
  218SOD    SOD22278   1.322   1.460   6.437 -0.1333  0.0896  0.6560
  219SOD    SOD22279   3.068   0.478   7.336 -0.1090 -0.3316 -0.0926
  220SOD    SOD22280   5.926   3.626   6.878  0.3565 -0.0388 -0.2294
  221SOD    SOD22281   0.723   0.734   2.019 -0.1976 -0.1171 -0.1970
  222SOD    SOD22282   0.665   2.634   1.532  0.4300  0.1205  0.0591
  223SOD    SOD22283   1.058   0.137   0.661 -0.2036  0.1752 -0.0597
  224SOD    SOD22284   3.740   1.488   1.960 -0.0355  0.5850 -0.3235
  225SOD    SOD22285   0.138   6.515   1.162  0.4460  0.2185 -0.2102
  226SOD    SOD22286   3.063   5.211   1.727 -0.0704  0.2147 -0.3805
  227SOD    SOD22287   4.906   2.856   0.973  0.2349 -0.0919  0.5841
  228SOD    SOD22288   1.533   2.984   6.580  0.5070  0.5124 -0.2836
  229SOD    SOD22289   4.830   4.733   1.901  0.1796 -0.0231  0.2506
  230SOD    SOD22290   1.223   1.404   0.992 -0.2732 -0.3066  0.3585
  231SOD    SOD22291   2.888   6.410   7.409 -0.4869  0.2190 -0.0478
  232SOD    SOD22292   3.728   2.629   1.363  0.3443  0.2689 -0.2329
  233SOD    SOD22293   3.998   3.015   0.569  0.0919  0.0444 -0.1640
  234CLA    CLA22294   2.288   4.447   1.061  0.3495  0.0369 -0.3152
  235CLA    CLA22295   4.218   5.983   8.076 -0.0215  0.3101 -0.1518
  236CLA    CLA22296   3.170   1.229   7.566 -0.0878 -0.0938  0.5989
  237CLA    CLA22297   4.012   1.744   0.469  0.0133  0.1330  0.0931
  238CLA    CLA22298   2.683   5.049   8.708 -0.0070 -0.5090 -0.1382
  239CLA    CLA22299   0.067   2.214   8.185  0.0805 -0.4587  0.1555
  240CLA    CLA22300   1.868   1.274   0.778  0.0774  0.1568  0.3211
  241CLA    CLA22301   3.172   5.942   7.902  0.3765  0.4053 -0.1481
  242CLA    CLA22302   0.421   0.117   0.632 -0.0119  0.3782 -0.1171
  243CLA    CLA22303   5.429   5.280   7.795  0.3960  0.0857  0.0360
  244CLA    CLA22304   3.573   3.269   8.610 -0.3721  0.1686 -0.0918
  245CLA    CLA22305   4.202   2.297   8.383  0.3451  0.6380 -0.1839
  246CLA    CLA22306   0.962   5.440   8.070 -0.1382 -0.2019  0.1209
  247CLA    CLA22307   1.281   0.335   1.564  0.8703 -0.2177  0.1438
  248CLA    CLA22308   4.605   4.010   8.097 -0.0963  0.2095 -0.2655
  249CLA    CLA22309   5.049   5.109   0.842  0.4796  0.1799 -0.3549
  250CLA    CLA22310   4.868   3.379   1.011 -0.5871  0.4855  0.0157
  251TIP3   OH222311   5.562   6.103   7.361  0.3514 -0.0359 -0.0418
  251TIP3    H122312   5.565   6.185   7.409  2.3688  0.9099 -1.6098
  251TIP3    H222313   5.569   6.035   7.428  2.0827  1.1957  1.1066
  252TIP3   OH222314   0.811   1.283   7.208  0.0890 -0.4320 -0.2471
  252TIP3    H122315   0.784   1.318   7.293  2.3714  0.2513  0.2817
  252TIP3    H222316   0.752   1.210   7.192 -0.7444 -0.2506  1.6762
  253TIP3   OH222317   1.095   5.838   8.019  0.2847 -0.2901 -0.4058
  253TIP3    H122318   1.102   5.907   8.085  1.5597 -0.1878 -0.6208
  253TIP3    H222319   1.007   5.848   7.983 -0.1410  0.1591  0.7114
  254TIP3   OH222320   3.149   3.990   1.547 -0.5241  0.2030 -0.1844
  254TIP3    H122321   3.168   3.902   1.514 -0.8021  0.1864 -0.2987
  254TIP3    H222322   3.054   3.993   1.554 -0.4203 -0.4987  2.5917
  255TIP3   OH222323   0.631   5.370   0.254 -0.2789 -0.8461  0.2287
  255TIP3    H122324   0.657   5.336   0.168  1.1233  0.6147  0.0275
  255TIP3    H222325   0.541   5.401   0.242  0.0210 -0.3481 -0.8231
  256TIP3   OH222326   2.117   5.553   7.953  0.1824  0.2915 -0.1397
  256TIP3    H122327   2.057   5.567   7.881 -0.4893  0.7065  0.4874
  256TIP3    H222328   2.078   5.600   8.027  0.2745 -1.0125  0.7903
  257TIP3   OH222329   3.988   5.827   7.569 -0.0283 -0.5104 -0.6058
  257TIP3    H122330   3.944   5.845   7.486  0.2049 -1.4377 -0.9446
  257TIP3    H222331   4.078   5.859   7.557  0.0275 -0.7195 -0.7343
  258TIP3   OH222332   4.624   4.440   8.692 -0.0161 -0.1224 -0.2099
  258TIP3    H122333   4.547   4.421   8.639 -0.5973  0.8723  0.2432
  258TIP3    H222334   4.616   4.381   8.767 -2.2491  2.2732  1.6184
  259TIP3   OH222335   0.704   4.806   7.526 -0.1375 -0.2776 -0.4007
  259TIP3    H122336   0.620   4.787   7.567 -1.4567  2.3650 -1.6295
  259TIP3    H222337   0.728   4.892   7.560  0.6372  0.2532 -2.2035
  260TIP3   OH222338   5.721   4.907   0.565 -0.7246  0.2023  0.3534
  260TIP3    H122339   5.803   4.863   0.543 -1.2191 -0.7674  0.3993
  260TIP3    H222340   5.745   4.999   0.574  0.5440 -0.1920  1.3028
  261TIP3   OH222341   1.353   3.480   8.236  0.1270  0.8924  0.0653
  261TIP3    H122342   1.407   3.554   8.208  0.5862  0.5880  0.1384
  261TIP3    H222343   1.415   3.409   8.249 -0.2197  0.7073  0.7392
  262TIP3   OH222344   1.032   0.937   0.999 -0.1290  0.3445  0.0321
  262TIP3    H122345   1.019   0.860   1.054 -1.4252  1.2948  1.0942
  262TIP3    H222346   1.038   0.902   0.910  3.6582 -1.4086  0.7669
  263TIP3   OH222347   5.440   6.085   0.612 -0.0882 -0.3688 -0.2322
  263TIP3    H122348   5.386   6.109   0.537  0.2740 -0.4993 -0.5375
  263TIP3    H222349   5.378   6.080   0.685 -0.2379  1.1027 -0.2278
  264TIP3   OH222350   0.905   0.620   7.511 -0.1115 -0.3268 -0.1453
  264TIP3    H122351   0.949   0.606   7.427  2.4607  1.0142  0.8708
  264TIP3    H222352   0.858   0.702   7.500 -2.6294 -1.7966 -1.2585
  265TIP3   OH222353   0.044   5.616   1.207 -0.0861  0.2716 -0.7125
  265TIP3    H122354  -0.041   5.601   1.247  0.7555  0.7157  1.3653
  265TIP3    H222355   0.032   5.697   1.157 -0.6487  0.8867  0.3694
  266TIP3   OH222356   2.274   1.957   8.730  0.5164 -0.6813 -0.6184
  266TIP3    H122357   2.278   1.876   8.680  2.6656  0.5979 -2.7713
  266TIP3    H222358   2.366   1.983   8.740 -0.0466  0.7980  1.2320
  267TIP3   OH222359   3.928   0.664   1.922 -0.9117  0.2619  0.7293
  267TIP3    H122360   3.999   0.636   1.865 -0.7565 -1.3805  1.6577
  267TIP3    H222361   3.952   0.630   2.008 -2.7949 -0.3453  1.0642
  268TIP3   OH222362   2.985   3.087   7.174 -0.2147  0.2117 -0.1514
  268TIP3    H122363   2.928   3.017   7.204  0.3979 -0.2623 -0.0750
  268TIP3    H222364   3.035   3.049   7.102 -0.3071  0.7611 -0.5210
  269TIP3   OH222365   4.610   6.362   6.845  0.8338  0.1387  0.1863
  269TIP3    H122366   4.628   6.414   6.923  0.3526 -0.1926  0.5240
  269TIP3    H222367   4.684   6.301   6.839 -0.3133 -1.5530  1.8495
  270TIP3   OH222368   0.210   4.135   1.032 -0.1456  0.1260 -0.0628
  270TIP3    H122369   0.188   4.156   0.941 -2.2320 -3.5869 -0.6221
  270TIP3    H222370   0.304   4.116   1.031 -0.1747 -0.0237 -1.4848
  271TIP3   OH222371   6.106   4.833   0.968 -0.0191 -0.8770  0.3048
  271TIP3    H122372   6.096   4.817   0.874 -0.6217 -0.8368  0.3565
  271TIP3    H222373   6.021   4.869   0.995  0.5973  0.4345  0.5921
  272TIP3   OH222374   3.842   3.340   7.300  0.4786  0.1298  0.4846
  272TIP3    H122375   3.906   3.339   7.371  2.8285  1.5854 -1.4352
  272TIP3    H222376   3.884   3.292   7.229 -1.6005 -0.9037 -0.1314
  273TIP3   OH222377   2.056   1.687   6.954 -0.2404  0.1360  0.5368
  273TIP3    H122378   2.058   1.592   6.941  0.3159 -0.0028  1.5275
  273TIP3    H222379   2.141   1.707   6.994 -0.7608  0.8995  1.2769
  274TIP3   OH222380   2.187   6.644   2.733 -0.2676  0.0742 -0.2092
  274TIP3    H122381   2.243   6.692   2.672 -0.5207  0.7260  0.0640
  274TIP3    H222382   2.105   6.632   2.685 -0.2994  0.1558 -0.1748
  275TIP3   OH222383   5.448   3.453   7.858  0.0144  0.0079  0.1406
  275TIP3    H122384   5.526   3.441   7.913  0.5398 -0.8528 -0.7516
  275TIP3    H222385   5.378   3.407   7.904  0.0664  0.6167  0.8502
  276TIP3   OH222386   0.789   3.412   8.177 -0.1144  0.0263  0.1364
  276TIP3    H122387   0.809   3.366   8.096  1.2310  1.5790 -0.4863
  276TIP3    H222388   0.874   3.448   8.205 -0.6170 -0.1638  2.0366
  277TIP3   OH222389   2.436   0.459   0.578  0.0491 -0.0777  0.4670
  277TIP3    H122390   2.508   0.439   0.518  0.4349  1.1269  0.4962
  277TIP3    H222391   2.379   0.382   0.574  0.9413 -0.7302 -0.1425
  278TIP3   OH222392   6.407   6.728   8.862 -0.0605 -0.7841  0.3337
  278TIP3    H122393   6.350   6.776   8.802 -0.3407 -1.2355  0.2301
  278TIP3    H222394   6.459   6.671   8.805  1.1551  0.2910  0.3523
  279TIP3   OH222395   0.895   3.687   7.434  0.2930  0.8964 -1.0668
  279TIP3    H122396   0.855   3.601   7.449  0.1284  1.3082  1.3661
  279TIP3    H222397   0.987   3.667   7.414  0.2525  0.1192 -0.5509
  280TIP3   OH222398   0.970   2.616   0.956 -0.0821  0.0064  0.0627
  280TIP3    H122399   0.930   2.533   0.982  0.2861 -0.9807 -2.3029
  280TIP3    H222400   1.064   2.600   0.961  0.0019  0.5662  0.3833
  281TIP3   OH222401   2.706   0.289   7.588  0.0136  0.2752 -0.1178
  281TIP3    H122402   2.764   0.357   7.623  0.3084  0.4016 -0.8328
  281TIP3    H222403   2.714   0.216   7.649  1.9214 -0.1945 -0.8633
  282TIP3   OH222404   2.077   6.693   7.834 -0.2821 -0.3868  0.6816
  282TIP3    H122405   2.057   6.691   7.740  0.4916 -0.1223  0.5056
  282TIP3    H222406   2.012   6.635   7.873 -1.1046  0.1019  0.0767
  283TIP3   OH222407   3.702   2.942   0.790 -0.1421  0.0265 -0.2673
  283TIP3    H122408   3.669   2.936   0.700  0.9587 -1.6858 -0.6020
  283TIP3    H222409   3.640   2.891   0.842  0.5413 -1.0525 -0.4822
  284TIP3   OH222410   1.025   4.615   7.684 -0.1771  0.0430  0.3416
  284TIP3    H122411   1.117   4.638   7.692  0.8418 -2.8985 -1.6088
  284TIP3    H222412   1.003   4.631   7.593 -1.2992 -0.3350  0.5184
  285TIP3   OH222413   5.737   4.589   7.208  0.1525  0.2190  0.2592
  285TIP3    H122414   5.771   4.561   7.293  1.0134 -0.4957 -0.3106
  285TIP3    H222415   5.672   4.657   7.230 -0.7524 -1.0006  1.5706
  286TIP3   OH222416   6.563   3.447   8.478 -0.2748 -0.2680 -0.0154
  286TIP3    H122417   6.515   3.367   8.500 -0.4550 -0.1452  0.0498
  286TIP3    H222418   6.514   3.484   8.405  1.0471 -1.3206 -1.4765
  287TIP3   OH222419   3.131   4.501   0.600  0.6621 -0.1456 -0.0590
  287TIP3    H122420   3.128   4.508   0.696  1.8783  0.4449 -0.0379
  287TIP3    H222421   3.195   4.432   0.583 -0.3950 -1.0627 -0.4587
  288TIP3   OH222422   5.968   1.076   7.987  0.3778 -1.0566 -0.1186
  288TIP3    H122423   6.002   1.149   8.039 -0.8480 -1.1272  0.8349
  288TIP3    H222424   5.954   1.114   7.900  0.1962 -0.2681  0.2433
  289TIP3   OH222425   1.905   3.303   0.399  0.0998  0.1608  0.5493
  289TIP3    H122426   1.920   3.216   0.361 -0.5271 -0.0820  0.8590
  289TIP3    H222427   1.855   3.350   0.332 -3.3109 -1.0966  1.9941
  290TIP3   OH222428   5.000   2.128   7.104  0.3266  0.7221 -0.6321
  290TIP3    H122429   5.074   2.076   7.072 -1.0362  0.0488 -2.8094
  290TIP3    H222430   4.995   2.203   7.045 -1.7035 -0.0806 -1.5564
  291TIP3   OH222431   3.305   6.586   1.279  0.0105 -0.2272  0.3578
  291TIP3    H122432   3.381   6.639   1.302  0.1216 -0.4833  0.5799
  291TIP3    H222433   3.340   6.513   1.228 -0.2683  0.5304 -0.9954
  292TIP3   OH222434   6.772   1.336   2.317 -0.9999 -0.5023  0.3364
  292TIP3    H122435   6.851   1.287   2.341 -0.2601  0.4745 -0.0463
  292TIP3    H222436   6.758   1.396   2.391 -1.0892 -0.3184  0.1694
  293TIP3   OH222437   5.968   1.716   2.463  0.1550 -0.0026  0.2206
  293TIP3    H122438   6.060   1.740   2.454  0.1683 -0.2767 -0.4486
  293TIP3    H222439   5.944   1.681   2.377 -0.1688 -1.3163  0.8247
  294TIP3   OH222440   3.636   1.859   8.426 -0.3192  0.2135 -0.3315
  294TIP3    H122441   3.717   1.886   8.384 -0.0616 -0.9938 -0.6371
  294TIP3    H222442   3.570   1.864   8.356  0.0163 -1.3256 -0.7957
  295TIP3   OH222443   5.510   5.185   8.688 -0.4966 -0.6084  0.5443
  295TIP3    H122444   5.440   5.119   8.686 -0.3008 -0.8242 -1.9154
  295TIP3    H222445   5.591   5.134   8.679 -0.2821 -0.1430 -0.2906
  296TIP3   OH222446   4.228   0.129   0.374  0.8751 -0.3200  0.1931
  296TIP3    H122447   4.167   0.069   0.333 -1.1732  0.9004  1.2806
  296TIP3    H222448   4.264   0.180   0.302 -0.4606 -0.1336 -0.3642
  297TIP3   OH222449   4.307   6.002   0.521 -0.2379 -0.4685  0.2256
  297TIP3    H122450   4.355   5.993   0.603 -1.9538 -0.0008  1.3460
  297TIP3    H222451   4.253   6.080   0.534 -0.7749 -0.5707 -1.2323
  298TIP3   OH222452   3.683   5.275   8.369  0.4155  0.5503 -0.0477
  298TIP3    H122453   3.629   5.261   8.448  0.6045 -0.5505 -0.1126
  298TIP3    H222454   3.619   5.289   8.299  0.1735 -1.0509 -0.1835
  299TIP3   OH222455   6.062   0.283   7.249 -0.5256  0.3689 -0.0748
  299TIP3    H122456   6.059   0.363   7.196 -0.6641  0.6133  0.2964
  299TIP3    H222457   6.100   0.217   7.191 -1.1567  0.5002 -0.6559
  300TIP3   OH222458   2.565   4.441   7.681  0.2047 -0.5808  0.5949
  300TIP3    H122459   2.512   4.384   7.624  0.0530  1.9255 -1.9824
  300TIP3    H222460   2.501   4.491   7.731  0.3013 -1.0225  1.1780
  301TIP3   OH222461   0.012   1.039   0.019  1.2483  0.4856  0.2316
  301TIP3    H122462   0.035   1.121   0.064  1.8157  0.0752  0.7090
  301TIP3    H222463  -0.015   0.980   0.090  0.1084  0.4924 -0.1843
  302TIP3   OH222464   6.308   6.254   7.702 -0.4122 -0.2871 -1.0512
  302TIP3    H122465   6.381   6.307   7.669  1.3236 -2.2252 -0.4452
  302TIP3    H222466   6.284   6.198   7.628 -0.2246 -0.7810 -0.7347
  303TIP3   OH222467   1.672   2.879   7.677  0.4255 -0.4622 -0.0543
  303TIP3    H122468   1.623   2.920   7.749 -0.7112  0.1508 -1.1446
  303TIP3    H222469   1.761   2.914   7.686 -0.6333  2.9611 -1.3610
  304TIP3   OH222470   4.531   2.097   7.275 -0.3766  0.4302  0.1074
  304TIP3    H122471   4.579   2.125   7.197  0.5580 -0.7622  0.2240
  304TIP3    H222472   4.566   2.153   7.345  0.4561 -0.0477  0.0855
  305TIP3   OH222473   0.915   0.110   7.067  0.3749 -0.4905  0.6736
  305TIP3    H122474   0.952   0.093   6.981  0.8140 -0.1878  0.7994
  305TIP3    H222475   0.930   0.204   7.082 -2.1908  0.1050 -0.0974
  306TIP3   OH222476   1.376   1.451   0.805 -0.0158  0.2638 -0.3583
  306TIP3    H122477   1.428   1.396   0.746  0.7840  0.9850 -0.3471
  306TIP3    H222478   1.386   1.540   0.770  1.4617  0.8992  1.5405
  307TIP3   OH222479   6.751   5.896   7.046 -0.0674  0.4570 -0.1938
  307TIP3    H122480   6.674   5.883   7.100  0.2882  1.4520  0.5925
  307TIP3    H222481   6.750   5.823   6.984 -1.1148 -0.0594  0.4055
  308TIP3   OH222482   4.905   6.428   1.021 -0.0416  0.3652 -0.0025
  308TIP3    H122483   4.840   6.497   1.019 -3.1485 -2.2286  1.5858
  308TIP3    H222484   4.896   6.383   0.937 -1.1321 -0.5662  0.5723
  309TIP3   OH222485   3.590   6.683   1.285  0.1326 -0.5936 -0.2544
  309TIP3    H122486   3.658   6.650   1.227  1.2383 -2.4505  1.9541
  309TIP3    H222487   3.603   6.778   1.286  1.0926 -0.6916 -1.7658
  310TIP3   OH222488   4.575   1.454   0.012 -0.4444 -0.0709 -0.1648
  310TIP3    H122489   4.651   1.406   0.047 -0.6765 -0.9027 -0.7825
  310TIP3    H222490   4.581   1.541   0.054  3.5016  1.6557 -3.5108
  311TIP3   OH222491   0.144   3.004   1.304  0.0554 -0.0779  0.2225
  311TIP3    H122492   0.210   2.955   1.256  1.2340  0.2888  1.4214
  311TIP3    H222493   0.060   2.967   1.274  0.7538 -0.3062 -1.5858
  312TIP3   OH222494   3.711   2.218   1.094  0.1007 -0.3038  0.3298
  312TIP3    H122495   3.715   2.238   1.188  1.6593 -0.3443  0.2944
  312TIP3    H222496   3.643   2.276   1.060 -2.3124 -2.0026  1.8735
  313TIP3   OH222497   2.048   6.640   7.533  0.1696  0.1685  0.3004
  313TIP3    H122498   1.999   6.654   7.452 -2.2650 -0.2978  1.6113
  313TIP3    H222499   2.047   6.545   7.546 -0.3044  0.3079  1.3620
  314TIP3   OH222500   6.409   0.965   1.161  0.7359  0.5961  0.4151
  314TIP3    H122501   6.336   0.978   1.100  1.2597  0.2374 -0.3156
  314TIP3    H222502   6.459   0.893   1.122  2.4605  1.9680 -0.0565
  315TIP3   OH222503   6.130   0.530   8.034 -0.4347  0.8307 -0.5041
  315TIP3    H122504   6.214   0.542   8.078  0.3210  0.6930 -1.8710
  315TIP3    H222505   6.112   0.436   8.042  0.9023  0.3468 -2.5302
  316TIP3   OH222506   2.047   1.688   2.081  0.2297  0.1112  0.4616
  316TIP3    H122507   2.015   1.773   2.050  0.5407 -0.0169 -0.2314
  316TIP3    H222508   2.002   1.674   2.164 -0.5178  0.5291  0.1337
  317TIP3   OH222509   4.251   1.443   0.939  0.5658 -0.1026 -0.5660
  317TIP3    H122510   4.235   1.386   0.864 -0.5993 -2.0820  1.0807
  317TIP3    H222511   4.340   1.419   0.968  1.3419  1.2385 -1.7266
  318TIP3   OH222512   3.381   1.800   0.623  0.2468  0.4752  0.4332
  318TIP3    H122513   3.460   1.805   0.571 -0.0569 -0.5882 -0.1785
  318TIP3    H222514   3.360   1.706   0.626 -0.0902  0.5636  1.9485
  319TIP3   OH222515   2.056   5.410   7.127 -0.7760 -0.1972 -0.3099
  319TIP3    H122516   2.109   5.441   7.054 -2.2009  0.1825 -1.2044
  319TIP3    H222517   2.072   5.316   7.130 -0.5638 -0.1861 -0.9714
  320TIP3   OH222518   0.498   0.405   1.211 -0.2911  0.0581  0.1609
  320TIP3    H122519   0.511   0.474   1.145  2.6529  0.7593  1.3185
  320TIP3    H222520   0.540   0.439   1.290  2.2854 -3.3930  0.5177
  321TIP3   OH222521   6.465   3.398   8.838 -0.1303 -0.2553 -0.0058
  321TIP3    H122522   6.407   3.417   8.764  0.3426 -0.7130 -0.5121
  321TIP3    H222523   6.428   3.321   8.879 -0.3677 -0.0288  0.2057
  322TIP3   OH222524   2.365   5.354   7.360  0.1958  0.4940  0.2793
  322TIP3    H122525   2.288   5.410   7.346 -0.8679 -0.6840  1.2114
  322TIP3    H222526   2.385   5.319   7.273 -0.4199  0.6845  0.0536
  323TIP3   OH222527   4.001   3.235   8.073  0.6657  0.1746  0.2409
  323TIP3    H122528   3.967   3.179   8.004 -2.8003  0.6993  1.3464
  323TIP3    H222529   4.011   3.321   8.032 -0.6118  0.2970  0.1383
  324TIP3   OH222530   2.697   4.235   8.430 -0.0217  0.7034 -0.5227
  324TIP3    H122531   2.729   4.311   8.380  1.3796 -0.6397 -1.7470
  324TIP3    H222532   2.625   4.201   8.377  1.2779 -0.5498 -1.5446
  325TIP3   OH222533   5.353   6.529   7.746 -0.0869  0.3419  0.0970
  325TIP3    H122534   5.325   6.491   7.829  1.0806  0.6244  0.6447
  325TIP3    H222535   5.394   6.612   7.770 -0.6605  0.9341 -0.8725
  326TIP3   OH222536   0.964   0.593   7.968  0.6283 -0.4866 -0.3327
  326TIP3    H122537   0.870   0.606   7.973  0.7737  0.3831  0.4162
  326TIP3    H222538   0.979   0.507   8.008  0.2997  0.0939  1.0963
  327TIP3   OH222539   2.672   2.825   0.876  0.1821  0.0967 -0.6843
  327TIP3    H122540   2.762   2.802   0.855 -0.0970 -1.4116 -0.3492
  327TIP3    H222541   2.634   2.851   0.792  0.7377  0.0547 -0.9540
  328TIP3   OH222542   1.316   5.403   0.462 -0.1618 -0.5203 -0.1784
  328TIP3    H122543   1.377   5.389   0.534 -0.7497 -0.2507  0.3759
  328TIP3    H222544   1.252   5.332   0.470  0.4605 -1.2303 -1.1846
  329TIP3   OH222545   4.479   2.171   6.626 -0.7048  0.0313  0.0998
  329TIP3    H122546   4.509   2.234   6.691  0.9614 -1.5299  0.9404
  329TIP3    H222547   4.384   2.166   6.639 -0.8050  1.9616  0.3241
  330TIP3   OH222548   3.063   6.112   1.333 -0.1067  0.0354 -0.5104
  330TIP3    H122549   2.997   6.158   1.385 -1.3668 -1.6661 -0.4941
  330TIP3    H222550   3.029   6.114   1.244 -0.8850 -1.8956 -0.3148
  331TIP3   OH222551   0.171   3.691   1.361  0.4385  0.1828 -0.3242
  331TIP3    H122552   0.134   3.737   1.286  0.5619  0.0167 -0.4891
  331TIP3    H222553   0.109   3.706   1.432 -0.1317 -0.3822 -0.6884
  332TIP3   OH222554   2.938   3.766   8.875  0.3019 -0.6925 -0.3934
  332TIP3    H122555   2.928   3.683   8.921 -0.5129 -0.2203  0.2941
  332TIP3    H222556   2.906   3.748   8.786 -1.6418 -0.6493  0.2550
  333TIP3   OH222557   3.376   6.657   7.279  0.1028  0.3799  1.0083
  333TIP3    H122558   3.326   6.713   7.219 -0.9606 -1.5601 -0.0054
  333TIP3    H222559   3.328   6.662   7.362  0.9679  2.2128  1.4677
  334TIP3   OH222560   0.523   5.277   2.135  0.1440 -0.4272  0.2190
  334TIP3    H122561   0.469   5.313   2.206  0.0869  0.1781 -0.1306
  334TIP3    H222562   0.468   5.208   2.097 -0.6177  0.5372 -0.4756
  335TIP3   OH222563   3.023   2.286   2.382 -0.5545  0.1187  0.5738
  335TIP3    H122564   3.046   2.196   2.359 -1.5213 -0.4798  1.8211
  335TIP3    H222565   3.029   2.288   2.477 -2.1227  0.9220  0.6712
  336TIP3   OH222566   5.588   1.852   1.483 -0.6072  0.3954  0.2772
  336TIP3    H122567   5.602   1.850   1.577  1.3988  0.3494  0.0340
  336TIP3    H222568   5.532   1.777   1.465 -1.5046  0.7488  1.4787
  337TIP3   OH222569   0.332   5.411   2.302 -0.1258  0.0769  0.0526
  337TIP3    H122570   0.288   5.412   2.387  0.5717  0.1970  0.4189
  337TIP3    H222571   0.360   5.502   2.289  1.6894 -0.3415  0.7253
  338TIP3   OH222572   4.299   1.168   1.298 -0.4187 -0.0506  0.0002
  338TIP3    H122573   4.307   1.113   1.220  1.3666  0.9335 -0.5835
  338TIP3    H222574   4.281   1.107   1.369 -0.8094 -1.1129 -0.9782
  339TIP3   OH222575   4.070   6.047   8.369 -0.5103 -0.2880  0.7153
  339TIP3    H122576   4.125   6.028   8.292 -0.0603 -0.0075  0.9649
  339TIP3    H222577   4.131   6.049   8.442 -0.4927  2.2363  0.6977
  340TIP3   OH222578   3.751   2.269   1.351  0.1474  0.2979 -0.1048
  340TIP3    H122579   3.718   2.187   1.389 -1.7553  1.1727  0.2581
  340TIP3    H222580   3.697   2.337   1.391  1.5421  1.7342 -0.5708
  341TIP3   OH222581   1.023   0.500   1.694  0.0943 -0.2273  0.0602
  341TIP3    H122582   1.101   0.448   1.677 -0.0116  0.2614 -2.2142
  341TIP3    H222583   0.953   0.456   1.646 -0.3517  1.0387 -0.4999
  342TIP3   OH222584   3.260   3.299   7.059 -0.1416  0.2088 -0.0925
  342TIP3    H122585   3.228   3.389   7.072  1.2492  1.0221 -1.7927
  342TIP3    H222586   3.314   3.305   6.981  2.1786 -1.5492  1.2542
  343TIP3   OH222587   0.370   2.078   1.990 -0.2711 -0.1844  0.1661
  343TIP3    H122588   0.452   2.043   1.955 -0.6390 -0.0624 -0.8281
  343TIP3    H222589   0.304   2.056   1.925 -1.2174 -1.1178  1.3996
  344TIP3   OH222590   4.721   3.640   0.373  0.4468 -0.4530 -0.0195
  344TIP3    H122591   4.647   3.623   0.314 -0.1746  0.5085  0.4690
  344TIP3    H222592   4.796   3.650   0.314  0.2044 -1.4017 -0.5234
  345TIP3   OH222593   2.729   2.500   7.126 -0.4860 -0.3000 -0.4014
  345TIP3    H122594   2.678   2.510   7.206  1.1370  1.0964  0.5426
  345TIP3    H222595   2.709   2.412   7.094  0.1167 -1.6031  2.5094
  346TIP3   OH222596   2.478   1.627   0.551 -0.0906  0.4819  0.2361
  346TIP3    H122597   2.463   1.533   0.540 -1.5217  0.6110  0.8403
  346TIP3    H222598   2.525   1.634   0.634 -0.6399  0.3338  0.5657
  347TIP3   OH222599   3.294   0.765   6.630 -0.1173 -0.9239  0.4958
  347TIP3    H122600   3.277   0.860   6.630 -1.3110 -1.1109 -0.6058
  347TIP3    H222601   3.226   0.728   6.686 -0.9824 -1.2988 -0.7457
  348TIP3   OH222602   2.952   3.391   7.696  0.3845 -0.2962  0.4681
  348TIP3    H122603   2.905   3.347   7.767 -0.9863  0.6230  0.1539
  348TIP3    H222604   3.045   3.383   7.721 -0.0483 -0.1297  2.2971
  349TIP3   OH222605   2.954   2.690   0.498  0.0888  0.0762 -0.0408
  349TIP3    H122606   2.864   2.701   0.468  0.0589  0.7133  0.2744
  349TIP3    H222607   2.968   2.595   0.499 -0.9268 -0.0845  0.9068
  350TIP3   OH222608   6.175   2.893   1.395 -0.2027  0.5373  0.3817
  350TIP3    H122609   6.186   2.971   1.341  0.8458  0.8632  1.0263
  350TIP3    H222610   6.130   2.831   1.339  1.7288  0.4886 -1.2397
  351TIP3   OH222611   1.158   5.542   1.020 -0.0606 -0.2875  0.0540
  351TIP3    H122612   1.252   5.544   1.006  0.1493  0.4927  1.4401
  351TIP3    H222613   1.131   5.455   0.991  1.4651 -1.4388  1.8851
  352TIP3   OH222614   4.000   2.056   0.534  0.2862 -0.1745 -0.4057
  352TIP3    H122615   4.008   1.967   0.499 -2.2672  0.5789 -3.3010
  352TIP3    H222616   3.924   2.052   0.592 -1.1709  0.4987 -2.2028
  353TIP3   OH222617   0.383   2.849   1.906 -0.1331  1.0440 -0.1675
  353TIP3    H122618   0.372   2.922   1.844  2.1247  1.2419 -0.4135
  353TIP3    H222619   0.412   2.890   1.987  1.4021  0.4548 -0.3789
  354TIP3   OH222620   2.949   3.271   2.466 -0.6196  0.2699  0.9807
  354TIP3    H122621   2.996   3.199   2.507  0.3452  0.5187  0.3632
  354TIP3    H222622   2.912   3.233   2.386  0.7104  0.6383  0.1409
  355TIP3   OH222623   4.440   4.382   1.400 -0.3881  0.2064  0.0309
  355TIP3    H122624   4.365   4.407   1.346 -0.1592 -2.6334 -1.8363
  355TIP3    H222625   4.516   4.404   1.346  0.0845  1.3050  1.1032
  356TIP3   OH222626   3.995   5.518   7.423  0.1343  0.5151 -0.0354
  356TIP3    H122627   3.996   5.424   7.408  1.0631  0.7584 -1.6875
  356TIP3    H222628   3.902   5.539   7.439 -0.0697 -0.6562  0.4300
  357TIP3   OH222629   1.650   0.705   8.068 -0.8496  0.1049  0.5751
  357TIP3    H122630   1.611   0.718   8.155  2.4241  1.4406  2.0275
  357TIP3    H222631   1.663   0.793   8.034 -2.2505 -0.4059 -1.4579
  358TIP3   OH222632   0.634   4.494   0.738  0.6001 -0.0666 -0.0029
  358TIP3    H122633   0.707   4.492   0.677  0.9453 -0.3639  0.4150
  358TIP3    H222634   0.673   4.514   0.823  0.6827 -3.2705  0.8483
  359TIP3   OH222635   0.075   0.322   7.852 -0.3872  0.4666 -0.2339
  359TIP3    H122636   0.040   0.405   7.822  1.3760  0.8315 -1.3812
  359TIP3    H222637   0.126   0.344   7.930 -1.2566  0.1883  0.4313
  360TIP3   OH222638   5.165   3.647   7.413  0.4511 -0.1327  0.3010
  360TIP3    H122639   5.088   3.592   7.398 -0.7147  0.6132  3.0606
  360TIP3    H222640   5.152   3.722   7.354 -1.3297  0.3083  1.1732
  361TIP3   OH222641   6.363   4.716   2.243 -0.0508  0.0500 -0.2830
  361TIP3    H122642   6.441   4.768   2.263 -0.1835 -0.0301  0.4850
  361TIP3    H222643   6.397   4.629   2.223  0.1571  0.3722 -1.3634
  362TIP3   OH222644   5.959   4.751   0.502  0.1679 -0.1382 -0.1457
  362TIP3    H122645   6.001   4.736   0.588 -1.4755  1.0122  0.9115
  362TIP3    H222646   5.892   4.683   0.497  0.2780 -0.2163 -0.5475
  363TIP3   OH222647   4.122   2.567   7.428 -0.2057  0.2436  0.3096
  363TIP3    H122648   4.173   2.627   7.373 -1.3856 -0.5204 -1.7472
  363TIP3    H222649   4.068   2.518   7.366 -0.5480 -1.7529  2.0473
  364TIP3   OH222650   1.669   6.404   2.542  0.0222  0.2074 -0.4088
  364TIP3    H122651   1.684   6.496   2.524  1.8145  0.1505  0.5510
  364TIP3    H222652   1.735   6.358   2.492 -0.4652 -0.5237 -0.4004
  365TIP3   OH222653   5.408   4.784   8.462 -0.0437 -0.1607  0.3038
  365TIP3    H122654   5.397   4.838   8.541 -1.7661 -0.4369  0.2943
  365TIP3    H222655   5.379   4.697   8.489  1.7797 -0.8848  0.0363
  366TIP3   OH222656   5.013   3.505   8.200  0.6129 -0.1387  0.2014
  366TIP3    H122657   5.088   3.550   8.162  0.5093  0.3228  0.5447
  366TIP3    H222658   5.011   3.421   8.155  2.2614 -0.8055  1.2448
  367TIP3   OH222659   1.412   3.427   6.433 -0.6447 -0.5101 -0.0168
  367TIP3    H122660   1.483   3.472   6.477  1.4343 -1.5178 -2.1146
  367TIP3    H222661   1.340   3.490   6.433  0.9015  1.3492  0.4035
  368TIP3   OH222662   5.761   4.295   7.890 -0.1514 -0.3154  0.4484
  368TIP3    H122663   5.812   4.304   7.809 -1.7582  1.6110 -0.4338
  368TIP3    H222664   5.684   4.243   7.863 -0.0833 -0.7420  1.0648
  369TIP3   OH222665   3.488   2.017   1.203  0.3643  0.4580  0.4845
  369TIP3    H122666   3.549   2.031   1.275  0.7484  2.5772 -0.1577
  369TIP3    H222667   3.542   1.981   1.133  0.3229 -0.0969  0.7340
  370TIP3   OH222668   5.820   5.454   1.850  0.5234  0.1912 -0.2997
  370TIP3    H122669   5.829   5.396   1.926 -0.3220 -0.9957 -1.0805
  370TIP3    H222670   5.808   5.541   1.888  0.3402 -0.3515  0.9328
  371TIP3   OH222671   6.066   3.141   7.596  0.0607  0.2171  0.3517
  371TIP3    H122672   6.139   3.164   7.538 -0.1643 -0.9341 -0.4110
  371TIP3    H222673   6.098   3.163   7.684  1.5497 -0.7640  0.0899
  372TIP3   OH222674   0.233   4.809   0.843 -0.4261 -0.7400  0.1824
  372TIP3    H122675   0.270   4.793   0.756 -1.9467  1.5298 -0.9821
  372TIP3    H222676   0.139   4.817   0.828 -0.7511 -0.5673  2.0882
  373TIP3   OH222677   3.264   5.184   0.460  0.0271 -0.4643 -0.3018
  373TIP3    H122678   3.354   5.170   0.488 -0.1343  0.5249  0.7779
  373TIP3    H222679   3.218   5.216   0.538 -1.0754 -0.2043 -1.0193
  374TIP3   OH222680   2.584   2.837   1.325  0.2665 -0.3663 -0.0180
  374TIP3    H122681   2.521   2.874   1.263 -1.0635 -1.1958  0.7846
  374TIP3    H222682   2.565   2.882   1.408  2.6366  1.4017 -0.3301
  375TIP3   OH222683   2.386   3.601   8.530  0.1750  0.0988 -0.2114
  375TIP3    H122684   2.292   3.610   8.519  0.3223  0.2203 -1.4306
  375TIP3    H222685   2.419   3.582   8.443  1.4155  1.2220 -0.0192
  376TIP3   OH222686   1.613   2.143   7.135 -0.8399 -0.0481 -0.1596
  376TIP3    H122687   1.699   2.123   7.171 -0.5145 -0.4711 -1.1558
  376TIP3    H222688   1.608   2.239   7.134 -0.1817 -0.0190 -0.5765
  377TIP3   OH222689   1.717   5.372   8.519  0.5187  0.2350  0.0164
  377TIP3    H122690   1.788   5.427   8.550  0.8179  0.5278 -1.1539
  377TIP3    H222691   1.645   5.432   8.500  0.7631  0.2147 -1.0318
  378TIP3   OH222692   5.364   4.845   2.123 -0.3436  0.0623 -0.4998
  378TIP3    H122693   5.389   4.881   2.038 -0.0831 -0.5570 -0.6883
  378TIP3    H222694   5.348   4.922   2.178  0.1075  0.4626 -0.9262
  379TIP3   OH222695   2.615   1.080   8.164 -0.1405  0.2739  0.0670
  379TIP3    H122696   2.559   1.139   8.215  0.4548  0.6684  0.2841
  379TIP3    H222697   2.603   1.107   8.073  0.3582  0.9439  0.1908
  380TIP3   OH222698   3.782   4.646   7.916  0.0994 -0.5342 -0.1154
  380TIP3    H122699   3.753   4.695   7.994 -0.7341  1.8219 -1.7793
  380TIP3    H222700   3.877   4.645   7.922  0.2663  2.6305 -0.6391
  381TIP3   OH222701   2.405   0.213   0.109  0.5373 -0.3005 -0.0935
  381TIP3    H122702   2.446   0.292   0.143  1.1519 -0.4439 -0.4852
  381TIP3    H222703   2.467   0.180   0.043 -0.0746 -0.6773 -0.4885
  382TIP3   OH222704   2.057   5.726   0.176 -0.3246 -0.3073  0.4504
  382TIP3    H122705   2.133   5.668   0.182  1.6535  2.1811  0.9300
  382TIP3    H222706   1.994   5.677   0.123  1.4401 -2.6113  0.3162
  383TIP3   OH222707   4.727   2.121   0.874 -0.0311  0.2433  0.2151
  383TIP3    H122708   4.781   2.128   0.795 -0.0613 -1.3184  0.0340
  383TIP3    H222709   4.683   2.206   0.880  1.2819  1.0139 -0.4673
  384TIP3   OH222710   4.893   0.843   8.189 -0.2646 -0.3795  0.8562
  384TIP3    H122711   4.810   0.830   8.145  0.1412 -1.5777  0.4196
  384TIP3    H222712   4.913   0.759   8.230  1.0412 -0.3111  0.4120
  385TIP3   OH222713   6.647   1.366   7.952  0.6023  0.0398  0.4494
  385TIP3    H122714   6.646   1.369   7.857 -0.1592 -0.1793  0.4437
  385TIP3    H222715   6.613   1.279   7.974 -3.3868  1.5094  0.9526
  386TIP3   OH222716   3.006   2.748   7.899 -0.5208  0.0722 -0.0407
  386TIP3    H122717   3.075   2.783   7.954 -0.2948 -2.9356  1.8578
  386TIP3    H222718   3.048   2.678   7.848 -1.9562 -1.5038  0.8092
  387TIP3   OH222719   6.717   5.709   0.583 -0.1423  0.5649 -0.1879
  387TIP3    H122720   6.807   5.734   0.605 -0.3438 -0.2113  1.6408
  387TIP3    H222721   6.667   5.725   0.663 -0.6472 -3.8760  0.6121
  388TIP3   OH222722   1.513   1.017   1.383 -0.0876 -0.1085  0.7002
  388TIP3    H122723   1.592   1.061   1.417 -0.6009  0.6452  0.9412
  388TIP3    H222724   1.472   1.082   1.327 -0.7995 -0.3233  0.9646
  389TIP3   OH222725   1.785   6.078   1.323 -0.0147 -0.1201 -0.2317
  389TIP3    H122726   1.871   6.065   1.363 -0.4001 -0.5594  0.4807
  389TIP3    H222727   1.769   6.172   1.329  1.1762  0.2290 -1.9916
  390TIP3   OH222728   1.134   0.777   1.676 -0.4039 -0.6936 -0.3872
  390TIP3    H122729   1.096   0.689   1.670 -0.4002 -0.6420 -1.2141
  390TIP3    H222730   1.226   0.765   1.652 -0.6707 -0.2826 -1.6675
  391TIP3   OH222731   2.114   5.470   1.845  0.0699 -0.2296  0.1394
  391TIP3    H122732   2.172   5.410   1.891 -2.0548 -2.5907 -0.0329
  391TIP3    H222733   2.095   5.539   1.910 -0.7479 -2.0506  1.9663
  392TIP3   OH222734   6.571   1.630   6.506  0.6947  0.2520 -0.1658
  392TIP3    H122735   6.662   1.618   6.479  0.6882  0.8654 -0.4995
  392TIP3    H222736   6.560   1.725   6.512  0.4407  0.1636  1.1738
  393TIP3   OH222737   5.011   1.546   8.103  0.2412  0.2530  0.3493
  393TIP3    H122738   5.097   1.588   8.108  0.8771 -1.1022  1.6011
  393TIP3    H222739   4.948   1.618   8.107  1.3098  1.1616  1.4683
  394TIP3   OH222740   0.376   5.549   0.076 -0.1081 -0.0423 -0.4481
  394TIP3    H122741   0.456   5.548   0.023  1.1564 -0.2601  1.3811
  394TIP3    H222742   0.357   5.456   0.092  0.3351  0.0374  0.6196
  395TIP3   OH222743   6.101   5.394   7.895 -0.3090  0.0645  0.4745
  395TIP3    H122744   6.170   5.330   7.913 -0.4244 -0.1392  0.1997
  395TIP3    H222745   6.118   5.466   7.956  0.9695  0.6460 -0.5201
  396TIP3   OH222746   3.087   6.103   2.609  0.6187 -0.0562 -0.3313
  396TIP3    H122747   3.137   6.022   2.616  0.7019 -0.0429 -0.7604
  396TIP3    H222748   3.130   6.153   2.539 -0.9942 -0.7741 -1.9079
  397TIP3   OH222749   2.090   3.295   1.095  0.0685  0.0958  0.4599
  397TIP3    H122750   2.108   3.201   1.094 -3.5630 -0.8698 -2.9221
  397TIP3    H222751   2.127   3.328   1.013  1.7085  1.8791  1.8007
  398TIP3   OH222752   6.129   2.772   8.357  0.2417 -0.1681 -0.4674
  398TIP3    H122753   6.075   2.695   8.373 -1.7601  1.4851  1.3845
  398TIP3    H222754   6.093   2.811   8.277  0.3640 -0.4363 -0.6521
  399TIP3   OH222755   6.726   0.477   0.460  0.8234 -0.5051 -0.1359
  399TIP3    H122756   6.729   0.507   0.369  0.5371  1.3431  0.4192
  399TIP3    H222757   6.650   0.419   0.463 -2.3061  3.2131 -0.1156
  400TIP3   OH222758   4.417   2.202   1.122 -0.0106 -0.0616 -0.2507
  400TIP3    H122759   4.339   2.255   1.141  0.8424  1.1011  0.0947
  400TIP3    H222760   4.460   2.190   1.207  1.0422  0.7013 -0.6576
  401TIP3   OH222761   3.934   2.445   8.540  0.2553  0.2069 -0.5712
  401TIP3    H122762   3.968   2.388   8.609  0.6125  2.8221  1.5328
  401TIP3    H222763   3.996   2.433   8.468  2.6120  0.8114  1.2407
  402TIP3   OH222764   0.702   3.670   8.130  0.3876 -0.4728 -0.0051
  402TIP3    H122765   0.721   3.576   8.137 -1.6272 -0.8687  1.0224
  402TIP3    H222766   0.696   3.700   8.221 -1.6194  0.0131 -0.2445
  403TIP3   OH222767   3.838   4.478   6.488  0.5575 -0.5944 -0.5621
  403TIP3    H122768   3.864   4.424   6.414  0.7765  1.7757 -2.3249
  403TIP3    H222769   3.797   4.556   6.449 -1.4466 -0.2688  1.8809
  404TIP3   OH222770   1.853   5.404   1.644  0.5672  0.4097 -0.3725
  404TIP3    H122771   1.833   5.463   1.571  2.3659  0.0765 -1.2021
  404TIP3    H222772   1.841   5.316   1.608 -1.2130  0.1900  0.5943
  405TIP3   OH222773   6.693   2.807   1.524 -0.4258 -0.4712 -0.0922
  405TIP3    H122774   6.696   2.851   1.439 -2.3342  0.1971  0.1395
  405TIP3    H222775   6.602   2.780   1.534 -0.3882 -0.0010  1.9953
  406TIP3   OH222776   4.187   4.386   1.279  0.3421  0.1814 -0.0565
  406TIP3    H122777   4.120   4.357   1.217  0.9365 -0.6856 -0.3011
  406TIP3    H222778   4.145   4.376   1.365  0.4961 -1.3593 -0.1351
  407TIP3   OH222779   4.435   2.937   1.261 -0.3445 -0.2180 -0.7827
  407TIP3    H122780   4.419   2.896   1.346  0.0404 -0.1495 -0.6750
  407TIP3    H222781   4.439   3.031   1.281  0.4948 -0.2537 -0.7553
  408TIP3   OH222782   4.304   2.819   0.737  0.0375 -0.1353 -0.2426
  408TIP3    H122783   4.354   2.873   0.797  0.4420  0.0362 -0.7345
  408TIP3    H222784   4.267   2.881   0.674  0.1193 -0.3845 -0.5334
  409TIP3   OH222785   0.023   5.604   1.584  0.3924 -0.1009 -0.1485
  409TIP3    H122786  -0.068   5.630   1.602  0.9069  1.2559  0.6193
  409TIP3    H222787   0.020   5.509   1.584 -0.3614 -0.2655  3.8304
  410TIP3   OH222788   5.871   1.851   8.091 -0.7284  0.3186  0.2106
  410TIP3    H122789   5.839   1.860   8.180 -1.5725 -0.6108  0.0223
  410TIP3    H222790   5.962   1.880   8.095 -0.6814  0.0577  1.4198
  411TIP3   OH222791   5.595   5.705   7.871  0.1833  0.0356 -0.4061
  411TIP3    H122792   5.626   5.775   7.814 -1.4518  0.1803 -1.1671
  411TIP3    H222793   5.542   5.749   7.938  1.5773 -0.1945  0.8976
  412TIP3   OH222794   1.485   0.581   0.749  0.0639 -0.0678  0.0426
  412TIP3    H122795   1.502   0.628   0.668 -0.3589  0.8169  0.4501
  412TIP3    H222796   1.455   0.649   0.810 -0.7097 -0.8891  0.6047
  413TIP3   OH222797   1.785   0.406   0.476  0.3017 -0.4276 -0.1268
  413TIP3    H122798   1.752   0.495   0.475 -3.1333 -1.5614  0.0361
  413TIP3    H222799   1.857   0.407   0.539 -0.6745  1.8883  1.0595
  414TIP3   OH222800   5.354   0.408   1.804 -0.6513  0.0126 -0.1183
  414TIP3    H122801   5.340   0.480   1.865 -1.0212  0.6860 -0.9862
  414TIP3    H222802   5.447   0.412   1.783 -0.8360  0.7589 -0.8071
  415TIP3   OH222803   1.280   5.801   7.808 -0.1079 -0.1232 -0.0422
  415TIP3    H122804   1.238   5.768   7.888  2.1752 -0.2406  1.2023
  415TIP3    H222805   1.257   5.894   7.806 -1.7702 -0.5033 -0.3587
  416TIP3   OH222806   1.540   1.810   7.948  0.4640 -0.8757 -0.0760
  416TIP3    H122807   1.454   1.852   7.950  0.6530 -0.4798  2.1509
  416TIP3    H222808   1.598   1.871   7.992  1.3528 -2.1753  0.6448
  417TIP3   OH222809   5.661   3.522   6.500  0.2302 -0.3756 -0.3023
  417TIP3    H122810   5.649   3.486   6.587 -1.3035 -0.9942 -0.7433
  417TIP3    H222811   5.744   3.569   6.505  0.6825 -1.2678  1.1881
  418TIP3   OH222812   4.219   5.120   7.954 -0.3856  0.0458  0.1263
  418TIP3    H122813   4.172   5.104   7.873  0.5787 -0.8531 -0.2809
  418TIP3    H222814   4.308   5.140   7.927  0.1756 -1.1681  0.9769
  419TIP3   OH222815   2.616   5.240   1.046 -0.0421 -0.5799 -0.2434
  419TIP3    H122816   2.655   5.164   1.004  0.2764 -0.2502 -0.5492
  419TIP3    H222817   2.593   5.209   1.134  0.1463 -1.0059 -0.3398
  420TIP3   OH222818   6.770   5.424   7.905  0.1965 -0.1082 -0.1733
  420TIP3    H122819   6.735   5.335   7.901  0.3826 -0.1488 -3.4614
  420TIP3    H222820   6.851   5.421   7.854  0.5042  1.8333  0.1051
  421TIP3   OH222821   5.029   3.941   1.552  0.0196  0.0311 -0.0179
  421TIP3    H122822   5.110   3.992   1.552 -0.5923  1.0912  2.0500
  421TIP3    H222823   4.969   3.991   1.606 -2.1388 -0.6202 -1.6603
  422TIP3   OH222824   5.424   0.895   6.881  0.3136  0.3512 -0.0115
  422TIP3    H122825   5.330   0.891   6.864 -0.2154  1.3969  2.2653
  422TIP3    H222826   5.439   0.983   6.916  1.7387 -0.4570  1.5730
  423TIP3   OH222827   4.840   5.557   0.929 -0.2258 -0.2441 -0.4957
  423TIP3    H122828   4.871   5.467   0.932 -1.3140 -0.6461 -0.6305
  423TIP3    H222829   4.890   5.602   0.997 -1.6434 -1.6190  1.5890
  424TIP3   OH222830   3.930   5.122   1.570 -0.3748 -0.3680  0.1561
  424TIP3    H122831   3.870   5.122   1.495 -0.3422 -0.1638  0.1284
  424TIP3    H222832   3.929   5.032   1.601  0.0246 -0.5798 -0.4278
  425TIP3   OH222833   4.244   1.225   6.531  0.1327 -1.0523 -0.1446
  425TIP3    H122834   4.156   1.217   6.494  0.2257  0.3730 -0.7487
  425TIP3    H222835   4.230   1.254   6.621 -0.0498 -2.9312  0.4669
  426TIP3   OH222836   3.366   1.075   1.644  0.3949  0.1958 -1.2774
  426TIP3    H122837   3.358   1.072   1.549  1.2374  0.5375 -1.3681
  426TIP3    H222838   3.426   1.003   1.665  0.6385  0.4628 -1.0541
  427TIP3   OH222839   0.201   1.031   7.847 -0.2389 -0.2917 -0.9170
  427TIP3    H122840   0.193   1.055   7.755 -0.1802 -0.1976 -0.8969
  427TIP3    H222841   0.154   1.100   7.894  0.4445  0.1148 -0.8159
  428TIP3   OH222842   4.078   2.680   2.385 -0.0169  0.1080 -0.1589
  428TIP3    H122843   4.076   2.584   2.390 -0.7253  0.1862  1.7341
  428TIP3    H222844   4.165   2.700   2.351  0.3361 -1.1877 -0.0909
  429TIP3   OH222845   3.881   5.317   0.813 -0.7507  0.1562 -0.2453
  429TIP3    H122846   3.936   5.299   0.737 -1.7279  0.6822 -1.0987
  429TIP3    H222847   3.912   5.257   0.881 -0.1481 -0.6170 -1.1977
  430TIP3   OH222848   1.711   0.484   1.144  0.7242 -0.3700  0.0104
  430TIP3    H122849   1.625   0.446   1.161  0.2711  0.3610 -0.6270
  430TIP3    H222850   1.706   0.519   1.056  0.7771  2.0809  0.9005
  431TIP3   OH222851   2.811   6.605   0.852 -0.9041 -0.4012 -0.6745
  431TIP3    H122852   2.870   6.613   0.927 -0.2683 -1.9741 -0.9682
  431TIP3    H222853   2.790   6.695   0.829  1.4219  0.2259 -0.5731
  432TIP3   OH222854   4.019   5.284   7.287 -0.2486  0.1540 -0.2980
  432TIP3    H122855   4.093   5.329   7.246 -0.7392  1.6965  0.4203
  432TIP3    H222856   3.951   5.284   7.219  0.1060 -0.4820 -0.6619
  433TIP3   OH222857   2.890   6.245   1.812  0.4630  0.6401  0.1656
  433TIP3    H122858   2.887   6.211   1.901 -0.3114 -0.1508 -0.1446
  433TIP3    H222859   2.975   6.217   1.778 -0.6993 -2.4470 -0.5916
  434TIP3   OH222860   2.326   4.766   8.072 -0.3785 -0.0873  0.7268
  434TIP3    H122861   2.414   4.736   8.093 -0.5914 -1.4800 -0.2669
  434TIP3    H222862   2.340   4.833   8.004 -0.0341  0.6396  1.4888
  435TIP3   OH222863   6.033   1.882   1.586 -0.3395 -0.0092  0.4121
  435TIP3    H122864   5.971   1.925   1.645  0.2395  0.4375  0.6941
  435TIP3    H222865   6.084   1.953   1.548 -0.3355 -0.3371 -0.2141
  436TIP3   OH222866   2.546   0.292   1.162 -0.5763 -0.1200 -0.6947
  436TIP3    H122867   2.508   0.344   1.233  0.1444  0.4643 -0.7319
  436TIP3    H222868   2.635   0.324   1.153 -0.2085 -1.1623 -0.9243
  437TIP3   OH222869   5.857   4.630   0.989  0.1604  0.9327 -0.0657
  437TIP3    H122870   5.849   4.686   0.912 -0.4442 -0.5467 -1.1148
  437TIP3    H222871   5.829   4.686   1.062 -0.0181  2.1135 -1.0104
  438TIP3   OH222872   0.818   3.960   0.961 -0.0114 -0.0078  0.3262
  438TIP3    H122873   0.836   3.987   1.052 -0.4995 -0.1497  0.4648
  438TIP3    H222874   0.733   3.917   0.965  0.2593 -0.5936 -0.0935
  439TIP3   OH222875   0.652   0.812   6.942  0.3196  0.6118 -0.1407
  439TIP3    H122876   0.557   0.822   6.941  0.1758  0.8952  3.4001
  439TIP3    H222877   0.683   0.866   6.870 -2.1548  0.5227 -1.3842
  440TIP3   OH222878   0.875   0.338   7.579 -0.5626  0.0724 -0.1247
  440TIP3    H122879   0.803   0.380   7.532 -2.1629 -1.5532  0.7058
  440TIP3    H222880   0.942   0.405   7.587 -2.2246  1.8587 -0.4445
  441TIP3   OH222881   1.905   3.764   0.854 -0.2987 -0.2192 -0.0597
  441TIP3    H122882   1.839   3.811   0.802 -1.6804 -0.7790  1.1051
  441TIP3    H222883   1.916   3.819   0.932 -0.9735 -1.1535  0.7182
  442TIP3   OH222884   3.448   3.911   6.818 -0.0324 -0.3741 -0.1784
  442TIP3    H122885   3.410   3.982   6.766 -0.7525 -0.0895  0.7120
  442TIP3    H222886   3.531   3.892   6.775 -0.1037  0.6088 -0.7855
  443TIP3   OH222887   4.445   4.206   8.255 -0.1937 -0.1775 -0.5273
  443TIP3    H122888   4.497   4.165   8.185  0.7875  1.4373 -0.8147
  443TIP3    H222889   4.509   4.227   8.323 -0.1433  2.8476 -1.3484
  444TIP3   OH222890   0.497   2.318   8.260 -0.1242  0.3747 -0.1750
  444TIP3    H122891   0.537   2.232   8.274 -1.9424 -0.4902  0.0043
  444TIP3    H222892   0.438   2.305   8.187 -2.1266  0.8469  1.2864
  445TIP3   OH222893   4.062   0.183   1.772  0.3520  0.0929  0.0904
  445TIP3    H122894   4.123   0.120   1.810 -0.8223 -0.6384  0.8229
  445TIP3    H222895   4.088   0.189   1.680  0.3666 -1.6415 -0.0602
  446TIP3   OH222896   1.150   0.640   7.768  0.1027 -0.4193 -0.4393
  446TIP3    H122897   1.085   0.614   7.833  1.0468  0.2918  0.8339
  446TIP3    H222898   1.132   0.732   7.751 -0.6234 -0.7821 -1.8141
  447TIP3   OH222899   3.375   3.166   1.507  0.4060  0.0500  0.4043
  447TIP3    H122900   3.470   3.159   1.509  0.4813  0.2193 -1.2259
  447TIP3    H222901   3.356   3.218   1.429 -1.0218  0.2187  0.8276
  448TIP3   OH222902   4.368   4.114   1.333  0.1861 -0.0809 -0.1926
  448TIP3    H122903   4.354   4.202   1.366 -2.6248 -0.6884  0.5026
  448TIP3    H222904   4.344   4.057   1.406  1.2923 -1.4490 -0.8457
  449TIP3   OH222905   3.337   6.426   0.656  0.1463  0.5547  0.0492
  449TIP3    H122906   3.310   6.455   0.743 -0.1058 -1.9108  0.8716
  449TIP3    H222907   3.404   6.360   0.673  0.8756  0.7968 -1.6886
  450TIP3   OH222908   5.066   4.593   6.595 -0.3212  0.9256  0.0056
  450TIP3    H122909   5.015   4.674   6.593 -2.6697 -0.2394  3.2678
  450TIP3    H222910   5.114   4.596   6.677 -2.1060 -1.7282  1.3082
  451TIP3   OH222911   5.066   1.078   1.801  0.7514 -0.0276 -0.2480
  451TIP3    H122912   5.039   0.999   1.755  3.0427 -0.8808 -0.2858
  451TIP3    H222913   5.030   1.150   1.748 -1.6420 -0.9828 -0.0282
  452TIP3   OH222914   4.265   5.104   1.634 -0.4536  0.8951 -0.7114
  452TIP3    H122915   4.327   5.136   1.568 -0.1541  1.1181 -0.3240
  452TIP3    H222916   4.181   5.103   1.588 -0.2878  1.2704 -1.0340
  453TIP3   OH222917   2.192   3.373   8.196 -0.4508 -0.3941  0.4149
  453TIP3    H122918   2.252   3.321   8.250 -0.8517 -0.4744  0.7844
  453TIP3    H222919   2.107   3.330   8.206 -0.5044 -0.5061 -0.4056
  454TIP3   OH222920   4.643   0.807   8.059  0.2838  1.0284 -0.9296
  454TIP3    H122921   4.598   0.794   7.975 -0.5897  3.0369 -0.8425
  454TIP3    H222922   4.586   0.764   8.123  0.8198 -0.2874 -1.3186
  455TIP3   OH222923   0.187   3.408   7.998  0.6489 -0.4371 -0.0720
  455TIP3    H122924   0.092   3.416   8.004  0.8128  1.1186  0.9941
  455TIP3    H222925   0.211   3.347   8.068  0.4857 -0.3956  0.0200
  456TIP3   OH222926   2.132   4.995   1.503  0.1942 -0.4358 -0.0081
  456TIP3    H122927   2.104   4.904   1.507  0.7113 -0.7674 -2.3068
  456TIP3    H222928   2.227   4.991   1.510  0.1428  0.0891  1.2748
  457TIP3   OH222929   1.527   4.441   8.429 -0.5788  0.5244  0.4857
  457TIP3    H122930   1.538   4.411   8.339  0.8358 -1.4845  1.2524
  457TIP3    H222931   1.458   4.385   8.465  0.6804 -0.5320  1.3565
  458TIP3   OH222932   1.048   4.789   0.863 -0.7405 -0.2210 -0.2307
  458TIP3    H122933   1.006   4.772   0.947  1.4384  0.0305  0.9951
  458TIP3    H222934   1.061   4.702   0.824  1.8541 -0.7899  1.6400
  459TIP3   OH222935   6.314   0.352   0.404  0.4964 -0.4371 -0.9662
  459TIP3    H122936   6.237   0.343   0.460  0.0662  1.3723 -1.2332
  459TIP3    H222937   6.304   0.283   0.338 -0.7363 -0.3970 -0.8311
  460TIP3   OH222938   5.143   6.582   7.565  0.5743 -0.5244 -0.2017
  460TIP3    H122939   5.126   6.519   7.495 -1.3222  1.6021 -1.8136
  460TIP3    H222940   5.202   6.536   7.625  0.0945 -3.4299 -1.7582
  461TIP3   OH222941   2.987   5.844   7.643  0.5233 -0.3344  0.0735
  461TIP3    H122942   3.048   5.899   7.692  0.8258 -0.5860 -0.0131
  461TIP3    H222943   2.949   5.786   7.710 -0.6369  0.7155  0.3513
  462TIP3   OH222944   2.688   3.480   0.102  0.1696  0.0858 -0.0569
  462TIP3    H122945   2.784   3.476   0.099  0.1900  0.9451 -1.1423
  462TIP3    H222946   2.666   3.563   0.060 -1.1395 -1.2443 -2.2157
  463TIP3   OH222947   4.161   4.841   8.089  0.8033  0.0735 -0.2924
  463TIP3    H122948   4.144   4.936   8.091  1.7110  0.2279  1.4467
  463TIP3    H222949   4.256   4.834   8.074  0.7545 -0.5682 -0.3296
  464TIP3   OH222950   0.899   0.589   1.357 -0.2048 -0.2695  0.4589
  464TIP3    H122951   0.817   0.638   1.350 -0.7556 -1.2867 -0.6444
  464TIP3    H222952   0.879   0.515   1.414 -0.2961 -0.9317 -0.4015
  465TIP3   OH222953   5.621   0.154   7.156  0.9979  0.4280  0.4255
  465TIP3    H122954   5.680   0.144   7.081 -1.8361 -2.2490 -1.6971
  465TIP3    H222955   5.566   0.076   7.154 -0.5808  1.2232  4.1615
  466TIP3   OH222956   4.666   6.241   1.622 -0.1330 -0.6378  0.0726
  466TIP3    H122957   4.717   6.234   1.703 -0.6487 -0.5200  0.4131
  466TIP3    H222958   4.708   6.312   1.574 -0.6205  0.1808  0.8272
  467TIP3   OH222959   1.055   1.972   7.006 -0.1118 -0.2519 -0.2069
  467TIP3    H122960   1.040   2.060   7.041 -0.9256 -0.7971  0.8837
  467TIP3    H222961   1.062   1.917   7.084  0.8761 -1.0892 -0.8721
  468TIP3   OH222962   5.742   0.064   7.758  0.0971  0.4626  0.4517
  468TIP3    H122963   5.689   0.113   7.696 -0.9132 -1.4198 -0.2464
  468TIP3    H222964   5.771  -0.013   7.709 -1.2720 -1.4371  2.4346
  469TIP3   OH222965   3.380   1.739   8.683  0.3121  0.6192 -0.2116
  469TIP3    H122966   3.396   1.832   8.666 -0.2421  1.1669  1.9353
  469TIP3    H222967   3.457   1.710   8.731  0.8071 -0.2534 -1.4857
  470TIP3   OH222968   2.452   4.189   8.208  0.2611 -0.0984  0.0204
  470TIP3    H122969   2.376   4.192   8.150  0.5232  3.6261 -0.4155
  470TIP3    H222970   2.465   4.096   8.227 -3.3414 -1.0048 -1.1981
  471TIP3   OH222971   2.830   4.475   1.074  0.1371  0.1452  0.0224
  471TIP3    H122972   2.748   4.437   1.105  0.0302  0.4108  0.0680
  471TIP3    H222973   2.816   4.570   1.080  0.7547  0.1953  0.8506
  472TIP3   OH222974   1.232   3.090   7.294 -0.8128 -0.7109 -0.1042
  472TIP3    H122975   1.211   3.149   7.222 -1.9844 -1.0038 -0.0167
  472TIP3    H222976   1.147   3.059   7.326 -0.2527 -2.0574  0.1620
  473TIP3   OH222977   4.693   6.734   7.693 -0.5284 -0.2836 -0.5570
  473TIP3    H122978   4.722   6.661   7.747 -0.8373  0.4775  0.6853
  473TIP3    H222979   4.613   6.766   7.736 -1.6638 -0.5850 -2.3246
  474TIP3   OH222980   2.479   5.967   8.769 -0.0133  0.1697 -0.2528
  474TIP3    H122981   2.481   5.872   8.767  0.5608  0.1283  1.2493
  474TIP3    H222982   2.386   5.989   8.760 -0.0757 -0.4832 -1.3547
  475TIP3   OH222983   2.568   0.940   6.998 -0.3291  0.1054  0.4126
  475TIP3    H122984   2.650   0.989   6.989  0.2162 -0.8531 -0.0780
  475TIP3    H222985   2.513   0.973   6.927  0.6769 -1.1590 -1.0397
  476TIP3   OH222986   5.075   4.118   7.469 -0.4335 -0.1933  0.3776
  476TIP3    H122987   5.169   4.097   7.462 -0.6286 -1.3073  0.9580
  476TIP3    H222988   5.074   4.213   7.479  0.6481 -0.1754  0.5320
  477TIP3   OH222989   5.157   4.324   0.505  0.1785  0.2384  0.3278
  477TIP3    H122990   5.097   4.344   0.434 -0.3990  2.6353  1.3889
  477TIP3    H222991   5.241   4.361   0.478 -0.3818  2.4701  1.3972
  478TIP3   OH222992   5.245   5.246   7.533 -0.0036  0.5007  0.0461
  478TIP3    H122993   5.297   5.278   7.459 -0.8426  2.3708  0.2109
  478TIP3    H222994   5.309   5.232   7.602  0.6827 -0.4429 -0.7453
  479TIP3   OH222995   2.885   3.996   1.554 -0.1002 -0.2461 -0.4298
  479TIP3    H122996   2.856   4.074   1.507 -0.4002 -0.0814  0.0219
  479TIP3    H222997   2.833   3.995   1.634  1.2392  0.1300  0.4698
  480TIP3   OH222998   1.573   2.294   8.447 -0.1577  0.3280  1.0360
  480TIP3    H122999   1.593   2.276   8.539 -1.0144 -0.8572  1.0133
  480TIP3    H223000   1.605   2.383   8.432  2.1907 -0.3160  1.8230
  481TIP3   OH223001   3.376   1.606   6.680 -0.8530 -0.1656  0.0916
  481TIP3    H123002   3.410   1.597   6.768 -1.0917 -2.0814  0.0343
  481TIP3    H223003   3.342   1.519   6.658 -2.6954  0.7817 -1.1116
  482TIP3   OH223004   1.223   5.849   0.286 -0.4292 -0.2775 -0.5747
  482TIP3    H123005   1.269   5.770   0.315  1.2031  1.3277  1.5511
  482TIP3    H223006   1.184   5.885   0.366 -2.8051  0.1174 -1.8153
  483TIP3   OH223007   3.091   2.523   1.826 -0.2216  0.1837  0.0361
  483TIP3    H123008   3.095   2.598   1.885  1.1387 -0.4857  0.8309
  483TIP3    H223009   3.147   2.458   1.866 -0.4840 -0.8566 -1.2310
  484TIP3   OH223010   4.760   5.595   0.678  0.3583 -0.2137  0.2228
  484TIP3    H123011   4.721   5.680   0.659 -1.4682 -0.9815  0.3236
  484TIP3    H223012   4.796   5.605   0.766  4.2680  1.7613 -1.3177
  485TIP3   OH223013   2.623   1.798   8.459  0.3589  0.3036 -0.3520
  485TIP3    H123014   2.719   1.804   8.457  0.3603  0.1811 -0.9142
  485TIP3    H223015   2.596   1.828   8.373 -0.0894 -0.0188 -0.3265
  486TIP3   OH223016   1.624   2.347   8.055  0.0751 -0.0650  0.0226
  486TIP3    H123017   1.686   2.394   8.110 -1.2446 -0.2537  1.7600
  486TIP3    H223018   1.636   2.385   7.968  1.2589  1.2558  0.7242
  487TIP3   OH223019   5.317   5.735   0.646 -0.0067 -0.5261 -0.1435
  487TIP3    H123020   5.252   5.714   0.579 -1.5189  1.2309  0.6656
  487TIP3    H223021   5.275   5.709   0.729  0.5707  0.1046  0.3607
  488TIP3   OH223022   0.442   2.213   7.466  1.0232 -0.3471  0.4239
  488TIP3    H123023   0.376   2.144   7.475  1.5932 -0.7871  1.5174
  488TIP3    H223024   0.437   2.239   7.374 -0.9848 -0.0258  0.5670
  489TIP3   OH223025   3.663   3.850   8.545  0.0235 -0.2631 -0.0374
  489TIP3    H123026   3.632   3.910   8.614  1.5424 -0.7329  1.1034
  489TIP3    H223027   3.612   3.770   8.558  1.1367 -0.7932  1.3968
  490TIP3   OH223028   1.536   3.709   8.646  0.0491 -0.2504  0.4551
  490TIP3    H123029   1.445   3.684   8.628  0.6755 -2.3071 -0.1566
  490TIP3    H223030   1.553   3.780   8.585 -0.6177 -1.0857 -0.7545
  491TIP3   OH223031   3.327   6.017   0.085 -0.2453 -0.3484  0.2360
  491TIP3    H123032   3.258   5.978   0.032  0.0611 -1.0944  0.3693
  491TIP3    H223033   3.349   5.949   0.149  0.4896 -0.0592  0.3001
  492TIP3   OH223034   4.999   0.789   1.433 -0.2628  0.3954 -0.1136
  492TIP3    H123035   5.083   0.824   1.460 -0.6646  0.3758  1.2484
  492TIP3    H223036   4.960   0.857   1.379 -0.1465  1.1856  0.7799
  493TIP3   OH223037   1.899   2.512   7.708  0.0425  0.1125  0.2361
  493TIP3    H123038   1.877   2.423   7.736 -0.2591  0.1066 -0.0014
  493TIP3    H223039   1.933   2.501   7.619  0.8700  0.1424  0.5426
  494TIP3   OH223040   5.751   2.580   1.334 -0.4408 -0.8557  0.3599
  494TIP3    H123041   5.758   2.488   1.306 -0.7862 -0.6098 -0.5940
  494TIP3    H223042   5.835   2.599   1.374  1.0545 -0.6027 -2.5829
  495TIP3   OH223043   3.813   1.339   8.330 -0.2940 -0.6679 -0.7727
  495TIP3    H123044   3.892   1.339   8.384 -0.7939  0.3563 -0.0112
  495TIP3    H223045   3.780   1.249   8.336 -0.6405 -0.4578  1.0968
  496TIP3   OH223046   3.688   3.106   7.232 -0.0321  0.0009  0.2261
  496TIP3    H123047   3.756   3.171   7.251 -2.0427  2.0954  0.6739
  496TIP3    H223048   3.728   3.048   7.167  2.2510  0.9703  0.6676
  497TIP3   OH223049   2.330   6.766   0.339 -0.4012  0.0254  0.4111
  497TIP3    H123050   2.238   6.784   0.361 -0.6462  0.1477 -0.6618
  497TIP3    H223051   2.342   6.806   0.253  0.4899 -0.5414  0.2626
  498TIP3   OH223052   2.250   2.063   0.563 -0.1707 -0.3208 -0.2671
  498TIP3    H123053   2.192   2.056   0.487 -0.2125  0.9497 -0.3769
  498TIP3    H223054   2.198   2.030   0.636  0.0845 -2.1555 -0.8562
  499TIP3   OH223055   0.713   3.665   7.171 -0.6964 -0.3327 -0.1701
  499TIP3    H123056   0.723   3.748   7.125 -1.4740 -0.9205 -1.4294
  499TIP3    H223057   0.738   3.685   7.262 -1.2869  1.3659 -0.3573
  500TIP3   OH223058   6.660   6.119   8.494 -0.4116  0.4695 -0.4865
  500TIP3    H123059   6.699   6.035   8.517 -0.9931  0.3503  0.0924
  500TIP3    H223060   6.629   6.108   8.404  1.1365  0.6676 -1.0873
  501TIP3   OH223061   2.547   5.551   1.745  0.4767  0.5076  0.1401
  501TIP3    H123062   2.611   5.620   1.760 -0.2576  1.0044  1.1572
  501TIP3    H223063   2.554   5.494   1.821  0.3906  0.0186 -0.2137
  502TIP3   OH223064   2.714   4.464   8.251  0.3133  0.1286  0.2109
  502TIP3    H123065   2.806   4.441   8.265  0.8143  1.8148 -0.1566
  502TIP3    H223066   2.695   4.529   8.319 -1.4271 -2.0767  2.0210
  503TIP3   OH223067   6.381   5.718   1.250  0.1024  0.0330 -0.1137
  503TIP3    H123068   6.404   5.763   1.168  0.6544 -0.5313 -0.2788
  503TIP3    H223069   6.463   5.679   1.279 -0.0421  0.4257  0.8448
  504TIP3   OH223070   2.017   6.569   6.993 -0.1351 -0.1403  0.2030
  504TIP3    H123071   1.971   6.599   7.071  0.0832  2.3806 -0.5803
  504TIP3    H223072   1.950   6.566   6.925 -0.0200 -0.8649  0.1123
  505TIP3   OH223073   0.021   2.179   1.298  0.4645  1.0597  0.1027
  505TIP3    H123074  -0.010   2.089   1.306 -0.0353  1.1151 -1.0207
  505TIP3    H223075   0.080   2.178   1.223  1.5894  1.3943  0.9456
  506TIP3   OH223076   1.096   3.196   1.571 -0.2221  0.5612  0.2216
  506TIP3    H123077   1.124   3.191   1.662  0.5069  1.5910  0.0598
  506TIP3    H223078   1.174   3.223   1.522  0.2533 -2.8140 -1.1723
  507TIP3   OH223079   4.851   1.800   8.077  0.0319  0.7732  0.4728
  507TIP3    H123080   4.849   1.882   8.126 -0.7374  1.1653 -0.2052
  507TIP3    H223081   4.823   1.824   7.989  1.0542  0.0142 -0.0788
  508TIP3   OH223082   2.251   3.437   8.865 -0.1729  0.0286 -0.5387
  508TIP3    H123083   2.201   3.517   8.884 -1.5173 -1.2133  1.4895
  508TIP3    H223084   2.192   3.384   8.812  0.0007 -0.3891 -0.3135
  509TIP3   OH223085   1.622   3.844   7.972 -0.1715 -0.7751 -0.0058
  509TIP3    H123086   1.697   3.792   7.943 -0.9461 -2.4867  0.8973
  509TIP3    H223087   1.580   3.872   7.891  0.2247 -1.6375 -0.5286
  510TIP3   OH223088   6.384   4.008   7.439  0.2514 -0.2837  0.5855
  510TIP3    H123089   6.343   4.087   7.405  2.8336  0.1596 -1.8852
  510TIP3    H223090   6.317   3.968   7.494 -2.2490  1.9694 -0.5914
  511TIP3   OH223091   6.573   3.182   6.474 -0.5106  0.4895  0.3991
  511TIP3    H123092   6.575   3.090   6.449  0.1891  0.3558  0.9246
  511TIP3    H223093   6.483   3.197   6.503 -0.3049 -0.3754  1.5442
  512TIP3   OH223094   4.131   2.831   1.689 -0.0591  0.4242  0.0347
  512TIP3    H123095   4.177   2.825   1.605  1.9023  1.7992  0.9452
  512TIP3    H223096   4.130   2.741   1.722  0.6586  0.1351 -0.6971
  513TIP3   OH223097   5.750   4.872   7.916  0.2085  0.5772 -0.2506
  513TIP3    H123098   5.787   4.954   7.949 -1.1744  1.0636  0.1781
  513TIP3    H223099   5.744   4.815   7.993  0.9707  0.1308 -0.5083
  514TIP3   OH223100   2.512   1.898   0.667  0.3106 -0.8671 -0.2954
  514TIP3    H123101   2.432   1.944   0.640  1.1701  1.1057  0.2879
  514TIP3    H223102   2.561   1.887   0.585 -0.2538 -1.4734 -0.5574
  515TIP3   OH223103   6.586   5.526   1.290 -0.6258 -0.7834  0.7432
  515TIP3    H123104   6.600   5.496   1.380 -2.9714 -0.0432  1.4090
  515TIP3    H223105   6.561   5.447   1.242 -1.1946 -0.8755  1.1844
  516TIP3   OH223106   3.939   6.366   0.582 -0.0262  0.0303 -0.3060
  516TIP3    H123107   3.957   6.339   0.492  1.9026  0.3159 -0.0418
  516TIP3    H223108   3.965   6.458   0.586 -0.4547  0.1308  0.4493
  517TIP3   OH223109   2.216   1.622   0.729  0.5075  0.1485 -0.2265
  517TIP3    H123110   2.226   1.711   0.695 -1.7324  0.6318  0.1614
  517TIP3    H223111   2.174   1.634   0.815 -0.0708 -1.2709 -0.2749
  518TIP3   OH223112   4.813   6.495   1.600  0.4963 -0.0430  0.5288
  518TIP3    H123113   4.891   6.551   1.591  1.6040 -1.2019  2.3302
  518TIP3    H223114   4.784   6.509   1.690 -0.3080 -0.9895  0.4293
  519TIP3   OH223115   0.412   5.245   0.631 -0.6394 -0.1071  0.3038
  519TIP3    H123116   0.342   5.206   0.684 -1.4565  1.8327  0.7402
  519TIP3    H223117   0.366   5.290   0.561  0.3442 -0.8870 -0.8891
  520TIP3   OH223118   0.853   0.030   1.454  0.1084 -0.2617  0.2976
  520TIP3    H123119   0.843  -0.059   1.486 -0.7856 -0.9910 -1.8263
  520TIP3    H223120   0.769   0.051   1.413  0.4236  1.4325  0.4182
  521TIP3   OH223121   2.001   1.600   1.638 -0.4936  0.1769  0.0724
  521TIP3    H123122   2.092   1.616   1.611 -0.7706  0.6720 -0.5942
  521TIP3    H223123   1.996   1.505   1.651 -0.1366  0.0109 -0.8822
  522TIP3   OH223124   2.936   1.402   7.408 -0.2860  0.2179 -0.2472
  522TIP3    H123125   2.898   1.383   7.323 -0.6120  1.9032 -0.5041
  522TIP3    H223126   3.002   1.333   7.421 -2.5127 -2.0611 -0.3162
  523TIP3   OH223127   0.192   5.166   2.480  0.6849  0.1067  0.1985
  523TIP3    H123128   0.114   5.215   2.455  0.9819  0.8580  0.6985
  523TIP3    H223129   0.248   5.231   2.522  0.7456 -0.8132  1.6197
  524TIP3   OH223130   0.780   3.578   1.083 -0.5099  0.7538 -0.7931
  524TIP3    H123131   0.697   3.534   1.103 -0.0584  0.3203  0.2452
  524TIP3    H223132   0.782   3.653   1.143  0.4654 -0.0419  0.2150
  525TIP3   OH223133   5.127   6.411   7.345 -0.0551  1.0835  0.2032
  525TIP3    H123134   5.069   6.379   7.275  2.1354  2.4642 -2.4155
  525TIP3    H223135   5.197   6.346   7.349 -0.4961  0.6680  1.6608
  526TIP3   OH223136   4.221   5.556   0.681  0.1017  0.0356  1.0783
  526TIP3    H123137   4.250   5.608   0.606 -0.7500  0.3631  0.9646
  526TIP3    H223138   4.190   5.621   0.744  0.2017 -0.2703  1.4431
  527TIP3   OH223139   1.532   4.915   7.974 -1.0352 -0.1953 -0.0814
  527TIP3    H123140   1.467   4.860   8.016 -0.9785  0.7285  1.2999
  527TIP3    H223141   1.608   4.858   7.962 -1.3413 -0.6962  0.3350
  528TIP3   OH223142   4.577   1.304   2.236 -0.4449 -0.1828  0.1075
  528TIP3    H123143   4.544   1.239   2.299 -1.9373 -0.8509 -1.2801
  528TIP3    H223144   4.569   1.388   2.282 -2.0676 -0.5846  0.6196
  529TIP3   OH223145   3.106   2.742   1.234 -0.7103 -0.1968  0.2425
  529TIP3    H123146   3.199   2.763   1.224 -1.0521  2.0484  1.1305
  529TIP3    H223147   3.102   2.684   1.309 -0.1666  1.5832  1.7198
  530TIP3   OH223148   5.364   5.001   1.481  0.1784  0.6962 -0.0489
  530TIP3    H123149   5.330   4.949   1.408 -0.5026  0.4061  0.4682
  530TIP3    H223150   5.317   4.968   1.558  1.5669  0.3333  0.6840
  531TIP3   OH223151   4.949   5.832   7.898  0.0866  0.3218  0.3017
  531TIP3    H123152   4.949   5.741   7.929 -0.2396  0.2356  0.0518
  531TIP3    H223153   4.918   5.827   7.808 -0.4760  0.7418  0.4652
  532TIP3   OH223154   0.343   3.238   6.686  0.3530  0.1626  0.9001
  532TIP3    H123155   0.277   3.297   6.650 -0.7153 -0.9278  0.9749
  532TIP3    H223156   0.413   3.295   6.718 -0.3830  1.3330  0.4592
  533TIP3   OH223157   5.534   4.583   2.050  0.0491  0.1573 -0.2878
  533TIP3    H123158   5.585   4.662   2.068 -0.3720  0.6744 -1.2995
  533TIP3    H223159   5.554   4.562   1.959 -1.4267  0.3105 -0.6771
  534TIP3   OH223160   5.063   3.759   8.717 -0.5243 -0.0357 -0.1242
  534TIP3    H123161   5.152   3.793   8.707 -0.5661  0.0876 -0.0785
  534TIP3    H223162   5.076   3.669   8.748 -0.3829 -0.6458 -1.8681
  535TIP3   OH223163   3.410   0.331   6.390  0.7143 -0.4466 -0.2357
  535TIP3    H123164   3.338   0.395   6.391  0.1369 -0.9585 -2.7246
  535TIP3    H223165   3.380   0.259   6.445  0.4267  0.4454  0.7958
  536TIP3   OH223166   5.003   2.813   0.293 -0.0016  0.2370  0.1959
  536TIP3    H123167   4.925   2.850   0.335  1.0856  3.1354 -0.1766
  536TIP3    H223168   5.076   2.862   0.330  1.5288 -1.2710 -0.7126
  537TIP3   OH223169   6.705   1.912   1.313 -0.6599  0.1254  0.0006
  537TIP3    H123170   6.640   1.921   1.243  0.0342  0.4860 -0.6039
  537TIP3    H223171   6.703   1.819   1.335 -0.5116 -0.0975 -0.8695
  538TIP3   OH223172   0.962   4.262   0.376  0.8673  0.3487  0.5496
  538TIP3    H123173   1.031   4.255   0.310 -0.3960  1.0170 -0.8960
  538TIP3    H223174   0.880   4.262   0.327 -0.2255 -0.8647  2.2551
  539TIP3   OH223175   1.873   3.878   8.482  0.0556 -0.3750 -0.3180
  539TIP3    H123176   1.791   3.927   8.493 -0.0042 -0.2064 -1.4076
  539TIP3    H223177   1.922   3.928   8.416 -0.0382 -1.7881 -1.5173
  540TIP3   OH223178   0.863   6.517   8.836  0.1059 -0.4730 -0.0845
  540TIP3    H123179   0.856   6.425   8.809  0.4199 -0.9635  1.4427
  540TIP3    H223180   0.793   6.561   8.787  0.5803 -1.3106 -1.6055
  541TIP3   OH223181   4.091   3.308   7.420 -0.3900  0.0490 -0.0389
  541TIP3    H123182   4.145   3.263   7.355  1.8580 -0.1641  1.8737
  541TIP3    H223183   4.090   3.250   7.496  2.1174  2.7631  2.3151
  542TIP3   OH223184   5.442   2.757   0.776 -0.1691  0.1606 -0.2120
  542TIP3    H123185   5.428   2.816   0.849  0.1317 -0.6083  0.4812
  542TIP3    H223186   5.389   2.793   0.705 -1.3983  0.2670  0.7344
  543TIP3   OH223187   0.420   6.634   1.476  0.3357 -0.7767 -0.0090
  543TIP3    H123188   0.340   6.654   1.525  1.1128 -1.2014  1.5070
  543TIP3    H223189   0.410   6.542   1.450 -0.2957 -0.4096 -1.1139
  544TIP3   OH223190   5.006   2.362   8.750  0.0996  0.3734 -0.1594
  544TIP3    H123191   4.924   2.410   8.761 -0.5598 -0.7548 -0.0181
  544TIP3    H223192   5.053   2.410   8.681  1.4611  3.8183  2.7906
  545TIP3   OH223193   5.595   3.089   7.607 -0.8563 -0.4182  0.2423
  545TIP3    H123194   5.580   3.179   7.637 -0.2139 -0.3441  0.3535
  545TIP3    H223195   5.597   3.037   7.687 -2.0900 -0.6753  0.1282
  546TIP3   OH223196   2.774   5.012   7.708 -0.2170  0.3276  0.0528
  546TIP3    H123197   2.747   5.012   7.800  0.6444  0.3986  0.3080
  546TIP3    H223198   2.697   4.978   7.661 -0.8774  0.8616  0.7259
  547TIP3   OH223199   1.032   0.162   1.635 -0.0112 -0.0370 -0.1726
  547TIP3    H123200   0.969   0.154   1.564 -0.4792 -1.4408  0.3787
  547TIP3    H223201   1.103   0.215   1.598 -0.6858  0.0681 -1.3588
  548TIP3   OH223202   5.216   1.669   0.027  0.1006 -0.5959 -0.2117
  548TIP3    H123203   5.276   1.704  -0.039 -0.9790 -1.0007 -1.4747
  548TIP3    H223204   5.255   1.693   0.111  0.5060  1.7513 -0.9855
  549TIP3   OH223205   4.229   4.120   8.403 -0.1431 -0.1088 -0.3927
  549TIP3    H123206   4.315   4.142   8.367  0.7190 -0.2269  1.4578
  549TIP3    H223207   4.246   4.044   8.458 -0.9678  1.1400  1.7032
  550TIP3   OH223208   4.201   2.347   0.831  0.6135  0.5280  0.4634
  550TIP3    H123209   4.278   2.307   0.790  0.9976  1.5369  0.1724
  550TIP3    H223210   4.127   2.315   0.781  0.9014  0.0449  0.3423
  551TIP3   OH223211   2.781   4.574   1.923 -0.3055  0.0799 -0.7068
  551TIP3    H123212   2.802   4.525   2.002 -0.9383  0.1935 -0.4619
  551TIP3    H223213   2.694   4.544   1.899 -0.5070  0.7431 -0.8186
  552TIP3   OH223214   2.030   3.949   0.422  0.3176  0.9663  0.0163
  552TIP3    H123215   2.036   3.874   0.482  1.2779  0.7074 -0.3797
  552TIP3    H223216   1.949   3.994   0.447  0.0252  0.1203  0.6369
  553TIP3   OH223217   4.705   5.485   7.989  0.0776 -0.2505  0.3436
  553TIP3    H123218   4.690   5.391   7.976 -2.0909  0.0369  0.3271
  553TIP3    H223219   4.795   5.491   8.022 -0.0109 -2.3966  1.1584
  554TIP3   OH223220   4.990   0.550   8.262  0.1229 -0.3087 -0.3439
  554TIP3    H123221   5.020   0.473   8.213  0.3386 -1.0158  0.8444
  554TIP3    H223222   4.922   0.516   8.320  0.8358  0.1987  0.8296
  555TIP3   OH223223   4.145   3.797   6.761  0.1636 -0.7824 -0.0927
  555TIP3    H123224   4.188   3.763   6.682  1.8133 -1.0272  0.8724
  555TIP3    H223225   4.135   3.721   6.818 -1.8734 -0.7921 -0.3815
  556TIP3   OH223226   3.992   2.756   0.168 -0.6950 -0.1781 -0.1989
  556TIP3    H123227   3.953   2.824   0.113 -0.0784 -0.3583 -0.8712
  556TIP3    H223228   4.028   2.804   0.243 -0.8623  0.1577 -0.3337
  557TIP3   OH223229   4.603   5.814   0.409  0.0019 -0.3122 -0.2211
  557TIP3    H123230   4.552   5.757   0.466  2.4876 -2.8285 -0.2806
  557TIP3    H223231   4.548   5.824   0.331 -1.8778  0.1703  1.0781
  558TIP3   OH223232   1.469   0.755   0.521 -0.6215  0.2155 -0.6740
  558TIP3    H123233   1.497   0.739   0.431  0.1428  1.2969 -0.6403
  558TIP3    H223234   1.491   0.847   0.537 -0.7048  0.0192  0.6368
  559TIP3   OH223235   5.890   1.569   6.950 -0.9192 -0.1025  0.4285
  559TIP3    H123236   5.828   1.497   6.946 -0.2582 -0.7397  1.2153
  559TIP3    H223237   5.836   1.646   6.967 -1.5613 -0.5270  0.3322
  560TIP3   OH223238   5.488   4.971   1.867 -0.2441 -0.4183 -0.0726
  560TIP3    H123239   5.494   5.042   1.803  1.6441 -0.1184  0.3660
  560TIP3    H223240   5.579   4.954   1.892 -0.5750 -3.3503 -0.5365
  561TIP3   OH223241   5.917   3.332   1.957  0.2586 -0.2241 -0.1621
  561TIP3    H123242   5.853   3.402   1.967 -1.9346 -2.1288  0.0718
  561TIP3    H223243   5.947   3.313   2.046  0.6776  0.2425 -0.2006
  562TIP3   OH223244   0.702   2.004   7.679  0.4368  0.3595  0.0998
  562TIP3    H123245   0.660   1.918   7.674 -1.9809  1.4859 -0.0621
  562TIP3    H223246   0.649   2.054   7.741  1.1665  2.0919 -0.6005
  563TIP3   OH223247   3.781   5.438   8.711  0.0007  0.1279  0.3921
  563TIP3    H123248   3.872   5.419   8.688 -0.4034 -1.5329  0.0004
  563TIP3    H223249   3.750   5.358   8.754 -1.9110 -0.2458 -1.5231
  564TIP3   OH223250   3.521   4.289   1.960  0.3872  0.5179 -0.0019
  564TIP3    H123251   3.491   4.318   1.873 -0.3703 -0.4810 -0.0941
  564TIP3    H223252   3.441   4.285   2.013  0.7572  0.5093  0.5621
  565TIP3   OH223253   0.080   4.697   1.472 -0.1723 -0.3480 -0.0030
  565TIP3    H123254   0.053   4.652   1.392  0.4508 -2.3510  0.8536
  565TIP3    H223255   0.100   4.626   1.534 -0.5117  1.1247  1.8956
  566TIP3   OH223256   0.593   4.903   1.394 -0.3914  0.1378  0.6735
  566TIP3    H123257   0.608   4.869   1.305  0.1199 -1.7178  1.4109
  566TIP3    H223258   0.499   4.894   1.408 -0.1764 -1.9545  1.1563
  567TIP3   OH223259   4.988   2.624   8.000  0.0559  0.2632 -0.2297
  567TIP3    H123260   4.984   2.566   7.924 -0.8597  0.1564 -0.1156
  567TIP3    H223261   4.946   2.575   8.070 -2.0915  1.5682 -0.4930
  568TIP3   OH223262   3.234   5.222   1.559  0.1041 -0.1340 -0.2908
  568TIP3    H123263   3.218   5.310   1.526 -1.2292 -0.7975 -1.5432
  568TIP3    H223264   3.323   5.201   1.531  0.5695  0.9446  0.3521
  569TIP3   OH223265   5.342   4.259   7.787 -0.2985 -0.0230  0.5561
  569TIP3    H123266   5.421   4.266   7.734  0.0425  0.3017  1.1075
  569TIP3    H223267   5.270   4.276   7.726  0.1344  1.2320  0.3853
  570TIP3   OH223268   1.259   3.328   1.377  0.1127 -0.2013  0.1337
  570TIP3    H123269   1.328   3.310   1.441 -0.4655 -2.3915  0.2276
  570TIP3    H223270   1.301   3.313   1.292  0.4712  1.2168  0.0415
  571TIP3   OH223271   1.724   1.856   7.341 -0.1989  0.3861  0.2785
  571TIP3    H123272   1.648   1.866   7.284 -0.8834  0.8182  1.2416
  571TIP3    H223273   1.702   1.782   7.398  0.2915  0.2326  0.2734
  572TIP3   OH223274   6.270   5.688   7.550  0.1764  0.2143 -1.1683
  572TIP3    H123275   6.186   5.649   7.528 -0.1324 -0.2773  0.7164
  572TIP3    H223276   6.312   5.703   7.465 -0.5960 -2.1923 -2.0598
  573TIP3   OH223277   5.753   4.741   1.205 -0.0506 -0.3193 -0.2428
  573TIP3    H123278   5.658   4.750   1.211 -0.3100 -2.7119  0.3063
  573TIP3    H223279   5.779   4.699   1.287  1.4769  0.2431 -0.4018
  574TIP3   OH223280   2.671   6.784   7.508 -0.1471  0.7977 -0.6295
  574TIP3    H123281   2.614   6.731   7.451  0.3987  1.0591 -1.4342
  574TIP3    H223282   2.612   6.817   7.576 -0.2979 -1.8417  0.6635
  575TIP3   OH223283   0.626   0.846   8.692  0.4230  0.0935 -0.3493
  575TIP3    H123284   0.538   0.884   8.689 -0.2381 -1.0421  1.8407
  575TIP3    H223285   0.627   0.796   8.774  2.5303 -1.3821 -1.1883
  576TIP3   OH223286   2.034   0.022   2.322 -0.5587  0.2878 -0.3014
  576TIP3    H123287   2.112   0.023   2.377 -0.2176 -2.0980 -0.6496
  576TIP3    H223288   1.963   0.050   2.380  0.0768 -0.5336  0.9030
  577TIP3   OH223289   6.628   5.566   1.882  0.6430  0.0600  0.0807
  577TIP3    H123290   6.592   5.561   1.794  2.0439 -0.4333 -0.4963
  577TIP3    H223291   6.628   5.659   1.903 -0.5234  0.1046 -0.0692
  578TIP3   OH223292   1.713   6.084   7.413 -0.4284  0.2008  1.0914
  578TIP3    H123293   1.803   6.116   7.420 -0.4658  0.6661 -0.2296
  578TIP3    H223294   1.701   6.069   7.319 -1.4898 -0.5750  1.3386
  579TIP3   OH223295   2.622   2.929   0.606  0.5517 -0.4777  0.0461
  579TIP3    H123296   2.599   2.962   0.519  0.1604 -1.6290 -0.3045
  579TIP3    H223297   2.703   2.975   0.628  0.4976  0.0479 -0.7957
  580TIP3   OH223298   4.239   4.965   1.136 -0.1483  0.6292  0.1052
  580TIP3    H123299   4.172   4.946   1.070  0.4829  0.8134 -0.6051
  580TIP3    H223300   4.205   4.927   1.217 -0.4050 -0.6311 -0.5815
  581TIP3   OH223301   4.827   1.164   6.659 -0.0294  0.1422 -0.3627
  581TIP3    H123302   4.873   1.086   6.629 -0.8760 -0.7264  0.5424
  581TIP3    H223303   4.738   1.155   6.625 -0.7728 -0.4430  1.5628
  582TIP3   OH223304   6.577   1.196   1.142 -0.2496  0.3532 -0.1540
  582TIP3    H123305   6.533   1.230   1.220  0.3129 -0.0565  0.3513
  582TIP3    H223306   6.545   1.106   1.134 -1.1877  0.7422 -1.0747
  583TIP3   OH223307   6.693   5.858   8.389  0.3144 -0.4482 -0.2034
  583TIP3    H123308   6.736   5.814   8.316  3.2391 -1.8280  2.1804
  583TIP3    H223309   6.709   5.803   8.465 -0.6077  2.0181  1.9650
  584TIP3   OH223310   5.889   6.459   1.071 -0.4558 -0.1184  0.0070
  584TIP3    H123311   5.868   6.403   0.996 -0.8903 -0.7275  0.5745
  584TIP3    H223312   5.928   6.400   1.135  0.0555  0.4304  0.2047
  585TIP3   OH223313   4.447   0.110   8.574  0.3922 -0.2782 -0.0663
  585TIP3    H123314   4.361   0.154   8.572  0.0472 -0.9332  0.1223
  585TIP3    H223315   4.435   0.033   8.519  0.4331 -1.1445  1.1055
  586TIP3   OH223316   2.107   2.360   1.111 -0.4214 -0.3486 -0.3577
  586TIP3    H123317   2.153   2.367   1.195 -0.7642 -0.4071 -0.1627
  586TIP3    H223318   2.149   2.425   1.055  1.0246 -1.5306 -0.7159
  587TIP3   OH223319   6.775   3.417   1.811  0.0356  0.0097 -0.2971
  587TIP3    H123320   6.810   3.344   1.862 -1.8323 -1.3219 -0.8471
  587TIP3    H223321   6.844   3.484   1.816  0.9397 -0.9877  1.8995
  588TIP3   OH223322   0.624   1.562   7.120 -0.4498  0.5598 -0.2433
  588TIP3    H123323   0.681   1.488   7.099 -2.4002 -0.7940 -1.0726
  588TIP3    H223324   0.566   1.529   7.189 -0.1108  1.9750  0.7555
  589TIP3   OH223325   0.608   2.056   0.189  0.5177  0.1867 -0.1946
  589TIP3    H123326   0.624   2.082   0.098  1.1369 -0.0048 -0.1439
  589TIP3    H223327   0.602   2.138   0.237  1.8579  0.2630 -0.1359
  590TIP3   OH223328   6.489   2.416   6.988 -0.4342  0.1580  0.1342
  590TIP3    H123329   6.507   2.324   6.970 -1.3704 -0.0145  0.0474
  590TIP3    H223330   6.490   2.458   6.902  0.8236  0.3994  0.2433
  591TIP3   OH223331   6.305   1.517   7.460  0.1366  0.1189 -0.6406
  591TIP3    H123332   6.317   1.537   7.367  2.4671 -0.2480 -0.4768
  591TIP3    H223333   6.337   1.595   7.506 -0.1384 -0.0633 -0.1313
  592TIP3   OH223334   4.938   0.197   2.220 -0.3321  0.6945 -0.3070
  592TIP3    H123335   4.943   0.192   2.315 -1.4898  0.2286 -0.2528
  592TIP3    H223336   4.989   0.274   2.197  0.4729  0.4655  0.6342
  593TIP3   OH223337   4.629   4.527   7.869 -0.3159 -0.0314  0.7504
  593TIP3    H123338   4.604   4.442   7.904  0.6601 -0.6291  0.0411
  593TIP3    H223339   4.724   4.532   7.884 -0.0572  0.1620 -0.8088
  594TIP3   OH223340   4.257   6.559   0.028 -0.5922 -0.2705  1.3489
  594TIP3    H123341   4.292   6.556   0.117 -3.0764 -0.8075  2.3987
  594TIP3    H223342   4.261   6.652   0.004 -0.2028 -0.0700  2.1510
  595TIP3   OH223343   0.711   4.238   7.887  0.1941 -0.3498 -0.0122
  595TIP3    H123344   0.747   4.164   7.839 -0.4412 -0.3311 -0.5330
  595TIP3    H223345   0.747   4.315   7.843  2.1684 -0.3067  1.5259
  596TIP3   OH223346   5.285   0.451   8.513 -0.2584  0.1853  0.1532
  596TIP3    H123347   5.221   0.400   8.465 -1.5162 -0.0627  1.9743
  596TIP3    H223348   5.359   0.460   8.453 -1.4740 -0.6111 -1.5439
  597TIP3   OH223349   5.307   4.670   0.420  0.5439 -0.1211  0.7499
  597TIP3    H123350   5.335   4.734   0.354  0.9596 -1.1893 -0.1362
  597TIP3    H223351   5.291   4.590   0.370  0.1875 -0.7607  1.8631
  598TIP3   OH223352   3.339   2.991   1.925 -0.6602 -0.0345 -0.2391
  598TIP3    H123353   3.343   3.038   2.008  0.8928  2.7763 -1.7226
  598TIP3    H223354   3.250   3.003   1.894 -1.3252 -1.3300  1.0728
  599TIP3   OH223355   5.532   0.018   0.641  0.3359  0.7089  0.0031
  599TIP3    H123356   5.599  -0.049   0.655  1.0223  1.0376 -1.4870
  599TIP3    H223357   5.523   0.061   0.726  0.9527 -0.2985  0.6009
  600TIP3   OH223358   3.243   6.273   8.529 -0.1914 -0.2481  0.0657
  600TIP3    H123359   3.294   6.232   8.459  2.4445  1.2561  0.9707
  600TIP3    H223360   3.199   6.346   8.486  1.3467  0.6192 -0.1242
  601TIP3   OH223361   2.734   5.908   7.512  0.2847  0.3002 -0.5747
  601TIP3    H123362   2.768   5.998   7.512 -0.6691  0.6717 -1.0020
  601TIP3    H223363   2.760   5.872   7.597 -0.3363  1.3747  0.0904
  602TIP3   OH223364   0.981   1.102   1.905  0.0078  0.1854 -0.3775
  602TIP3    H123365   0.972   1.142   1.818  1.0429 -1.2055 -1.1672
  602TIP3    H223366   1.068   1.127   1.934 -0.5693  1.1785  0.5918
  603TIP3   OH223367   4.657   3.346   8.525  0.4154 -0.0078 -0.0863
  603TIP3    H123368   4.676   3.377   8.436  0.5833  1.3119  0.3777
  603TIP3    H223369   4.581   3.398   8.552 -0.4910 -1.3795  0.0516
  604TIP3   OH223370   5.794   1.074   6.401  0.3296 -0.4603  0.1923
  604TIP3    H123371   5.767   1.016   6.472 -0.9705  0.9236  0.8855
  604TIP3    H223372   5.716   1.127   6.383  0.8422 -0.3250 -1.8239
  605TIP3   OH223373   4.687   0.304   7.828  0.1526 -0.0765  0.6191
  605TIP3    H123374   4.772   0.261   7.821  0.5100  0.8414 -1.7421
  605TIP3    H223375   4.625   0.234   7.846  1.2466 -0.9048  1.2697
  606TIP3   OH223376   4.421   2.731   7.997 -0.0080  0.4234  0.2299
  606TIP3    H123377   4.403   2.637   8.000 -1.0887  0.5189 -1.7998
  606TIP3    H223378   4.493   2.743   8.059  1.1455 -1.9770 -0.5066
  607TIP3   OH223379   0.487   0.887   1.563  0.1387  0.0651  0.0350
  607TIP3    H123380   0.455   0.828   1.495  0.8575 -0.6896  0.3326
  607TIP3    H223381   0.566   0.927   1.524 -0.4324  0.9618 -0.2249
  608TIP3   OH223382   3.502   0.174   2.223  0.4967  0.4160 -0.1118
  608TIP3    H123383   3.483   0.257   2.267  0.1117  0.6408 -0.6896
  608TIP3    H223384   3.541   0.119   2.291  0.5661  1.0009  0.3257
  609TIP3   OH223385   1.133   1.430   6.549 -0.3652 -0.4241 -0.0146
  609TIP3    H123386   1.080   1.505   6.577 -1.9352 -0.7656 -1.8616
  609TIP3    H223387   1.103   1.357   6.603  0.0304 -0.1093  0.6573
  610TIP3   OH223388   1.838   5.159   1.191  0.1492  0.3524  0.2901
  610TIP3    H123389   1.783   5.081   1.204  1.1249 -0.8773 -2.2422
  610TIP3    H223390   1.779   5.224   1.154  0.2624 -0.9242 -2.3115
  611TIP3   OH223391   0.045   6.397   0.445 -0.5157  0.2921  0.2233
  611TIP3    H123392   0.102   6.377   0.371  0.7081  3.5887  0.0956
  611TIP3    H223393   0.105   6.408   0.519 -1.1514  1.7278  0.5650
  612TIP3   OH223394   4.608   0.443   6.668  0.0693  0.1223 -0.7631
  612TIP3    H123395   4.609   0.539   6.665 -0.4800  0.1319 -0.8575
  612TIP3    H223396   4.606   0.416   6.576  2.5737 -0.0479 -0.8244
  613TIP3   OH223397   3.126   1.243   0.913 -0.0525  0.5971 -0.5007
  613TIP3    H123398   3.174   1.214   0.835 -0.0488 -0.3360 -0.1674
  613TIP3    H223399   3.055   1.297   0.879 -0.5704 -0.4890 -1.2382
  614TIP3   OH223400   5.517   0.699   8.078 -0.0213 -0.5406 -0.4354
  614TIP3    H123401   5.469   0.627   8.036  0.6750 -0.7530 -0.8886
  614TIP3    H223402   5.450   0.748   8.125 -1.1600  0.6494 -3.0527
  615TIP3   OH223403   5.355   3.010   7.809 -0.2050  0.7775 -0.1303
  615TIP3    H123404   5.316   2.972   7.887  0.7177 -0.6265 -0.3288
  615TIP3    H223405   5.447   2.985   7.812  0.5345  3.1883 -0.1887
  616TIP3   OH223406   1.508   1.950   1.489  0.7467 -0.0671  0.1228
  616TIP3    H123407   1.483   1.868   1.446 -0.1230  0.4495 -0.3770
  616TIP3    H223408   1.534   1.924   1.577  0.6948 -0.9063 -0.1019
  617TIP3   OH223409   0.013   3.924   1.564 -0.1457  0.0766 -0.6850
  617TIP3    H123410   0.089   3.947   1.616 -1.1007  0.9738  0.3672
  617TIP3    H223411  -0.034   4.006   1.551 -0.2178 -0.2005 -2.5644
  618TIP3   OH223412   0.862   5.219   6.489 -0.2348  0.1929 -0.5712
  618TIP3    H123413   0.913   5.296   6.465 -0.0506  0.1385 -0.3592
  618TIP3    H223414   0.840   5.177   6.406  0.9522 -0.3573 -0.6215
  619TIP3   OH223415   4.114   3.485   0.075  0.5709  0.0331 -0.1212
  619TIP3    H123416   4.070   3.520  -0.003 -0.2664  0.7521  0.6465
  619TIP3    H223417   4.093   3.392   0.075  0.9908 -0.0708 -1.0130
  620TIP3   OH223418   4.081   3.644   7.014 -0.0230  0.3427  0.0474
  620TIP3    H123419   4.012   3.710   7.019 -0.5351 -0.1591 -0.3724
  620TIP3    H223420   4.037   3.561   7.030  0.2723 -0.1061 -1.3410
  621TIP3   OH223421   2.839   1.873   8.705  0.2938 -0.2472  0.0300
  621TIP3    H123422   2.926   1.906   8.685  0.0977  0.0157 -0.4091
  621TIP3    H223423   2.854   1.804   8.769  0.8922 -0.7337 -0.6229
  622TIP3   OH223424   5.337   1.282   0.449  0.1651 -0.0451 -0.9833
  622TIP3    H123425   5.430   1.302   0.436  0.0091  1.7202  0.2092
  622TIP3    H223426   5.299   1.292   0.362  0.9500  0.0845 -1.3277
  623TIP3   OH223427   4.470   3.195   7.138 -0.5123 -0.2099 -0.4474
  623TIP3    H123428   4.564   3.181   7.143 -0.5449 -0.4134 -0.3908
  623TIP3    H223429   4.437   3.119   7.090 -0.5652  0.1981 -1.0848
  624TIP3   OH223430   4.302   2.461   7.658 -0.4886  0.1960 -0.4079
  624TIP3    H123431   4.380   2.516   7.648 -0.1346 -0.3464 -0.6989
  624TIP3    H223432   4.243   2.490   7.589 -0.9379  1.2430  0.3913
  625TIP3   OH223433   5.413   0.305   8.851  0.0929  0.3604 -0.0593
  625TIP3    H123434   5.377   0.289   8.938 -0.9593  0.5400 -0.4497
  625TIP3    H223435   5.370   0.385   8.821  0.2044  0.1264 -0.8707
  626TIP3   OH223436   4.450   4.341   0.282  0.0103 -0.4150 -0.4974
  626TIP3    H123437   4.376   4.387   0.321 -1.2900 -2.0884 -0.9046
  626TIP3    H223438   4.476   4.276   0.347  2.2336  1.1560  0.3364
  627TIP3   OH223439   0.600   0.421   8.270  0.2886 -0.5497  0.0767
  627TIP3    H123440   0.615   0.449   8.180 -0.8141  0.9086  0.3139
  627TIP3    H223441   0.638   0.491   8.323  0.8467 -1.3484  0.7687
  628TIP3   OH223442   0.917   5.936   8.221  0.1802  0.7442  0.1219
  628TIP3    H123443   0.860   5.861   8.201  0.3877  1.0651 -1.8643
  628TIP3    H223444   0.859   6.011   8.222  0.4869  1.0963 -2.0697
  629TIP3   OH223445   5.476   1.896   8.197 -0.7346 -0.0599 -0.0673
  629TIP3    H123446   5.481   1.856   8.110 -1.7590  0.0268 -0.1827
  629TIP3    H223447   5.503   1.987   8.184 -0.9864 -0.0187 -0.3222
  630TIP3   OH223448   1.469   6.677   8.766  0.3154  0.3530 -0.0230
  630TIP3    H123449   1.394   6.735   8.776  0.5125  0.2647  3.0008
  630TIP3    H223450   1.503   6.696   8.679 -1.8275  2.0651 -0.5681
  631TIP3   OH223451   6.680   6.626   8.360 -0.2931 -0.3931  0.0609
  631TIP3    H123452   6.587   6.642   8.373 -0.4229  2.5333 -3.1539
  631TIP3    H223453   6.723   6.678   8.428 -0.9991  0.1710  0.0936
  632TIP3   OH223454   4.492   3.107   8.635  0.2128  0.2749 -0.4602
  632TIP3    H123455   4.436   3.085   8.560  0.8735  0.4438 -1.0127
  632TIP3    H223456   4.545   3.180   8.604 -0.4243  1.2238  0.6220
  633TIP3   OH223457   1.580   5.540   6.588 -0.1678 -0.0251 -0.3160
  633TIP3    H123458   1.498   5.531   6.638 -0.4028 -0.6598 -0.8024
  633TIP3    H223459   1.646   5.560   6.654 -0.7971  1.0212  0.0266
  634TIP3   OH223460   1.401   0.948   6.905 -0.0514  0.3490  0.5387
  634TIP3    H123461   1.370   1.030   6.866 -0.2674 -0.2635 -0.6395
  634TIP3    H223462   1.469   0.918   6.844 -1.0579 -1.1239  0.0866
  635TIP3   OH223463   1.771   3.946   1.842  0.7520 -0.0859 -0.4247
  635TIP3    H123464   1.830   3.993   1.901  0.8710 -0.6978 -0.0520
  635TIP3    H223465   1.740   4.013   1.781  1.6180  0.2986 -0.4545
  636TIP3   OH223466   5.624   3.858   7.852 -0.6533  0.1216 -0.0778
  636TIP3    H123467   5.609   3.855   7.947  1.7562  1.5361  0.4168
  636TIP3    H223468   5.666   3.775   7.832 -3.4978 -1.3419 -0.4653
  637TIP3   OH223469   0.352   2.779   7.165 -0.3585  0.0340  0.0642
  637TIP3    H123470   0.321   2.794   7.254  1.8728 -0.6852  1.0554
  637TIP3    H223471   0.443   2.809   7.166 -0.6417  1.2778 -2.3973
  638TIP3   OH223472   2.357   5.700   8.573 -0.2025 -0.6950 -0.4909
  638TIP3    H123473   2.383   5.760   8.504  0.5656  0.6860  0.9265
  638TIP3    H223474   2.438   5.659   8.602 -0.2291  0.0606  0.7382
  639TIP3   OH223475   5.905   1.112   1.124 -0.0402  0.0504  0.2637
  639TIP3    H123476   5.843   1.179   1.154  0.6651  1.0900 -0.5076
  639TIP3    H223477   5.855   1.031   1.123 -1.2008  0.7471  0.2833
  640TIP3   OH223478   4.089   3.119   8.559 -0.0369  0.0254  0.0558
  640TIP3    H123479   4.171   3.082   8.525 -0.0070 -0.1535  0.3176
  640TIP3    H223480   4.043   3.151   8.482 -1.2131 -2.7735 -0.5317
  641TIP3   OH223481   5.998   2.542   0.351 -0.2354  0.8328 -0.1321
  641TIP3    H123482   6.054   2.584   0.285 -0.1439  1.4841  0.3562
  641TIP3    H223483   5.998   2.449   0.326  1.1014  0.8045 -0.1171
  642TIP3   OH223484   6.260   2.800   1.070  0.1136 -0.5577  0.2164
  642TIP3    H123485   6.328   2.770   1.130 -0.2540 -0.7089  0.5598
  642TIP3    H223486   6.178   2.783   1.116 -0.1577 -0.3746 -0.1942
  643TIP3   OH223487   2.936   3.084   8.040  0.1623 -0.1917  0.4169
  643TIP3    H123488   2.924   3.048   8.127  0.3089  0.6554  0.7940
  643TIP3    H223489   3.019   3.046   8.010  1.0105  0.8465  1.3512
  644TIP3   OH223490   1.731   3.637   7.166 -0.3713  0.1991  0.2005
  644TIP3    H123491   1.780   3.707   7.123 -1.1768  0.1640 -0.8285
  644TIP3    H223492   1.652   3.679   7.199 -1.2709 -0.3354 -1.1665
  645TIP3   OH223493   1.337   5.088   0.399 -0.4694 -0.5487 -0.8079
  645TIP3    H123494   1.410   5.027   0.389  0.6965  0.5198  0.7080
  645TIP3    H223495   1.349   5.150   0.327  0.7963  0.2242  0.0179
  646TIP3   OH223496   6.062   1.354   1.659 -0.2579 -0.2257  0.3685
  646TIP3    H123497   6.068   1.266   1.697  2.5285 -2.4569 -4.3988
  646TIP3    H223498   6.149   1.371   1.623 -1.3647  3.5451 -0.9628
  647TIP3   OH223499   6.335   4.930   1.087 -0.1074 -0.4995  1.0296
  647TIP3    H123500   6.289   4.900   1.165  0.8666 -1.7531  1.1563
  647TIP3    H223501   6.274   4.914   1.015 -0.1621 -1.4745  1.2774
  648TIP3   OH223502   5.608   4.631   7.674 -0.2902 -0.2122 -0.4744
  648TIP3    H123503   5.577   4.594   7.757  1.4847  0.3608  0.4890
  648TIP3    H223504   5.554   4.589   7.608 -2.0203 -0.4247  0.9816
  649TIP3   OH223505   5.504   5.426   0.966  0.1574  0.1936 -0.7711
  649TIP3    H123506   5.588   5.400   1.002 -0.8424 -1.0284  0.8292
  649TIP3    H223507   5.450   5.347   0.971 -1.2347  1.0616 -1.3105
  650TIP3   OH223508   1.110   5.042   0.799 -0.2681 -0.5190  0.6085
  650TIP3    H123509   1.096   4.948   0.792 -0.5926 -0.3871 -0.7760
  650TIP3    H223510   1.048   5.071   0.866 -2.5954 -0.8159 -1.3045
  651TIP3   OH223511   3.387   5.288   0.061  0.1462  0.4126 -0.8238
  651TIP3    H123512   3.453   5.278   0.131 -1.5540  1.6809  1.0720
  651TIP3    H223513   3.405   5.375   0.024  0.0873  0.3982 -0.8854
  652TIP3   OH223514   3.280   3.210   8.749 -0.2077 -0.6995 -0.4175
  652TIP3    H123515   3.371   3.193   8.722 -0.4111  0.1248 -1.6856
  652TIP3    H223516   3.266   3.149   8.822  1.6186 -0.2794  0.3505
  653TIP3   OH223517   4.543   5.145   0.293  0.4532 -0.7735  0.4592
  653TIP3    H123518   4.488   5.206   0.245 -0.7645 -2.4744 -0.4283
  653TIP3    H223519   4.516   5.058   0.262  2.5376 -1.7624  1.1853
  654TIP3   OH223520   1.455   1.728   8.789  0.3251 -0.2549  0.2540
  654TIP3    H123521   1.377   1.721   8.734  0.7734 -2.7969 -0.1967
  654TIP3    H223522   1.433   1.794   8.855 -1.5392  0.2995 -0.8466
  655TIP3   OH223523   6.522   0.109   1.587 -0.4180 -0.6728  0.1064
  655TIP3    H123524   6.449   0.061   1.548  0.3506 -1.4636 -0.4079
  655TIP3    H223525   6.593   0.101   1.524  0.8095 -1.8596  1.5517
  656TIP3   OH223526   1.690   5.756   0.840 -0.0920  0.8767  0.3602
  656TIP3    H123527   1.611   5.808   0.828  0.1401  0.7464 -2.0799
  656TIP3    H223528   1.755   5.818   0.872 -0.4288  1.6148 -0.3577
  657TIP3   OH223529   6.686   3.864   7.263  0.4274  0.3187 -0.0092
  657TIP3    H123530   6.723   3.843   7.177  3.5085 -0.5255  1.3660
  657TIP3    H223531   6.641   3.948   7.250  2.4560  1.2067 -2.0908
  658TIP3   OH223532   1.217   5.623   0.641  0.0892  0.2229 -0.1403
  658TIP3    H123533   1.267   5.603   0.562  0.4523  1.6106 -0.2897
  658TIP3    H223534   1.145   5.560   0.641 -0.7535  1.1118 -2.3510
  659TIP3   OH223535   4.070   0.697   0.819  0.1912 -0.0897 -0.7132
  659TIP3    H123536   4.113   0.622   0.776  1.7412  0.6755 -0.5672
  659TIP3    H223537   4.077   0.679   0.912 -0.1547 -0.1426 -0.6969
  660TIP3   OH223538   4.239   2.233   1.482 -0.2388 -0.1325 -0.0042
  660TIP3    H123539   4.256   2.152   1.530  0.2993  1.0121  1.8487
  660TIP3    H223540   4.321   2.252   1.437 -0.0655 -0.1311  0.3109
  661TIP3   OH223541   6.367   1.362   2.592 -0.2440  0.3876 -0.0793
  661TIP3    H123542   6.461   1.357   2.612 -0.1769  0.1839 -0.4373
  661TIP3    H223543   6.364   1.397   2.502 -0.4561 -1.0134 -0.6436
  662TIP3   OH223544   2.119   0.758   0.375  0.1074  1.0449  0.3067
  662TIP3    H123545   2.043   0.738   0.430  0.3642  0.3846  0.4335
  662TIP3    H223546   2.143   0.848   0.399  0.4392  0.6472  1.5672
  663TIP3   OH223547   5.865   3.117   6.972  0.2723  0.7140  0.1859
  663TIP3    H123548   5.891   3.152   7.057 -1.0822 -0.5160  1.1498
  663TIP3    H223549   5.880   3.023   6.980  1.0851  0.6918 -1.3136
  664TIP3   OH223550   6.587   1.669   2.031  0.1152  0.3591  0.2779
  664TIP3    H123551   6.601   1.687   2.124 -0.5007  0.0020  0.4416
  664TIP3    H223552   6.499   1.632   2.026  0.2014  0.2289 -0.4295
  665TIP3   OH223553   6.244   2.556   1.422  0.6634  0.3217 -0.2969
  665TIP3    H123554   6.316   2.494   1.406  1.1785  1.0290 -0.7959
  665TIP3    H223555   6.169   2.517   1.376  0.6011 -0.6349  0.5834
  666TIP3   OH223556   6.378   6.264   0.249  0.2437  0.2541 -0.0587
  666TIP3    H123557   6.424   6.333   0.297  1.5451 -0.6509  0.0544
  666TIP3    H223558   6.446   6.221   0.197 -0.3916 -1.3711  0.3825
  667TIP3   OH223559   0.150   6.471   7.131  0.0766 -0.3189 -0.8543
  667TIP3    H123560   0.120   6.386   7.098 -1.4709  0.4118 -1.4574
  667TIP3    H223561   0.150   6.528   7.053  0.6137  0.3561 -0.3709
  668TIP3   OH223562   1.045   3.532   8.276  0.0744  0.1575 -0.1632
  668TIP3    H123563   1.132   3.544   8.237  0.0979  3.7863  0.6807
  668TIP3    H223564   1.061   3.527   8.370 -0.5688 -0.4968 -0.0768
  669TIP3   OH223565   3.774   0.258   8.535 -0.4942 -0.1349  0.1172
  669TIP3    H123566   3.705   0.221   8.591  0.4994 -0.0404  1.4620
  669TIP3    H223567   3.784   0.348   8.566  0.3312 -0.1966  0.0572
  670TIP3   OH223568   2.832   5.834   8.309  0.6355  0.0701 -0.0583
  670TIP3    H123569   2.807   5.915   8.265 -2.0458 -0.6728 -0.1160
  670TIP3    H223570   2.853   5.774   8.237  1.3584  0.3303 -0.0702
  671TIP3   OH223571   0.101   1.706   1.789  0.4359  0.3207  0.2015
  671TIP3    H123572   0.138   1.699   1.877  1.5568 -1.7218 -0.3564
  671TIP3    H223573   0.025   1.647   1.791 -1.2985  2.4598  0.5694
  672TIP3   OH223574   1.039   1.147   6.336 -0.1453  0.1016  0.2295
  672TIP3    H123575   1.101   1.145   6.409  1.5504  1.1944 -1.1025
  672TIP3    H223576   1.032   1.239   6.312 -2.4731  0.0397  0.4236
  673TIP3   OH223577   5.236   4.930   6.960  0.2237 -0.4669  0.0860
  673TIP3    H123578   5.226   4.860   6.896  0.1363  0.2684 -0.7186
  673TIP3    H223579   5.304   4.987   6.923 -0.9542  0.8307 -0.1688
  674TIP3   OH223580   6.586   5.409   6.861 -0.2555 -0.3203 -0.4911
  674TIP3    H123581   6.517   5.367   6.809  1.1236 -0.7246 -2.0717
  674TIP3    H223582   6.666   5.361   6.838  0.7652  0.9330  0.3398
  675TIP3   OH223583   6.552   3.505   7.651 -0.0126  0.1080  0.7788
  675TIP3    H123584   6.620   3.560   7.689  1.5852 -1.0708 -0.2169
  675TIP3    H223585   6.482   3.566   7.627  0.4163  1.2823  2.3727
  676TIP3   OH223586   6.508   4.305   2.022  0.0232 -0.4174 -0.0183
  676TIP3    H123587   6.487   4.368   2.091 -0.5530  0.9809 -1.4054
  676TIP3    H223588   6.602   4.289   2.032  0.0995  0.3574  0.6173
  677TIP3   OH223589   6.408   1.904   2.103 -0.0622 -0.6200 -0.1742
  677TIP3    H123590   6.366   1.922   2.187  0.6675 -0.1228  0.0970
  677TIP3    H223591   6.489   1.858   2.126  0.1939 -0.3837 -0.5890
  678TIP3   OH223592   3.565   5.632   0.473 -0.0941  0.1481 -0.0381
  678TIP3    H123593   3.482   5.612   0.430 -0.4143  0.9168  0.2175
  678TIP3    H223594   3.542   5.687   0.548  0.3813 -1.6454  1.5201
  679TIP3   OH223595   0.955   1.322   0.575  0.2760  0.2502 -0.5431
  679TIP3    H123596   0.866   1.304   0.546 -0.4581  1.5870  0.7801
  679TIP3    H223597   1.001   1.352   0.496  0.6344 -3.7079 -2.0888
  680TIP3   OH223598   0.488   6.099   0.312  0.1455 -0.1766 -0.1825
  680TIP3    H123599   0.428   6.059   0.248 -1.0565  1.5217 -0.1959
  680TIP3    H223600   0.516   6.026   0.367 -1.9350 -1.0806 -0.2060
  681TIP3   OH223601   0.102   1.235   2.641 -0.4786  0.0794 -0.2656
  681TIP3    H123602   0.164   1.216   2.570 -0.5600  0.2797 -0.3900
  681TIP3    H223603   0.151   1.292   2.700 -0.0553 -0.9084  0.3743
  682TIP3   OH223604   1.615   5.822   8.451  0.6264  0.1084  0.1520
  682TIP3    H123605   1.698   5.819   8.499  0.0375  0.3730  1.2168
  682TIP3    H223606   1.608   5.735   8.410  2.0911  0.5493 -1.1596
  683TIP3   OH223607   0.176   6.627   1.670  0.7722 -0.6601  0.5657
  683TIP3    H123608   0.246   6.625   1.736  0.6240 -0.5455  0.7281
  683TIP3    H223609   0.119   6.554   1.693  0.7549 -0.6593  0.5254
  684TIP3   OH223610   5.053   0.261   8.433  0.1895 -0.4580 -0.5633
  684TIP3    H123611   5.069   0.166   8.428  2.3093 -0.1037 -1.6640
  684TIP3    H223612   4.965   0.272   8.396 -0.8480 -2.1311  1.2363
  685TIP3   OH223613   1.569   4.427   1.040 -0.3077 -0.8069  0.1754
  685TIP3    H123614   1.663   4.422   1.059 -0.2276 -2.1950 -0.5080
  685TIP3    H223615   1.546   4.519   1.058  1.2297 -0.3757  0.0731
  686TIP3   OH223616   1.775   3.434   8.202 -0.2611 -0.2330 -0.0197
  686TIP3    H123617   1.750   3.492   8.273 -2.4278 -0.6612 -0.3760
  686TIP3    H223618   1.828   3.366   8.244  0.1831  0.6103  0.8097
  687TIP3   OH223619   4.258   0.367   6.524  0.2526  0.1231  0.3645
  687TIP3    H123620   4.238   0.286   6.571 -1.5952 -1.7891 -3.2485
  687TIP3    H223621   4.178   0.418   6.527 -0.2565 -0.4908 -1.3500
  688TIP3   OH223622   6.456   2.402   0.707  0.0977 -0.3264 -0.1575
  688TIP3    H123623   6.517   2.473   0.727  0.0341 -0.5025  0.7243
  688TIP3    H223624   6.498   2.324   0.744  0.2125 -0.7675 -1.2010
  689TIP3   OH223625   6.739   4.627   0.476  0.2578 -0.4264 -0.0381
  689TIP3    H123626   6.732   4.629   0.571 -0.3010 -0.8428 -0.0638
  689TIP3    H223627   6.679   4.695   0.446 -1.9778 -2.2970 -0.1709
  690TIP3   OH223628   6.570   0.058   1.840 -0.0724 -0.3533 -0.4276
  690TIP3    H123629   6.481   0.032   1.862 -0.3924 -0.7975 -2.0923
  690TIP3    H223630   6.568   0.073   1.745  2.0415 -2.2144 -0.8598
  691TIP3   OH223631   6.161   5.560   8.428  0.0889  0.1495 -0.0336
  691TIP3    H123632   6.185   5.651   8.445 -0.1948  0.8455 -2.8601
  691TIP3    H223633   6.245   5.514   8.423  0.2079 -0.0144  2.3307
  692TIP3   OH223634   4.419   5.610   0.480 -0.0843 -0.4253  0.1915
  692TIP3    H123635   4.486   5.544   0.466  0.2379 -0.2114  0.6919
  692TIP3    H223636   4.346   5.582   0.425 -0.0639 -1.3654  0.6119
  693TIP3   OH223637   0.233   0.092   7.059  0.3243  0.2642  0.1812
  693TIP3    H123638   0.308   0.148   7.078  1.4821 -1.3459  0.6374
  693TIP3    H223639   0.177   0.101   7.136 -0.0627  1.6018 -0.2312
  694TIP3   OH223640   6.285   4.287   7.445 -0.6794 -0.2681 -0.0689
  694TIP3    H123641   6.282   4.324   7.356 -1.1031  1.8075  0.7400
  694TIP3    H223642   6.377   4.293   7.470 -0.7564  0.3413  0.0831
  695TIP3   OH223643   0.580   2.875   0.648 -1.0075  0.6741  0.1806
  695TIP3    H123644   0.549   2.950   0.698 -0.5392 -0.2454  1.8988
  695TIP3    H223645   0.650   2.836   0.701 -0.2536 -0.1643 -1.3287
  696TIP3   OH223646   3.902   2.911   2.373  0.6146 -0.0550 -0.4103
  696TIP3    H123647   3.997   2.908   2.384  0.3937  0.0229  1.9804
  696TIP3    H223648   3.869   2.840   2.427 -0.7645  0.6610 -0.2623
  697TIP3   OH223649   2.177   5.404   8.785 -0.4961  0.0734  0.8321
  697TIP3    H123650   2.264   5.375   8.756 -0.5606 -1.6792  2.1512
  697TIP3    H223651   2.188   5.496   8.806  1.0710 -0.1155  0.9801
  698TIP3   OH223652   2.864   4.571   1.464 -0.1136 -0.3526  0.1722
  698TIP3    H123653   2.832   4.642   1.408  0.7132 -0.4891 -0.4969
  698TIP3    H223654   2.955   4.593   1.482 -0.0703 -0.8548  0.5944
  699TIP3   OH223655   5.144   5.345   0.290 -0.0013 -0.8365 -0.4602
  699TIP3    H123656   5.130   5.286   0.365 -1.6577 -0.3206 -0.3215
  699TIP3    H223657   5.167   5.428   0.330  1.2002 -1.0782 -0.6184
  700TIP3   OH223658   5.238   6.159   7.329  0.0597  0.1056  0.2186
  700TIP3    H123659   5.204   6.097   7.264  1.1253  0.8296 -1.0871
  700TIP3    H223660   5.332   6.161   7.313  0.0561  2.0585  0.1906
  701TIP3   OH223661   5.419   3.903   6.380 -0.0712 -0.3525  0.3715
  701TIP3    H123662   5.386   3.858   6.302 -0.8849  0.6688  0.1097
  701TIP3    H223663   5.345   3.907   6.439  0.5650 -1.1877  1.2554
  702TIP3   OH223664   6.359   6.400   6.978  0.1470  0.1744 -0.0622
  702TIP3    H123665   6.305   6.447   6.915  0.5531  1.9565  0.8538
  702TIP3    H223666   6.427   6.462   7.002 -0.7129  0.0763  3.0667
  703TIP3   OH223667   6.651   0.590   1.161  0.8943 -0.1553 -0.6759
  703TIP3    H123668   6.599   0.581   1.241  1.8290  0.9635  0.0843
  703TIP3    H223669   6.651   0.502   1.122 -3.1875  0.1238 -1.7764
  704TIP3   OH223670   6.610   2.653   1.155 -0.3501 -0.1303  0.2576
  704TIP3    H123671   6.576   2.569   1.123 -0.3819 -1.4354  3.3613
  704TIP3    H223672   6.696   2.662   1.113 -1.2681 -0.5578 -1.8312
  705TIP3   OH223673   5.873   5.273   0.444  0.6569  0.2453 -0.6136
  705TIP3    H123674   5.955   5.232   0.473 -0.3698 -1.4810  0.0281
  705TIP3    H223675   5.901   5.349   0.394  2.6297  0.4281  0.6268
  706TIP3   OH223676   0.506   3.417   1.448  0.5301 -0.3785  0.2460
  706TIP3    H123677   0.424   3.368   1.454  0.7761 -0.9927 -1.1228
  706TIP3    H223678   0.575   3.351   1.456  0.8786 -0.0549 -0.0407
  707TIP3   OH223679   2.502   6.623   0.018  0.0196  0.2388 -0.4359
  707TIP3    H123680   2.542   6.553  -0.034 -0.6278 -0.7063  0.2834
  707TIP3    H223681   2.557   6.629   0.096  1.7750  2.5689 -1.7246
  708TIP3   OH223682   1.784   3.723   0.500  0.5187 -0.3885  0.3276
  708TIP3    H123683   1.749   3.811   0.492 -1.0805 -1.1122 -1.5033
  708TIP3    H223684   1.735   3.683   0.572 -0.2093 -0.4110 -0.1786
  709TIP3   OH223685   4.645   4.170   8.479 -0.0364 -0.1411 -0.0388
  709TIP3    H123686   4.632   4.080   8.447 -3.6532  0.6539 -1.3400
  709TIP3    H223687   4.654   4.161   8.574 -1.5501 -1.8622  0.0080
  710TIP3   OH223688   5.793   2.761   1.045 -0.0340  0.1465 -0.4906
  710TIP3    H123689   5.756   2.712   0.972  1.4476  0.3102 -1.3756
  710TIP3    H223690   5.717   2.798   1.090 -0.9512  0.8768 -2.5286
  711TIP3   OH223691   5.747   1.654   1.220  0.5690  0.0646  0.0337
  711TIP3    H123692   5.813   1.712   1.183  0.6150 -1.1461 -1.9277
  711TIP3    H223693   5.796   1.590   1.271  0.5994  1.0302  1.2782
  712TIP3   OH223694   2.251   3.771   2.296 -0.1505  0.2398  0.2309
  712TIP3    H123695   2.156   3.764   2.286 -0.5415  0.0962  3.2176
  712TIP3    H223696   2.283   3.683   2.275 -0.5246  0.4832 -1.5523
  713TIP3   OH223697   6.209   4.246   8.485  0.4495 -0.2994  0.4237
  713TIP3    H123698   6.153   4.235   8.562 -1.8096  1.4423 -0.8375
  713TIP3    H223699   6.230   4.157   8.457 -1.0580 -1.0088  1.4360
  714TIP3   OH223700   4.092   4.771   7.355  0.2366 -0.0086 -0.1867
  714TIP3    H123701   4.035   4.781   7.432 -1.0471 -1.4121 -0.8979
  714TIP3    H223702   4.118   4.860   7.333 -0.1354  0.5014  1.3105
  715TIP3   OH223703   1.186   6.307   8.163 -0.2923 -0.1189 -0.3529
  715TIP3    H123704   1.240   6.268   8.094  0.6716 -1.2564  0.9968
  715TIP3    H223705   1.153   6.233   8.213 -1.3816  0.6703  0.1319
  716TIP3   OH223706   4.461   3.196   1.322 -0.1012  0.0833 -0.4765
  716TIP3    H123707   4.425   3.266   1.268  0.6169  0.3747 -0.5918
  716TIP3    H223708   4.547   3.177   1.283  0.5016  0.4118  0.6310
  717TIP3   OH223709   0.800   5.669   8.451 -0.3031  0.0633  0.9499
  717TIP3    H123710   0.883   5.703   8.483 -0.4476  0.1369  1.2511
  717TIP3    H223711   0.799   5.578   8.478  0.3532 -0.3711 -0.3857
  718TIP3   OH223712   2.271   6.757   2.476 -0.0363  0.1999 -0.3490
  718TIP3    H123713   2.316   6.833   2.514  1.7654 -1.2442  0.5864
  718TIP3    H223714   2.341   6.694   2.461 -1.6358 -1.7539  0.0737
  719TIP3   OH223715   3.129   5.254   0.692 -0.0119  0.0326  0.1456
  719TIP3    H123716   3.057   5.200   0.726 -0.2147  0.6460  0.7256
  719TIP3    H223717   3.170   5.290   0.770 -0.0833  0.9660 -0.2329
  720TIP3   OH223718   0.655   5.118   1.537 -0.0662  0.6139  0.6998
  720TIP3    H123719   0.673   5.060   1.463  2.8561  0.9472  1.0007
  720TIP3    H223720   0.665   5.063   1.614 -0.6561  0.7972  0.9117
  721TIP3   OH223721   5.223   5.776   0.190 -0.1533  0.3256  0.1541
  721TIP3    H123722   5.284   5.708   0.159  0.3993  0.3802  1.0965
  721TIP3    H223723   5.157   5.728   0.240 -0.6140  0.3265 -0.4364
  722TIP3   OH223724   4.738   3.461   8.282  1.0786  0.3734 -0.1914
  722TIP3    H123725   4.812   3.460   8.222  3.4360  1.4402  2.5276
  722TIP3    H223726   4.691   3.542   8.262  1.0126  0.0450 -1.4429
  723TIP3   OH223727   0.701   6.641   1.773  0.3529 -0.6306 -0.1964
  723TIP3    H123728   0.642   6.699   1.724  1.0499 -0.0823 -0.3937
  723TIP3    H223729   0.754   6.599   1.705  0.5311 -0.7431  0.0136
  724TIP3   OH223730   6.084   6.639   1.691 -0.3534  0.5791  0.2895
  724TIP3    H123731   6.118   6.556   1.724  0.2359  0.1389 -1.3296
  724TIP3    H223732   5.990   6.634   1.705 -0.2101  0.1150  1.1859
  725TIP3   OH223733   1.883   1.979   7.591  0.4201  0.2845  0.9166
  725TIP3    H123734   1.896   2.007   7.501 -0.3249 -0.5329  0.5375
  725TIP3    H223735   1.843   1.892   7.584  0.9989 -0.1021  2.0365
  726TIP3   OH223736   4.191   1.733   0.874  0.4332  0.3345 -0.2897
  726TIP3    H123737   4.201   1.641   0.896  0.2081  0.4068  0.1248
  726TIP3    H223738   4.247   1.746   0.797  2.2969  0.3883  1.0187
  727TIP3   OH223739   0.576   4.087   7.620 -0.2413 -0.1873  0.2101
  727TIP3    H123740   0.525   4.154   7.666  1.8442  1.3483  0.4559
  727TIP3    H223741   0.511   4.033   7.576 -2.0622  1.6185  0.5461
  728TIP3   OH223742   2.785   5.429   1.329 -0.7246  0.2077  0.3703
  728TIP3    H123743   2.695   5.396   1.323  0.0272 -2.0026  0.5888
  728TIP3    H223744   2.832   5.385   1.258 -0.4970  4.1168 -2.2095
  729TIP3   OH223745   4.034   4.527   7.223  0.0004  0.0972  0.0419
  729TIP3    H123746   3.947   4.541   7.186  1.3229  0.0098 -3.5062
  729TIP3    H223747   4.052   4.606   7.273 -1.0214  1.4466 -1.6066
  730TIP3   OH223748   4.102   5.303   0.642 -0.2023 -0.4595 -0.1419
  730TIP3    H123749   4.139   5.385   0.675 -1.3345  0.0499 -0.0902
  730TIP3    H223750   4.087   5.319   0.548 -1.2620 -0.2658  0.0437
  731TIP3   OH223751   6.743   0.171   1.156  0.3816  0.1268  0.7698
  731TIP3    H123752   6.792   0.093   1.129 -1.5470 -0.0807 -2.8025
  731TIP3    H223753   6.672   0.137   1.210  0.1956 -0.4850  0.1582
  732TIP3   OH223754   4.454   1.425   0.684 -0.5595  0.0464 -0.3409
  732TIP3    H123755   4.386   1.483   0.650 -0.6053 -0.3327 -0.9173
  732TIP3    H223756   4.532   1.480   0.688 -0.0433 -0.3612 -2.9762
  733TIP3   OH223757   6.036   4.220   1.616  0.4095  0.6991  0.0690
  733TIP3    H123758   6.040   4.302   1.566  1.6251  0.2076 -0.6741
  733TIP3    H223759   6.048   4.151   1.550  0.6971 -0.0203  0.8606
  734TIP3   OH223760   0.038   1.480   8.129  0.0725  0.2478 -0.1864
  734TIP3    H123761   0.026   1.562   8.082 -1.7254  0.1609  0.0394
  734TIP3    H223762   0.003   1.413   8.070 -2.1489  0.1319  1.1148
  735TIP3   OH223763   5.260   0.398   1.460  0.4928  0.1030  0.4927
  735TIP3    H123764   5.354   0.415   1.451  0.0661  2.8128  0.2280
  735TIP3    H223765   5.233   0.454   1.533 -0.8100 -1.2098  1.0640
  736TIP3   OH223766   0.494   3.953   0.730 -0.3021 -0.1663  0.0942
  736TIP3    H123767   0.571   4.000   0.699  0.3560 -0.3593  1.3638
  736TIP3    H223768   0.524   3.905   0.807 -1.8171  0.1900  0.9629
  737TIP3   OH223769   4.692   0.034   0.187 -0.0964 -0.0044  0.1551
  737TIP3    H123770   4.743   0.110   0.215  1.6434 -0.9949 -0.1636
  737TIP3    H223771   4.623   0.070   0.131  1.9986  1.1972 -1.8313
  738TIP3   OH223772   3.261   4.079   0.411 -0.0639  0.0766  0.2386
  738TIP3    H123773   3.321   4.004   0.422  0.0613  0.1004 -0.2431
  738TIP3    H223774   3.184   4.042   0.368  0.1516  0.2850 -0.3449
  739TIP3   OH223775   2.105   1.234   7.487 -0.1919 -0.0380  0.1551
  739TIP3    H123776   2.093   1.329   7.494  0.4023  0.1993 -1.4673
  739TIP3    H223777   2.130   1.220   7.395  2.1194 -1.5127  0.9412
  740TIP3   OH223778   1.096   2.808   1.220  0.2890 -0.5655 -0.4510
  740TIP3    H123779   1.151   2.855   1.282  0.3420  0.0402 -0.9495
  740TIP3    H223780   1.064   2.876   1.160  0.5123 -1.1857 -1.2902
  741TIP3   OH223781   1.905   3.411   8.495 -0.3334 -0.2986 -0.9534
  741TIP3    H123782   1.955   3.372   8.567 -0.0425  1.4279 -0.1491
  741TIP3    H223783   1.830   3.452   8.538  0.2181  1.3775 -1.5138
  742TIP3   OH223784   6.620   0.256   0.182  0.0214 -0.1114  0.0653
  742TIP3    H123785   6.657   0.344   0.173  1.1067 -0.6632 -1.1841
  742TIP3    H223786   6.686   0.208   0.231 -0.4151 -0.3321  0.4422
  743TIP3   OH223787   2.236   1.004   0.858  0.1312 -0.0726 -0.4149
  743TIP3    H123788   2.157   0.951   0.846 -0.3753  0.4114  0.6245
  743TIP3    H223789   2.218   1.057   0.936  1.1398  0.6881 -0.6736
  744TIP3   OH223790   2.235   2.048   8.435 -0.1956 -0.5652  0.0184
  744TIP3    H123791   2.189   1.994   8.500  2.7498 -2.2638  0.9247
  744TIP3    H223792   2.294   2.102   8.487 -0.8111  1.2584 -1.1015
  745TIP3   OH223793   6.343   6.743   0.759  0.2148  0.2704  0.3188
  745TIP3    H123794   6.370   6.734   0.850 -2.1038 -1.0814  0.9538
  745TIP3    H223795   6.262   6.795   0.763  0.2894  0.5236 -0.9949
  746TIP3   OH223796   1.015   1.369   0.902 -0.4694 -0.1264 -0.0136
  746TIP3    H123797   0.951   1.414   0.845 -0.7116 -0.1109  0.2680
  746TIP3    H223798   0.967   1.352   0.983 -0.0418  0.0977  0.2896
  747TIP3   OH223799   0.033   6.784   0.665  0.3227 -0.1527 -0.3773
  747TIP3    H123800  -0.043   6.732   0.639 -0.5143  0.2329  1.1437
  747TIP3    H223801   0.052   6.755   0.755  2.3368 -0.6193 -0.8890
  748TIP3   OH223802   3.873   4.945   1.259 -0.5057  0.2047 -0.1798
  748TIP3    H123803   3.814   4.972   1.189 -0.4339  1.9013  0.3688
  748TIP3    H223804   3.929   5.021   1.274  0.2747 -0.5504  0.9056
  749TIP3   OH223805   0.474   6.406   7.094 -0.7887 -0.3505 -0.3184
  749TIP3    H123806   0.391   6.388   7.137 -1.6054 -0.4126 -1.8568
  749TIP3    H223807   0.453   6.470   7.026  0.2960 -0.7874 -1.0967
  750TIP3   OH223808   2.860   2.403   1.866 -0.2203  0.2314 -1.0902
  750TIP3    H123809   2.945   2.440   1.845 -0.2668  1.8201  1.2083
  750TIP3    H223810   2.842   2.431   1.956 -3.4420  0.4950 -1.6793
  751TIP3   OH223811   5.782   4.231   8.490 -0.1374  0.2982 -0.2854
  751TIP3    H123812   5.827   4.227   8.406 -1.6988  1.0378 -1.2108
  751TIP3    H223813   5.793   4.144   8.528  1.6144  0.3143 -0.6670
  752TIP3   OH223814   5.152   6.754   1.123 -0.6156  0.4814 -0.3762
  752TIP3    H123815   5.163   6.838   1.169 -0.9629 -0.1606  0.9333
  752TIP3    H223816   5.225   6.701   1.153 -1.4132 -0.2933  0.2706
  753TIP3   OH223817   1.040   4.232   7.184 -0.3565  0.1123 -0.3006
  753TIP3    H123818   1.016   4.243   7.092  2.7671  2.1998 -1.0299
  753TIP3    H223819   1.064   4.140   7.192 -0.8026 -0.1329 -1.5624
  754TIP3   OH223820   0.956   5.354   7.291 -0.3724  0.0441  0.1057
  754TIP3    H123821   0.991   5.388   7.209  0.7015 -0.8932  0.1554
  754TIP3    H223822   1.030   5.353   7.351 -0.1849 -2.7888 -0.0357
  755TIP3   OH223823   4.469   2.079   7.871  0.1592  0.6002  0.3445
  755TIP3    H123824   4.520   2.072   7.791  1.1752 -1.7130  1.1234
  755TIP3    H223825   4.408   2.152   7.854  0.0928 -0.0275 -2.6212
  756TIP3   OH223826   1.005   5.451   6.326 -0.7766  0.3508 -0.4811
  756TIP3    H123827   0.975   5.376   6.275  0.6872 -1.1389  0.7432
  756TIP3    H223828   1.062   5.500   6.267 -0.1169 -0.6429 -0.6812
  757TIP3   OH223829   4.130   4.275   6.532 -0.3430 -0.2228 -0.0669
  757TIP3    H123830   4.051   4.297   6.581 -0.2959  1.3097 -0.6217
  757TIP3    H223831   4.193   4.344   6.556 -0.1787  0.3157 -1.8845
  758TIP3   OH223832   6.549   5.469   7.596  0.2355  0.1550 -0.2027
  758TIP3    H123833   6.539   5.390   7.649  0.2000  0.8344  0.8204
  758TIP3    H223834   6.614   5.445   7.530  0.8867 -0.4607  0.6386
  759TIP3   OH223835   2.572   0.122   0.525  0.4857  0.3750 -0.7432
  759TIP3    H123836   2.504   0.117   0.458  0.0039 -0.5235 -0.2140
  759TIP3    H223837   2.651   0.147   0.478 -0.4851  2.9895 -1.1440
  760TIP3   OH223838   3.375   4.056   0.801 -0.5596  0.2096 -0.1464
  760TIP3    H123839   3.287   4.073   0.837 -0.1459 -1.6188  1.9232
  760TIP3    H223840   3.433   4.060   0.877  0.9166 -0.2461 -1.2151
  761TIP3   OH223841   2.842   5.392   0.122 -0.3774 -0.4021 -0.2920
  761TIP3    H123842   2.817   5.390   0.029 -0.5932  0.5157 -0.2661
  761TIP3    H223843   2.846   5.300   0.148 -0.8892 -0.6530 -1.0659
  762TIP3   OH223844   2.464   4.825   8.796 -0.2573 -0.2639 -0.3940
  762TIP3    H123845   2.385   4.879   8.807  0.2232  0.4528 -0.3548
  762TIP3    H223846   2.530   4.886   8.763  0.6314 -0.5527  0.7487
  763TIP3   OH223847   6.123   5.828   8.784  0.0719  0.1379 -0.0787
  763TIP3    H123848   6.069   5.881   8.725  0.1099 -0.7050 -0.8837
  763TIP3    H223849   6.198   5.802   8.731 -0.0229 -0.8597  0.2629
  764TIP3   OH223850   3.491   6.214   0.706 -0.1739  0.5649  0.1802
  764TIP3    H123851   3.445   6.136   0.739 -1.2157  1.2597  0.3955
  764TIP3    H223852   3.550   6.179   0.638 -1.6287 -0.2588 -0.7167
  765TIP3   OH223853   4.683   2.034   0.335 -0.3264 -0.3468  0.0247
  765TIP3    H123854   4.723   2.106   0.286  2.5385 -2.1374 -0.5360
  765TIP3    H223855   4.610   2.005   0.281  0.9057 -0.3342 -1.7095
  766TIP3   OH223856   4.894   2.558   8.274  0.2884 -0.0183 -0.4507
  766TIP3    H123857   4.826   2.496   8.249  1.6154 -1.8078  0.1630
  766TIP3    H223858   4.857   2.644   8.255 -1.2080 -1.0196 -2.3875
  767TIP3   OH223859   2.964   4.754   0.190 -0.1031  0.1882  0.2260
  767TIP3    H123860   2.895   4.727   0.130 -0.6153  0.2857  0.7568
  767TIP3    H223861   2.956   4.694   0.264 -1.4131  1.8569  1.5414
  768TIP3   OH223862   3.998   2.428   7.751 -0.2297  0.6445  0.3542
  768TIP3    H123863   4.072   2.479   7.785 -1.2909  1.6945  1.1303
  768TIP3    H223864   3.932   2.433   7.820 -0.5316 -1.4608  0.2840
  769TIP3   OH223865   1.835   4.836   8.240 -0.2248  0.3569 -0.9117
  769TIP3    H123866   1.813   4.929   8.230 -0.2989  0.3996 -0.3924
  769TIP3    H223867   1.761   4.790   8.200 -1.6316  0.4928  1.3341
  770TIP3   OH223868   6.446   1.626   1.174  0.2404 -0.1933 -0.0799
  770TIP3    H123869   6.371   1.575   1.206 -0.3205  1.0977  0.7479
  770TIP3    H223870   6.507   1.560   1.141 -0.7042 -1.3616  0.4221
  771TIP3   OH223871   6.444   5.904   8.462 -0.3012  0.1073 -0.3142
  771TIP3    H123872   6.534   5.889   8.433 -0.6470 -2.4111 -0.3217
  771TIP3    H223873   6.390   5.872   8.389 -1.1625 -3.5005  1.6337
  772TIP3   OH223874   3.263   5.366   0.915  0.3994 -0.2051  0.3544
  772TIP3    H123875   3.277   5.434   0.980  1.5502  0.6263 -0.7224
  772TIP3    H223876   3.320   5.294   0.943  1.1785  0.2946  0.0626
  773TIP3   OH223877   6.663   4.028   0.306  0.0273 -0.2606 -0.4280
  773TIP3    H123878   6.705   3.949   0.273 -0.8546 -0.5027 -1.0303
  773TIP3    H223879   6.735   4.088   0.326  0.6415 -0.5714 -1.6401
  774TIP3   OH223880   1.546   3.550   6.847 -0.1064 -0.3395 -0.5890
  774TIP3    H123881   1.595   3.632   6.857 -0.3225 -0.3050  0.2330
  774TIP3    H223882   1.557   3.505   6.930  0.5145 -1.4349 -1.2417
  775TIP3   OH223883   3.595   0.286   8.122  0.0552  0.0934 -0.3507
  775TIP3    H123884   3.524   0.223   8.138  0.3023 -0.2379 -0.5520
  775TIP3    H223885   3.667   0.233   8.089  1.4198 -0.0571  2.5332
  776TIP3   OH223886   2.965   3.950   0.453  0.4579  0.0956  0.0076
  776TIP3    H123887   2.916   3.871   0.430 -1.0465  0.1934  2.4594
  776TIP3    H223888   3.033   3.920   0.513  0.2370  0.5706  0.5096
  777TIP3   OH223889   2.656   0.893   8.662 -0.5928  0.1708 -0.3559
  777TIP3    H123890   2.726   0.954   8.679 -0.0781 -0.7402  0.9516
  777TIP3    H223891   2.585   0.946   8.625  0.2291  1.3382 -0.2798
  778TIP3   OH223892   3.386   5.041   6.195  0.5684  0.7804  0.6829
  778TIP3    H123893   3.330   5.116   6.214 -1.1605 -0.1731 -0.3907
  778TIP3    H223894   3.335   4.965   6.224  1.0758 -0.1472 -0.7425
  779TIP3   OH223895   1.297   1.678   7.455 -0.0941  0.1718 -0.1615
  779TIP3    H123896   1.387   1.655   7.430 -0.7093 -2.5627 -0.1585
  779TIP3    H223897   1.251   1.688   7.371  0.1386  1.3951 -0.1603
  780TIP3   OH223898   1.999   2.917   6.922 -0.5919  0.1054 -0.0387
  780TIP3    H123899   1.976   2.859   6.849  2.9675 -2.4202  0.5514
  780TIP3    H223900   2.008   3.003   6.881  1.3074 -1.2088 -2.7497
  781TIP3   OH223901   0.201   6.305   8.557  0.1677  0.9405 -0.1407
  781TIP3    H123902   0.250   6.229   8.524  1.4431  0.7854  1.9392
  781TIP3    H223903   0.122   6.306   8.504  1.8378  0.5033 -2.8844
  782TIP3   OH223904   6.488   3.456   1.819  0.0899  0.0976 -0.4275
  782TIP3    H123905   6.450   3.375   1.853 -0.9082  0.8671  0.3803
  782TIP3    H223906   6.582   3.447   1.835 -0.3103  0.5380  3.0089
  783TIP3   OH223907   2.167   5.842   8.194 -0.2015 -0.4356  0.0779
  783TIP3    H123908   2.095   5.780   8.184 -0.5034 -0.0254 -0.3238
  783TIP3    H223909   2.124   5.927   8.202  0.2872 -0.0228 -1.4881
  784TIP3   OH223910   3.857   0.889   7.585  0.3695 -0.0339 -0.0159
  784TIP3    H123911   3.913   0.894   7.507 -0.0655 -0.2156 -0.3502
  784TIP3    H223912   3.782   0.945   7.563  1.0695  1.3368  0.9878
  785TIP3   OH223913   0.910   4.749   7.891 -0.5660  0.1720 -0.3402
  785TIP3    H123914   0.818   4.738   7.867 -0.6833 -1.2611  0.6738
  785TIP3    H223915   0.959   4.712   7.817 -0.8961 -2.4762  0.6859
  786TIP3   OH223916   0.657   1.036   1.366  0.0476  0.0783 -0.0966
  786TIP3    H123917   0.699   1.122   1.367 -1.3137  0.7658 -0.0049
  786TIP3    H223918   0.722   0.978   1.327  1.1792  1.0397  0.3070
  787TIP3   OH223919   1.162   2.311   1.160 -0.7826 -0.9413 -0.5875
  787TIP3    H123920   1.124   2.383   1.209 -1.4686 -1.0852 -0.8996
  787TIP3    H223921   1.248   2.297   1.201 -1.4563 -1.2677  0.7829
  788TIP3   OH223922   5.484   4.294   7.531 -0.6708 -0.6365 -0.4544
  788TIP3    H123923   5.552   4.278   7.466  0.4187 -0.2505  0.5495
  788TIP3    H223924   5.465   4.387   7.525  0.1058 -0.4075  0.3826
  789TIP3   OH223925   3.519   6.427   1.782  0.1984 -0.2195 -0.7070
  789TIP3    H123926   3.552   6.470   1.703 -1.5995  0.4777 -1.1437
  789TIP3    H223927   3.594   6.379   1.817  1.7283  1.5270 -1.4181
  790TIP3   OH223928   4.079   3.829   1.396 -0.2968 -0.1657  0.2870
  790TIP3    H123929   4.074   3.877   1.314 -0.3261 -0.0101  0.3772
  790TIP3    H223930   4.086   3.737   1.371 -1.1775 -0.1934  0.1167
  791TIP3   OH223931   4.180   0.183   8.595  0.3629 -0.0561 -0.2729
  791TIP3    H123932   4.147   0.180   8.506  1.0515  0.9442 -0.5817
  791TIP3    H223933   4.160   0.271   8.626  0.3525 -0.3107  0.4682
  792TIP3   OH223934   4.874   0.950   1.263 -0.1775  0.2857  0.7163
  792TIP3    H123935   4.874   0.959   1.167 -0.8784 -2.1678  0.4200
  792TIP3    H223936   4.783   0.960   1.288 -0.2105 -0.5317  0.9389
  793TIP3   OH223937   1.667   2.658   8.703  0.0762  0.1926 -0.7569
  793TIP3    H123938   1.731   2.603   8.749  0.8939 -0.5314 -2.6468
  793TIP3    H223939   1.690   2.649   8.611 -1.7769  1.2156 -1.3702
  794TIP3   OH223940   6.366   1.517   2.057  0.4347 -0.3646 -0.6376
  794TIP3    H123941   6.274   1.508   2.030 -0.2267 -1.0622  1.6079
  794TIP3    H223942   6.408   1.437   2.025 -0.4701 -1.4764  0.7838
  795TIP3   OH223943   1.731   4.190   8.395 -0.0020 -0.0626 -0.5355
  795TIP3    H123944   1.666   4.251   8.357  0.2767  0.2455 -0.5230
  795TIP3    H223945   1.721   4.110   8.343  0.0992  0.2239 -1.0067
  796TIP3   OH223946   3.124   4.615   8.840  0.7002 -0.6382  0.4062
  796TIP3    H123947   3.204   4.621   8.893 -0.3230 -0.5618  1.9900
  796TIP3    H223948   3.060   4.574   8.897 -0.5661 -0.2192 -0.6682
  797TIP3   OH223949   6.145   3.191   0.440 -0.2376 -0.6154 -0.6640
  797TIP3    H123950   6.055   3.169   0.465 -0.2306 -0.7470 -0.7572
  797TIP3    H223951   6.169   3.263   0.499 -0.5468 -0.3024 -0.9119
  798TIP3   OH223952   0.574   6.782   2.859 -0.3063 -0.3700  0.5732
  798TIP3    H123953   0.595   6.851   2.796  1.7114 -1.7867 -0.3971
  798TIP3    H223954   0.652   6.727   2.862 -2.0323 -2.9797  0.8656
  799TIP3   OH223955   5.684   5.910   6.802  0.5410 -0.2041 -0.5544
  799TIP3    H123956   5.711   5.900   6.893 -2.6143 -0.5475  0.4730
  799TIP3    H223957   5.698   6.002   6.783 -2.8749  1.0672  1.9596
  800TIP3   OH223958   1.638   4.366   8.768 -0.7267 -0.3691 -0.1232
  800TIP3    H123959   1.578   4.368   8.843 -0.2510 -2.7962  0.3982
  800TIP3    H223960   1.707   4.428   8.792 -1.9421  0.9010  0.2061
  801TIP3   OH223961   5.952   1.409   8.411 -0.1087  0.1930 -0.4231
  801TIP3    H123962   5.912   1.495   8.404  0.9270  0.7459  0.1863
  801TIP3    H223963   5.903   1.365   8.481  0.4262  0.9232  0.4305
  802TIP3   OH223964   3.758   1.633   1.209 -0.5674  0.0658  0.2983
  802TIP3    H123965   3.846   1.598   1.196 -0.2764  0.4364  1.1647
  802TIP3    H223966   3.706   1.596   1.138  0.5600  0.8096 -0.9664
  803TIP3   OH223967   0.945   0.848   8.383  0.0686  0.7631  0.0317
  803TIP3    H123968   0.988   0.879   8.463  0.0171  0.4472  0.1826
  803TIP3    H223969   1.002   0.877   8.312  1.0036 -0.4098  0.2706
  804TIP3   OH223970   4.468   1.273   7.707  0.5102  0.3157  0.3321
  804TIP3    H123971   4.447   1.315   7.624  0.5440  0.8516  0.5949
  804TIP3    H223972   4.419   1.323   7.772 -2.5440 -2.2728  0.3030
  805TIP3   OH223973   1.862   1.948   8.276 -0.3202  0.0309  0.1060
  805TIP3    H123974   1.779   1.994   8.260 -0.3342  0.1993  0.6648
  805TIP3    H223975   1.926   1.995   8.223 -0.4251  0.4100  0.3147
  806TIP3   OH223976   5.061   2.522   0.695  0.1413  0.1666 -0.3161
  806TIP3    H123977   5.137   2.466   0.680  0.2347  0.0078  0.6618
  806TIP3    H223978   5.009   2.514   0.616  0.4137 -0.8919 -0.4013
  807TIP3   OH223979   0.542   0.861   1.921  0.6981  0.1236 -0.8786
  807TIP3    H123980   0.527   0.805   1.845 -0.4322  0.5229 -0.9605
  807TIP3    H223981   0.559   0.948   1.884  0.9878  0.1497 -0.6943
  808TIP3   OH223982   3.199   1.495   0.673  0.0084  0.1159 -0.5370
  808TIP3    H123983   3.239   1.492   0.761 -0.5413  0.1298 -0.2846
  808TIP3    H223984   3.251   1.432   0.622 -0.8623 -1.3456  0.3120
  809TIP3   OH223985   4.428   6.001   0.775 -0.2293 -0.4402 -0.0446
  809TIP3    H123986   4.505   5.947   0.758  0.5979  0.7496 -0.2177
  809TIP3    H223987   4.450   6.048   0.856 -1.0841 -0.6081  0.3006
  810TIP3   OH223988   1.477   3.681   0.734 -0.1361  0.1593  0.7852
  810TIP3    H123989   1.556   3.631   0.754  1.1818  1.8339 -0.0117
  810TIP3    H223990   1.416   3.617   0.696  0.5723 -1.2801  1.9876
  811TIP3   OH223991   5.371   1.731   8.641 -0.0898 -0.9230  0.7047
  811TIP3    H123992   5.459   1.695   8.638  0.4745  0.3890  0.7145
  811TIP3    H223993   5.366   1.787   8.563 -1.7877 -2.8593 -0.6801
  812TIP3   OH223994   2.371   2.797   2.348 -0.2405 -0.1542 -0.0558
  812TIP3    H123995   2.301   2.792   2.283  1.7086  2.8167 -2.7698
  812TIP3    H223996   2.434   2.730   2.320  1.0436  1.7311 -2.1370
  813TIP3   OH223997   1.283   3.427   2.017 -0.2839 -0.2927 -0.7646
  813TIP3    H123998   1.368   3.388   2.038 -0.4004  0.1053  0.5433
  813TIP3    H223999   1.294   3.520   2.036 -2.0070 -0.6819  3.2146
  814TIP3   OH224000   3.484   2.184   0.425 -0.2276 -0.1906  0.1149
  814TIP3    H124001   3.544   2.222   0.360 -0.3932 -0.1735 -0.0281
  814TIP3    H224002   3.504   2.232   0.505 -2.8619  2.8034 -0.8205
  815TIP3   OH224003   0.772   5.583   7.589 -0.5474  0.2011  0.4715
  815TIP3    H124004   0.684   5.617   7.607 -0.4529 -0.5037  2.4496
  815TIP3    H224005   0.757   5.502   7.541 -0.8460  1.5134 -1.8035
  816TIP3   OH224006   1.047   1.372   0.333 -0.4400  0.1037  0.0645
  816TIP3    H124007   1.105   1.301   0.306 -0.0833  0.8901 -1.3129
  816TIP3    H224008   0.978   1.373   0.266 -1.5711 -0.2370  1.1882
  817TIP3   OH224009   6.562   0.776   8.758 -0.1018 -0.0970  0.0113
  817TIP3    H124010   6.618   0.853   8.769  0.5705 -0.5573 -0.1283
  817TIP3    H224011   6.495   0.803   8.696  1.4910 -0.3121 -1.9119
  818TIP3   OH224012   4.990   5.988   1.081 -0.2469  0.2472 -0.0121
  818TIP3    H124013   5.061   6.019   1.137 -0.0989  1.3875 -0.7931
  818TIP3    H224014   4.910   6.013   1.128 -0.1607 -0.7017  0.6835
  819TIP3   OH224015   6.127   1.666   0.705  0.1496  0.1257 -0.3167
  819TIP3    H124016   6.067   1.731   0.742  0.5553  0.7604 -0.7631
  819TIP3    H224017   6.152   1.702   0.620 -0.6352 -1.2334 -1.1532
  820TIP3   OH224018   2.558   3.540   1.257  0.2809  0.2361 -0.1842
  820TIP3    H124019   2.511   3.540   1.340 -0.4621 -0.9769 -0.5729
  820TIP3    H224020   2.615   3.464   1.262 -0.0915 -0.1071 -0.9396
  821TIP3   OH224021   1.053   4.676   8.120  0.2448 -0.4969  0.3279
  821TIP3    H124022   0.996   4.703   8.049 -0.1499 -1.9351  0.0591
  821TIP3    H224023   1.056   4.751   8.179 -0.3476  0.2974 -0.6280
  822TIP3   OH224024   4.849   1.863   2.434 -0.0429 -0.1400 -0.6712
  822TIP3    H124025   4.776   1.910   2.392 -0.4727  0.3354  0.5737
  822TIP3    H224026   4.922   1.873   2.372 -0.8299 -0.0281 -1.6106
  823TIP3   OH224027   3.110   5.460   8.865  0.1219  0.0663 -0.3017
  823TIP3    H124028   3.067   5.374   8.860  0.3139  0.0510 -2.1072
  823TIP3    H224029   3.113   5.491   8.775  1.6955  1.1699  0.0918
  824TIP3   OH224030   0.840   2.764   0.151  0.0719  0.4545  0.2482
  824TIP3    H124031   0.818   2.711   0.075 -0.6609  1.0988 -0.0060
  824TIP3    H224032   0.858   2.701   0.221  1.4954 -0.1616 -0.6455
  825TIP3   OH224033   2.887   3.815   7.338 -0.2047  0.0661 -0.1404
  825TIP3    H124034   2.832   3.740   7.360 -1.6672  0.7968 -1.1526
  825TIP3    H224035   2.976   3.780   7.338 -0.7928 -1.5148  0.0528
  826TIP3   OH224036   5.665   1.845   7.464 -0.2311 -0.1284  0.1616
  826TIP3    H124037   5.734   1.895   7.421 -0.1670  0.7049  1.1855
  826TIP3    H224038   5.585   1.866   7.416  0.0809 -0.4329 -0.5009
  827TIP3   OH224039   1.895   2.331   7.060 -0.0334  0.1589 -0.4130
  827TIP3    H124040   1.939   2.258   7.103 -2.2627  0.4648  2.8095
  827TIP3    H224041   1.836   2.289   6.997  0.0541 -0.7162  0.0621
  828TIP3   OH224042   2.070   3.148   7.574  0.3680 -0.0858  0.0020
  828TIP3    H124043   2.045   3.224   7.628  1.0284  0.0345  0.1474
  828TIP3    H224044   2.159   3.126   7.603 -0.6060 -2.3501  1.5726
  829TIP3   OH224045   1.393   2.797   7.752 -0.2400  0.8090 -1.0963
  829TIP3    H124046   1.469   2.750   7.785 -0.8380  0.0405 -0.7711
  829TIP3    H224047   1.377   2.865   7.817 -0.3720  0.3904 -0.6830
  830TIP3   OH224048   5.506   4.274   0.625 -0.0795  0.3655  0.2176
  830TIP3    H124049   5.468   4.278   0.537 -0.2673 -1.8273  0.1371
  830TIP3    H224050   5.571   4.205   0.619 -0.7462 -0.4772  2.0219
  831TIP3   OH224051   4.885   2.728   8.572  0.1899  0.0070 -0.3305
  831TIP3    H124052   4.939   2.780   8.632 -1.2138  1.2173 -0.0505
  831TIP3    H224053   4.946   2.668   8.531  1.4327  0.0375  1.3450
  832TIP3   OH224054   6.182   5.612   2.084 -0.4031  0.4660  0.3960
  832TIP3    H124055   6.157   5.632   2.175 -0.1309  1.2464  0.3091
  832TIP3    H224056   6.107   5.640   2.032 -1.0936 -1.1486  0.4570
  833TIP3   OH224057   3.495   6.463   7.925  0.1786 -1.0677 -0.2796
  833TIP3    H124058   3.528   6.551   7.942  0.2358 -1.0810 -0.3243
  833TIP3    H224059   3.571   6.414   7.893 -0.0327 -0.9195 -1.0168
  834TIP3   OH224060   6.735   3.682   7.717 -0.8106  0.4406  0.3297
  834TIP3    H124061   6.817   3.656   7.675  0.0271  0.1868  2.0677
  834TIP3    H224062   6.681   3.714   7.645 -0.1501 -1.7096 -1.2286
  835TIP3   OH224063   6.455   2.889   6.635 -0.2361  1.0702  0.1784
  835TIP3    H124064   6.516   2.891   6.561 -0.9369 -1.2226 -0.5626
  835TIP3    H224065   6.369   2.877   6.595 -0.2906 -4.8278  1.1806
  836TIP3   OH224066   6.231   3.382   7.004 -0.7834 -0.5437  0.2891
  836TIP3    H124067   6.238   3.290   7.028  0.3290 -0.8953 -1.2621
  836TIP3    H224068   6.320   3.416   7.010 -1.3295  0.7391  1.8695
  837TIP3   OH224069   5.143   3.034   0.456 -0.0762  0.4981  0.0386
  837TIP3    H124070   5.055   3.069   0.468 -0.0358  0.9612 -0.9126
  837TIP3    H224071   5.186   3.097   0.399  0.1603 -0.8289 -1.3078
  838TIP3   OH224072   4.396   3.675   8.325  0.1531  0.3968 -0.0650
  838TIP3    H124073   4.350   3.686   8.241  1.0788  2.5019 -0.3516
  838TIP3    H224074   4.487   3.661   8.301  0.5042  1.4669  0.5685
  839TIP3   OH224075   5.616   3.366   7.614 -0.3762 -0.2277  0.3057
  839TIP3    H124076   5.562   3.391   7.689  0.2289 -0.4081  0.8141
  839TIP3    H224077   5.625   3.446   7.563 -0.4721 -0.0026  0.6382
  840TIP3   OH224078   1.811   5.588   0.064 -0.3037 -0.3485 -0.1423
  840TIP3    H124079   1.837   5.521   0.127 -1.4366 -0.8930 -0.2254
  840TIP3    H224080   1.731   5.626   0.100 -0.0550  0.5011 -0.4383
  841TIP3   OH224081   6.432   4.614   8.419 -0.0160 -0.0919 -0.1368
  841TIP3    H124082   6.372   4.569   8.478 -0.3226 -0.3600 -0.6456
  841TIP3    H224083   6.377   4.676   8.370  0.4516  1.0797  0.7702
  842TIP3   OH224084   4.059   5.302   8.810  0.6469  0.7061 -0.2617
  842TIP3    H124085   4.115   5.342   8.743  1.3823  0.4479  0.1867
  842TIP3    H224086   4.120   5.253   8.865 -0.3130 -1.8040 -1.3085
  843TIP3   OH224087   0.649   5.368   0.557  0.0399 -0.3122 -0.0080
  843TIP3    H124088   0.661   5.309   0.482  1.0404 -2.2809  1.5911
  843TIP3    H224089   0.573   5.331   0.603  0.5508 -0.2446  0.9051
  844TIP3   OH224090   5.338   0.124   7.990 -0.0355  0.2661  0.2676
  844TIP3    H124091   5.318   0.158   7.903  1.0409  1.2962  0.3979
  844TIP3    H224092   5.434   0.123   7.994 -0.0660 -0.3814  1.2181
  845TIP3   OH224093   2.593   2.287   0.189 -0.1174 -0.3015 -0.2058
  845TIP3    H124094   2.517   2.282   0.131 -0.6495 -0.8330  0.5195
  845TIP3    H224095   2.556   2.307   0.275  0.5948 -0.2152  0.0848
  846TIP3   OH224096   3.499   4.370   1.690 -0.0922 -0.2433 -0.0524
  846TIP3    H124097   3.537   4.376   1.602 -2.5845 -0.9891 -1.2434
  846TIP3    H224098   3.420   4.423   1.686  0.2467  0.5423  2.0977
  847TIP3   OH224099   2.746   1.194   6.945 -0.5866  0.0253 -0.4627
  847TIP3    H124100   2.720   1.208   6.854 -1.1892  0.3137 -0.2536
  847TIP3    H224101   2.683   1.246   6.996 -0.3810 -0.2964  0.1279
  848TIP3   OH224102   3.342   0.174   7.655 -0.0937 -0.1993  0.5043
  848TIP3    H124103   3.263   0.122   7.667 -0.5689  0.8320  2.3181
  848TIP3    H224104   3.351   0.223   7.737  0.5287  2.2712 -0.9381
  849TIP3   OH224105   5.834   3.910   8.195  0.4086 -0.1658 -0.4623
  849TIP3    H124106   5.914   3.915   8.247  1.5166  0.2411 -2.1153
  849TIP3    H224107   5.857   3.953   8.112 -1.8175  0.8109 -0.6400
  850TIP3   OH224108   5.994   4.043   2.531  0.2939  0.2701  0.2924
  850TIP3    H124109   6.011   3.963   2.480 -0.4619 -0.0665  0.5563
  850TIP3    H224110   6.056   4.038   2.604 -0.3096 -0.5113  0.7716
  851TIP3   OH224111   1.230   5.092   8.414 -0.3966 -0.8362 -0.1999
  851TIP3    H124112   1.296   5.023   8.414 -1.3424 -1.7612  0.7424
  851TIP3    H224113   1.178   5.077   8.493 -0.1188  1.4517  0.5059
  852TIP3   OH224114   4.057   0.311   7.513  0.3729  0.1030 -0.2188
  852TIP3    H124115   3.966   0.292   7.489  1.0728 -2.3170 -1.3580
  852TIP3    H224116   4.085   0.377   7.450 -0.2003 -0.1936 -0.8025
  853TIP3   OH224117   4.832   4.502   1.897 -0.6370 -0.2834  0.7553
  853TIP3    H124118   4.757   4.451   1.927 -0.6357 -0.9994 -0.3917
  853TIP3    H224119   4.908   4.448   1.921 -0.6561 -1.1056 -0.8910
  854TIP3   OH224120   0.756   5.106   8.424  0.8474 -0.0915 -0.2263
  854TIP3    H124121   0.670   5.066   8.433  1.6372 -1.6620  0.9590
  854TIP3    H224122   0.751   5.158   8.344 -0.7548 -1.2933 -0.9586
  855TIP3   OH224123   0.031   1.970   7.734  0.0943  0.0067 -0.1538
  855TIP3    H124124   0.123   1.952   7.754  0.2882  1.0846 -0.0213
  855TIP3    H224125  -0.000   2.022   7.808 -0.5144 -0.0351 -0.3754
  856TIP3   OH224126   0.334   4.852   1.841 -0.4595  0.0953  0.0602
  856TIP3    H124127   0.266   4.893   1.788  1.4143 -0.0475 -2.6700
  856TIP3    H224128   0.367   4.780   1.788  1.4817 -0.1479  1.4507
  857TIP3   OH224129   1.845   3.323   7.472 -0.3471  0.5726  0.4215
  857TIP3    H124130   1.905   3.331   7.546 -0.4535  2.6646  0.3542
  857TIP3    H224131   1.891   3.267   7.410  1.7164  2.2643  0.2727
  858TIP3   OH224132   4.380   3.791   1.852 -0.4206  0.0411 -0.1315
  858TIP3    H124133   4.290   3.807   1.825 -0.8945 -0.8044  0.9199
  858TIP3    H224134   4.384   3.818   1.944  0.5985  0.7618 -0.3588
  859TIP3   OH224135   1.168   1.228   8.294  0.2653 -0.0386  0.0399
  859TIP3    H124136   1.248   1.275   8.271  1.6100 -1.9151  0.6869
  859TIP3    H224137   1.196   1.160   8.355 -1.6441 -1.4139 -0.5155
  860TIP3   OH224138   3.706   3.589   8.807  0.5957 -0.3065  1.4839
  860TIP3    H124139   3.632   3.649   8.803  0.6189 -0.2132  2.3991
  860TIP3    H224140   3.666   3.503   8.823  0.5395 -0.6034 -0.1052
  861TIP3   OH224141   0.214   4.723   0.390 -0.2850  0.4388 -0.2953
  861TIP3    H124142   0.188   4.808   0.424 -0.0698  0.9806 -1.4333
  861TIP3    H224143   0.144   4.663   0.416 -0.0406  0.7855  1.2139
  862TIP3   OH224144   0.938   2.249   7.084  0.7855  0.5533 -0.4828
  862TIP3    H124145   0.968   2.266   7.173  1.4101 -0.1512 -0.5524
  862TIP3    H224146   0.844   2.235   7.094  0.7383  1.1126 -0.0318
  863TIP3   OH224147   3.043   4.075   0.224  0.1247  0.5971  0.2307
  863TIP3    H124148   2.991   4.044   0.298  0.3771 -0.4657 -0.0302
  863TIP3    H224149   2.988   4.058   0.147  1.5068 -2.2341 -0.2514
  864TIP3   OH224150   3.762   5.300   7.498 -0.2234 -0.0781  0.0316
  864TIP3    H124151   3.753   5.261   7.585  0.1066 -1.1009 -0.3754
  864TIP3    H224152   3.800   5.230   7.444  1.1106  1.0423 -0.5583
  865TIP3   OH224153   6.123   3.502   0.573 -0.4757  0.1286  0.0164
  865TIP3    H124154   6.170   3.583   0.594  0.8052 -0.3976 -0.6393
  865TIP3    H224155   6.176   3.433   0.614 -0.6803 -0.4833 -0.7301
  866TIP3   OH224156   3.106   1.091   1.176 -0.3942 -0.1642 -0.2401
  866TIP3    H124157   3.154   1.130   1.249 -0.3739 -1.4019  0.4515
  866TIP3    H224158   3.154   1.118   1.098  1.8401 -1.7790  0.4457
  867TIP3   OH224159   0.642   1.955   0.889  0.4865  0.2213  0.6584
  867TIP3    H124160   0.626   1.984   0.979 -0.8235 -1.8233  1.1581
  867TIP3    H224161   0.608   2.026   0.835 -0.0805  0.8402  1.7817
  868TIP3   OH224162   5.615   2.690   0.238 -0.2575 -0.1095 -0.0668
  868TIP3    H124163   5.529   2.729   0.225 -0.8999 -1.0480  1.1937
  868TIP3    H224164   5.599   2.612   0.290  1.5341  0.6732  1.8336
  869TIP3   OH224165   3.110   4.394   8.642 -0.3998 -0.8257  0.3112
  869TIP3    H124166   3.115   4.461   8.710 -0.0531 -0.6329  0.0960
  869TIP3    H224167   3.021   4.400   8.608  0.3251  1.2065 -1.4097
  870TIP3   OH224168   2.631   2.467   1.728 -0.1425  0.1675  0.0668
  870TIP3    H124169   2.548   2.425   1.750 -1.3243  3.0339  1.5301
  870TIP3    H224170   2.696   2.422   1.782 -1.0677 -0.6806  0.5111
  871TIP3   OH224171   2.936   1.949   2.486  0.5290 -0.0579  0.6756
  871TIP3    H124172   2.934   2.005   2.564  0.1645 -0.1153  0.7072
  871TIP3    H224173   3.011   1.981   2.436  1.5494 -0.8275  1.6514
  872TIP3   OH224174   2.027   4.107   7.736 -0.3382  0.1570 -0.5643
  872TIP3    H124175   1.980   4.114   7.653  0.7542  0.9096 -1.1432
  872TIP3    H224176   2.119   4.101   7.711  0.0340  0.7441  0.6017
  873TIP3   OH224177   3.706   1.929   1.044  0.4074 -0.2376  0.2798
  873TIP3    H124178   3.773   1.877   1.000  0.8369  0.9056 -0.4444
  873TIP3    H224179   3.738   2.019   1.039 -1.3675  0.3932 -0.4603
  874TIP3   OH224180   4.867   6.357   7.198  0.1947 -0.2798 -0.3366
  874TIP3    H124181   4.832   6.325   7.115 -0.6761 -0.8968  0.2584
  874TIP3    H224182   4.854   6.285   7.259 -2.4537  1.3696  1.2118
  875TIP3   OH224183   4.695   2.609   0.274 -0.2846 -0.4986 -0.1703
  875TIP3    H124184   4.610   2.646   0.250 -0.3426  0.1223  0.9199
  875TIP3    H224185   4.758   2.657   0.221 -0.4588  0.4593  0.4547
  876TIP3   OH224186   3.851   1.835   1.410 -0.2970 -0.5090  0.2227
  876TIP3    H124187   3.804   1.770   1.357 -2.4319  0.3838  0.9391
  876TIP3    H224188   3.910   1.878   1.348  0.3744 -2.3554 -0.4914
  877TIP3   OH224189   6.344   0.397   7.347 -0.6760 -0.1311 -0.3255
  877TIP3    H124190   6.261   0.414   7.302 -0.0368  0.5430 -1.2865
  877TIP3    H224191   6.348   0.301   7.355 -0.1361 -0.4170 -3.0892
  878TIP3   OH224192   4.592   6.351   8.489  0.2615  0.4553 -0.3082
  878TIP3    H124193   4.643   6.280   8.450 -0.5530 -0.6313  0.5499
  878TIP3    H224194   4.502   6.336   8.458 -0.1339  0.4082  0.7977
  879TIP3   OH224195   6.051   4.275   7.644 -0.3461 -0.4907 -0.3890
  879TIP3    H124196   6.074   4.333   7.716 -0.8085 -0.9504  0.1457
  879TIP3    H224197   6.117   4.291   7.577 -0.4482  0.6251 -0.2421
  880TIP3   OH224198   0.127   1.137   0.265  0.8067  0.3884 -0.0187
  880TIP3    H124199   0.206   1.089   0.288 -0.1770 -0.8989  0.8484
  880TIP3    H224200   0.055   1.076   0.285 -0.3484  0.4894 -3.2055
  881TIP3   OH224201   5.552   5.078   2.197 -0.2721 -0.2641  0.4011
  881TIP3    H124202   5.517   5.161   2.166 -2.6628 -1.5114 -0.5657
  881TIP3    H224203   5.495   5.054   2.270 -0.3593 -1.5589 -0.0649
  882TIP3   OH224204   4.626   5.886   2.500  0.6899 -0.6680 -0.4202
  882TIP3    H124205   4.593   5.820   2.561  0.7962  0.5954  1.0545
  882TIP3    H224206   4.716   5.859   2.481  0.7746 -0.8935  0.2713
  883TIP3   OH224207   3.500   4.648   6.574 -0.3183 -0.3808  0.0044
  883TIP3    H124208   3.575   4.666   6.517  0.2164 -0.7126  0.5895
  883TIP3    H224209   3.442   4.595   6.520 -0.7763  0.9963 -0.9093
  884TIP3   OH224210   1.710   6.597   7.746  0.3926  0.1102  0.1241
  884TIP3    H124211   1.765   6.560   7.815  0.7605  0.0537 -0.1926
  884TIP3    H224212   1.758   6.675   7.717  0.3803 -0.0242 -0.2575
  885TIP3   OH224213   6.742   6.389   2.885 -0.4827  0.0354  0.1073
  885TIP3    H124214   6.815   6.451   2.896  1.7149 -2.2996 -0.3411
  885TIP3    H224215   6.741   6.369   2.792 -0.6310 -1.1523  0.3465
  886TIP3   OH224216   2.219   6.705   7.097  0.7626 -0.1876 -0.3073
  886TIP3    H124217   2.253   6.753   7.021 -2.7873  3.3983  0.0492
  886TIP3    H224218   2.172   6.631   7.059 -1.4346  1.8402 -1.8370
  887TIP3   OH224219   0.929   5.864   6.910  0.4988  0.3324  0.1786
  887TIP3    H124220   0.875   5.840   6.835 -0.0904 -3.1330  1.5093
  887TIP3    H224221   0.905   5.955   6.929 -2.0399  0.1432 -1.5957
  888TIP3   OH224222   0.308   0.790   7.287  0.2509  0.1021  0.2068
  888TIP3    H124223   0.325   0.735   7.210  3.0847  1.7356 -0.4858
  888TIP3    H224224   0.367   0.756   7.354 -0.7690 -0.0499  1.0543
  889TIP3   OH224225   6.685   5.568   7.247  0.2525 -0.1026  0.0704
  889TIP3    H124226   6.671   5.480   7.210  1.4694  0.7275 -2.6016
  889TIP3    H224227   6.598   5.609   7.244 -0.2706 -1.0745  1.0757
  890TIP3   OH224228   2.299   5.718   6.679 -0.0169  0.3858 -0.9255
  890TIP3    H124229   2.249   5.637   6.665  0.6957 -0.6004  1.6562
  890TIP3    H224230   2.233   5.785   6.696 -0.5818  0.1953 -2.2486
  891TIP3   OH224231   1.737   6.144   6.721 -0.5147  0.2150  0.2902
  891TIP3    H124232   1.680   6.161   6.645 -0.1590 -0.5016 -0.1468
  891TIP3    H224233   1.769   6.055   6.707  0.1275  0.3439  0.9201
  892TIP3   OH224234   5.302   5.711   1.471 -0.3120 -0.1876  0.2120
  892TIP3    H124235   5.375   5.772   1.481 -0.1206 -0.4699  0.5660
  892TIP3    H224236   5.239   5.738   1.537 -1.2805  1.0975 -1.1686
  893TIP3   OH224237   5.812   1.647   1.834 -0.2333  0.1396  0.5105
  893TIP3    H124238   5.864   1.727   1.844 -0.9696  0.7006  0.0209
  893TIP3    H224239   5.819   1.603   1.919 -0.4544  1.1340  1.0705
  894TIP3   OH224240   0.194   2.121   8.479  0.7610  0.9579  0.3335
  894TIP3    H124241   0.280   2.093   8.448 -0.2957 -0.7178 -1.2843
  894TIP3    H224242   0.148   2.150   8.400 -0.7556  0.1048  0.8618
  895TIP3   OH224243   0.642   5.109   0.136  0.3525  0.4139  0.0206
  895TIP3    H124244   0.625   5.015   0.139  0.1154  0.4509 -0.1680
  895TIP3    H224245   0.703   5.124   0.209  1.2723 -0.0671 -0.6213
  896TIP3   OH224246   1.520   5.280   1.533 -0.0034 -0.0349 -0.3443
  896TIP3    H124247   1.481   5.209   1.584 -0.0688 -0.0145 -0.3646
  896TIP3    H224248   1.558   5.339   1.599  2.2983 -1.3437 -0.3994
  897TIP3   OH224249   1.488   2.049   8.706 -0.2728 -0.5398 -0.2597
  897TIP3    H124250   1.448   2.067   8.791  1.0791 -1.0705  0.5228
  897TIP3    H224251   1.417   2.061   8.643 -0.7653  2.2667  0.6783
  898TIP3   OH224252   4.006   1.124   1.136  0.2948  0.4194 -0.3992
  898TIP3    H124253   3.995   1.142   1.229 -1.0308 -0.6109 -0.3127
  898TIP3    H224254   4.100   1.125   1.122  0.4629  2.6762  0.4844
  899TIP3   OH224255   5.176   4.804   0.722  0.7699 -0.7131 -0.1204
  899TIP3    H124256   5.148   4.881   0.772 -1.1056 -0.5341 -1.3352
  899TIP3    H224257   5.259   4.830   0.682  0.9571  0.0877  0.7537
  900TIP3   OH224258   2.658   2.181   1.542  0.0844  0.3585  0.2195
  900TIP3    H124259   2.563   2.167   1.536  0.0385  0.6269  0.2947
  900TIP3    H224260   2.685   2.199   1.452  0.1953 -0.5203  0.0742
  901TIP3   OH224261   4.605   2.062   8.314 -0.1446 -0.1178 -0.4232
  901TIP3    H124262   4.685   2.044   8.363 -1.1653  0.0370  1.4196
  901TIP3    H224263   4.634   2.106   8.235  1.5900 -0.1176  0.1803
  902TIP3   OH224264   6.391   5.572   0.712 -0.4209 -0.0300 -0.0285
  902TIP3    H124265   6.382   5.546   0.803  0.9487 -0.8401 -0.0954
  902TIP3    H224266   6.428   5.495   0.668 -0.9296  0.3834 -1.2466
  903TIP3   OH224267   5.804   6.657   0.652 -1.0620  0.5667  0.3959
  903TIP3    H124268   5.776   6.568   0.634  0.2750 -0.1176  1.5713
  903TIP3    H224269   5.864   6.650   0.726 -0.5812  2.3872  0.2429
  904TIP3   OH224270   6.568   5.162   7.150  0.4676  0.3085 -0.0123
  904TIP3    H124271   6.490   5.114   7.179 -0.3386 -1.1551 -3.9787
  904TIP3    H224272   6.533   5.236   7.100  1.5994  0.2922 -0.8648
  905TIP3   OH224273   0.554   0.516   2.653  0.4349 -0.0472 -0.1956
  905TIP3    H124274   0.551   0.609   2.629 -0.5113 -0.2196 -0.7805
  905TIP3    H224275   0.498   0.473   2.589  1.1633 -1.0868 -0.1558
  906TIP3   OH224276   6.409   6.047   0.822  0.3397 -0.0629 -0.0489
  906TIP3    H124277   6.335   6.042   0.761  0.2045  1.4470 -0.0507
  906TIP3    H224278   6.369   6.055   0.909  0.4820  0.8219 -0.0548
  907TIP3   OH224279   3.165   1.810   0.889  0.5957 -0.6810  0.0186
  907TIP3    H124280   3.114   1.874   0.839  1.2879  0.8953  1.2440
  907TIP3    H224281   3.099   1.752   0.926 -0.2338  0.4837  0.4474
  908TIP3   OH224282   0.238   5.498   7.816  0.4286  0.3466  0.0851
  908TIP3    H124283   0.312   5.520   7.759  0.0503  0.4460 -0.3714
  908TIP3    H224284   0.261   5.537   7.901  1.8315 -1.2962  0.5266
  909TIP3   OH224285   6.056   3.635   7.959 -0.4843 -0.4791  0.5131
  909TIP3    H124286   6.011   3.633   8.043  0.2676 -1.1041  0.9072
  909TIP3    H224287   6.030   3.554   7.916 -0.6565 -0.2853  0.2454
  910TIP3   OH224288   3.326   0.418   8.723  0.2238 -0.0146 -0.2074
  910TIP3    H124289   3.312   0.330   8.690 -1.2214  0.1724 -0.1628
  910TIP3    H224290   3.341   0.471   8.645  0.0935 -0.1328 -0.3129
  911TIP3   OH224291   0.143   1.009   8.492  0.0488  0.0522 -0.0966
  911TIP3    H124292   0.118   0.938   8.434  0.2280 -0.5194  0.5110
  911TIP3    H224293   0.061   1.047   8.522 -0.0463  0.1124 -0.4295
  912TIP3   OH224294   0.740   5.729   8.179  0.3654  0.0215 -0.6696
  912TIP3    H124295   0.714   5.645   8.142 -0.2255  0.3012 -0.8934
  912TIP3    H224296   0.770   5.709   8.267  1.5839 -0.6274 -1.2043
  913TIP3   OH224297   5.860   2.253   0.259  0.1019  0.5370 -0.1641
  913TIP3    H124298   5.902   2.202   0.191  0.4085 -1.3591  1.3829
  913TIP3    H224299   5.768   2.225   0.257  0.1656  0.2854  0.3733
  914TIP3   OH224300   3.492   6.741   7.957  0.1977 -0.0112  0.0150
  914TIP3    H124301   3.434   6.811   7.987  0.9202  1.3946 -1.7358
  914TIP3    H224302   3.578   6.763   7.994  0.4818  0.1829 -0.7561
  915TIP3   OH224303   5.706   2.977   8.237  0.0826 -0.1910 -0.7788
  915TIP3    H124304   5.675   2.901   8.188 -2.3219 -0.2842  0.7146
  915TIP3    H224305   5.752   2.940   8.313  1.1031 -0.0829 -1.3257
  916TIP3   OH224306   6.032   0.430   8.463  0.0148 -0.7354  0.9107
  916TIP3    H124307   6.017   0.492   8.535  2.4638  1.9506 -0.6747
  916TIP3    H224308   6.097   0.368   8.497 -0.4664 -0.8441  1.6617
  917TIP3   OH224309   2.086   0.919   8.873  1.0094  0.2636  0.2901
  917TIP3    H124310   2.089   0.832   8.914 -3.1080 -0.4925 -0.5694
  917TIP3    H224311   2.107   0.904   8.781  3.4465  0.8332  0.6789
  918TIP3   OH224312   6.753   5.313   1.856 -0.0124 -0.4731  0.1339
  918TIP3    H124313   6.830   5.295   1.910  2.7468  1.3987 -2.8144
  918TIP3    H224314   6.718   5.395   1.890  1.5956  0.6027 -0.6719
  919TIP3   OH224315   0.291   6.694   1.194 -0.0072 -0.4655 -0.2470
  919TIP3    H124316   0.275   6.775   1.242  1.5436 -1.6481  2.5229
  919TIP3    H224317   0.378   6.705   1.155 -0.1445 -0.4934 -0.5649
  920TIP3   OH224318   4.080   5.231   8.162 -0.2919  0.5141 -0.6936
  920TIP3    H124319   4.021   5.248   8.089 -1.5744  0.6875  0.3414
  920TIP3    H224320   4.157   5.191   8.122 -1.2608 -0.0713 -2.0569
  921TIP3   OH224321   3.788   5.751   0.395 -0.1585 -0.1260 -0.1742
  921TIP3    H124322   3.706   5.710   0.423  0.1818 -0.3529  0.4882
  921TIP3    H224323   3.762   5.839   0.368 -0.7409 -0.4473 -0.6990
  922TIP3   OH224324   6.763   5.833   0.122 -0.6412 -0.0576  0.1468
  922TIP3    H124325   6.683   5.814   0.171  0.2474 -3.0143  0.6467
  922TIP3    H224326   6.793   5.917   0.156 -2.4312  0.1100  1.4374
  923TIP3   OH224327   5.151   5.723   6.833  0.2312  0.3361  0.2508
  923TIP3    H124328   5.107   5.664   6.772  0.7022  0.2646 -0.0244
  923TIP3    H224329   5.081   5.779   6.868 -0.3158 -0.7068  0.8982
  924TIP3   OH224330   6.304   1.290   8.093 -0.3439  0.5948  0.2759
  924TIP3    H124331   6.359   1.213   8.078 -0.1064  0.9182 -0.5708
  924TIP3    H224332   6.366   1.362   8.103 -0.5678  1.3198 -2.6353
  925TIP3   OH224333   1.353   2.566   8.653  0.4937 -0.4661  0.2271
  925TIP3    H124334   1.266   2.604   8.639  0.2815 -1.2492 -0.6932
  925TIP3    H224335   1.414   2.634   8.625  0.1293 -0.6733 -1.1223
  926TIP3   OH224336   2.605   5.749   0.070  0.4713  0.1810 -0.4174
  926TIP3    H124337   2.615   5.696  -0.009 -1.7451 -0.4413 -0.3556
  926TIP3    H224338   2.681   5.808   0.070  1.1132 -0.5712 -2.3758
  927TIP3   OH224339   5.432   1.585   7.364  0.5030  0.8508  0.2490
  927TIP3    H124340   5.404   1.617   7.449  0.4714 -0.2288  0.6590
  927TIP3    H224341   5.410   1.491   7.365 -0.6171  1.0413 -1.3868
  928TIP3   OH224342   5.912   0.930   0.701 -0.3395  0.2813 -0.8716
  928TIP3    H124343   5.935   1.023   0.702  1.0686 -0.0467  1.0333
  928TIP3    H224344   5.992   0.885   0.673 -0.7905 -0.4121 -1.0799
  929TIP3   OH224345   1.311   2.163   0.063  0.1341 -0.0802  0.6841
  929TIP3    H124346   1.314   2.212   0.145  0.3498  0.4439  0.3618
  929TIP3    H224347   1.297   2.229  -0.005  1.3252 -0.3483  0.1514
  930TIP3   OH224348   2.575   3.596   0.444 -0.1073 -0.5193  0.5225
  930TIP3    H124349   2.498   3.638   0.481  0.2081 -0.5266  1.1972
  930TIP3    H224350   2.553   3.581   0.352 -1.2547 -1.3538  0.9160
  931TIP3   OH224351   6.402   5.893   1.531 -0.1356  0.2254  0.4041
  931TIP3    H124352   6.331   5.849   1.485  0.5350 -1.3632  0.7965
  931TIP3    H224353   6.371   5.900   1.621  0.0699 -0.1743  0.5075
  932TIP3   OH224354   0.720   0.100   7.361 -0.2384 -0.8672 -0.5962
  932TIP3    H124355   0.747   0.173   7.416  1.6213 -0.2357 -2.2111
  932TIP3    H224356   0.625   0.096   7.370 -0.3084  1.2595  0.1399
  933TIP3   OH224357   3.676   2.654   0.419  0.3357 -0.5012  0.3403
  933TIP3    H124358   3.710   2.569   0.445  0.3207 -0.6658 -0.1746
  933TIP3    H224359   3.645   2.642   0.329 -0.0748 -0.0689  0.4200
  934TIP3   OH224360   4.740   6.078   8.842 -0.2398  0.1954 -0.0993
  934TIP3    H124361   4.804   6.011   8.817  0.4975  1.5037 -1.8820
  934TIP3    H224362   4.775   6.115   8.923 -0.1211 -0.8431  0.3438
  935TIP3   OH224363   4.844   1.633   1.286 -0.3862 -0.0676  0.1003
  935TIP3    H124364   4.920   1.588   1.324  0.7064 -0.4033 -2.3081
  935TIP3    H224365   4.858   1.725   1.305  0.5459 -0.1496 -0.1375
  936TIP3   OH224366   2.771   0.579   8.241 -0.2262  0.2609  0.0631
  936TIP3    H124367   2.686   0.550   8.208 -0.0025  1.1681 -1.4113
  936TIP3    H224368   2.750   0.658   8.292 -0.2727  0.4553 -0.2559
  937TIP3   OH224369   2.900   5.553   1.648 -0.3794 -0.3766 -0.6417
  937TIP3    H124370   2.848   5.592   1.578 -1.5715 -0.7585  0.0072
  937TIP3    H224371   2.925   5.626   1.704  0.1742 -0.1350 -1.1917
  938TIP3   OH224372   3.269   5.018   6.477  0.0505  0.1953 -0.0946
  938TIP3    H124373   3.225   4.938   6.448 -1.1472  1.3105 -1.5155
  938TIP3    H224374   3.362   4.997   6.470 -0.1280 -2.1001  2.6319
  939TIP3   OH224375   2.199   1.312   1.946  0.3268 -0.0728 -0.0587
  939TIP3    H124376   2.194   1.400   1.910 -0.4358 -0.4612 -0.9674
  939TIP3    H224377   2.275   1.273   1.904  0.5419  0.0772  0.1867
  940TIP3   OH224378   6.031   1.198   7.730 -0.0670 -0.7355 -0.0504
  940TIP3    H124379   6.074   1.265   7.677 -0.2996 -0.1698  0.4621
  940TIP3    H224380   6.041   1.117   7.680  1.6498 -0.6398  0.0861
  941TIP3   OH224381   4.927   3.963   7.031 -0.5407  0.2668 -0.0892
  941TIP3    H124382   4.841   3.965   6.988 -0.8673 -0.5617  0.5206
  941TIP3    H224383   4.915   3.908   7.108  0.2563  1.0608  0.6243
  942TIP3   OH224384   0.237   5.434   7.092  0.3636 -0.2824  0.2991
  942TIP3    H124385   0.164   5.389   7.134 -0.3948 -0.3772 -1.0668
  942TIP3    H224386   0.259   5.380   7.017  2.8124 -1.0122  1.4559
  943TIP3   OH224387   3.501   1.986   8.660 -0.0297  0.1240  0.5361
  943TIP3    H124388   3.587   1.988   8.617  0.2906  0.7219  1.2019
  943TIP3    H224389   3.516   2.020   8.748 -1.1201  1.1113  0.3677
  944TIP3   OH224390   5.836   1.833   2.193  0.4815 -0.6137  0.3110
  944TIP3    H124391   5.796   1.889   2.259 -0.5591  0.8072 -1.4316
  944TIP3    H224392   5.779   1.756   2.188 -0.7511  0.3236 -0.4954
  945TIP3   OH224393   0.361   4.632   1.703 -0.3219 -0.4264 -0.2361
  945TIP3    H124394   0.375   4.625   1.609 -0.6582 -1.0138 -0.2492
  945TIP3    H224395   0.382   4.545   1.737  0.3058 -0.0762  0.3045
  946TIP3   OH224396   3.226   5.278   1.896  0.2705  0.4915  0.1425
  946TIP3    H124397   3.269   5.364   1.896 -1.6693  1.5506 -0.9895
  946TIP3    H224398   3.197   5.265   1.986 -0.0103  1.3543  0.1841
  947TIP3   OH224399   0.074   4.070   1.818  0.2905 -1.0977 -0.1384
  947TIP3    H124400  -0.006   4.120   1.836  1.6653  0.7595  1.0948
  947TIP3    H224401   0.084   4.012   1.893 -0.6211 -2.4224 -0.9821
  948TIP3   OH224402   6.469   4.963   8.129  0.0453  0.2051 -0.2004
  948TIP3    H124403   6.507   5.016   8.199  1.5963 -0.2683 -0.6211
  948TIP3    H224404   6.536   4.896   8.111 -1.5275 -1.4528 -0.1881
  949TIP3   OH224405   6.301   1.948   0.232 -0.0715  0.8431  0.3650
  949TIP3    H124406   6.365   2.004   0.277  0.2247  1.6432 -1.0099
  949TIP3    H224407   6.307   1.973   0.140 -0.5517 -0.8673 -0.1725
  950TIP3   OH224408   6.683   6.563   7.718 -0.0124 -1.0809 -0.4256
  950TIP3    H124409   6.675   6.657   7.702 -0.0230 -1.2243 -1.3650
  950TIP3    H224410   6.774   6.551   7.744 -0.3022 -0.6724  0.8477
  951TIP3   OH224411   3.903   2.780   1.445  0.7638 -0.0518 -0.6212
  951TIP3    H124412   3.940   2.864   1.419  0.6446  0.6241  1.2695
  951TIP3    H224413   3.973   2.736   1.493 -0.6313  1.1419  2.7941
  952TIP3   OH224414   3.603   2.991   1.859 -0.1205 -0.4496  0.4050
  952TIP3    H124415   3.625   3.081   1.883  1.6027 -0.7263  0.0258
  952TIP3    H224416   3.517   2.976   1.898 -1.4437  2.0405 -1.3205
  953TIP3   OH224417   3.302   6.485   0.925  0.2331  0.1577 -0.6230
  953TIP3    H124418   3.355   6.419   0.970  0.1663  0.0801 -0.6580
  953TIP3    H224419   3.213   6.452   0.930 -0.2082  1.4896  1.6378
  954TIP3   OH224420   0.287   5.040   2.189  0.0736 -0.2939  0.1872
  954TIP3    H124421   0.275   5.091   2.269 -1.6288 -1.1740  0.5475
  954TIP3    H224422   0.337   4.963   2.217  1.8299  0.6620 -0.1741
  955TIP3   OH224423   4.011   5.178   1.272 -0.1229 -0.1551 -0.0265
  955TIP3    H124424   4.042   5.195   1.361  0.9517  0.8350 -0.5566
  955TIP3    H224425   4.055   5.245   1.218 -1.5909 -0.0368 -1.1418
  956TIP3   OH224426   2.697   0.061   0.778  0.1599  0.0856 -0.0800
  956TIP3    H124427   2.664   0.103   0.857  1.9473  2.4427 -0.4571
  956TIP3    H224428   2.626   0.070   0.714 -1.0501 -1.2718  1.0204
  957TIP3   OH224429   1.127   1.625   0.063 -0.1978  0.3891  0.1084
  957TIP3    H124430   1.129   1.589   0.152  1.8355  0.4049  0.0947
  957TIP3    H224431   1.209   1.672   0.054  0.3883 -0.9699 -2.3422
  958TIP3   OH224432   0.479   2.041   8.158 -0.1631  0.2305 -0.0354
  958TIP3    H124433   0.571   2.012   8.159 -0.3039 -0.4980 -2.1526
  958TIP3    H224434   0.452   2.041   8.249  1.6458 -0.5570  0.5368
  959TIP3   OH224435   0.667   6.382   1.452  0.4039 -0.0034 -0.4889
  959TIP3    H124436   0.699   6.309   1.398  1.3057 -0.0420  0.0674
  959TIP3    H224437   0.602   6.342   1.510  0.4099 -0.2349 -0.6365
  960TIP3   OH224438   1.041   6.421   7.772 -0.6363 -0.3330 -0.3958
  960TIP3    H124439   1.005   6.504   7.742  2.3730  0.5043 -2.1589
  960TIP3    H224440   1.097   6.444   7.847 -1.2656 -1.0968  0.3294
  961TIP3   OH224441   4.815   4.183   7.259 -0.3511 -0.1246 -0.5335
  961TIP3    H124442   4.792   4.217   7.345  1.5339 -0.1404  0.0245
  961TIP3    H224443   4.843   4.093   7.275  1.5904  0.3830 -0.8764
  962TIP3   OH224444   5.003   5.678   8.642 -0.0639  0.3505  0.3322
  962TIP3    H124445   5.088   5.638   8.658 -1.2466 -2.7490 -0.4398
  962TIP3    H224446   5.006   5.703   8.549  0.6661  2.1525  0.8080
  963TIP3   OH224447   4.014   2.917   0.782  0.1011 -0.3439 -0.4708
  963TIP3    H124448   4.050   2.834   0.813  0.4836  0.1056  0.3427
  963TIP3    H224449   3.922   2.914   0.808  0.0318 -0.6615 -0.7570
  964TIP3   OH224450   0.777   5.773   1.333 -0.7991 -0.1531 -0.2888
  964TIP3    H124451   0.835   5.769   1.257  1.3020 -3.3104  1.2441
  964TIP3    H224452   0.738   5.685   1.337 -0.8019 -0.0867  2.2706
  965TIP3   OH224453   0.359   4.748   1.388 -0.4774 -0.5904  0.6569
  965TIP3    H124454   0.285   4.791   1.432 -1.3454 -0.6178 -0.7116
  965TIP3    H224455   0.342   4.762   1.295 -0.5228 -3.4370  0.1572
  966TIP3   OH224456   2.869   3.419   1.385 -0.6325  0.0896 -0.0591
  966TIP3    H124457   2.802   3.382   1.327 -2.1375 -0.8477  2.1290
  966TIP3    H224458   2.839   3.397   1.473  2.8940 -0.9411  1.0527
  967TIP3   OH224459   5.732   0.976   0.310 -0.7107 -0.2855 -0.2811
  967TIP3    H124460   5.795   1.047   0.315  0.1562 -0.9947 -0.9442
  967TIP3    H224461   5.675   0.989   0.387  1.3172 -0.6510  1.3600
  968TIP3   OH224462   2.733   5.589   0.281  0.3230 -0.8076 -0.0089
  968TIP3    H124463   2.793   5.531   0.235  2.7813  2.0065 -0.6768
  968TIP3    H224464   2.684   5.633   0.211  3.4620  2.8409 -0.3009
  969TIP3   OH224465   3.974   1.346   7.982  0.3910  0.5243  0.1001
  969TIP3    H124466   4.061   1.338   7.941  0.8159  1.4866  0.7624
  969TIP3    H224467   3.976   1.283   8.054 -0.5355 -1.5335 -1.5475
  970TIP3   OH224468   4.418   6.131   7.333 -0.3676 -0.9750  0.7704
  970TIP3    H124469   4.433   6.115   7.240 -0.9504 -0.1878  0.5263
  970TIP3    H224470   4.448   6.221   7.347 -1.9432 -0.4513  0.9395
  971TIP3   OH224471   1.077   0.868   8.143  0.1313 -0.2576  0.2813
  971TIP3    H124472   1.166   0.835   8.154  0.4084  0.2647 -0.2768
  971TIP3    H224473   1.038   0.811   8.077 -0.2355 -1.0050  1.1339
  972TIP3   OH224474   5.219   0.201   1.290 -0.3092  0.2794 -0.2324
  972TIP3    H124475   5.230   0.261   1.364  0.2529 -1.1299  0.8843
  972TIP3    H224476   5.126   0.204   1.270 -0.9425 -0.9859  2.0928
  973TIP3   OH224477   2.775   5.020   0.927  0.0213  0.1710 -0.5411
  973TIP3    H124478   2.740   4.940   0.887  2.0352 -0.6230 -0.8040
  973TIP3    H224479   2.833   5.056   0.860  0.3584  1.0016  0.1887
  974TIP3   OH224480   3.223   2.699   8.149  0.1534 -0.6271  0.0025
  974TIP3    H124481   3.193   2.718   8.238  1.6967 -1.7246  0.8005
  974TIP3    H224482   3.231   2.604   8.146  1.2842 -0.5247 -0.9036
  975TIP3   OH224483   3.448   5.689   8.349 -0.2145 -0.0341  0.1657
  975TIP3    H124484   3.376   5.720   8.295 -2.1557 -0.1709  2.4791
  975TIP3    H224485   3.421   5.601   8.377  0.8835 -0.1316  0.9990
  976TIP3   OH224486   2.710   2.502   0.047  0.1417 -0.8992  0.3419
  976TIP3    H124487   2.736   2.410   0.049 -0.9817 -1.2384  2.7842
  976TIP3    H224488   2.614   2.500   0.049 -0.0967  0.3611 -3.1509
  977TIP3   OH224489   4.286   0.184   1.548  0.3592  0.4758 -0.1052
  977TIP3    H124490   4.263   0.240   1.475 -0.9387  1.3328  0.9301
  977TIP3    H224491   4.361   0.133   1.516  0.6283  1.7194 -1.5716
  978TIP3   OH224492   1.630   5.310   1.070 -0.1492  0.1279  0.1369
  978TIP3    H124493   1.626   5.355   1.154 -3.2981 -0.4670  0.4381
  978TIP3    H224494   1.540   5.314   1.036  1.2174  1.6885 -3.9967
  979TIP3   OH224495   5.348   3.476   1.844 -0.0122 -0.2902 -0.2606
  979TIP3    H124496   5.296   3.527   1.782 -0.1138  0.3383  0.3224
  979TIP3    H224497   5.421   3.533   1.867 -0.1400 -0.3910  0.4156
  980TIP3   OH224498   6.416   2.514   7.837  0.0864 -0.0135 -0.3215
  980TIP3    H124499   6.456   2.574   7.900 -0.8803  1.0314 -0.6762
  980TIP3    H224500   6.435   2.427   7.872 -1.0312  0.5299  1.8270
  981TIP3   OH224501   0.503   0.072   1.729  0.0970 -0.0391 -0.0656
  981TIP3    H124502   0.476   0.119   1.650 -1.1805 -0.9235 -0.2002
  981TIP3    H224503   0.507   0.138   1.797 -1.7167  0.2969 -0.2304
  982TIP3   OH224504   1.321   6.663   1.909 -0.4744  0.5016 -0.5220
  982TIP3    H124505   1.415   6.662   1.893 -0.1675  0.0459  1.1022
  982TIP3    H224506   1.284   6.712   1.835  1.2373  2.5387 -0.1100
  983TIP3   OH224507   1.445   2.742   1.572 -0.0212 -0.6742 -0.2504
  983TIP3    H124508   1.521   2.718   1.626  1.0130 -0.1377 -1.4158
  983TIP3    H224509   1.466   2.708   1.485 -0.2098  1.1700 -1.0688
  984TIP3   OH224510   3.989   5.128   0.965 -0.6020  0.7689 -0.6100
  984TIP3    H124511   4.007   5.034   0.969 -1.2574  0.6665  0.0820
  984TIP3    H224512   4.076   5.168   0.956 -0.2300  0.1542  0.0901
  985TIP3   OH224513   4.625   3.028   7.826 -0.5453  0.2317 -0.0780
  985TIP3    H124514   4.693   3.003   7.763 -0.9200  0.0720 -0.4272
  985TIP3    H224515   4.547   3.042   7.773 -0.6351  1.0195  0.2534
  986TIP3   OH224516   0.173   5.679   6.817  0.2088 -0.5481  0.2030
  986TIP3    H124517   0.095   5.659   6.869 -0.2879  0.1014 -0.2822
  986TIP3    H224518   0.246   5.657   6.875 -0.3214 -1.7234  0.4547
  987TIP3   OH224519   5.841   4.013   0.805 -0.0651  0.2367 -0.5923
  987TIP3    H124520   5.782   3.937   0.810  0.1951  0.0214 -0.7926
  987TIP3    H224521   5.893   4.008   0.885 -0.2534  0.3721 -0.4618
  988TIP3   OH224522   5.855   1.009   7.138 -0.4119  0.4746 -0.1230
  988TIP3    H124523   5.897   0.939   7.088 -0.8520  0.7957 -0.9576
  988TIP3    H224524   5.925   1.042   7.195  0.1041  0.0912 -0.5181
  989TIP3   OH224525   3.998   4.082   8.266  0.4126  0.1798 -0.6338
  989TIP3    H124526   4.005   4.022   8.192 -0.6636  1.1051 -1.5164
  989TIP3    H224527   4.089   4.099   8.292  0.7734 -0.7840 -1.2069
  990TIP3   OH224528   5.501   1.268   2.612  0.1657  0.0936 -0.3989
  990TIP3    H124529   5.412   1.297   2.590  0.2706  0.8538  0.1144
  990TIP3    H224530   5.502   1.175   2.591 -0.3736  0.3384 -1.5670
  991TIP3   OH224531   3.616   4.805   1.233 -0.1052 -0.3937 -0.0044
  991TIP3    H124532   3.674   4.782   1.159 -0.5057 -1.0971 -0.1056
  991TIP3    H224533   3.540   4.845   1.192  0.2834  0.5217  0.1295
  992TIP3   OH224534   5.861   0.994   8.490 -0.0332 -0.3703 -0.3389
  992TIP3    H124535   5.799   0.935   8.449  0.5157 -1.3316  0.1925
  992TIP3    H224536   5.936   0.996   8.429  0.0797 -0.4749 -0.2042
  993TIP3   OH224537   0.359   1.139   1.759 -0.1073  0.5780 -0.1170
  993TIP3    H124538   0.431   1.155   1.698  1.2063 -1.5267  0.7702
  993TIP3    H224539   0.344   1.045   1.754  1.3256 -0.0690  4.0358
  994TIP3   OH224540   0.897   3.715   0.471 -0.3115 -0.2446  0.0590
  994TIP3    H124541   0.938   3.629   0.470 -0.5089 -0.3444  0.3259
  994TIP3    H224542   0.828   3.708   0.537  0.1842  0.3565  0.6608
  995TIP3   OH224543   1.576   1.687   7.682  0.4588  0.4270  0.0739
  995TIP3    H124544   1.586   1.727   7.768  0.4723 -0.8278  0.6664
  995TIP3    H224545   1.664   1.659   7.657  0.2583 -0.3823  0.2446
  996TIP3   OH224546   4.727   0.451   0.878  0.4509  0.0707  1.0196
  996TIP3    H124547   4.714   0.357   0.887  1.8759 -0.2532 -0.0097
  996TIP3    H224548   4.786   0.475   0.949  3.0112 -0.5244 -0.7844
  997TIP3   OH224549   0.458   5.789   8.217 -0.5619  0.3099 -0.0857
  997TIP3    H124550   0.532   5.735   8.189 -1.6023 -1.9941  1.2413
  997TIP3    H224551   0.482   5.819   8.305  0.3266  2.7987 -1.0844
  998TIP3   OH224552   5.902   2.005   7.691 -0.2153 -0.1087  0.6468
  998TIP3    H124553   5.906   2.007   7.786 -1.1987 -0.2714  0.7014
  998TIP3    H224554   5.812   2.032   7.670 -0.9520 -2.8261 -0.1210
  999TIP3   OH224555   3.409   2.778   2.310 -0.5166 -0.0186 -0.2347
  999TIP3    H124556   3.439   2.837   2.379  0.7927 -1.7506  0.7471
  999TIP3    H224557   3.487   2.758   2.260 -0.1272 -3.4867  1.4939
 1000TIP3   OH224558   2.197   1.069   1.653  0.1758  1.0429  0.0334
 1000TIP3    H124559   2.128   1.026   1.703  0.5815 -0.6063 -0.7530
 1000TIP3    H224560   2.276   1.016   1.669  0.1776 -0.0465 -2.8501
 1001TIP3   OH224561   5.038   4.229   0.249  0.5528  0.1781  0.2106
 1001TIP3    H124562   4.961   4.216   0.304  1.0483 -0.6376  0.7294
 1001TIP3    H224563   5.110   4.188   0.297  1.3854  1.2055 -0.1100
 1002TIP3   OH224564   0.366   3.413   8.627 -0.1755  0.2049  0.2386
 1002TIP3    H124565   0.344   3.408   8.534  2.4865  1.5796 -0.5849
 1002TIP3    H224566   0.426   3.340   8.642 -0.6686 -0.0690  0.9088
 1003TIP3   OH224567   2.585   1.828   8.789 -0.2091  0.4000  0.3790
 1003TIP3    H124568   2.670   1.853   8.754  0.3301 -0.3660  1.1257
 1003TIP3    H224569   2.577   1.876   8.871  0.0819 -0.5283  0.9609
 1004TIP3   OH224570   1.854   1.482   0.549 -0.1354  0.1396  0.4927
 1004TIP3    H124571   1.881   1.445   0.464  1.1517 -0.7507  1.2556
 1004TIP3    H224572   1.875   1.413   0.612  0.4128  1.4000  1.7206
 1005TIP3   OH224573   2.105   5.718   1.253  0.0751  0.0614  0.6563
 1005TIP3    H124574   2.014   5.700   1.231  0.0347  0.0242  0.8524
 1005TIP3    H224575   2.101   5.775   1.329  0.2089  0.7969  0.1187
 1006TIP3   OH224576   2.892   1.934   8.181 -0.5056  0.4743 -0.3552
 1006TIP3    H124577   2.857   1.903   8.098 -1.7004  0.5934  0.0843
 1006TIP3    H224578   2.832   2.003   8.208  0.4318  1.1065  0.1337
 1007TIP3   OH224579   0.140   1.852   8.425 -0.5647 -0.4906 -0.4353
 1007TIP3    H124580   0.139   1.795   8.502  1.0233 -0.8732 -0.6716
 1007TIP3    H224581   0.146   1.940   8.461 -1.1684 -0.5806 -0.1024
 1008TIP3   OH224582   1.898   4.816   6.623  0.2279 -0.0264 -0.0757
 1008TIP3    H124583   1.859   4.857   6.701 -0.5598  1.0157 -0.9753
 1008TIP3    H224584   1.825   4.807   6.562  1.1104  0.6229 -1.2742
 1009TIP3   OH224585   4.268   5.225   0.080  0.8621  0.1123  0.1791
 1009TIP3    H124586   4.293   5.317   0.072  0.8688  0.0050 -1.3414
 1009TIP3    H224587   4.248   5.213   0.172  4.8766  0.6241  1.3242
 1010TIP3   OH224588   2.748   4.281   8.020 -0.2376 -0.2194 -0.5757
 1010TIP3    H124589   2.708   4.329   8.093 -0.7190  0.1184 -1.0625
 1010TIP3    H224590   2.757   4.191   8.053  0.9594  0.2380  0.4511
 1011TIP3   OH224591   5.974   6.176   1.024 -0.2517  0.0076  0.0812
 1011TIP3    H124592   5.956   6.109   0.958 -0.6624 -0.0800  0.2744
 1011TIP3    H224593   5.897   6.174   1.081  0.1751 -0.0363  0.6666
 1012TIP3   OH224594   5.110   0.904   0.370 -0.1454 -0.5951 -0.0836
 1012TIP3    H124595   5.144   0.953   0.295 -1.0201 -0.3702 -0.3522
 1012TIP3    H224596   5.153   0.943   0.446  0.3674 -0.4834 -0.4300
 1013TIP3   OH224597   4.444   6.119   6.668 -0.4775  0.2358  0.3693
 1013TIP3    H124598   4.529   6.162   6.658 -0.7892  0.4419 -1.7832
 1013TIP3    H224599   4.459   6.051   6.733  1.7700 -0.8146 -1.1347
 1014TIP3   OH224600   6.108   0.787   7.418 -0.0503 -0.6584  0.0361
 1014TIP3    H124601   6.197   0.752   7.419 -0.2981 -1.3078  0.4171
 1014TIP3    H224602   6.053   0.712   7.441 -0.8042 -0.5542 -1.3190
 1015TIP3   OH224603   5.070   2.347   6.936  0.5137 -0.4953 -0.0069
 1015TIP3    H124604   5.111   2.278   6.884  1.2070  0.4131 -0.6920
 1015TIP3    H224605   5.136   2.369   7.002  1.1552  0.9411 -1.0855
 1016TIP3   OH224606   0.093   4.627   7.188 -0.0948 -0.8489  0.2071
 1016TIP3    H124607   0.171   4.680   7.205 -0.5827 -0.5215  1.4880
 1016TIP3    H224608   0.118   4.570   7.115  1.2937 -0.6702  0.5293
 1017TIP3   OH224609   4.587   0.994   1.299 -0.7922 -0.1270  0.5071
 1017TIP3    H124610   4.511   0.999   1.357 -1.4536 -0.6017 -0.2899
 1017TIP3    H224611   4.562   0.929   1.233 -0.0006  0.2822 -0.2128
 1018TIP3   OH224612   3.393   2.096   7.616  0.1386 -0.2344  0.1227
 1018TIP3    H124613   3.387   2.002   7.599  0.9659 -0.3058  0.1557
 1018TIP3    H224614   3.344   2.137   7.545 -1.2955 -0.7169  0.7927
 1019TIP3   OH224615   5.489   4.728   1.257 -0.1744  0.0356  0.3890
 1019TIP3    H124616   5.493   4.649   1.203 -0.3336 -0.7904  1.5524
 1019TIP3    H224617   5.406   4.769   1.232 -0.1696 -0.2443 -0.1082
 1020TIP3   OH224618   1.139   4.850   1.285 -0.1117  0.6775 -0.0907
 1020TIP3    H124619   1.121   4.838   1.379  1.3189 -0.6494  0.0510
 1020TIP3    H224620   1.232   4.871   1.281 -0.2749  1.2716 -1.2012
 1021TIP3   OH224621   1.038   2.053   0.066 -0.1367 -0.4309  0.1204
 1021TIP3    H124622   1.133   2.067   0.059 -0.4678  2.1168 -0.3426
 1021TIP3    H224623   1.029   1.961   0.090  2.5217 -0.2785  2.1615
 1022TIP3   OH224624   3.473   5.819   0.663 -0.1266  0.2771  0.3785
 1022TIP3    H124625   3.540   5.782   0.720 -1.5777 -3.6277 -0.1865
 1022TIP3    H224626   3.409   5.856   0.723  1.1939  1.7025  0.9903
 1023TIP3   OH224627   4.794   3.135   7.372 -0.1836 -0.1323  0.0283
 1023TIP3    H124628   4.750   3.191   7.436  1.3050  0.4948  0.5376
 1023TIP3    H224629   4.781   3.179   7.288  0.5051  0.7062  0.3497
 1024TIP3   OH224630   0.961   2.419   8.227  1.0847  0.5892  0.2616
 1024TIP3    H124631   0.874   2.444   8.195  1.3374  1.5743  0.2986
 1024TIP3    H224632   1.019   2.431   8.151  1.2139  0.1045  0.2822
 1025TIP3   OH224633   5.848   1.973   7.298 -0.3560 -0.4062  0.7055
 1025TIP3    H124634   5.829   1.999   7.208 -0.8583 -1.1725  0.5744
 1025TIP3    H224635   5.923   1.914   7.291 -0.7868 -0.9694  0.7029
 1026TIP3   OH224636   6.044   5.063   7.423 -0.3962 -0.3059 -0.3512
 1026TIP3    H124637   6.094   5.123   7.368  0.8767 -0.7716  0.2531
 1026TIP3    H224638   5.989   5.013   7.362  0.9269 -0.7547 -1.2105
 1027TIP3   OH224639   2.557   3.125   8.638 -0.8095 -0.4728 -0.2529
 1027TIP3    H124640   2.553   3.219   8.656 -1.7236 -0.7096  0.8633
 1027TIP3    H224641   2.642   3.098   8.673 -0.2412  0.0351 -1.1849
 1028TIP3   OH224642   4.062   1.215   7.113  0.3785 -0.0600  0.0165
 1028TIP3    H124643   4.011   1.296   7.120  0.5749 -0.0070  0.9940
 1028TIP3    H224644   4.001   1.152   7.074 -0.1728  0.2261  0.3982
 1029TIP3   OH224645   5.849   5.686   0.181 -0.4055 -0.3656 -0.3942
 1029TIP3    H124646   5.907   5.619   0.217  0.3222  0.1995 -0.5058
 1029TIP3    H224647   5.892   5.769   0.200 -1.9544  0.1911  0.9312
 1030TIP3   OH224648   0.229   0.434   0.344 -0.2761  0.9769 -0.0791
 1030TIP3    H124649   0.185   0.429   0.429  2.1040  0.3240  1.2009
 1030TIP3    H224650   0.250   0.343   0.322  2.8683  1.3783  0.7990
 1031TIP3   OH224651   4.320   0.959   6.586 -0.2747  0.1160 -0.0013
 1031TIP3    H124652   4.296   1.041   6.542 -0.9360 -0.3822 -0.5812
 1031TIP3    H224653   4.240   0.930   6.629 -0.3147 -0.7386 -0.6313
 1032TIP3   OH224654   1.601   2.737   2.758  0.5529 -0.0167  0.5940
 1032TIP3    H124655   1.650   2.810   2.720 -0.2001 -0.1323 -0.6647
 1032TIP3    H224656   1.531   2.778   2.808 -0.5381  0.1851 -1.0039
 1033TIP3   OH224657   1.403   1.560   6.636 -0.5731 -0.5958  0.5786
 1033TIP3    H124658   1.365   1.617   6.703  0.4280  0.9729 -0.1102
 1033TIP3    H224659   1.479   1.608   6.605  0.5089 -2.4918  0.1501
 1034TIP3   OH224660   2.525   6.263   6.467 -0.3730 -0.2857  0.0484
 1034TIP3    H124661   2.620   6.276   6.462  0.0035 -1.4377  2.6635
 1034TIP3    H224662   2.491   6.349   6.493  0.0740 -0.1831  0.2999
 1035TIP3   OH224663   3.910   3.042   1.661  0.0475  0.6744 -0.1529
 1035TIP3    H124664   3.888   3.066   1.751  0.3172  0.0062  0.1034
 1035TIP3    H224665   3.975   2.972   1.671 -0.9935 -0.4338 -0.8417
 1036TIP3   OH224666   2.080   3.979   1.338  0.1988 -0.0641  0.3013
 1036TIP3    H124667   2.160   4.017   1.300  0.0210 -0.9835 -1.0561
 1036TIP3    H224668   2.110   3.933   1.416  1.1706 -1.1258 -0.6498
 1037TIP3   OH224669   4.488   6.399   7.613  0.1954  0.0651  0.3921
 1037TIP3    H124670   4.487   6.405   7.709  1.2948 -1.4791  0.5405
 1037TIP3    H224671   4.581   6.396   7.590 -0.0612 -0.1141 -0.6773
 1038TIP3   OH224672   0.210   1.973   7.383 -0.6227 -0.4939 -0.2822
 1038TIP3    H124673   0.121   1.961   7.417 -0.5120  0.2428  0.2989
 1038TIP3    H224674   0.266   1.968   7.460 -0.2375 -0.1061 -0.5322
 1039TIP3   OH224675   6.460   2.482   1.658 -0.6699 -0.2263 -0.2264
 1039TIP3    H124676   6.466   2.575   1.636 -1.9301  0.4894  2.0652
 1039TIP3    H224677   6.366   2.466   1.667 -0.4278 -1.5247  0.1796
 1040TIP3   OH224678   4.003   3.576   1.553  1.1350 -0.7006 -0.1765
 1040TIP3    H124679   4.075   3.554   1.495  0.8732 -2.2878  0.0552
 1040TIP3    H224680   3.964   3.492   1.576  1.8498 -0.2759  3.1154
 1041TIP3   OH224681   0.100   6.468   1.403 -0.1170  0.1610 -0.0374
 1041TIP3    H124682   0.180   6.448   1.451 -0.6649  2.0371  1.7989
 1041TIP3    H224683   0.038   6.400   1.432  0.0031  0.3816  0.7643
 1042TIP3   OH224684   1.086   3.334   2.204 -0.7992 -0.0349  0.5825
 1042TIP3    H124685   1.061   3.415   2.248  0.8830  1.0102 -0.3087
 1042TIP3    H224686   1.160   3.358   2.148 -2.1513 -1.5202 -2.0525
 1043TIP3   OH224687   5.057   4.033   1.254  0.2983  0.0212  0.0513
 1043TIP3    H124688   4.974   4.051   1.210 -0.3537 -1.3381  0.6815
 1043TIP3    H224689   5.032   4.015   1.345  0.8151 -3.7239 -0.3858
 1044TIP3   OH224690   1.740   0.926   7.687 -0.9440  0.1987 -0.3905
 1044TIP3    H124691   1.822   0.935   7.638 -0.4010  0.9929  0.6187
 1044TIP3    H224692   1.725   0.831   7.690 -1.2553  0.1314 -2.4609
 1045TIP3   OH224693   1.396   3.243   1.614 -0.4775 -0.1353  0.3784
 1045TIP3    H124694   1.363   3.228   1.702 -0.6065 -0.6306  0.2477
 1045TIP3    H224695   1.441   3.162   1.591 -0.0492  0.1631  0.1658
 1046TIP3   OH224696   1.237   5.447   7.153 -0.4408  0.0724 -0.0805
 1046TIP3    H124697   1.192   5.369   7.121 -0.1805 -1.0862  2.1545
 1046TIP3    H224698   1.330   5.428   7.139 -0.2888 -0.6895  1.7223
 1047TIP3   OH224699   3.321   0.211   0.419  0.2701 -0.2343 -0.0889
 1047TIP3    H124700   3.396   0.160   0.390 -0.6029 -0.5476 -1.9223
 1047TIP3    H224701   3.287   0.162   0.494  0.8516 -1.0588 -0.3520
 1048TIP3   OH224702   6.103   3.525   0.053 -0.6214  0.1354  0.2074
 1048TIP3    H124703   6.151   3.514   0.136 -0.2129  1.5364  0.1911
 1048TIP3    H224704   6.069   3.615   0.057  0.7145  0.7960 -1.7911
 1049TIP3   OH224705   0.993   3.537   2.366  0.2960  0.6833 -0.2761
 1049TIP3    H124706   1.029   3.557   2.452 -0.0864 -0.4054  0.1578
 1049TIP3    H224707   0.998   3.619   2.318 -1.0877  1.7876  1.3546
 1050TIP3   OH224708   5.746   0.546   6.543 -0.2679  0.0231 -0.4240
 1050TIP3    H124709   5.765   0.639   6.542 -0.2831  0.0433 -2.4123
 1050TIP3    H224710   5.653   0.541   6.567 -0.0269  0.4243  0.6740
 1051TIP3   OH224711   3.651   4.675   8.160 -0.0057 -0.4623  1.0951
 1051TIP3    H124712   3.588   4.743   8.140  0.1209 -0.2938  1.2647
 1051TIP3    H224713   3.723   4.720   8.205 -0.4395 -0.8735  2.2379
 1052TIP3   OH224714   2.069   3.174   6.900 -0.4058  0.2504  0.5883
 1052TIP3    H124715   2.148   3.212   6.862 -0.5834  0.6452  0.6070
 1052TIP3    H224716   1.999   3.232   6.871 -0.7444 -0.3421  0.2125
 1053TIP3   OH224717   0.181   4.880   7.257 -1.0194 -0.0770  0.2190
 1053TIP3    H124718   0.126   4.909   7.330 -0.4835  1.6593 -0.0080
 1053TIP3    H224719   0.255   4.837   7.299 -0.4822  1.3180  0.7535
 1054TIP3   OH224720   0.844   1.141   8.553  0.6436  0.5820  0.1465
 1054TIP3    H124721   0.793   1.130   8.473 -0.4320  1.4782  0.6735
 1054TIP3    H224722   0.884   1.055   8.569 -1.5295 -0.4719  0.2497
 1055TIP3   OH224723   2.141   2.132   1.785 -0.3284 -0.2551 -0.3472
 1055TIP3    H124724   2.130   2.058   1.726 -0.0649  1.5218 -2.7633
 1055TIP3    H224725   2.060   2.136   1.835 -0.2320 -2.3009  0.0258
 1056TIP3   OH224726   2.093   1.999   8.134 -0.0026  0.1645 -0.2942
 1056TIP3    H124727   2.103   1.968   8.044 -2.4418 -0.5951 -0.3704
 1056TIP3    H224728   2.124   1.927   8.188 -0.9013 -0.4056 -0.5229
 1057TIP3   OH224729   0.322   2.535   8.414 -0.2835  0.1249 -0.4626
 1057TIP3    H124730   0.362   2.622   8.409 -0.7012  0.5568  2.2274
 1057TIP3    H224731   0.389   2.475   8.380  0.9810  1.2595 -0.0342
 1058TIP3   OH224732   1.522   2.974   8.378  0.2734 -0.0899 -0.6116
 1058TIP3    H124733   1.540   2.937   8.465  1.3101  0.6493 -0.4899
 1058TIP3    H224734   1.596   3.032   8.361 -0.3543  0.4428 -1.6258
 1059TIP3   OH224735   2.499   6.213   0.039 -0.2928  0.4771 -0.0713
 1059TIP3    H124736   2.505   6.135  -0.017  1.7197  1.5140 -1.4375
 1059TIP3    H224737   2.412   6.208   0.078 -0.3290 -2.2992 -0.3256
 1060TIP3   OH224738   4.483   6.094   7.067  0.0571  0.6657 -0.0534
 1060TIP3    H124739   4.523   6.170   7.024 -0.3549  1.0229  0.1867
 1060TIP3    H224740   4.490   6.024   7.002 -0.5264  1.1897 -0.7062
 1061TIP3   OH224741   1.595   1.365   0.621 -0.8577  0.2213 -0.2767
 1061TIP3    H124742   1.630   1.339   0.536  2.2766  0.9219  0.6585
 1061TIP3    H224743   1.664   1.341   0.683 -2.1264  1.6678  1.7968
 1062TIP3   OH224744   1.906   4.963   0.074  0.0219 -0.7662 -0.2355
 1062TIP3    H124745   1.904   5.058   0.086 -1.4945 -0.6547 -1.1136
 1062TIP3    H224746   1.900   4.950  -0.021  0.1836 -1.7387 -0.1287
 1063TIP3   OH224747   3.519   0.162   8.648 -0.2127 -0.3917 -1.0030
 1063TIP3    H124748   3.495   0.077   8.686  0.7750  0.4167  1.5772
 1063TIP3    H224749   3.453   0.176   8.579 -0.3788 -3.2275 -1.5415
 1064TIP3   OH224750   2.137   3.338   6.660 -0.0134 -0.2815 -0.3483
 1064TIP3    H124751   2.230   3.335   6.682  0.4863 -1.1814 -2.3965
 1064TIP3    H224752   2.116   3.431   6.660  0.7043 -0.0909  0.7414
 1065TIP3   OH224753   5.006   1.482   8.845 -0.2255  0.3424 -0.2116
 1065TIP3    H124754   4.984   1.434   8.925  3.6960 -0.2571  0.7172
 1065TIP3    H224755   5.045   1.564   8.876  0.5949  0.4653 -1.4871
 1066TIP3   OH224756   3.282   5.998   6.621  0.2292 -0.3083 -0.0178
 1066TIP3    H124757   3.251   6.076   6.667  0.5655  0.3036 -0.8030
 1066TIP3    H224758   3.283   5.930   6.687 -0.5384  0.2390  0.5699
 1067TIP3   OH224759   0.517   1.539   1.229 -0.5735 -0.4283  0.4382
 1067TIP3    H124760   0.540   1.495   1.147  1.1676 -0.8741  1.1253
 1067TIP3    H224761   0.477   1.622   1.201  0.8789 -0.1196 -0.8893
 1068TIP3   OH224762   3.385   3.597   7.224 -0.5244 -0.2796  0.0929
 1068TIP3    H124763   3.463   3.563   7.268 -0.3371  0.7920  0.6328
 1068TIP3    H224764   3.408   3.600   7.131 -0.3049 -0.9471  0.1219
 1069TIP3   OH224765   6.604   1.161   2.164  0.2137 -0.0697 -0.4285
 1069TIP3    H124766   6.665   1.226   2.199  0.4244 -0.5170  0.0471
 1069TIP3    H224767   6.565   1.120   2.241  0.7193 -1.0963 -0.6980
 1070TIP3   OH224768   3.698   4.127   6.306  0.0728 -0.7548  0.1589
 1070TIP3    H124769   3.765   4.067   6.275 -0.7968 -1.1523 -1.0242
 1070TIP3    H224770   3.636   4.134   6.233  0.0562  1.4531  0.3058
 1071TIP3   OH224771   1.344   1.754   7.005  0.3345  0.3396 -0.3129
 1071TIP3    H124772   1.438   1.769   7.003  0.3738  0.0870 -0.3667
 1071TIP3    H224773   1.314   1.774   6.917  0.6735 -1.7441 -0.9410
 1072TIP3   OH224774   3.439   5.768   7.017  0.7483  0.0084 -0.2928
 1072TIP3    H124775   3.481   5.768   7.103 -0.5378 -0.7845  0.3746
 1072TIP3    H224776   3.461   5.683   6.979  1.3591  0.3779 -0.7887
 1073TIP3   OH224777   4.741   2.526   1.842 -0.8137 -0.5383 -0.1511
 1073TIP3    H124778   4.687   2.590   1.796  0.2726 -0.4658 -1.4116
 1073TIP3    H224779   4.722   2.443   1.797  0.4838 -0.4140 -0.9897
 1074TIP3   OH224780   0.987   4.400   8.117  0.5231 -0.5995  0.3845
 1074TIP3    H124781   1.025   4.332   8.062 -1.6265 -0.4858 -1.4008
 1074TIP3    H224782   1.013   4.482   8.076  0.1426 -0.4570  0.4230
 1075TIP3   OH224783   1.673   4.103   8.667 -0.3960  0.2489  0.7103
 1075TIP3    H124784   1.645   4.184   8.710  0.0297  0.9096 -0.2274
 1075TIP3    H224785   1.699   4.130   8.579 -1.4861 -1.0982 -0.0817
 1076TIP3   OH224786   5.884   1.828   6.386  0.5149  0.9769 -0.2199
 1076TIP3    H124787   5.905   1.771   6.460  0.9281  1.9788  0.4410
 1076TIP3    H224788   5.833   1.772   6.327  0.7831 -0.0356  0.4839
 1077TIP3   OH224789   0.426   0.194   1.486  0.2343 -0.1926 -0.5538
 1077TIP3    H124790   0.474   0.130   1.434 -0.2836  0.1854 -1.5278
 1077TIP3    H224791   0.477   0.275   1.478 -0.3112  0.1006 -1.2478
 1078TIP3   OH224792   1.228   0.945   7.115 -0.2000 -0.2772 -0.2124
 1078TIP3    H124793   1.299   0.934   7.052 -1.5333  0.6327 -1.9466
 1078TIP3    H224794   1.149   0.916   7.069 -0.9663 -1.5857  1.7711
 1079TIP3   OH224795   0.445   6.642   7.705 -0.6593 -0.5376 -0.2424
 1079TIP3    H124796   0.395   6.562   7.717  0.6313 -1.3544 -0.1631
 1079TIP3    H224797   0.470   6.641   7.613 -0.3500 -0.3967 -0.1609
 1080TIP3   OH224798   0.879   4.904   8.553  0.6530 -0.1365  0.0449
 1080TIP3    H124799   0.929   4.902   8.471  1.8020 -2.1984  0.7270
 1080TIP3    H224800   0.819   4.977   8.542  0.9539 -0.1757 -2.5252
 1081TIP3   OH224801   6.062   0.965   8.300  0.4218 -0.5400  0.4138
 1081TIP3    H124802   6.060   0.897   8.233 -1.3144 -1.5275  1.3971
 1081TIP3    H224803   6.153   0.971   8.327  0.6977 -2.0262 -0.1360
 1082TIP3   OH224804   6.356   2.637   7.596 -0.3840 -0.5389 -0.5190
 1082TIP3    H124805   6.396   2.629   7.682 -1.1577  0.1787 -0.0795
 1082TIP3    H224806   6.271   2.593   7.605 -1.4948  1.5678 -0.2037
 1083TIP3   OH224807   1.320   6.139   1.283 -0.1379  0.0254  0.2411
 1083TIP3    H124808   1.367   6.134   1.366  0.0598 -1.3664  0.0831
 1083TIP3    H224809   1.292   6.048   1.267 -0.6107  0.3684 -0.9614
 1084TIP3   OH224810   0.863   2.711   7.438 -0.5525 -0.4119  0.7279
 1084TIP3    H124811   0.805   2.751   7.503 -1.6151 -1.0244  0.1960
 1084TIP3    H224812   0.879   2.623   7.472 -1.7075 -0.9912 -0.1600
 1085TIP3   OH224813   3.183   0.484   1.795 -0.2118  0.4240  0.1110
 1085TIP3    H124814   3.147   0.508   1.881 -0.3732 -0.0486  0.1800
 1085TIP3    H224815   3.270   0.449   1.814  0.2529  1.4463 -0.0442
 1086TIP3   OH224816   6.644   4.411   8.729 -0.1597  0.1215  0.4041
 1086TIP3    H124817   6.573   4.350   8.710 -0.4244  0.5447  0.0120
 1086TIP3    H224818   6.693   4.369   8.799  0.5439 -1.2403 -0.8589
 1087TIP3   OH224819   3.432   4.790   1.455  0.7828 -0.7256  1.2862
 1087TIP3    H124820   3.389   4.856   1.402 -0.4655 -2.0228  0.6172
 1087TIP3    H224821   3.511   4.767   1.406 -0.1784 -1.6589  0.1330
 1088TIP3   OH224822   1.769   0.567   7.025  0.1086 -0.0434 -0.1232
 1088TIP3    H124823   1.757   0.487   6.974  3.2864  0.0960 -1.3345
 1088TIP3    H224824   1.794   0.537   7.112 -3.0180 -0.2732  0.7988
 1089TIP3   OH224825   2.093   1.058   1.271 -0.0857  0.6222  0.0493
 1089TIP3    H124826   2.012   1.099   1.241 -0.2276  0.0517 -0.3534
 1089TIP3    H224827   2.109   0.987   1.208 -0.0346 -0.1750  0.9474
 1090TIP3   OH224828   2.696   1.949   2.318  0.0889  0.6360 -0.0081
 1090TIP3    H124829   2.786   1.946   2.352 -0.0373  2.5930  0.5828
 1090TIP3    H224830   2.702   1.911   2.230  1.3137 -0.0385  0.3424
 1091TIP3   OH224831   6.270   5.905   1.800 -0.6416 -0.1572  0.0852
 1091TIP3    H124832   6.309   5.823   1.831 -1.1015 -0.3168  0.2617
 1091TIP3    H224833   6.270   5.962   1.877 -0.0647  0.1080 -0.1107
 1092TIP3   OH224834   0.605   5.300   6.602 -0.2609 -0.3534  0.0506
 1092TIP3    H124835   0.608   5.396   6.603  0.3186 -0.2952 -2.0321
 1092TIP3    H224836   0.683   5.274   6.554 -0.5939 -1.8634  0.2773
 1093TIP3   OH224837   1.203   1.145   0.109  0.5210 -0.2882  0.4586
 1093TIP3    H124838   1.187   1.052   0.124 -1.7500  0.1453  1.1411
 1093TIP3    H224839   1.157   1.165   0.028  2.0173  0.0298 -0.3455
 1094TIP3   OH224840   3.954   4.381   8.115 -0.4219  0.3120  0.0635
 1094TIP3    H124841   4.043   4.373   8.079 -0.3079  0.0873  0.3862
 1094TIP3    H224842   3.951   4.469   8.153 -0.2068  0.1858  0.3847
 1095TIP3   OH224843   2.605   0.289   8.551  0.2775  0.3339  0.1803
 1095TIP3    H124844   2.694   0.259   8.570  0.1660 -0.3617 -0.3525
 1095TIP3    H224845   2.604   0.381   8.578  0.5701 -0.1739  2.0515
 1096TIP3   OH224846   1.673   5.926   0.379 -0.1687  0.0664  0.1486
 1096TIP3    H124847   1.723   5.982   0.438  0.7931  1.8989 -2.2371
 1096TIP3    H224848   1.739   5.874   0.333 -0.8556 -0.8878  0.1961
 1097TIP3   OH224849   3.328   6.317   1.551  0.3910 -0.1679 -0.3168
 1097TIP3    H124850   3.404   6.367   1.519  0.4098  0.1821  0.2585
 1097TIP3    H224851   3.254   6.351   1.500  0.7742 -1.3094 -1.7026
 1098TIP3   OH224852   0.311   3.139   0.700  0.3299  0.1034 -0.1912
 1098TIP3    H124853   0.274   3.155   0.787  0.7478  1.5879 -0.2720
 1098TIP3    H224854   0.240   3.096   0.651 -0.4789  0.7739  0.3675
 1099TIP3   OH224855   0.926   5.116   6.864 -0.0057 -0.5810  0.0114
 1099TIP3    H124856   0.860   5.154   6.922 -0.6609  0.3301 -1.2762
 1099TIP3    H224857   0.950   5.188   6.805 -0.1379 -1.7376 -1.5037
 1100TIP3   OH224858   5.455   5.552   8.070 -0.5639  0.3695  0.1203
 1100TIP3    H124859   5.507   5.561   7.990 -0.5887 -0.0358  0.0527
 1100TIP3    H224860   5.464   5.636   8.115  0.2964  0.2458  0.1982
 1101TIP3   OH224861   6.078   2.495   8.424 -0.1363  0.1949  0.1236
 1101TIP3    H124862   6.101   2.438   8.497 -1.1986 -0.3859  0.0155
 1101TIP3    H224863   6.078   2.438   8.347 -0.3577  0.5121 -0.1153
 1102TIP3   OH224864   4.148   2.547   0.269  0.0067 -0.3048  0.2987
 1102TIP3    H124865   4.138   2.628   0.219 -1.9670 -0.5850  0.1278
 1102TIP3    H224866   4.140   2.477   0.204 -0.6024 -0.6428  0.7206
 1103TIP3   OH224867   1.905   0.442   2.433 -0.2287 -0.1552  0.1752
 1103TIP3    H124868   1.904   0.518   2.492  1.3092 -0.8443  1.1552
 1103TIP3    H224869   1.957   0.472   2.358  2.6406 -0.9278  1.6935
 1104TIP3   OH224870   6.313   3.395   2.140  0.3297 -0.6310 -0.2322
 1104TIP3    H124871   6.408   3.388   2.139  0.4313 -0.6070  2.2232
 1104TIP3    H224872   6.290   3.396   2.233 -2.1109 -1.0833 -0.7517
 1105TIP3   OH224873   5.435   5.284   7.351  0.0891  0.3169 -0.4965
 1105TIP3    H124874   5.529   5.264   7.344 -0.1257 -0.6022 -0.9295
 1105TIP3    H224875   5.422   5.357   7.291  0.5315  0.4379 -0.4476
 1106TIP3   OH224876   0.979   3.748   0.856  0.2612 -0.5058 -0.5686
 1106TIP3    H124877   0.932   3.669   0.827  0.4126 -0.5900 -0.5839
 1106TIP3    H224878   0.909   3.809   0.880  0.1325 -0.4780 -0.9949
 1107TIP3   OH224879   2.191   0.552   0.797  0.2117  0.1364 -0.0388
 1107TIP3    H124880   2.229   0.640   0.792 -0.1348  0.2446 -0.7670
 1107TIP3    H224881   2.216   0.521   0.884  1.1397  0.5872 -0.1280
 1108TIP3   OH224882   3.341   1.552   7.228  0.0516 -0.5089 -0.0242
 1108TIP3    H124883   3.316   1.478   7.283  1.1396 -1.3749 -0.6416
 1108TIP3    H224884   3.321   1.629   7.280  1.6029 -1.2953  1.8442
 1109TIP3   OH224885   5.374   2.741   0.112 -0.0584  0.1750 -0.5089
 1109TIP3    H124886   5.382   2.817   0.055  1.3326  0.5492  0.1170
 1109TIP3    H224887   5.312   2.683   0.068 -1.2334  1.7066 -0.9416
 1110TIP3   OH224888   0.720   6.345   0.558  0.0607 -0.1220  0.1689
 1110TIP3    H124889   0.647   6.351   0.496 -0.2801 -1.9633  0.3206
 1110TIP3    H224890   0.699   6.269   0.612  2.2660 -0.9431 -0.0372
 1111TIP3   OH224891   2.365   0.327   7.267 -0.3055 -0.2724 -0.0766
 1111TIP3    H124892   2.331   0.384   7.336  1.9486  1.1827 -0.0648
 1111TIP3    H224893   2.442   0.373   7.234 -0.4084 -1.6956 -2.5023
 1112TIP3   OH224894   1.250   3.038   8.577  0.0866  0.0392 -0.0858
 1112TIP3    H124895   1.326   2.983   8.558  1.0166  1.1422  0.3089
 1112TIP3    H224896   1.209   2.997   8.653 -0.4871 -1.2965 -1.0871
 1113TIP3   OH224897   2.566   0.634   0.844 -0.1977 -0.3173 -0.1349
 1113TIP3    H124898   2.601   0.636   0.933 -0.4589  1.8854 -0.0268
 1113TIP3    H224899   2.473   0.654   0.854 -0.5844 -1.5990 -0.8151
 1114TIP3   OH224900   0.480   2.631   0.630 -0.0492  0.2125 -0.1237
 1114TIP3    H124901   0.553   2.596   0.579  0.3102 -2.1683  1.8417
 1114TIP3    H224902   0.503   2.722   0.646  2.0575 -0.2414 -0.3385
 1115TIP3   OH224903   4.361   4.477   2.048 -0.4488  0.0803 -0.5474
 1115TIP3    H124904   4.266   4.467   2.053 -0.6436  0.9909 -1.9218
 1115TIP3    H224905   4.389   4.487   2.139 -1.8364  1.1261 -0.2052
 1116TIP3   OH224906   1.449   2.692   1.261 -0.6717 -0.7372  0.0352
 1116TIP3    H124907   1.373   2.644   1.228  0.6363 -0.9117 -2.9813
 1116TIP3    H224908   1.524   2.637   1.240  0.5373  0.7453  0.2851
 1117TIP3   OH224909   4.808   5.221   0.655 -0.0967  0.2634  0.0834
 1117TIP3    H124910   4.847   5.205   0.741  0.0273 -0.5915 -0.1160
 1117TIP3    H224911   4.757   5.142   0.637  0.1695  0.2747 -0.7780
 1118TIP3   OH224912   4.719   6.068   0.974  0.2239  0.0247 -0.1976
 1118TIP3    H124913   4.769   6.033   0.900  0.6272  0.8623 -0.3394
 1118TIP3    H224914   4.688   6.153   0.943 -1.1340 -0.3888 -0.0383
 1119TIP3   OH224915   1.282   2.609   0.593 -0.2123  0.5871  0.0939
 1119TIP3    H124916   1.304   2.546   0.525  0.5668  0.0155  0.8517
 1119TIP3    H224917   1.309   2.693   0.558 -0.9710  0.4670 -0.8021
 1120TIP3   OH224918   4.045   0.482   0.562  0.0093 -0.2816 -0.3424
 1120TIP3    H124919   4.019   0.436   0.482  1.3631 -0.2572 -0.8344
 1120TIP3    H224920   4.028   0.419   0.633 -0.5656 -0.5620 -0.7277
 1121TIP3   OH224921   5.879   1.779   0.842 -0.0557 -0.3702  0.1895
 1121TIP3    H124922   5.887   1.772   0.937 -0.5259  1.4121  0.3957
 1121TIP3    H224923   5.843   1.866   0.828 -1.0282 -1.0239 -1.5828
 1122TIP3   OH224924   0.083   0.088   7.716  0.0915 -0.3649 -0.3554
 1122TIP3    H124925   0.177   0.074   7.703  0.4924  0.3742  1.3967
 1122TIP3    H224926   0.079   0.156   7.783 -1.7205  0.4809 -1.2837
 1123TIP3   OH224927   6.217   1.320   8.615 -0.3386  0.3509 -0.2554
 1123TIP3    H124928   6.122   1.304   8.609 -0.0739 -1.3420 -0.4666
 1123TIP3    H224929   6.243   1.342   8.526 -0.7536  2.4169  0.0877
 1124TIP3   OH224930   0.922   2.131   7.760 -0.4156 -0.2748  0.0320
 1124TIP3    H124931   0.893   2.215   7.795  2.1865  0.5073  0.5279
 1124TIP3    H224932   0.856   2.108   7.695 -1.8095  1.5650  0.7075
 1125TIP3   OH224933   2.100   3.665   8.791 -0.0570  0.1435 -0.4805
 1125TIP3    H124934   2.040   3.734   8.820 -0.6989 -0.3308 -0.6589
 1125TIP3    H224935   2.106   3.677   8.697  0.0317  0.1085 -0.4798
 1126TIP3   OH224936   6.715   6.173   6.974 -0.5589  0.2898 -0.4647
 1126TIP3    H124937   6.690   6.222   7.052 -0.0080 -0.8206  0.4432
 1126TIP3    H224938   6.733   6.084   7.006  2.5931  0.4825 -1.3089
 1127TIP3   OH224939   4.082   5.245   2.110 -0.4712  0.0261  0.6240
 1127TIP3    H124940   4.103   5.274   2.199  0.8862 -0.7659  0.5894
 1127TIP3    H224941   4.166   5.249   2.063 -1.2412  0.8605 -0.7658
 1128TIP3   OH224942   1.670   3.433   8.678  0.0709  0.2854  0.6479
 1128TIP3    H124943   1.645   3.521   8.708 -0.2004  0.3759  0.1788
 1128TIP3    H224944   1.651   3.376   8.752 -3.0613  0.1028 -0.1319
 1129TIP3   OH224945   1.757   5.144   2.376 -0.7758 -0.3035 -0.5650
 1129TIP3    H124946   1.804   5.062   2.392 -0.5686 -0.0835  0.0006
 1129TIP3    H224947   1.775   5.164   2.284  0.3354 -0.1775 -0.3393
 1130TIP3   OH224948   1.877   4.512   0.233  0.4549  0.1183 -0.4129
 1130TIP3    H124949   1.836   4.426   0.242 -1.1574  0.8624 -0.2167
 1130TIP3    H224950   1.830   4.567   0.295  2.3874  0.8565  0.4536
 1131TIP3   OH224951   4.359   6.288   0.663  0.0772 -0.7048  0.0190
 1131TIP3    H124952   4.401   6.222   0.719  0.9623 -0.6967 -0.6265
 1131TIP3    H224953   4.413   6.366   0.673  1.0234 -1.0728 -1.8413
 1132TIP3   OH224954   4.632   4.042   8.755  0.1396  0.0942 -0.1822
 1132TIP3    H124955   4.706   3.985   8.778  0.0286  0.3401  0.8491
 1132TIP3    H224956   4.610   4.086   8.837 -1.1341  0.0579 -0.4918
 1133TIP3   OH224957   2.574   1.825   6.528  0.3294 -0.2136  0.1382
 1133TIP3    H124958   2.600   1.915   6.512  0.3838 -0.4196 -0.9856
 1133TIP3    H224959   2.512   1.830   6.601  1.6731  0.5326  1.2658
 1134TIP3   OH224960   0.368   5.077   7.144  0.5655 -0.2372  0.0537
 1134TIP3    H124961   0.380   5.067   7.049  1.1724 -1.3318  0.2274
 1134TIP3    H224962   0.282   5.039   7.162  0.5130 -0.1604 -0.0343
 1135TIP3   OH224963   6.517   1.320   8.359 -0.0139  0.6054 -0.1003
 1135TIP3    H124964   6.495   1.379   8.287 -2.3097 -0.0426  0.0093
 1135TIP3    H224965   6.498   1.233   8.325  0.5903  0.1382  0.7151
 1136TIP3   OH224966   2.801   6.168   1.144 -0.0330  0.3272 -0.1708
 1136TIP3    H124967   2.819   6.128   1.059 -0.3549 -0.1649 -0.0141
 1136TIP3    H224968   2.732   6.113   1.182 -0.1825  0.7856  0.2321
 1137TIP3   OH224969   1.332   2.340   8.126  0.1481  0.2652  0.1875
 1137TIP3    H124970   1.420   2.371   8.107  0.1989 -0.4351 -0.8182
 1137TIP3    H224971   1.276   2.417   8.116  0.5650  0.5607  0.1477
 1138TIP3   OH224972   6.176   1.057   8.757  0.8758 -0.1392  0.4072
 1138TIP3    H124973   6.254   1.030   8.708  0.6843  0.7390 -0.4308
 1138TIP3    H224974   6.171   1.151   8.743  0.8326  0.1557  2.2083
 1139TIP3   OH224975   2.850   1.368   1.129  0.1471 -0.1408  0.1193
 1139TIP3    H124976   2.792   1.422   1.075  1.1233  0.1022 -0.7259
 1139TIP3    H224977   2.851   1.283   1.085  1.3635  0.2132 -0.5927
 1140TIP3   OH224978   5.207   6.510   7.026  0.4022  0.0194 -0.2753
 1140TIP3    H124979   5.170   6.446   6.965  0.8767  0.7986 -1.4159
 1140TIP3    H224980   5.270   6.559   6.973  1.2328  0.3518  0.9962
 1141TIP3   OH224981   3.620   2.102   0.046 -0.0334  0.0275 -0.3064
 1141TIP3    H124982   3.678   2.151  -0.012  2.3679 -1.1038  1.0314
 1141TIP3    H224983   3.632   2.141   0.132  0.5844 -1.7377  0.4421
 1142TIP3   OH224984   2.135   0.701   7.126  0.1237 -0.1364 -0.3645
 1142TIP3    H124985   2.091   0.622   7.094 -0.2565  0.6267 -1.8156
 1142TIP3    H224986   2.213   0.709   7.072 -0.4277  1.0817 -1.0203
 1143TIP3   OH224987   3.640   3.425   1.651  0.0645  0.3981 -0.6952
 1143TIP3    H124988   3.599   3.345   1.683  0.4262  0.6074  0.3231
 1143TIP3    H224989   3.728   3.397   1.623  0.5903  0.6131  0.6791
 1144TIP3   OH224990   5.197   2.967   7.277 -0.4055 -0.6977  0.2124
 1144TIP3    H124991   5.208   2.889   7.222 -0.2990 -0.1758 -0.5103
 1144TIP3    H224992   5.260   2.954   7.348 -1.1605 -1.7963  0.7081
 1145TIP3   OH224993   2.522   3.620   0.772  0.1269  0.2263 -0.2859
 1145TIP3    H124994   2.473   3.665   0.703 -1.5264 -1.6589 -0.4319
 1145TIP3    H224995   2.460   3.611   0.844 -0.0258 -2.6407 -0.6454
 1146TIP3   OH224996   6.722   2.870   8.532  0.2592 -0.6130 -0.4505
 1146TIP3    H124997   6.691   2.870   8.622 -1.7234  0.1830 -1.0923
 1146TIP3    H224998   6.781   2.945   8.527  0.5220 -0.7670  0.2091
 1147TIP3   OH224999   4.533   1.053   6.784  0.2038  0.2834 -0.3060
 1147TIP3    H125000   4.489   1.107   6.850 -0.1081  0.3396 -0.5511
 1147TIP3    H225001   4.461   1.022   6.728  0.4551  0.1832 -0.5742
 1148TIP3   OH225002   0.430   1.227   8.863 -0.5205 -0.2946  0.6465
 1148TIP3    H125003   0.428   1.321   8.878 -2.5200 -0.2641  0.4391
 1148TIP3    H225004   0.381   1.214   8.781  1.3385 -1.3790 -0.3813
 1149TIP3   OH225005   2.261   0.310   2.176 -0.6481 -0.6994  0.2373
 1149TIP3    H125006   2.336   0.363   2.147  0.5979 -1.3311  2.1255
 1149TIP3    H225007   2.191   0.374   2.187 -0.0439  0.1087 -0.4321
 1150TIP3   OH225008   4.514   2.623   7.726 -0.5001  0.1799  0.4666
 1150TIP3    H125009   4.529   2.697   7.785  4.0508 -0.8336  0.9640
 1150TIP3    H225010   4.538   2.655   7.640  1.1978 -0.5271  0.6354
 1151TIP3   OH225011   0.457   4.409   8.019  0.0606 -0.0495  0.2891
 1151TIP3    H125012   0.401   4.475   8.060 -0.5069 -1.7953  2.5189
 1151TIP3    H225013   0.546   4.439   8.035 -0.1895  0.3127  1.0287
 1152TIP3   OH225014   5.555   5.416   2.100 -0.3124  0.4351 -0.1390
 1152TIP3    H125015   5.481   5.359   2.120 -0.1863  0.8348  1.6592
 1152TIP3    H225016   5.621   5.394   2.167  0.8775  0.6689 -1.1883
 1153TIP3   OH225017   0.965   3.096   1.882 -0.3545 -0.3168  0.3197
 1153TIP3    H125018   0.937   3.118   1.971 -1.1152 -1.6441  0.4292
 1153TIP3    H225019   1.042   3.152   1.867 -1.6326  1.6876  0.8851
 1154TIP3   OH225020   6.203   1.243   0.327 -0.1277  1.3972  0.3634
 1154TIP3    H125021   6.247   1.328   0.319  3.2149 -0.0160  1.7537
 1154TIP3    H225022   6.216   1.218   0.419 -3.3430  0.4692  0.6813
 1155TIP3   OH225023   6.413   0.428   7.799 -0.1807 -0.0437 -0.4737
 1155TIP3    H125024   6.349   0.389   7.740  0.8948  0.2923 -1.9186
 1155TIP3    H225025   6.491   0.373   7.789 -0.4526 -0.9848  1.9145
 1156TIP3   OH225026   6.699   0.080   7.028  0.1174 -0.4190 -0.0433
 1156TIP3    H125027   6.633   0.056   7.093  0.5832 -0.7125  0.3206
 1156TIP3    H225028   6.782   0.075   7.074  0.4487 -0.5619 -0.6438
 1157TIP3   OH225029   3.761   5.163   6.692 -0.0548 -0.1324  0.2376
 1157TIP3    H125030   3.673   5.178   6.728  0.8249  0.9618  2.0730
 1157TIP3    H225031   3.777   5.238   6.635 -0.4681 -0.5840 -0.4961
 1158TIP3   OH225032   5.499   4.970   0.929 -0.1778 -0.2089 -0.0568
 1158TIP3    H125033   5.503   4.874   0.928  0.7619 -0.1759 -0.3261
 1158TIP3    H225034   5.453   4.993   0.849  0.1368 -0.4160 -0.2990
 1159TIP3   OH225035   2.088   4.470   7.876 -0.2235 -0.5466  0.1746
 1159TIP3    H125036   2.146   4.434   7.943  0.9541 -0.0945 -0.5630
 1159TIP3    H225037   2.127   4.443   7.793 -0.0500  1.2390 -0.3792
 1160TIP3   OH225038   2.424   5.594   6.939  0.3989 -0.5394 -0.2938
 1160TIP3    H125039   2.382   5.510   6.920 -0.8948 -0.0949  0.4537
 1160TIP3    H225040   2.414   5.644   6.858 -0.2021 -0.5758 -0.2480
 1161TIP3   OH225041   4.317   0.359   6.807 -0.3511  0.6629  0.3505
 1161TIP3    H125042   4.363   0.394   6.730  0.0735  0.3926  0.4750
 1161TIP3    H225043   4.282   0.275   6.777 -2.6886  1.8167 -0.4157
 1162TIP3   OH225044   4.230   4.742   2.166  0.1277  0.2739 -0.2821
 1162TIP3    H125045   4.149   4.761   2.213  0.8642 -2.7838  2.6419
 1162TIP3    H225046   4.206   4.676   2.101  0.1277 -0.0873  0.0814
 1163TIP3   OH225047   4.209   1.173   7.337 -0.1393  0.2011 -0.4555
 1163TIP3    H125048   4.299   1.193   7.313 -0.2501  2.3058  0.6498
 1163TIP3    H225049   4.158   1.190   7.258  0.2243  0.8972 -0.5486
 1164TIP3   OH225050   4.829   4.981   1.990  0.4610  0.0658  0.3395
 1164TIP3    H125051   4.811   5.073   2.006  1.4898  0.1015  1.4221
 1164TIP3    H225052   4.774   4.934   2.053 -0.3889 -0.0872 -0.5055
 1165TIP3   OH225053   3.043   4.357   7.989 -0.4961  0.4822  0.6863
 1165TIP3    H125054   3.032   4.369   7.894  0.5929 -0.7789  0.3501
 1165TIP3    H225055   2.959   4.321   8.018 -0.5949  0.1458  0.0346
 1166TIP3   OH225056   1.884   2.340   0.206 -0.1181  0.6489  0.5227
 1166TIP3    H125057   1.802   2.291   0.191  0.1313  0.2086  0.5939
 1166TIP3    H225058   1.873   2.420   0.154 -0.0173 -0.0428 -0.5806
 1167TIP3   OH225059   3.776   1.757   0.205  0.1207  0.7140 -0.1279
 1167TIP3    H125060   3.758   1.693   0.137  0.6577 -1.3426  1.5622
 1167TIP3    H225061   3.871   1.756   0.215  0.0248  0.6030  0.9569
 1168TIP3   OH225062   0.769   0.340   7.846 -0.0003  0.3543  0.4663
 1168TIP3    H125063   0.811   0.279   7.906 -0.5938  0.4034  0.9442
 1168TIP3    H225064   0.767   0.295   7.762  1.3265  0.4947  0.3399
 1169TIP3   OH225065   6.115   4.421   8.281  0.1459  0.2059  0.3342
 1169TIP3    H125066   6.101   4.489   8.347  1.2854  0.5635  0.2348
 1169TIP3    H225067   6.179   4.362   8.319 -0.0031 -0.1965 -0.0245
 1170TIP3   OH225068   0.833   6.109   6.942 -0.0868  0.0938  0.0572
 1170TIP3    H125069   0.740   6.111   6.961  0.1907  1.0380  1.4359
 1170TIP3    H225070   0.840   6.137   6.851 -1.2121 -1.1858 -0.4541
 1171TIP3   OH225071   4.434   0.565   6.363 -0.6475  0.4155  0.2982
 1171TIP3    H125072   4.429   0.624   6.438 -0.6622  0.8613 -0.0476
 1171TIP3    H225073   4.370   0.497   6.382 -1.7735  1.3461 -0.0072
 1172TIP3   OH225074   4.068   6.454   7.842  0.0644 -0.2558  0.4480
 1172TIP3    H125075   4.143   6.514   7.834  1.7171 -2.3389 -0.4762
 1172TIP3    H225076   4.068   6.429   7.935 -0.0055  0.3589  0.6217
 1173TIP3   OH225077   3.691   5.287   1.729 -0.3257 -0.4712 -0.2894
 1173TIP3    H125078   3.670   5.198   1.701 -0.6016 -1.2886  2.3022
 1173TIP3    H225079   3.781   5.283   1.760 -0.7697 -0.2118  1.1083
 1174TIP3   OH225080   6.701   4.360   1.212  0.3267  0.3371  0.4045
 1174TIP3    H125081   6.676   4.284   1.159  0.1236  1.3846 -1.0693
 1174TIP3    H225082   6.617   4.400   1.236  0.4321  0.1050  1.1760
 1175TIP3   OH225083   4.028   4.865   0.962 -0.1823 -0.0877 -0.7199
 1175TIP3    H125084   3.955   4.806   0.944  0.4708 -0.6397 -1.6815
 1175TIP3    H225085   4.085   4.856   0.886  0.2765  1.2818 -0.5629
 1176TIP3   OH225086   4.160   4.682   0.480  0.3817 -0.0078  0.6044
 1176TIP3    H125087   4.150   4.594   0.443 -0.8663 -0.1162  1.1509
 1176TIP3    H225088   4.240   4.677   0.533 -0.0906 -1.0531  1.2483
 1177TIP3   OH225089   1.341   6.726   7.555  0.5338 -0.7061 -0.0811
 1177TIP3    H125090   1.298   6.704   7.637  2.1209  0.3464  1.0789
 1177TIP3    H225091   1.356   6.642   7.512 -0.3920 -1.2533  0.6351
 1178TIP3   OH225092   2.970   0.920   1.505  0.0617  0.1751 -0.0076
 1178TIP3    H125093   2.901   0.937   1.569 -0.5715 -0.8872 -0.3836
 1178TIP3    H225094   3.046   0.893   1.557  0.0914  0.9853  0.3833
 1179TIP3   OH225095   6.583   5.623   7.941 -0.0032 -0.1600  0.2720
 1179TIP3    H125096   6.624   5.551   7.892  0.7544 -0.4005  1.2315
 1179TIP3    H225097   6.519   5.659   7.880  1.5057  0.1190 -1.2276
 1180TIP3   OH225098   0.564   5.107   7.890  0.2913 -0.2839 -0.1500
 1180TIP3    H125099   0.502   5.046   7.851  0.5644 -1.1047  0.6716
 1180TIP3    H225100   0.636   5.111   7.827 -0.0247 -0.2837 -0.5152
 1181TIP3   OH225101   1.930   4.586   1.689  0.9403  0.2256  0.2328
 1181TIP3    H125102   1.877   4.636   1.627  0.2158 -1.1240 -0.2835
 1181TIP3    H225103   1.866   4.551   1.753  1.1679 -1.3476 -0.3494
 1182TIP3   OH225104   2.748   4.765   8.550 -0.0509 -0.1845  0.2316
 1182TIP3    H125105   2.661   4.755   8.511 -0.0598 -1.6431  0.5613
 1182TIP3    H225106   2.740   4.841   8.608  0.0477  2.2590 -2.6907
 1183TIP3   OH225107   3.058   5.780   0.421  0.1822  0.0415 -0.1556
 1183TIP3    H125108   3.103   5.731   0.352  1.4600  0.9353  0.0205
 1183TIP3    H225109   3.003   5.843   0.374  2.5303  2.0067 -0.4427
 1184TIP3   OH225110   3.234   2.786   6.885 -0.1825  0.3707  0.4586
 1184TIP3    H125111   3.241   2.861   6.825 -0.7030 -0.2084 -0.3551
 1184TIP3    H225112   3.160   2.807   6.942 -0.8066  0.1732 -0.2511
 1185TIP3   OH225113   0.384   4.603   6.945 -0.6105  0.2969 -0.5153
 1185TIP3    H125114   0.393   4.512   6.974  0.3041  0.5411 -0.0013
 1185TIP3    H225115   0.413   4.602   6.853 -1.7580 -0.1382 -0.8924
 1186TIP3   OH225116   3.155   2.713   0.145  0.3763  0.7447 -0.5367
 1186TIP3    H125117   3.169   2.646   0.078 -0.7920 -0.5517  0.4463
 1186TIP3    H225118   3.062   2.705   0.167  0.7737  0.9502  1.4106
 1187TIP3   OH225119   6.068   5.917   7.340 -0.1419 -0.1734  0.0285
 1187TIP3    H125120   6.060   5.991   7.279  1.6018  0.1906  0.2081
 1187TIP3    H225121   6.159   5.890   7.334 -0.4784 -1.5758  0.8460
 1188TIP3   OH225122   2.882   3.200   8.435 -0.4106 -0.1764 -0.1693
 1188TIP3    H125123   2.963   3.168   8.475 -0.3509  0.3431  0.1338
 1188TIP3    H225124   2.844   3.258   8.501 -0.7870 -0.0486 -0.4955
 1189TIP3   OH225125   1.282   6.227   7.717  0.0511  0.4173  0.3642
 1189TIP3    H125126   1.304   6.238   7.809 -0.3590 -2.1775  0.8595
 1189TIP3    H225127   1.366   6.208   7.674  0.2585  1.7317  0.1257
 1190TIP3   OH225128   4.377   0.835   7.368  0.3165 -0.3225 -0.0327
 1190TIP3    H125129   4.339   0.801   7.450  0.7742 -0.8863 -0.0519
 1190TIP3    H225130   4.378   0.930   7.381  2.0997 -0.4810  1.3959
 1191TIP3   OH225131   1.736   4.560   8.547  0.2781 -0.0739 -0.0147
 1191TIP3    H125132   1.703   4.527   8.631 -1.7429  0.5566 -0.5171
 1191TIP3    H225133   1.678   4.521   8.482 -0.6009  2.4242 -0.8169
 1192TIP3   OH225134   2.968   6.639   8.135  0.5936 -0.3167 -0.6058
 1192TIP3    H125135   3.060   6.658   8.113  0.1970  0.0849 -2.0010
 1192TIP3    H225136   2.961   6.544   8.127  0.5590 -0.2193 -1.9367
 1193TIP3   OH225137   2.219   4.465   0.563 -0.0597  0.3200  0.3713
 1193TIP3    H125138   2.185   4.377   0.549 -0.5309  0.6355 -0.5779
 1193TIP3    H225139   2.303   4.467   0.516  0.3194  0.1534  1.0299
 1194TIP3   OH225140   5.594   4.261   2.400 -0.0872 -0.5531  0.2317
 1194TIP3    H125141   5.583   4.236   2.492  3.2485 -0.6225  0.7580
 1194TIP3    H225142   5.594   4.357   2.402 -0.6432 -0.5481  0.1780
 1195TIP3   OH225143   1.972   3.027   6.461 -0.3184 -0.5023 -0.8356
 1195TIP3    H125144   1.958   2.975   6.540 -0.1390 -1.7232 -1.5937
 1195TIP3    H225145   2.062   3.060   6.471 -0.3722 -0.4626 -0.4327
 1196TIP3   OH225146   0.199   2.257   0.165 -0.3227  0.4636  0.1441
 1196TIP3    H125147   0.112   2.295   0.182 -1.4547 -2.4987  1.7138
 1196TIP3    H225148   0.253   2.286   0.239 -1.7018 -2.1862  2.3918
 1197TIP3   OH225149   1.768   5.655   0.499  0.3573  0.0321  0.1864
 1197TIP3    H125150   1.817   5.734   0.476 -1.4725  2.7478  4.2986
 1197TIP3    H225151   1.820   5.615   0.569 -0.0255 -0.8685 -0.0408
 1198TIP3   OH225152   3.305   5.914   0.478 -0.1089 -0.2283 -0.1522
 1198TIP3    H125153   3.351   5.886   0.557  0.8091 -0.6914 -0.8351
 1198TIP3    H225154   3.212   5.900   0.499  0.1531 -0.8993  0.6326
 1199TIP3   OH225155   6.059   1.360   7.462 -0.4660  0.4986  0.4758
 1199TIP3    H125156   6.081   1.361   7.369 -0.3776  0.0916  0.4929
 1199TIP3    H225157   6.131   1.407   7.504 -0.3851  0.4756  0.3640
 1200TIP3   OH225158   6.364   0.663   7.347  0.3187  0.8605  0.5100
 1200TIP3    H125159   6.442   0.694   7.393  2.2132  1.0410 -2.5398
 1200TIP3    H225160   6.375   0.568   7.343  1.1603  0.9987 -1.0998
 1201TIP3   OH225161   5.556   1.009   1.114 -0.1352 -0.1641 -0.8472
 1201TIP3    H125162   5.631   0.950   1.127 -0.4434 -0.3008  0.4022
 1201TIP3    H225163   5.592   1.096   1.130  0.1185 -0.0806 -1.8339
 1202TIP3   OH225164   0.744   4.179   8.808 -0.1578  0.2874 -0.1076
 1202TIP3    H125165   0.674   4.244   8.815 -0.4572  0.0691 -0.9250
 1202TIP3    H225166   0.745   4.155   8.716 -1.5153 -2.4282  0.4898
 1203TIP3   OH225167   5.748   6.033   1.588 -0.2031 -0.1733 -0.3789
 1203TIP3    H125168   5.757   6.034   1.493  1.7019 -1.2820 -0.2708
 1203TIP3    H225169   5.725   5.942   1.609  0.2049 -0.1366  0.2522
 1204TIP3   OH225170   2.523   2.460   0.980  0.1880 -0.1953 -0.6323
 1204TIP3    H125171   2.591   2.393   0.979 -0.9050 -1.3190 -0.5157
 1204TIP3    H225172   2.442   2.413   0.963 -0.6626  1.0279 -0.0781
 1205TIP3   OH225173   4.362   1.478   8.711  0.2717  0.3247  0.8932
 1205TIP3    H125174   4.418   1.465   8.787 -0.5920  0.0426  1.4955
 1205TIP3    H225175   4.410   1.437   8.639  0.7601 -0.0612  1.4274
 1206TIP3   OH225176   3.764   1.040   0.692 -0.1719  0.2919  0.2040
 1206TIP3    H125177   3.730   1.096   0.763 -2.4247  0.3728 -0.8434
 1206TIP3    H225178   3.689   0.985   0.669  1.3453 -1.6393 -0.2994
 1207TIP3   OH225179   2.206   1.231   8.221 -0.0443 -0.0330 -0.2277
 1207TIP3    H125180   2.197   1.197   8.311 -3.2556  0.7697 -0.1264
 1207TIP3    H225181   2.294   1.267   8.218  0.1855 -0.1251  2.6128
 1208TIP3   OH225182   5.579   6.230   8.567 -0.0993  0.0029 -0.1381
 1208TIP3    H125183   5.517   6.298   8.595  1.1791  0.8101  0.9021
 1208TIP3    H225184   5.590   6.175   8.645  0.0362 -0.4813 -0.4998
 1209TIP3   OH225185   6.068   0.810   8.080  0.4698 -0.0356 -0.5021
 1209TIP3    H125186   6.060   0.897   8.041  0.6967  0.6758  1.0033
 1209TIP3    H225187   6.092   0.753   8.006  1.5408  1.3767 -1.2949
 1210TIP3   OH225188   0.011   6.782   1.534  0.0434  0.2936  0.2022
 1210TIP3    H125189   0.057   6.713   1.583 -0.2623 -0.0416  0.0162
 1210TIP3    H225190   0.057   6.862   1.559 -0.5018  0.2195  1.5355
 1211TIP3   OH225191   0.604   4.674   0.016  0.3092 -0.2900  0.7005
 1211TIP3    H125192   0.646   4.631   0.090  2.0434 -0.1516 -0.1505
 1211TIP3    H225193   0.675   4.719  -0.030 -1.0579  1.4553  0.1682
 1212TIP3   OH225194   3.102   4.885   7.260 -0.0072 -0.2288 -0.7441
 1212TIP3    H125195   3.031   4.826   7.236  1.4479 -2.0339 -0.9114
 1212TIP3    H225196   3.098   4.890   7.356 -0.9138  0.4401 -0.8118
 1213TIP3   OH225197   1.754   4.220   7.261  0.2486 -0.0844 -0.2490
 1213TIP3    H125198   1.827   4.282   7.266  0.1558 -0.0483  1.0127
 1213TIP3    H225199   1.728   4.221   7.169  3.1346 -1.6532 -1.2007
 1214TIP3   OH225200   6.255   4.890   2.076 -0.1371  0.0367  0.4412
 1214TIP3    H125201   6.163   4.862   2.079 -0.1891  0.0306 -0.6881
 1214TIP3    H225202   6.305   4.809   2.081 -0.1105  0.1472  2.9745
 1215TIP3   OH225203   0.096   2.852   6.416 -0.0375  0.1121 -0.2087
 1215TIP3    H125204   0.165   2.855   6.482  0.0116 -0.0221 -0.2526
 1215TIP3    H225205   0.133   2.796   6.346 -0.2630 -0.1107 -0.1494
 1216TIP3   OH225206   4.755   4.530   6.813 -0.8702 -0.6344 -0.8302
 1216TIP3    H125207   4.674   4.580   6.801  0.0673  1.0254 -0.7019
 1216TIP3    H225208   4.821   4.598   6.829  0.6915 -1.8967 -1.7471
 1217TIP3   OH225209   5.447   6.751   7.105 -0.1180  0.0075 -0.1641
 1217TIP3    H125210   5.477   6.683   7.045 -1.2516 -1.0140  0.3820
 1217TIP3    H225211   5.376   6.710   7.155 -0.1601  1.2722  0.8856
 1218TIP3   OH225212   2.562   0.233   1.963 -0.0635  0.8126  0.6177
 1218TIP3    H125213   2.587   0.148   1.999 -0.3945  1.0269  1.3798
 1218TIP3    H225214   2.536   0.284   2.039 -3.0329  0.5377 -0.0728
 1219TIP3   OH225215   2.303   3.638   1.235 -0.1943 -0.9369 -0.2204
 1219TIP3    H125216   2.344   3.559   1.269 -1.4411 -1.8239 -0.7166
 1219TIP3    H225217   2.344   3.709   1.285 -0.3821 -2.0154  1.5721
 1220TIP3   OH225218   4.487   1.256   1.502 -0.1387 -0.1441  0.1994
 1220TIP3    H125219   4.486   1.161   1.488 -0.6360 -0.0223 -0.6579
 1220TIP3    H225220   4.512   1.292   1.417  0.5458  0.4806  0.6529
 1221TIP3   OH225221   1.323   0.324   2.001 -0.4104  0.0503  0.0656
 1221TIP3    H125222   1.254   0.309   2.066 -1.2980 -2.2135 -1.2837
 1221TIP3    H225223   1.404   0.297   2.045 -0.4893  1.4830  1.2081
 1222TIP3   OH225224   6.733   3.038   1.653  0.3569  0.2257  0.1417
 1222TIP3    H125225   6.760   2.970   1.592 -0.3617  1.0793 -1.1797
 1222TIP3    H225226   6.753   3.002   1.739 -0.1109 -1.6891 -0.4997
 1223TIP3   OH225227   3.684   4.709   6.393  0.2544 -0.0722 -0.0708
 1223TIP3    H125228   3.770   4.750   6.409 -0.7720  2.3215 -0.2030
 1223TIP3    H225229   3.641   4.768   6.331 -0.8621 -2.1601 -1.3938
 1224TIP3   OH225230   3.713   6.550   8.142 -0.3952 -0.1889  0.1651
 1224TIP3    H125231   3.735   6.481   8.204  0.4389 -0.4623 -0.4035
 1224TIP3    H225232   3.768   6.531   8.065 -0.0303  1.1885  0.0542
 1225TIP3   OH225233   2.645   6.002   7.796 -0.3920  0.4701 -0.5636
 1225TIP3    H125234   2.723   6.051   7.822 -1.3239  1.8153 -0.1548
 1225TIP3    H225235   2.644   5.926   7.854  0.2760  0.7696 -0.1414
 1226TIP3   OH225236   5.845   1.788   0.088 -0.1882  0.6898  0.3612
 1226TIP3    H125237   5.916   1.811   0.147 -0.6717  0.2990  1.1067
 1226TIP3    H225238   5.876   1.709   0.043  0.1291  0.9137  0.1868
 1227TIP3   OH225239   1.749   6.482   2.179 -0.3340  0.0170 -0.5552
 1227TIP3    H125240   1.827   6.537   2.183  0.3860 -0.9816 -0.5335
 1227TIP3    H225241   1.681   6.533   2.224  0.4407  0.6587 -0.0880
 1228TIP3   OH225242   6.110   6.297   2.195  0.0168  0.4458 -0.1192
 1228TIP3    H125243   6.120   6.202   2.204  0.5219  0.4807 -0.3214
 1228TIP3    H225244   6.054   6.308   2.118  0.8670  0.3396 -0.7663
 1229TIP3   OH225245   2.926   1.453   8.560 -0.7677 -0.3282  0.1593
 1229TIP3    H125246   2.983   1.515   8.605 -1.6622 -1.9928  4.0814
 1229TIP3    H225247   2.954   1.367   8.593 -2.6375 -1.5854 -1.3177
 1230TIP3   OH225248   5.859   3.604   2.062 -0.4540  0.3356  0.4851
 1230TIP3    H125249   5.879   3.657   1.985 -1.2783  1.3261  0.9218
 1230TIP3    H225250   5.763   3.604   2.065 -0.4400 -0.3831  1.0515
 1231TIP3   OH225251   5.720   0.844   7.559  0.2967 -0.3944 -0.6952
 1231TIP3    H125252   5.686   0.930   7.533  1.4272 -0.1770 -1.5609
 1231TIP3    H225253   5.644   0.796   7.591 -0.7445  0.2069 -2.1758
 1232TIP3   OH225254   5.300   6.773   0.511  0.2951 -0.1415  0.3160
 1232TIP3    H125255   5.373   6.778   0.572  1.0721  0.8951 -0.6645
 1232TIP3    H225256   5.278   6.864   0.492 -0.1756 -0.4405 -0.6436
 1233TIP3   OH225257   3.670   2.725   1.888 -0.2834  1.0472 -0.4301
 1233TIP3    H125258   3.661   2.819   1.897  0.0271  0.9162  1.9586
 1233TIP3    H225259   3.672   2.692   1.979  0.6328 -1.1455 -1.1714
 1234TIP3   OH225260   5.766   3.124   1.547 -0.2942 -0.1805 -0.2239
 1234TIP3    H125261   5.847   3.080   1.573 -0.3070 -0.5229 -0.7622
 1234TIP3    H225262   5.707   3.112   1.622 -0.0411 -0.4238 -0.0630
 1235TIP3   OH225263   0.904   1.055   1.201  0.4536 -0.9264  0.0657
 1235TIP3    H125264   0.944   1.018   1.123  0.4100 -3.5269  1.1718
 1235TIP3    H225265   0.874   1.142   1.174  0.9110 -1.5222 -2.6230
 1236TIP3   OH225266   2.760   5.707   7.866  0.0964  0.4244  0.0066
 1236TIP3    H125267   2.800   5.652   7.799 -0.7519  0.5332 -0.6004
 1236TIP3    H225268   2.682   5.660   7.893 -1.3874  1.8811 -1.4774
 1237TIP3   OH225269   0.409   3.541   8.355 -0.0004  0.3828  0.1253
 1237TIP3    H125270   0.421   3.588   8.272  1.2157 -0.5434 -0.2565
 1237TIP3    H225271   0.465   3.587   8.417  1.6719 -0.8231 -0.3929
 1238TIP3   OH225272   0.309   4.343   1.744  0.0892  0.1137 -0.0038
 1238TIP3    H125273   0.306   4.261   1.694 -0.6689  0.7118 -0.9920
 1238TIP3    H225274   0.294   4.317   1.835  0.2816 -0.8853 -0.2491
 1239TIP3   OH225275   4.775   4.900   1.279  0.4669 -0.3330 -0.0840
 1239TIP3    H125276   4.814   4.823   1.320  0.1177 -0.6591 -0.3634
 1239TIP3    H225277   4.837   4.924   1.210  0.0216 -1.0600 -0.7565
 1240TIP3   OH225278   2.824   4.439   7.372 -0.1769  0.2184 -0.4987
 1240TIP3    H125279   2.800   4.497   7.445 -0.3266  0.0985 -0.4520
 1240TIP3    H225280   2.919   4.443   7.369 -0.1676  0.1779 -0.2591
 1241TIP3   OH225281   2.776   0.410   1.027  0.1968  0.2821 -0.0042
 1241TIP3    H125282   2.828   0.335   0.999 -0.2946 -0.1497  0.2146
 1241TIP3    H225283   2.822   0.487   0.993  1.8187  0.0279  1.4995
 1242TIP3   OH225284   3.812   2.029   8.097  0.0776  0.0938  0.1205
 1242TIP3    H125285   3.887   2.006   8.043  0.8401  0.0983  1.1334
 1242TIP3    H225286   3.841   2.104   8.149 -0.2250 -0.5691  1.3031
 1243TIP3   OH225287   6.752   6.619   6.611  0.4196  0.3541 -0.6582
 1243TIP3    H125288   6.695   6.543   6.599  1.5253 -0.8664  1.1348
 1243TIP3    H225289   6.839   6.581   6.624  1.1177  1.9814 -0.3422
 1244TIP3   OH225290   3.836   6.208   0.957 -0.1313  0.1779 -0.3488
 1244TIP3    H125291   3.864   6.271   1.024 -1.4376  2.5960 -1.8991
 1244TIP3    H225292   3.764   6.160   0.998  1.2366 -0.7524  1.0563
 1245TIP3   OH225293   3.406   6.707   0.208 -0.7222  0.0863 -0.2940
 1245TIP3    H125294   3.408   6.616   0.237 -2.3298 -0.2457 -1.1126
 1245TIP3    H225295   3.466   6.752   0.266 -0.4609 -1.3638  0.6074
 1246TIP3   OH225296   2.123   2.295   0.333 -0.2694 -0.1059  0.3745
 1246TIP3    H125297   2.038   2.336   0.317  0.6380  0.9372 -2.3245
 1246TIP3    H225298   2.105   2.201   0.329 -1.2387  0.0922 -0.7780
 1247TIP3   OH225299   0.111   6.334   8.833  0.2702  0.3534  0.6287
 1247TIP3    H125300   0.076   6.248   8.854  0.1756  0.0471 -0.7107
 1247TIP3    H225301   0.166   6.320   8.756  3.1158  0.8834  2.4369
 1248TIP3   OH225302   4.770   1.909   0.549 -0.4424 -0.3991 -0.2747
 1248TIP3    H125303   4.686   1.892   0.591  0.1612  3.3660  2.9473
 1248TIP3    H225304   4.749   1.964   0.474 -0.9205 -0.8754 -0.5001
 1249TIP3   OH225305   1.786   5.961   1.061 -0.0906  0.5386 -0.4650
 1249TIP3    H125306   1.704   6.011   1.056  0.0696  0.8628  0.1242
 1249TIP3    H225307   1.812   5.967   1.153  1.4886  1.8849 -0.9404
 1250TIP3   OH225308   6.488   1.936   1.138 -0.0085  0.2560  0.3627
 1250TIP3    H125309   6.440   1.914   1.218  1.9099 -1.2681  1.1579
 1250TIP3    H225310   6.486   1.856   1.087 -0.7864  1.0748 -0.9474
 1251TIP3   OH225311   1.220   1.775   6.735  0.2407 -0.5212 -0.5983
 1251TIP3    H125312   1.153   1.740   6.678  1.0607 -1.3435 -1.0816
 1251TIP3    H225313   1.197   1.867   6.746 -2.0527 -1.1926  0.8331
 1252TIP3   OH225314   1.135   0.575   0.519  0.3534  0.0067 -0.5702
 1252TIP3    H125315   1.141   0.654   0.572  0.6768 -0.7655  0.5854
 1252TIP3    H225316   1.226   0.546   0.509  0.0753 -2.3138  2.3338
 1253TIP3   OH225317   3.495   6.403   8.723  0.5402  0.1855 -0.2336
 1253TIP3    H125318   3.492   6.497   8.736 -0.5143  0.0864  0.2949
 1253TIP3    H225319   3.410   6.380   8.685  0.6041 -0.6134  0.0781
 1254TIP3   OH225320   2.604   3.521   1.555 -0.0092 -0.4071 -0.6591
 1254TIP3    H125321   2.685   3.570   1.539 -0.2174  0.9762  1.9133
 1254TIP3    H225322   2.634   3.431   1.570  0.9180 -0.1467 -0.8457
 1255TIP3   OH225323   5.486   5.169   1.700 -0.0754 -0.3174 -0.0629
 1255TIP3    H125324   5.453   5.143   1.614 -0.6362 -1.1487  0.3881
 1255TIP3    H225325   5.557   5.229   1.681 -0.4406 -0.1944 -1.1039
 1256TIP3   OH225326   2.814   1.177   0.407  0.3465  0.1830  0.0205
 1256TIP3    H125327   2.850   1.118   0.341  0.3802  1.9468 -1.6600
 1256TIP3    H225328   2.872   1.254   0.403 -0.1955  0.6911  1.4658
 1257TIP3   OH225329   5.602   2.104   0.277 -0.6420  0.0666 -0.4110
 1257TIP3    H125330   5.608   2.103   0.181  1.7651  0.9594 -0.3554
 1257TIP3    H225331   5.528   2.047   0.298 -2.0342  0.8507 -2.8275
 1258TIP3   OH225332   1.511   6.576   7.928 -0.0377 -0.6383  0.0505
 1258TIP3    H125333   1.527   6.639   7.998 -2.6267 -0.0049  0.1563
 1258TIP3    H225334   1.574   6.600   7.860  1.7679 -0.5590  1.6442
 1259TIP3   OH225335   5.861   0.757   6.774 -0.1286 -0.3418 -0.1880
 1259TIP3    H125336   5.942   0.710   6.794 -0.8659 -2.1273 -1.1743
 1259TIP3    H225337   5.799   0.727   6.840 -0.6078 -0.7846 -0.8281
 1260TIP3   OH225338   0.097   5.055   7.476  0.6337 -0.5414  0.0571
 1260TIP3    H125339   0.131   5.103   7.551 -0.1896 -1.3206  0.9494
 1260TIP3    H225340   0.059   5.122   7.419 -0.0842 -0.0782  1.0621
 1261TIP3   OH225341   0.598   0.123   8.784  0.2418  0.0997 -0.1587
 1261TIP3    H125342   0.591   0.154   8.694  1.5759  0.4348 -0.1791
 1261TIP3    H225343   0.629   0.033   8.776  2.6674  0.8514 -0.0618
 1262TIP3   OH225344   2.475   3.937   8.311  0.2323 -0.0322 -0.2979
 1262TIP3    H125345   2.530   3.863   8.286  1.6766  0.4761  1.2325
 1262TIP3    H225346   2.392   3.898   8.335 -0.1804 -0.8180 -2.7013
 1263TIP3   OH225347   2.693   0.392   2.660 -0.4013 -0.3853 -0.0389
 1263TIP3    H125348   2.636   0.454   2.706  0.7640  0.7594 -0.0454
 1263TIP3    H225349   2.772   0.443   2.642  0.8984 -2.0969  0.5909
 1264TIP3   OH225350   3.511   6.264   0.084  0.0204  0.3240  0.5939
 1264TIP3    H125351   3.515   6.304  -0.003  0.2856  0.2744  0.5836
 1264TIP3    H225352   3.577   6.311   0.135 -0.4203  0.6318  0.8840
 1265TIP3   OH225353   4.901   2.240   8.272 -0.3152  0.2088  0.0579
 1265TIP3    H125354   4.960   2.181   8.319  0.0640  0.3210 -0.2700
 1265TIP3    H225355   4.923   2.228   8.180  0.3223  1.4264  0.0266
 1266TIP3   OH225356   3.386   2.335   7.444  0.1903  0.7374  0.1551
 1266TIP3    H125357   3.303   2.378   7.464  0.9701  1.2507  2.6477
 1266TIP3    H225358   3.451   2.405   7.447  1.4422 -0.3769  3.9881
 1267TIP3   OH225359   4.337   4.794   7.846  0.2098 -0.1561 -0.1321
 1267TIP3    H125360   4.431   4.797   7.827  0.5968  2.1679  1.7420
 1267TIP3    H225361   4.300   4.862   7.790 -0.2534 -0.5298 -0.2831
 1268TIP3   OH225362   4.999   3.763   6.856 -0.3822 -0.5482  0.3129
 1268TIP3    H125363   5.011   3.691   6.919 -0.6728 -1.5470 -0.7287
 1268TIP3    H225364   4.961   3.834   6.908 -1.8672 -1.7938  1.0191
 1269TIP3   OH225365   3.138   1.384   7.988  0.3354 -0.2294 -0.6130
 1269TIP3    H125366   3.206   1.330   7.950 -0.5089 -0.5775 -1.6820
 1269TIP3    H225367   3.121   1.346   8.074 -0.0364 -1.4814 -1.2313
 1270TIP3   OH225368   3.021   5.634   6.788 -0.4800 -0.3482  0.6089
 1270TIP3    H125369   3.007   5.644   6.693 -2.0180  2.5998  1.0247
 1270TIP3    H225370   3.081   5.705   6.810 -0.7540 -0.5248  1.9838
 1271TIP3   OH225371   1.046   1.199   8.771  0.1767  0.0598  0.0125
 1271TIP3    H125372   0.956   1.228   8.787 -0.3537 -0.7956 -1.2761
 1271TIP3    H225373   1.081   1.261   8.707 -0.0392 -0.5062 -0.6679
 1272TIP3   OH225374   3.269   5.106   8.677  0.3497  0.3208  0.5440
 1272TIP3    H125375   3.215   5.161   8.732  1.0710  0.7296  0.8599
 1272TIP3    H225376   3.207   5.048   8.631 -0.2781  0.1717  1.5588
 1273TIP3   OH225377   4.013   3.676   0.790 -0.1322 -0.1336 -0.7114
 1273TIP3    H125378   3.940   3.664   0.729  0.6161 -2.2481 -1.2673
 1273TIP3    H225379   4.019   3.771   0.802 -2.0957  0.1540 -1.7043
 1274TIP3   OH225380   0.844   5.963   0.386  0.0740  0.0112 -0.2169
 1274TIP3    H125381   0.866   5.909   0.462  0.7684 -1.6481 -1.5183
 1274TIP3    H225382   0.926   6.006   0.362  0.0650 -0.1328 -0.5175
 1275TIP3   OH225383   6.192   2.639   1.725 -0.0678  0.3254  0.1589
 1275TIP3    H125384   6.116   2.663   1.777 -0.8785 -0.6181 -0.5702
 1275TIP3    H225385   6.252   2.714   1.735 -1.3041  1.3284  0.2826
 1276TIP3   OH225386   1.884   2.055   8.533  0.0262 -0.3933 -0.3801
 1276TIP3    H125387   1.882   2.011   8.448  0.7223  0.1720 -0.6950
 1276TIP3    H225388   1.826   2.002   8.589 -2.8941  0.8733 -1.9816
 1277TIP3   OH225389   1.162   3.637   8.807 -0.1422  0.4333  0.4618
 1277TIP3    H125390   1.239   3.623   8.862 -0.0619 -1.0098  0.0130
 1277TIP3    H225391   1.141   3.730   8.819 -0.4355  0.0966  3.3534
 1278TIP3   OH225392   0.577   5.788   7.064 -0.7338  0.7668  0.5370
 1278TIP3    H125393   0.492   5.745   7.072  0.6456 -2.1370  0.9932
 1278TIP3    H225394   0.579   5.822   6.975 -2.0289  0.0779  0.2228
 1279TIP3   OH225395   0.454   5.961   7.373 -0.1470  0.1311  0.2039
 1279TIP3    H125396   0.540   5.975   7.333  0.5716  1.4828  2.1071
 1279TIP3    H225397   0.445   5.866   7.377  1.6661 -0.0622  0.7543
 1280TIP3   OH225398   2.366   5.580   0.871  0.0500  0.3329  0.0613
 1280TIP3    H125399   2.380   5.674   0.875  0.2242  0.3740 -1.2157
 1280TIP3    H225400   2.368   5.552   0.962  0.1136  1.5424  0.4512
 1281TIP3   OH225401   2.666   4.881   0.388 -0.4060  0.5820  0.6280
 1281TIP3    H125402   2.691   4.905   0.299 -0.4779  2.0480  0.9720
 1281TIP3    H225403   2.749   4.870   0.434 -0.2828 -2.5602 -0.1389
 1282TIP3   OH225404   2.476   5.275   1.634 -0.2503 -0.1812  0.1956
 1282TIP3    H125405   2.422   5.249   1.709 -1.0403  0.4358 -0.1411
 1282TIP3    H225406   2.505   5.364   1.654 -0.2878 -0.0937 -0.1254
 1283TIP3   OH225407   1.972   0.418   7.421 -0.4664 -0.1845  0.1794
 1283TIP3    H125408   2.005   0.450   7.337 -0.4361 -1.0085 -0.1265
 1283TIP3    H225409   1.878   0.432   7.417 -0.4006  0.2979  0.2397
 1284TIP3   OH225410   1.909   4.778   1.199 -0.5138 -0.1616  0.1174
 1284TIP3    H125411   1.967   4.851   1.219  0.5363 -0.4554 -1.6405
 1284TIP3    H225412   1.950   4.735   1.124 -0.2487 -3.4739  1.9837
 1285TIP3   OH225413   3.678   5.760   1.000  0.0560 -0.4726 -0.2117
 1285TIP3    H125414   3.763   5.793   1.028 -0.0772 -0.2643 -0.0428
 1285TIP3    H225415   3.680   5.765   0.905 -0.3446  1.0296 -0.1665
 1286TIP3   OH225416   6.714   0.040   7.510 -0.6033  0.2093 -0.5895
 1286TIP3    H125417   6.636   0.010   7.557 -1.8786  1.4454 -1.8322
 1286TIP3    H225418   6.770   0.078   7.578 -1.3188 -0.1973  0.2485
 1287TIP3   OH225419   5.860   5.102   8.247 -0.0818 -0.3245  0.5723
 1287TIP3    H125420   5.790   5.042   8.270 -0.6389  0.3387  0.6395
 1287TIP3    H225421   5.817   5.187   8.237  0.3023 -0.3629 -1.8390
 1288TIP3   OH225422   1.957   1.114   0.414  0.3411  0.0354  0.5373
 1288TIP3    H125423   1.992   1.025   0.417  1.0303  0.2731 -0.1898
 1288TIP3    H225424   2.025   1.168   0.456  0.2781  0.3273  0.2682
 1289TIP3   OH225425   6.770   4.148   8.515 -0.2930 -0.0262  0.5950
 1289TIP3    H125426   6.760   4.240   8.539  2.1313  0.4856 -0.1161
 1289TIP3    H225427   6.754   4.146   8.421  0.1254 -0.2395  0.5280
 1290TIP3   OH225428   1.615   3.404   7.080  0.1507  0.0334 -0.0386
 1290TIP3    H125429   1.669   3.472   7.119  0.3889 -0.2665  0.1586
 1290TIP3    H225430   1.564   3.368   7.153  1.4193 -1.3009  0.2398
 1291TIP3   OH225431   1.973   6.016   8.271  0.8242  0.1534 -0.0991
 1291TIP3    H125432   2.002   5.995   8.360  1.4799 -1.8120 -0.7256
 1291TIP3    H225433   1.877   6.011   8.276  0.6775  2.5578  1.0153
 1292TIP3   OH225434   2.393   2.685   0.762  0.7056  0.2623  0.1193
 1292TIP3    H125435   2.453   2.677   0.836  2.0840 -1.9026 -1.1255
 1292TIP3    H225436   2.341   2.606   0.765  2.0004 -0.7781 -2.1549
 1293TIP3   OH225437   5.834   1.974   2.498  0.0010 -0.1874 -0.7462
 1293TIP3    H125438   5.790   1.986   2.582 -2.1235 -0.2373 -1.7636
 1293TIP3    H225439   5.879   1.890   2.506 -1.8106 -1.1738 -0.2609
 1294TIP3   OH225440   4.491   0.198   7.503 -0.3179 -0.4385  0.1042
 1294TIP3    H125441   4.582   0.216   7.529 -0.5095 -0.5302  0.8415
 1294TIP3    H225442   4.438   0.243   7.568 -0.8130 -0.0047 -0.5858
 1295TIP3   OH225443   6.522   4.997   8.564 -1.0105  0.2759  0.4638
 1295TIP3    H125444   6.592   4.987   8.499 -1.3784  2.0469 -0.2650
 1295TIP3    H225445   6.476   4.913   8.563  0.4320 -0.5404  0.1704
 1296TIP3   OH225446   2.097   0.401   8.560  0.0569 -0.3558 -0.4180
 1296TIP3    H125447   2.183   0.361   8.572  1.2163  1.9200 -0.6102
 1296TIP3    H225448   2.057   0.352   8.488  0.7107 -2.1377  0.3756
 1297TIP3   OH225449   4.539   6.474   0.764  0.1951  0.2789 -0.3832
 1297TIP3    H125450   4.558   6.532   0.838 -1.5207  0.5599 -0.1123
 1297TIP3    H225451   4.607   6.493   0.700  0.4127  1.6578  0.2220
 1298TIP3   OH225452   1.882   1.591   8.613  0.2636  0.6372  0.2509
 1298TIP3    H125453   1.930   1.517   8.576 -0.9130 -1.2797  2.3232
 1298TIP3    H225454   1.893   1.661   8.548  0.2193 -1.7320 -2.5256
 1299TIP3   OH225455   0.873   2.319   1.510  0.0098  0.0779  0.0371
 1299TIP3    H125456   0.874   2.312   1.605  1.1176  0.5340  0.0702
 1299TIP3    H225457   0.862   2.228   1.480 -1.3537  0.0359  0.5875
 1300TIP3   OH225458   5.755   5.041   8.613 -0.2879  1.0939  0.3223
 1300TIP3    H125459   5.828   5.092   8.578  1.2240 -1.7651 -0.9923
 1300TIP3    H225460   5.785   5.012   8.699 -1.2392  2.4981  1.1696
 1301TIP3   OH225461   4.958   0.559   7.672  0.0361  0.4406 -0.4960
 1301TIP3    H125462   5.004   0.568   7.588 -0.3559  0.6952 -0.6843
 1301TIP3    H225463   4.920   0.471   7.668 -0.1174  0.5131 -0.6557
 1302TIP3   OH225464   2.582   0.092   8.795 -0.2528  0.4677  0.1629
 1302TIP3    H125465   2.573   0.002   8.826 -0.7703  0.7333  0.7965
 1302TIP3    H225466   2.599   0.083   8.701  1.4745 -0.3408  0.5112
 1303TIP3   OH225467   3.457   4.065   8.450  0.4680  0.0045 -0.1433
 1303TIP3    H125468   3.473   4.028   8.536 -1.0151  2.4539  1.3058
 1303TIP3    H225469   3.466   4.160   8.462  1.4960  0.3829 -3.0138
 1304TIP3   OH225470   5.699   3.552   1.364  0.0837  0.1170 -0.1841
 1304TIP3    H125471   5.609   3.561   1.333  0.1470  1.2668 -0.0797
 1304TIP3    H225472   5.725   3.463   1.338 -0.7881  0.0787 -0.9649
 1305TIP3   OH225473   3.007   1.576   0.997 -0.1762 -0.6471  0.3747
 1305TIP3    H125474   3.043   1.506   1.050  0.6767  0.2775  1.0624
 1305TIP3    H225475   2.963   1.532   0.925 -0.4845 -1.8964  1.3086
 1306TIP3   OH225476   2.618   0.187   1.469  0.3247  0.3480  0.0607
 1306TIP3    H125477   2.543   0.234   1.433  1.5894  1.3061 -1.4888
 1306TIP3    H225478   2.692   0.248   1.459  1.1509 -0.1528  2.4903
 1307TIP3   OH225479   4.758   6.484   7.827  0.0790  0.1062  0.0250
 1307TIP3    H125480   4.761   6.476   7.732  0.2344 -0.1243  0.0489
 1307TIP3    H225481   4.755   6.394   7.859 -0.4156  0.1891  0.2234
 1308TIP3   OH225482   0.421   4.447   0.586  0.1772  0.1123 -0.0510
 1308TIP3    H125483   0.358   4.475   0.652 -0.0028 -4.6740  2.2012
 1308TIP3    H225484   0.506   4.457   0.628  0.3707  0.1431 -0.4419
 1309TIP3   OH225485   1.262   3.030   7.857 -0.3880 -0.3210  0.3469
 1309TIP3    H125486   1.200   3.039   7.929 -0.6750  1.4139 -0.0591
 1309TIP3    H225487   1.210   2.995   7.785  0.0440 -2.6936  1.1075
 1310TIP3   OH225488   6.380   6.173   7.150 -0.2100 -0.1908  0.1985
 1310TIP3    H125489   6.371   6.235   7.076 -0.7394  1.2539  1.4176
 1310TIP3    H225490   6.354   6.089   7.113  0.1440  0.3678 -1.4326
 1311TIP3   OH225491   1.188   0.165   0.472  0.2453 -0.1076  0.1970
 1311TIP3    H125492   1.109   0.174   0.419  0.7953 -1.1661 -0.8656
 1311TIP3    H225493   1.240   0.098   0.427  1.5159  0.1776  1.1559
 1312TIP3   OH225494   1.764   3.735   7.573  0.0679 -0.2387 -0.5784
 1312TIP3    H125495   1.710   3.666   7.534 -1.3428 -1.0741  2.4769
 1312TIP3    H225496   1.701   3.801   7.602  1.1193  0.8105 -0.6086
 1313TIP3   OH225497   6.027   5.042   0.509  0.4112  0.0318 -0.1017
 1313TIP3    H125498   5.983   5.047   0.594  0.8540  0.9055  0.0769
 1313TIP3    H225499   6.057   4.951   0.504 -0.6923 -0.3679  0.1261
 1314TIP3   OH225500   6.458   4.644   1.863  0.4338  0.1323 -0.3328
 1314TIP3    H125501   6.503   4.649   1.947 -0.7694  1.8930  0.2906
 1314TIP3    H225502   6.380   4.591   1.881  0.0484  0.7157 -0.2479
 1315TIP3   OH225503   3.634   3.257   2.022  0.3033  0.5894 -0.4536
 1315TIP3    H125504   3.650   3.307   2.102  0.5922  0.4883 -0.4455
 1315TIP3    H225505   3.618   3.323   1.955  4.3974  0.9923 -1.3304
 1316TIP3   OH225506   1.994   3.157   8.235  0.3363 -0.2249 -0.0366
 1316TIP3    H125507   2.067   3.114   8.279 -0.3323 -1.7420 -0.3121
 1316TIP3    H225508   1.916   3.121   8.278 -0.2719  2.0293  0.8629
 1317TIP3   OH225509   1.303   3.064   0.708  0.2266 -0.4638  0.3143
 1317TIP3    H125510   1.285   2.976   0.742  0.3981 -0.3623  0.6795
 1317TIP3    H225511   1.247   3.073   0.631 -2.2883  0.3316  2.1290
 1318TIP3   OH225512   1.791   6.783   8.035 -0.5151 -0.1972 -0.0827
 1318TIP3    H125513   1.706   6.821   8.054 -0.6962 -0.8855  0.5487
 1318TIP3    H225514   1.842   6.855   7.997 -1.5667  0.0517 -1.0527
 1319TIP3   OH225515   3.373   2.873   0.281 -0.6604  0.3346  0.0476
 1319TIP3    H125516   3.394   2.794   0.332 -0.3088  0.1480 -0.3800
 1319TIP3    H225517   3.407   2.855   0.194 -1.6328  0.4873 -0.3728
 1320TIP3   OH225518   1.846   1.388   7.271 -0.1238  0.4009 -0.3129
 1320TIP3    H125519   1.786   1.351   7.335 -1.2636  0.9233 -1.0490
 1320TIP3    H225520   1.883   1.312   7.226 -1.4642  0.0958 -0.9454
 1321TIP3   OH225521   5.018   2.752   7.382  0.1643  0.1057 -0.2037
 1321TIP3    H125522   5.002   2.658   7.384 -2.4071  0.4588  1.6624
 1321TIP3    H225523   5.079   2.768   7.455 -1.3926  0.0958  1.1542
 1322TIP3   OH225524   6.563   4.069   7.071 -0.2274  0.3300  0.3358
 1322TIP3    H125525   6.514   4.144   7.039  1.2419  1.0533 -0.3298
 1322TIP3    H225526   6.627   4.050   7.002  0.5059 -0.4878  1.1964
 1323TIP3   OH225527   3.332   5.768   7.694 -0.4266  0.2798 -0.0621
 1323TIP3    H125528   3.287   5.830   7.751  0.2073 -0.0951  0.8784
 1323TIP3    H225529   3.409   5.742   7.744 -0.1597 -0.5037 -0.8619
 1324TIP3   OH225530   0.703   3.239   0.567 -0.5622 -0.9162  0.1891
 1324TIP3    H125531   0.626   3.287   0.538  0.0213  0.4325  0.7965
 1324TIP3    H225532   0.687   3.221   0.660  0.2872  0.3285  0.6063
 1325TIP3   OH225533   6.629   6.228   0.488 -0.6976 -0.1159  0.2266
 1325TIP3    H125534   6.557   6.273   0.533 -1.0996  0.5736 -1.0420
 1325TIP3    H225535   6.687   6.298   0.458 -0.5503 -0.5300 -0.4899
 1326TIP3   OH225536   1.898   3.882   7.078  0.1772 -0.3755 -0.7442
 1326TIP3    H125537   1.928   3.874   7.169 -0.3263 -0.4194 -0.5750
 1326TIP3    H225538   1.819   3.936   7.085 -0.4785 -1.2724 -1.0212
 1327TIP3   OH225539   2.524   4.324   0.853 -0.0044 -0.2216  0.3527
 1327TIP3    H125540   2.492   4.322   0.943 -0.1712 -0.8791  0.2853
 1327TIP3    H225541   2.480   4.400   0.814 -0.1581 -0.1075  0.7414
 1328TIP3   OH225542   3.016   2.010   0.499  0.1384 -0.0405 -0.4539
 1328TIP3    H125543   3.104   1.977   0.519  1.1200  2.4641 -0.2900
 1328TIP3    H225544   3.031   2.079   0.433 -1.7513  0.1691 -0.7040
 1329TIP3   OH225545   2.964   3.531   0.104  0.2048  0.5661  0.1330
 1329TIP3    H125546   3.007   3.539   0.189  0.3209 -0.8474  0.2312
 1329TIP3    H225547   3.029   3.487   0.048 -0.8961 -1.2091  0.1603
 1330TIP3   OH225548   1.330   3.702   1.994 -0.0710 -0.2021  0.1993
 1330TIP3    H125549   1.275   3.780   1.992 -0.6661 -0.6168  0.3327
 1330TIP3    H225550   1.412   3.733   2.033  0.6745  0.9461 -2.1029
 1331TIP3   OH225551   3.771   1.680   0.652  0.7094  0.4966 -0.2318
 1331TIP3    H125552   3.693   1.700   0.601  1.2552  0.2610 -1.1757
 1331TIP3    H225553   3.844   1.690   0.591  1.3676  0.0571  0.4568
 1332TIP3   OH225554   3.997   2.240   0.155  0.2041 -0.3282 -0.3543
 1332TIP3    H125555   4.063   2.224   0.222 -2.2981  0.7066  2.5891
 1332TIP3    H225556   3.929   2.174   0.172 -0.6718  0.2075 -1.6261
 1333TIP3   OH225557   4.058   6.708   2.381 -0.2786 -0.5065 -0.2893
 1333TIP3    H125558   4.120   6.767   2.423  0.9829 -1.7018 -0.4043
 1333TIP3    H225559   4.075   6.718   2.287  0.3725 -1.4597 -0.2906
 1334TIP3   OH225560   3.210   3.707   1.676  0.1485  0.6627 -0.3295
 1334TIP3    H125561   3.118   3.713   1.702 -0.7181  0.0970 -3.0010
 1334TIP3    H225562   3.248   3.645   1.739 -1.6986 -0.3677 -0.1569
 1335TIP3   OH225563   3.861   3.135   7.487  0.4451  0.0235  0.5349
 1335TIP3    H125564   3.775   3.158   7.453 -0.0668 -2.6208 -0.2038
 1335TIP3    H225565   3.843   3.083   7.566  1.4694  1.1819  1.5825
 1336TIP3   OH225566   0.237   6.449   1.912 -0.0804  0.0908  0.3195
 1336TIP3    H125567   0.248   6.412   2.000 -1.7194  2.3573  1.5793
 1336TIP3    H225568   0.301   6.520   1.908 -1.2482  1.1836  0.4426
 1337TIP3   OH225569   4.643   4.617   1.052  1.1521  0.7805  0.2232
 1337TIP3    H125570   4.632   4.567   1.133 -0.6461 -0.2705 -0.6068
 1337TIP3    H225571   4.738   4.630   1.045  1.4888 -0.5319  1.6549
 1338TIP3   OH225572   2.313   2.580   7.725  0.1520  0.1381  0.2609
 1338TIP3    H125573   2.328   2.616   7.638  0.8150  0.1694  0.3841
 1338TIP3    H225574   2.293   2.487   7.710  1.0697 -0.0465  0.1247
 1339TIP3   OH225575   1.111   5.809   1.496 -0.4038 -0.3806  0.0346
 1339TIP3    H125576   1.170   5.872   1.538  2.6064 -1.2453 -2.5731
 1339TIP3    H225577   1.105   5.838   1.405 -2.5612 -1.4356 -0.2324
 1340TIP3   OH225578   3.923   0.757   0.563 -0.2375 -0.5563 -0.1906
 1340TIP3    H125579   3.960   0.714   0.486  0.3860  0.6450 -0.6012
 1340TIP3    H225580   3.936   0.695   0.635 -0.2037 -1.4062 -0.9164
 1341TIP3   OH225581   3.663   5.872   1.832  0.0272  0.0528  0.2986
 1341TIP3    H125582   3.662   5.899   1.924  1.6059  0.6234  0.1677
 1341TIP3    H225583   3.571   5.878   1.805 -0.5302 -0.4975  1.9262
 1342TIP3   OH225584   5.766   3.075   0.970 -0.4590  0.3284 -0.1904
 1342TIP3    H125585   5.846   3.053   1.018 -0.0324  1.8765 -0.1240
 1342TIP3    H225586   5.704   3.005   0.992  1.0717 -1.2802 -0.7818
 1343TIP3   OH225587   3.257   1.168   7.101 -0.1239  0.1467  0.2227
 1343TIP3    H125588   3.175   1.176   7.052  0.4064  3.4949 -0.3500
 1343TIP3    H225589   3.323   1.150   7.033 -0.1170 -0.8543  0.4769
 1344TIP3   OH225590   4.346   5.951   1.421  0.1795  0.2782 -0.2556
 1344TIP3    H125591   4.418   5.959   1.484 -1.2737 -0.8262  1.6593
 1344TIP3    H225592   4.314   6.040   1.408  1.4788  0.7059 -0.6732
 1345TIP3   OH225593   0.324   6.123   7.568  0.5999  0.5244  0.4573
 1345TIP3    H125594   0.336   6.218   7.562  0.8919  0.4189 -1.0793
 1345TIP3    H225595   0.374   6.088   7.495  1.9965 -0.9768  2.0369
 1346TIP3   OH225596   1.917   1.651   8.200 -0.0043 -0.0343 -0.2668
 1346TIP3    H125597   1.863   1.718   8.241  0.6808  0.1131  0.4137
 1346TIP3    H225598   1.897   1.659   8.106 -2.1330 -0.8592  0.0487
 1347TIP3   OH225599   3.266   4.813   0.618  0.3754 -0.2832 -0.6999
 1347TIP3    H125600   3.357   4.830   0.641  0.2559 -2.6981  2.0650
 1347TIP3    H225601   3.259   4.718   0.611 -2.0960 -0.2529  0.0841
 1348TIP3   OH225602   4.094   4.195   7.867  0.2700  0.0619 -0.2203
 1348TIP3    H125603   4.152   4.173   7.940 -2.8203 -1.9633  1.8688
 1348TIP3    H225604   4.099   4.120   7.809  1.4438  0.9400 -1.3130
 1349TIP3   OH225605   3.183   6.782   7.108 -0.3076  0.8859  0.0154
 1349TIP3    H125606   3.230   6.861   7.081 -0.2414  0.1321 -2.2537
 1349TIP3    H225607   3.134   6.756   7.030 -1.2237 -0.6789  1.0762
 1350TIP3   OH225608   6.487   2.612   0.318  0.1882 -0.5072  0.2920
 1350TIP3    H125609   6.424   2.609   0.390 -2.1952 -0.5247 -1.6263
 1350TIP3    H225610   6.521   2.522   0.313 -0.9768 -0.9797  0.3359
 1351TIP3   OH225611   2.927   2.614   8.510 -0.1730 -0.0140  0.0572
 1351TIP3    H125612   2.854   2.578   8.460 -0.2365  0.1766  0.0146
 1351TIP3    H225613   2.928   2.563   8.591 -0.4415  0.0790  0.1205
 1352TIP3   OH225614   3.881   6.209   7.309  0.1941  0.2843  0.0610
 1352TIP3    H125615   3.873   6.254   7.224  1.5991 -0.5254 -0.5368
 1352TIP3    H225616   3.948   6.259   7.355 -0.5276  0.6872  0.6970
 1353TIP3   OH225617   2.863   5.079   8.426 -0.1067  0.2911  0.2613
 1353TIP3    H125618   2.846   5.058   8.517  0.4441 -1.2546  0.0351
 1353TIP3    H225619   2.949   5.042   8.408 -0.1674  0.6403 -0.8571
 1354TIP3   OH225620   0.116   4.320   7.762  0.2455 -0.5076 -0.3609
 1354TIP3    H125621   0.032   4.319   7.717  0.0239  0.3083  0.0040
 1354TIP3    H225622   0.177   4.358   7.699  0.1060 -0.1124 -0.2636
 1355TIP3   OH225623   0.423   4.245   7.779  0.1783  0.3819  0.3199
 1355TIP3    H125624   0.492   4.265   7.842 -1.0874 -0.3704  2.0504
 1355TIP3    H225625   0.391   4.330   7.750  0.5003  0.7499  1.0228
 1356TIP3   OH225626   2.678   0.540   0.345  0.9589  0.3224 -0.3466
 1356TIP3    H125627   2.727   0.622   0.347 -0.1417  0.9774  0.5467
 1356TIP3    H225628   2.699   0.497   0.428  0.0186  0.6218  0.0563
 1357TIP3   OH225629   2.315   0.021   0.668  0.2566  0.3173  0.3924
 1357TIP3    H125630   2.405   0.010   0.637  0.3055  0.5228  0.4599
 1357TIP3    H225631   2.318  -0.005   0.760 -0.3253 -2.4026 -0.2600
 1358TIP3   OH225632   1.044   0.777   6.970  0.1130 -0.5747  0.2161
 1358TIP3    H125633   0.985   0.720   6.922 -0.6259 -0.0239  0.4499
 1358TIP3    H225634   1.131   0.739   6.956 -0.5251 -2.9157  1.9811
 1359TIP3   OH225635   5.245   2.919   1.666 -0.0188 -0.2013 -0.4363
 1359TIP3    H125636   5.277   2.958   1.584 -1.3316 -0.4937 -1.1102
 1359TIP3    H225637   5.229   2.827   1.645  1.4578 -0.7512  0.6931
 1360TIP3   OH225638   2.551   5.356   1.966 -0.1266 -0.5028 -0.4743
 1360TIP3    H125639   2.641   5.354   1.999 -0.4791  1.8458  0.8281
 1360TIP3    H225640   2.510   5.277   2.004  0.9241 -0.6735  0.3449
 1361TIP3   OH225641   1.938   4.265   8.712 -0.8118  0.6842 -0.1037
 1361TIP3    H125642   1.994   4.232   8.642 -0.6967  0.1711  0.2316
 1361TIP3    H225643   1.851   4.231   8.692 -0.4177 -1.1060  1.0559
 1362TIP3   OH225644   0.534   6.599   0.714  0.3654  0.3330  0.2944
 1362TIP3    H125645   0.621   6.612   0.676 -0.3584 -2.2337 -2.5799
 1362TIP3    H225646   0.495   6.686   0.714  2.8854  1.5820  1.8001
 1363TIP3   OH225647   3.560   6.539   8.399 -0.2547  0.3696 -0.1891
 1363TIP3    H125648   3.520   6.521   8.314 -1.2273 -0.8826  0.5039
 1363TIP3    H225649   3.573   6.453   8.438 -0.9116  0.9578  1.4007
 1364TIP3   OH225650   5.709   5.506   2.521  0.2185 -0.0776 -0.5495
 1364TIP3    H125651   5.700   5.571   2.450  1.1154  0.3302 -0.3117
 1364TIP3    H225652   5.795   5.525   2.559 -0.6191  0.3179  1.2525
 1365TIP3   OH225653   5.772   3.642   7.095  0.2296  0.1633  0.2690
 1365TIP3    H125654   5.782   3.592   7.176  3.3026  1.8614  1.1171
 1365TIP3    H225655   5.735   3.726   7.123 -1.1455 -0.1605 -0.5189
 1366TIP3   OH225656   2.946   3.108   0.953  0.4474  0.1690 -0.2427
 1366TIP3    H125657   3.038   3.111   0.928  0.7664  0.3007  0.9004
 1366TIP3    H225658   2.934   3.019   0.987  0.0874  0.0837 -0.5789
 1367TIP3   OH225659   3.988   0.309   0.768 -0.4235 -0.0807 -0.5472
 1367TIP3    H125660   4.048   0.319   0.842 -1.2624 -0.7276  0.2461
 1367TIP3    H225661   3.901   0.313   0.807 -0.9112  0.7461 -1.6645
 1368TIP3   OH225662   6.747   4.878   0.805 -0.1702  0.5428 -0.0216
 1368TIP3    H125663   6.708   4.926   0.878 -1.3531  0.0721 -0.3139
 1368TIP3    H225664   6.720   4.787   0.819  1.4790  0.0496  0.1678
 1369TIP3   OH225665   0.863   3.713   0.183  0.5157  0.0822  0.0019
 1369TIP3    H125666   0.874   3.625   0.146 -0.1655 -0.2716  0.6131
 1369TIP3    H225667   0.898   3.705   0.272 -1.6696 -0.2180  0.8847
 1370TIP3   OH225668   0.028   1.130   0.793  0.0679  0.1150  0.1706
 1370TIP3    H125669  -0.054   1.104   0.752  0.3282  1.3928 -1.2395
 1370TIP3    H225670   0.094   1.074   0.751  0.2094  0.7525 -0.4747
 1371TIP3   OH225671   5.704   1.150   6.965  0.5689  0.0784  0.0413
 1371TIP3    H125672   5.762   1.114   7.032  0.7957  0.5370  0.0904
 1371TIP3    H225673   5.629   1.090   6.964  0.3275  0.3459  1.0555
 1372TIP3   OH225674   0.952   0.862   2.398  0.0880 -0.0765  0.4344
 1372TIP3    H125675   0.947   0.787   2.458  0.5028 -0.1280  0.4113
 1372TIP3    H225676   0.884   0.845   2.333  0.1944 -0.4459  0.4166
 1373TIP3   OH225677   3.564   2.950   6.985  0.1158 -0.5773  0.1612
 1373TIP3    H125678   3.555   2.984   7.074 -4.5060  1.3803 -0.7926
 1373TIP3    H225679   3.624   3.012   6.942  0.5327 -0.1861  1.2635
 1374TIP3   OH225680   3.866   3.072   1.942 -0.0388  0.5352  0.4981
 1374TIP3    H125681   3.882   3.106   2.031 -1.2168  1.2198  0.4672
 1374TIP3    H225682   3.800   3.004   1.954  2.3510 -1.9260  0.5677
 1375TIP3   OH225683   3.987   2.765   7.575 -0.5718 -0.0662  0.0832
 1375TIP3    H125684   4.026   2.698   7.519 -1.5030 -0.4438 -0.1328
 1375TIP3    H225685   4.057   2.829   7.588 -0.8579  1.1208 -3.2588
 1376TIP3   OH225686   0.523   2.967   6.788  0.7323 -0.3205  0.1780
 1376TIP3    H125687   0.603   2.967   6.735  0.4001  1.5955 -0.3974
 1376TIP3    H225688   0.452   2.982   6.725 -0.2055 -2.4351  0.6049
 1377TIP3   OH225689   0.233   1.044   1.203  0.1254 -0.0296 -0.0369
 1377TIP3    H125690   0.182   0.996   1.268 -0.2461 -0.2209 -0.4569
 1377TIP3    H225691   0.167   1.093   1.154  0.2693 -0.7620 -0.9918
 1378TIP3   OH225692   1.534   2.030   0.288  0.6330  0.0050  0.2474
 1378TIP3    H125693   1.591   2.099   0.252 -0.4755  0.7737 -0.0830
 1378TIP3    H225694   1.507   2.064   0.373 -0.2352  0.1857 -0.0843
 1379TIP3   OH225695   4.499   0.374   8.731 -0.6333  0.3206  0.3407
 1379TIP3    H125696   4.544   0.453   8.761  2.7498 -0.7599 -1.3772
 1379TIP3    H225697   4.448   0.403   8.656  0.4777  0.9582 -0.1972
 1380TIP3   OH225698   4.751   0.762   0.109 -0.1539  0.7108 -0.1949
 1380TIP3    H125699   4.760   0.854   0.086 -1.8750  0.5596 -1.6487
 1380TIP3    H225700   4.659   0.752   0.134  0.0467 -0.5710  0.1246
 1381TIP3   OH225701   0.626   2.989   2.267  0.4676 -0.0845  0.4287
 1381TIP3    H125702   0.550   2.940   2.235  0.2418  1.0566 -0.8539
 1381TIP3    H225703   0.612   2.996   2.361 -0.6026 -0.5815  0.3210
 1382TIP3   OH225704   2.894   0.354   7.814  0.5795 -0.3979  0.6735
 1382TIP3    H125705   2.977   0.358   7.861  0.1941 -0.7794  1.4054
 1382TIP3    H225706   2.829   0.386   7.877  0.1360 -0.3667  0.2048
 1383TIP3   OH225707   1.251   0.068   8.734  0.5071 -0.1388  0.0451
 1383TIP3    H125708   1.261   0.120   8.655  0.7776 -1.3813 -0.7611
 1383TIP3    H225709   1.164   0.029   8.727 -1.2640  2.9274  2.3624
 1384TIP3   OH225710   1.034   5.336   8.351 -0.0440 -0.0880 -0.7110
 1384TIP3    H125711   1.084   5.262   8.316 -1.0318 -0.5690 -1.1703
 1384TIP3    H225712   0.994   5.376   8.273 -2.0251 -0.9745 -0.2132
 1385TIP3   OH225713   5.994   6.026   2.187 -0.0072  0.2828 -0.2331
 1385TIP3    H125714   5.909   5.985   2.177 -0.0906  0.1735  0.8970
 1385TIP3    H225715   6.021   6.007   2.277  0.9495  0.8006 -0.3908
 1386TIP3   OH225716   3.071   1.932   7.456  0.3111 -0.2016 -0.1714
 1386TIP3    H125717   3.036   1.843   7.467 -0.2764  0.0542  0.0595
 1386TIP3    H225718   3.031   1.982   7.527 -1.6467  0.9155 -1.9749
 1387TIP3   OH225719   5.906   4.248   8.246  0.6344 -0.9524  0.2643
 1387TIP3    H125720   5.965   4.324   8.244 -0.6330  0.0660 -1.9657
 1387TIP3    H225721   5.924   4.201   8.165  0.0397 -1.9542  0.6941
 1388TIP3   OH225722   2.801   2.080   6.537  0.0439 -0.4575 -0.0633
 1388TIP3    H125723   2.865   2.033   6.483  0.7110  0.5441 -0.1724
 1388TIP3    H225724   2.828   2.060   6.627  0.3044 -0.3332 -0.1102
 1389TIP3   OH225725   5.942   5.095   7.980 -0.1178  0.1113  0.6682
 1389TIP3    H125726   5.918   5.106   8.072  0.5230  1.1212  0.7263
 1389TIP3    H225727   5.963   5.183   7.949  2.1483 -0.4976  0.2578
 1390TIP3   OH225728   2.745   5.706   1.995  0.0403 -0.0137 -0.0083
 1390TIP3    H125729   2.747   5.631   2.054 -1.5785 -1.0203 -1.1522
 1390TIP3    H225730   2.715   5.779   2.049  1.0466 -0.2977  0.9700
 1391TIP3   OH225731   4.947   0.969   2.046 -0.0934 -0.7006 -0.3953
 1391TIP3    H125732   4.895   1.046   2.071  0.1975 -0.8021  0.5266
 1391TIP3    H225733   5.000   0.999   1.972  1.8893  0.7852  1.4985
 1392TIP3   OH225734   3.528   1.143   2.249 -0.0297 -0.1927 -0.0826
 1392TIP3    H125735   3.502   1.233   2.228  0.1485 -0.1077  0.0695
 1392TIP3    H225736   3.606   1.128   2.196 -0.6942 -0.6407 -0.9792
 1393TIP3   OH225737   3.180   2.567   8.675 -0.6426 -0.2948  0.2790
 1393TIP3    H125738   3.088   2.540   8.674 -0.7316 -0.0875  1.5760
 1393TIP3    H225739   3.228   2.484   8.680 -0.8373 -0.3463  1.6386
 1394TIP3   OH225740   0.148   6.311   0.806  0.2039  0.0984 -0.2372
 1394TIP3    H125741   0.135   6.383   0.868 -0.4927 -0.1863 -0.0435
 1394TIP3    H225742   0.224   6.337   0.755  1.3904 -0.0839  1.3519
 1395TIP3   OH225743   4.372   1.496   0.314 -0.1188  0.5870  0.5033
 1395TIP3    H125744   4.332   1.470   0.231 -0.3222 -0.9306  1.0362
 1395TIP3    H225745   4.404   1.585   0.299 -0.7524  0.5916 -0.9765
 1396TIP3   OH225746   0.971   4.072   8.170  0.0471  0.5337 -0.0279
 1396TIP3    H125747   0.885   4.108   8.148 -0.4719 -0.5093  0.2414
 1396TIP3    H225748   0.954   3.981   8.194  0.9998  0.7805  1.7268
 1397TIP3   OH225749   0.728   2.389   7.420  0.0535  0.4137  1.0744
 1397TIP3    H125750   0.678   2.322   7.468 -0.3026  0.5676  0.9204
 1397TIP3    H225751   0.673   2.412   7.346  0.9442 -0.3825  0.1350
 1398TIP3   OH225752   2.481   6.343   7.995  0.2941 -0.4420 -0.2151
 1398TIP3    H125753   2.573   6.323   8.012 -0.1361 -2.6976 -0.1629
 1398TIP3    H225754   2.456   6.403   8.065  1.0639 -1.9091  1.3937
 1399TIP3   OH225755   4.934   3.894   7.409 -0.0700  0.1602  0.0390
 1399TIP3    H125756   5.013   3.860   7.368 -1.1648 -0.7939 -1.4193
 1399TIP3    H225757   4.957   3.981   7.440  1.0904  0.5522 -1.8196
 1400TIP3   OH225758   5.238   3.258   8.466  0.1940  0.0687 -0.0228
 1400TIP3    H125759   5.305   3.318   8.433  0.2526 -0.0481 -0.1136
 1400TIP3    H225760   5.245   3.180   8.412 -0.7942  0.4968 -0.8029
 1401TIP3   OH225761   4.868   3.585   0.767 -0.1201 -0.1540  0.1933
 1401TIP3    H125762   4.870   3.514   0.831 -0.6152 -0.5477 -0.2176
 1401TIP3    H225763   4.867   3.665   0.820  0.2753 -0.4516  0.6613
 1402TIP3   OH225764   4.241   3.556   7.413  0.3017  0.5207  0.1280
 1402TIP3    H125765   4.194   3.476   7.436  0.5371  0.4941  0.5226
 1402TIP3    H225766   4.308   3.527   7.352 -0.4438  0.6205 -0.7624
 1403TIP3   OH225767   1.994   2.861   1.063  0.3894  0.5251  0.1732
 1403TIP3    H125768   1.987   2.779   1.015  0.3220  0.3364  0.4997
 1403TIP3    H225769   1.903   2.887   1.078  0.4108  0.6921  0.0144
 1404TIP3   OH225770   5.372   4.614   2.366 -0.1427 -0.4175  0.4332
 1404TIP3    H125771   5.459   4.577   2.381  0.1787 -1.2805 -2.8101
 1404TIP3    H225772   5.317   4.571   2.432  1.6090 -0.7933  1.7487
 1405TIP3   OH225773   6.144   2.588   7.878 -0.1292 -0.3190 -0.0511
 1405TIP3    H125774   6.234   2.558   7.864 -0.1458 -0.8619  0.9485
 1405TIP3    H225775   6.089   2.517   7.846 -0.2099 -0.1060 -0.3970
 1406TIP3   OH225776   5.230   2.377   0.265  0.3017 -0.4676  0.2815
 1406TIP3    H125777   5.173   2.451   0.244  1.8107  0.4628 -0.6808
 1406TIP3    H225778   5.246   2.334   0.181 -0.2756 -1.7128  0.7777
 1407TIP3   OH225779   2.052   0.453   8.089  0.2832 -0.4536  0.2480
 1407TIP3    H125780   2.048   0.493   8.003 -2.9564 -1.7557 -0.3616
 1407TIP3    H225781   1.978   0.491   8.137  0.6380 -1.4366  1.6407
 1408TIP3   OH225782   2.840   1.809   1.113  0.5173 -0.2781  0.0589
 1408TIP3    H125783   2.877   1.734   1.067  0.9373  1.3301 -2.4831
 1408TIP3    H225784   2.787   1.853   1.046 -2.1016  0.1605  2.2366
 1409TIP3   OH225785   3.996   5.005   0.641 -0.2824 -0.1737  0.0693
 1409TIP3    H125786   4.045   5.087   0.630 -1.2819  0.4688  0.3059
 1409TIP3    H225787   3.904   5.030   0.630 -0.7726 -0.9070  2.0093
 1410TIP3   OH225788   3.850   2.935   7.094 -0.0815  0.3857  0.0071
 1410TIP3    H125789   3.922   2.998   7.090  0.3985 -0.1902 -0.6593
 1410TIP3    H225790   3.843   2.901   7.005 -1.0176  0.2504  0.1243
 1411TIP3   OH225791   3.348   1.828   7.595 -0.0668 -0.1819 -0.0640
 1411TIP3    H125792   3.272   1.837   7.653  0.2511 -2.2609  0.7478
 1411TIP3    H225793   3.382   1.741   7.613  2.1183  0.4286 -0.9206
 1412TIP3   OH225794   4.109   0.695   7.644 -0.9285 -0.1403 -0.1401
 1412TIP3    H125795   4.053   0.773   7.640 -1.3048 -0.4080 -0.1183
 1412TIP3    H225796   4.065   0.631   7.588  0.2468  0.1941 -1.5002
 1413TIP3   OH225797   1.697   0.499   7.339 -0.2827 -0.0941 -0.5619
 1413TIP3    H125798   1.696   0.418   7.289  2.6019 -0.7140  0.2199
 1413TIP3    H225799   1.606   0.511   7.368 -0.6460 -3.5740  0.1220
 1414TIP3   OH225800   6.253   5.832   0.470  0.1877 -0.2106 -0.3678
 1414TIP3    H125801   6.310   5.899   0.509 -2.0247  0.8321  1.2967
 1414TIP3    H225802   6.297   5.749   0.492  1.3325  0.5530  0.3828
 1415TIP3   OH225803   4.956   2.242   1.393 -0.0237  0.3381  0.0401
 1415TIP3    H125804   4.910   2.313   1.349  1.4211  0.9537 -0.5573
 1415TIP3    H225805   5.034   2.227   1.339 -0.4554 -1.9611 -0.0510
 1416TIP3   OH225806   5.657   3.616   7.482  0.5208 -0.0070 -0.4107
 1416TIP3    H125807   5.595   3.683   7.451  0.8059  0.8412  0.7787
 1416TIP3    H225808   5.711   3.597   7.406  1.7286  2.5971 -0.3294
 1417TIP3   OH225809   6.562   5.034   0.400  0.3320 -0.0239  0.1144
 1417TIP3    H125810   6.512   5.116   0.404 -0.6901 -0.5418 -1.2045
 1417TIP3    H225811   6.638   5.055   0.346 -0.8049 -0.3170 -1.6897
 1418TIP3   OH225812   1.295   5.403   8.519  0.0159 -0.6828 -0.0814
 1418TIP3    H125813   1.213   5.357   8.502 -0.8479 -0.2182  2.3401
 1418TIP3    H225814   1.362   5.334   8.520 -0.6281 -1.3224 -0.3390
 1419TIP3   OH225815   2.192   4.136   1.106 -0.2513 -0.5916 -0.5651
 1419TIP3    H125816   2.215   4.081   1.031  4.0272  0.0414 -0.0211
 1419TIP3    H225817   2.198   4.226   1.073  1.8959 -0.2973  0.4127
 1420TIP3   OH225818   5.279   1.756   1.715  0.7059 -0.1766 -0.0418
 1420TIP3    H125819   5.317   1.735   1.630  0.7750 -1.2221  0.2336
 1420TIP3    H225820   5.336   1.713   1.778  0.1380 -0.1762  0.4798
 1421TIP3   OH225821   6.622   5.849   0.808 -0.1147  0.1435 -0.1648
 1421TIP3    H125822   6.536   5.888   0.795  0.4804  1.4418 -0.3154
 1421TIP3    H225823   6.684   5.918   0.784  0.9756 -1.1702 -1.2660
 1422TIP3   OH225824   2.297   0.471   1.056  0.0415  0.1057  0.0938
 1422TIP3    H125825   2.263   0.427   1.134 -2.6689  1.6171 -0.1074
 1422TIP3    H225826   2.337   0.551   1.089 -0.0982  0.2044  0.0234
 1423TIP3   OH225827   4.317   0.673   2.412 -0.1978 -0.6116 -0.1384
 1423TIP3    H125828   4.243   0.720   2.449 -0.8292 -1.3936 -0.3578
 1423TIP3    H225829   4.281   0.587   2.387  0.2727 -0.2894 -2.1482
 1424TIP3   OH225830   3.384   4.739   8.646  0.1753  0.0851  0.1692
 1424TIP3    H125831   3.428   4.663   8.684 -0.1735  0.4320  1.2877
 1424TIP3    H225832   3.373   4.800   8.719 -1.6299  0.2606 -0.2108
 1425TIP3   OH225833   2.768   5.097   6.599 -0.1501  0.1589  0.3128
 1425TIP3    H125834   2.799   5.008   6.618  1.4521  0.4262 -0.8261
 1425TIP3    H225835   2.698   5.085   6.534 -0.5066 -0.2970  0.7707
 1426TIP3   OH225836   0.291   1.819   6.884  0.1806  0.3215  0.1875
 1426TIP3    H125837   0.316   1.727   6.884  0.6667  0.4434 -0.2661
 1426TIP3    H225838   0.217   1.824   6.824  1.1244  0.4589 -0.9965
 1427TIP3   OH225839   6.669   2.658   7.010 -0.0864 -0.3801  0.0846
 1427TIP3    H125840   6.574   2.644   7.007 -0.4129  1.5844 -0.9870
 1427TIP3    H225841   6.699   2.631   6.923 -0.0428  0.9515 -0.3464
 1428TIP3   OH225842   2.536   6.702   1.470 -0.2282 -0.2483 -0.0072
 1428TIP3    H125843   2.603   6.764   1.496  0.4308 -1.6208  1.7915
 1428TIP3    H225844   2.454   6.751   1.473  0.2036  0.4232  1.8719
 1429TIP3   OH225845   3.397   1.721   1.017  0.5252  0.5454 -0.2538
 1429TIP3    H125846   3.421   1.641   0.969 -2.1912 -1.8185  1.9713
 1429TIP3    H225847   3.325   1.759   0.967  0.9958  0.9264 -0.6508
 1430TIP3   OH225848   0.390   2.491   0.064  0.4580 -0.0566 -0.2865
 1430TIP3    H125849   0.412   2.505  -0.028 -0.3579  0.3620 -0.4257
 1430TIP3    H225850   0.304   2.448   0.061  1.0163 -1.2474  0.2506
 1431TIP3   OH225851   6.298   6.042   7.513  0.1754 -0.2154  0.2965
 1431TIP3    H125852   6.291   5.961   7.463 -0.4271  1.2986 -2.3313
 1431TIP3    H225853   6.387   6.073   7.496 -0.1316  0.4600 -0.1501
 1432TIP3   OH225854   3.561   4.165   0.958  0.2431 -0.0793  0.0663
 1432TIP3    H125855   3.556   4.212   1.041  1.8915 -0.1549  0.2542
 1432TIP3    H225856   3.553   4.234   0.891  0.1856  0.1538  0.3126
 1433TIP3   OH225857   5.378   6.389   0.654 -0.6836 -0.4181 -0.3587
 1433TIP3    H125858   5.306   6.364   0.597 -0.5422 -1.5048 -0.0916
 1433TIP3    H225859   5.340   6.451   0.716 -1.1147 -0.1322 -0.9027
 1434TIP3   OH225860   5.309   4.406   1.119  0.3115  0.2601  0.2783
 1434TIP3    H125861   5.402   4.389   1.109  0.0637 -1.1009  0.1656
 1434TIP3    H225862   5.277   4.336   1.176 -1.2515 -1.3149 -2.3448
 1435TIP3   OH225863   0.289   0.355   7.683  0.4200  0.1993 -0.2013
 1435TIP3    H125864   0.253   0.403   7.758  0.3639 -0.8301  0.4534
 1435TIP3    H225865   0.343   0.286   7.723 -0.1267 -0.7723 -1.0849
 1436TIP3   OH225866   6.227   3.625   2.447  0.0983 -0.3152 -0.6966
 1436TIP3    H125867   6.208   3.716   2.470 -1.8164 -0.1719 -2.5374
 1436TIP3    H225868   6.163   3.603   2.379  1.2490 -2.6896 -1.1347
 1437TIP3   OH225869   5.646   5.048   0.144  0.1879 -0.0055  0.1867
 1437TIP3    H125870   5.696   5.101   0.082 -1.0066 -1.8146 -2.4875
 1437TIP3    H225871   5.709   4.983   0.175  0.2881 -0.3695 -0.7522
 1438TIP3   OH225872   4.973   3.842   0.595  0.1870 -0.4943 -0.1977
 1438TIP3    H125873   4.996   3.792   0.673 -0.7476 -0.0485  0.3847
 1438TIP3    H225874   4.955   3.930   0.627 -1.6449 -0.6456 -0.6815
 1439TIP3   OH225875   2.891   6.777   8.362 -0.2816 -0.0496 -0.2458
 1439TIP3    H125876   2.940   6.734   8.431  2.0910  0.5585 -1.4307
 1439TIP3    H225877   2.903   6.721   8.285 -0.7618  0.5363 -0.7610
 1440TIP3   OH225878   3.813   2.480   1.811 -0.3851  0.3288 -0.3546
 1440TIP3    H125879   3.885   2.455   1.869 -0.7445 -0.4395 -0.2323
 1440TIP3    H225880   3.776   2.559   1.851  1.0702  1.3797 -1.0101
 1441TIP3   OH225881   4.947   3.824   0.930  0.5381  0.1878  0.0446
 1441TIP3    H125882   4.970   3.900   0.876 -1.0499 -0.2953 -1.3776
 1441TIP3    H225883   4.894   3.860   1.001 -0.7632  0.3713 -0.9875
 1442TIP3   OH225884   5.585   0.308   0.296  0.1507 -0.0697  0.2163
 1442TIP3    H125885   5.635   0.240   0.342 -1.5326  0.7128  3.4873
 1442TIP3    H225886   5.630   0.390   0.318 -0.1065  0.2296 -0.3681
 1443TIP3   OH225887   1.178   3.775   0.251  0.4269 -0.2682  0.4857
 1443TIP3    H125888   1.155   3.844   0.314 -0.2565 -1.2747  1.3642
 1443TIP3    H225889   1.237   3.717   0.300 -0.4813 -1.3191  0.3672
 1444TIP3   OH225890   3.937   6.651   0.622 -0.0099 -0.1522  0.3059
 1444TIP3    H125891   3.953   6.660   0.716 -0.9375  0.0718  0.4498
 1444TIP3    H225892   3.954   6.738   0.586  1.1632 -0.4353  0.1235
 1445TIP3   OH225893   3.722   4.629   8.675  0.3280  1.5399  0.1612
 1445TIP3    H125894   3.759   4.609   8.589  2.3709  0.7562  1.1542
 1445TIP3    H225895   3.736   4.549   8.726 -1.0277  1.9187  1.1763
 1446TIP3   OH225896   6.159   1.609   7.022 -0.0047 -0.0845 -0.3132
 1446TIP3    H125897   6.179   1.629   6.931  1.6632 -1.1944 -0.2295
 1446TIP3    H225898   6.066   1.588   7.022  0.1123 -0.7734 -1.9138
 1447TIP3   OH225899   2.840   0.762   0.419  0.2800 -0.0152 -0.4672
 1447TIP3    H125900   2.799   0.737   0.502 -0.0289  0.4737 -0.4675
 1447TIP3    H225901   2.919   0.709   0.414 -1.1367 -2.1528 -1.2246
 1448TIP3   OH225902   6.203   5.399   8.169  0.7782 -0.7295  0.3452
 1448TIP3    H125903   6.208   5.485   8.128 -1.3111 -0.6394  0.1684
 1448TIP3    H225904   6.125   5.403   8.224  1.9811 -1.7333  2.2672
 1449TIP3   OH225905   3.285   4.372   7.022 -0.6279 -0.3334  0.3175
 1449TIP3    H125906   3.370   4.330   7.031  0.2991  1.2259 -0.8955
 1449TIP3    H225907   3.281   4.402   6.932 -1.7902  1.0610  0.7886
 1450TIP3   OH225908   4.847   1.170   7.516  0.0471 -0.2774 -0.2681
 1450TIP3    H125909   4.757   1.137   7.526  0.4174 -0.8676  1.4301
 1450TIP3    H225910   4.874   1.193   7.604  0.8590  1.9213 -1.0296
 1451TIP3   OH225911   1.568   1.363   7.330 -0.8416 -0.1220 -0.1904
 1451TIP3    H125912   1.503   1.393   7.266  0.1806  0.3812 -1.0289
 1451TIP3    H225913   1.554   1.269   7.336 -0.7712 -0.2277 -1.4025
 1452TIP3   OH225914   2.038   0.808   8.319  0.3942 -0.5946 -0.0685
 1452TIP3    H125915   2.102   0.802   8.248 -0.3917 -0.3322 -0.8002
 1452TIP3    H225916   2.091   0.797   8.399  1.9258  2.7258 -0.4286
 1453TIP3   OH225917   4.640   6.658   0.456 -0.2283  0.0160  0.5098
 1453TIP3    H125918   4.570   6.708   0.499  0.2820 -0.9427  2.5897
 1453TIP3    H225919   4.675   6.717   0.390 -1.4134  1.4000  1.0674
 1454TIP3   OH225920   1.760   6.251   0.763 -0.4271 -0.2045  0.0734
 1454TIP3    H125921   1.686   6.239   0.704  1.3048 -0.3108 -2.2096
 1454TIP3    H225922   1.743   6.336   0.805 -1.3625  0.2438 -1.1470
 1455TIP3   OH225923   4.772   0.955   7.248  0.0911 -0.1543 -0.3086
 1455TIP3    H125924   4.691   0.992   7.213  0.8169  0.3534 -1.4819
 1455TIP3    H225925   4.765   0.861   7.229 -0.6026 -0.2516  0.3820
 1456TIP3   OH225926   1.769   3.739   1.672  0.4867 -0.1936  0.0536
 1456TIP3    H125927   1.715   3.773   1.600 -0.5465 -2.0095 -0.0889
 1456TIP3    H225928   1.780   3.813   1.731 -2.7421  0.1499  0.4093
 1457TIP3   OH225929   2.743   3.259   1.828  0.1921 -0.1877  0.1594
 1457TIP3    H125930   2.738   3.164   1.828 -1.8531 -0.1871  2.1882
 1457TIP3    H225931   2.798   3.281   1.904 -0.5341  0.2119  0.5915
 1458TIP3   OH225932   3.294   1.043   2.045 -0.4548  0.3494  0.1971
 1458TIP3    H125933   3.254   0.961   2.015  0.0512  0.1224  0.1397
 1458TIP3    H225934   3.365   1.015   2.102 -0.2945  0.7514  0.1925
 1459TIP3   OH225935   2.426   0.707   1.110 -0.3785  1.1335  0.0915
 1459TIP3    H125936   2.517   0.689   1.131 -0.6397  0.5824  0.8158
 1459TIP3    H225937   2.415   0.800   1.130  0.1015  1.2769 -0.3038
 1460TIP3   OH225938   1.641   6.595   0.077  0.1563 -0.4980 -0.5627
 1460TIP3    H125939   1.671   6.504   0.075  0.1057 -0.5086 -0.8325
 1460TIP3    H225940   1.565   6.596   0.018  0.5245 -0.1480 -1.0299
 1461TIP3   OH225941   3.690   5.371   6.491 -0.4273 -0.1814  0.4043
 1461TIP3    H125942   3.741   5.451   6.475 -1.4188  0.5906  0.9589
 1461TIP3    H225943   3.612   5.402   6.537 -0.2900 -1.6117  1.6918
 1462TIP3   OH225944   1.984   2.882   1.883 -0.0513  0.6412 -0.0852
 1462TIP3    H125945   1.980   2.796   1.925 -0.9361  0.5922 -0.2504
 1462TIP3    H225946   1.903   2.925   1.909  0.4526  1.4912  0.1126
 1463TIP3   OH225947   1.260   5.911   2.133 -0.1886  0.0488 -0.4124
 1463TIP3    H125948   1.296   6.000   2.132  1.0393 -0.4092  0.3270
 1463TIP3    H225949   1.208   5.908   2.213  0.2726 -0.0729 -0.1116
 1464TIP3   OH225950   3.422   3.599   6.935 -0.4855 -0.2077 -0.1679
 1464TIP3    H125951   3.467   3.680   6.912 -1.5932  1.0376  1.7911
 1464TIP3    H225952   3.424   3.547   6.855  0.0137  1.8563 -1.5643
 1465TIP3   OH225953   6.119   2.098   7.545  0.2203 -0.0021 -0.1575
 1465TIP3    H125954   6.158   2.078   7.630  1.4776  0.8325 -0.5197
 1465TIP3    H225955   6.025   2.092   7.560  0.4423 -0.7612  1.0650
 1466TIP3   OH225956   4.699   1.431   8.355 -0.3980 -0.4463 -0.3706
 1466TIP3    H125957   4.663   1.401   8.439 -1.4108  0.5406 -0.4304
 1466TIP3    H225958   4.763   1.364   8.331 -1.5551 -1.8178  0.2001
 1467TIP3   OH225959   4.522   2.763   7.068  0.2017 -0.2546 -0.1654
 1467TIP3    H125960   4.430   2.776   7.047  0.7055  0.9722 -1.7674
 1467TIP3    H225961   4.568   2.830   7.018  2.0246 -1.2081  0.1527
 1468TIP3   OH225962   3.057   0.330   0.423  0.1729  0.4117  0.2929
 1468TIP3    H125963   3.038   0.323   0.516  1.2751 -1.3598  0.4354
 1468TIP3    H225964   3.147   0.297   0.414 -0.0345  0.2048 -1.4346
 1469TIP3   OH225965   2.685   0.936   0.268 -0.1966 -1.2664 -0.0812
 1469TIP3    H125966   2.723   0.873   0.329  0.8479  0.3421  1.0027
 1469TIP3    H225967   2.595   0.947   0.298  0.2237 -0.7113  1.0313
 1470TIP3   OH225968   4.471   5.905   7.675  0.1969 -0.0584  0.0424
 1470TIP3    H125969   4.427   5.877   7.595 -0.3751  2.0370 -0.4270
 1470TIP3    H225970   4.495   5.823   7.719  0.5228 -1.2495 -2.2338
 1471TIP3   OH225971   2.710   4.715   1.123 -0.3611 -0.1755 -0.8534
 1471TIP3    H125972   2.617   4.729   1.108 -0.6034  0.1640  0.8069
 1471TIP3    H225973   2.739   4.791   1.173  0.8746 -0.1607 -1.5466
 1472TIP3   OH225974   2.154   5.508   0.461  0.2426  0.1799 -0.3957
 1472TIP3    H125975   2.207   5.530   0.538 -3.6905 -0.7567  2.9977
 1472TIP3    H225976   2.126   5.593   0.427 -0.0351  0.6504  0.9365
 1473TIP3   OH225977   0.765   3.546   0.818  0.2527 -0.9255 -0.0378
 1473TIP3    H125978   0.734   3.463   0.781  0.4478 -0.3273 -1.6177
 1473TIP3    H225979   0.740   3.542   0.910 -3.7562 -0.8879 -0.9350
 1474TIP3   OH225980   2.913   3.275   8.713  0.3692  0.0051 -0.1152
 1474TIP3    H125981   2.921   3.370   8.722 -0.3409 -0.0740  1.7875
 1474TIP3    H225982   2.926   3.241   8.801 -0.6117 -1.5774 -0.5342
 1475TIP3   OH225983   2.892   4.021   1.869 -0.4493 -0.3375  0.2522
 1475TIP3    H125984   2.958   4.070   1.919 -0.8411 -0.0301  0.4790
 1475TIP3    H225985   2.826   4.087   1.847 -1.5936 -0.9659  1.5873
 1476TIP3   OH225986   5.265   5.114   7.198 -0.3701  0.2598  0.2404
 1476TIP3    H125987   5.313   5.153   7.271  0.0350 -0.8106  0.5609
 1476TIP3    H225988   5.332   5.089   7.135 -0.4795 -1.2678  0.7007
 1477TIP3   OH225989   4.996   6.301   2.041 -0.0187  0.3056  0.5751
 1477TIP3    H125990   5.026   6.384   2.078  0.4634 -0.9668  3.2610
 1477TIP3    H225991   5.060   6.237   2.072  0.2871 -0.9781 -2.4055
 1478TIP3   OH225992   0.606   4.683   7.108 -0.4179 -0.1192 -0.4767
 1478TIP3    H125993   0.642   4.598   7.133  1.2978  0.4189 -0.9566
 1478TIP3    H225994   0.520   4.662   7.071 -0.3567 -1.5566  0.1208
 1479TIP3   OH225995   6.031   3.723   7.286  0.4512  0.5492  0.3959
 1479TIP3    H125996   6.051   3.765   7.203 -0.6060  2.3265  0.9798
 1479TIP3    H225997   5.982   3.789   7.335 -4.8165 -2.5032 -0.0221
 1480TIP3   OH225998   1.842   1.603   0.844  0.0074  0.4169 -0.0545
 1480TIP3    H125999   1.894   1.525   0.825  0.7163  1.2383 -1.6054
 1480TIP3    H226000   1.856   1.619   0.938  0.5672 -0.7757  0.0792
 1481TIP3   OH226001   6.690   1.047   8.652 -0.0066 -0.1281 -0.0304
 1481TIP3    H126002   6.706   1.050   8.746 -0.0076 -0.4382 -0.0211
 1481TIP3    H226003   6.615   1.105   8.639 -0.4358 -0.6069  0.2495
 1482TIP3   OH226004   1.656   2.792   0.743  0.6380 -0.2474 -0.2096
 1482TIP3    H126005   1.661   2.839   0.826  1.1646 -3.1769  1.5828
 1482TIP3    H226006   1.743   2.799   0.705  0.3393  1.2769 -0.6765
 1483TIP3   OH226007   5.192   1.887   8.242  0.2807 -0.2035  0.1522
 1483TIP3    H126008   5.148   1.973   8.243 -1.1220 -0.8974  0.5958
 1483TIP3    H226009   5.275   1.903   8.287  0.9452  1.3566 -1.5262
 1484TIP3   OH226010   2.439   2.683   7.508 -0.0780  0.0010  0.5683
 1484TIP3    H126011   2.438   2.668   7.414  1.2668 -2.5942  0.8624
 1484TIP3    H226012   2.459   2.776   7.518  0.0297  0.2743 -1.6879
 1485TIP3   OH226013   5.572   2.221   0.523 -0.0431  0.2055  0.1630
 1485TIP3    H126014   5.483   2.196   0.549  0.0063 -0.4880 -0.3056
 1485TIP3    H226015   5.587   2.174   0.441  1.3380 -1.0089  1.0585
 1486TIP3   OH226016   5.835   3.424   1.618 -0.2243  0.1209 -0.2888
 1486TIP3    H126017   5.853   3.454   1.529 -1.7687 -1.1958 -1.0872
 1486TIP3    H226018   5.920   3.394   1.651  0.4057  0.8550 -1.2079
 1487TIP3   OH226019   3.626   0.683   0.304  0.5518 -0.2569 -0.5860
 1487TIP3    H126020   3.657   0.593   0.292  0.9747 -0.1581 -0.2581
 1487TIP3    H226021   3.675   0.734   0.240  0.1858 -0.2830 -0.8910
 1488TIP3   OH226022   3.137   4.134   0.909  0.1818 -0.1256  0.3543
 1488TIP3    H126023   3.167   4.128   1.000 -0.9896 -0.6480  0.7230
 1488TIP3    H226024   3.054   4.086   0.908  0.3747 -0.4581 -1.0837
 1489TIP3   OH226025   3.024   2.453   1.411 -0.3458 -0.0789  0.3395
 1489TIP3    H126026   3.079   2.409   1.476  0.5271  0.8631  0.2636
 1489TIP3    H226027   3.028   2.397   1.334  1.7552  0.6910 -0.1800
 1490TIP3   OH226028   5.453   0.572   1.603 -0.5160 -0.1711  0.5154
 1490TIP3    H126029   5.468   0.585   1.509 -2.5990  4.0571  0.5050
 1490TIP3    H226030   5.526   0.616   1.645 -0.5147 -0.4816  0.8401
 1491TIP3   OH226031   6.536   5.861   7.812  0.4757 -0.1106  0.5109
 1491TIP3    H126032   6.600   5.919   7.852  1.0319  0.4830 -1.1875
 1491TIP3    H226033   6.571   5.840   7.726 -1.6987  0.4356 -0.5858
 1492TIP3   OH226034   4.846   2.511   2.144 -0.2694 -0.8179  0.3822
 1492TIP3    H126035   4.936   2.486   2.163 -0.0334 -0.5842 -0.3832
 1492TIP3    H226036   4.800   2.427   2.133  0.0410 -0.9404 -0.0300
 1493TIP3   OH226037   2.705   4.866   8.267  0.6383 -0.1706  0.4565
 1493TIP3    H126038   2.794   4.830   8.278  0.1456 -0.9825  2.2744
 1493TIP3    H226039   2.706   4.947   8.318  0.1532 -0.5469  1.0767
 1494TIP3   OH226040   0.881   2.276   1.788  1.0892 -0.0336 -0.2948
 1494TIP3    H126041   0.857   2.237   1.872  0.8542 -1.3595 -0.9532
 1494TIP3    H226042   0.946   2.216   1.752  0.3256 -0.1190 -1.5792
 1495TIP3   OH226043   6.473   3.963   1.368 -0.2110 -0.1549  0.2705
 1495TIP3    H126044   6.426   3.923   1.442 -1.3300  0.1022 -0.2868
 1495TIP3    H226045   6.494   4.051   1.399 -0.7086 -0.0357  0.2830
 1496TIP3   OH226046   2.199   2.841   1.495 -0.3322  0.0189  0.4332
 1496TIP3    H126047   2.192   2.924   1.446 -0.1364  0.6385  1.4238
 1496TIP3    H226048   2.240   2.866   1.578 -0.9551 -0.9530  1.0487
 1497TIP3   OH226049   0.396   4.981   0.960  0.5678 -0.1969  0.8281
 1497TIP3    H126050   0.349   4.911   0.914  0.0889  0.6285  0.0160
 1497TIP3    H226051   0.328   5.024   1.012  1.0404 -0.9049  2.0817
 1498TIP3   OH226052   6.714   1.921   1.997 -0.6198 -0.5384 -0.7266
 1498TIP3    H126053   6.667   1.850   1.952 -1.1776  0.0961 -1.1619
 1498TIP3    H226054   6.731   1.985   1.928 -2.8022  1.1564  0.1955
 1499TIP3   OH226055   5.992   3.743   8.665  0.1812  0.3049 -0.0561
 1499TIP3    H126056   5.962   3.671   8.609 -0.2600 -0.6022  1.2718
 1499TIP3    H226057   5.915   3.765   8.718 -0.1831  2.8878 -1.4947
 1500TIP3   OH226058   1.348   5.568   0.247  0.0211 -0.2083 -0.5441
 1500TIP3    H126059   1.332   5.505   0.317 -0.0017  0.0697 -0.2937
 1500TIP3    H226060   1.299   5.535   0.173 -3.6477  1.7261  0.7902
 1501TIP3   OH226061   2.769   2.821   7.810 -0.0347 -0.5294 -0.0733
 1501TIP3    H126062   2.849   2.796   7.857  0.3187 -1.1193 -0.9693
 1501TIP3    H226063   2.768   2.764   7.733 -1.0674 -0.1815 -0.3247
 1502TIP3   OH226064   3.626   3.154   2.410  0.4152 -0.4921  0.2963
 1502TIP3    H126065   3.648   3.217   2.478  0.5804  0.8613 -0.9600
 1502TIP3    H226066   3.647   3.198   2.328 -1.6740 -1.2601 -0.7448
 1503TIP3   OH226067   2.462   3.909   0.343  0.2871 -0.2636  0.5124
 1503TIP3    H126068   2.433   3.854   0.416  0.0295 -0.7330  0.0630
 1503TIP3    H226069   2.466   3.997   0.380 -1.4133 -0.2202  0.7060
 1504TIP3   OH226070   5.160   2.643   6.745 -0.7118  0.6897 -0.0833
 1504TIP3    H126071   5.222   2.621   6.676 -2.7691 -2.2512 -1.1704
 1504TIP3    H226072   5.095   2.699   6.702 -1.4224 -0.2737 -0.2860
 1505TIP3   OH226073   2.092   6.163   8.652  0.4159  0.7167 -0.0338
 1505TIP3    H126074   2.075   6.224   8.723  1.9708  1.1681 -0.0039
 1505TIP3    H226075   2.071   6.211   8.572 -0.4825  0.5102  0.0651
 1506TIP3   OH226076   3.463   1.537   0.437  0.3101  0.3219  0.6325
 1506TIP3    H126077   3.527   1.500   0.377 -1.3701  1.6767 -2.1717
 1506TIP3    H226078   3.446   1.467   0.500  1.2429 -1.6371 -1.1890
 1507TIP3   OH226079   0.978   4.212   0.686  0.2355 -0.2608  0.8662
 1507TIP3    H126080   1.055   4.155   0.698 -0.3173 -1.4105 -0.6936
 1507TIP3    H226081   0.956   4.202   0.594 -0.4761  1.7947  0.7693
 1508TIP3   OH226082   6.144   5.824   1.474  0.0606  0.1373 -0.5641
 1508TIP3    H126083   6.106   5.877   1.544  0.3779  0.0155 -0.2972
 1508TIP3    H226084   6.069   5.797   1.420 -0.2112  0.0373 -0.1370
 1509TIP3   OH226085   4.684   3.393   1.542  0.1176  0.2959 -0.6007
 1509TIP3    H126086   4.766   3.430   1.575 -0.4670  2.0910 -1.0071
 1509TIP3    H226087   4.637   3.469   1.506 -1.4923 -0.7707 -0.8470
 1510TIP3   OH226088   0.875   3.494   2.662 -0.0873  0.3393 -0.0063
 1510TIP3    H126089   0.953   3.540   2.631 -1.0193  1.3133 -0.9671
 1510TIP3    H226090   0.866   3.419   2.604 -1.5344  1.8771 -1.8934
 1511TIP3   OH226091   1.049   5.521   0.151 -0.2417 -0.3413 -0.1681
 1511TIP3    H126092   1.077   5.571   0.074  1.3983 -0.7041  0.1441
 1511TIP3    H226093   0.968   5.478   0.124  0.9265 -1.4389 -2.1417
 1512TIP3   OH226094   4.534   3.866   0.923 -0.0708  0.4658  0.8989
 1512TIP3    H126095   4.477   3.896   0.994 -2.8532  2.2752 -1.8697
 1512TIP3    H226096   4.596   3.938   0.911  1.8034 -0.7275  2.6971
 1513TIP3   OH226097   0.840   0.281   0.264 -0.2105  0.1647  0.2474
 1513TIP3    H126098   0.751   0.249   0.252 -0.1002 -0.4687  1.0212
 1513TIP3    H226099   0.895   0.216   0.219 -0.1473  0.6752 -0.4262
 1514TIP3   OH226100   0.839   5.230   7.827 -0.3017  0.0654 -0.1865
 1514TIP3    H126101   0.778   5.300   7.805  3.5517  2.8799 -3.3482
 1514TIP3    H226102   0.894   5.266   7.897  0.8399 -0.3207 -0.8527
 1515TIP3   OH226103   3.201   1.704   1.291  0.4406  0.3017  0.1507
 1515TIP3    H126104   3.151   1.623   1.287 -0.7372  1.0586 -2.7106
 1515TIP3    H226105   3.292   1.676   1.284  0.2277 -0.8639  1.5387
 1516TIP3   OH226106   5.606   4.974   8.377  0.1570  0.3827  0.9556
 1516TIP3    H126107   5.551   4.900   8.402 -0.2280  0.9718  1.9058
 1516TIP3    H226108   5.653   4.997   8.456  1.3720  0.2514  0.2938
 1517TIP3   OH226109   3.384   0.507   8.467 -0.2836 -0.3979  0.1806
 1517TIP3    H126110   3.344   0.526   8.382 -0.5132  1.6555  0.7021
 1517TIP3    H226111   3.477   0.503   8.449 -0.3502 -0.2102 -0.2170
 1518TIP3   OH226112   6.674   2.293   0.409 -0.2041 -0.2185 -0.1447
 1518TIP3    H126113   6.681   2.208   0.452 -2.0577 -0.9888 -1.2840
 1518TIP3    H226114   6.749   2.343   0.444  1.3261 -2.4970  0.0530
 1519TIP3   OH226115   0.878   5.809   7.189  0.3320 -0.8585 -0.1884
 1519TIP3    H126116   0.912   5.820   7.100 -0.4673 -2.5173 -0.7424
 1519TIP3    H226117   0.841   5.721   7.189  0.2727 -0.8685  1.7893
 1520TIP3   OH226118   4.313   1.003   8.422  0.1646 -0.6584 -0.0947
 1520TIP3    H126119   4.357   0.919   8.432 -0.3824 -0.9922 -0.4510
 1520TIP3    H226120   4.220   0.983   8.429 -0.0237 -0.2312 -1.1692
 1521TIP3   OH226121   1.406   4.653   8.600  0.1019  0.7717  0.7404
 1521TIP3    H126122   1.434   4.567   8.567 -0.1582  0.1288  2.1138
 1521TIP3    H226123   1.466   4.715   8.559  1.6878 -0.2717  1.3644
 1522TIP3   OH226124   2.250   1.802   8.240  0.0923 -0.0122  0.4074
 1522TIP3    H126125   2.283   1.723   8.196  0.3146 -0.3208  1.1100
 1522TIP3    H226126   2.256   1.781   8.333 -1.8079  0.0337  0.5741
 1523TIP3   OH226127   1.628   5.602   0.257  0.2205  0.2135  0.1925
 1523TIP3    H126128   1.539   5.566   0.255 -0.9966  2.8446  1.5091
 1523TIP3    H226129   1.643   5.623   0.350  2.5011 -0.6696  0.1040
 1524TIP3   OH226130   6.676   5.411   8.202  0.3632  0.0126 -0.0792
 1524TIP3    H126131   6.722   5.477   8.254 -1.4098  0.4808  0.9495
 1524TIP3    H226132   6.696   5.434   8.111 -0.1213  1.8912  0.2597
 1525TIP3   OH226133   5.750   3.391   8.335 -0.2426 -0.5275  0.3583
 1525TIP3    H126134   5.708   3.426   8.256  1.0707  0.4226  0.0501
 1525TIP3    H226135   5.819   3.333   8.302 -1.1056 -1.8777  0.8538
 1526TIP3   OH226136   4.541   3.509   7.909 -0.5224  0.3141 -0.0663
 1526TIP3    H126137   4.631   3.539   7.893  0.1634 -0.4993  1.9549
 1526TIP3    H226138   4.514   3.470   7.826  0.5728  1.5282 -1.0426
 1527TIP3   OH226139   5.429   4.277   0.353 -0.2330  0.1222  0.9605
 1527TIP3    H126140   5.437   4.307   0.263  0.5620 -0.9011  0.6702
 1527TIP3    H226141   5.387   4.191   0.346  0.5746 -0.3279  1.4864
 1528TIP3   OH226142   0.048   3.465   2.193  0.1758 -0.2914 -0.5102
 1528TIP3    H126143   0.043   3.551   2.153 -0.7936 -0.3727 -0.5952
 1528TIP3    H226144   0.082   3.481   2.281 -0.4395  0.2372 -0.3648
 1529TIP3   OH226145   4.542   1.398   1.050  0.0515 -0.2110 -0.4716
 1529TIP3    H126146   4.543   1.492   1.029  4.0168 -0.3511 -1.6236
 1529TIP3    H226147   4.592   1.391   1.131  1.3172 -1.4242 -1.3073
 1530TIP3   OH226148   3.584   0.603   0.582  0.1849  0.0734  0.5488
 1530TIP3    H126149   3.614   0.644   0.501  0.4694  1.3540  1.2839
 1530TIP3    H226150   3.493   0.580   0.565  0.2798  0.2220 -0.1714
 1531TIP3   OH226151   0.894   0.069   8.271  0.0103  0.0973 -0.2363
 1531TIP3    H126152   0.954   0.071   8.345  0.0625 -0.1978 -0.2675
 1531TIP3    H226153   0.827   0.006   8.296 -0.7246  1.0075  0.1226
 1532TIP3   OH226154   0.251   2.797   1.132 -0.1133 -0.5045 -0.1119
 1532TIP3    H126155   0.333   2.820   1.089 -0.0347  0.9095  0.7368
 1532TIP3    H226156   0.190   2.781   1.060 -1.1579  5.8179 -1.1440
 1533TIP3   OH226157   3.527   4.231   6.992 -0.0726 -0.3251  0.1054
 1533TIP3    H126158   3.614   4.194   7.006 -0.4189 -1.5051 -0.6382
 1533TIP3    H226159   3.525   4.251   6.898  0.0356  1.4777  0.4514
 1534TIP3   OH226160   0.086   6.081   8.222  0.0200 -0.1502 -0.6512
 1534TIP3    H126161   0.181   6.076   8.235 -0.1922 -1.5242  0.8353
 1534TIP3    H226162   0.050   6.033   8.297 -1.9128  1.5509 -0.4108
 1535TIP3   OH226163   2.651   5.650   7.300 -0.0037 -0.4810 -0.3734
 1535TIP3    H126164   2.744   5.662   7.318  0.6259 -2.1598 -2.1282
 1535TIP3    H226165   2.608   5.656   7.385  1.7430  0.0633  0.4960
 1536TIP3   OH226166   5.926   0.067   1.603  0.1522 -0.2114  0.2078
 1536TIP3    H126167   5.877   0.020   1.537 -3.3464 -0.3994  2.6454
 1536TIP3    H226168   5.994   0.006   1.632  1.2191 -0.4057 -2.4808
 1537TIP3   OH226169   0.922   0.525   0.312  0.3040 -0.2757  0.4127
 1537TIP3    H126170   0.998   0.524   0.370 -0.1864  1.9308  1.1894
 1537TIP3    H226171   0.890   0.435   0.312  1.5379 -0.7522  1.9224
 1538TIP3   OH226172   4.873   6.716   7.965 -0.2983 -0.1532  0.3043
 1538TIP3    H126173   4.867   6.658   7.890 -0.5611 -1.0381  0.9944
 1538TIP3    H226174   4.964   6.747   7.966 -0.5680  0.7523 -1.0070
 1539TIP3   OH226175   0.457   6.490   8.229 -0.1390 -0.0392  0.0270
 1539TIP3    H126176   0.465   6.515   8.137 -0.9609 -0.7253 -0.2461
 1539TIP3    H226177   0.406   6.409   8.228 -1.4549  0.7119  1.1553
 1540TIP3   OH226178   3.043   5.052   8.046 -0.5579  0.1315  0.1473
 1540TIP3    H126179   3.025   5.109   8.121  1.0094  0.2247  0.4877
 1540TIP3    H226180   3.032   5.109   7.970  1.0478  0.9573  0.4851
 1541TIP3   OH226181   5.915   6.345   0.770  0.4398  0.0347  0.3379
 1541TIP3    H126182   5.928   6.251   0.787  0.9667 -0.3044 -1.6554
 1541TIP3    H226183   5.874   6.348   0.684  1.4107  1.6608 -0.1177
 1542TIP3   OH226184   2.910   1.502   8.267 -0.3377 -0.4657  0.0849
 1542TIP3    H126185   2.972   1.570   8.241 -0.6002 -0.5682 -0.8344
 1542TIP3    H226186   2.917   1.499   8.363  0.8177 -0.2430  0.0228
 1543TIP3   OH226187   1.978   2.962   8.647  0.0286 -0.2599  0.1961
 1543TIP3    H126188   2.043   3.007   8.702 -0.7399  2.2923 -0.8169
 1543TIP3    H226189   2.020   2.880   8.622  2.5901  0.9738  0.1704
 1544TIP3   OH226190   0.559   5.265   6.880  0.0629 -0.1184  0.2377
 1544TIP3    H126191   0.578   5.176   6.910 -0.1612  0.2485  1.5458
 1544TIP3    H226192   0.597   5.270   6.793  0.1752 -1.4591  0.1898
 1545TIP3   OH226193   5.345   3.151   8.210 -0.3170  0.2383 -0.0663
 1545TIP3    H126194   5.429   3.144   8.255 -0.7380  0.8665  0.8536
 1545TIP3    H226195   5.300   3.069   8.229  0.1613 -0.1833 -0.7287
 1546TIP3   OH226196   3.699   2.189   2.254  0.3131  0.4242 -0.0621
 1546TIP3    H126197   3.713   2.283   2.243  0.0319  0.4810  0.0659
 1546TIP3    H226198   3.787   2.152   2.258  0.4276  0.7619  0.5882
 1547TIP3   OH226199   4.349   2.579   1.261  0.1549 -0.3948 -0.2335
 1547TIP3    H126200   4.321   2.498   1.218 -0.3723  0.0089 -0.6524
 1547TIP3    H226201   4.368   2.639   1.190  1.2770 -0.3836  0.0649
 1548TIP3   OH226202   6.631   5.462   0.207 -0.3130 -0.0638  0.0103
 1548TIP3    H126203   6.669   5.390   0.157  0.5622 -0.8276  1.6710
 1548TIP3    H226204   6.545   5.477   0.167  0.7000  0.0302 -2.2708
 1549TIP3   OH226205   1.292   3.694   7.873 -0.0593  0.2871  0.1785
 1549TIP3    H126206   1.367   3.694   7.933 -0.2035  1.8976  0.4173
 1549TIP3    H226207   1.308   3.620   7.815  0.3828 -0.9676  1.8200
 1550TIP3   OH226208   3.200   3.766   2.048  0.2929 -0.4288  0.2060
 1550TIP3    H126209   3.222   3.858   2.032  0.8836 -0.5448  0.3501
 1550TIP3    H226210   3.135   3.770   2.118  0.3475 -0.1266  0.2436
 1551TIP3   OH226211   3.344   1.284   7.318 -0.1221  0.9406  0.3164
 1551TIP3    H126212   3.284   1.248   7.385 -0.0865  1.4643  0.6368
 1551TIP3    H226213   3.307   1.254   7.235  0.7329 -1.0960  0.6084
 1552TIP3   OH226214   6.578   2.313   1.186  0.2257 -0.8849 -0.5183
 1552TIP3    H126215   6.653   2.317   1.246  0.0862 -0.1807 -0.3759
 1552TIP3    H226216   6.504   2.343   1.239  0.2416  0.5366 -1.2419
 1553TIP3   OH226217   4.754   4.227   6.988 -0.4973  0.0543 -0.1035
 1553TIP3    H126218   4.766   4.223   7.083  4.3871 -1.0659 -0.4699
 1553TIP3    H226219   4.717   4.142   6.965 -1.0908  0.0782  0.7195
 1554TIP3   OH226220   2.843   0.985   1.248 -0.0513  0.7581  0.3739
 1554TIP3    H126221   2.855   0.945   1.334 -0.4003  0.7094  0.3990
 1554TIP3    H226222   2.930   1.021   1.227  0.6644 -1.1955 -0.2733
 1555TIP3   OH226223   2.968   4.558   6.922  0.1054 -0.2387  0.0347
 1555TIP3    H126224   3.005   4.523   6.841  0.6961  0.5930 -0.0744
 1555TIP3    H226225   2.999   4.649   6.924  0.0758 -0.2450  1.1767
 1556TIP3   OH226226   2.619   4.446   0.016  0.2586  0.0256 -0.9030
 1556TIP3    H126227   2.542   4.415   0.064  0.5290  1.7925  0.7815
 1556TIP3    H226228   2.595   4.438  -0.076 -1.9844  0.6167 -0.4218
 1557TIP3   OH226229   5.510   2.901   6.870  0.1219  0.4137 -0.3512
 1557TIP3    H126230   5.485   2.985   6.910 -0.6623  0.7720 -1.5329
 1557TIP3    H226231   5.565   2.926   6.796 -2.0697  0.1051 -2.2036
 1558TIP3   OH226232   0.264   4.507   8.798 -0.2394 -0.5331  0.4616
 1558TIP3    H126233   0.251   4.584   8.853  1.1379 -1.3985  2.1055
 1558TIP3    H226234   0.212   4.439   8.840  1.7112 -1.5047  1.4940
 1559TIP3   OH226235   6.160   3.149   8.310  0.2927 -0.4886  0.0797
 1559TIP3    H126236   6.255   3.144   8.303  0.4691 -2.1387  2.6128
 1559TIP3    H226237   6.144   3.229   8.360  0.2635  0.1243 -0.8762
 1560TIP3   OH226238   0.090   6.024   7.718  0.4189  0.3659  0.6277
 1560TIP3    H126239   0.067   6.010   7.626 -0.7292 -0.6654  1.0533
 1560TIP3    H226240   0.173   6.073   7.714  0.5289  0.1148 -0.9448
 1561TIP3   OH226241   5.259   5.570   6.432  0.1980 -0.0890  0.0716
 1561TIP3    H126242   5.182   5.513   6.446  1.1292 -1.6285 -0.7212
 1561TIP3    H226243   5.239   5.616   6.350 -1.0615  1.6800  1.2938
 1562TIP3   OH226244   2.340   0.842   1.447 -0.3156 -0.0684  0.3952
 1562TIP3    H126245   2.324   0.898   1.371  0.9722 -0.9670 -0.5781
 1562TIP3    H226246   2.362   0.903   1.517  1.1328  0.6652 -0.6544
 1563TIP3   OH226247   6.584   6.340   8.763  0.2299  0.4526 -0.2985
 1563TIP3    H126248   6.519   6.270   8.774 -1.7857  1.9043 -2.0123
 1563TIP3    H226249   6.661   6.295   8.728 -0.2555 -1.1701  0.5890
 1564TIP3   OH226250   6.757   1.576   8.565 -0.0914 -0.2563  0.0741
 1564TIP3    H126251   6.774   1.512   8.496  0.8770 -0.3138  0.3555
 1564TIP3    H226252   6.663   1.569   8.581  0.0291 -1.7696  0.2580
 1565TIP3   OH226253   5.955   6.043   8.154  0.0677  0.5525  0.0610
 1565TIP3    H126254   5.950   6.112   8.088  1.0251  2.1472  1.5571
 1565TIP3    H226255   5.990   6.087   8.232 -2.2671 -0.8990  2.0987
 1566TIP3   OH226256   4.608   2.009   2.314 -0.4840 -0.1124 -0.1207
 1566TIP3    H126257   4.548   1.944   2.277 -0.3432  0.0467 -0.6357
 1566TIP3    H226258   4.581   2.092   2.274 -0.2700  0.0476  0.0659
 1567TIP3   OH226259   6.084   5.048   1.413 -0.2606 -0.2560 -0.1944
 1567TIP3    H126260   6.110   4.956   1.422 -0.3865 -0.4104 -1.3357
 1567TIP3    H226261   6.110   5.072   1.324  0.1701  0.9540  0.2373
 1568TIP3   OH226262   5.875   1.031   1.933  0.4302 -0.0607 -0.1935
 1568TIP3    H126263   5.895   1.065   2.020 -2.9787  1.8030 -0.0015
 1568TIP3    H226264   5.867   0.936   1.945  0.5108  0.1133  1.3999
 1569TIP3   OH226265   3.790   6.410   2.217 -0.4685  0.2391  0.0060
 1569TIP3    H126266   3.719   6.358   2.178 -0.8516  0.7194  0.0455
 1569TIP3    H226267   3.856   6.346   2.241 -0.7734 -0.1937 -0.2850
 1570TIP3   OH226268   5.010   5.707   1.099  0.1277 -0.2650  0.4115
 1570TIP3    H126269   5.010   5.802   1.098  0.5808 -0.2695 -0.2462
 1570TIP3    H226270   5.077   5.684   1.164  0.2713 -0.1369  0.3093
 1571TIP3   OH226271   4.594   0.888   7.594 -0.0523 -0.4786  0.2373
 1571TIP3    H126272   4.622   0.932   7.674  3.2846 -1.6772 -0.1290
 1571TIP3    H226273   4.519   0.835   7.621 -1.0675  1.5711  1.7520
 1572TIP3   OH226274   0.493   4.845   2.172 -0.0595  0.3505 -0.0596
 1572TIP3    H126275   0.552   4.920   2.164  2.3067 -1.2658  0.8799
 1572TIP3    H226276   0.544   4.772   2.136 -1.8245 -1.0154  0.0868
 1573TIP3   OH226277   6.686   2.138   7.935  0.1632  0.5804  0.3698
 1573TIP3    H126278   6.686   2.209   7.871 -0.5937 -0.6907 -1.0974
 1573TIP3    H226279   6.738   2.172   8.008  1.9102  1.7280 -1.3036
 1574TIP3   OH226280   1.116   5.844   8.608  0.3093 -0.6422 -0.2976
 1574TIP3    H126281   1.179   5.876   8.673  0.4997 -3.6458  1.1345
 1574TIP3    H226282   1.170   5.805   8.540  0.0337 -0.6652 -0.5020
 1575TIP3   OH226283   5.240   2.368   8.141 -0.1858 -0.4406  0.6788
 1575TIP3    H126284   5.319   2.335   8.185 -0.5959 -2.3877  0.0758
 1575TIP3    H226285   5.273   2.414   8.064  0.3897 -1.1342  0.4914
 1576TIP3   OH226286   3.285   6.002   0.784 -0.3779 -0.4131  0.2658
 1576TIP3    H126287   3.281   6.028   0.876  0.5077 -2.2228  0.8741
 1576TIP3    H226288   3.195   6.011   0.752 -1.2901 -2.2881  2.0901
 1577TIP3   OH226289   6.345   4.291   1.805 -0.3216 -0.5047 -0.0454
 1577TIP3    H126290   6.404   4.286   1.880  0.1498 -0.9404 -0.4382
 1577TIP3    H226291   6.267   4.336   1.838  0.1406 -0.1202  0.5353
 1578TIP3   OH226292   5.641   4.230   6.837 -0.2985 -0.3332 -0.5386
 1578TIP3    H126293   5.571   4.271   6.786 -0.8304  0.9182  1.0987
 1578TIP3    H226294   5.701   4.302   6.857  0.4171 -0.9934 -0.2442
 1579TIP3   OH226295   5.746   4.062   1.139  0.1292 -0.4952  0.2714
 1579TIP3    H126296   5.702   3.983   1.168  0.3496 -0.4125  0.8515
 1579TIP3    H226297   5.836   4.035   1.119  0.6033 -0.1518  1.8095
 1580TIP3   OH226298   3.957   2.854   8.383 -0.1453  0.5145  0.5624
 1580TIP3    H126299   3.997   2.939   8.364 -0.4904  0.4654 -0.4203
 1580TIP3    H226300   3.990   2.832   8.470 -0.6894  2.0271  1.2006
 1581TIP3   OH226301   1.625   3.805   6.826  0.7763 -0.1640 -0.9522
 1581TIP3    H126302   1.569   3.840   6.756 -0.9811  0.5175  0.7125
 1581TIP3    H226303   1.628   3.875   6.891  2.3839 -0.7792 -0.3180
 1582TIP3   OH226304   5.751   6.567   7.921 -0.1603  0.4430  0.1198
 1582TIP3    H126305   5.834   6.606   7.894  0.8709 -0.6197  1.6130
 1582TIP3    H226306   5.713   6.533   7.840  1.0587  0.5581 -0.5284
 1583TIP3   OH226307   5.856   2.584   7.511 -0.3264 -0.3360 -0.0985
 1583TIP3    H126308   5.875   2.658   7.568 -1.0103 -0.4048  0.2333
 1583TIP3    H226309   5.866   2.619   7.422  3.1057 -0.8322 -0.0265
 1584TIP3   OH226310   1.901   4.441   7.684 -0.3981  0.2388 -0.5575
 1584TIP3    H126311   1.942   4.474   7.604 -1.9585  1.2227 -1.0081
 1584TIP3    H226312   1.966   4.455   7.753  0.6701  0.0936 -1.5190
 1585TIP3   OH226313   2.043   0.507   1.478 -0.3811  0.3777  0.1558
 1585TIP3    H126314   2.047   0.457   1.396  1.3338  0.8674 -0.1048
 1585TIP3    H226315   1.965   0.561   1.469  0.5533  1.5439 -1.8681
 1586TIP3   OH226316   6.734   2.651   7.778  0.3582 -0.5384 -0.5713
 1586TIP3    H126317   6.768   2.563   7.764  1.5083 -0.3382  0.7459
 1586TIP3    H226318   6.751   2.669   7.870 -0.9018  0.6403 -0.5300
 1587TIP3   OH226319   3.033   6.004   0.668  0.4012 -0.2936 -0.3274
 1587TIP3    H126320   3.036   5.952   0.588  0.0807  2.1078 -2.0037
 1587TIP3    H226321   3.047   6.094   0.639  0.4065  0.6661  2.3546
 1588TIP3   OH226322   4.221   2.781   1.424  0.1871  0.2254  0.4407
 1588TIP3    H126323   4.166   2.835   1.368 -0.5428  0.3553  1.2590
 1588TIP3    H226324   4.258   2.715   1.365 -0.3947  0.4847 -0.2257
 1589TIP3   OH226325   2.300   0.443   1.850  0.2527 -1.0636  0.2931
 1589TIP3    H126326   2.368   0.427   1.916 -0.1521  0.8267  1.2363
 1589TIP3    H226327   2.231   0.489   1.898 -1.4944 -2.4860 -0.7638
 1590TIP3   OH226328   5.071   3.812   0.340 -0.1424  0.0226 -0.0199
 1590TIP3    H126329   5.037   3.732   0.299 -1.2704  0.7884 -0.6321
 1590TIP3    H226330   5.038   3.809   0.429 -1.1177  0.3255 -0.3569
 1591TIP3   OH226331   3.015   2.010   1.630  0.1746 -0.0383 -0.0030
 1591TIP3    H126332   2.959   2.016   1.552  0.7607  0.2784 -0.4084
 1591TIP3    H226333   3.023   2.101   1.660 -0.8909 -0.2642  1.0484
 1592TIP3   OH226334   2.865   4.463   8.600  0.7772 -0.2288  0.0034
 1592TIP3    H126335   2.781   4.418   8.609  0.2419 -0.1577 -3.3908
 1592TIP3    H226336   2.846   4.554   8.625  0.5480 -0.7421  1.7806
 1593TIP3   OH226337   3.511   4.226   1.233  0.0621  0.6791 -0.0614
 1593TIP3    H126338   3.483   4.193   1.318  1.0366 -0.1583 -0.0435
 1593TIP3    H226339   3.482   4.317   1.232 -1.1580  0.3306  0.6022
 1594TIP3   OH226340   4.742   0.245   8.661  0.0790  0.2894 -0.1041
 1594TIP3    H126341   4.653   0.280   8.664  0.0793  0.3970 -1.1560
 1594TIP3    H226342   4.791   0.300   8.722 -0.7447 -0.3105  1.1428
 1595TIP3   OH226343   2.249   1.983   7.659  0.1151  0.5376 -0.2143
 1595TIP3    H126344   2.299   1.925   7.717 -0.3821 -0.5263 -0.8149
 1595TIP3    H226345   2.314   2.018   7.598  0.1733 -0.8839 -1.0264
 1596TIP3   OH226346   1.155   4.721   8.449  0.0317 -0.4258 -0.2351
 1596TIP3    H126347   1.217   4.710   8.522 -0.5820  0.4643  0.4305
 1596TIP3    H226348   1.093   4.648   8.459 -0.1592 -0.1996  0.2452
 1597TIP3   OH226349   2.125   5.039   0.200  0.3953  0.2983 -0.3260
 1597TIP3    H126350   2.058   4.975   0.225  0.9641  0.0276  0.5721
 1597TIP3    H226351   2.148   5.082   0.283  0.8280  0.8758 -0.7387
 1598TIP3   OH226352   3.957   0.358   0.322 -0.3723 -0.4116 -0.0308
 1598TIP3    H126353   3.957   0.262   0.322  2.0447 -0.4985  0.9144
 1598TIP3    H226354   3.989   0.383   0.235  2.9596 -0.7034  0.9580
 1599TIP3   OH226355   3.336   6.134   1.303  0.3503  0.4558  0.0537
 1599TIP3    H126356   3.367   6.091   1.383  2.1047 -0.6665 -1.1399
 1599TIP3    H226357   3.241   6.137   1.312  0.5077  0.2297  2.1010
 1600TIP3   OH226358   5.047   0.148   1.892  0.2681  0.1426  0.5855
 1600TIP3    H126359   5.095   0.160   1.810 -0.5316 -1.0726 -0.0862
 1600TIP3    H226360   5.005   0.232   1.908  2.7709  1.3500  1.3432
 1601TIP3   OH226361   0.916   3.712   1.393 -0.5573  0.1988  0.1006
 1601TIP3    H126362   0.822   3.707   1.375 -0.4256  0.2249 -0.6345
 1601TIP3    H226363   0.941   3.622   1.415 -1.3368  0.6838  3.5001
 1602TIP3   OH226364   6.744   6.070   0.664 -0.0409 -0.2922  0.3997
 1602TIP3    H126365   6.701   6.106   0.587 -0.0687  0.4210  0.7376
 1602TIP3    H226366   6.834   6.104   0.660  0.3147 -1.2220  0.0570
 1603TIP3   OH226367   5.617   2.259   1.530 -0.0575  0.1256 -0.1738
 1603TIP3    H126368   5.659   2.233   1.448  0.1944  0.6799 -0.2266
 1603TIP3    H226369   5.684   2.309   1.576 -0.1189 -0.3908  0.4822
 1604TIP3   OH226370   1.918   3.582   7.366 -0.0035 -0.0465 -0.3340
 1604TIP3    H126371   1.892   3.504   7.414 -0.0655 -0.3751 -0.8901
 1604TIP3    H226372   1.842   3.603   7.311  0.8479 -0.9984 -1.9595
 1605TIP3   OH226373   1.956   0.451   0.692 -0.0707  0.3972  0.3269
 1605TIP3    H126374   2.041   0.466   0.732 -0.4531  2.0296  0.6077
 1605TIP3    H226375   1.902   0.415   0.763 -0.2551  1.6065  0.8199
 1606TIP3   OH226376   6.170   6.147   0.392  0.1726 -0.0443  0.0040
 1606TIP3    H126377   6.243   6.177   0.337 -0.0132  1.8632  0.6965
 1606TIP3    H226378   6.110   6.222   0.395 -0.2275 -0.3697  2.0781
 1607TIP3   OH226379   4.850   3.255   2.135  0.2729  0.3798  0.6750
 1607TIP3    H126380   4.905   3.323   2.096  1.3808 -0.2382  1.1189
 1607TIP3    H226381   4.863   3.179   2.078 -0.3487  0.3061  0.6255
 1608TIP3   OH226382   0.169   5.125   0.999 -0.5919 -0.2008  0.2824
 1608TIP3    H126383   0.165   5.208   1.047  1.6059  0.1116  0.0327
 1608TIP3    H226384   0.094   5.075   1.031 -2.5591  2.1990 -0.2531
 1609TIP3   OH226385   6.590   5.037   1.140  0.1042  0.4568  0.4062
 1609TIP3    H126386   6.620   5.026   1.231  0.2060 -0.7409  0.2358
 1609TIP3    H226387   6.502   4.998   1.139 -0.3419  1.4325  0.2291
 1610TIP3   OH226388   3.014   2.118   2.060  0.2847 -0.2624  0.1368
 1610TIP3    H126389   2.956   2.138   2.133 -1.1613  0.7823 -1.2201
 1610TIP3    H226390   3.086   2.181   2.068 -0.9027  1.2262 -0.4321
 1611TIP3   OH226391   2.348   3.317   1.219 -0.1606 -0.1424 -0.0968
 1611TIP3    H126392   2.263   3.308   1.177  0.7456 -1.2657 -1.8108
 1611TIP3    H226393   2.407   3.348   1.149  1.3880 -1.9873  0.3096
 1612TIP3   OH226394   3.595   0.053   2.456 -0.3343  0.1396  0.0073
 1612TIP3    H126395   3.657   0.112   2.498 -0.8760  1.0450 -0.4425
 1612TIP3    H226396   3.649  -0.019   2.423  0.5752  1.1733 -0.8510
 1613TIP3   OH226397   0.696   4.794   6.758 -0.1095 -0.7075  0.3098
 1613TIP3    H126398   0.676   4.703   6.780 -1.0132 -1.2060 -2.2326
 1613TIP3    H226399   0.779   4.789   6.711 -0.6294 -0.3576 -0.6580
 1614TIP3   OH226400   5.669   5.112   1.100  0.0269  0.1376  0.0180
 1614TIP3    H126401   5.612   5.064   1.041  0.5494 -0.9715  0.3849
 1614TIP3    H226402   5.612   5.141   1.171 -0.0713 -1.1570  0.5012
 1615TIP3   OH226403   6.566   0.794   8.331  0.2597  0.0871 -0.1495
 1615TIP3    H126404   6.607   0.771   8.248  0.6572 -0.6341  0.2288
 1615TIP3    H226405   6.639   0.797   8.393 -0.2773 -1.9329  0.6878
 1616TIP3   OH226406   1.252   5.096   8.092  0.8148  0.0282 -0.6992
 1616TIP3    H126407   1.167   5.053   8.089  0.6543  0.2308  0.6637
 1616TIP3    H226408   1.302   5.047   8.157  1.4376  0.4481 -0.8534
 1617TIP3   OH226409   3.065   6.621   1.676 -0.0033  0.2489 -0.6454
 1617TIP3    H126410   3.050   6.708   1.640 -1.0305  1.2451  1.9913
 1617TIP3    H226411   3.088   6.568   1.599  0.9610  2.8471 -2.3138
 1618TIP3   OH226412   1.563   0.885   1.107 -0.2030 -0.0771  0.3367
 1618TIP3    H126413   1.513   0.851   1.032 -0.5112  0.2277  0.4014
 1618TIP3    H226414   1.542   0.826   1.179 -0.5497  0.1080  0.3886
 1619TIP3   OH226415   4.882   3.364   7.919  0.0964 -0.4375 -0.0558
 1619TIP3    H126416   4.860   3.306   7.992 -1.8880 -1.0766 -1.0806
 1619TIP3    H226417   4.929   3.308   7.857  0.0538 -0.3971 -0.1238
 1620TIP3   OH226418   2.129   6.669   1.092 -0.2449  0.0235  0.3476
 1620TIP3    H126419   2.041   6.655   1.125 -0.7424  1.3119 -0.3498
 1620TIP3    H226420   2.135   6.613   1.015 -1.3152  1.6096 -0.9600
 1621TIP3   OH226421   1.872   2.324   0.628 -0.1211  0.2830  0.3780
 1621TIP3    H126422   1.777   2.323   0.616  0.0841  0.2519 -1.4298
 1621TIP3    H226423   1.900   2.235   0.609  0.1739 -0.0524  2.1625
 1622TIP3   OH226424   2.570   6.551   0.978 -0.6072 -0.3519 -0.3886
 1622TIP3    H126425   2.589   6.573   1.069 -2.6739  2.5859 -0.5400
 1622TIP3    H226426   2.618   6.616   0.927  1.5009 -2.6754 -1.5855
 1623TIP3   OH226427   1.244   2.636   7.061  0.1719  0.2340 -0.0625
 1623TIP3    H126428   1.202   2.550   7.060  0.0882  0.2675  0.6128
 1623TIP3    H226429   1.173   2.697   7.083  0.0217  0.5979 -1.4491
 1624TIP3   OH226430   5.241   1.046   0.577 -0.3874 -0.0511 -0.6468
 1624TIP3    H126431   5.259   1.065   0.669 -0.7082 -2.0612 -0.1344
 1624TIP3    H226432   5.225   1.132   0.537  0.3230  0.8973  1.0322
 1625TIP3   OH226433   0.101   2.961   8.178  0.2255  0.0888 -0.7785
 1625TIP3    H126434   0.193   2.952   8.200  0.0269 -1.3036 -0.4381
 1625TIP3    H226435   0.058   2.979   8.262  0.1927  0.9478 -0.9652
 1626TIP3   OH226436   4.993   6.052   1.421 -0.3777 -0.4618  0.0910
 1626TIP3    H126437   4.960   6.122   1.365 -1.0027  0.6436  1.7663
 1626TIP3    H226438   5.008   5.978   1.361  0.8937  1.2407 -1.8500
 1627TIP3   OH226439   1.842   1.997   0.510  0.1101 -0.1374 -0.4806
 1627TIP3    H126440   1.872   1.911   0.540 -0.1427  0.5787  2.0608
 1627TIP3    H226441   1.754   1.980   0.474 -0.5506 -0.7883  1.3276
 1628TIP3   OH226442   3.662   1.431   7.988 -0.4583  0.1393 -0.6795
 1628TIP3    H126443   3.608   1.354   8.004  0.3016  0.2244  3.6740
 1628TIP3    H226444   3.752   1.401   8.006  0.0085  1.6803 -0.2788
 1629TIP3   OH226445   1.886   6.602   0.599 -0.7900 -0.1695  0.2761
 1629TIP3    H126446   1.966   6.578   0.644  0.1705  0.4741 -1.0161
 1629TIP3    H226447   1.821   6.611   0.668 -0.1066 -1.9972  1.2374
 1630TIP3   OH226448   4.557   1.742   0.137  0.0572  0.4103  0.2372
 1630TIP3    H126449   4.576   1.775   0.049  2.8199 -0.5197  0.3863
 1630TIP3    H226450   4.530   1.819   0.187  1.0754  1.4655 -0.7708
 1631TIP3   OH226451   3.562   3.082   1.102 -0.0733 -0.4957 -0.1320
 1631TIP3    H126452   3.530   3.140   1.034  0.5412 -0.7475 -0.6419
 1631TIP3    H226453   3.648   3.117   1.127  0.4186 -1.3120 -0.6255
 1632TIP3   OH226454   5.823   3.535   8.853  0.1081 -0.0883 -0.0684
 1632TIP3    H126455   5.838   3.501   8.765  1.3573  1.2847 -0.4385
 1632TIP3    H226456   5.909   3.536   8.894 -0.2331  0.5599  0.6726
 1633TIP3   OH226457   2.167   6.286   8.181  0.2263  0.3865  0.5187
 1633TIP3    H126458   2.089   6.339   8.163 -0.1419 -0.4208 -0.3489
 1633TIP3    H226459   2.133   6.208   8.225  0.4440 -0.2490 -0.3997
 1634TIP3   OH226460   6.004   5.552   7.488 -0.4629 -1.0720 -0.1858
 1634TIP3    H126461   5.930   5.541   7.428 -1.5228 -2.9687  1.3378
 1634TIP3    H226462   5.964   5.584   7.569  1.1913  3.5909 -0.9183
 1635TIP3   OH226463   0.880   2.866   8.236  0.0137 -0.3693 -0.3759
 1635TIP3    H126464   0.811   2.827   8.289 -0.4013  0.5736 -0.1950
 1635TIP3    H226465   0.961   2.844   8.283 -0.2612 -0.5245  0.0308
 1636TIP3   OH226466   3.771   3.124   0.554  0.2070  0.1038 -0.4431
 1636TIP3    H126467   3.720   3.202   0.533 -0.3441  0.9048  3.1956
 1636TIP3    H226468   3.709   3.052   0.547 -0.6162  0.6583  0.8141
 1637TIP3   OH226469   6.334   6.201   8.823 -0.4198  0.0141  0.2190
 1637TIP3    H126470   6.255   6.171   8.869  1.1046 -2.8020  1.2744
 1637TIP3    H226471   6.401   6.205   8.891  0.9461 -0.1900 -1.0579
 1638TIP3   OH226472   6.519   0.061   1.289 -0.4679 -1.0965 -0.5338
 1638TIP3    H126473   6.529  -0.030   1.317 -1.7733 -0.8973  0.6862
 1638TIP3    H226474   6.425   0.071   1.276 -0.4489  0.3196  0.2640
 1639TIP3   OH226475   5.196   3.152   0.734  0.6354  0.1487 -0.0554
 1639TIP3    H126476   5.151   3.106   0.663  1.9977 -2.0031  0.3494
 1639TIP3    H226477   5.289   3.138   0.715  1.0683  1.3966  1.0075
 1640TIP3   OH226478   3.710   1.650   2.134  0.5855 -0.2778 -0.2340
 1640TIP3    H126479   3.768   1.585   2.173 -0.1711 -1.5033 -1.1178
 1640TIP3    H226480   3.666   1.690   2.209  1.3973 -0.4284  0.3444
 1641TIP3   OH226481   3.620   6.278   8.437 -0.1896  0.3816  0.4686
 1641TIP3    H126482   3.553   6.247   8.498  0.3594 -0.1716  0.7911
 1641TIP3    H226483   3.689   6.212   8.440  0.1623  0.7049 -0.2244
 1642TIP3   OH226484   5.520   3.420   8.806  0.3342 -0.0343 -0.3976
 1642TIP3    H126485   5.541   3.381   8.721  0.6501  0.7100 -0.6679
 1642TIP3    H226486   5.541   3.513   8.796 -0.5151  0.2385  0.1941
 1643TIP3   OH226487   0.735   4.076   8.558  0.2486  0.1029  0.1444
 1643TIP3    H126488   0.700   4.141   8.497  0.0276  0.8011  0.9917
 1643TIP3    H226489   0.681   3.998   8.544 -1.0630  0.8706  0.7775
 1644TIP3   OH226490   1.493   4.169   2.003 -0.1438  0.2521 -0.2100
 1644TIP3    H126491   1.491   4.077   1.975  0.3180 -0.4679  1.9336
 1644TIP3    H226492   1.569   4.174   2.062 -1.4142  1.4688  1.4208
 1645TIP3   OH226493   3.645   3.064   1.591  0.0829 -0.1703 -0.1493
 1645TIP3    H126494   3.608   3.010   1.660 -0.3821  0.4248  0.0740
 1645TIP3    H226495   3.740   3.053   1.600  0.0178 -0.2715  0.4336
 1646TIP3   OH226496   4.965   3.190   7.730  0.3168 -0.1013  0.4012
 1646TIP3    H126497   5.040   3.245   7.710  0.1667  0.0202  0.1743
 1646TIP3    H226498   4.981   3.109   7.681 -0.9528  0.8719 -1.7743
 1647TIP3   OH226499   3.704   4.686   0.960  0.2469 -0.1204 -0.0654
 1647TIP3    H126500   3.722   4.677   0.866  0.8714  1.2083 -0.1052
 1647TIP3    H226501   3.670   4.601   0.986 -0.3907 -0.3775 -1.5990
 1648TIP3   OH226502   5.670   5.935   7.633 -0.4092 -0.5536 -0.0081
 1648TIP3    H126503   5.632   5.877   7.567  0.4139 -0.9251 -0.1778
 1648TIP3    H226504   5.763   5.939   7.610 -0.5088  1.1339 -0.2033
 1649TIP3   OH226505   1.422   4.853   1.306  0.7619 -0.0853 -0.2761
 1649TIP3    H126506   1.437   4.838   1.399  0.7047  0.5161 -0.1662
 1649TIP3    H226507   1.439   4.947   1.294 -0.0876  0.0224 -0.6963
 1650TIP3   OH226508   1.631   2.272   0.086  0.2975  0.2963 -0.1771
 1650TIP3    H126509   1.670   2.261  -0.000 -0.4759  1.3016 -0.6653
 1650TIP3    H226510   1.567   2.342   0.076 -0.4494 -0.1729  1.0017
 1651TIP3   OH226511   0.485   5.654   1.593 -0.1332 -0.4867 -0.2515
 1651TIP3    H126512   0.410   5.641   1.534 -0.2122  0.9039 -0.5018
 1651TIP3    H226513   0.539   5.576   1.581 -1.9124 -1.9159  0.5250
 1652TIP3   OH226514   5.250   3.678   0.587 -0.3161 -0.4436 -0.3143
 1652TIP3    H126515   5.327   3.711   0.541 -0.7973  1.3359  0.0567
 1652TIP3    H226516   5.255   3.719   0.674 -0.2744 -2.4514  0.6833
 1653TIP3   OH226517   4.832   0.560   1.443  0.6827 -0.6385  0.2304
 1653TIP3    H126518   4.891   0.635   1.446  0.8478 -0.7197 -0.6563
 1653TIP3    H226519   4.852   0.510   1.522  1.2640 -0.2660  0.3236
 1654TIP3   OH226520   1.859   5.535   0.742  0.2828 -0.3883 -0.5947
 1654TIP3    H126521   1.946   5.558   0.775  0.9768  2.0791 -3.6795
 1654TIP3    H226522   1.800   5.593   0.790  0.6377 -0.3297 -0.2155
 1655TIP3   OH226523   5.240   2.378   0.575 -0.0888  0.6181 -0.4657
 1655TIP3    H126524   5.242   2.294   0.620  1.6344  1.1348  0.5386
 1655TIP3    H226525   5.237   2.356   0.482  0.4698 -0.5555 -0.2257
 1656TIP3   OH226526   0.028   2.170   0.669 -0.0309  0.0206  0.0404
 1656TIP3    H126527   0.104   2.135   0.623 -1.9671 -1.8624 -1.9681
 1656TIP3    H226528   0.049   2.261   0.685  2.1627 -0.1422 -1.5413
 1657TIP3   OH226529   2.957   6.160   7.820 -0.0562  0.1929 -0.0022
 1657TIP3    H126530   2.999   6.075   7.834 -0.3899 -0.1665 -1.0850
 1657TIP3    H226531   3.018   6.223   7.856  0.8242 -0.4131 -0.3954
 1658TIP3   OH226532   4.455   3.373   0.870 -0.7515  0.3456  0.2436
 1658TIP3    H126533   4.508   3.441   0.828 -0.3219 -1.2831 -2.0326
 1658TIP3    H226534   4.381   3.360   0.810 -1.0154 -0.9168  0.8168
 1659TIP3   OH226535   3.061   0.567   2.594 -0.5184  0.0519  0.2147
 1659TIP3    H126536   3.134   0.627   2.609 -0.4510 -0.5493  2.8704
 1659TIP3    H226537   2.983   0.620   2.612 -0.7891  0.5734 -2.1876
 1660TIP3   OH226538   1.461   0.590   7.666  0.2327  0.0583 -0.2381
 1660TIP3    H126539   1.374   0.612   7.701  0.9121 -0.1713  1.6985
 1660TIP3    H226540   1.450   0.596   7.571 -2.0174 -0.4111 -0.0708
 1661TIP3   OH226541   3.031   6.493   1.903 -0.2452  0.2452 -0.2166
 1661TIP3    H126542   3.058   6.534   1.821  0.9071 -1.8471 -0.9480
 1661TIP3    H226543   2.995   6.408   1.877  0.1417 -0.4697  1.4404
 1662TIP3   OH226544   3.738   2.816   8.228 -0.4816  0.6015  0.5416
 1662TIP3    H126545   3.808   2.804   8.292 -1.0029  1.6457  1.3445
 1662TIP3    H226546   3.667   2.761   8.259 -0.7884  1.2239  0.9592
 1663TIP3   OH226547   2.714   4.468   0.701 -0.2616 -0.1556  0.4311
 1663TIP3    H126548   2.673   4.384   0.719  1.0316 -0.7651  0.6221
 1663TIP3    H226549   2.805   4.457   0.727 -0.2161  1.5405  1.1502
 1664TIP3   OH226550   3.841   3.191   0.865  0.0710 -0.2590  0.1617
 1664TIP3    H126551   3.851   3.165   0.956 -0.4435  2.0361  0.9433
 1664TIP3    H226552   3.756   3.156   0.839 -0.9171  1.0888  1.3944
 1665TIP3   OH226553   2.038   0.460   7.041 -0.8785  0.2915  0.7405
 1665TIP3    H126554   2.098   0.385   7.045 -0.9133  0.3091  1.6582
 1665TIP3    H226555   1.980   0.441   6.967  0.3346  0.3374 -0.2582
 1666TIP3   OH226556   0.434   0.123   7.754  0.2288  0.0162  0.8672
 1666TIP3    H126557   0.419   0.031   7.733 -0.6041  0.1876  0.6357
 1666TIP3    H226558   0.503   0.122   7.820  1.0225 -0.7045  0.0663
 1667TIP3   OH226559   4.139   2.594   8.858 -0.0441  0.1828 -0.1564
 1667TIP3    H126560   4.083   2.669   8.877  0.3592  1.0079 -2.0543
 1667TIP3    H226561   4.122   2.573   8.766  2.0430 -0.1404 -0.5180
 1668TIP3   OH226562   6.091   1.966   1.243 -0.1376 -0.3731  0.1562
 1668TIP3    H126563   6.130   2.036   1.296 -1.0010 -0.6588  1.2079
 1668TIP3    H226564   6.010   2.004   1.210 -0.4537 -0.7622  0.4730
 1669TIP3   OH226565   1.167   4.920   7.698  0.7861  0.3732 -0.1662
 1669TIP3    H126566   1.122   4.953   7.620  1.0255  1.0388 -0.0264
 1669TIP3    H226567   1.256   4.902   7.668  0.5510 -0.5378 -0.3389
 1670TIP3   OH226568   2.466   4.000   7.122  0.0027 -0.4460  0.2693
 1670TIP3    H126569   2.426   3.979   7.038  0.7806 -0.6080 -0.0688
 1670TIP3    H226570   2.515   4.081   7.106 -0.3159 -0.1592  0.7202
 1671TIP3   OH226571   1.590   1.725   8.533 -1.0119 -0.1980 -0.6266
 1671TIP3    H126572   1.543   1.791   8.482 -0.7870 -0.1234 -0.7394
 1671TIP3    H226573   1.631   1.774   8.604  0.8966  0.1409 -1.8831
 1672TIP3   OH226574   3.441   6.360   1.170 -0.1611 -0.4596  0.2322
 1672TIP3    H126575   3.417   6.292   1.233 -0.0172  0.7294  1.6251
 1672TIP3    H226576   3.518   6.324   1.125  0.3884 -0.9056  1.4844
 1673TIP3   OH226577   3.117   1.540   7.667 -0.0190  0.2248 -0.1408
 1673TIP3    H126578   3.086   1.450   7.675 -0.7246  0.5212  0.5598
 1673TIP3    H226579   3.098   1.580   7.752  1.6512  0.6264  0.0702
 1674TIP3   OH226580   0.468   3.952   7.852 -1.1083 -0.0296 -0.2831
 1674TIP3    H126581   0.449   4.043   7.831  2.6700  1.2684  0.9571
 1674TIP3    H226582   0.521   3.921   7.778 -2.2636 -1.2596 -0.6428
 1675TIP3   OH226583   5.282   4.732   7.804  0.3728  0.0587  1.2807
 1675TIP3    H126584   5.213   4.673   7.834 -2.0492  0.9252 -1.9924
 1675TIP3    H226585   5.328   4.758   7.883 -1.9047 -1.9691  3.4408
 1676TIP3   OH226586   6.553   6.122   0.099 -0.0937  0.0710  0.5290
 1676TIP3    H126587   6.547   6.026   0.105  0.9116 -0.0154  0.3014
 1676TIP3    H226588   6.640   6.138   0.064 -0.4006  1.0653  0.1998
 1677TIP3   OH226589   3.713   3.527   7.948  0.5363 -0.7472  0.2472
 1677TIP3    H126590   3.765   3.475   8.009  0.5896 -1.1087 -0.1059
 1677TIP3    H226591   3.622   3.511   7.974  0.6052  0.8253  1.6424
 1678TIP3   OH226592   0.152   5.490   8.657  0.1439  0.7291 -0.1905
 1678TIP3    H126593   0.219   5.436   8.700  0.8268 -0.0603 -2.1371
 1678TIP3    H226594   0.133   5.559   8.721  0.8279 -0.5655  1.5026
 1679TIP3   OH226595   0.430   3.175   1.015 -0.2093 -0.1541  0.4677
 1679TIP3    H126596   0.344   3.192   0.976  0.0149 -0.7932 -0.3289
 1679TIP3    H226597   0.418   3.096   1.067  0.2907 -1.2564 -1.0373
 1680TIP3   OH226598   4.653   3.166   0.165  0.4341 -0.3798 -0.0998
 1680TIP3    H126599   4.709   3.224   0.114  1.2305 -0.7888  0.2948
 1680TIP3    H226600   4.569   3.167   0.118  0.8864 -0.0789 -0.9233
 1681TIP3   OH226601   4.995   1.827   1.706  0.3128 -0.7155 -0.1781
 1681TIP3    H126602   5.088   1.802   1.702  0.6649  0.5805 -2.9402
 1681TIP3    H226603   4.949   1.755   1.664  0.1907 -0.8813  0.2382
 1682TIP3   OH226604   0.605   4.608   7.389 -0.1868  0.1551  0.5454
 1682TIP3    H126605   0.628   4.522   7.426 -0.0494  0.5910  1.4909
 1682TIP3    H226606   0.670   4.668   7.424  0.4538  0.4660 -1.0755
 1683TIP3   OH226607   0.386   3.838   1.728  0.0019 -0.2841 -0.5601
 1683TIP3    H126608   0.414   3.777   1.661  0.5305 -3.4239  2.2661
 1683TIP3    H226609   0.348   3.783   1.796 -1.6671  2.7956  1.2059
 1684TIP3   OH226610   0.264   6.233   1.725  0.1270  0.0160 -0.2255
 1684TIP3    H126611   0.242   6.304   1.784 -1.6356  1.2911 -2.2896
 1684TIP3    H226612   0.273   6.156   1.782  2.2101  1.7999  2.0753
 1685TIP3   OH226613   2.222   3.130   6.485 -0.2008  0.1546 -0.0928
 1685TIP3    H126614   2.269   3.168   6.411  0.9305 -2.2205 -0.6795
 1685TIP3    H226615   2.188   3.206   6.533  0.6234  1.8169 -1.9841
 1686TIP3   OH226616   6.165   0.797   8.863 -0.5656  0.4173  0.2492
 1686TIP3    H126617   6.172   0.893   8.863 -0.5808  0.4190  0.1414
 1686TIP3    H226618   6.125   0.777   8.779 -1.8324  0.3949  0.8461
 1687TIP3   OH226619   1.043   1.819   1.627 -0.4093 -0.2447  0.4462
 1687TIP3    H126620   1.080   1.829   1.539 -0.6225  0.0510  0.3911
 1687TIP3    H226621   0.972   1.755   1.616 -0.2642 -0.4092  0.4544
 1688TIP3   OH226622   4.964   0.264   2.495 -0.0684  0.1193  0.4577
 1688TIP3    H126623   4.913   0.332   2.540  1.3089  1.6363 -0.1604
 1688TIP3    H226624   5.040   0.251   2.551  0.8415  0.8362 -0.5603
 1689TIP3   OH226625   6.460   4.765   8.644  0.2269  0.1822 -0.2012
 1689TIP3    H126626   6.489   4.703   8.577 -1.1693 -0.8824  0.1195
 1689TIP3    H226627   6.368   4.741   8.660  0.3350  0.8295  1.6165
 1690TIP3   OH226628   4.244   0.039   7.549  0.3746  0.8982 -0.3050
 1690TIP3    H126629   4.219   0.056   7.640 -2.3700  0.7339 -0.9520
 1690TIP3    H226630   4.340   0.042   7.550  0.5292 -0.7930  2.9079
 1691TIP3   OH226631   5.847   4.885   8.840 -0.4138 -0.0011  0.0372
 1691TIP3    H126632   5.770   4.828   8.838 -0.4579 -0.0203  1.3237
 1691TIP3    H226633   5.874   4.886   8.932  0.2271  1.2020 -0.1335
 1692TIP3   OH226634   5.066   1.312   7.369 -0.0329  0.0556  0.2900
 1692TIP3    H126635   5.011   1.234   7.372 -0.5181  0.3031 -1.4041
 1692TIP3    H226636   5.006   1.384   7.389 -0.0725  0.2000 -0.3253
 1693TIP3   OH226637   0.946   5.145   8.118  0.1491  0.4682  0.0151
 1693TIP3    H126638   0.965   5.091   8.041  1.9109  0.0875  0.6566
 1693TIP3    H226639   0.953   5.235   8.085  1.8915  0.3236 -0.0997
 1694TIP3   OH226640   5.829   3.234   7.449  0.0988 -0.4169  0.2531
 1694TIP3    H126641   5.734   3.227   7.448 -0.0651  1.2976 -0.4690
 1694TIP3    H226642   5.854   3.222   7.540 -0.7532 -1.4284  0.3574
 1695TIP3   OH226643   3.183   3.377   7.407  0.3035 -0.0357  0.0225
 1695TIP3    H126644   3.219   3.288   7.406  1.8400  0.5579  0.1838
 1695TIP3    H226645   3.109   3.373   7.347  1.0688 -1.1314 -0.9022
 1696TIP3   OH226646   0.053   1.672   7.144  0.3609  0.0087  0.6510
 1696TIP3    H126647  -0.010   1.603   7.122  1.2388 -0.3732 -0.8566
 1696TIP3    H226648   0.007   1.754   7.126  0.5009 -0.2724 -1.2348
 1697TIP3   OH226649   5.952   3.238   2.514  0.1237 -0.3460 -0.0255
 1697TIP3    H126650   5.885   3.170   2.523  1.6762 -2.0942 -0.9511
 1697TIP3    H226651   5.924   3.290   2.438  0.4589 -1.9156 -1.2675
 1698TIP3   OH226652   2.766   0.420   0.580  0.1897  0.3398 -0.4846
 1698TIP3    H126653   2.733   0.480   0.647 -0.0725 -0.9878  0.6146
 1698TIP3    H226654   2.820   0.358   0.628  2.3031  0.9618 -1.9003
 1699TIP3   OH226655   3.447   3.110   2.165 -0.1630  0.1911  0.5563
 1699TIP3    H126656   3.501   3.037   2.193 -0.3296 -0.3498 -0.4621
 1699TIP3    H226657   3.504   3.160   2.106  0.0966  1.1484  1.5926
 1700TIP3   OH226658   6.699   5.226   7.381  0.1238 -0.2460  0.1730
 1700TIP3    H126659   6.651   5.206   7.461 -1.4174  0.7102 -0.4532
 1700TIP3    H226660   6.636   5.208   7.311  0.5786  1.3080 -0.6798
 1701TIP3   OH226661   1.429   2.387   7.251  0.7371 -0.1841  0.0563
 1701TIP3    H126662   1.445   2.474   7.288  2.0900  0.0757 -1.0961
 1701TIP3    H226663   1.342   2.394   7.210  1.1958  0.8942 -0.7687
 1702TIP3   OH226664   0.852   6.568   1.557 -0.4190 -0.0244 -0.7302
 1702TIP3    H126665   0.915   6.496   1.566 -1.3224 -0.7957 -0.3338
 1702TIP3    H226666   0.774   6.526   1.520 -0.9690  0.7595 -0.4775
 1703TIP3   OH226667   2.246   4.682   7.428  0.1229 -0.4322 -0.4037
 1703TIP3    H126668   2.237   4.714   7.338 -1.5582  0.9858  0.2126
 1703TIP3    H226669   2.339   4.660   7.436  0.2846 -0.7730 -2.5182
 1704TIP3   OH226670   3.863   4.198   7.305  0.3559  0.1278 -0.2576
 1704TIP3    H126671   3.956   4.196   7.328  0.3965  2.0682 -0.0638
 1704TIP3    H226672   3.843   4.109   7.277  2.1048 -0.4920  0.3374
 1705TIP3   OH226673   1.744   5.768   1.956  0.1818 -0.0827 -0.6629
 1705TIP3    H126674   1.826   5.799   1.918  0.1634 -1.9235 -2.3620
 1705TIP3    H226675   1.735   5.678   1.924 -2.2558 -0.1009 -0.1383
 1706TIP3   OH226676   0.404   3.221   2.024  0.2023 -0.4148  0.2221
 1706TIP3    H126677   0.379   3.204   2.115  1.1295  0.2467  0.6178
 1706TIP3    H226678   0.322   3.240   1.980 -0.0505  2.4150  1.6298
 1707TIP3   OH226679   4.269   5.733   1.581 -0.0168  0.3613  0.4325
 1707TIP3    H126680   4.251   5.804   1.519 -0.7954 -1.0107 -0.9977
 1707TIP3    H226681   4.216   5.755   1.658 -1.2773  0.7048 -0.4901
 1708TIP3   OH226682   3.796   2.120   7.228 -0.4544  0.1579 -0.3570
 1708TIP3    H126683   3.869   2.108   7.289 -1.2006  2.4292  1.1178
 1708TIP3    H226684   3.801   2.211   7.202 -1.1399 -0.3650 -2.4776
 1709TIP3   OH226685   5.426   3.600   7.243  0.0276  0.0787 -0.0222
 1709TIP3    H126686   5.371   3.617   7.320  0.2321 -0.8858  0.3516
 1709TIP3    H226687   5.365   3.570   7.177  0.0157 -0.3282  0.1728
 1710TIP3   OH226688   6.557   0.259   0.478 -0.1503  0.2886 -0.2367
 1710TIP3    H126689   6.617   0.192   0.445  0.7202  0.6750  0.5043
 1710TIP3    H226690   6.477   0.246   0.428  0.8430  0.3613 -1.9192
 1711TIP3   OH226691   1.066   0.519   7.325 -0.1037 -0.1475  0.2706
 1711TIP3    H126692   1.127   0.592   7.323 -1.1532  1.1403  4.3587
 1711TIP3    H226693   1.121   0.442   7.339  0.8198  0.8579  2.8686
 1712TIP3   OH226694   3.374   2.595   0.661  0.6593  0.1099  0.4264
 1712TIP3    H126695   3.391   2.683   0.693  0.1575  0.2192  0.4007
 1712TIP3    H226696   3.350   2.606   0.569 -0.2050  0.0417  0.6280
 1713TIP3   OH226697   1.595   1.265   8.220  0.3655  0.1901 -0.3948
 1713TIP3    H126698   1.553   1.180   8.232  0.3800 -0.1930 -2.6541
 1713TIP3    H226699   1.529   1.318   8.174  1.2665  0.5652 -1.2704
 1714TIP3   OH226700   3.667   1.008   8.766  0.6786  0.3678 -0.2934
 1714TIP3    H126701   3.620   1.061   8.701  0.1479 -1.5079 -1.5312
 1714TIP3    H226702   3.716   1.072   8.818 -0.8646  2.1524 -0.9055
 1715TIP3   OH226703   4.216   4.441   7.799  0.2432 -0.3559  0.2910
 1715TIP3    H126704   4.175   4.357   7.818  2.2123 -0.7909  3.1334
 1715TIP3    H226705   4.259   4.427   7.714 -0.8241 -1.6281 -0.0869
 1716TIP3   OH226706   3.179   0.910   0.821 -0.4763  0.3778  0.0835
 1716TIP3    H126707   3.202   0.998   0.793  1.1970 -0.2563 -0.6914
 1716TIP3    H226708   3.090   0.896   0.789 -0.6668  1.6880  0.0172
 1717TIP3   OH226709   5.786   0.714   7.338 -0.3503  0.6136 -0.5331
 1717TIP3    H126710   5.768   0.782   7.403  1.9216 -0.0006  0.8277
 1717TIP3    H226711   5.825   0.642   7.388  1.7250  0.2118 -2.5459
 1718TIP3   OH226712   6.322   4.297   0.526  0.2185  0.1998  0.6273
 1718TIP3    H126713   6.340   4.206   0.549 -2.4425 -0.2454  1.3125
 1718TIP3    H226714   6.329   4.300   0.430 -0.3186 -0.9095  0.5393
 1719TIP3   OH226715   0.792   0.925   7.815 -0.4124  0.1773  0.2321
 1719TIP3    H126716   0.774   0.998   7.875 -0.2608 -0.8141  1.5205
 1719TIP3    H226717   0.750   0.849   7.856 -0.6254 -0.4544 -1.1248
 1720TIP3   OH226718   6.702   4.324   7.219  0.1736 -0.0780 -0.0014
 1720TIP3    H126719   6.762   4.324   7.294  0.2825 -0.9362 -0.0874
 1720TIP3    H226720   6.647   4.247   7.232  0.3322 -0.3464 -0.9276
 1721TIP3   OH226721   1.559   3.865   1.996 -0.1426  0.0571 -0.1928
 1721TIP3    H126722   1.606   3.859   2.079  1.5917  0.4915 -1.0833
 1721TIP3    H226723   1.627   3.888   1.932 -1.3130 -0.8488 -1.8337
 1722TIP3   OH226724   2.074   1.469   8.420 -0.4391 -0.2657 -0.6293
 1722TIP3    H126725   2.058   1.524   8.344 -1.7570 -1.8102 -1.5320
 1722TIP3    H226726   2.021   1.390   8.405  0.6814 -1.4105  1.0148
 1723TIP3   OH226727   4.744   0.674   7.513 -0.0233 -0.2956  0.6360
 1723TIP3    H126728   4.799   0.656   7.590  0.1313  1.6467  1.0253
 1723TIP3    H226729   4.707   0.760   7.530 -1.3176 -0.5502 -0.7363
 1724TIP3   OH226730   1.513   5.627   0.548 -0.1915  0.7859 -0.5492
 1724TIP3    H126731   1.608   5.631   0.556 -0.2942  3.0357  0.4025
 1724TIP3    H226732   1.487   5.559   0.611  0.7938 -0.6440 -1.6132
 1725TIP3   OH226733   6.250   6.081   8.578  0.2822  0.4395 -0.1977
 1725TIP3    H126734   6.284   6.124   8.656 -1.2184  1.9232 -0.2897
 1725TIP3    H226735   6.321   6.024   8.548  1.5416  1.2035  1.2100
 1726TIP3   OH226736   0.729   2.590   7.681 -0.1823 -0.2894 -0.3890
 1726TIP3    H126737   0.649   2.581   7.734  1.2172 -1.3576  1.6947
 1726TIP3    H226738   0.710   2.539   7.602 -1.7677 -0.0300 -0.2138
 1727TIP3   OH226739   6.242   6.461   8.629 -0.1749  0.3900 -0.0408
 1727TIP3    H126740   6.282   6.500   8.552 -0.9104  1.8886  0.2831
 1727TIP3    H226741   6.305   6.396   8.659  2.0459  2.5671  0.4042
 1728TIP3   OH226742   5.405   0.463   7.408  0.3793  0.0240  0.2302
 1728TIP3    H126743   5.350   0.385   7.407 -0.1417  0.3864  0.2442
 1728TIP3    H226744   5.481   0.437   7.460  1.0088 -0.9889 -1.1589
 1729TIP3   OH226745   5.568   6.288   0.861 -0.1183  0.6393  0.1264
 1729TIP3    H126746   5.573   6.383   0.870  1.3951  0.4592  1.6966
 1729TIP3    H226747   5.539   6.275   0.771 -1.6796  2.5761  0.2723
 1730TIP3   OH226748   2.883   1.835   8.429 -0.1483 -0.5711  0.1508
 1730TIP3    H126749   2.892   1.860   8.337 -0.2247 -2.3247 -0.3680
 1730TIP3    H226750   2.953   1.882   8.474 -0.8769  1.3007 -0.5582
 1731TIP3   OH226751   1.585   3.438   0.957  0.4616  0.0117 -0.3337
 1731TIP3    H126752   1.512   3.382   0.929 -0.0835  1.0601 -1.0596
 1731TIP3    H226753   1.644   3.378   1.003 -0.3721 -1.0529 -0.5987
 1732TIP3   OH226754   2.144   1.441   2.700  0.1241 -0.5773  0.4354
 1732TIP3    H126755   2.092   1.438   2.619  0.6039 -1.4741  0.1505
 1732TIP3    H226756   2.120   1.361   2.747 -0.8495  0.3726  1.6445
 1733TIP3   OH226757   6.276   4.059   8.015  0.1609 -0.2975  0.1783
 1733TIP3    H126758   6.300   4.147   7.987 -0.3079 -0.3522 -0.4208
 1733TIP3    H226759   6.340   4.002   7.972  0.7065 -0.2293  0.8788
 1734TIP3   OH226760   1.187   0.567   6.834 -0.2106  0.4677 -0.7410
 1734TIP3    H126761   1.178   0.472   6.835 -0.5794  0.4227 -3.2475
 1734TIP3    H226762   1.281   0.583   6.820 -0.0435  0.5279  0.3161
 1735TIP3   OH226763   5.336   0.811   7.835  0.8249  0.5998  0.4569
 1735TIP3    H126764   5.352   0.719   7.854  0.6475  0.1789 -1.2755
 1735TIP3    H226765   5.417   0.841   7.793  0.4072  0.8609 -0.1885
 1736TIP3   OH226766   6.038   4.702   8.741  0.3919 -0.4859  0.5937
 1736TIP3    H126767   6.007   4.618   8.774 -0.4861 -0.9479 -1.2799
 1736TIP3    H226768   5.978   4.766   8.778  0.4356 -0.8036  1.2169
 1737TIP3   OH226769   1.432   5.889   0.507  0.1697  0.8220 -0.1464
 1737TIP3    H126770   1.444   5.795   0.515 -1.2688  0.5528 -0.8541
 1737TIP3    H226771   1.507   5.920   0.457  2.0274  0.4788  2.2690
 1738TIP3   OH226772   0.797   6.103   2.336  0.4876 -0.0778 -0.3784
 1738TIP3    H126773   0.807   6.198   2.332  0.3012 -0.1040 -2.8994
 1738TIP3    H226774   0.887   6.069   2.334  0.5894  0.0064  1.2735
 1739TIP3   OH226775   3.997   4.877   0.361  0.1396  0.1161  0.2079
 1739TIP3    H126776   4.058   4.916   0.298 -0.3366  0.0442 -0.3033
 1739TIP3    H226777   4.052   4.821   0.416  0.6529  0.6432  0.2424
 1740TIP3   OH226778   6.498   2.647   8.054 -0.0724 -0.2473  0.0654
 1740TIP3    H126779   6.551   2.677   8.127  1.3288  1.1447 -1.4426
 1740TIP3    H226780   6.415   2.695   8.063 -0.2470 -0.7442  1.1955
 1741TIP3   OH226781   5.634   0.755   1.430 -0.4591  0.0470  0.2547
 1741TIP3    H126782   5.707   0.802   1.388 -1.1423  0.3447 -0.6123
 1741TIP3    H226783   5.618   0.805   1.510 -1.3983  1.5484 -0.8112
 1742TIP3   OH226784   0.650   1.226   2.253 -0.4098 -0.3287 -0.0708
 1742TIP3    H126785   0.738   1.220   2.289 -0.1105  1.1735 -0.4865
 1742TIP3    H226786   0.601   1.278   2.317 -0.9899 -1.1352  0.1483
 1743TIP3   OH226787   2.874   1.948   6.779 -0.4251 -0.4596 -0.1969
 1743TIP3    H126788   2.870   1.940   6.874  1.4888  0.1152 -0.0181
 1743TIP3    H226789   2.920   1.869   6.751  2.0236  0.8570 -0.2397
 1744TIP3   OH226790   3.809   2.892   6.815  0.1183  0.0814  0.2185
 1744TIP3    H126791   3.888   2.905   6.762 -0.4706  0.2385 -0.6285
 1744TIP3    H226792   3.766   2.978   6.815  0.6171  0.3759  1.8177
 1745TIP3   OH226793   1.991   3.590   2.396 -0.2563 -0.2385 -0.4586
 1745TIP3    H126794   1.990   3.677   2.358 -0.0951  0.2591  0.6491
 1745TIP3    H226795   2.049   3.539   2.338  0.9051  0.7931 -0.2522
 1746TIP3   OH226796   0.417   2.805   8.705 -0.1116 -0.1048  0.2384
 1746TIP3    H126797   0.454   2.837   8.788  2.1118 -0.2843 -0.6206
 1746TIP3    H226798   0.396   2.713   8.723  0.4612 -0.1754  0.5953
 1747TIP3   OH226799   4.853   5.693   6.758  0.3830  0.0033 -0.6365
 1747TIP3    H126800   4.782   5.712   6.820  0.1379 -0.0318 -0.9056
 1747TIP3    H226801   4.887   5.779   6.735  0.3815  0.0243 -0.5633
 1748TIP3   OH226802   0.292   3.225   1.368 -0.6833 -0.5029  0.3980
 1748TIP3    H126803   0.247   3.303   1.334 -1.5324 -0.1519  2.2135
 1748TIP3    H226804   0.225   3.157   1.367 -0.1138 -1.0600 -0.6067
 1749TIP3   OH226805   4.500   0.511   7.000  0.3517  0.3533  0.4956
 1749TIP3    H126806   4.541   0.586   7.043 -1.0955  1.3766  0.1627
 1749TIP3    H226807   4.425   0.548   6.954 -0.7038 -1.3789  0.7423
 1750TIP3   OH226808   0.714   3.254   1.921 -0.2165 -0.1046 -0.3876
 1750TIP3    H126809   0.785   3.195   1.895  1.0984  1.8883 -1.6161
 1750TIP3    H226810   0.649   3.197   1.961  1.6904 -2.1529  0.0082
 1751TIP3   OH226811   0.187   2.947   8.841 -0.2052 -0.1875  0.5705
 1751TIP3    H126812   0.223   2.885   8.778  0.1760 -1.6076  2.0991
 1751TIP3    H226813   0.178   3.029   8.793  0.5583 -1.0740 -1.1532
 1752TIP3   OH226814   2.742   2.206   0.960  0.3560 -0.1836  0.0522
 1752TIP3    H126815   2.770   2.291   0.992 -0.1528 -0.0080  0.0422
 1752TIP3    H226816   2.792   2.193   0.879  0.2983  0.1886 -0.0446
 1753TIP3   OH226817   4.962   1.689   0.642 -0.7576  0.1351  0.3136
 1753TIP3    H126818   4.919   1.744   0.577 -0.0256  0.2049 -0.1104
 1753TIP3    H226819   4.992   1.750   0.710  4.1606  1.0639 -2.2534
 1754TIP3   OH226820   2.925   1.809   1.760  0.1127  0.1339  0.0620
 1754TIP3    H126821   2.849   1.785   1.706  0.4446 -1.2738  0.1835
 1754TIP3    H226822   2.944   1.899   1.735 -1.4393  0.4301 -0.1580
 1755TIP3   OH226823   3.889   4.850   1.598 -0.1133  0.2629  0.1549
 1755TIP3    H126824   3.960   4.787   1.608 -0.8555 -0.6392  0.0009
 1755TIP3    H226825   3.825   4.824   1.664  0.5287  2.2878  1.6403
 1756TIP3   OH226826   4.029   1.566   1.152 -0.2249  0.2230  0.6134
 1756TIP3    H126827   4.099   1.515   1.192 -0.0546 -1.4153 -1.5617
 1756TIP3    H226828   4.069   1.651   1.133  0.7309 -0.1868  0.7377
 1757TIP3   OH226829   1.589   4.637   0.455  0.1905 -0.4081 -0.4082
 1757TIP3    H126830   1.520   4.650   0.519  0.9443  0.9338  0.1726
 1757TIP3    H226831   1.554   4.571   0.395 -0.9565 -0.8905  0.7455
 1758TIP3   OH226832   1.973   2.547   0.531  0.5171  0.0890  0.4667
 1758TIP3    H126833   1.940   2.466   0.569  1.7575 -0.6511  0.0260
 1758TIP3    H226834   1.969   2.610   0.603 -2.5409  0.3115  0.2397
 1759TIP3   OH226835   3.051   2.142   7.948  0.1739 -0.2200  0.6364
 1759TIP3    H126836   2.992   2.192   8.003  1.3996  1.6794  0.3235
 1759TIP3    H226837   3.081   2.070   8.004  1.6496  1.8298  2.6817
 1760TIP3   OH226838   5.513   6.336   2.100  0.1450 -0.3981  0.3158
 1760TIP3    H126839   5.561   6.298   2.174  0.3934 -0.4671  0.1201
 1760TIP3    H226840   5.460   6.406   2.139 -0.3479 -0.9628  0.6879
 1761TIP3   OH226841   1.061   0.962   8.614  0.2805 -0.4717  0.4850
 1761TIP3    H126842   1.033   1.039   8.665  0.9594  0.1612 -0.0848
 1761TIP3    H226843   1.120   0.915   8.672  0.8403  0.1051  0.3888
 1762TIP3   OH226844   3.467   5.885   2.084 -0.1164 -0.2439  0.4038
 1762TIP3    H126845   3.502   5.839   2.160 -3.1731  0.1837  2.2170
 1762TIP3    H226846   3.457   5.975   2.112 -1.2523 -0.0554 -0.4980
 1763TIP3   OH226847   3.691   4.267   7.493  0.6993 -0.5106 -0.2213
 1763TIP3    H126848   3.758   4.330   7.519  2.2787 -1.2008 -2.3334
 1763TIP3    H226849   3.720   4.235   7.407 -1.2062 -2.4620 -0.2268
 1764TIP3   OH226850   1.266   1.674   6.346  0.5263 -0.3169  0.7709
 1764TIP3    H126851   1.217   1.612   6.292  0.0455  0.5399  0.2009
 1764TIP3    H226852   1.257   1.758   6.300  0.8270  0.2574  1.7352
 1765TIP3   OH226853   0.251   0.944   0.753 -0.2550  0.0994 -0.1193
 1765TIP3    H126854   0.283   0.928   0.842 -0.9909  0.3266  0.1917
 1765TIP3    H226855   0.211   0.861   0.727  0.1485 -0.0328 -0.3210
 1766TIP3   OH226856   6.061   4.429   7.079 -0.0174 -0.2769 -0.4737
 1766TIP3    H126857   6.042   4.522   7.064 -1.7419 -0.5389 -0.1066
 1766TIP3    H226858   6.030   4.386   6.999 -0.7384 -0.7099  0.0384
 1767TIP3   OH226859   1.991   4.487   8.385  0.5352  0.1884  0.0396
 1767TIP3    H126860   1.916   4.513   8.439  0.1943  1.0076 -0.7937
 1767TIP3    H226861   1.953   4.465   8.300  1.2914  1.3154 -0.6160
 1768TIP3   OH226862   2.959   5.479   0.848 -0.2887  0.1996  0.8443
 1768TIP3    H126863   2.974   5.566   0.810 -0.6379  0.5836  1.5749
 1768TIP3    H226864   3.026   5.423   0.807 -0.4039  0.6834 -0.0397
 1769TIP3   OH226865   4.365   0.719   1.372 -0.1479 -0.0260  0.4104
 1769TIP3    H126866   4.282   0.672   1.359 -0.5121 -0.1253  2.6038
 1769TIP3    H226867   4.393   0.693   1.460  2.8469 -0.8840 -0.6889
 1770TIP3   OH226868   0.571   6.223   1.688 -0.4581 -0.5217  0.0008
 1770TIP3    H126869   0.581   6.130   1.671 -0.7761 -0.8017  1.2978
 1770TIP3    H226870   0.488   6.231   1.735  0.1875  0.2557  1.0588
 1771TIP3   OH226871   5.038   2.440   7.769  0.1641  0.1112 -0.3386
 1771TIP3    H126872   5.125   2.475   7.748 -0.2182  0.7575 -0.8842
 1771TIP3    H226873   4.978   2.493   7.717 -0.4231 -1.5210 -1.4161
 1772TIP3   OH226874   1.064   2.024   6.745 -0.2921 -0.1556 -0.5696
 1772TIP3    H126875   0.991   2.085   6.741 -1.5230 -1.4684  0.7240
 1772TIP3    H226876   1.073   2.003   6.838  0.8178 -1.0881 -0.8539
 1773TIP3   OH226877   1.191   1.659   7.727  0.4027 -0.1120  0.1612
 1773TIP3    H126878   1.213   1.643   7.635  1.0463 -2.2756  0.6332
 1773TIP3    H226879   1.144   1.743   7.726 -1.4649 -1.0443 -2.4247
 1774TIP3   OH226880   1.667   4.237   7.899  0.3865  0.3284  0.4551
 1774TIP3    H126881   1.574   4.217   7.906  0.3248  0.2523 -0.4350
 1774TIP3    H226882   1.688   4.222   7.807  1.6952 -1.4859  0.9924
 1775TIP3   OH226883   0.619   2.911   0.357  0.7941  0.0717 -0.1353
 1775TIP3    H126884   0.620   2.828   0.308 -2.9073 -1.5295  2.0286
 1775TIP3    H226885   0.621   2.885   0.449  1.1043  2.5167  0.6193
 1776TIP3   OH226886   1.149   2.504   7.556  0.2569 -0.1791  0.2899
 1776TIP3    H126887   1.219   2.445   7.584  0.3544  0.0487  0.5293
 1776TIP3    H226888   1.190   2.591   7.554  0.1866 -0.1584 -0.3336
 1777TIP3   OH226889   1.324   2.413   1.489 -0.2757 -1.1152  0.3006
 1777TIP3    H126890   1.358   2.409   1.399 -0.7082  0.8054 -0.0048
 1777TIP3    H226891   1.359   2.335   1.531  1.2446 -1.2633 -1.1091
 1778TIP3   OH226892   6.413   5.476   8.381  0.2318  0.0022 -0.3583
 1778TIP3    H126893   6.487   5.498   8.437  0.9158 -1.7320 -0.5287
 1778TIP3    H226894   6.427   5.527   8.301  0.5371  0.6673  0.1173
 1779TIP3   OH226895   4.480   1.178   8.099 -0.2622  0.0165  0.0488
 1779TIP3    H126896   4.534   1.107   8.133 -1.7486 -0.7575  0.8859
 1779TIP3    H226897   4.518   1.258   8.137  0.0379 -0.5376  0.9467
 1780TIP3   OH226898   2.489   1.408   8.745  0.2941 -0.3466  0.5708
 1780TIP3    H126899   2.434   1.480   8.774 -0.3367  0.0119 -1.3821
 1780TIP3    H226900   2.539   1.444   8.671  2.3687 -0.9864  1.5820
 1781TIP3   OH226901   4.885   0.946   8.806 -0.6579 -0.1211  1.3191
 1781TIP3    H126902   4.943   0.967   8.879 -0.2982 -2.0268  1.6224
 1781TIP3    H226903   4.942   0.910   8.739 -1.5602 -4.0992  2.4187
 1782TIP3   OH226904   2.277   5.928   6.232 -0.1036  0.7085  0.0331
 1782TIP3    H126905   2.259   5.993   6.299 -1.2534  0.6892 -0.2361
 1782TIP3    H226906   2.335   5.865   6.274  1.8001  2.3644  0.0194
 1783TIP3   OH226907   2.658   6.555   8.346 -0.3420  0.3583  0.0563
 1783TIP3    H126908   2.734   6.497   8.348  0.9216  1.9310 -0.5915
 1783TIP3    H226909   2.585   6.497   8.323  0.9672 -0.8726 -1.2354
 1784TIP3   OH226910   6.073   3.051   6.652 -0.2805 -0.0178 -1.0787
 1784TIP3    H126911   6.056   2.973   6.705  1.7164  1.7953  2.5929
 1784TIP3    H226912   5.986   3.080   6.624 -1.5271 -1.0542  1.4159
 1785TIP3   OH226913   1.773   5.566   6.875  0.4298 -0.5092 -0.2133
 1785TIP3    H126914   1.814   5.581   6.960 -0.3425 -0.9527  0.2452
 1785TIP3    H226915   1.842   5.588   6.812 -0.0804  3.3832  0.3753
 1786TIP3   OH226916   5.841   0.991   2.481  0.0854  0.7512  0.1176
 1786TIP3    H126917   5.862   0.903   2.514 -0.1062  0.1616 -1.2547
 1786TIP3    H226918   5.761   1.016   2.526 -0.0019  0.1082  0.3247
 1787TIP3   OH226919   4.687   1.601   0.339 -0.1095 -0.1448 -0.0741
 1787TIP3    H126920   4.759   1.641   0.291 -0.6499 -0.0820 -0.8298
 1787TIP3    H226921   4.608   1.628   0.293 -0.7913  1.3820  1.8537
 1788TIP3   OH226922   1.645   2.396   7.656  0.2455 -0.1372  0.5173
 1788TIP3    H126923   1.680   2.347   7.582 -1.6871 -1.0878  0.1688
 1788TIP3    H226924   1.605   2.474   7.617 -0.2306 -0.3287  0.6107
 1789TIP3   OH226925   6.445   3.770   2.617  0.3322  0.0246 -0.3880
 1789TIP3    H126926   6.448   3.682   2.580 -0.1642  0.8788 -2.6583
 1789TIP3    H226927   6.530   3.808   2.595  0.2952  0.3260 -0.0175
 1790TIP3   OH226928   6.475   6.098   1.876 -0.1830  0.1489 -0.4572
 1790TIP3    H126929   6.539   6.150   1.926  0.0529  1.4584 -2.0386
 1790TIP3    H226930   6.395   6.103   1.929  0.6613 -0.5279  0.9612
 1791TIP3   OH226931   0.659   6.257   7.970 -0.5120  0.4036 -0.6520
 1791TIP3    H126932   0.650   6.352   7.972  0.2939  0.4827 -0.4719
 1791TIP3    H226933   0.576   6.226   7.933 -1.0041  1.1375 -0.2072
 1792TIP3   OH226934   3.507   1.410   2.305  0.1743 -0.0979 -0.8141
 1792TIP3    H126935   3.577   1.461   2.346  0.3165  0.5104 -1.7939
 1792TIP3    H226936   3.430   1.428   2.360  0.3114  0.8696 -0.9251
 1793TIP3   OH226937   1.606   0.358   8.768  0.2320  0.1951  0.1187
 1793TIP3    H126938   1.536   0.313   8.815  0.9490 -0.7708  0.2829
 1793TIP3    H226939   1.685   0.308   8.788  0.7977  0.6499 -0.9031
 1794TIP3   OH226940   3.945   3.942   6.643 -0.2359  0.1358 -0.7085
 1794TIP3    H126941   3.997   3.883   6.697  0.1857  0.6805 -0.5173
 1794TIP3    H226942   3.973   3.922   6.553  0.8510  0.9311 -0.5650
 1795TIP3   OH226943   1.285   3.476   0.665 -0.0001  0.0950  0.6247
 1795TIP3    H126944   1.236   3.555   0.644  1.1589  0.6486 -0.0432
 1795TIP3    H226945   1.224   3.424   0.718 -1.3506  0.6956 -0.2934
 1796TIP3   OH226946   1.658   1.550   7.991 -0.1666  0.2025 -0.0939
 1796TIP3    H126947   1.604   1.628   7.999  0.6951  0.9431 -1.1806
 1796TIP3    H226948   1.682   1.528   8.081 -0.5859  1.0744  0.2444
 1797TIP3   OH226949   4.349   2.736   2.005 -0.1817 -0.2178  0.2593
 1797TIP3    H126950   4.310   2.723   2.092 -1.3658  1.8607  0.1103
 1797TIP3    H226951   4.311   2.818   1.974  2.6101  0.7459 -0.9152
 1798TIP3   OH226952   5.517   1.205   7.865 -0.0161  0.4450  0.2512
 1798TIP3    H126953   5.603   1.245   7.863 -0.4219  1.5950  2.4671
 1798TIP3    H226954   5.533   1.113   7.886  0.6507  0.9036  1.8848
 1799TIP3   OH226955   3.281   3.658   7.890 -0.2180 -0.1133 -0.0220
 1799TIP3    H126956   3.321   3.728   7.837 -1.9969 -0.9767 -2.6987
 1799TIP3    H226957   3.230   3.705   7.957  1.1477  1.0428  0.2625
 1800TIP3   OH226958   6.744   2.140   8.831 -0.4134  0.3827 -0.4965
 1800TIP3    H126959   6.748   2.067   8.894 -0.3297 -0.5561 -1.5559
 1800TIP3    H226960   6.765   2.217   8.883  2.9388 -0.7371  0.0365
 1801TIP3   OH226961   1.387   2.169   2.211  0.3605  0.5265 -0.1052
 1801TIP3    H126962   1.429   2.165   2.125 -0.5601  0.3655 -0.5530
 1801TIP3    H226963   1.442   2.115   2.267  0.2122 -0.4797 -0.9162
 1802TIP3   OH226964   2.932   4.381   0.827  0.6082 -0.8048  0.2734
 1802TIP3    H126965   2.888   4.416   0.904 -0.5269 -2.3363  0.3741
 1802TIP3    H226966   3.020   4.359   0.857  0.1618 -1.4232  1.1779
 1803TIP3   OH226967   2.955   5.241   1.529 -0.3379 -0.0963 -0.5269
 1803TIP3    H126968   2.958   5.330   1.494  2.2531  0.1894  0.2757
 1803TIP3    H226969   2.942   5.186   1.452  2.6838  0.6982 -1.7543
 1804TIP3   OH226970   5.609   3.154   8.838  0.1188  0.0370 -0.3396
 1804TIP3    H126971   5.585   3.232   8.887 -1.4297 -0.5101 -0.1685
 1804TIP3    H226972   5.656   3.187   8.761  0.8441  1.0129  0.4959
 1805TIP3   OH226973   4.131   6.180   6.950 -0.1984  0.4969  0.3287
 1805TIP3    H126974   4.210   6.184   6.896 -0.8283 -0.2325 -0.6831
 1805TIP3    H226975   4.068   6.131   6.897 -0.8860 -0.1448  1.6818
 1806TIP3   OH226976   1.239   0.134   0.812 -0.6047 -0.1457  0.2022
 1806TIP3    H126977   1.260   0.067   0.877 -1.1563  1.2618  1.9232
 1806TIP3    H226978   1.240   0.216   0.861 -1.9191  0.8984 -1.3837
 1807TIP3   OH226979   0.793   2.685   1.170 -0.3705 -0.3434  0.0456
 1807TIP3    H126980   0.884   2.662   1.151 -0.2869  0.7548 -0.9951
 1807TIP3    H226981   0.764   2.618   1.232  0.9631 -1.0526 -0.0576
 1808TIP3   OH226982   2.431   2.486   0.026 -0.1437 -0.1535 -0.2305
 1808TIP3    H126983   2.416   2.560  -0.033 -1.8109 -0.6062 -0.4221
 1808TIP3    H226984   2.361   2.425   0.005  0.3461 -1.1453  0.9487
 1809TIP3   OH226985   5.126   0.222   6.439 -0.0554  0.2656 -0.0528
 1809TIP3    H126986   5.119   0.318   6.444  1.1783  0.3448  0.8174
 1809TIP3    H226987   5.218   0.207   6.416 -0.5957 -0.7034 -1.6935
 1810TIP3   OH226988   0.914   3.088   6.891 -0.2239 -0.3984  0.2924
 1810TIP3    H126989   0.888   3.064   6.802  0.7986 -0.9426  0.1173
 1810TIP3    H226990   0.848   3.151   6.920 -0.2383  0.2635 -1.0811
 1811TIP3   OH226991   4.226   5.657   0.011 -0.1560 -0.1563 -0.5119
 1811TIP3    H126992   4.201   5.688  -0.076  0.8773  0.5611 -0.5692
 1811TIP3    H226993   4.258   5.735   0.056  0.5124 -0.7583  0.0726
 1812TIP3   OH226994   3.725   4.332   8.335 -0.2761  0.0958 -0.7036
 1812TIP3    H126995   3.772   4.415   8.347 -2.3523  1.6275 -2.4088
 1812TIP3    H226996   3.659   4.332   8.404  1.2200 -1.4026  0.8318
 1813TIP3   OH226997   1.379   0.082   0.285  0.2593 -0.2326 -0.0997
 1813TIP3    H126998   1.461   0.132   0.285  0.5131 -0.6424  0.3490
 1813TIP3    H226999   1.403  -0.004   0.319 -0.3237 -0.4184 -0.1451
 1814TIP3   OH227000   4.239   5.957   0.097  0.0815 -0.6456  0.5609
 1814TIP3    H127001   4.151   5.975   0.064  0.2047  0.3846  0.7640
 1814TIP3    H227002   4.295   6.021   0.053  1.2504 -3.0496 -1.7683
 1815TIP3   OH227003   6.020   6.730   1.172  0.0108 -0.0625  0.1331
 1815TIP3    H127004   6.012   6.764   1.082 -1.0247 -0.2748  0.1297
 1815TIP3    H227005   6.043   6.638   1.161  0.8621  0.1423  0.1125
 1816TIP3   OH227006   4.752   0.605   7.246 -0.0034 -0.0035  0.3525
 1816TIP3    H127007   4.681   0.660   7.214  0.7099  0.8508  0.1949
 1816TIP3    H227008   4.753   0.619   7.340  0.3648  0.5081  0.2804
 1817TIP3   OH227009   5.278   2.840   0.586 -0.2835 -0.0456  0.1602
 1817TIP3    H127010   5.242   2.918   0.546 -0.4637  0.1780  0.7399
 1817TIP3    H227011   5.301   2.783   0.513 -0.1212  0.5605 -0.2630
 1818TIP3   OH227012   4.570   2.870   8.733  0.0327  0.1953 -0.2692
 1818TIP3    H127013   4.558   2.838   8.644  3.3687  0.2172 -0.8434
 1818TIP3    H227014   4.562   2.965   8.725  0.0307  0.1784 -0.4815
 1819TIP3   OH227015   4.480   3.622   8.606  0.0336 -0.0556 -0.3085
 1819TIP3    H127016   4.536   3.697   8.587  1.5063 -1.7139 -3.1211
 1819TIP3    H227017   4.422   3.615   8.531 -2.4821  0.1933  1.4732
 1820TIP3   OH227018   3.085   1.702   6.692  0.0501  0.9947 -0.4362
 1820TIP3    H127019   3.179   1.685   6.691 -0.2598 -1.1532 -3.1041
 1820TIP3    H227020   3.056   1.674   6.779  1.6554  0.3592 -0.0750
 1821TIP3   OH227021   0.148   5.673   8.841 -0.3035 -0.0474  0.6915
 1821TIP3    H127022   0.104   5.738   8.896  0.8766  0.6554  0.8464
 1821TIP3    H227023   0.218   5.638   8.896 -0.1307 -0.5376  0.1746
 1822TIP3   OH227024   3.754   0.711   0.768 -0.1549 -0.8886  0.4327
 1822TIP3    H127025   3.734   0.643   0.703  0.6020 -0.1241 -0.6361
 1822TIP3    H227026   3.673   0.720   0.818 -0.7738 -1.4871 -0.4140
 1823TIP3   OH227027   6.031   3.588   6.677  0.6298 -0.3631  0.1242
 1823TIP3    H127028   6.091   3.516   6.660  1.2395 -0.1874  1.4487
 1823TIP3    H227029   6.001   3.615   6.590  0.7648 -1.8752 -0.4228
 1824TIP3   OH227030   4.127   5.699   1.242 -0.0982 -0.3091 -0.0932
 1824TIP3    H127031   4.083   5.735   1.165 -1.4736 -1.7530 -0.0390
 1824TIP3    H227032   4.061   5.702   1.311  1.0123  0.6467  0.9850
 1825TIP3   OH227033   2.264   1.004   0.591 -0.3165 -0.2092 -0.6098
 1825TIP3    H127034   2.307   0.964   0.666  1.4016 -0.1758 -1.5224
 1825TIP3    H227035   2.202   1.067   0.629  0.3999 -0.2978  0.7617
 1826TIP3   OH227036   0.133   4.931   7.991  0.2026  0.2344 -0.1805
 1826TIP3    H127037   0.094   4.845   7.972 -3.1975  1.3495  1.1152
 1826TIP3    H227038   0.142   4.933   8.086 -1.2902  1.8652 -0.0346
 1827TIP3   OH227039   6.663   5.220   2.145 -0.5084 -0.7223  0.4117
 1827TIP3    H127040   6.740   5.272   2.121 -1.0791  0.1757  0.4826
 1827TIP3    H227041   6.686   5.131   2.118 -0.1936 -0.1603 -1.3431
 1828TIP3   OH227042   1.355   5.137   6.766  0.2822  0.5025  0.6498
 1828TIP3    H127043   1.304   5.178   6.836 -2.3678 -1.0063 -0.2609
 1828TIP3    H227044   1.290   5.113   6.700  2.2531 -1.1637 -0.8149
 1829TIP3   OH227045   1.978   0.911   1.743 -0.3577  0.7678  0.7051
 1829TIP3    H127046   1.887   0.928   1.769 -0.4616 -0.6642  1.3607
 1829TIP3    H227047   1.972   0.887   1.651 -0.5983  1.0954  0.6346
 1830TIP3   OH227048   1.617   5.163   8.831  0.2914 -0.6041 -0.2382
 1830TIP3    H127049   1.709   5.137   8.834  0.2665 -0.8371 -1.1885
 1830TIP3    H227050   1.568   5.081   8.838  0.1853 -0.6356 -1.1895
 1831TIP3   OH227051   5.067   2.787   0.802 -0.0402 -0.1368  0.3290
 1831TIP3    H127052   5.138   2.823   0.749 -0.6764 -0.1931 -0.5971
 1831TIP3    H227053   5.074   2.692   0.791 -1.1638 -0.0980 -1.0385
 1832TIP3   OH227054   5.852   5.910   8.759  0.3302 -0.0516  0.3813
 1832TIP3    H127055   5.915   5.854   8.804 -1.7710 -1.9002  1.2111
 1832TIP3    H227056   5.831   5.862   8.678  1.7354  1.7341 -1.1272
 1833TIP3   OH227057   2.970   0.253   8.434  0.3819 -0.4074  0.6144
 1833TIP3    H127058   2.917   0.310   8.378 -0.0478 -0.6532  0.7610
 1833TIP3    H227059   2.960   0.165   8.397 -0.4999 -0.6969  1.4780
 1834TIP3   OH227060   0.644   4.704   7.861  0.3816 -0.1937  0.3416
 1834TIP3    H127061   0.645   4.792   7.897  0.1296  0.0723 -0.2762
 1834TIP3    H227062   0.632   4.647   7.937  0.8032  0.2833  0.7740
 1835TIP3   OH227063   5.481   1.602   8.326 -0.5735 -0.0090  0.0908
 1835TIP3    H127064   5.537   1.537   8.284 -1.7769 -0.5957 -0.6203
 1835TIP3    H227065   5.543   1.666   8.363  0.5528 -0.4390 -0.9945
 1836TIP3   OH227066   4.882   5.758   7.629 -0.1176 -0.2972 -0.0977
 1836TIP3    H127067   4.852   5.667   7.632 -1.7304  0.2110  0.3110
 1836TIP3    H227068   4.858   5.788   7.541 -1.8915  0.4435  0.6126
 1837TIP3   OH227069   5.633   4.719   6.815 -0.0647 -0.4200 -1.2761
 1837TIP3    H127070   5.574   4.675   6.753 -2.1286  0.1907  0.1373
 1837TIP3    H227071   5.642   4.808   6.781 -0.5997 -0.2994 -1.1198
 1838TIP3   OH227072   2.424   0.969   1.170 -0.0396 -0.0369  0.1942
 1838TIP3    H127073   2.497   1.007   1.218  0.5348  1.0303 -1.4349
 1838TIP3    H227074   2.362   1.041   1.158  0.2150 -0.0537 -1.3563
 1839TIP3   OH227075   2.114   0.667   0.110 -0.1270 -0.3245 -0.1616
 1839TIP3    H127076   2.098   0.695   0.200 -1.3069 -0.8330 -0.1872
 1839TIP3    H227077   2.182   0.600   0.117  0.1440 -0.0093  0.2901
 1840TIP3   OH227078   6.296   3.668   8.494  0.5461  0.0162  0.5282
 1840TIP3    H127079   6.368   3.728   8.476  0.6039 -0.0332  0.5895
 1840TIP3    H227080   6.281   3.623   8.411  0.6620 -0.0536  0.5446
 1841TIP3   OH227081   0.315   5.711   7.135 -0.2674 -0.4224  0.0109
 1841TIP3    H127082   0.279   5.623   7.128  0.3595 -0.8957  2.0877
 1841TIP3    H227083   0.288   5.742   7.221 -0.6247  1.5125 -0.7512
 1842TIP3   OH227084   4.265   6.577   1.312 -0.6541  0.0975  0.4447
 1842TIP3    H127085   4.259   6.673   1.310 -0.1076  0.1437 -1.1288
 1842TIP3    H227086   4.186   6.547   1.268 -0.3596 -0.1222  0.0526
 1843TIP3   OH227087   5.388   5.862   7.244 -0.4181 -0.5888  0.2960
 1843TIP3    H127088   5.442   5.824   7.314 -0.1327  0.3353  0.5818
 1843TIP3    H227089   5.447   5.919   7.196 -1.2793  1.0462  1.0799
 1844TIP3   OH227090   4.292   1.064   7.777 -0.4300  0.1274  0.0920
 1844TIP3    H127091   4.214   1.108   7.744 -1.1549 -1.0410  0.1919
 1844TIP3    H227092   4.365   1.121   7.751 -1.1279  0.2227 -1.7862
 1845TIP3   OH227093   5.561   6.593   8.211 -0.1544  0.2569  0.0020
 1845TIP3    H127094   5.506   6.666   8.240  0.7638  1.4944 -1.1789
 1845TIP3    H227095   5.518   6.515   8.245 -0.3110  1.4057  2.7322
 1846TIP3   OH227096   5.287   6.304   7.621  0.3521  0.1348  0.3835
 1846TIP3    H127097   5.308   6.376   7.680 -1.3164  0.3984  0.7107
 1846TIP3    H227098   5.372   6.270   7.593  1.1781  0.4967  2.3106
 1847TIP3   OH227099   5.127   6.345   0.018  0.0350  0.4437  0.2528
 1847TIP3    H127100   5.129   6.257   0.056  0.3363  0.0930 -0.5416
 1847TIP3    H227101   5.036   6.357  -0.009  0.0273  0.2968  0.2085
 1848TIP3   OH227102   5.178   2.986   8.347  0.3778  0.2595  0.1988
 1848TIP3    H127103   5.176   2.891   8.352  1.6181  0.2267  0.5335
 1848TIP3    H227104   5.097   3.015   8.387 -0.2194 -0.6657 -0.3122
 1849TIP3   OH227105   1.642   1.137   7.041  0.5407  0.8766 -0.5299
 1849TIP3    H127106   1.732   1.140   7.074  0.6182  0.2418 -0.6711
 1849TIP3    H227107   1.588   1.152   7.119  0.6301 -2.9479  0.4476
 1850TIP3   OH227108   1.037   1.003   1.548  0.3083 -0.3368  0.4318
 1850TIP3    H127109   1.019   0.973   1.459 -0.6002  0.5756  0.2978
 1850TIP3    H227110   1.104   0.942   1.580  0.9195 -0.4671 -0.9943
 1851TIP3   OH227111   3.969   3.145   8.325 -0.3649 -0.1053  0.3718
 1851TIP3    H127112   3.997   3.209   8.259 -0.9960  2.4058  2.3993
 1851TIP3    H227113   3.875   3.137   8.312 -0.1526 -1.4534 -0.5085
 1852TIP3   OH227114   2.847   5.127   7.337  0.3442  0.4570 -0.0125
 1852TIP3    H127115   2.832   5.035   7.357 -0.9128  0.0863 -2.3349
 1852TIP3    H227116   2.941   5.133   7.320  0.7000 -0.0342  1.6135
 1853TIP3   OH227117   2.377   3.582   7.601 -0.3319 -0.0947  0.6375
 1853TIP3    H127118   2.454   3.528   7.584  0.7058  1.4351  0.2016
 1853TIP3    H227119   2.305   3.537   7.557  0.4994 -1.0935  0.2780
 1854TIP3   OH227120   4.789   3.618   7.908 -0.1121 -0.4824 -0.1448
 1854TIP3    H127121   4.836   3.537   7.926 -0.9229 -0.5722  1.6960
 1854TIP3    H227122   4.815   3.641   7.818  1.5255 -1.8007 -0.0499
 1855TIP3   OH227123   6.446   6.468   0.418 -0.5792  0.4599 -0.5361
 1855TIP3    H127124   6.416   6.410   0.488  0.8159  0.4872  0.1244
 1855TIP3    H227125   6.386   6.541   0.419 -1.9443 -0.6157 -0.8968
 1856TIP3   OH227126   5.396   1.934   0.339  0.1439 -0.7829  0.1066
 1856TIP3    H127127   5.419   1.844   0.363  0.7073 -0.8748 -0.7305
 1856TIP3    H227128   5.371   1.928   0.247 -0.7903 -0.2376  0.3123
 1857TIP3   OH227129   0.717   4.238   0.256  0.1944  0.4397  0.0586
 1857TIP3    H127130   0.662   4.207   0.328 -0.4294  0.8705 -0.2309
 1857TIP3    H227131   0.714   4.167   0.191 -1.7404  1.3318 -0.8785
 1858TIP3   OH227132   5.212   3.660   1.665  0.0039 -0.7116  0.3120
 1858TIP3    H127133   5.225   3.687   1.574 -0.0296 -1.5104  0.0576
 1858TIP3    H227134   5.119   3.635   1.670 -1.1910  3.2957  1.6652
 1859TIP3   OH227135   2.643   5.922   2.124 -0.4885  0.2157  0.7728
 1859TIP3    H127136   2.618   5.858   2.191  0.1587 -1.2006 -0.2788
 1859TIP3    H227137   2.658   6.003   2.173 -0.3655 -0.6828  2.2924
 1860TIP3   OH227138   1.285   0.235   8.520 -0.4468  0.1435  0.2183
 1860TIP3    H127139   1.363   0.289   8.507  0.4174 -1.2638 -0.6854
 1860TIP3    H227140   1.235   0.245   8.440  0.4084 -1.4292 -0.5609
 1861TIP3   OH227141   0.850   2.205   6.742  0.2262 -0.7044  0.5278
 1861TIP3    H127142   0.758   2.196   6.717  0.4491 -0.0900 -0.5631
 1861TIP3    H227143   0.883   2.279   6.691  1.7333 -1.8828 -0.3322
 1862TIP3   OH227144   4.030   2.300   8.761  0.2965  0.5968 -0.0891
 1862TIP3    H127145   3.991   2.323   8.845 -2.5032 -1.6912 -0.5802
 1862TIP3    H227146   4.094   2.232   8.782 -0.3141  0.1101  0.2504
 1863TIP3   OH227147   0.726   3.229   1.459 -0.1085 -0.4232 -0.0620
 1863TIP3    H127148   0.678   3.202   1.537 -1.9556  0.2554 -0.9166
 1863TIP3    H227149   0.809   3.182   1.466  0.6796  1.1583  3.3192
 1864TIP3   OH227150   1.553   6.103   2.344 -0.4430 -0.0992  0.2168
 1864TIP3    H127151   1.635   6.068   2.309 -1.8770 -2.4673 -0.9950
 1864TIP3    H227152   1.506   6.135   2.268 -1.0923  0.2807  0.7664
 1865TIP3   OH227153   6.611   3.560   0.552  0.0543 -0.0445 -0.1036
 1865TIP3    H127154   6.696   3.527   0.583  0.3338 -1.1622 -1.9264
 1865TIP3    H227155   6.623   3.572   0.458 -2.2799 -1.8298 -0.7064
 1866TIP3   OH227156   3.399   3.223   1.786  0.8072 -0.0375 -0.3828
 1866TIP3    H127157   3.369   3.142   1.828 -0.0735  1.0840  1.2656
 1866TIP3    H227158   3.382   3.210   1.693  0.1751 -1.5248 -0.0796
 1867TIP3   OH227159   5.086   4.590   2.159  0.3991 -0.0227  0.7269
 1867TIP3    H127160   5.056   4.500   2.169  0.7131 -0.2070  0.0514
 1867TIP3    H227161   5.010   4.637   2.125  0.2149 -0.0097  1.1437
 1868TIP3   OH227162   0.850   1.785   1.868 -0.3851 -0.1639  0.8300
 1868TIP3    H127163   0.810   1.746   1.790 -0.8050  1.1028  0.3858
 1868TIP3    H227164   0.944   1.783   1.849 -0.5490  1.3410 -0.3406
 1869TIP3   OH227165   4.425   3.444   7.250  0.2101 -0.0058  0.0610
 1869TIP3    H127166   4.433   3.351   7.231 -1.4722 -0.0734 -0.4698
 1869TIP3    H227167   4.434   3.487   7.165  2.1041  0.4518  0.4339
 1870TIP3   OH227168   4.954   5.781   1.499 -0.0473 -0.2221  0.2987
 1870TIP3    H127169   4.896   5.829   1.558  0.8028  0.7644  0.3429
 1870TIP3    H227170   5.005   5.724   1.556 -0.7593 -0.8827  0.2875
 1871TIP3   OH227171   6.575   1.606   0.548  0.2577 -0.3232  0.4340
 1871TIP3    H127172   6.653   1.569   0.590  0.8634  0.5744  0.1214
 1871TIP3    H227173   6.608   1.641   0.465 -0.8379 -1.7040 -0.6247
 1872TIP3   OH227174   1.931   0.143   0.268  0.0449 -0.7064 -0.2154
 1872TIP3    H127175   1.990   0.213   0.241 -0.3597 -0.1574  0.2863
 1872TIP3    H227176   1.957   0.122   0.357 -0.4617 -0.5151 -0.0188
 1873TIP3   OH227177   3.065   2.038   8.519 -0.6763 -0.2271 -0.6979
 1873TIP3    H127178   3.150   2.041   8.476 -0.7078  0.7799 -0.7137
 1873TIP3    H227179   3.015   2.109   8.478 -0.9896  0.2136  0.4024
 1874TIP3   OH227180   6.579   6.243   2.103 -0.2296 -0.4714 -0.0976
 1874TIP3    H127181   6.508   6.289   2.148  0.3219 -0.4050  0.7238
 1874TIP3    H227182   6.585   6.159   2.147  1.1975  0.1026  0.8889
 1875TIP3   OH227183   3.298   4.294   0.641  0.5618 -0.1751  0.2320
 1875TIP3    H127184   3.345   4.319   0.721  2.0961 -0.3298 -0.6013
 1875TIP3    H227185   3.266   4.205   0.659 -0.5914  0.4208  1.2954
 1876TIP3   OH227186   5.691   1.570   0.654  0.6471 -0.7146 -0.6384
 1876TIP3    H127187   5.752   1.640   0.677 -0.1851  0.3311 -1.5371
 1876TIP3    H227188   5.730   1.491   0.692  0.8109  0.4532  1.7630
 1877TIP3   OH227189   6.648   4.110   7.410 -0.1794  0.4616  0.1781
 1877TIP3    H127190   6.631   4.179   7.474 -1.5142  0.9378 -0.6367
 1877TIP3    H227191   6.566   4.061   7.407  0.3325 -0.3939 -0.1890
 1878TIP3   OH227192   4.989   5.628   0.312 -0.3178  0.1375 -0.6667
 1878TIP3    H127193   4.942   5.698   0.269 -0.3397  0.0506 -0.7833
 1878TIP3    H227194   4.922   5.562   0.332 -0.2439  0.0082 -0.8442
 1879TIP3   OH227195   6.168   4.259   1.043  0.4802  0.0217  0.1376
 1879TIP3    H127196   6.180   4.274   1.137  0.7487 -0.5261  0.1940
 1879TIP3    H227197   6.146   4.345   1.008 -1.3597 -0.0705  0.9667
 1880TIP3   OH227198   3.319   6.140   7.705 -0.1373 -0.5691 -0.1269
 1880TIP3    H127199   3.267   6.076   7.754  1.4892  0.3235  3.0449
 1880TIP3    H227200   3.410   6.112   7.717  0.4490  0.7108 -1.2016
 1881TIP3   OH227201   4.007   5.551   2.221 -0.3453  0.1071  1.3519
 1881TIP3    H127202   3.979   5.613   2.153 -0.0104  0.0330  1.1407
 1881TIP3    H227203   4.082   5.594   2.263  0.7908 -0.7408  0.2682
 1882TIP3   OH227204   6.210   2.433   0.842  0.2616  0.0018  0.5488
 1882TIP3    H127205   6.182   2.493   0.774 -1.9848 -0.2425  1.1901
 1882TIP3    H227206   6.278   2.379   0.800 -0.2632  0.5883 -1.1256
 1883TIP3   OH227207   4.054   1.743   0.141 -0.2839 -0.1150 -0.0663
 1883TIP3    H127208   4.106   1.733   0.220  0.4734  0.5396 -0.4620
 1883TIP3    H227209   4.117   1.734   0.069 -0.6625  0.9117 -0.5546
 1884TIP3   OH227210   1.892   4.229   0.880 -0.5844  0.7687  0.2366
 1884TIP3    H127211   1.956   4.274   0.826 -0.3987 -0.9455 -1.0441
 1884TIP3    H227212   1.939   4.206   0.961 -0.5276  2.2926  0.6564
 1885TIP3   OH227213   0.503   1.885   7.195 -0.5857 -0.0628 -0.0492
 1885TIP3    H127214   0.574   1.932   7.238  0.9503 -0.2707 -2.1828
 1885TIP3    H227215   0.536   1.795   7.186  0.1386  0.3920 -3.3825
 1886TIP3   OH227216   4.200   4.874   0.754  0.0105 -0.3184  0.1683
 1886TIP3    H127217   4.119   4.889   0.706  0.2875 -1.3767 -0.6784
 1886TIP3    H227218   4.253   4.953   0.740 -0.4381 -0.0784 -0.1767
 1887TIP3   OH227219   0.110   3.225   1.984 -0.1946 -0.1976 -0.3046
 1887TIP3    H127220   0.022   3.188   1.971  0.6947 -2.3941 -0.5499
 1887TIP3    H227221   0.102   3.279   2.063 -1.5729 -1.1375  0.2407
 1888TIP3   OH227222   4.348   3.987   1.083 -0.3772  0.2000 -0.2166
 1888TIP3    H127223   4.296   4.054   1.038 -0.0219  0.4128 -0.3074
 1888TIP3    H227224   4.380   4.030   1.162  1.3047  0.6963 -1.1251
 1889TIP3   OH227225   5.939   6.665   0.917 -0.0446 -0.0026 -0.0778
 1889TIP3    H127226   5.891   6.608   0.978 -2.0875  1.0707 -0.6053
 1889TIP3    H227227   6.026   6.625   0.911 -0.6983 -1.7754  1.2906
 1890TIP3   OH227228   6.567   0.441   2.351  0.2812  0.1224  0.2197
 1890TIP3    H127229   6.480   0.428   2.314  0.0181  2.4923 -0.1643
 1890TIP3    H227230   6.558   0.415   2.443 -0.3705 -1.1850 -0.1926
 1891TIP3   OH227231   4.864   4.866   0.829  0.0981 -1.0194  0.0134
 1891TIP3    H127232   4.864   4.828   0.741 -2.0086  2.0508 -1.4837
 1891TIP3    H227233   4.935   4.930   0.828  1.0060 -1.9644  1.1119
 1892TIP3   OH227234   1.915   5.298   0.436 -0.1758  0.3060 -0.1145
 1892TIP3    H127235   1.862   5.309   0.515 -0.4940  0.9128 -0.4119
 1892TIP3    H227236   1.998   5.342   0.457 -0.7996  1.7821 -0.6510
 1893TIP3   OH227237   4.487   3.082   0.390  0.4120  0.0622 -0.5354
 1893TIP3    H127238   4.550   3.103   0.321 -0.0439  0.4587 -0.8446
 1893TIP3    H227239   4.510   2.994   0.419  2.2390  0.8676  0.6247
 1894TIP3   OH227240   4.028   0.452   1.017  0.6468  0.6905  0.3450
 1894TIP3    H127241   4.061   0.377   1.066  0.4922  0.1485 -0.3504
 1894TIP3    H227242   4.101   0.477   0.960  0.1766  0.0254 -0.5863
 1895TIP3   OH227243   5.889   2.900   7.646  0.3299  0.0779 -0.2384
 1895TIP3    H127244   5.875   2.899   7.551  0.3600  1.0422 -0.2652
 1895TIP3    H227245   5.943   2.978   7.662 -1.5746  1.2877  0.8015
 1896TIP3   OH227246   0.658   0.846   2.232  0.4843  0.2935  0.5933
 1896TIP3    H127247   0.577   0.823   2.277 -1.0830  0.8959 -1.7461
 1896TIP3    H227248   0.679   0.934   2.262 -0.0768  0.3707  0.7583
 1897TIP3   OH227249   1.389   1.443   1.163 -0.2679 -0.3882 -0.1142
 1897TIP3    H127250   1.362   1.532   1.185  0.3937 -0.4556  1.0661
 1897TIP3    H227251   1.474   1.433   1.206  0.4238 -1.0494 -1.5772
 1898TIP3   OH227252   5.442   3.096   0.624  0.0310  0.0022  0.0562
 1898TIP3    H127253   5.486   3.166   0.672  0.1009 -0.5479  0.8058
 1898TIP3    H227254   5.507   3.064   0.562  0.0831  0.4183 -0.1082
 1899TIP3   OH227255   4.116   0.612   8.181  0.0517 -0.6219  0.9708
 1899TIP3    H127256   4.064   0.609   8.101 -0.3820  1.0814  1.1573
 1899TIP3    H227257   4.204   0.584   8.153 -0.3172 -0.9586  0.1112
 1900TIP3   OH227258   6.291   4.938   0.558 -0.3709  0.2624 -0.1195
 1900TIP3    H127259   6.381   4.906   0.567 -0.7641 -0.7400  0.3227
 1900TIP3    H227260   6.285   4.963   0.466  0.1127 -0.4609 -0.3601
 1901TIP3   OH227261   5.864   1.439   1.354 -0.4849 -0.3736 -0.2110
 1901TIP3    H127262   5.822   1.368   1.306 -1.4772 -0.0169  0.1088
 1901TIP3    H227263   5.849   1.418   1.446 -0.6371  0.1588 -0.1115
 1902TIP3   OH227264   0.533   6.383   0.845 -0.0131  0.4897  0.0729
 1902TIP3    H127265   0.506   6.460   0.794 -0.8209  0.0698 -0.1428
 1902TIP3    H227266   0.472   6.314   0.820 -0.3352  0.2279  1.4824
 1903TIP3   OH227267   0.250   5.929   1.349  0.7357 -0.1799 -0.0640
 1903TIP3    H127268   0.233   5.853   1.293 -0.4960  0.8340 -1.1228
 1903TIP3    H227269   0.231   5.898   1.437 -1.0151 -0.7861 -0.6076
 1904TIP3   OH227270   5.934   5.900   7.614  0.0163 -0.1047 -0.3212
 1904TIP3    H127271   5.988   5.914   7.536  0.4683 -1.7753 -0.3421
 1904TIP3    H227272   5.974   5.825   7.658 -1.2890 -0.3045  0.5751
 1905TIP3   OH227273   5.660   4.707   8.173  0.2482  0.3084 -0.0206
 1905TIP3    H127274   5.695   4.620   8.157  0.5145  0.5124 -0.5799
 1905TIP3    H227275   5.649   4.712   8.268 -1.3213 -0.9266 -0.1007
 1906TIP3   OH227276   4.563   1.387   8.573  0.1735 -0.0324 -0.3952
 1906TIP3    H127277   4.615   1.335   8.634 -0.8623  0.4059  0.9340
 1906TIP3    H227278   4.496   1.326   8.541  1.2624 -0.5079 -1.8472
 1907TIP3   OH227279   1.006   4.695   0.350  0.1584 -0.5360 -0.0146
 1907TIP3    H127280   1.011   4.775   0.297 -0.8745 -0.3183  0.2158
 1907TIP3    H227281   1.021   4.625   0.287 -0.6711 -0.2550 -0.5362
 1908TIP3   OH227282   0.666   0.651   8.096 -0.0128 -0.2491 -0.1069
 1908TIP3    H127283   0.703   0.669   8.182  0.0088 -0.5397 -0.0561
 1908TIP3    H227284   0.591   0.710   8.089  0.3540  0.2192 -0.1420
 1909TIP3   OH227285   1.274   2.573   0.874  0.0153 -0.4920  0.3144
 1909TIP3    H127286   1.231   2.489   0.889  0.6096 -0.9949 -0.6828
 1909TIP3    H227287   1.293   2.575   0.780  0.0850  0.7239  0.3291
 1910TIP3   OH227288   0.306   2.075   0.926 -0.1250  0.0545  0.1545
 1910TIP3    H127289   0.249   1.999   0.913  0.3760 -0.3293  0.1347
 1910TIP3    H227290   0.367   2.071   0.853 -2.0297  2.3224 -1.7238
 1911TIP3   OH227291   5.739   2.343   0.812  0.4047  0.1408  0.4686
 1911TIP3    H127292   5.717   2.435   0.824  1.1615  0.3018  0.7232
 1911TIP3    H227293   5.752   2.333   0.718  1.1017  0.4890  0.5210
 1912TIP3   OH227294   0.510   4.945   8.444 -0.5219  0.7409 -0.0976
 1912TIP3    H127295   0.471   4.882   8.384  0.2579 -0.6070  0.7596
 1912TIP3    H227296   0.489   4.911   8.531 -0.5596  1.9757  0.3996
 1913TIP3   OH227297   6.358   4.195   1.550  0.0143  0.3019  0.3272
 1913TIP3    H127298   6.361   4.101   1.569 -2.5810  0.1358  0.2359
 1913TIP3    H227299   6.344   4.236   1.636  1.4388  0.6735  0.4086
 1914TIP3   OH227300   4.882   2.848   7.138 -0.1607 -0.4764  0.1157
 1914TIP3    H127301   4.951   2.839   7.204  1.5852 -0.5507 -1.6002
 1914TIP3    H227302   4.901   2.779   7.074 -0.3027  1.0667 -1.6682
 1915TIP3   OH227303   1.213   1.625   0.963 -0.4663  0.0304 -0.3098
 1915TIP3    H127304   1.122   1.649   0.980 -1.0048 -0.8378 -1.8066
 1915TIP3    H227305   1.237   1.674   0.884 -0.3203 -1.2740 -1.1092
 1916TIP3   OH227306   4.566   2.451   2.201  0.2813  0.1967 -0.1043
 1916TIP3    H127307   4.611   2.371   2.174  0.1277 -0.0063  0.2499
 1916TIP3    H227308   4.580   2.457   2.295 -0.1665  0.3027 -0.0426
 1917TIP3   OH227309   4.547   4.559   1.646  0.6823  0.0700  0.0018
 1917TIP3    H127310   4.490   4.511   1.586  1.7768 -0.6690 -0.4857
 1917TIP3    H227311   4.511   4.648   1.648 -0.7570 -0.4894  0.0969
 1918TIP3   OH227312   3.176   0.352   1.005 -0.6570 -0.4262  0.0029
 1918TIP3    H127313   3.100   0.294   0.997 -1.2613  0.0447  1.7308
 1918TIP3    H227314   3.216   0.327   1.088  0.0509  0.5069 -0.0385
 1919TIP3   OH227315   4.469   0.297   8.202  0.0822 -0.2521 -0.4294
 1919TIP3    H127316   4.559   0.270   8.183  0.6437  0.3256  1.2295
 1919TIP3    H227317   4.456   0.377   8.152  1.2350  0.7948  0.8748
 1920TIP3   OH227318   2.226   2.716   0.086 -0.1546  0.0750 -0.4322
 1920TIP3    H127319   2.202   2.705   0.178 -1.6345  1.3619 -0.6183
 1920TIP3    H227320   2.232   2.810   0.074 -0.7245 -0.0372 -1.8223
 1921TIP3   OH227321   4.573   5.462   7.617  0.3453  0.4006 -0.0027
 1921TIP3    H127322   4.571   5.378   7.570  0.3488  0.8321 -0.7827
 1921TIP3    H227323   4.499   5.457   7.677 -0.4843  0.3774 -0.9994
 1922TIP3   OH227324   6.698   4.910   7.773  0.1997  0.3537  0.5566
 1922TIP3    H127325   6.720   4.870   7.689  1.8817  1.1007  0.5871
 1922TIP3    H227326   6.617   4.867   7.800 -0.0067 -0.3874 -1.1118
 1923TIP3   OH227327   1.219   1.167   2.196  0.3418 -0.1227  0.4322
 1923TIP3    H127328   1.215   1.228   2.270 -1.6629 -0.3924  0.6019
 1923TIP3    H227329   1.238   1.082   2.235 -1.4465 -0.4030  0.7842
 1924TIP3   OH227330   4.157   0.998   1.764 -0.4158  0.2649 -0.3586
 1924TIP3    H127331   4.247   0.987   1.798 -0.0729  0.7227 -1.0982
 1924TIP3    H227332   4.102   0.987   1.841  0.1435 -1.9322 -0.1929
 1925TIP3   OH227333   6.263   4.827   1.322 -0.2590  0.0555 -0.9478
 1925TIP3    H127334   6.213   4.792   1.396  0.5313  2.1645  0.6614
 1925TIP3    H227335   6.350   4.787   1.331 -0.7804 -1.4621 -2.1441
 1926TIP3   OH227336   5.050   2.210   8.012  0.3776  0.4638 -0.1960
 1926TIP3    H127337   5.090   2.157   7.944  1.2376 -1.6626  1.8220
 1926TIP3    H227338   5.124   2.244   8.063 -0.2447  0.2455  0.9016
 1927TIP3   OH227339   3.008   2.087   2.706 -0.9583 -0.0084  0.6611
 1927TIP3    H127340   3.035   2.179   2.702  0.8365 -0.5415 -2.7816
 1927TIP3    H227341   3.061   2.049   2.776  0.8835  0.8951 -0.1804
 1928TIP3   OH227342   6.431   0.968   0.839 -0.1021  0.0164  0.1666
 1928TIP3    H127343   6.351   0.980   0.890 -1.0325 -1.6986 -0.7821
 1928TIP3    H227344   6.452   0.875   0.849  0.3778 -0.0937 -1.5623
 1929TIP3   OH227345   1.101   3.951   0.450  0.0124  0.4788  0.7059
 1929TIP3    H127346   1.031   3.887   0.464 -0.3175  0.3253 -1.3099
 1929TIP3    H227347   1.055   4.033   0.432  0.4252  1.1108  2.3594
 1930TIP3   OH227348   0.081   5.329   1.606 -0.1782 -0.5110 -0.4271
 1930TIP3    H127349   0.120   5.255   1.560  1.2771 -0.2635  0.3585
 1930TIP3    H227350   0.066   5.297   1.695  2.3686  0.6831  0.5106
 1931TIP3   OH227351   0.239   1.385   1.811  0.5390  0.4485  0.1005
 1931TIP3    H127352   0.251   1.290   1.807 -0.1903  0.3815 -1.1572
 1931TIP3    H227353   0.176   1.403   1.741 -0.3917  1.6894  1.2090
 1932TIP3   OH227354   1.077   1.425   7.974 -1.1873 -0.3271 -0.0795
 1932TIP3    H127355   1.073   1.338   8.014  0.5421 -0.9729 -1.1552
 1932TIP3    H227356   1.069   1.408   7.880 -1.9699  0.8106 -0.2337
 1933TIP3   OH227357   2.072   1.864   1.226  0.2952 -0.5117  0.1493
 1933TIP3    H127358   2.142   1.926   1.204 -1.5528  0.9327 -2.2158
 1933TIP3    H227359   2.042   1.892   1.312  1.6285 -0.2091  0.5435
 1934TIP3   OH227360   0.507   3.256   7.353 -0.0294 -0.2719  0.3278
 1934TIP3    H127361   0.520   3.193   7.424 -0.8196 -0.3652  0.3975
 1934TIP3    H227362   0.555   3.219   7.279  1.6029  0.2955  1.0583
 1935TIP3   OH227363   4.695   4.259   7.942 -0.4156 -0.1839  0.6103
 1935TIP3    H127364   4.724   4.291   8.027  2.4248 -1.6752  0.3353
 1935TIP3    H227365   4.682   4.165   7.955 -0.3631 -0.3631 -0.5071
 1936TIP3   OH227366   1.195   6.225   6.833 -0.7203  0.3261  0.0323
 1936TIP3    H127367   1.265   6.265   6.780 -0.0190 -1.3310 -0.3623
 1936TIP3    H227368   1.187   6.137   6.798 -1.0153 -0.4527  1.9763
 1937TIP3   OH227369   3.503   1.881   6.978  0.5290  0.3884  0.2171
 1937TIP3    H127370   3.494   1.789   6.953 -1.4358  0.7846 -0.7001
 1937TIP3    H227371   3.415   1.917   6.970  1.2413  2.3467  0.6339
 1938TIP3   OH227372   1.443   6.687   1.561 -0.2309 -0.2950  0.0422
 1938TIP3    H127373   1.357   6.651   1.583  0.7183 -1.6865  1.6827
 1938TIP3    H227374   1.475   6.725   1.643  0.9628 -0.3131 -0.3997
 1939TIP3   OH227375   4.279   5.289   7.501  0.2037 -0.1233 -0.5817
 1939TIP3    H127376   4.278   5.315   7.593  1.0334 -0.6609 -0.4128
 1939TIP3    H227377   4.188   5.265   7.482  0.0475 -0.0989  0.1175
 1940TIP3   OH227378   0.047   1.523   7.402 -0.1039  0.5638  0.4040
 1940TIP3    H127379   0.076   1.536   7.493  0.9005  0.2337  0.1463
 1940TIP3    H227380   0.069   1.604   7.358 -0.7371  0.7836  0.4822
 1941TIP3   OH227381   3.614   1.766   0.463 -0.0788 -0.0028 -0.1194
 1941TIP3    H127382   3.565   1.688   0.438 -0.4389  0.3043 -0.4010
 1941TIP3    H227383   3.665   1.788   0.385 -0.2590  0.2491 -0.1693
 1942TIP3   OH227384   3.048   4.423   2.219 -0.0986  0.5026 -0.3046
 1942TIP3    H127385   3.124   4.368   2.201 -0.1613  0.2696  0.1377
 1942TIP3    H227386   2.978   4.361   2.242 -0.3666  0.7256 -0.5131
 1943TIP3   OH227387   3.169   2.222   1.803  0.2044 -0.3388 -0.6426
 1943TIP3    H127388   3.226   2.243   1.876  0.6734 -1.1126 -0.7788
 1943TIP3    H227389   3.082   2.215   1.842  0.4812 -0.9550 -0.1167
 1944TIP3   OH227390   1.012   3.395   1.063  0.3148 -0.1950  0.3678
 1944TIP3    H127391   0.954   3.471   1.054 -0.3837 -0.8246 -0.5869
 1944TIP3    H227392   0.998   3.365   1.153 -2.8200 -1.8611 -0.5559
 1945TIP3   OH227393   1.343   2.465   6.434  0.6630  0.2458 -0.5080
 1945TIP3    H127394   1.423   2.511   6.458  1.3595 -1.3332  0.2885
 1945TIP3    H227395   1.274   2.508   6.485  1.3956  0.0342  0.7004
 1946TIP3   OH227396   0.709   6.080   8.169  0.0124  1.1400  0.1885
 1946TIP3    H127397   0.657   6.006   8.138  1.3360  0.0879  0.3773
 1946TIP3    H227398   0.702   6.146   8.100 -2.0726  1.3092  0.5129
 1947TIP3   OH227399   2.211   3.035   1.107  0.1446  0.1874 -0.1907
 1947TIP3    H127400   2.296   2.992   1.091  0.5049  1.2947 -1.4060
 1947TIP3    H227401   2.147   2.973   1.072  0.5958  0.2389 -1.1283
 1948TIP3   OH227402   6.748   2.599   2.355  0.2758  0.0701 -0.2735
 1948TIP3    H127403   6.708   2.631   2.436  0.1546 -2.3580  0.7338
 1948TIP3    H227404   6.685   2.535   2.321  2.0163 -1.7924 -0.1481
 1949TIP3   OH227405   5.314   3.018   2.344 -0.4005 -0.3754 -0.0357
 1949TIP3    H127406   5.293   3.023   2.438  1.3774  0.4430  0.3612
 1949TIP3    H227407   5.407   2.995   2.342 -0.2167  0.3867 -1.5846
 1950TIP3   OH227408   2.927   1.683   2.596  0.5731  0.1133 -0.2677
 1950TIP3    H127409   2.988   1.628   2.547  4.2388  1.4123  2.4518
 1950TIP3    H227410   2.933   1.769   2.554  1.2939  0.4446  0.4913
 1951TIP3   OH227411   4.076   1.015   8.826 -0.4275 -0.2652  0.3984
 1951TIP3    H127412   4.120   1.099   8.813 -1.1226 -0.0555 -0.7231
 1951TIP3    H227413   4.129   0.951   8.779 -1.2497 -0.0189 -0.9192
 1952TIP3   OH227414   3.900   5.711   1.423  0.1788 -0.4992 -0.5207
 1952TIP3    H127415   3.910   5.772   1.496  0.4388 -1.2205  0.0527
 1952TIP3    H227416   3.806   5.693   1.419  0.0526  0.2427 -0.9435
 1953TIP3   OH227417   4.678   1.158   8.675 -0.3501 -0.4926  0.3743
 1953TIP3    H127418   4.673   1.144   8.770  0.4170 -0.4445  0.4240
 1953TIP3    H227419   4.642   1.078   8.638  0.8464 -1.1973  0.6953
 1954TIP3   OH227420   5.107   5.415   2.088 -0.2603  0.6606 -0.1400
 1954TIP3    H127421   5.086   5.342   2.146  1.4198  1.4416  1.5497
 1954TIP3    H227422   5.022   5.442   2.052 -1.1459 -0.8785  0.6781
 1955TIP3   OH227423   0.862   6.124   1.342  0.1762  0.0290  0.4546
 1955TIP3    H127424   0.917   6.103   1.418 -0.1384 -1.5476  0.2740
 1955TIP3    H227425   0.810   6.045   1.327  0.1248  0.3585 -1.3113
 1956TIP3   OH227426   4.521   5.014   1.897  0.0715  0.0678  0.1167
 1956TIP3    H127427   4.603   4.972   1.924  0.1533  0.3056  0.2381
 1956TIP3    H227428   4.454   4.973   1.952 -0.1888 -1.5747 -1.3557
 1957TIP3   OH227429   3.156   3.644   6.954  0.3504 -0.2738  0.2642
 1957TIP3    H127430   3.173   3.664   6.861  0.2896  1.3174  0.5606
 1957TIP3    H227431   3.240   3.615   6.988 -0.3399 -4.5107 -1.0537
 1958TIP3   OH227432   2.466   4.760   1.039 -0.1415  0.3232  0.5800
 1958TIP3    H127433   2.446   4.821   0.968 -1.8935  0.5352  1.2051
 1958TIP3    H227434   2.488   4.678   0.994  1.2583  1.1209 -0.2444
 1959TIP3   OH227435   1.821   5.790   1.607  0.8341  0.4755 -0.5411
 1959TIP3    H127436   1.743   5.841   1.630 -0.2500 -1.7476  1.0342
 1959TIP3    H227437   1.891   5.855   1.599 -1.0693  2.5085 -1.7048
 1960TIP3   OH227438   5.797   4.821   0.804 -0.2593 -0.4412  0.7959
 1960TIP3    H127439   5.844   4.904   0.803  0.8697 -1.0644 -0.3372
 1960TIP3    H227440   5.741   4.824   0.726  2.2394 -2.0194 -1.2362
 1961TIP3   OH227441   2.458   5.450   6.287  0.1159  0.0111 -0.3632
 1961TIP3    H127442   2.541   5.408   6.309  0.0316 -0.7940 -1.5109
 1961TIP3    H227443   2.483   5.525   6.233  0.0943 -0.4304 -1.0008
 1962TIP3   OH227444   5.427   4.909   0.659 -0.0832  0.3214  0.3793
 1962TIP3    H127445   5.477   4.883   0.581 -1.4304 -0.0204 -0.4045
 1962TIP3    H227446   5.438   4.836   0.720  0.5080  0.3311  0.2901
 1963TIP3   OH227447   3.896   1.102   2.929 -0.1767 -0.3692 -0.1450
 1963TIP3    H127448   3.890   1.015   2.890 -1.1670  0.0955 -1.0918
 1963TIP3    H227449   3.806   1.124   2.954  0.1396  0.1762  0.5408
 1964TIP3   OH227450   4.829   2.638   1.023 -0.1954  0.1466  0.3072
 1964TIP3    H127451   4.802   2.626   1.114  0.0389 -0.3852  0.3114
 1964TIP3    H227452   4.868   2.554   0.999 -0.1495  0.3256 -0.2470
 1965TIP3   OH227453   2.405   3.008   1.669 -0.5650  0.5016  0.4231
 1965TIP3    H127454   2.478   3.019   1.608 -1.7710 -1.7250 -1.5654
 1965TIP3    H227455   2.344   3.078   1.645 -1.3074 -0.7058 -1.4915
 1966TIP3   OH227456   2.410   6.474   7.638 -0.3372  0.3377  0.0456
 1966TIP3    H127457   2.391   6.549   7.695 -0.5580  0.9737 -0.8432
 1966TIP3    H227458   2.460   6.414   7.693 -0.7723  0.8168  0.9863
 1967TIP3   OH227459   2.932   1.021   7.334  0.0735 -0.5209  0.3788
 1967TIP3    H127460   2.945   0.975   7.252 -1.8909  1.7866 -1.4024
 1967TIP3    H227461   3.018   1.056   7.356  0.2772  0.7261 -2.0268
 1968TIP3   OH227462   4.966   5.351   1.048 -0.2054 -0.6108  0.0450
 1968TIP3    H127463   5.053   5.375   1.079  0.4110  1.4831 -2.8014
 1968TIP3    H227464   4.982   5.285   0.980 -0.7812 -0.0976 -0.6084
 1969TIP3   OH227465   5.216   1.405   0.701 -0.5221 -0.3891  0.1404
 1969TIP3    H127466   5.282   1.363   0.646 -0.0551 -1.1785  1.2619
 1969TIP3    H227467   5.133   1.374   0.666 -0.2289 -1.0003 -0.0260
 1970TIP3   OH227468   4.183   3.120   0.992  0.0722 -0.6322 -0.1606
 1970TIP3    H127469   4.139   3.126   0.908  0.7927  0.8914 -0.4561
 1970TIP3    H227470   4.202   3.210   1.016  2.6185 -1.1711  0.1627
 1971TIP3   OH227471   2.035   5.352   1.361 -0.4861 -0.4707  0.1835
 1971TIP3    H127472   1.994   5.353   1.448 -1.0089 -0.8516 -0.0619
 1971TIP3    H227473   1.977   5.406   1.307  0.5763  0.9558  0.3949
 1972TIP3   OH227474   4.903   0.163   7.235 -0.7684  0.5064 -0.4039
 1972TIP3    H127475   4.991   0.171   7.200  0.1392  0.2698  1.6706
 1972TIP3    H227476   4.879   0.072   7.222 -0.3271  0.3542 -0.1640
 1973TIP3   OH227477   5.711   0.921   6.607 -0.2605  0.0826  0.5191
 1973TIP3    H127478   5.619   0.904   6.624 -0.0473 -0.7899  0.8433
 1973TIP3    H227479   5.757   0.881   6.680  0.5534 -1.9284 -1.0081
 1974TIP3   OH227480   4.755   4.523   0.593 -0.1249 -0.2996 -0.7313
 1974TIP3    H127481   4.849   4.541   0.589  0.0209 -0.5895  0.8402
 1974TIP3    H227482   4.749   4.428   0.597 -0.4839 -0.2830 -0.8721
 1975TIP3   OH227483   0.812   1.547   0.711  0.0670 -0.3982  0.0846
 1975TIP3    H127484   0.733   1.591   0.742  0.9899  1.1236  0.3707
 1975TIP3    H227485   0.790   1.517   0.623 -0.7245  0.2841  0.0367
 1976TIP3   OH227486   5.585   4.931   7.045 -0.2408 -0.3929 -0.2460
 1976TIP3    H127487   5.578   4.858   6.984  2.9705 -0.3656 -0.8035
 1976TIP3    H227488   5.535   5.002   7.003 -1.1243 -1.4305 -1.0019
 1977TIP3   OH227489   4.771   3.841   7.671 -0.0682  0.5360 -0.0838
 1977TIP3    H127490   4.817   3.762   7.641 -0.1950 -0.0502  1.2240
 1977TIP3    H227491   4.812   3.912   7.622 -0.7290 -0.4300 -2.1718
 1978TIP3   OH227492   1.265   0.321   7.358 -0.1432 -0.0517 -0.4797
 1978TIP3    H127493   1.254   0.281   7.272  2.2785 -1.0266 -0.4104
 1978TIP3    H227494   1.327   0.264   7.404  1.6687  2.4974  0.4947
 1979TIP3   OH227495   5.816   3.500   7.314  0.1551  0.1958  0.2070
 1979TIP3    H127496   5.907   3.504   7.284  0.5137 -0.6309  1.1347
 1979TIP3    H227497   5.803   3.408   7.339 -0.8433  0.3721  0.3673
 1980TIP3   OH227498   6.425   2.113   0.929 -0.0882 -0.5389  0.2502
 1980TIP3    H127499   6.476   2.096   0.850 -1.2490 -1.4116 -0.3437
 1980TIP3    H227500   6.484   2.093   1.002  0.9380  0.1082 -0.3940
 1981TIP3   OH227501   4.268   1.439   1.281  0.1850 -0.3382  0.3403
 1981TIP3    H127502   4.274   1.344   1.285 -1.2537 -0.4633  0.2180
 1981TIP3    H227503   4.347   1.467   1.236  0.4388 -1.5070  0.0389
 1982TIP3   OH227504   3.356   5.537   8.808 -0.3797  0.1670  0.2782
 1982TIP3    H127505   3.264   5.532   8.834 -0.5350  0.4831 -0.2051
 1982TIP3    H227506   3.357   5.504   8.718  0.0797 -0.4567  0.4990
 1983TIP3   OH227507   4.596   6.646   7.398  0.0686 -0.0547 -0.4848
 1983TIP3    H127508   4.607   6.712   7.467  3.9058 -0.8491 -0.1334
 1983TIP3    H227509   4.578   6.697   7.319 -1.3537  1.0624  0.5092
 1984TIP3   OH227510   6.632   0.054   6.716  0.4905  0.2791 -0.3505
 1984TIP3    H127511   6.687  -0.005   6.664  0.7901  0.7537 -0.5809
 1984TIP3    H227512   6.552   0.005   6.732  0.6800 -0.1356 -0.6648
 1985TIP3   OH227513   2.216   0.065   1.631  0.3187 -0.6112  0.3590
 1985TIP3    H127514   2.145   0.073   1.695 -1.2382 -0.5707 -1.2713
 1985TIP3    H227515   2.222   0.153   1.592  0.0869 -1.0357 -0.6669
 1986TIP3   OH227516   6.074   3.398   8.373 -0.2883 -0.2073  0.3789
 1986TIP3    H127517   6.020   3.413   8.451  0.6100  2.0194  0.6274
 1986TIP3    H227518   6.055   3.472   8.315  1.1329 -0.3525 -0.3180
 1987TIP3   OH227519   4.289   0.677   8.498 -0.1592  0.2791 -0.0169
 1987TIP3    H127520   4.200   0.643   8.490  0.2798 -0.8002 -0.4874
 1987TIP3    H227521   4.346   0.601   8.483  0.8438  0.4994  2.1870
 1988TIP3   OH227522   1.854   0.431   0.171 -0.4007 -0.6197  0.2138
 1988TIP3    H127523   1.829   0.396   0.256  1.1477  0.4493  1.1604
 1988TIP3    H227524   1.948   0.413   0.164 -0.2726  0.3122 -0.7644
 1989TIP3   OH227525   4.575   5.673   8.871 -0.3851 -0.8035 -0.1515
 1989TIP3    H127526   4.645   5.650   8.932  1.3975  0.8351 -1.4715
 1989TIP3    H227527   4.606   5.644   8.786 -1.2107  0.1539 -0.8030
 1990TIP3   OH227528   0.764   1.271   8.787 -0.1279  0.2091 -0.2988
 1990TIP3    H127529   0.760   1.244   8.695  1.5595  0.4802 -0.4740
 1990TIP3    H227530   0.729   1.196   8.835 -1.6914  0.3304 -1.1814
 1991TIP3   OH227531   3.369   1.502   0.886  0.3821 -0.0166 -0.1733
 1991TIP3    H127532   3.459   1.488   0.856  0.0019 -2.2293 -0.4764
 1991TIP3    H227533   3.355   1.433   0.951 -1.5178 -0.6504 -1.1682
 1992TIP3   OH227534   0.177   5.120   0.716  0.1776 -0.7368  0.3005
 1992TIP3    H127535   0.136   5.039   0.746 -1.2151  0.2321  1.1599
 1992TIP3    H227536   0.193   5.170   0.796 -2.2687  1.2966 -0.3472
 1993TIP3   OH227537   2.510   6.659   8.087 -0.2482 -0.2013  0.4561
 1993TIP3    H127538   2.461   6.683   8.165 -1.6678 -0.2363 -0.4012
 1993TIP3    H227539   2.446   6.663   8.016  1.0264 -0.0849 -0.7253
 1994TIP3   OH227540   6.000   6.365   1.320  0.0834  0.3478 -0.0253
 1994TIP3    H127541   5.911   6.364   1.356 -0.6508 -0.3119 -1.7572
 1994TIP3    H227542   6.029   6.273   1.325  0.1777  0.3430 -0.6180
 1995TIP3   OH227543   3.223   3.024   6.202  0.7250  0.1238  0.0076
 1995TIP3    H127544   3.130   3.046   6.200  0.5747 -0.5449 -0.5078
 1995TIP3    H227545   3.257   3.073   6.277 -0.2959 -0.6255  0.9929
 1996TIP3   OH227546   0.417   2.474   1.187  0.2404  0.5460  0.9412
 1996TIP3    H127547   0.424   2.550   1.245 -3.8932  1.6612  0.3064
 1996TIP3    H227548   0.394   2.401   1.246  1.7317  0.2855  1.2504
 1997TIP3   OH227549   5.725   2.943   7.400  0.2329  0.2128 -0.2703
 1997TIP3    H127550   5.707   2.970   7.490  1.4609 -2.1109  0.7766
 1997TIP3    H227551   5.743   3.025   7.354  0.1634  1.4413  1.7397
 1998TIP3   OH227552   2.594   3.797   0.141 -0.3421 -0.2191  0.1400
 1998TIP3    H127553   2.555   3.818   0.226 -0.6156  0.7464 -0.2201
 1998TIP3    H227554   2.520   3.797   0.080 -0.7117 -3.9145  0.3386
 1999TIP3   OH227555   4.410   5.659   1.376 -0.6903 -0.1637  0.1961
 1999TIP3    H127556   4.481   5.597   1.393 -0.8462 -0.1298  1.0031
 1999TIP3    H227557   4.371   5.675   1.462 -0.3046  1.4794  0.0964
 2000TIP3   OH227558   1.707   0.350   8.258 -0.5566  0.0011  0.3574
 2000TIP3    H127559   1.770   0.422   8.261  1.0948 -1.4206  1.0861
 2000TIP3    H227560   1.726   0.306   8.175 -0.2329 -0.7380  0.8225
 2001TIP3   OH227561   0.915   0.958   0.286 -0.3853 -0.4639  0.4781
 2001TIP3    H127562   0.878   0.957   0.198  0.2729  2.6500  0.0457
 2001TIP3    H227563   1.009   0.947   0.273  0.0266  2.2705  0.4270
 2002TIP3   OH227564   3.812   3.339   1.328 -0.1696  0.2491  0.0304
 2002TIP3    H127565   3.895   3.368   1.291 -0.4236 -0.7142 -1.3887
 2002TIP3    H227566   3.746   3.392   1.284 -0.3951  0.0989  0.1823
 2003TIP3   OH227567   3.997   2.449   8.065 -0.0984 -0.4535 -0.0562
 2003TIP3    H127568   3.991   2.522   8.127 -1.9473 -1.3157  0.8636
 2003TIP3    H227569   4.089   2.424   8.066  0.7191  2.2340 -0.8804
 2004TIP3   OH227570   6.020   0.263   7.515 -0.0530  0.7104  0.2807
 2004TIP3    H127571   6.024   0.168   7.517  2.0997  0.7526  0.8932
 2004TIP3    H227572   6.052   0.287   7.428  0.1077  0.8714  0.3820
 2005TIP3   OH227573   0.223   0.261   1.889  0.1424 -0.3090 -0.2176
 2005TIP3    H127574   0.220   0.247   1.795 -0.9737 -0.2494 -0.2074
 2005TIP3    H227575   0.133   0.250   1.918 -0.0336  2.1938  0.4626
 2006TIP3   OH227576   5.276   2.225   7.138 -0.2080 -0.0845  0.0795
 2006TIP3    H127577   5.331   2.152   7.110  0.3925  0.4922 -0.2784
 2006TIP3    H227578   5.236   2.195   7.219  1.6603 -0.0322  1.0759
 2007TIP3   OH227579   4.493   5.073   1.095 -0.1045 -0.2460 -0.7107
 2007TIP3    H127580   4.404   5.039   1.104  0.5518 -2.1666 -1.0762
 2007TIP3    H227581   4.539   5.006   1.045  0.8262  2.0392 -3.1312
 2008TIP3   OH227582   3.030   4.452   6.650 -0.4064 -0.1778  0.1114
 2008TIP3    H127583   3.025   4.406   6.566  2.2527 -1.4071  0.5209
 2008TIP3    H227584   3.115   4.426   6.686 -1.8096 -0.3982  3.6032
 2009TIP3   OH227585   3.864   6.324   8.239  0.6923  0.2474 -0.4664
 2009TIP3    H127586   3.840   6.261   8.171  1.7927  1.0417 -1.6418
 2009TIP3    H227587   3.811   6.299   8.315  1.3708 -2.3359 -0.7311
 2010TIP3   OH227588   0.888   2.544   8.697 -0.0201 -0.2704 -0.3583
 2010TIP3    H127589   0.903   2.463   8.746 -0.2271  0.1261  0.3756
 2010TIP3    H227590   0.976   2.577   8.678  0.0642 -0.6269 -0.5997
 2011TIP3   OH227591   2.925   6.111   0.002  0.6229 -0.2461  0.0894
 2011TIP3    H127592   2.930   6.112   0.097 -1.0061 -1.1986  0.2228
 2011TIP3    H227593   2.889   6.025  -0.020  1.1340 -0.1126 -1.4025
 2012TIP3   OH227594   5.085   1.038   7.608  0.1022 -0.0302 -0.4202
 2012TIP3    H127595   5.006   1.058   7.558 -0.3011 -1.3045 -0.3311
 2012TIP3    H227596   5.070   0.949   7.641  1.2858 -0.0254  0.1640
 2013TIP3   OH227597   2.122   0.261   2.518 -0.0367  0.3161  0.2280
 2013TIP3    H127598   2.061   0.334   2.501 -1.9422 -1.0466  0.9118
 2013TIP3    H227599   2.209   0.298   2.500 -1.0623  2.2455 -1.1247
 2014TIP3   OH227600   3.862   5.807   8.265  0.7496 -0.3358  0.3040
 2014TIP3    H127601   3.923   5.881   8.262 -1.3884  1.5306 -0.4834
 2014TIP3    H227602   3.815   5.817   8.348  0.0001 -0.3888 -0.1004
 2015TIP3   OH227603   6.675   2.114   8.556 -0.1454 -0.3018  0.2308
 2015TIP3    H127604   6.667   2.071   8.642  2.2005 -0.6042  0.3505
 2015TIP3    H227605   6.769   2.119   8.540 -0.5149  0.2699 -2.0950
 2016TIP3   OH227606   0.345   4.452   7.616  0.3768  0.1266  0.6274
 2016TIP3    H127607   0.336   4.545   7.597 -0.7134  0.1908  1.3788
 2016TIP3    H227608   0.379   4.414   7.535  1.0681  1.2033  0.3917
 2017TIP3   OH227609   2.951   5.327   0.449  0.0087 -0.6771  0.8010
 2017TIP3    H127610   2.979   5.300   0.537  1.5313  1.0572  0.9176
 2017TIP3    H227611   3.027   5.373   0.414 -1.7364  1.6609 -0.0984
 2018TIP3   OH227612   6.682   1.132   1.661  0.5583 -0.2859 -0.9117
 2018TIP3    H127613   6.719   1.050   1.695 -1.5432 -0.5901  0.8215
 2018TIP3    H227614   6.588   1.117   1.659 -0.1165  2.7748  1.4458
 2019TIP3   OH227615   1.568   1.914   7.003  0.1433 -0.2133  0.7372
 2019TIP3    H127616   1.533   1.974   7.068  2.6088 -0.1935  2.1759
 2019TIP3    H227617   1.653   1.952   6.979  0.4485 -1.5987 -0.5392
 2020TIP3   OH227618   3.306   3.413   8.479  0.2883  0.2719 -0.5610
 2020TIP3    H127619   3.262   3.490   8.515 -0.5361  0.1483 -1.2729
 2020TIP3    H227620   3.364   3.384   8.550 -2.1123 -0.6395  1.1447
 2021TIP3   OH227621   6.494   0.992   1.912 -0.1982  0.0347 -0.1445
 2021TIP3    H127622   6.582   0.959   1.932  0.3622  0.4615 -1.7526
 2021TIP3    H227623   6.456   1.010   1.997  1.6022  0.6585  0.5779
 2022TIP3   OH227624   2.620   2.221   0.542 -0.4898  0.1917 -0.5370
 2022TIP3    H127625   2.643   2.137   0.503  0.0630 -0.5099  1.2135
 2022TIP3    H227626   2.544   2.250   0.491 -2.4868 -2.7069  0.5282
 2023TIP3   OH227627   1.698   0.500   2.241  0.6195 -0.6901  0.0870
 2023TIP3    H127628   1.738   0.531   2.160 -0.3269  2.5038  0.6959
 2023TIP3    H227629   1.770   0.495   2.304  0.7935  0.4308 -0.0142
 2024TIP3   OH227630   3.029   1.575   0.131 -0.0268  0.1891  0.2229
 2024TIP3    H127631   2.970   1.555   0.058  0.1573 -0.2124  0.1778
 2024TIP3    H227632   2.989   1.651   0.174 -1.0855 -0.6217  0.7440
 2025TIP3   OH227633   2.059   4.751   0.071 -1.0221  0.8433 -0.0761
 2025TIP3    H127634   2.002   4.828   0.076 -1.6370  0.3675  0.3751
 2025TIP3    H227635   2.051   4.721  -0.019 -3.1220 -0.4129  0.4524
 2026TIP3   OH227636   4.177   4.901   1.804  0.0419  0.3663 -0.3595
 2026TIP3    H127637   4.214   4.961   1.739 -0.1761  0.7306 -0.1517
 2026TIP3    H227638   4.234   4.825   1.801 -0.9158 -0.3644 -2.1924
 2027TIP3   OH227639   3.250   4.086   1.158 -0.2069  0.1367  0.2881
 2027TIP3    H127640   3.345   4.074   1.157 -0.2239 -0.0821  0.8285
 2027TIP3    H227641   3.216   4.006   1.198 -0.7307 -0.4498 -1.2379
 2028TIP3   OH227642   6.598   0.110   2.243  0.1876 -0.7968  1.0152
 2028TIP3    H127643   6.580   0.111   2.337  0.7899 -0.8298  1.1330
 2028TIP3    H227644   6.582   0.019   2.216  0.1749 -0.8244  1.1159
 2029TIP3   OH227645   5.786   1.867   0.422  0.2351  0.2778 -0.0820
 2029TIP3    H127646   5.857   1.902   0.476  0.2221 -0.4205  0.4169
 2029TIP3    H227647   5.813   1.883   0.332  1.0970 -0.1064  0.1021
 2030TIP3   OH227648   3.492   2.815   8.876 -0.1477 -0.3824 -0.3524
 2030TIP3    H127649   3.561   2.859   8.827  0.5174 -1.0953 -0.0757
 2030TIP3    H227650   3.419   2.810   8.815 -0.1373  0.8153 -0.4876
 2031TIP3   OH227651   5.306   4.218   1.895 -0.1549 -0.4120 -0.0466
 2031TIP3    H127652   5.400   4.210   1.909  0.1710  1.2790 -0.9992
 2031TIP3    H227653   5.289   4.312   1.899 -1.6120 -0.5955 -0.9938
 2032TIP3   OH227654   3.494   2.815   7.820  0.4794 -0.1998 -0.0286
 2032TIP3    H127655   3.578   2.799   7.862  0.2040 -3.1516 -0.3556
 2032TIP3    H227656   3.438   2.847   7.891  1.1834 -0.8458  0.8526
 2033TIP3   OH227657   1.232   0.382   7.750  0.3112 -0.3819 -0.3572
 2033TIP3    H127658   1.288   0.381   7.673  0.0250  1.0610 -0.6112
 2033TIP3    H227659   1.207   0.474   7.761 -0.8942 -0.7838  0.5593
 2034TIP3   OH227660   4.515   5.173   7.546  0.6370  0.6090  0.3997
 2034TIP3    H127661   4.549   5.123   7.472 -1.4673 -1.7727  0.8787
 2034TIP3    H227662   4.430   5.206   7.516  1.1396  2.3543  0.7642
 2035TIP3   OH227663   2.249   4.351   1.359 -0.2621 -0.3242  0.4236
 2035TIP3    H127664   2.156   4.336   1.376 -0.1869 -1.2283  0.1322
 2035TIP3    H227665   2.254   4.370   1.266  0.0326 -2.4046 -0.0450
 2036TIP3   OH227666   6.328   4.636   7.495 -0.6881  0.3173 -0.1418
 2036TIP3    H127667   6.388   4.618   7.423 -0.3260  0.0999  0.2131
 2036TIP3    H227668   6.313   4.730   7.490  2.4023  1.0569  1.8289
 2037TIP3   OH227669   5.448   5.804   8.833 -0.3927  0.1448  0.0479
 2037TIP3    H127670   5.472   5.799   8.741 -0.5035  1.0365 -0.0426
 2037TIP3    H227671   5.354   5.821   8.832  0.0773  3.4828  0.1895
 2038TIP3   OH227672   4.325   6.527   2.437  0.2573  0.8006  0.0989
 2038TIP3    H127673   4.377   6.558   2.363  1.3340 -0.7170  0.1783
 2038TIP3    H227674   4.271   6.457   2.400  1.0598 -0.2091  0.7900
 2039TIP3   OH227675   3.893   2.220   8.282  0.0942 -0.1369 -0.0592
 2039TIP3    H127676   3.884   2.165   8.360  0.7039 -0.3946 -0.1631
 2039TIP3    H227677   3.971   2.273   8.299 -0.8524  1.1981  0.3337
 2040TIP3   OH227678   4.991   3.009   1.346  0.2301  0.0176  0.4904
 2040TIP3    H127679   4.920   3.050   1.395  0.0841 -1.6043  1.7497
 2040TIP3    H227680   5.048   3.081   1.321 -0.8741  1.1505  1.1231
 2041TIP3   OH227681   1.703   1.811   0.283  0.8805 -0.6578  0.1600
 2041TIP3    H127682   1.627   1.845   0.237 -0.2051 -2.7516  0.2873
 2041TIP3    H227683   1.778   1.840   0.230 -0.0374  0.6263 -0.4849
 2042TIP3   OH227684   3.331   3.040   7.145  0.5020 -0.4642 -0.7435
 2042TIP3    H127685   3.306   3.131   7.130  3.8583  0.5732 -1.0025
 2042TIP3    H227686   3.371   3.013   7.062 -0.4155 -2.2071 -0.6578
 2043TIP3   OH227687   4.883   5.456   8.827 -0.9236 -0.3150 -0.3488
 2043TIP3    H127688   4.910   5.547   8.821 -3.3174  0.4169 -1.0038
 2043TIP3    H227689   4.864   5.442   8.920 -0.6915 -0.1151 -0.2720
 2044TIP3   OH227690   0.938   2.828   2.107  0.1168 -0.0994  0.0356
 2044TIP3    H127691   0.870   2.779   2.060 -0.0412 -1.2859  1.4017
 2044TIP3    H227692   0.937   2.915   2.069  0.8001 -1.2648 -2.9467
 2045TIP3   OH227693   4.020   1.315   8.522  0.6121  0.0719 -0.0631
 2045TIP3    H127694   4.022   1.411   8.524  1.0301  0.0767 -0.4896
 2045TIP3    H227695   3.989   1.290   8.608 -0.9976  0.6236 -0.4499
 2046TIP3   OH227696   1.037   1.411   6.262  0.3140  0.3744  0.5144
 2046TIP3    H127697   0.977   1.461   6.317  1.9527  0.7770  2.0526
 2046TIP3    H227698   1.060   1.472   6.192 -0.8247  0.3120  0.0697
 2047TIP3   OH227699   6.496   1.765   7.426  0.0499  0.1706 -0.2896
 2047TIP3    H127700   6.455   1.742   7.343 -0.1627  1.5624 -0.5945
 2047TIP3    H227701   6.423   1.774   7.488  0.0818  0.5084 -0.2995
 2048TIP3   OH227702   3.031   5.110   7.689  0.3823 -0.4222 -0.5442
 2048TIP3    H127703   3.035   5.171   7.762  0.4163 -0.6061 -0.3918
 2048TIP3    H227704   2.951   5.060   7.703 -0.1590  0.2391 -1.1939
 2049TIP3   OH227705   5.104   2.318   6.560 -0.3705  0.4435  0.1589
 2049TIP3    H127706   5.025   2.301   6.510  1.0975 -1.2506 -1.7824
 2049TIP3    H227707   5.154   2.379   6.506  0.2570  0.3772  0.6462
 2050TIP3   OH227708   1.991   6.609   8.416  0.2913  0.2136 -0.8263
 2050TIP3    H127709   2.058   6.664   8.456 -1.2345  1.5275  0.0638
 2050TIP3    H227710   1.940   6.575   8.490 -1.2661  0.9339 -1.5149
 2051TIP3   OH227711   0.863   0.898   8.865  0.0108 -0.5744  0.0098
 2051TIP3    H127712   0.796   0.965   8.880  0.6627  0.7077 -2.2229
 2051TIP3    H227713   0.831   0.850   8.789  1.1459 -0.5514 -0.5075
 2052TIP3   OH227714   2.172   5.788   1.523  0.1205 -0.2828  0.2330
 2052TIP3    H127715   2.199   5.699   1.543  0.2110 -0.1200  0.8645
 2052TIP3    H227716   2.164   5.831   1.608  3.0456  1.1827 -0.1011
 2053TIP3   OH227717   2.803   3.502   6.330  0.5069  0.2168 -0.0474
 2053TIP3    H127718   2.879   3.539   6.374 -0.1964 -0.4940  1.8647
 2053TIP3    H227719   2.804   3.409   6.353 -1.0960  0.2512  0.2846
 2054TIP3   OH227720   4.054   6.331   7.472  0.0462 -0.2292 -0.3726
 2054TIP3    H127721   4.112   6.400   7.440 -0.2223  1.5382  2.5507
 2054TIP3    H227722   4.086   6.312   7.560 -2.3035 -0.9491  0.3936
 2055TIP3   OH227723   6.080   6.149   8.365 -0.6514  0.0016 -0.1690
 2055TIP3    H127724   6.145   6.133   8.433 -0.2026 -0.7676 -0.7583
 2055TIP3    H227725   6.015   6.205   8.407  0.4627  0.9405  0.3942
 2056TIP3   OH227726   5.075   0.650   0.270 -0.3126  0.6026  0.1853
 2056TIP3    H127727   5.171   0.656   0.270 -0.2747  0.0764  1.3035
 2056TIP3    H227728   5.045   0.733   0.306 -0.2736  0.6757  0.0498
 2057TIP3   OH227729   1.210   3.212   6.824 -0.2737  0.1974 -0.2767
 2057TIP3    H127730   1.241   3.295   6.789  1.1694 -0.6892 -1.1675
 2057TIP3    H227731   1.162   3.171   6.752  0.9895 -0.7437 -0.6154
 2058TIP3   OH227732   5.321   2.087   0.621  0.4657 -0.5488 -0.0783
 2058TIP3    H127733   5.240   2.078   0.570 -0.4115  1.5761  0.8444
 2058TIP3    H227734   5.292   2.097   0.712  1.9404 -2.6988  0.7319
 2059TIP3   OH227735   3.239   5.799   8.164  0.1636  0.4064 -0.0967
 2059TIP3    H127736   3.165   5.740   8.167  0.5872 -0.1844 -0.7820
 2059TIP3    H227737   3.226   5.850   8.083  1.3215 -0.8448 -1.1192
 2060TIP3   OH227738   3.886   0.028   0.987  0.6748  0.1418  0.1331
 2060TIP3    H127739   3.850  -0.057   1.011  1.0296  0.4014  1.6490
 2060TIP3    H227740   3.832   0.057   0.913  0.1617 -1.1086  0.0005
 2061TIP3   OH227741   2.243   4.534   8.203  0.1478 -0.2990 -0.3829
 2061TIP3    H127742   2.233   4.606   8.141  0.6716  0.6461  0.5858
 2061TIP3    H227743   2.199   4.565   8.282  0.2786 -1.0918  0.0091
 2062TIP3   OH227744   5.764   0.817   1.097 -0.5224  0.1712  0.1617
 2062TIP3    H127745   5.749   0.797   1.005  0.7793 -0.6468  0.0969
 2062TIP3    H227746   5.722   0.746   1.145 -0.7308  0.3064  0.1818
 2063TIP3   OH227747   5.669   1.163   8.157  0.3815  0.0630 -1.1539
 2063TIP3    H127748   5.671   1.100   8.086  0.3018 -0.9149 -0.3175
 2063TIP3    H227749   5.761   1.181   8.177  0.4341 -0.8971 -0.4627
 2064TIP3   OH227750   2.556   5.765   6.610 -0.6404  0.1375 -0.4760
 2064TIP3    H127751   2.471   5.721   6.616 -1.7326  2.0070 -1.4409
 2064TIP3    H227752   2.546   5.828   6.539  2.4539 -1.4300 -2.5721
 2065TIP3   OH227753   6.003   6.182   7.917 -0.3817  0.0920 -0.9698
 2065TIP3    H127754   6.013   6.087   7.922  0.7490  0.2568  0.2170
 2065TIP3    H227755   6.089   6.217   7.942 -1.1572  1.4431 -0.0794
 2066TIP3   OH227756   4.246   1.706   8.837 -0.4401 -0.2127  0.0709
 2066TIP3    H127757   4.279   1.629   8.790  1.2458  0.6362 -0.2422
 2066TIP3    H227758   4.257   1.778   8.774  0.3104  0.6688  1.1623
 2067TIP3   OH227759   4.313   3.080   8.404  0.3251 -0.1179  0.2268
 2067TIP3    H127760   4.333   3.145   8.337 -0.3110  0.0700  0.2076
 2067TIP3    H227761   4.326   2.996   8.360 -0.4503  0.0020 -0.2610
 2068TIP3   OH227762   6.379   3.940   1.628  0.5536 -0.3163  0.0293
 2068TIP3    H127763   6.440   3.873   1.660  0.1941  0.5333  2.7125
 2068TIP3    H227764   6.293   3.906   1.651  0.4134  1.5666  2.8115
 2069TIP3   OH227765   3.321   2.011   8.039 -0.6842 -0.3658 -0.0444
 2069TIP3    H127766   3.399   1.983   7.990  1.2211  0.9639  2.0077
 2069TIP3    H227767   3.337   2.104   8.057 -2.1182 -0.3953  1.5741
 2070TIP3   OH227768   4.584   6.382   8.756  0.1577 -0.0645  0.1306
 2070TIP3    H127769   4.600   6.339   8.672 -0.4395 -1.2428  0.6013
 2070TIP3    H227770   4.531   6.459   8.734  0.5807  0.0216 -0.6381
 2071TIP3   OH227771   5.072   2.795   8.781  0.0920  0.3383 -0.4446
 2071TIP3    H127772   5.112   2.718   8.822 -0.6569 -0.4425 -1.1401
 2071TIP3    H227773   5.088   2.866   8.843 -1.5247 -0.9032  1.4970
 2072TIP3   OH227774   0.781   6.670   0.602  0.2714 -1.0395 -0.2375
 2072TIP3    H127775   0.846   6.630   0.544  2.2069 -0.5016  1.4556
 2072TIP3    H227776   0.833   6.721   0.664 -1.9065  1.2730 -0.1806
 2073TIP3   OH227777   2.570   0.364   8.214  0.4501  0.4493  0.1055
 2073TIP3    H127778   2.476   0.371   8.233  0.4366  0.3690  0.0704
 2073TIP3    H227779   2.597   0.286   8.262  0.1098 -0.6345 -1.3957
 2074TIP3   OH227780   2.903   2.072   0.102  0.2563 -0.0478  0.4935
 2074TIP3    H127781   2.989   2.044   0.133  1.8733  2.3491 -1.3634
 2074TIP3    H227782   2.894   2.162   0.135 -2.2609 -0.7244  1.8613
 2075TIP3   OH227783   2.514   6.115   1.860 -0.0913 -0.0742 -0.1563
 2075TIP3    H127784   2.474   6.037   1.900 -0.1264 -0.7434 -1.4321
 2075TIP3    H227785   2.454   6.140   1.791  0.9456 -0.1859 -1.1272
 2076TIP3   OH227786   5.716   6.172   6.768  0.0862 -0.3932  0.3549
 2076TIP3    H127787   5.767   6.190   6.688 -0.4198 -0.9995 -0.1143
 2076TIP3    H227788   5.711   6.256   6.813 -0.3365  0.1488 -0.6771
 2077TIP3   OH227789   3.465   1.183   0.151  0.6989  0.1352 -0.1421
 2077TIP3    H127790   3.536   1.247   0.155 -1.3757  2.5580  1.2175
 2077TIP3    H227791   3.387   1.233   0.174 -1.0877 -2.9508  1.0606
 2078TIP3   OH227792   4.649   1.609   0.603 -0.5559 -0.2437 -0.8746
 2078TIP3    H127793   4.672   1.620   0.511  0.3540  0.3722 -0.5897
 2078TIP3    H227794   4.641   1.699   0.637 -1.9661 -0.4469 -0.5964
 2079TIP3   OH227795   4.693   0.106   8.170 -0.0022  0.4392 -0.8004
 2079TIP3    H127796   4.617   0.057   8.139  0.1653  0.9861 -2.1720
 2079TIP3    H227797   4.768   0.053   8.142  0.1438  0.1405  0.1242
 2080TIP3   OH227798   1.677   4.671   8.098 -0.0834  0.0277  0.1263
 2080TIP3    H127799   1.718   4.670   8.011  0.3330  1.2237  0.2902
 2080TIP3    H227800   1.598   4.618   8.088  0.2911 -0.3730 -0.8160
 2081TIP3   OH227801   3.809   4.043   1.439 -0.5027  0.2848  0.2996
 2081TIP3    H127802   3.856   4.031   1.356  1.6963 -0.0198  1.4951
 2081TIP3    H227803   3.802   3.954   1.474 -0.1485  0.5620  1.0762
 2082TIP3   OH227804   5.039   5.608   0.643 -0.1100  0.4459  0.2642
 2082TIP3    H127805   4.954   5.563   0.642  0.7525 -1.2833  0.0466
 2082TIP3    H227806   5.103   5.537   0.649  1.3128  1.7444  1.2856
 2083TIP3   OH227807   0.188   5.223   7.693  0.7376 -0.0248 -0.4466
 2083TIP3    H127808   0.213   5.208   7.784 -1.2748 -0.7747  0.0296
 2083TIP3    H227809   0.185   5.318   7.684  0.7202  0.0520  0.3329
 2084TIP3   OH227810   1.696   4.043   1.004  0.0444 -0.5525  0.6534
 2084TIP3    H127811   1.780   3.999   1.017  1.0131  0.7311 -0.8306
 2084TIP3    H227812   1.716   4.136   1.013 -1.4678 -0.2664  1.3853
 2085TIP3   OH227813   2.928   6.013   6.678 -0.7226  0.8581 -0.3559
 2085TIP3    H127814   2.981   6.090   6.701  2.9076 -1.8557  1.3025
 2085TIP3    H227815   2.946   5.999   6.584  1.8790 -0.0805  0.1893
 2086TIP3   OH227816   3.126   6.619   8.870  0.0570  0.3531  0.3367
 2086TIP3    H127817   3.075   6.696   8.894 -0.1911  0.4879 -0.5742
 2086TIP3    H227818   3.062   6.559   8.832  0.3483 -0.0645  0.4973
 2087TIP3   OH227819   4.250   2.948   7.667 -0.0922  0.0726  1.0106
 2087TIP3    H127820   4.209   2.928   7.752 -1.4932  1.5047  0.7141
 2087TIP3    H227821   4.314   3.016   7.687 -0.8413  0.8389  0.8536
 2088TIP3   OH227822   4.411   5.047   2.336 -0.9121 -0.6320 -0.7532
 2088TIP3    H127823   4.454   5.072   2.418  0.7117  1.1842 -2.0638
 2088TIP3    H227824   4.326   5.013   2.363 -1.1824  1.5884  1.6227
 2089TIP3   OH227825   6.386   1.840   6.994  0.1016  0.2619 -0.2998
 2089TIP3    H127826   6.371   1.763   6.938  1.2623  0.8758 -1.5148
 2089TIP3    H227827   6.305   1.890   6.987 -1.0950 -1.3215  1.3609
 2090TIP3   OH227828   5.644   6.720   1.874 -0.3325  0.1295  0.8522
 2090TIP3    H127829   5.611   6.633   1.850  1.8250 -1.0227  1.7157
 2090TIP3    H227830   5.630   6.773   1.796  2.4767 -2.3060 -1.6029
 2091TIP3   OH227831   2.064   1.852   1.746 -0.3653 -0.1556 -0.3811
 2091TIP3    H127832   2.009   1.891   1.814 -0.9720  0.5710 -1.2575
 2091TIP3    H227833   2.015   1.775   1.717  0.3973 -1.0791  0.7152
 2092TIP3   OH227834   1.324   0.856   7.986 -0.0337  0.4186  0.3718
 2092TIP3    H127835   1.347   0.826   7.898 -2.0216 -1.5693  0.4295
 2092TIP3    H227836   1.332   0.778   8.040  1.2740  1.6366  2.0394
 2093TIP3   OH227837   0.886   2.965   2.354 -0.0077  0.8314 -0.3813
 2093TIP3    H127838   0.860   2.901   2.420 -1.4393 -0.1289 -1.7842
 2093TIP3    H227839   0.812   2.966   2.292  0.0907  3.6297 -0.5725
 2094TIP3   OH227840   3.197   0.686   7.778 -0.7745 -0.3045  0.5007
 2094TIP3    H127841   3.231   0.646   7.858 -1.1783 -1.5303  0.0830
 2094TIP3    H227842   3.103   0.670   7.782 -0.7209 -0.9514 -0.5222
 2095TIP3   OH227843   1.750   3.463   2.319 -0.5083 -0.0276  0.3874
 2095TIP3    H127844   1.809   3.508   2.379 -0.7260  0.5637  0.1638
 2095TIP3    H227845   1.808   3.419   2.257 -0.2741 -1.0322  1.2963
 2096TIP3   OH227846   0.203   1.985   0.101 -0.1812 -0.4775  0.7710
 2096TIP3    H127847   0.225   2.078   0.111  1.1444 -0.6401 -0.3728
 2096TIP3    H227848   0.254   1.942   0.169 -0.1147 -0.4592  0.7327
 2097TIP3   OH227849   1.959   2.163   0.932  0.4566  0.4233 -0.4820
 2097TIP3    H127850   1.998   2.091   0.883 -0.8440  0.6935 -2.0188
 2097TIP3    H227851   2.020   2.180   1.003  0.3333 -2.8601  0.5692
 2098TIP3   OH227852   0.537   6.476   2.332  0.0058 -0.2163  0.0942
 2098TIP3    H127853   0.585   6.548   2.372  0.9711 -1.1185  0.6292
 2098TIP3    H227854   0.472   6.451   2.398  0.8614 -0.9776  0.6783
 2099TIP3   OH227855   6.235   6.473   1.483 -0.1959  0.9603  0.0502
 2099TIP3    H127856   6.179   6.406   1.523  2.1117 -0.0347  1.8446
 2099TIP3    H227857   6.234   6.452   1.389  0.2688 -1.4847  0.5288
 2100TIP3   OH227858   0.945   2.876   0.467 -0.1830 -0.4953 -0.1754
 2100TIP3    H127859   0.935   2.829   0.549 -0.0721  0.4341  0.3891
 2100TIP3    H227860   1.008   2.824   0.416  2.0519  0.3911  1.5054
 2101TIP3   OH227861   6.214   1.076   2.056  0.0174  0.0924 -0.2302
 2101TIP3    H127862   6.210   1.071   2.152 -0.9239  1.2196 -0.1889
 2101TIP3    H227863   6.208   0.985   2.027  0.7262 -0.2964  0.7860
 2102TIP3   OH227864   4.460   1.876   8.762  0.3133 -0.1304 -0.4010
 2102TIP3    H127865   4.408   1.840   8.690  1.5550 -0.6805 -1.0511
 2102TIP3    H227866   4.524   1.933   8.719  0.7676 -0.0973  0.3046
 2103TIP3   OH227867   6.085   5.098   2.184  0.5605 -0.5115  0.9851
 2103TIP3    H127868   6.045   5.022   2.143 -0.6107  0.0694  1.0128
 2103TIP3    H227869   6.138   5.138   2.114 -0.7291 -0.0128  0.2648
 2104TIP3   OH227870   5.198   6.710   0.848 -0.1799 -0.2348 -0.3802
 2104TIP3    H127871   5.176   6.730   0.939 -1.4726 -1.8389 -0.2722
 2104TIP3    H227872   5.154   6.777   0.797  1.2050  1.1436  0.1854
 2105TIP3   OH227873   5.374   4.866   8.750  0.0573 -0.2214  0.3712
 2105TIP3    H127874   5.288   4.824   8.743 -0.0694  0.1749 -0.7011
 2105TIP3    H227875   5.359   4.944   8.804  0.2343 -1.3400  2.1205
 2106TIP3   OH227876   5.206   6.323   6.815  0.2699 -1.0906 -0.0962
 2106TIP3    H127877   5.123   6.288   6.783 -0.3543 -0.7476  1.0717
 2106TIP3    H227878   5.241   6.373   6.742  0.0504 -2.2311 -1.0046
 2107TIP3   OH227879   5.290   2.374   7.420 -0.9076 -0.1978 -0.5868
 2107TIP3    H127880   5.326   2.366   7.331 -0.3505  0.0699 -0.3924
 2107TIP3    H227881   5.280   2.284   7.450  0.3927 -0.2749 -0.3392
 2108TIP3   OH227882   0.331   1.527   0.828 -0.1460 -0.3492 -0.8231
 2108TIP3    H127883   0.319   1.463   0.898 -0.6960 -0.2083 -0.7832
 2108TIP3    H227884   0.248   1.525   0.780 -0.2065  0.4148 -0.7593
 2109TIP3   OH227885   5.053   2.450   7.299 -0.0128  0.1618 -0.2722
 2109TIP3    H127886   5.097   2.481   7.220  0.1350  1.6762  0.3713
 2109TIP3    H227887   5.124   2.429   7.359 -0.1381  0.6796  0.0608
 2110TIP3   OH227888   4.843   3.412   2.398 -0.1207  0.1729 -0.3199
 2110TIP3    H127889   4.880   3.479   2.341  0.2271 -0.2056 -0.5470
 2110TIP3    H227890   4.808   3.460   2.473  1.0738  0.5320  0.0321
 2111TIP3   OH227891   6.521   4.889   7.401  0.3567 -0.3891 -0.1922
 2111TIP3    H127892   6.462   4.923   7.334 -0.8438 -1.8889  0.0422
 2111TIP3    H227893   6.503   4.943   7.478 -0.6103 -0.6901 -0.1827
 2112TIP3   OH227894   5.805   3.808   0.512 -0.7497  0.6668 -0.4861
 2112TIP3    H127895   5.828   3.747   0.441  1.4948 -2.1237  2.3480
 2112TIP3    H227896   5.875   3.873   0.511 -1.3122  1.2707 -1.4587
 2113TIP3   OH227897   4.746   6.214   6.550 -0.3689 -0.5655 -0.0781
 2113TIP3    H127898   4.828   6.165   6.539  0.1523  0.5891 -1.6647
 2113TIP3    H227899   4.768   6.284   6.611 -0.6411 -1.2328  0.8027
 2114TIP3   OH227900   1.094   4.075   6.624  0.0072 -0.1656  0.0566
 2114TIP3    H127901   1.179   4.066   6.665 -0.5676  0.4896  1.4538
 2114TIP3    H227902   1.041   4.005   6.663 -0.3666  0.0559 -0.0495
 2115TIP3   OH227903   5.851   2.278   0.535 -0.3283 -0.0920  0.3544
 2115TIP3    H127904   5.881   2.266   0.445  1.1672 -0.8160  0.9128
 2115TIP3    H227905   5.767   2.233   0.539 -0.7114  0.4907 -0.8351
 2116TIP3   OH227906   4.113   4.403   2.115 -0.4602  0.7649  0.1361
 2116TIP3    H127907   4.123   4.419   2.209 -0.3110  0.8635  0.1049
 2116TIP3    H227908   4.055   4.473   2.085 -1.3319  0.1404  0.3327
 2117TIP3   OH227909   3.534   1.199   8.012 -0.2593  0.4226 -0.8601
 2117TIP3    H127910   3.467   1.190   7.945 -1.2962 -1.2840  0.3186
 2117TIP3    H227911   3.505   1.142   8.083  2.3877 -0.3252 -0.2324
 2118TIP3   OH227912   5.793   1.323   7.825 -0.3116  0.4795 -0.5637
 2118TIP3    H127913   5.834   1.329   7.738  0.1791  2.3578 -0.2470
 2118TIP3    H227914   5.846   1.379   7.881 -1.5068  0.5032  0.6016
 2119TIP3   OH227915   4.596   0.900   8.635  0.1140 -0.3011  0.0103
 2119TIP3    H127916   4.649   0.838   8.686  0.3120  0.8366  1.2250
 2119TIP3    H227917   4.599   0.865   8.546  1.4216 -1.2483  0.3851
 2120TIP3   OH227918   2.827   0.574   6.519 -0.5142 -0.1548  0.3353
 2120TIP3    H127919   2.765   0.501   6.514 -0.2888 -0.2928 -0.6814
 2120TIP3    H227920   2.775   0.647   6.551 -0.8130 -0.6753  1.0874
 2121TIP3   OH227921   4.355   3.553   8.070 -0.0500 -0.6156 -0.3008
 2121TIP3    H127922   4.413   3.541   7.995 -0.2706 -1.0615 -0.4077
 2121TIP3    H227923   4.268   3.562   8.031  0.0453  1.0563 -0.2061
 2122TIP3   OH227924   6.516   6.431   6.648 -0.4293 -0.1969  0.5408
 2122TIP3    H127925   6.485   6.362   6.589 -0.2439  0.0466  0.1537
 2122TIP3    H227926   6.448   6.498   6.643  1.1532  1.3848 -2.1046
 2123TIP3   OH227927   6.299   1.493   1.536 -0.7273  0.0057 -0.0579
 2123TIP3    H127928   6.378   1.522   1.583  0.1799 -0.1756 -1.4144
 2123TIP3    H227929   6.262   1.574   1.500  0.0489 -0.1210 -1.1978
 2124TIP3   OH227930   2.241   2.330   8.778  0.4955 -0.3938 -0.3040
 2124TIP3    H127931   2.308   2.311   8.712  0.3409 -1.1322 -0.2548
 2124TIP3    H227932   2.193   2.248   8.788  0.3236 -0.2003  0.5107
 2125TIP3   OH227933   2.110   0.052   8.849  0.6174  0.6566 -0.3494
 2125TIP3    H127934   2.084   0.120   8.911 -1.5306 -0.6301  0.2686
 2125TIP3    H227935   2.029   0.030   8.803  2.1096  1.4940 -3.6282
 2126TIP3   OH227936   1.332   2.616   6.800  0.3234 -0.4339  0.0830
 2126TIP3    H127937   1.281   2.613   6.882  0.5665  0.5012  0.2787
 2126TIP3    H227938   1.267   2.601   6.731 -0.0387 -0.2979  0.3928
 2127TIP3   OH227939   3.566   5.513   1.024  0.0911 -0.3068 -0.3023
 2127TIP3    H127940   3.566   5.461   0.944  2.4520 -1.6692  0.5068
 2127TIP3    H227941   3.624   5.587   1.005  0.8164 -0.7406  0.1984
 2128TIP3   OH227942   2.356   0.749   0.692  0.1719  0.2645  0.0236
 2128TIP3    H127943   2.421   0.685   0.660 -0.3998 -0.0833 -0.4595
 2128TIP3    H227944   2.294   0.758   0.620 -0.6044  0.2066  0.6743
 2129TIP3   OH227945   2.579   5.980   0.998 -0.1466 -0.4936  0.3259
 2129TIP3    H127946   2.593   5.903   1.053  0.9542  0.4762  1.4915
 2129TIP3    H227947   2.649   5.976   0.933 -1.3047 -1.5126 -0.9113
 2130TIP3   OH227948   5.065   1.557   0.357 -0.0068 -0.3760 -0.2568
 2130TIP3    H127949   5.053   1.580   0.449 -0.2270 -0.6021 -0.2303
 2130TIP3    H227950   5.011   1.620   0.310 -1.4378 -1.4689 -0.1330
 2131TIP3   OH227951   1.723   5.152   2.009  0.1781  0.3621  0.8668
 2131TIP3    H127952   1.635   5.185   2.029 -1.1159 -2.6558  0.6915
 2131TIP3    H227953   1.711   5.099   1.930  2.3902  0.6375  0.2871
 2132TIP3   OH227954   6.775   3.567   7.233 -0.1001 -0.3682 -0.1986
 2132TIP3    H127955   6.781   3.660   7.255  0.8694 -0.3897 -0.3062
 2132TIP3    H227956   6.749   3.565   7.141 -0.4137 -0.2096 -0.1138
 2133TIP3   OH227957   5.735   3.949   8.557 -0.1011 -0.2584  0.3977
 2133TIP3    H127958   5.746   3.883   8.489  0.2933 -0.1349  0.3393
 2133TIP3    H227959   5.664   4.005   8.524 -0.8518 -0.9955  0.7232
 2134TIP3   OH227960   3.277   5.960   2.386 -0.2473 -0.1735 -0.5614
 2134TIP3    H127961   3.310   6.039   2.343 -0.4282  1.6055  2.2893
 2134TIP3    H227962   3.341   5.942   2.455  0.0291 -2.8725 -1.4194
 2135TIP3   OH227963   5.420   2.856   2.032 -0.2518 -0.7112 -0.2456
 2135TIP3    H127964   5.411   2.768   2.067  0.2347 -0.3437  0.8666
 2135TIP3    H227965   5.510   2.882   2.056 -1.1725  0.9940  1.7082
 2136TIP3   OH227966   2.158   5.689   8.768 -0.1434  0.3282 -0.0273
 2136TIP3    H127967   2.159   5.779   8.799 -0.9607  0.9056 -1.5770
 2136TIP3    H227968   2.207   5.690   8.686 -1.2611 -0.3560 -0.7353
 2137TIP3   OH227969   4.378   4.587   8.007  0.1669  0.2296 -0.1801
 2137TIP3    H127970   4.403   4.533   7.932 -1.4142  0.1000 -0.6610
 2137TIP3    H227971   4.361   4.674   7.971  2.0013  0.9058  0.4821
 2138TIP3   OH227972   4.309   2.253   0.411 -0.0621  0.2665  0.3393
 2138TIP3    H127973   4.369   2.243   0.338  1.1106 -0.5762  1.3670
 2138TIP3    H227974   4.344   2.328   0.461 -0.2456  0.1929  0.5831
 2139TIP3   OH227975   1.897   3.817   8.741 -0.0312  0.5719 -0.0371
 2139TIP3    H127976   1.916   3.858   8.656  0.2831  1.6821  0.5512
 2139TIP3    H227977   1.805   3.794   8.736 -0.0750  0.8441 -0.6040
 2140TIP3   OH227978   3.734   4.312   8.671 -0.1689  0.1052  0.0331
 2140TIP3    H127979   3.821   4.350   8.682 -0.0998  0.1842 -0.7307
 2140TIP3    H227980   3.743   4.252   8.596 -1.1307  1.3001 -1.0808
 2141TIP3   OH227981   6.084   3.220   7.863 -0.2925  0.1128  0.1782
 2141TIP3    H127982   6.136   3.144   7.889 -3.4297 -2.2418  0.1842
 2141TIP3    H227983   6.070   3.269   7.945 -0.1370 -0.6051  0.6428
 2142TIP3   OH227984   5.290   1.385   8.865  0.1800  0.6821 -0.0709
 2142TIP3    H127985   5.267   1.477   8.853 -1.4777  0.3500  0.2951
 2142TIP3    H227986   5.236   1.338   8.801  1.1793 -0.0350 -0.4190
 2143TIP3   OH227987   3.715   1.068   1.717 -0.2907  0.5416  0.3498
 2143TIP3    H127988   3.690   1.045   1.807  1.9921  1.2342  1.2301
 2143TIP3    H227989   3.690   1.160   1.708  0.2065  0.7023  0.5743
 2144TIP3   OH227990   1.723   3.988   8.189 -0.1189 -0.3151  0.5410
 2144TIP3    H127991   1.669   3.933   8.132 -0.5785  0.2322  0.4482
 2144TIP3    H227992   1.812   3.972   8.159 -0.2580 -0.8923  0.4124
 2145TIP3   OH227993   0.005   6.617   2.006  0.5697 -0.3842  0.9241
 2145TIP3    H127994  -0.030   6.663   1.930  1.7159 -0.5474  0.2719
 2145TIP3    H227995   0.064   6.551   1.970  1.2513 -0.3738  1.9521
 2146TIP3   OH227996   6.706   1.439   1.235  0.1690 -0.0274 -0.5051
 2146TIP3    H127997   6.678   1.400   1.152  3.0236  0.7443 -1.9379
 2146TIP3    H227998   6.695   1.368   1.299  0.4872 -1.5575 -2.0717
 2147TIP3   OH227999   0.736   2.489   1.732 -0.3205  0.3780  0.6746
 2147TIP3    H128000   0.783   2.409   1.757 -0.9466  0.3139  1.6764
 2147TIP3    H228001   0.655   2.486   1.783 -1.7419  0.1636 -1.4960
 2148TIP3   OH228002   2.089   5.909   8.525  0.7811  0.3683  0.5222
 2148TIP3    H128003   2.181   5.885   8.515  0.9239  0.6566  1.1209
 2148TIP3    H228004   2.090   5.984   8.584  0.1951  0.6627  0.1698
 2149TIP3   OH228005   6.358   6.710   6.568 -0.3402  0.1096  0.2265
 2149TIP3    H128006   6.378   6.803   6.570 -0.1757  0.1553 -1.7562
 2149TIP3    H228007   6.265   6.704   6.592 -0.4839  0.8400 -0.1291
 2150TIP3   OH228008   6.214   5.377   1.170  0.0509  0.5870  0.8842
 2150TIP3    H128009   6.212   5.355   1.263 -2.7758 -0.0012  0.7920
 2150TIP3    H228010   6.164   5.306   1.128  1.9900  0.3775 -1.2274
 2151TIP3   OH228011   3.807   3.419   2.499  0.1241 -0.1112 -0.0876
 2151TIP3    H128012   3.836   3.374   2.578  0.0140  2.2821  1.4438
 2151TIP3    H228013   3.885   3.466   2.469 -0.5393  1.3549  0.3925
 2152TIP3   OH228014   2.757   2.671   8.107 -0.2021  0.4494 -0.1010
 2152TIP3    H128015   2.779   2.760   8.134  0.3238  1.0122 -2.2612
 2152TIP3    H228016   2.717   2.680   8.021 -1.9970 -1.2554  0.4665
 2153TIP3   OH228017   4.584   3.337   2.315  0.1546 -0.1397  0.2059
 2153TIP3    H128018   4.673   3.318   2.344  0.9240  0.7915 -1.4288
 2153TIP3    H228019   4.580   3.305   2.225 -0.4440  1.7692 -0.4937
 2154TIP3   OH228020   5.167   5.716   0.872 -0.2583  0.0685 -0.5588
 2154TIP3    H128021   5.156   5.695   0.965  0.8696  0.6895 -0.2699
 2154TIP3    H228022   5.090   5.677   0.830 -1.5447  1.0015  0.8220
 2155TIP3   OH228023   4.658   6.065   8.565 -0.6470  0.0761  0.1715
 2155TIP3    H128024   4.593   5.995   8.558 -0.4604 -0.1432  0.6305
 2155TIP3    H228025   4.695   6.056   8.652  1.4720 -1.0886 -0.7714
 2156TIP3   OH228026   1.848   4.533   2.133 -0.6197 -0.1795 -0.0672
 2156TIP3    H128027   1.794   4.546   2.055 -1.1334 -2.7898 -0.2407
 2156TIP3    H228028   1.924   4.483   2.102 -0.1939 -0.1603  0.8958
 2157TIP3   OH228029   1.989   4.214   8.449 -0.1450  0.7842  0.2353
 2157TIP3    H128030   2.016   4.305   8.463  0.0395  0.9587 -1.1481
 2157TIP3    H228031   1.896   4.219   8.427 -0.2891  0.5753  0.7848
 2158TIP3   OH228032   0.881   5.189   8.701  0.1520  0.2694  0.0575
 2158TIP3    H128033   0.901   5.169   8.610  1.8280  2.5856 -0.1852
 2158TIP3    H228034   0.941   5.134   8.751 -0.6273 -0.8561 -0.2149
 2159TIP3   OH228035   5.814   3.291   1.338 -0.0498 -0.0588 -0.1603
 2159TIP3    H128036   5.773   3.245   1.265  0.5524 -0.5107 -0.2257
 2159TIP3    H228037   5.781   3.247   1.417  0.0075 -0.1725 -0.1993
 2160TIP3   OH228038   3.691   3.006   7.701  0.1171  0.2553  0.0096
 2160TIP3    H128039   3.628   3.076   7.720 -0.8143  0.0676 -2.0666
 2160TIP3    H228040   3.643   2.925   7.720 -0.0921  0.1283 -0.9742
 2161TIP3   OH228041   4.549   3.681   1.667  0.0784 -0.2929 -0.0702
 2161TIP3    H128042   4.489   3.669   1.594  0.0084 -0.6730  0.0487
 2161TIP3    H228043   4.501   3.735   1.730  0.7371  1.5060 -1.0217
 2162TIP3   OH228044   3.279   1.341   2.115  0.1922  0.4679 -0.2451
 2162TIP3    H128045   3.191   1.340   2.154 -0.2154  2.3599 -0.9567
 2162TIP3    H228046   3.285   1.259   2.067 -0.9099 -0.0287  0.4206
 2163TIP3   OH228047   3.781   4.086   6.912 -0.2819  0.0863 -0.1049
 2163TIP3    H128048   3.850   4.106   6.848 -0.5226 -0.5721 -0.5862
 2163TIP3    H228049   3.779   3.991   6.916  0.4135  0.1098  1.6615
 2164TIP3   OH228050   4.252   4.368   8.142  0.3069 -0.0395 -0.1950
 2164TIP3    H128051   4.325   4.312   8.169  0.2019 -0.2223 -0.2880
 2164TIP3    H228052   4.293   4.449   8.114  0.3559  0.6369  1.7123
 2165TIP3   OH228053   1.112   1.571   0.583  0.4471  0.4868  0.2474
 2165TIP3    H128054   1.077   1.484   0.604  1.0683 -0.0125 -0.6841
 2165TIP3    H228055   1.039   1.618   0.544  0.9456 -0.8727 -2.5886
 2166TIP3   OH228056   6.357   5.756   8.665  1.0568  0.9872  0.0983
 2166TIP3    H128057   6.420   5.693   8.701  1.1611  0.2215 -1.3354
 2166TIP3    H228058   6.405   5.801   8.595  0.5754  1.7370  0.2442
 2167TIP3   OH228059   2.086   4.829   7.117  0.2833  0.5454 -0.2708
 2167TIP3    H128060   2.088   4.913   7.071  0.1562  0.4707 -0.4131
 2167TIP3    H228061   2.176   4.796   7.109  0.7803  1.4228  1.1947
 2168TIP3   OH228062   2.964   5.912   7.031 -0.3795 -0.0628  0.2277
 2168TIP3    H128063   2.912   5.982   7.070 -1.2473 -0.0290 -0.9379
 2168TIP3    H228064   2.994   5.948   6.948 -0.2408 -0.8244 -0.0589
 2169TIP3   OH228065   6.742   0.449   7.189 -0.5025 -0.2597 -0.5456
 2169TIP3    H128066   6.681   0.452   7.262 -0.2808  0.3229 -0.3802
 2169TIP3    H228067   6.694   0.402   7.120 -1.1676  0.2670 -0.4469
 2170TIP3   OH228068   5.979   1.004   7.534 -0.0977 -0.5414 -0.1356
 2170TIP3    H128069   5.998   0.914   7.509  2.3326 -0.6563  1.7354
 2170TIP3    H228070   5.898   0.998   7.586 -0.3127 -1.5320 -0.5725
 2171TIP3   OH228071   0.199   3.304   1.620  0.7951  0.4556  0.3078
 2171TIP3    H128072   0.183   3.319   1.527  0.3258  1.2188  0.4982
 2171TIP3    H228073   0.113   3.314   1.661  0.6165 -1.8871  0.6031
 2172TIP3   OH228074   6.275   1.673   0.125  0.6153 -0.0399 -0.6819
 2172TIP3    H128075   6.279   1.750   0.069  0.9099  0.3755 -0.1080
 2172TIP3    H228076   6.205   1.619   0.089 -0.3282  1.0162 -0.4417
 2173TIP3   OH228077   6.461   1.989   8.014 -0.0468 -0.2366  0.4076
 2173TIP3    H128078   6.398   2.062   8.017 -0.9980 -1.0307  0.2460
 2173TIP3    H228079   6.546   2.030   8.033 -0.7361  0.7202  1.5945
 2174TIP3   OH228080   1.131   2.315   7.849 -0.0024  0.0820 -0.0864
 2174TIP3    H128081   1.192   2.334   7.778  0.3580  0.3963  0.3123
 2174TIP3    H228082   1.086   2.235   7.820  2.3438 -1.6179  0.7295
 2175TIP3   OH228083   0.584   3.781   0.930  0.2727 -0.1707  0.5478
 2175TIP3    H128084   0.499   3.796   0.971 -0.2162  0.4561 -0.6490
 2175TIP3    H228085   0.579   3.691   0.898 -0.7595  0.4768 -1.2872
 2176TIP3   OH228086   0.374   0.021   7.350 -0.0767  0.3509 -0.0174
 2176TIP3    H128087   0.306  -0.004   7.287  1.6984  0.3546 -2.0459
 2176TIP3    H228088   0.407  -0.062   7.384  1.7737  0.0250 -2.3203
 2177TIP3   OH228089   3.977   4.403   8.684 -0.5619  0.0357 -0.3586
 2177TIP3    H128090   4.028   4.458   8.744 -0.8271  0.0025 -0.0985
 2177TIP3    H228091   4.000   4.435   8.597  0.3110 -0.3292 -0.2717
 2178TIP3   OH228092   2.783   3.942   6.495 -0.7595 -0.1780  0.1407
 2178TIP3    H128093   2.846   3.890   6.544  0.6796  1.6675  0.3592
 2178TIP3    H228094   2.753   3.885   6.425 -0.6755 -1.8980  1.4388
 2179TIP3   OH228095   6.566   0.769   0.470  0.2980  0.0784 -0.0716
 2179TIP3    H128096   6.508   0.752   0.544  2.6304 -1.5536  1.5221
 2179TIP3    H228097   6.527   0.721   0.397 -0.9099 -0.0479  0.6320
 2180TIP3   OH228098   4.663   0.753   2.063 -0.3933  0.0929  0.1030
 2180TIP3    H128099   4.634   0.838   2.096  0.2480  0.5406 -0.4498
 2180TIP3    H228100   4.695   0.707   2.140 -0.6182  0.4081  0.3874
 2181TIP3   OH228101   5.334   5.981   7.646 -0.0734 -0.3392 -0.7499
 2181TIP3    H128102   5.319   5.946   7.734  0.0778  0.1430 -0.5296
 2181TIP3    H228103   5.398   6.051   7.658 -1.2812  0.8636 -0.9869
 2182TIP3   OH228104   2.988   3.421   8.321  0.3251 -0.5035  0.5751
 2182TIP3    H128105   2.932   3.353   8.358 -1.0012 -0.1726 -0.7152
 2182TIP3    H228106   3.070   3.376   8.299 -0.4726 -1.6694 -0.1131
 2183TIP3   OH228107   1.846   4.405   8.158  0.3338 -0.1876 -0.5238
 2183TIP3    H128108   1.904   4.344   8.112 -0.0437  0.2147 -1.5622
 2183TIP3    H228109   1.781   4.431   8.093  2.4926  4.1252 -1.3353
 2184TIP3   OH228110   6.048   6.250   6.902 -0.0047 -0.7988 -0.0579
 2184TIP3    H128111   5.955   6.270   6.887  0.3200  1.4465  0.4240
 2184TIP3    H228112   6.095   6.320   6.856  1.3373 -0.4346  1.7288
 2185TIP3   OH228113   3.348   2.035   8.433 -0.1562  0.2361  0.1775
 2185TIP3    H128114   3.406   2.003   8.364 -0.7033  1.8508 -1.0824
 2185TIP3    H228115   3.397   2.020   8.514 -0.0952 -3.0404 -0.3397
 2186TIP3   OH228116   0.949   0.461   1.071 -0.1148  0.4580  0.4045
 2186TIP3    H128117   0.878   0.416   1.025  0.8616 -0.4648 -0.2704
 2186TIP3    H228118   0.910   0.490   1.153 -1.4751  0.6867 -0.2973
 2187TIP3   OH228119   4.515   6.384   7.344  0.3491 -0.0047  0.0669
 2187TIP3    H128120   4.565   6.465   7.341 -0.9506  0.8905  1.0111
 2187TIP3    H228121   4.475   6.384   7.431 -0.4831 -1.1610 -0.2841
 2188TIP3   OH228122   3.186   3.350   0.676 -0.5133 -0.5629 -0.5961
 2188TIP3    H128123   3.186   3.254   0.682  0.5499 -0.5484 -0.1506
 2188TIP3    H228124   3.246   3.370   0.605  0.5277 -0.1960  0.3570
 2189TIP3   OH228125   2.539   6.591   2.415 -0.1005 -0.2524  0.2792
 2189TIP3    H128126   2.532   6.504   2.375 -1.2916 -0.7443  1.4683
 2189TIP3    H228127   2.626   6.593   2.454  1.6399  0.6967 -3.2013
 2190TIP3   OH228128   3.798   1.297   1.840 -0.2992 -0.4051  0.8350
 2190TIP3    H128129   3.855   1.275   1.766  0.8880  0.7387  1.3502
 2190TIP3    H228130   3.773   1.213   1.878 -3.9940 -1.3447 -2.9383
 2191TIP3   OH228131   3.128   6.553   7.900 -0.4777 -0.0568 -0.7140
 2191TIP3    H128132   3.162   6.463   7.906 -1.0948 -0.1902  1.6157
 2191TIP3    H228133   3.035   6.541   7.883 -1.5417 -0.1543  3.9707
 2192TIP3   OH228134   5.795   3.655   0.274  0.3725 -0.2810 -0.0911
 2192TIP3    H128135   5.829   3.707   0.200  0.5298 -1.3745 -0.8045
 2192TIP3    H228136   5.716   3.615   0.240 -0.1802  0.1075  0.7177
 2193TIP3   OH228137   0.878   4.864   0.090  0.2891  0.5156  0.2323
 2193TIP3    H128138   0.937   4.939   0.085  3.0248 -1.5580 -0.8580
 2193TIP3    H228139   0.893   4.817   0.008 -1.9489 -0.8292  0.5233
 2194TIP3   OH228140   0.377   2.912   8.135 -0.4847  0.0401  0.2990
 2194TIP3    H128141   0.446   2.866   8.182  0.0491 -1.5508 -1.8621
 2194TIP3    H228142   0.423   2.980   8.085 -0.9613  1.2920  1.5077
 2195TIP3   OH228143   5.581   5.445   1.386 -0.4777 -0.2652 -0.2962
 2195TIP3    H128144   5.607   5.414   1.472 -0.4624 -0.5741 -0.4100
 2195TIP3    H228145   5.560   5.365   1.337  0.1691 -0.1436 -0.7912
 2196TIP3   OH228146   0.403   6.130   1.312  0.1439 -0.3889 -0.2586
 2196TIP3    H128147   0.337   6.061   1.326 -0.6022  0.1524 -0.9899
 2196TIP3    H228148   0.484   6.082   1.297 -0.0905 -1.0782  0.5647
 2197TIP3   OH228149   3.432   2.441   0.009 -0.0195 -0.8178  0.0028
 2197TIP3    H128150   3.355   2.392   0.041 -1.3115 -0.3000 -2.1151
 2197TIP3    H228151   3.405   2.473  -0.077  3.2683 -2.2514 -1.7227
 2198TIP3   OH228152   0.265   4.931   6.626 -0.2343  0.7969  0.4190
 2198TIP3    H128153   0.342   4.938   6.570  0.0280 -1.9181  0.3140
 2198TIP3    H228154   0.300   4.908   6.712 -0.8519  0.9765  0.7274
 2199TIP3   OH228155   1.929   5.962   0.222  0.0770  0.1841 -0.1601
 2199TIP3    H128156   2.004   6.018   0.243  0.9414 -0.6759 -0.8682
 2199TIP3    H228157   1.968   5.879   0.196 -1.1579 -0.4645  0.0068
 2200TIP3   OH228158   3.440   5.443   8.467  0.8191  0.2829  0.4291
 2200TIP3    H128159   3.493   5.404   8.536  1.3603  2.4183  1.2871
 2200TIP3    H228160   3.387   5.370   8.433  3.0387 -1.5462  0.6856
 2201TIP3   OH228161   6.209   1.728   1.432 -0.9126  0.0760  0.8550
 2201TIP3    H128162   6.130   1.766   1.470 -1.0389 -1.2492  1.9610
 2201TIP3    H228163   6.265   1.804   1.412 -1.3008  0.8907  2.6596
 2202TIP3   OH228164   0.881   4.873   1.511  0.6957 -0.1123 -0.5283
 2202TIP3    H128165   0.972   4.878   1.538  0.5628 -3.5853  1.1150
 2202TIP3    H228166   0.831   4.890   1.591  0.0872 -2.4844 -0.3269
 2203TIP3   OH228167   2.007   3.067   1.628 -0.8507  0.2670 -0.5932
 2203TIP3    H128168   2.075   3.130   1.652 -1.1882  1.0556 -1.6598
 2203TIP3    H228169   1.992   3.017   1.709  1.6303 -0.5571 -0.5639
 2204TIP3   OH228170   1.327   5.397   1.312  0.1649 -0.6174 -0.2084
 2204TIP3    H128171   1.326   5.351   1.228 -2.8793 -2.1749  0.5259
 2204TIP3    H228172   1.391   5.349   1.365 -0.3437 -1.7904 -0.6145
 2205TIP3   OH228173   2.476   5.420   8.514  0.1699 -0.0627  0.0288
 2205TIP3    H128174   2.389   5.451   8.487  0.8777  2.5227  0.4581
 2205TIP3    H228175   2.465   5.396   8.605  0.1598  1.7264  0.5521
 2206TIP3   OH228176   6.220   2.216   8.041  0.1800 -0.3931  0.4800
 2206TIP3    H128177   6.291   2.270   8.006 -0.7880 -0.1321 -1.2484
 2206TIP3    H228178   6.247   2.194   8.130  2.2082  0.0459  0.0250
 2207TIP3   OH228179   0.954   3.116   2.134  0.0801 -0.3246 -0.7132
 2207TIP3    H128180   0.944   3.054   2.207  2.2079 -0.4255 -0.4608
 2207TIP3    H228181   0.990   3.195   2.174  0.7746 -0.1913 -1.5788
 2208TIP3   OH228182   5.616   6.534   7.065 -0.0558  0.2025  0.5030
 2208TIP3    H128183   5.681   6.584   7.115 -0.8483  2.1745 -0.3237
 2208TIP3    H228184   5.551   6.507   7.129 -1.1090  2.7753  0.6400
 2209TIP3   OH228185   4.347   2.498   2.455  0.1912  0.0266  0.1364
 2209TIP3    H128186   4.283   2.441   2.413  1.4889 -0.5628 -1.1186
 2209TIP3    H228187   4.360   2.570   2.392 -0.8073  1.3085  1.3296
 2210TIP3   OH228188   5.027   5.215   6.435 -0.0282  0.2154 -0.5108
 2210TIP3    H128189   5.078   5.151   6.485  0.3726 -0.5528 -1.8266
 2210TIP3    H228190   5.081   5.231   6.357 -0.0636  2.2896 -0.1465
 2211TIP3   OH228191   2.051   2.629   7.914  0.0643  0.3264  0.3506
 2211TIP3    H128192   2.005   2.574   7.851 -1.7764  1.1002  0.9449
 2211TIP3    H228193   2.138   2.641   7.877 -0.7191  0.1537 -1.6635
 2212TIP3   OH228194   5.117   0.007   8.097 -0.0191 -0.2751  0.0984
 2212TIP3    H128195   5.201   0.024   8.054 -0.1976 -0.3922 -0.2949
 2212TIP3    H228196   5.139   0.002   8.190  0.4973 -0.8251 -0.0427
 2213TIP3   OH228197   0.930   4.783   7.357 -0.3877  0.1921 -0.0729
 2213TIP3    H128198   0.929   4.693   7.324  0.7775 -0.3301  1.2148
 2213TIP3    H228199   0.866   4.783   7.428  2.0898 -0.6838  2.3495
 2214TIP3   OH228200   4.400   3.304   0.547 -0.5852  0.2437 -0.0521
 2214TIP3    H128201   4.439   3.238   0.489  0.9889  0.0008  1.2236
 2214TIP3    H228202   4.382   3.378   0.489  1.6101  0.2752 -0.7779
 2215TIP3   OH228203   2.315   4.879   0.380 -0.1430 -0.0480 -0.9918
 2215TIP3    H128204   2.262   4.934   0.439  0.7048 -0.4685  0.2017
 2215TIP3    H228205   2.341   4.938   0.310 -0.4655  0.7013 -0.5018
 2216TIP3   OH228206   2.241   2.236   8.074 -0.0852  0.7407 -0.0443
 2216TIP3    H128207   2.192   2.157   8.096 -0.1681  0.0087 -2.6074
 2216TIP3    H228208   2.174   2.305   8.072 -0.1441  0.7573  1.3778
 2217TIP3   OH228209   1.373   4.103   8.866  0.3284  0.3789  0.1892
 2217TIP3    H128210   1.289   4.057   8.859  0.5515 -0.0912  0.5453
 2217TIP3    H228211   1.437   4.034   8.881  1.4767  0.2003 -4.1946
 2218TIP3   OH228212   3.701   0.660   7.686  0.3849  0.4849 -0.3806
 2218TIP3    H128213   3.754   0.686   7.761  1.9934 -1.7232 -0.6620
 2218TIP3    H228214   3.629   0.723   7.685  0.1706  0.5028  3.1113
 2219TIP3   OH228215   0.229   2.930   7.879 -0.3814  0.2300  0.2516
 2219TIP3    H128216   0.303   2.988   7.898  0.8295 -1.5159  1.1178
 2219TIP3    H228217   0.190   2.913   7.965  0.9112 -2.2835  0.4063
 2220TIP3   OH228218   2.822   6.615   8.753 -0.3495 -0.4552  0.1929
 2220TIP3    H128219   2.788   6.528   8.776  1.2509 -0.6451  2.0854
 2220TIP3    H228220   2.762   6.646   8.685 -1.0403 -2.9886 -0.4919
 2221TIP3   OH228221   1.386   5.451   7.455 -0.6696 -0.0595  0.2145
 2221TIP3    H128222   1.370   5.420   7.366 -1.6201  1.2511 -0.1090
 2221TIP3    H228223   1.439   5.383   7.495 -0.8354 -1.0206 -1.1257
 2222TIP3   OH228224   3.526   1.355   2.010  0.2850  0.2333 -0.0253
 2222TIP3    H128225   3.476   1.328   2.088  0.3474  0.6816  0.1758
 2222TIP3    H228226   3.460   1.362   1.941  0.0186  1.0160  0.2856
 2223TIP3   OH228227   6.578   3.385   2.168  0.5099 -0.1488  0.0187
 2223TIP3    H128228   6.662   3.400   2.211  1.2430 -0.1634 -1.3566
 2223TIP3    H228229   6.589   3.302   2.122 -0.3613 -0.2929  0.0590
 2224TIP3   OH228230   1.354   5.292   1.012  0.0011  0.1736 -0.0534
 2224TIP3    H128231   1.262   5.277   1.035  0.0064 -0.0547 -0.1902
 2224TIP3    H228232   1.368   5.242   0.932  0.6652 -1.0762  0.8136
 2225TIP3   OH228233   5.036   6.753   0.267  0.1522 -0.1197 -0.6072
 2225TIP3    H128234   5.116   6.702   0.261  1.1950  1.5541 -1.7340
 2225TIP3    H228235   5.048   6.824   0.205 -2.2973  0.0911 -0.9457
 2226TIP3   OH228236   3.379   5.309   7.424  0.0229  0.5667  0.2399
 2226TIP3    H128237   3.384   5.227   7.473  0.1998 -0.1929 -0.9805
 2226TIP3    H228238   3.422   5.374   7.480 -0.5369 -0.0619  1.4290
 2227TIP3   OH228239   1.972   6.078   7.990 -0.3015 -0.1298 -0.0628
 2227TIP3    H128240   1.934   5.991   8.000  0.0016 -0.1850  0.6252
 2227TIP3    H228241   1.946   6.125   8.069 -0.9992  0.6162 -0.7078
 2228TIP3   OH228242   0.066   2.433   0.665 -0.4051 -0.3345  0.2266
 2228TIP3    H128243  -0.009   2.487   0.643  0.4384  0.7278 -0.1111
 2228TIP3    H228244   0.068   2.432   0.761  0.7221  1.9619  0.2960
 2229TIP3   OH228245   0.077   5.352   1.155 -0.0056 -0.6061  0.1706
 2229TIP3    H128246   0.089   5.445   1.174 -0.5476 -0.8243  1.7121
 2229TIP3    H228247   0.096   5.308   1.238  1.5333 -2.0060 -0.8407
 2230TIP3   OH228248   1.167   2.287   2.307 -0.6949  0.1588  0.1700
 2230TIP3    H128249   1.205   2.353   2.365 -1.5007  1.7318 -1.0299
 2230TIP3    H228250   1.243   2.242   2.269 -0.0731  1.5947 -0.3322
 2231TIP3   OH228251   0.805   6.294   8.310 -0.0580  0.5448 -0.1267
 2231TIP3    H128252   0.772   6.225   8.252  2.9057 -0.9358 -0.2102
 2231TIP3    H228253   0.841   6.247   8.385 -1.3033  2.2821  1.6496
 2232TIP3   OH228254   6.111   2.672   0.134  0.6324 -0.1807 -0.4562
 2232TIP3    H128255   6.198   2.711   0.129  0.8751 -0.8819 -3.0219
 2232TIP3    H228256   6.073   2.687   0.047 -0.8288 -2.0656 -0.2017
 2233TIP3   OH228257   1.533   0.323   6.720  0.1866 -0.0458 -0.0132
 2233TIP3    H128258   1.505   0.414   6.734 -0.5391 -0.0835 -1.1298
 2233TIP3    H228259   1.594   0.306   6.792  0.2678  1.2932  0.2653
 2234TIP3   OH228260   4.402   4.224   7.491 -0.3452 -0.0476 -0.3163
 2234TIP3    H128261   4.452   4.235   7.410 -0.7537 -0.7792 -0.6733
 2234TIP3    H228262   4.462   4.255   7.560  0.9322 -1.6425 -0.6363
 2235TIP3   OH228263   4.774   2.791   0.050  0.0628  0.7651 -0.3701
 2235TIP3    H128264   4.846   2.841   0.010  0.5030 -0.2631 -0.8919
 2235TIP3    H228265   4.703   2.797  -0.013  0.6209 -0.5131 -1.1479
 2236TIP3   OH228266   2.454   2.138   2.182 -0.4118 -0.5429 -0.0076
 2236TIP3    H128267   2.489   2.226   2.173 -2.0513  0.1136 -0.2705
 2236TIP3    H228268   2.436   2.109   2.093 -0.7205 -0.7857  0.1299
 2237TIP3   OH228269   4.584   1.477   1.342 -0.3950 -0.2931 -0.5343
 2237TIP3    H128270   4.546   1.532   1.273 -0.9001 -0.1082 -0.1155
 2237TIP3    H228271   4.678   1.485   1.330 -0.4636  0.5836 -0.5517
 2238TIP3   OH228272   0.937   3.731   6.709 -0.3594  0.0010 -0.2626
 2238TIP3    H128273   0.908   3.646   6.741 -0.9912 -0.1351 -1.1429
 2238TIP3    H228274   0.865   3.761   6.653  0.9730 -0.0879 -2.0917
 2239TIP3   OH228275   1.708   4.147   1.655  0.5669 -0.4068  0.4675
 2239TIP3    H128276   1.718   4.210   1.726 -0.6957  0.6854 -0.2687
 2239TIP3    H228277   1.729   4.197   1.576 -0.6192 -0.8379 -0.1471
 2240TIP3   OH228278   5.591   1.520   1.585 -1.3974  0.1779 -0.4022
 2240TIP3    H128279   5.661   1.585   1.594 -2.5178  1.1784  1.6928
 2240TIP3    H228280   5.633   1.437   1.609 -0.7542  0.6506  0.1495
 2241TIP3   OH228281   3.487   1.402   6.499  0.1210 -0.4149 -0.7171
 2241TIP3    H128282   3.467   1.493   6.475 -1.3012 -0.7907 -1.0191
 2241TIP3    H228283   3.577   1.406   6.532 -0.4400  1.3956  0.8203
 2242TIP3   OH228284   0.097   1.715   2.068 -0.1120  0.0609 -0.4665
 2242TIP3    H128285   0.035   1.642   2.065 -1.1946  0.9589 -0.6937
 2242TIP3    H228286   0.042   1.793   2.076  1.0101  0.8669 -0.3365
 2243TIP3   OH228287   5.260   0.942   1.470  0.1596 -0.0151 -0.6071
 2243TIP3    H128288   5.350   0.953   1.501 -0.1190  0.7275 -0.0242
 2243TIP3    H228289   5.248   1.012   1.406  0.2395 -0.6106 -1.2963
 2244TIP3   OH228290   2.698   1.158   7.230 -0.2424 -0.6790 -0.3409
 2244TIP3    H128291   2.756   1.101   7.281 -0.7913  0.3767  1.5555
 2244TIP3    H228292   2.758   1.214   7.181  0.3712 -0.3109  0.7797
 2245TIP3   OH228293   1.213   0.742   8.802  0.3974  0.2245  0.4907
 2245TIP3    H128294   1.218   0.704   8.714 -1.7754  0.9304 -0.0036
 2245TIP3    H228295   1.245   0.673   8.860  0.2556 -0.8873 -0.7127
 2246TIP3   OH228296   5.095   1.535   1.916  0.1075 -0.5837 -0.0807
 2246TIP3    H128297   5.025   1.485   1.874  1.3775 -2.3472 -0.2165
 2246TIP3    H228298   5.053   1.576   1.991 -0.9250 -2.2820  0.3203
 2247TIP3   OH228299   5.458   4.548   7.434 -0.2372  0.2700  0.9337
 2247TIP3    H128300   5.388   4.613   7.437  0.8158  1.3962  2.2168
 2247TIP3    H228301   5.507   4.569   7.355 -1.3757 -0.5893 -0.0286
 2248TIP3   OH228302   0.184   5.352   8.387  0.0032  0.2404  0.3965
 2248TIP3    H128303   0.279   5.341   8.397  0.3639  1.4787 -1.2283
 2248TIP3    H228304   0.163   5.426   8.445 -0.4152 -1.3866  2.4491
 2249TIP3   OH228305   4.064   4.620   7.949 -0.5189 -0.3550 -0.0006
 2249TIP3    H128306   4.098   4.692   8.002 -1.7599 -2.0980  3.5189
 2249TIP3    H228307   4.141   4.571   7.922  0.1905 -0.9791  2.7977
 2250TIP3   OH228308   3.816   1.441   7.677  0.3657  0.0774 -0.4998
 2250TIP3    H128309   3.853   1.412   7.593  1.1951 -0.8635  0.1674
 2250TIP3    H228310   3.887   1.490   7.718  0.1494  0.0639 -0.1086
 2251TIP3   OH228311   0.790   1.923   8.551 -0.1337 -0.2686  0.0718
 2251TIP3    H128312   0.807   1.830   8.562 -1.5577 -0.5589  0.0650
 2251TIP3    H228313   0.816   1.942   8.461  0.9005 -0.4709  0.3223
 2252TIP3   OH228314   4.224   0.406   2.346 -0.6639  0.0562  0.1302
 2252TIP3    H128315   4.188   0.345   2.411 -0.8615 -1.1640 -1.0847
 2252TIP3    H228316   4.273   0.351   2.286  2.2729  1.5276  0.9911
 2253TIP3   OH228317   1.637   6.640   0.724 -0.4297 -0.5485  0.7905
 2253TIP3    H128318   1.587   6.574   0.676 -1.6403  0.8679 -0.0177
 2253TIP3    H228319   1.586   6.721   0.712  1.4265  0.7128  0.9949
 2254TIP3   OH228320   1.346   1.148   7.542  0.5729 -0.1674  0.1379
 2254TIP3    H128321   1.406   1.122   7.472  1.8222 -2.6433  1.9768
 2254TIP3    H228322   1.399   1.145   7.622 -1.0142  1.6846  1.3769
 2255TIP3   OH228323   4.237   3.389   8.526 -0.0961  0.1963  0.3628
 2255TIP3    H128324   4.268   3.407   8.615 -2.0813  2.6545  0.6666
 2255TIP3    H228325   4.185   3.309   8.534  1.0981 -0.5560  1.0167
 2256TIP3   OH228326   6.408   2.753   1.552  0.0916 -0.0777 -0.1108
 2256TIP3    H128327   6.344   2.823   1.559 -0.6450 -0.7482  0.0163
 2256TIP3    H228328   6.361   2.680   1.511  1.2059 -0.0648 -1.5193
 2257TIP3   OH228329   3.145   3.679   7.345 -0.0792 -0.2088  0.0014
 2257TIP3    H128330   3.219   3.684   7.284 -0.4086  0.1117 -0.3819
 2257TIP3    H228331   3.151   3.592   7.384  0.3710 -0.2666 -0.1914
 2258TIP3   OH228332   3.728   5.573   2.042  0.3765  0.0003  0.3659
 2258TIP3    H128333   3.633   5.571   2.028  0.3055  0.1892  0.7840
 2258TIP3    H228334   3.743   5.657   2.086  0.6374 -0.3759  1.0016
 2259TIP3   OH228335   2.615   2.449   7.635 -0.3780 -0.1755 -0.3863
 2259TIP3    H128336   2.541   2.412   7.683 -0.4847  1.6117  0.9466
 2259TIP3    H228337   2.583   2.534   7.605 -0.3784 -1.2580 -3.8756
 2260TIP3   OH228338   6.726   5.662   8.593  0.4292  0.2238  0.3058
 2260TIP3    H128339   6.785   5.587   8.594  2.3189  1.6240 -0.1459
 2260TIP3    H228340   6.665   5.647   8.665  2.2051 -0.6497  1.6818
 2261TIP3   OH228341   5.762   5.822   8.287  0.1413 -0.6598 -0.0373
 2261TIP3    H128342   5.785   5.818   8.380  1.2848 -0.1702 -0.2875
 2261TIP3    H228343   5.825   5.883   8.249 -0.0480 -1.1722 -1.2214
 2262TIP3   OH228344   2.614   6.560   7.003 -0.6146  0.0200  0.3030
 2262TIP3    H128345   2.585   6.498   6.936  2.1310 -0.3378 -0.7110
 2262TIP3    H228346   2.617   6.645   6.958 -0.9237  0.2079  0.6348
 2263TIP3   OH228347   6.212   0.097   8.135 -0.2085 -0.1020 -0.1881
 2263TIP3    H128348   6.297   0.136   8.117 -0.7100  0.6465 -1.0835
 2263TIP3    H228349   6.153   0.172   8.147 -0.6174 -0.6029  1.1155
 2264TIP3   OH228350   1.308   4.055   7.504  0.4825  0.3072  0.3742
 2264TIP3    H128351   1.214   4.067   7.514  0.5311  0.4698  0.6684
 2264TIP3    H228352   1.321   4.040   7.411 -0.0053 -1.3859  0.5489
 2265TIP3   OH228353   0.341   0.508   1.818  0.6247  0.8315 -0.2347
 2265TIP3    H128354   0.273   0.455   1.861  1.9703  0.9869  2.3117
 2265TIP3    H228355   0.301   0.536   1.736 -1.1612 -1.7902 -0.4068
 2266TIP3   OH228356   5.709   6.373   7.731 -0.1873  0.1484  0.2849
 2266TIP3    H128357   5.789   6.326   7.708 -1.0423 -0.7514 -0.9900
 2266TIP3    H228358   5.642   6.305   7.737 -1.4088  1.1303 -1.3559
 2267TIP3   OH228359   4.718   4.327   8.226 -0.7612  0.2624  0.2192
 2267TIP3    H128360   4.669   4.344   8.307  0.0681  2.0202  0.3940
 2267TIP3    H228361   4.796   4.382   8.234  0.3698 -1.1400 -0.8547
 2268TIP3   OH228362   5.676   2.637   0.814 -0.0552 -0.7982 -0.1142
 2268TIP3    H128363   5.715   2.636   0.727 -0.0395  0.9151 -0.1608
 2268TIP3    H228364   5.591   2.679   0.802 -0.5204 -1.5355  0.5246
 2269TIP3   OH228365   3.716   5.837   2.449 -0.1150  0.0852  0.3425
 2269TIP3    H128366   3.645   5.798   2.397  0.5744  0.1559 -0.6855
 2269TIP3    H228367   3.678   5.918   2.484 -0.4215  0.3470 -0.5589
 2270TIP3   OH228368   4.006   5.325   7.737  0.3396  0.5241  0.3105
 2270TIP3    H128369   3.964   5.295   7.818  0.6678 -0.4321  0.1315
 2270TIP3    H228370   4.044   5.410   7.760 -0.2329  0.6198  0.9382
 2271TIP3   OH228371   0.263   4.043   0.624 -0.0356 -0.0157 -0.3658
 2271TIP3    H128372   0.344   4.024   0.670 -0.4691  1.1089  0.9391
 2271TIP3    H228373   0.212   3.961   0.631  0.1235 -0.0433  0.7325
 2272TIP3   OH228374   3.986   2.121   8.528 -0.0135 -0.0730 -0.1772
 2272TIP3    H128375   4.054   2.093   8.589 -1.7128 -0.9800  1.3848
 2272TIP3    H228376   4.024   2.197   8.483  1.5193  0.2968  1.6202
 2273TIP3   OH228377   3.899   4.134   0.591 -0.1489 -0.2134 -0.2133
 2273TIP3    H128378   3.803   4.133   0.597 -0.1389 -1.2743  0.0619
 2273TIP3    H228379   3.918   4.175   0.507 -0.9092 -1.5406 -1.0680
 2274TIP3   OH228380   2.103   5.896   7.525  0.6970  0.1606 -0.5668
 2274TIP3    H128381   2.173   5.848   7.570 -0.0509 -0.3925  0.0403
 2274TIP3    H228382   2.137   5.912   7.438  1.7109  0.1887 -0.1782
 2275TIP3   OH228383   5.507   4.087   2.175  0.4015  0.1608 -0.5072
 2275TIP3    H128384   5.545   4.169   2.208 -1.2328  1.2585 -1.2255
 2275TIP3    H228385   5.502   4.100   2.080  1.8661 -1.5661 -0.8723
 2276TIP3   OH228386   5.409   3.770   2.264  0.0093 -0.7600  0.1036
 2276TIP3    H128387   5.449   3.853   2.289  1.1318 -1.4897  0.7905
 2276TIP3    H228388   5.318   3.778   2.293  0.3537 -0.1447  1.0453
 2277TIP3   OH228389   1.640   4.301   6.995 -0.0656  0.5736 -0.3126
 2277TIP3    H128390   1.600   4.228   6.948 -1.0673  1.4613 -0.8714
 2277TIP3    H228391   1.653   4.369   6.928  0.4419  1.0828  0.2861
 2278TIP3   OH228392   5.504   2.673   1.251 -0.4189 -0.2742 -0.1841
 2278TIP3    H128393   5.485   2.580   1.240 -1.7540 -0.3024  1.7545
 2278TIP3    H228394   5.594   2.675   1.285 -1.0760 -1.0702  1.7722
 2279TIP3   OH228395   5.889   3.096   8.543  0.2053 -0.2617 -0.4863
 2279TIP3    H128396   5.951   3.041   8.494  0.6113  0.7443 -1.1327
 2279TIP3    H228397   5.945   3.155   8.593 -0.1940 -1.6401  1.6912
 2280TIP3   OH228398   6.039   1.934   8.681 -0.1264 -0.2850 -0.0847
 2280TIP3    H128399   5.956   1.979   8.697 -0.6288 -1.0607 -0.4227
 2280TIP3    H228400   6.021   1.843   8.705  1.4711  0.0363  2.6018
 2281TIP3   OH228401   2.741   1.613   7.160 -0.0840 -0.1449  0.2151
 2281TIP3    H128402   2.816   1.664   7.132  0.3139  0.7115  2.5704
 2281TIP3    H228403   2.673   1.630   7.095  1.0643  0.8215 -0.7543
 2282TIP3   OH228404   0.812   4.924   7.151  0.2898  0.1593 -0.0632
 2282TIP3    H128405   0.748   4.853   7.143  1.7963 -1.1679 -0.8990
 2282TIP3    H228406   0.876   4.892   7.214  0.1035  1.5286  0.8678
 2283TIP3   OH228407   5.191   3.861   0.094 -0.0926 -0.3974  0.0949
 2283TIP3    H128408   5.146   3.854   0.179 -2.0183  0.4068 -0.8011
 2283TIP3    H228409   5.120   3.866   0.030  1.3257 -0.8814 -1.5748
 2284TIP3   OH228410   0.483   6.521   0.120  0.6506  0.0013 -0.0553
 2284TIP3    H128411   0.460   6.583   0.051  1.7313 -0.6269 -1.0152
 2284TIP3    H228412   0.479   6.436   0.078  0.6776 -0.4559  0.8431
 2285TIP3   OH228413   2.447   2.971   2.051 -0.2199  0.6660 -0.2023
 2285TIP3    H128414   2.401   3.039   2.100 -0.2445  0.5542 -0.0705
 2285TIP3    H228415   2.406   2.889   2.078  1.0834  0.4055  1.1252
 2286TIP3   OH228416   6.199   0.570   6.191 -0.0320  0.1247 -1.1543
 2286TIP3    H128417   6.146   0.621   6.252  1.6791 -0.3780  0.8838
 2286TIP3    H228418   6.141   0.501   6.159 -0.8998  0.2343  0.1298
 2287TIP3   OH228419   6.187   2.341   0.061 -0.0736  0.0905 -0.2565
 2287TIP3    H128420   6.211   2.429   0.032  1.1451 -0.6703 -1.6633
 2287TIP3    H228421   6.245   2.324   0.135  2.0674 -0.7072 -1.9894
 2288TIP3   OH228422   3.577   1.540   1.788 -0.3379  0.3277 -0.4807
 2288TIP3    H128423   3.562   1.593   1.709  0.8203  0.0902 -0.8753
 2288TIP3    H228424   3.539   1.455   1.767 -0.8569  0.5394 -0.4194
 2289TIP3   OH228425   6.508   4.434   8.123  0.1441 -0.0486 -0.1758
 2289TIP3    H128426   6.557   4.461   8.046  0.8823 -0.4799  0.1264
 2289TIP3    H228427   6.485   4.515   8.167 -0.6600  0.2205 -1.0718
 2290TIP3   OH228428   5.530   2.065   7.092  0.4353  0.4220 -0.2557
 2290TIP3    H128429   5.493   2.087   7.007 -0.2099 -2.2496 -0.7354
 2290TIP3    H228430   5.624   2.064   7.078  0.4276  1.5975 -0.4892
 2291TIP3   OH228431   6.216   0.011   7.811  0.6396  0.0004  1.0943
 2291TIP3    H128432   6.139  -0.011   7.863  0.3257 -2.7029 -0.3417
 2291TIP3    H228433   6.290  -0.011   7.867  0.3224 -0.4202  1.3570
 2292TIP3   OH228434   4.921   4.946   0.071  0.1538 -0.3944  0.1762
 2292TIP3    H128435   4.895   4.857   0.098  1.1271 -1.1964 -1.4068
 2292TIP3    H228436   4.838   4.993   0.062 -0.3402 -0.8072  1.9926
 2293TIP3   OH228437   3.354   5.150   1.212  0.2363  0.1929  0.1606
 2293TIP3    H128438   3.440   5.183   1.241  1.2564  1.1665 -3.4828
 2293TIP3    H228439   3.370   5.058   1.191 -0.3597 -0.3592  1.9733
 2294TIP3   OH228440   4.154   5.867   0.337  0.3915  0.3104  0.1160
 2294TIP3    H128441   4.164   5.923   0.260  1.6461 -1.0913 -0.7954
 2294TIP3    H228442   4.220   5.899   0.398 -0.1716  1.0126  0.3700
 2295TIP3   OH228443   3.502   3.035   8.420  0.3662  0.1158 -0.8082
 2295TIP3    H128444   3.585   2.987   8.412 -0.0497 -0.7105 -0.2882
 2295TIP3    H228445   3.523   3.110   8.476  0.4671 -0.8444  0.4731
 2296TIP3   OH228446   2.734   4.145   0.903  0.5469 -0.1046 -0.4540
 2296TIP3    H128447   2.661   4.205   0.890  2.5459  2.6275  0.0068
 2296TIP3    H228448   2.796   4.167   0.833  1.0535 -2.1849 -0.7155
 2297TIP3   OH228449   0.850   6.169   7.798  0.0605 -0.5134 -0.1422
 2297TIP3    H128450   0.908   6.240   7.769  0.5501 -0.6135  0.5437
 2297TIP3    H228451   0.794   6.210   7.864 -2.1058  0.1022 -2.2587
 2298TIP3   OH228452   1.018   1.270   7.033 -0.0712 -0.3143  0.0324
 2298TIP3    H128453   0.978   1.247   7.117 -0.8591 -1.1886 -0.5614
 2298TIP3    H228454   0.972   1.216   6.969  0.3676  0.5038 -0.9996
 2299TIP3   OH228455   6.005   6.716   8.017  0.3432 -0.5559  0.4149
 2299TIP3    H128456   6.070   6.772   8.060  3.2656 -2.1557 -1.5615
 2299TIP3    H228457   6.032   6.627   8.040 -0.9291 -1.2991 -0.8495
 2300TIP3   OH228458   0.504   3.788   2.552 -0.6933 -0.0131 -0.5942
 2300TIP3    H128459   0.409   3.782   2.550 -0.7761  0.5219  0.7492
 2300TIP3    H228460   0.532   3.719   2.611 -0.3102  0.3610 -0.3324
 2301TIP3   OH228461   0.828   2.126   1.168 -0.2195  0.2735  0.1422
 2301TIP3    H128462   0.852   2.100   1.258 -1.5041  1.3451  0.8312
 2301TIP3    H228463   0.745   2.080   1.152 -0.3590  0.6550 -0.2258
 2302TIP3   OH228464   3.620   3.744   1.209  0.2412  0.0792 -0.6033
 2302TIP3    H128465   3.637   3.684   1.281 -1.3631  0.4043  0.0954
 2302TIP3    H228466   3.662   3.703   1.133 -0.1260 -1.5151  0.0115
 2303TIP3   OH228467   3.185   4.896   0.357 -0.2379 -0.3579  0.3757
 2303TIP3    H128468   3.186   4.990   0.376  1.3436 -0.1048 -0.7356
 2303TIP3    H228469   3.205   4.854   0.441 -1.7990  0.2116  1.0726
 2304TIP3   OH228470   4.296   3.728   1.077 -0.1580  0.0922 -0.5920
 2304TIP3    H128471   4.296   3.741   0.982 -1.1425  2.6085 -0.3368
 2304TIP3    H228472   4.309   3.816   1.113 -1.9758 -0.4394  1.5975
 2305TIP3   OH228473   1.529   4.716   1.080  0.0216  0.3473 -0.1318
 2305TIP3    H128474   1.573   4.789   1.037 -0.0313  0.1725 -0.4861
 2305TIP3    H228475   1.479   4.757   1.151  0.9395  0.5189  0.4340
 2306TIP3   OH228476   5.958   1.437   0.764  0.2100  0.1713 -0.5678
 2306TIP3    H128477   5.958   1.418   0.858 -0.9891  1.0039 -0.3792
 2306TIP3    H228478   5.988   1.528   0.758  0.9060 -0.0798 -1.0557
 2307TIP3   OH228479   2.621   2.012   0.125  0.1821 -0.2895  0.0398
 2307TIP3    H128480   2.593   2.100   0.148 -0.8334 -0.0898 -1.7626
 2307TIP3    H228481   2.715   2.012   0.141 -0.1017  0.4951  1.8700
 2308TIP3   OH228482   2.299   1.461   7.547 -0.0574 -0.1847 -0.4521
 2308TIP3    H128483   2.267   1.514   7.620  0.5497 -1.0153  0.4626
 2308TIP3    H228484   2.240   1.480   7.475 -1.2306 -0.0028  0.5273
 2309TIP3   OH228485   0.523   2.132   1.485 -0.5954 -0.0168 -0.1801
 2309TIP3    H128486   0.474   2.213   1.500  0.2816  0.1930  1.8851
 2309TIP3    H228487   0.574   2.119   1.565  0.8050 -1.5648 -1.2386
 2310TIP3   OH228488   5.628   1.833   7.932 -0.4199  0.6881 -0.3907
 2310TIP3    H128489   5.710   1.845   7.980 -1.4144 -2.4044  2.5146
 2310TIP3    H228490   5.633   1.743   7.899 -2.4513  0.5620 -0.4745
 2311TIP3   OH228491   3.209   5.598   1.966  0.0323  0.0520  0.2118
 2311TIP3    H128492   3.157   5.629   1.892  1.4820  0.7930 -0.5246
 2311TIP3    H228493   3.153   5.615   2.042 -0.7384  0.9819 -0.5244
 2312TIP3   OH228494   6.458   3.117   7.654 -0.3844  0.2728  0.3736
 2312TIP3    H128495   6.463   3.025   7.630 -0.4032 -0.2876  2.2913
 2312TIP3    H228496   6.546   3.151   7.641 -0.5236  0.1806 -0.9397
 2313TIP3   OH228497   3.815   1.212   0.930  0.1250 -0.5210  0.5103
 2313TIP3    H128498   3.870   1.280   0.890 -1.8041  1.6632  1.2890
 2313TIP3    H228499   3.864   1.182   1.006  0.6525  0.6838  0.6669
 2314TIP3   OH228500   2.116   1.740   7.610 -0.2583 -0.3121 -0.2294
 2314TIP3    H128501   2.131   1.834   7.598 -0.5402 -0.2409 -0.0426
 2314TIP3    H228502   2.118   1.727   7.705  1.8740 -0.8505 -0.2966
 2315TIP3   OH228503   3.104   3.811   0.706  0.1393  0.0499  0.1668
 2315TIP3    H128504   3.120   3.737   0.766  0.0478  0.3780  0.6021
 2315TIP3    H228505   3.074   3.882   0.763  0.3907  0.4794 -0.2269
 2316TIP3   OH228506   4.584   5.733   7.909  0.2995 -0.2127  0.1139
 2316TIP3    H128507   4.613   5.816   7.946 -0.3588  0.0794 -0.0119
 2316TIP3    H228508   4.647   5.669   7.943 -0.4181 -0.0071  1.9734
 2317TIP3   OH228509   1.497   3.004   1.462 -0.1209  0.6362  0.2039
 2317TIP3    H128510   1.525   3.061   1.391  1.6434 -2.8871 -2.2800
 2317TIP3    H228511   1.578   2.965   1.494 -1.1369  0.2154  2.4413
 2318TIP3   OH228512   2.649   0.394   6.624 -0.4268 -0.1714 -0.0562
 2318TIP3    H128513   2.572   0.376   6.678 -0.2849 -2.4062 -0.5310
 2318TIP3    H228514   2.720   0.408   6.688 -0.5127 -1.6129  0.3939
 2319TIP3   OH228515   0.074   0.903   7.604 -0.4888 -0.0862 -0.1236
 2319TIP3    H128516  -0.013   0.895   7.643 -1.0761  2.0666 -0.8771
 2319TIP3    H228517   0.122   0.827   7.638 -2.4020 -0.8966  0.9318
 2320TIP3   OH228518   1.187   2.361   7.047  0.2065  0.6665 -0.4200
 2320TIP3    H128519   1.098   2.333   7.068  0.4394  1.9520  2.7753
 2320TIP3    H228520   1.237   2.280   7.042 -0.9337 -0.0171 -1.3474
 2321TIP3   OH228521   2.262   1.918   2.341 -0.4752  0.0705 -0.5851
 2321TIP3    H128522   2.212   1.843   2.374  0.5187 -0.9596 -1.3298
 2321TIP3    H228523   2.218   1.944   2.261 -0.7268  0.1798 -0.4117
 2322TIP3   OH228524   5.420   0.080   1.443  0.2216 -0.0102 -0.4151
 2322TIP3    H128525   5.350   0.121   1.391 -0.3086 -1.1320 -0.6247
 2322TIP3    H228526   5.494   0.075   1.383 -0.2993 -1.0404 -0.9979
 2323TIP3   OH228527   4.184   4.062   1.529  0.1279 -0.0627 -0.5477
 2323TIP3    H128528   4.184   3.987   1.588 -0.3945  0.2369 -0.1560
 2323TIP3    H228529   4.138   4.030   1.451 -0.4266 -0.0457 -0.2352
 2324TIP3   OH228530   6.392   0.996   8.310  0.7067 -0.1523  0.1140
 2324TIP3    H128531   6.374   0.982   8.217 -0.2021 -2.1962  0.5416
 2324TIP3    H228532   6.459   0.933   8.332  0.8816  0.2832  0.8671
 2325TIP3   OH228533   3.236   5.841   6.864 -0.3509 -0.8014  0.2637
 2325TIP3    H128534   3.317   5.822   6.912  0.1292 -0.2073 -0.3027
 2325TIP3    H228535   3.222   5.935   6.877 -0.6843 -0.8041 -0.0600
 2326TIP3   OH228536   6.276   4.048   1.943  0.2230  0.8063  0.4714
 2326TIP3    H128537   6.293   4.107   1.870 -0.1997  0.7579  0.3266
 2326TIP3    H228538   6.226   3.976   1.904  0.6957  0.3752  0.6560
 2327TIP3   OH228539   5.723   5.992   7.092  0.1567  0.2396 -0.2050
 2327TIP3    H128540   5.777   6.066   7.121 -0.3049  0.5585 -0.1403
 2327TIP3    H228541   5.737   5.925   7.158  1.3010 -0.0800 -0.7580
 2328TIP3   OH228542   5.492   3.799   8.088  0.2307 -0.3328  0.0695
 2328TIP3    H128543   5.458   3.876   8.132 -0.5995 -0.6713  0.0503
 2328TIP3    H228544   5.419   3.769   8.033  0.3148 -1.4893  0.5613
 2329TIP3   OH228545   1.338   2.318   7.647  0.4303  0.3153 -0.2750
 2329TIP3    H128546   1.377   2.286   7.566  0.6067  2.2005 -0.9956
 2329TIP3    H228547   1.412   2.331   7.706  0.5804  1.0391 -0.6049
 2330TIP3   OH228548   2.927   0.855   2.134 -0.4075 -0.1036  0.1003
 2330TIP3    H128549   2.862   0.909   2.179  0.1843  0.4910  0.2508
 2330TIP3    H228550   2.929   0.888   2.045  1.8569  1.9837  0.8034
 2331TIP3   OH228551   6.283   0.102   1.012  0.5336 -0.5276  0.5580
 2331TIP3    H128552   6.214   0.168   1.009 -0.2698 -1.3280  1.0473
 2331TIP3    H228553   6.287   0.076   1.104  1.6193 -0.3598  0.5671
 2332TIP3   OH228554   1.919   6.049   1.620  0.2803 -0.8317 -0.0591
 2332TIP3    H128555   1.972   6.072   1.697  1.7753 -1.1269 -0.9530
 2332TIP3    H228556   1.860   6.123   1.609  0.9434 -0.1780  0.6007
 2333TIP3   OH228557   6.662   6.642   0.466  0.2437  0.2905 -0.5824
 2333TIP3    H128558   6.571   6.646   0.435 -0.1387 -0.0198  0.4730
 2333TIP3    H228559   6.690   6.553   0.445 -0.3324 -0.2376  0.7781
 2334TIP3   OH228560   0.565   5.394   7.144  0.0825  0.0807  0.7391
 2334TIP3    H128561   0.470   5.381   7.151 -0.1082  1.0480  0.0997
 2334TIP3    H228562   0.589   5.347   7.064 -0.4949  2.7834 -1.1774
 2335TIP3   OH228563   6.641   2.371   8.639 -0.2744  0.3521 -0.1480
 2335TIP3    H128564   6.665   2.279   8.624  0.1739  0.3121  0.7490
 2335TIP3    H228565   6.591   2.396   8.561 -1.1460 -0.9084 -0.0171
 2336TIP3   OH228566   6.073   0.305   1.911  0.1118  0.2011 -0.1615
 2336TIP3    H128567   5.992   0.288   1.863  1.3081  2.0288 -3.0887
 2336TIP3    H228568   6.131   0.233   1.886  0.7306  1.1466 -1.5666
 2337TIP3   OH228569   6.066   0.197   2.592  0.1870 -0.2318  0.3872
 2337TIP3    H128570   6.083   0.233   2.505  1.4866  0.8421  1.0641
 2337TIP3    H228571   6.101   0.108   2.589  1.6828  0.3371  0.2767
 2338TIP3   OH228572   0.387   1.584   8.815  0.2413 -0.4000  0.1556
 2338TIP3    H128573   0.471   1.619   8.784  0.1672 -1.1318 -0.9168
 2338TIP3    H228574   0.328   1.595   8.741 -0.4421 -0.5061  0.6782
 2339TIP3   OH228575   2.835   1.422   2.039 -0.1629 -0.9116  0.2248
 2339TIP3    H128576   2.796   1.508   2.027  0.8726 -0.0744  2.2868
 2339TIP3    H228577   2.883   1.405   1.958 -0.9602  0.1112 -0.4825
 2340TIP3   OH228578   5.745   4.181   2.643 -0.1828 -0.7017 -0.3438
 2340TIP3    H128579   5.718   4.091   2.628 -1.9757 -0.3145  0.2790
 2340TIP3    H228580   5.767   4.184   2.736 -2.4535 -0.0356  0.2624
 2341TIP3   OH228581   5.769   2.848   0.386  0.0228  0.6456  0.4967
 2341TIP3    H128582   5.811   2.909   0.325  0.4901  0.3551  0.5171
 2341TIP3    H228583   5.710   2.796   0.332 -1.3693  1.9568  0.6775
 2342TIP3   OH228584   2.815   4.833   1.867 -0.1529  0.4117  0.2251
 2342TIP3    H128585   2.787   4.747   1.901 -1.4373  0.4437 -0.6927
 2342TIP3    H228586   2.750   4.894   1.902 -3.0824  0.1620 -3.9822
 2343TIP3   OH228587   6.721   2.506   6.794 -0.1717  0.0848  0.5614
 2343TIP3    H128588   6.664   2.485   6.720  0.8278 -2.0664  0.3141
 2343TIP3    H228589   6.732   2.423   6.840  2.3507  0.4909  0.8551
 2344TIP3   OH228590   5.920   2.855   2.496 -0.1131  0.2905  0.2726
 2344TIP3    H128591   5.864   2.919   2.452  0.2639  0.9254  0.6999
 2344TIP3    H228592   5.949   2.900   2.575 -1.3189 -1.0457  1.5384
 2345TIP3   OH228593   4.230   3.457   7.735  0.1066 -0.1775 -0.3905
 2345TIP3    H128594   4.314   3.430   7.697  1.0035  0.6115  0.9165
 2345TIP3    H228595   4.243   3.549   7.759 -0.5109 -0.5001  1.3836
 2346TIP3   OH228596   3.462   5.574   2.026  0.2437  0.1372 -0.0121
 2346TIP3    H128597   3.457   5.639   2.096  0.4966 -0.6697  0.7658
 2346TIP3    H228598   3.372   5.563   1.997  0.1509  0.5485  0.1145
 2347TIP3   OH228599   0.787   1.201   7.906  0.3912 -0.1190  0.2232
 2347TIP3    H128600   0.868   1.199   7.958  2.2202 -0.7658 -2.4608
 2347TIP3    H228601   0.802   1.270   7.842 -0.7355 -0.9997 -1.0223
 2348TIP3   OH228602   2.256   4.710   1.209  0.1923  0.1097 -0.7521
 2348TIP3    H128603   2.245   4.623   1.169  2.2121 -0.2183 -0.6848
 2348TIP3    H228604   2.320   4.754   1.153 -1.4026  1.9128 -1.2597
 2349TIP3   OH228605   6.391   6.664   7.985  0.4339  0.3530 -0.3402
 2349TIP3    H128606   6.349   6.701   8.062  0.4935  1.8969 -1.0168
 2349TIP3    H228607   6.472   6.626   8.017  0.3561  0.7888  0.3795
 2350TIP3   OH228608   3.901   1.785   0.896 -0.1781  0.1535  0.0069
 2350TIP3    H128609   3.869   1.764   0.808 -0.4919  0.8166 -0.0398
 2350TIP3    H228610   3.996   1.789   0.887 -0.2648  1.3059 -0.5503
 2351TIP3   OH228611   1.450   0.049   0.619 -0.2272  0.3924 -0.1295
 2351TIP3    H128612   1.362   0.055   0.657 -0.2952 -0.5811 -0.1257
 2351TIP3    H228613   1.488   0.135   0.636 -1.1130  0.7732  0.0225
 2352TIP3   OH228614   2.993   0.081   8.717 -0.1360  0.4114 -0.0009
 2352TIP3    H128615   2.954   0.167   8.710 -1.2856 -0.0976  0.0063
 2352TIP3    H228616   2.929   0.028   8.764  0.8828 -0.2519  0.7045
 2353TIP3   OH228617   4.955   1.724   7.181  0.3151  0.1392  1.0160
 2353TIP3    H128618   4.872   1.766   7.157 -0.8858 -3.0955 -1.1021
 2353TIP3    H228619   4.944   1.704   7.274 -0.4673  1.3583  1.2193
 2354TIP3   OH228620   1.036   2.082   1.726 -0.0340 -0.0081  0.3128
 2354TIP3    H128621   1.125   2.094   1.758 -0.1156 -0.2066  0.6095
 2354TIP3    H228622   1.031   1.990   1.700 -0.2820 -0.1063  0.6974
 2355TIP3   OH228623   6.050   3.221   1.438  0.5064  0.3957  0.6733
 2355TIP3    H128624   6.063   3.245   1.530 -1.2411  2.2968  0.5038
 2355TIP3    H228625   5.971   3.268   1.412  1.5845  0.8506 -2.1324
 2356TIP3   OH228626   2.036   4.715   0.934  0.3742  0.5466  0.8422
 2356TIP3    H128627   1.983   4.760   0.868  0.2062 -3.5951 -2.2635
 2356TIP3    H228628   2.108   4.776   0.951 -0.1994  2.3977 -2.3756
 2357TIP3   OH228629   2.345   5.729   7.867 -0.3445 -0.0008 -0.1710
 2357TIP3    H128630   2.359   5.742   7.773  1.4857 -0.8249 -0.0492
 2357TIP3    H228631   2.266   5.675   7.872 -2.0679  2.3202 -1.0773
 2358TIP3   OH228632   2.884   2.303   0.254 -0.1073 -0.4521  0.0116
 2358TIP3    H128633   2.790   2.321   0.255 -0.4060 -1.8149  2.1599
 2358TIP3    H228634   2.917   2.349   0.331  0.5464 -1.9706  0.6618
 2359TIP3   OH228635   3.757   4.752   6.713 -0.1168 -0.3992 -0.7251
 2359TIP3    H128636   3.823   4.732   6.646 -1.4357 -1.9538 -1.6454
 2359TIP3    H228637   3.682   4.697   6.689 -1.5613  0.9228  0.5889
 2360TIP3   OH228638   2.981   3.940   1.283  0.6846 -0.5023  0.1647
 2360TIP3    H128639   2.938   4.005   1.227  1.9249 -0.1984 -0.4721
 2360TIP3    H228640   2.950   3.959   1.371 -2.2460 -1.7166 -0.4872
 2361TIP3   OH228641   6.348   3.451   1.575  0.0806  0.3403 -0.2855
 2361TIP3    H128642   6.371   3.484   1.662  0.5112  0.5975 -0.4942
 2361TIP3    H228643   6.409   3.378   1.560  0.3282  0.6035 -0.5681
 2362TIP3   OH228644   5.808   2.068   1.698  0.1336  0.1511  0.1255
 2362TIP3    H128645   5.820   2.043   1.607 -0.4329  0.4377 -0.0354
 2362TIP3    H228646   5.717   2.097   1.703  0.3233  0.6890  0.6491
 2363TIP3   OH228647   2.337   6.027   1.110 -0.0451 -0.2246  0.1353
 2363TIP3    H128648   2.314   6.119   1.099 -0.5749 -0.5225 -1.5903
 2363TIP3    H228649   2.428   6.021   1.083  0.0114 -0.1883  0.3199
 2364TIP3   OH228650   3.990   6.247   0.072  0.4827  0.4219  0.0208
 2364TIP3    H128651   4.080   6.266   0.044  0.7362 -0.4484  0.2240
 2364TIP3    H228652   3.938   6.251  -0.008  0.3808  2.6615  0.1332
 2365TIP3   OH228653   3.460   0.068   1.511  0.0531 -0.0572  0.1457
 2365TIP3    H128654   3.480  -0.025   1.518 -1.3600 -0.2881  1.8570
 2365TIP3    H228655   3.513   0.109   1.580 -1.0480  0.0613  0.9520
 2366TIP3   OH228656   5.437   1.920   8.447 -0.5083 -0.0613  0.0410
 2366TIP3    H128657   5.448   2.009   8.480 -2.5066 -0.1734  1.1694
 2366TIP3    H228658   5.474   1.922   8.359  1.7781  1.1892  0.9658
 2367TIP3   OH228659   1.252   0.638   8.149 -0.2345 -0.1467  0.2850
 2367TIP3    H128660   1.176   0.587   8.175  0.7525 -1.3176  0.9661
 2367TIP3    H228661   1.322   0.573   8.137  0.1821  0.6480 -2.2701
 2368TIP3   OH228662   5.961   1.487   7.957 -0.0931 -0.3970  0.4839
 2368TIP3    H128663   5.982   1.422   8.024 -2.9910 -0.6339  1.3009
 2368TIP3    H228664   5.986   1.571   7.996  1.1292 -0.7673  0.5391
 2369TIP3   OH228665   2.440   1.780   1.939 -0.1989 -0.5015  0.1848
 2369TIP3    H128666   2.526   1.744   1.959 -0.4959 -1.7738 -0.7152
 2369TIP3    H228667   2.458   1.851   1.876  0.3035  0.3107  1.2193
 2370TIP3   OH228668   4.758   5.845   1.327  0.0868 -0.3587  0.0237
 2370TIP3    H128669   4.728   5.779   1.265 -0.7728 -0.2766  0.3329
 2370TIP3    H228670   4.819   5.799   1.384  0.4450 -0.5731 -0.5303
 2371TIP3   OH228671   1.602   0.767   1.525  0.5031 -0.2301  0.4183
 2371TIP3    H128672   1.556   0.848   1.506  0.2997 -0.7109 -1.3480
 2371TIP3    H228673   1.534   0.699   1.524  0.8589 -0.5949  0.5268
 2372TIP3   OH228674   4.934   5.876   7.321 -0.3986  0.2617 -0.9932
 2372TIP3    H128675   4.963   5.923   7.243  0.4847 -0.8939 -1.3926
 2372TIP3    H228676   4.997   5.902   7.389  0.4974 -0.7956 -1.3812
 2373TIP3   OH228677   1.840   6.281   1.738 -0.5899  0.0389  0.3329
 2373TIP3    H128678   1.807   6.370   1.730 -0.1716  0.2727  1.0548
 2373TIP3    H228679   1.876   6.277   1.827 -1.0629 -1.0063  0.4953
 2374TIP3   OH228680   2.887   0.817   6.830 -0.5160 -0.7467  0.4464
 2374TIP3    H128681   2.828   0.797   6.757 -1.9808 -1.0717  1.6630
 2374TIP3    H228682   2.918   0.906   6.812  1.3910 -1.7601 -1.9703
 2375TIP3   OH228683   5.194   2.927   8.039  0.2148 -0.1697  0.4426
 2375TIP3    H128684   5.112   2.939   7.991  0.1185 -2.2170  0.0358
 2375TIP3    H228685   5.187   2.987   8.114 -2.7232 -1.9666  1.7683
 2376TIP3   OH228686   5.722   1.472   0.154 -0.2534 -0.0734  0.3774
 2376TIP3    H128687   5.765   1.518   0.225 -0.8177  0.5206  0.3481
 2376TIP3    H228688   5.658   1.535   0.120 -0.4564 -0.5857 -0.2103
 2377TIP3   OH228689   6.431   5.282   2.450 -0.4932  0.1063 -0.6072
 2377TIP3    H128690   6.362   5.249   2.509  0.2255 -0.5507 -0.1119
 2377TIP3    H228691   6.421   5.229   2.370 -2.5656  2.1393 -1.8049
 2378TIP3   OH228692   5.778   3.667   7.761  0.0440  0.0316  0.4598
 2378TIP3    H128693   5.849   3.603   7.759  1.5526  1.6117 -1.8079
 2378TIP3    H228694   5.740   3.662   7.673 -1.4610  0.5161  1.0639
 2379TIP3   OH228695   5.531   6.475   1.800  0.3193 -0.2698 -0.2579
 2379TIP3    H128696   5.462   6.499   1.862  0.7107 -0.0467  0.0946
 2379TIP3    H228697   5.514   6.382   1.781 -0.1433 -0.1875 -0.2656
 2380TIP3   OH228698   0.984   3.884   1.177 -0.2099 -0.1492 -0.6073
 2380TIP3    H128699   0.904   3.929   1.202  1.3422  2.0028  0.7758
 2380TIP3    H228700   0.994   3.815   1.243  0.8799  1.8708  1.4582
 2381TIP3   OH228701   3.689   6.187   0.503 -0.1009  0.5917 -0.2583
 2381TIP3    H128702   3.760   6.232   0.548  0.4232 -0.4820  0.0444
 2381TIP3    H228703   3.731   6.110   0.464 -0.9408  0.3949 -0.8062
 2382TIP3   OH228704   5.428   5.706   6.584 -0.2418  0.3137  0.3627
 2382TIP3    H128705   5.426   5.655   6.665 -0.8633  0.5799  0.5182
 2382TIP3    H228706   5.372   5.658   6.523 -2.0437  1.5431  0.9682
 2383TIP3   OH228707   3.212   0.577   2.264 -0.3568 -0.1521 -0.2456
 2383TIP3    H128708   3.282   0.601   2.204 -1.1524  2.5841 -0.2189
 2383TIP3    H228709   3.256   0.559   2.347  0.6267 -2.6628 -1.2242
 2384TIP3   OH228710   2.562   0.546   8.727  0.8181  0.7528 -0.4324
 2384TIP3    H128711   2.568   0.641   8.734 -2.8538  1.2409 -1.5341
 2384TIP3    H228712   2.580   0.514   8.816 -0.5375  2.7562  0.6481
 2385TIP3   OH228713   5.354   5.528   0.115  0.1244 -0.3067  0.3791
 2385TIP3    H128714   5.444   5.561   0.108  0.0210  0.0677  0.7304
 2385TIP3    H228715   5.363   5.433   0.115  0.4633 -0.2801 -0.2850
 2386TIP3   OH228716   6.136   3.651   6.982 -0.3450 -0.4415  0.0974
 2386TIP3    H128717   6.211   3.709   6.966 -1.1814  0.2917 -1.3860
 2386TIP3    H228718   6.175   3.566   7.002  0.9195  0.6641  2.7104
 2387TIP3   OH228719   1.729   6.692   2.423 -0.0898  0.0965  0.2586
 2387TIP3    H128720   1.747   6.784   2.403 -0.0894  0.7160  2.8045
 2387TIP3    H228721   1.635   6.682   2.407  0.3249 -0.1975 -2.4266
 2388TIP3   OH228722   1.951   4.187   8.001  0.2001 -0.0830 -0.4576
 2388TIP3    H128723   1.990   4.169   7.916 -1.7118  0.6078 -1.5320
 2388TIP3    H228724   1.857   4.170   7.989 -0.0083 -0.9569  1.7930
 2389TIP3   OH228725   2.888   0.035   0.548  0.2651  0.4910 -0.0868
 2389TIP3    H128726   2.868   0.119   0.509  1.9669  0.4994 -1.0420
 2389TIP3    H228727   2.809   0.012   0.598 -0.9205  1.7610 -1.2946
 2390TIP3   OH228728   3.795   4.928   7.652  0.0739  0.3522 -0.6346
 2390TIP3    H128729   3.726   4.935   7.718  0.5599 -1.7102  0.1833
 2390TIP3    H228730   3.750   4.925   7.568 -0.8387 -0.6025 -0.1324
 2391TIP3   OH228731   2.792   2.204   8.771 -0.0493  0.0441  0.1675
 2391TIP3    H128732   2.794   2.128   8.829 -0.1763  1.1880  1.7285
 2391TIP3    H228733   2.764   2.169   8.687 -0.5522 -1.5685  0.9676
 2392TIP3   OH228734   1.300   3.916   8.566  0.0115 -0.9873 -0.6064
 2392TIP3    H128735   1.243   3.927   8.642 -0.1686  2.3991 -1.0631
 2392TIP3    H228736   1.244   3.876   8.499 -0.9352 -0.5799 -0.0778
 2393TIP3   OH228737   1.773   5.064   8.561 -0.2152 -0.8575  0.2511
 2393TIP3    H128738   1.730   5.149   8.547 -2.5283 -2.1172 -0.8506
 2393TIP3    H228739   1.858   5.074   8.520  0.0238  1.2639  1.1051
 2394TIP3   OH228740   6.493   4.454   7.374  0.5305  0.3570  0.1435
 2394TIP3    H128741   6.583   4.481   7.357  0.1269  0.9238 -1.2114
 2394TIP3    H228742   6.460   4.425   7.290 -0.5294  0.0627  0.6434
 2395TIP3   OH228743   3.066   4.384   7.633 -0.5517  0.2263 -0.1349
 2395TIP3    H128744   2.970   4.383   7.640 -0.4791 -0.8846  1.2593
 2395TIP3    H228745   3.092   4.464   7.679 -0.7750  0.0292  0.3411
 2396TIP3   OH228746   0.627   2.258   6.458 -0.0669 -0.4365  0.4993
 2396TIP3    H128747   0.608   2.211   6.539 -1.9771 -1.3478 -0.4085
 2396TIP3    H228748   0.646   2.190   6.394  0.0387  0.1848 -0.1489
 2397TIP3   OH228749   2.104   3.672   8.517 -0.1621  0.3651 -0.9143
 2397TIP3    H128750   2.050   3.603   8.479  1.6486 -0.8795 -1.3494
 2397TIP3    H228751   2.109   3.739   8.449  0.6237 -0.5177 -1.7597
 2398TIP3   OH228752   3.289   2.085   0.968 -0.7631  0.0603  0.7167
 2398TIP3    H128753   3.384   2.093   0.967 -0.7311 -0.2691  1.0471
 2398TIP3    H228754   3.272   1.992   0.952 -1.0604  0.2632 -0.2680
 2399TIP3   OH228755   4.284   2.401   8.097 -0.3007 -0.3856  0.1574
 2399TIP3    H128756   4.263   2.382   8.188 -0.7726  1.4489  0.4631
 2399TIP3    H228757   4.376   2.374   8.088 -0.4525 -1.2480  0.9492
 2400TIP3   OH228758   2.818   4.850   7.408 -0.3219 -0.1467 -0.0458
 2400TIP3    H128759   2.752   4.832   7.341  0.7894 -1.5073 -0.8347
 2400TIP3    H228760   2.842   4.764   7.441  0.7676  0.3489  0.4970
 2401TIP3   OH228761   1.391   6.225   8.421 -0.0765 -0.5233  0.0087
 2401TIP3    H128762   1.310   6.221   8.473  0.5963 -1.5673  1.0040
 2401TIP3    H228763   1.397   6.139   8.380 -0.1451  0.0049 -1.1430
 2402TIP3   OH228764   1.136   5.346   7.504 -0.1656 -0.0296  0.2092
 2402TIP3    H128765   1.228   5.369   7.489 -0.3362  0.3673 -0.2187
 2402TIP3    H228766   1.113   5.392   7.585 -0.0833  0.1259  0.1436
 2403TIP3   OH228767   5.452   6.673   7.445  0.0886  0.2377 -0.1685
 2403TIP3    H128768   5.485   6.736   7.509 -0.1610 -0.5955  0.8107
 2403TIP3    H228769   5.530   6.631   7.410  0.1695 -0.4971  0.8535
 2404TIP3   OH228770   5.827   4.262   1.888  0.2624  0.2485 -0.0800
 2404TIP3    H128771   5.884   4.197   1.928  0.5171  1.1926  1.1778
 2404TIP3    H228772   5.847   4.343   1.935 -0.7890  1.0052 -0.8829
 2405TIP3   OH228773   3.386   4.109   1.446 -0.1732  0.2318  0.2932
 2405TIP3    H128774   3.388   4.016   1.425  3.5007  0.4678 -1.3096
 2405TIP3    H228775   3.293   4.130   1.457 -1.1872 -3.3865 -0.1351
 2406TIP3   OH228776   6.708   6.011   0.328 -0.3044 -0.1521  0.3288
 2406TIP3    H128777   6.628   5.959   0.333 -0.4787  0.1749  0.9570
 2406TIP3    H228778   6.687   6.093   0.373  0.0580  0.3557 -0.3933
 2407TIP3   OH228779   3.895   0.050   8.418 -0.1259  0.8527  0.0176
 2407TIP3    H128780   3.839  -0.025   8.440  0.1739  0.5590 -0.2194
 2407TIP3    H228781   3.836   0.125   8.423 -1.0002  0.3601 -2.0223
 2408TIP3   OH228782   5.614   2.001   2.011  0.2211  0.4892 -0.0293
 2408TIP3    H128783   5.591   1.952   2.090 -0.0735 -0.1663 -0.5084
 2408TIP3    H228784   5.696   2.045   2.033  0.8259 -0.7174  0.2190
 2409TIP3   OH228785   4.860   4.856   0.414  0.3857 -0.2506  0.0482
 2409TIP3    H128786   4.850   4.817   0.327 -0.4155 -1.6993  0.7466
 2409TIP3    H228787   4.917   4.795   0.461 -0.7004 -0.4854  1.0989
 2410TIP3   OH228788   3.230   2.330   0.320  0.0768 -0.0105 -0.1122
 2410TIP3    H128789   3.271   2.250   0.354 -0.0275 -0.0141  0.0088
 2410TIP3    H228790   3.221   2.314   0.226  0.7720  0.1785 -0.2172
 2411TIP3   OH228791   1.781   4.584   8.856  0.0053 -0.2906 -0.0465
 2411TIP3    H128792   1.826   4.570   8.940 -1.2665  0.1513  0.7361
 2411TIP3    H228793   1.818   4.667   8.824 -0.6850  0.4088  0.9053
 2412TIP3   OH228794   6.623   2.722   8.342 -0.4059 -0.1207 -0.2558
 2412TIP3    H128795   6.710   2.691   8.317 -0.2432  0.2311 -0.1287
 2412TIP3    H228796   6.639   2.784   8.413 -0.7903 -0.3664  0.0506
 2413TIP3   OH228797   1.482   3.042   6.792  0.5301 -0.1096  0.7273
 2413TIP3    H128798   1.543   3.108   6.824 -0.4848  1.6913 -0.8337
 2413TIP3    H228799   1.395   3.079   6.810 -0.0624 -0.8619 -0.4470
 2414TIP3   OH228800   2.227   1.503   7.821  0.0699  0.6443 -0.3711
 2414TIP3    H128801   2.219   1.409   7.807 -0.0694  0.3971  1.2267
 2414TIP3    H228802   2.143   1.529   7.859  1.7068  0.4681  3.8433
 2415TIP3   OH228803   2.854   5.841   0.025 -0.6601 -0.3935 -0.2861
 2415TIP3    H128804   2.869   5.806   0.113  1.1317  2.6917  0.8127
 2415TIP3    H228805   2.916   5.794  -0.030  1.2957  0.5167  1.0087
 2416TIP3   OH228806   2.584   3.115   7.762 -0.2461  0.0730 -0.1109
 2416TIP3    H128807   2.670   3.101   7.721 -0.2414 -0.3146  0.0262
 2416TIP3    H228808   2.599   3.093   7.854 -0.8121 -1.3232 -0.3216
 2417TIP3   OH228809   4.279   1.856   1.088 -0.2188  0.3190  0.4892
 2417TIP3    H128810   4.364   1.890   1.061 -0.0798  0.5622  1.2141
 2417TIP3    H228811   4.239   1.823   1.007  0.9081 -0.5596  0.2786
 2418TIP3   OH228812   6.682   1.075   2.591  0.6763 -0.3113  0.0863
 2418TIP3    H128813   6.708   1.005   2.652 -2.9533 -0.4252  1.7549
 2418TIP3    H228814   6.748   1.143   2.603  1.3766 -1.3084  2.4505
 2419TIP3   OH228815   0.275   4.088   1.642 -0.8710 -0.5740 -0.0582
 2419TIP3    H128816   0.324   4.011   1.614  0.3004 -0.2098  0.8973
 2419TIP3    H228817   0.208   4.053   1.702 -0.5048 -0.8733  0.1797
 2420TIP3   OH228818   5.654   3.558   6.780 -0.5642  0.3585 -0.0800
 2420TIP3    H128819   5.608   3.512   6.850 -1.7525  0.1580 -0.9626
 2420TIP3    H228820   5.633   3.651   6.796  1.3889  0.6152  1.3794
 2421TIP3   OH228821   2.515   5.245   1.359  0.1144  0.0968  0.7089
 2421TIP3    H128822   2.502   5.255   1.454 -0.2184  0.3911  0.6344
 2421TIP3    H228823   2.498   5.153   1.342  1.2687 -0.2097  1.1062
 2422TIP3   OH228824   3.150   5.492   2.792  0.8330 -0.3230  0.1201
 2422TIP3    H128825   3.099   5.537   2.724 -1.7459 -1.9280  0.8997
 2422TIP3    H228826   3.227   5.459   2.745  1.2459  2.1234 -1.0997
 2423TIP3   OH228827   4.658   3.214   0.609 -0.2437 -0.3544 -0.2393
 2423TIP3    H128828   4.580   3.267   0.593 -0.3686 -0.6838 -0.7649
 2423TIP3    H228829   4.628   3.144   0.668  0.0918  0.5591  1.0530
 2424TIP3   OH228830   6.075   0.259   0.167  0.0860 -0.0047 -0.0528
 2424TIP3    H128831   5.989   0.269   0.127  0.2320 -1.8650 -0.9733
 2424TIP3    H228832   6.057   0.237   0.259 -0.3191  1.8249  0.3383
 2425TIP3   OH228833   1.357   5.151   0.799 -0.2591 -0.4507  0.4323
 2425TIP3    H128834   1.400   5.070   0.769 -0.1176  0.1381 -1.0428
 2425TIP3    H228835   1.264   5.129   0.800 -0.2318 -0.6205 -0.0788
 2426TIP3   OH228836   0.258   4.648   6.160  0.3149 -0.3921 -0.2609
 2426TIP3    H128837   0.300   4.695   6.232  0.5194 -0.7529 -0.1394
 2426TIP3    H228838   0.203   4.582   6.203  2.1470 -2.1135 -0.4145
 2427TIP3   OH228839   2.320   2.294   6.923  0.2540  0.4785  0.5138
 2427TIP3    H128840   2.256   2.226   6.945  1.3584 -0.0317  2.4507
 2427TIP3    H228841   2.270   2.360   6.876 -0.9688 -1.4293 -1.0291
 2428TIP3   OH228842   3.269   1.167   0.696  0.6005 -0.5672 -0.6972
 2428TIP3    H128843   3.347   1.215   0.666  1.2132 -0.0364  1.5778
 2428TIP3    H228844   3.247   1.109   0.623  3.0133 -0.5767 -1.4926
 2429TIP3   OH228845   4.901   4.560   7.160  0.0036 -0.2531  0.6918
 2429TIP3    H128846   4.927   4.652   7.161  1.5638 -0.6633  0.8747
 2429TIP3    H228847   4.805   4.562   7.158  0.0095  1.3642  0.6680
 2430TIP3   OH228848   6.204   2.090   2.230 -0.0114 -0.5226  0.0949
 2430TIP3    H128849   6.274   2.150   2.204  0.5340 -1.9730 -2.1304
 2430TIP3    H228850   6.129   2.146   2.247  0.3791  0.8031 -2.1752
 2431TIP3   OH228851   2.937   4.924   0.509 -0.0781  0.2283  0.1352
 2431TIP3    H128852   2.954   4.958   0.421 -0.2625 -2.6461 -1.0897
 2431TIP3    H228853   2.968   4.834   0.507  0.1179  0.1090  3.1308
 2432TIP3   OH228854   4.973   5.860   0.548  0.1185  0.3770  0.0057
 2432TIP3    H128855   4.967   5.861   0.453 -1.8352  3.0967  0.0416
 2432TIP3    H228856   4.967   5.768   0.572 -1.2682 -0.2445 -2.4252
 2433TIP3   OH228857   3.064   4.797   1.154  0.5330  0.0971 -0.1556
 2433TIP3    H128858   3.030   4.760   1.072  1.0331 -1.0177  0.1166
 2433TIP3    H228859   3.034   4.888   1.154 -1.8289 -0.6240 -0.2603
 2434TIP3   OH228860   2.673   1.707   2.676  0.0255 -0.5854 -0.1025
 2434TIP3    H128861   2.667   1.700   2.771  0.0415  0.0776 -0.0522
 2434TIP3    H228862   2.766   1.693   2.657  0.4993  1.7382  0.2062
 2435TIP3   OH228863   2.416   5.968   8.378  0.1516 -0.2455  0.0094
 2435TIP3    H128864   2.486   6.031   8.397 -1.1530  1.0148  0.8249
 2435TIP3    H228865   2.439   5.933   8.292  0.7606  1.6192 -0.6466
 2436TIP3   OH228866   5.323   4.292   8.376 -0.1390  0.2497 -0.4614
 2436TIP3    H128867   5.230   4.289   8.401  0.1315  0.7969  0.6727
 2436TIP3    H228868   5.364   4.345   8.444  0.7366  1.4189 -1.8571
 2437TIP3   OH228869   2.473   1.772   7.347 -0.3456 -0.0240  0.1258
 2437TIP3    H128870   2.459   1.680   7.324  0.1009  0.3418 -1.8233
 2437TIP3    H228871   2.393   1.816   7.317 -1.1861  0.0873  2.3339
 2438TIP3   OH228872   5.851   6.231   0.516 -0.4504 -0.4915  0.0122
 2438TIP3    H128873   5.856   6.306   0.456 -2.8207  0.2408  0.6076
 2438TIP3    H228874   5.843   6.155   0.459 -0.9488  0.0293 -0.6329
 2439TIP3   OH228875   4.240   5.430   7.237 -0.0067  0.0484 -0.0764
 2439TIP3    H128876   4.265   5.465   7.323  1.9160 -1.1705 -0.0697
 2439TIP3    H228877   4.166   5.484   7.210  0.1914  1.3445  1.7467
 2440TIP3   OH228878   5.464   4.805   8.014 -0.1984  0.0174 -0.3530
 2440TIP3    H128879   5.520   4.743   8.059 -0.9380 -1.1433 -0.9936
 2440TIP3    H228880   5.524   4.865   7.970  0.5256 -0.8831 -0.6059
 2441TIP3   OH228881   4.047   2.775   8.608  0.3324 -0.5222 -0.9948
 2441TIP3    H128882   3.974   2.725   8.644  1.2533 -0.7597  0.6189
 2441TIP3    H228883   4.120   2.713   8.604  1.2431  0.3990  0.2021
 2442TIP3   OH228884   5.456   0.943   8.193 -0.2581 -0.2609 -0.0596
 2442TIP3    H128885   5.460   1.028   8.149  1.0321  0.0121  0.5323
 2442TIP3    H228886   5.404   0.959   8.272  0.8268  0.2489  0.5726
 2443TIP3   OH228887   0.977   3.335   1.335  0.0621  0.4636  0.2082
 2443TIP3    H128888   0.937   3.347   1.421  0.2591  0.1826  0.3448
 2443TIP3    H228889   1.071   3.342   1.352  0.2058 -1.2546  0.3270
 2444TIP3   OH228890   3.404   5.787   8.619 -0.0225 -0.2167 -0.1298
 2444TIP3    H128891   3.481   5.842   8.628  0.5121 -0.7024 -1.4405
 2444TIP3    H228892   3.425   5.729   8.546 -0.1035 -2.9431  1.8603
 2445TIP3   OH228893   2.439   5.852   7.406 -0.6800 -0.0015 -0.1044
 2445TIP3    H128894   2.529   5.862   7.435  0.0885  0.5609 -2.4655
 2445TIP3    H228895   2.394   5.808   7.479  0.8933  1.8461  2.0822
 2446TIP3   OH228896   2.484   0.475   7.987  0.5615  0.0704  0.3319
 2446TIP3    H128897   2.430   0.509   8.058 -1.0947  0.5077 -1.0417
 2446TIP3    H228898   2.549   0.420   8.029  0.4072  1.2769  2.2609
 2447TIP3   OH228899   1.715   2.107   1.368 -0.3024  0.1306 -0.3312
 2447TIP3    H128900   1.699   2.106   1.273  0.8806 -1.7559 -0.5446
 2447TIP3    H228901   1.644   2.054   1.405  1.3827 -2.4523 -0.6040
 2448TIP3   OH228902   2.538   4.134   0.455 -0.1147 -0.3154  0.0440
 2448TIP3    H128903   2.581   4.155   0.372 -0.0271 -1.8139 -0.3202
 2448TIP3    H228904   2.610   4.122   0.517 -0.1052 -0.6033 -0.0199
 2449TIP3   OH228905   1.061   3.123   0.929  0.4634 -0.5690 -0.0274
 2449TIP3    H128906   1.059   3.128   1.025  0.9772 -0.0306 -0.0424
 2449TIP3    H228907   1.122   3.052   0.911 -0.0498 -1.0364  0.0478
 2450TIP3   OH228908   5.070   4.838   7.660 -0.4739  0.1915 -0.3424
 2450TIP3    H128909   5.138   4.784   7.700 -2.7831 -1.3664  1.8695
 2450TIP3    H228910   5.044   4.898   7.730 -2.4941 -0.4294 -0.5016
 2451TIP3   OH228911   2.900   0.614   2.262  0.7186 -0.4493 -0.7146
 2451TIP3    H128912   2.906   0.681   2.194 -0.2548  0.1015 -0.2772
 2451TIP3    H228913   2.832   0.555   2.231  0.6089 -0.4628 -0.4515
 2452TIP3   OH228914   4.274   4.477   6.648 -0.8531  0.1857  0.1814
 2452TIP3    H128915   4.266   4.571   6.630  0.7081  0.4870  0.8513
 2452TIP3    H228916   4.246   4.468   6.739  1.4538  0.4835  0.9881
 2453TIP3   OH228917   2.091   5.031   1.206 -0.1319 -0.8991  0.0167
 2453TIP3    H128918   2.009   5.079   1.209  0.6671  0.8558 -2.6225
 2453TIP3    H228919   2.155   5.089   1.246  0.4207 -0.7361 -1.0630
 2454TIP3   OH228920   1.677   1.573   8.806  0.1429 -1.1754 -0.5392
 2454TIP3    H128921   1.597   1.625   8.806 -1.2533 -3.1999  0.8184
 2454TIP3    H228922   1.718   1.593   8.721 -0.1313  2.2482 -0.0122
 2455TIP3   OH228923   1.218   4.285   1.802  0.4486  0.1968  0.7525
 2455TIP3    H128924   1.200   4.191   1.802 -0.5199  0.3413 -1.0431
 2455TIP3    H228925   1.226   4.308   1.709  4.2300  1.2810  1.1840
 2456TIP3   OH228926   3.080   6.753   2.493 -0.2018  0.5722  0.4930
 2456TIP3    H128927   3.066   6.682   2.556  0.2206 -1.8371 -1.9280
 2456TIP3    H228928   3.165   6.790   2.517  0.0358 -0.4109  1.2359
 2457TIP3   OH228929   0.881   4.559   7.200 -0.1210 -0.7381 -0.1363
 2457TIP3    H128930   0.846   4.471   7.216 -1.1828 -0.2051  0.5488
 2457TIP3    H228931   0.861   4.576   7.108 -0.9925 -0.7376  0.0499
 2458TIP3   OH228932   3.266   5.368   2.564 -0.0786  0.0327 -0.9790
 2458TIP3    H128933   3.306   5.300   2.509 -0.7010  0.8278 -2.4686
 2458TIP3    H228934   3.290   5.450   2.521 -0.5179  0.6852 -0.0005
 2459TIP3   OH228935   0.559   4.598   8.420 -0.0015  0.4326 -0.1521
 2459TIP3    H128936   0.550   4.637   8.506 -0.6039 -0.1152  0.0399
 2459TIP3    H228937   0.504   4.651   8.363  0.2445  0.6781 -0.1612
 2460TIP3   OH228938   5.111   2.082   0.045  0.2754  0.0323  0.2190
 2460TIP3    H128939   5.181   2.041  -0.005 -0.0990  1.3839 -1.4835
 2460TIP3    H228940   5.074   2.148  -0.013 -2.1321 -0.3083  1.2116
 2461TIP3   OH228941   0.611   1.286   7.450  0.0771  0.1139 -0.2380
 2461TIP3    H128942   0.582   1.368   7.411  0.1388  0.3911  0.2968
 2461TIP3    H228943   0.550   1.271   7.522  0.2662 -0.1455 -0.1305
 2462TIP3   OH228944   4.316   1.846   7.921 -0.6930  0.0361 -0.4561
 2462TIP3    H128945   4.235   1.896   7.910  0.0043  1.2924 -0.1618
 2462TIP3    H228946   4.385   1.913   7.922  0.0865 -0.6820  2.4550
 2463TIP3   OH228947   2.815   0.084   2.090 -0.3907 -0.4739 -0.1179
 2463TIP3    H128948   2.856   0.006   2.053 -0.4407 -0.2924 -0.5598
 2463TIP3    H228949   2.861   0.098   2.173  0.4684 -0.2528 -0.6153
 2464TIP3   OH228950   6.190   0.980   0.982  0.5382  0.0744  0.2475
 2464TIP3    H128951   6.151   1.055   1.028  0.9151 -0.6343  1.7851
 2464TIP3    H228952   6.117   0.921   0.966  0.6674 -0.5144  1.6640
 2465TIP3   OH228953   2.749   5.318   8.490  0.5066  0.0173 -0.0170
 2465TIP3    H128954   2.654   5.312   8.476  0.4091  1.7019 -0.2945
 2465TIP3    H228955   2.782   5.230   8.468 -1.0413 -0.7816  0.6943
 2466TIP3   OH228956   2.191   6.027   1.352  0.3107  0.6522 -0.1571
 2466TIP3    H128957   2.205   5.958   1.416 -1.5355  1.2197  0.9148
 2466TIP3    H228958   2.260   6.012   1.286  1.7569 -0.4336  1.4948
 2467TIP3   OH228959   4.747   0.508   0.604 -0.1641 -0.0186 -0.0126
 2467TIP3    H128960   4.736   0.595   0.643  0.2747  0.3612 -0.7194
 2467TIP3    H228961   4.744   0.448   0.679  0.8187  0.7067  0.6379
 2468TIP3   OH228962   4.272   3.907   0.120  0.9702 -0.4175  0.0314
 2468TIP3    H128963   4.262   3.849   0.045  1.1701 -0.2267 -0.1419
 2468TIP3    H228964   4.359   3.946   0.110  1.0574 -0.5007  0.4364
 2469TIP3   OH228965   6.206   4.543   1.391  1.0702 -0.4580 -0.2302
 2469TIP3    H128966   6.133   4.484   1.409 -0.2736  1.7076  2.0737
 2469TIP3    H228967   6.193   4.571   1.301 -1.0356 -0.0653  0.1548
 2470TIP3   OH228968   1.000   6.716   8.700  0.1368 -0.4094  0.4711
 2470TIP3    H128969   0.990   6.703   8.606 -0.0144  1.5784  0.1642
 2470TIP3    H228970   0.974   6.633   8.739  1.5044 -1.7342 -1.2881
 2471TIP3   OH228971   4.625   5.001   7.044 -0.4271  0.1607  0.4377
 2471TIP3    H128972   4.578   4.991   6.961 -0.7394  0.1673  0.6126
 2471TIP3    H228973   4.660   4.913   7.062 -2.8422 -0.6262  1.7714
 2472TIP3   OH228974   4.372   6.109   7.845 -0.1518  0.2260  0.2966
 2472TIP3    H128975   4.395   6.029   7.798  0.6272  0.3903  0.3923
 2472TIP3    H228976   4.334   6.077   7.927 -1.0948 -0.0537 -0.2386
 2473TIP3   OH228977   4.558   5.292   8.535  1.1077  0.1403  0.1115
 2473TIP3    H128978   4.611   5.219   8.504  2.1841  0.4292  1.1808
 2473TIP3    H228979   4.611   5.333   8.603 -1.3031 -0.7653  2.7200
 2474TIP3   OH228980   6.316   5.241   8.007  0.1357  0.2753  0.2195
 2474TIP3    H128981   6.346   5.150   8.017 -1.2295 -0.4828 -1.8441
 2474TIP3    H228982   6.300   5.271   8.096 -0.7305 -2.0291  0.9148
 2475TIP3   OH228983   0.329   2.233   8.018  0.0716 -0.5145  0.5167
 2475TIP3    H128984   0.355   2.150   8.057  1.2180  0.1916  1.3455
 2475TIP3    H228985   0.233   2.234   8.024 -0.0571 -2.2857 -0.6501
 2476TIP3   OH228986   6.066   6.104   7.137 -0.4085 -0.1818 -0.3769
 2476TIP3    H128987   6.090   6.132   7.049  1.2582  2.1722  0.7079
 2476TIP3    H228988   5.990   6.158   7.160  1.1586  1.7207  0.7229
 2477TIP3   OH228989   2.723   1.295   8.822  0.5259  0.1248  0.1391
 2477TIP3    H128990   2.651   1.317   8.764  0.3914 -0.2942  0.1419
 2477TIP3    H228991   2.766   1.379   8.841  0.8881  0.1986 -0.9699
 2478TIP3   OH228992   0.744   0.451   0.617 -0.2654 -0.0627 -0.4440
 2478TIP3    H128993   0.806   0.383   0.590  0.8444  2.0130 -3.6865
 2478TIP3    H228994   0.660   0.422   0.581 -0.5740 -1.2731  1.1290
 2479TIP3   OH228995   4.125   0.591   1.367 -0.5065  0.2543  0.1228
 2479TIP3    H128996   4.067   0.516   1.356 -1.1380  0.7560 -0.0053
 2479TIP3    H228997   4.086   0.642   1.438  0.5850 -0.1611  1.0428
 2480TIP3   OH228998   6.353   0.638   1.616  0.0807  0.4171 -0.3724
 2480TIP3    H128999   6.402   0.690   1.679 -0.7206 -0.7755  1.2950
 2480TIP3    H229000   6.408   0.561   1.600  0.0370  0.4583 -0.7257
 2481TIP3   OH229001   5.110   5.679   1.695  0.2561 -0.4252 -0.1304
 2481TIP3    H129002   5.060   5.598   1.687  1.0017 -0.9748  0.5755
 2481TIP3    H229003   5.131   5.686   1.788 -0.4148  0.9747 -0.0526
 2482TIP3   OH229004   5.782   2.966   6.762 -0.0321 -0.3165 -0.4138
 2482TIP3    H129005   5.868   2.926   6.773 -0.1666 -1.6887 -3.2253
 2482TIP3    H229006   5.789   3.051   6.805  1.7803 -1.5078  1.8485
 2483TIP3   OH229007   2.387   3.789   0.580 -0.0708  0.1755 -0.2275
 2483TIP3    H129008   2.416   3.854   0.644 -0.8893 -0.5847  0.9466
 2483TIP3    H229009   2.292   3.788   0.587 -0.2544  0.5981 -2.0150
 2484TIP3   OH229010   0.154   6.526   7.849 -0.2750 -0.1141 -0.6778
 2484TIP3    H129011   0.148   6.486   7.936 -0.0793 -0.9932 -1.0548
 2484TIP3    H229012   0.197   6.610   7.864  0.3585 -0.5415  0.0011
 2485TIP3   OH229013   1.803   0.032   0.036 -0.0677 -0.2031  0.4256
 2485TIP3    H129014   1.819   0.103   0.098 -0.3498  0.1908  0.0517
 2485TIP3    H229015   1.743  -0.027   0.082  0.2470 -0.2495  0.7749
 2486TIP3   OH229016   6.005   0.715   1.307  0.4345 -0.2989 -0.1542
 2486TIP3    H129017   6.092   0.747   1.332  0.6715 -0.0872 -1.1737
 2486TIP3    H229018   6.000   0.732   1.212 -0.5797 -0.6320 -0.1738
 2487TIP3   OH229019   0.602   6.062   2.111 -0.1017  0.8135  0.1556
 2487TIP3    H129020   0.684   6.066   2.161 -0.8496  0.7438  1.4125
 2487TIP3    H229021   0.536   6.036   2.174 -1.1458  1.0423 -0.8059
 2488TIP3   OH229022   2.501   2.939   1.036  0.0826 -0.1054  0.2241
 2488TIP3    H129023   2.465   3.005   0.977 -2.0642 -0.6435  0.8226
 2488TIP3    H229024   2.567   2.893   0.985 -0.9205  0.1720 -1.3890
 2489TIP3   OH229025   1.503   3.754   7.240  0.4013 -0.1060 -0.3773
 2489TIP3    H129026   1.474   3.839   7.207  1.3296  0.0071 -0.9533
 2489TIP3    H229027   1.444   3.734   7.312  0.9834  1.6394  0.6288
 2490TIP3   OH229028   0.294   5.613   0.384  0.1735  0.3605  0.4856
 2490TIP3    H129029   0.324   5.579   0.299  0.0439  0.8154  0.2525
 2490TIP3    H229030   0.262   5.535   0.431  1.3258 -0.0771  0.5860
 2491TIP3   OH229031   0.626   5.000   6.925 -0.2060  0.4535  0.2388
 2491TIP3    H129032   0.693   4.999   6.993  0.1347  2.6048  0.0255
 2491TIP3    H229033   0.657   4.940   6.858  1.7380  1.6499 -0.0018
 2492TIP3   OH229034   1.111   6.006   7.729  0.4628 -0.6341  0.3018
 2492TIP3    H129035   1.042   6.046   7.781  0.4544 -0.6147  0.2758
 2492TIP3    H229036   1.163   6.079   7.696  0.5797 -0.6555  0.4367
 2493TIP3   OH229037   3.092   0.813   1.061 -0.2630  0.7019  0.6432
 2493TIP3    H129038   3.104   0.876   1.132 -2.5295  1.3509  0.5298
 2493TIP3    H229039   3.140   0.851   0.987 -1.7341  2.4807  0.5185
 2494TIP3   OH229040   0.058   0.651   8.814  0.0857  0.2569 -0.7258
 2494TIP3    H129041   0.091   0.733   8.777 -1.5586  0.9714 -0.6713
 2494TIP3    H229042   0.112   0.637   8.892  1.4878  0.3895 -1.6339
 2495TIP3   OH229043   3.436   2.504   7.841  0.0570 -0.3291  0.2152
 2495TIP3    H129044   3.414   2.487   7.750 -0.0753  1.4936 -0.1412
 2495TIP3    H229045   3.471   2.593   7.841 -0.8281  0.0778  2.0707
 2496TIP3   OH229046   5.343   2.483   0.794 -0.4738 -0.9400 -0.1620
 2496TIP3    H129047   5.319   2.439   0.713 -0.6295  0.8516 -1.1502
 2496TIP3    H229048   5.386   2.564   0.765 -1.5293  0.2906  1.5119
 2497TIP3   OH229049   5.332   4.724   1.782  0.1574 -0.3005 -0.3857
 2497TIP3    H129050   5.355   4.811   1.816 -0.2936 -0.8751  1.5173
 2497TIP3    H229051   5.377   4.719   1.698  1.8153  1.0251  0.3445
 2498TIP3   OH229052   4.522   4.700   2.189  0.7553 -0.2688  0.3854
 2498TIP3    H129053   4.435   4.665   2.208  0.7202 -0.3647  0.0487
 2498TIP3    H229054   4.519   4.790   2.221  0.3949 -0.1402 -0.0071
 2499TIP3   OH229055   0.223   1.629   8.278 -0.5495  0.6621 -0.1450
 2499TIP3    H129056   0.179   1.704   8.316 -1.0065  0.4561 -0.2652
 2499TIP3    H229057   0.155   1.562   8.270 -0.5646  0.8356 -1.7302
 2500TIP3   OH229058   2.700   2.180   1.889 -0.0628  0.3350 -0.9292
 2500TIP3    H129059   2.710   2.173   1.984 -0.0397  2.5180 -0.7232
 2500TIP3    H229060   2.789   2.186   1.855 -0.0854 -0.0032 -1.0542
 2501TIP3   OH229061   2.035   0.105   7.206  0.1138 -0.1146 -0.0168
 2501TIP3    H129062   2.086   0.029   7.177  0.5401  0.1305  0.0870
 2501TIP3    H229063   2.063   0.176   7.148 -1.9751 -0.5490 -1.7009
 2502TIP3   OH229064   5.809   0.126   0.560  0.2825  0.3973 -0.3951
 2502TIP3    H129065   5.717   0.130   0.587  0.1855 -1.4610 -0.2935
 2502TIP3    H229066   5.829   0.033   0.559  1.2444  0.5117 -3.5602
 2503TIP3   OH229067   4.770   3.603   7.019  0.3535  0.4790 -0.5512
 2503TIP3    H129068   4.696   3.663   7.028  0.6766  0.8684 -0.4810
 2503TIP3    H229069   4.794   3.579   7.108  1.1227  1.3554 -0.5106
 2504TIP3   OH229070   2.595   6.180   8.381 -0.4036 -0.0885  0.4995
 2504TIP3    H129071   2.644   6.169   8.462 -2.0767  1.2603  1.7496
 2504TIP3    H229072   2.661   6.210   8.318  0.6173  0.4720  1.7893
 2505TIP3   OH229073   2.639   3.811   1.722 -0.0716  0.4756 -0.0049
 2505TIP3    H129074   2.682   3.779   1.643  0.8577 -0.7191  0.9475
 2505TIP3    H229075   2.572   3.871   1.689  1.7887  1.8277 -1.5721
 2506TIP3   OH229076   6.418   5.702   8.205  0.2888  0.1623  0.1482
 2506TIP3    H129077   6.385   5.766   8.142 -0.2046 -0.6537 -0.4400
 2506TIP3    H229078   6.498   5.667   8.164 -0.9040 -1.5490 -0.8283
 2507TIP3   OH229079   1.542   6.663   0.375 -0.3749  0.0475  0.1272
 2507TIP3    H129080   1.617   6.661   0.317  0.1740 -1.3817  0.8457
 2507TIP3    H229081   1.556   6.740   0.430  0.7971 -0.4412  0.5376
 2508TIP3   OH229082   0.407   4.752   0.621 -0.1288  0.0142 -0.7487
 2508TIP3    H129083   0.384   4.702   0.543 -0.3408 -1.1981  0.0613
 2508TIP3    H229084   0.488   4.712   0.653  0.1821  0.7676 -0.5738
 2509TIP3   OH229085   2.655   4.995   7.186  0.4304 -0.1089  0.2451
 2509TIP3    H129086   2.678   5.079   7.226  0.4484 -0.1734  0.3714
 2509TIP3    H229087   2.688   5.002   7.096 -2.6748  1.3991 -0.9054
 2510TIP3   OH229088   1.674   5.898   2.183  0.2410  0.5470 -0.3932
 2510TIP3    H129089   1.742   5.965   2.180 -1.4197  2.2575 -2.9280
 2510TIP3    H229090   1.686   5.849   2.102 -1.3740  0.7219 -0.7537
 2511TIP3   OH229091   1.018   3.056   8.075  0.1848 -0.7190  0.5837
 2511TIP3    H129092   1.049   3.121   8.138 -0.9876  0.6363 -0.1689
 2511TIP3    H229093   1.010   2.975   8.125 -1.4010  0.4839  2.3963
 2512TIP3   OH229094   3.106   2.947   8.744  0.2212 -0.1369 -0.3665
 2512TIP3    H129095   3.100   2.960   8.839 -2.6439 -2.3866 -0.0986
 2512TIP3    H229096   3.168   2.875   8.734 -0.3992 -0.7265 -0.0591
 2513TIP3   OH229097   0.890   6.036   2.004  0.0233 -0.1194 -0.0542
 2513TIP3    H129098   0.973   6.080   2.020  0.1879 -0.7722  1.0358
 2513TIP3    H229099   0.845   6.090   1.940  0.8430  0.8170  0.1456
 2514TIP3   OH229100   0.077   3.183   0.521  1.0132  0.2213 -0.2768
 2514TIP3    H129101   0.097   3.276   0.506 -0.1115  0.1552 -2.6372
 2514TIP3    H229102  -0.000   3.184   0.578  2.5568  0.6076  1.9501
 2515TIP3   OH229103   5.097   4.986   7.377 -0.1416  0.4216 -0.8047
 2515TIP3    H129104   5.162   5.025   7.319  1.3566  0.1165  0.5708
 2515TIP3    H229105   5.104   5.037   7.458  0.3252 -1.2744  0.2780
 2516TIP3   OH229106   1.342   4.695   8.099  0.1137 -0.2650  0.1882
 2516TIP3    H129107   1.384   4.629   8.044  0.3368  0.4582 -0.5259
 2516TIP3    H229108   1.248   4.681   8.087  0.1461  0.3224 -0.9498
 2517TIP3   OH229109   1.756   1.704   1.600 -0.4607  0.3079  0.1505
 2517TIP3    H129110   1.710   1.625   1.571  0.3460  0.2884 -1.1802
 2517TIP3    H229111   1.848   1.678   1.604 -0.2905  0.9444  0.5968
 2518TIP3   OH229112   3.908   0.608   7.480  0.3159  0.2725  0.4075
 2518TIP3    H129113   3.857   0.564   7.411  2.3282  1.3362 -1.9228
 2518TIP3    H229114   3.843   0.653   7.533 -1.3727 -0.9781 -0.5136
 2519TIP3   OH229115   1.182   2.746   0.330 -0.7075  0.0984  0.0975
 2519TIP3    H129116   1.146   2.711   0.248 -0.4315 -1.4969  0.6149
 2519TIP3    H229117   1.260   2.794   0.303 -0.2826 -0.9102 -0.5368
 2520TIP3   OH229118   0.383   1.402   8.281 -0.1782  0.7825 -0.4543
 2520TIP3    H129119   0.334   1.482   8.261 -0.8763  0.0441 -1.8503
 2520TIP3    H229120   0.460   1.406   8.225  0.5944  1.1895  0.6034
 2521TIP3   OH229121   2.929   6.339   8.711  1.0214 -0.2083 -0.2425
 2521TIP3    H129122   2.939   6.257   8.760 -0.1666 -0.2132  0.0090
 2521TIP3    H229123   2.841   6.369   8.731  1.0465  0.5688 -1.2118
 2522TIP3   OH229124   3.101   5.983   2.161  0.1494  0.3783 -0.1267
 2522TIP3    H129125   3.188   5.993   2.199  0.4402  0.9921 -0.9238
 2522TIP3    H229126   3.041   5.994   2.235  0.7628 -1.4565  0.7067
 2523TIP3   OH229127   3.423   3.148   0.618 -0.5571  0.0083 -0.5874
 2523TIP3    H129128   3.342   3.099   0.631 -0.2564 -0.5025 -0.6391
 2523TIP3    H229129   3.411   3.191   0.533 -0.9846  0.3587 -0.3579
 2524TIP3   OH229130   4.671   2.171   7.684  0.1090  0.1114  0.1680
 2524TIP3    H129131   4.733   2.242   7.702  0.3768 -0.1814  0.4117
 2524TIP3    H229132   4.615   2.205   7.615  0.7095  0.2886 -0.2373
 2525TIP3   OH229133   5.306   4.929   8.244 -0.0145  0.5171  0.1116
 2525TIP3    H129134   5.340   4.879   8.319  0.4532 -0.5581 -0.8009
 2525TIP3    H229135   5.362   4.905   8.171 -0.4922  1.5365 -0.6184
 2526TIP3   OH229136   5.453   2.198   8.272 -0.0537  0.9877 -0.2436
 2526TIP3    H129137   5.478   2.195   8.180 -0.3752 -0.0555 -0.3120
 2526TIP3    H229138   5.530   2.234   8.317  0.1272  1.4331 -0.9071
 2527TIP3   OH229139   4.534   2.358   6.849 -0.3979 -1.0623  0.2324
 2527TIP3    H129140   4.439   2.367   6.846 -0.2815  0.2201 -0.4736
 2527TIP3    H229141   4.566   2.447   6.863  0.7105 -1.4448  0.2199
 2528TIP3   OH229142   3.647   0.883   7.966 -0.0522  0.4187  0.4414
 2528TIP3    H129143   3.732   0.852   7.995 -0.1213  0.3568  0.5762
 2528TIP3    H229144   3.594   0.804   7.956 -0.3962  0.5204  1.3199
 2529TIP3   OH229145   6.352   4.604   0.553 -0.1330  0.6554  0.7838
 2529TIP3    H129146   6.444   4.601   0.575  0.6474 -1.2685 -2.0727
 2529TIP3    H229147   6.330   4.514   0.529 -2.7284  1.0880  1.1854
 2530TIP3   OH229148   2.536   4.862   1.762  0.0815  0.3633  0.1409
 2530TIP3    H129149   2.500   4.779   1.793  0.4271 -0.0006 -0.4162
 2530TIP3    H229150   2.537   4.918   1.840 -0.8975  0.1137  0.3422
 2531TIP3   OH229151   2.725   6.010   0.774 -0.8067 -0.4385  0.0380
 2531TIP3    H129152   2.695   6.094   0.740  0.2542  0.6056  1.6065
 2531TIP3    H229153   2.814   6.000   0.741 -0.9129 -0.9587 -0.1146
 2532TIP3   OH229154   4.936   0.524   1.065 -0.5382 -0.5571  0.2922
 2532TIP3    H129155   4.890   0.470   1.129 -0.2772 -2.2480 -0.8704
 2532TIP3    H229156   5.016   0.553   1.109 -0.3573 -1.7070  0.7382
 2533TIP3   OH229157   5.705   3.093   1.959  0.0428  0.0239  0.4779
 2533TIP3    H129158   5.777   3.046   2.000  1.0658 -0.0171 -1.2505
 2533TIP3    H229159   5.740   3.180   1.940  0.1883 -0.4291 -1.6411
 2534TIP3   OH229160   1.629   4.834   8.458 -0.0434 -0.1096  0.5034
 2534TIP3    H129161   1.683   4.756   8.470  0.6660 -0.3857 -3.2142
 2534TIP3    H229162   1.685   4.907   8.484  0.0147 -0.6613  2.0428
 2535TIP3   OH229163   3.020   0.716   8.443 -0.2240 -0.0278 -0.2232
 2535TIP3    H129164   3.055   0.643   8.392  2.5921  1.5358 -0.7452
 2535TIP3    H229165   2.941   0.743   8.395 -1.1345 -2.3782 -0.2210
 2536TIP3   OH229166   1.316   6.766   1.009  0.6000 -0.6133  0.1921
 2536TIP3    H129167   1.258   6.798   1.078 -1.5123 -2.9651 -0.3435
 2536TIP3    H229168   1.355   6.687   1.045  1.8316 -0.2360 -0.2613
 2537TIP3   OH229169   3.957   1.322   1.586 -0.2535 -0.9141 -0.6746
 2537TIP3    H129170   3.958   1.401   1.531 -1.6965  1.1793  2.0887
 2537TIP3    H229171   4.049   1.307   1.607 -0.0459  1.7028  0.8123
 2538TIP3   OH229172   4.835   0.533   8.826  0.3379  0.1578 -0.9058
 2538TIP3    H129173   4.820   0.604   8.889 -1.1252  0.5264 -1.6111
 2538TIP3    H229174   4.924   0.503   8.844 -0.4706 -0.7054  2.2660
 2539TIP3   OH229175   2.950   2.362   7.246  0.0771 -0.0347 -0.8139
 2539TIP3    H129176   2.890   2.426   7.207  0.0186  0.7476  0.5114
 2539TIP3    H229177   2.924   2.278   7.207 -1.2086  0.4458 -1.0292
 2540TIP3   OH229178   0.885   1.601   1.080  0.2335  1.0095 -0.3196
 2540TIP3    H129179   0.927   1.639   1.003 -1.3054  0.5012 -1.4595
 2540TIP3    H229180   0.802   1.566   1.048  0.2691 -0.6908  1.2423
 2541TIP3   OH229181   4.599   3.555   1.146  0.8952 -0.6944 -0.0020
 2541TIP3    H129182   4.676   3.515   1.106  1.3207 -0.2676  0.3958
 2541TIP3    H229183   4.557   3.602   1.074  0.3892 -1.8225 -0.4852
 2542TIP3   OH229184   6.409   3.494   0.829 -0.5370  0.4463  0.2751
 2542TIP3    H129185   6.470   3.431   0.790 -0.2137  0.1571  1.2233
 2542TIP3    H229186   6.396   3.560   0.761  0.3820  0.2034 -0.1545
 2543TIP3   OH229187   5.667   6.649   1.146 -0.3356 -0.1193 -0.1184
 2543TIP3    H129188   5.680   6.562   1.184  0.3910 -0.1737 -0.4771
 2543TIP3    H229189   5.611   6.634   1.070  0.3788 -0.3715 -0.5951
 2544TIP3   OH229190   4.348   3.811   1.519  0.5445 -0.0835  0.5620
 2544TIP3    H129191   4.284   3.811   1.591 -1.6083  0.5685 -1.2473
 2544TIP3    H229192   4.301   3.773   1.445  1.8995  1.3724 -1.1380
 2545TIP3   OH229193   0.305   4.485   0.824  0.2684  0.3657  0.0202
 2545TIP3    H129194   0.363   4.471   0.898 -0.2844  0.0166  0.3943
 2545TIP3    H229195   0.227   4.525   0.862  0.0802  0.4265 -0.4159
 2546TIP3   OH229196   5.686   4.233   0.107  0.5038  0.3561  0.3070
 2546TIP3    H129197   5.615   4.296   0.124  1.5035  2.0511 -1.3585
 2546TIP3    H229198   5.657   4.185   0.029 -0.1558 -1.1455  1.4454
 2547TIP3   OH229199   4.334   3.714   7.781  0.0818  0.0755  0.5536
 2547TIP3    H129200   4.407   3.773   7.804  1.0779 -1.1275  0.5844
 2547TIP3    H229201   4.344   3.700   7.687 -0.3158  0.1597  0.4987
 2548TIP3   OH229202   6.279   6.135   1.048 -0.0407  0.2049  0.2399
 2548TIP3    H129203   6.267   6.074   1.120  0.2027 -1.2891 -0.9331
 2548TIP3    H229204   6.190   6.160   1.021 -0.2480 -1.4552 -0.7306
 2549TIP3   OH229205   1.974   3.474   0.825  0.1683 -0.1160 -0.3339
 2549TIP3    H129206   1.884   3.453   0.798 -0.3280 -1.8230  2.2814
 2549TIP3    H229207   1.969   3.565   0.855 -0.7665 -0.2539 -0.0147
 2550TIP3   OH229208   0.554   0.567   1.968 -0.3953  0.2079 -0.0968
 2550TIP3    H129209   0.485   0.534   1.910 -2.2817  0.3125  1.9568
 2550TIP3    H229210   0.513   0.568   2.055  2.4977 -0.5337  1.3761
 2551TIP3   OH229211   6.258   0.766   1.385 -0.4779 -0.4993 -0.3164
 2551TIP3    H129212   6.312   0.843   1.370 -0.3808 -0.8798 -2.1308
 2551TIP3    H229213   6.294   0.727   1.464 -0.3695  1.1473  0.4913
 2552TIP3   OH229214   2.718   1.614   2.316  0.7166  0.0914  0.3535
 2552TIP3    H129215   2.716   1.530   2.361  0.5541  0.3180  0.7777
 2552TIP3    H229216   2.737   1.678   2.385  1.9360  0.2921 -0.1420
 2553TIP3   OH229217   1.454   3.269   2.153 -0.2107 -0.3692  0.1590
 2553TIP3    H129218   1.525   3.213   2.123 -1.3648 -1.5648 -0.4686
 2553TIP3    H229219   1.392   3.208   2.195 -0.2581  0.8094  1.8932
 2554TIP3   OH229220   5.136   5.369   1.809  0.0539 -0.0851 -0.4827
 2554TIP3    H129221   5.226   5.403   1.804  0.9763 -2.2290  0.0246
 2554TIP3    H229222   5.121   5.354   1.902  0.0753 -1.8136 -0.7107
 2555TIP3   OH229223   1.061   3.625   1.833 -0.1655 -0.6677 -0.6398
 2555TIP3    H129224   1.051   3.717   1.858  0.3110 -0.8980  0.4599
 2555TIP3    H229225   1.100   3.583   1.910 -1.2493 -1.9834 -0.7635
 2556TIP3   OH229226   2.733   2.979   1.569  0.3780 -0.9565  0.6849
 2556TIP3    H129227   2.710   2.886   1.573  0.7291 -1.0107  1.7404
 2556TIP3    H229228   2.744   3.005   1.661  1.5167 -0.1849  0.3554
 2557TIP3   OH229229   5.800   6.376   8.137  0.2282  0.1607  0.1164
 2557TIP3    H129230   5.747   6.449   8.105 -0.2930 -0.6294 -0.8923
 2557TIP3    H229231   5.884   6.385   8.090  0.3955  0.4843  0.4807
 2558TIP3   OH229232   5.369   4.374   2.704 -0.4678  0.2406  0.0852
 2558TIP3    H129233   5.461   4.396   2.724 -0.8481  3.0168 -0.7176
 2558TIP3    H229234   5.372   4.283   2.675  2.1055  0.3385 -0.2155
 2559TIP3   OH229235   1.042   3.113   1.201 -0.2122 -0.4669  0.1395
 2559TIP3    H129236   1.020   3.040   1.258 -2.4783 -1.2240 -1.5718
 2559TIP3    H229237   1.027   3.191   1.255 -0.3183 -1.1967  1.1879
 2560TIP3   OH229238   5.450   1.982   7.343  0.2344  0.7830 -0.7657
 2560TIP3    H129239   5.364   1.943   7.326 -0.4716  1.3941  1.1306
 2560TIP3    H229240   5.472   2.027   7.262 -0.7496 -0.2413 -1.6384
 2561TIP3   OH229241   4.337   2.505   7.092 -0.0604 -0.4972 -0.3028
 2561TIP3    H129242   4.328   2.469   7.004 -0.6199  0.2353 -0.5530
 2561TIP3    H229243   4.263   2.565   7.101  0.5276  0.1509  0.3153
 2562TIP3   OH229244   3.394   1.237   1.035 -0.1305  0.3603  0.3319
 2562TIP3    H129245   3.326   1.227   0.969  0.8253 -1.7304 -0.4182
 2562TIP3    H229246   3.462   1.174   1.010  0.5638 -0.0561  2.9609
 2563TIP3   OH229247   1.695   1.194   0.352  0.0203 -0.3665 -0.3337
 2563TIP3    H129248   1.688   1.280   0.310 -0.3124  0.4129  1.2288
 2563TIP3    H229249   1.784   1.165   0.332  0.5372  0.8733  0.0159
 2564TIP3   OH229250   2.894   2.653   0.165  0.0202 -0.4321 -0.1029
 2564TIP3    H129251   2.844   2.672   0.245 -1.3612 -3.3918 -0.1193
 2564TIP3    H229252   2.828   2.622   0.103  1.0948  1.5264 -2.3819
 2565TIP3   OH229253   6.490   5.895   1.065 -0.6028 -0.2027 -0.3009
 2565TIP3    H129254   6.540   5.911   0.984  2.2985 -1.9848  0.9650
 2565TIP3    H229255   6.542   5.938   1.133 -1.8742 -0.4907  0.8785
 2566TIP3   OH229256   3.576   1.099   0.405 -0.3692 -0.5809  0.0711
 2566TIP3    H129257   3.668   1.085   0.384 -0.5610 -0.8880 -0.6204
 2566TIP3    H229258   3.530   1.085   0.322 -0.9385  0.6769  0.1397
 2567TIP3   OH229259   2.016   3.842   7.928 -0.0998 -0.2333  0.1865
 2567TIP3    H129260   2.090   3.801   7.883  0.9510  1.2478  0.4795
 2567TIP3    H229261   1.978   3.900   7.862  0.1519  0.3748  0.5632
 2568TIP3   OH229262   5.500   6.714   2.730 -0.4524  0.2076 -0.1355
 2568TIP3    H129263   5.405   6.722   2.737 -0.3691  1.1895 -0.0007
 2568TIP3    H229264   5.513   6.644   2.667 -1.2710  0.3325 -0.4623
 2569TIP3   OH229265   5.983   1.493   0.009  0.2348  0.0799 -0.0834
 2569TIP3    H129266   5.889   1.486   0.027  0.4784 -0.8248  0.9431
 2569TIP3    H229267   6.017   1.405   0.027  1.0081 -0.1071 -2.1759
 2570TIP3   OH229268   1.166   4.479   7.297  0.2787  0.2425 -0.2146
 2570TIP3    H129269   1.215   4.410   7.251  0.3044  0.7357 -0.9495
 2570TIP3    H229270   1.076   4.468   7.266  0.0909 -0.0699  0.4195
 2571TIP3   OH229271   1.945   5.491   8.346  0.3873 -0.7503 -0.0694
 2571TIP3    H129272   1.902   5.571   8.374  0.6118 -0.4351 -0.6185
 2571TIP3    H229273   1.878   5.423   8.356 -0.6195 -0.1007 -1.9278
 2572TIP3   OH229274   4.470   3.177   2.088  0.3789 -0.1138  0.1032
 2572TIP3    H129275   4.489   3.148   1.999 -0.4793 -2.2175  0.5425
 2572TIP3    H229276   4.462   3.096   2.138 -0.0287  0.9973  1.9248
 2573TIP3   OH229277   0.555   2.817   1.427 -0.3948 -0.0466  0.2727
 2573TIP3    H129278   0.593   2.888   1.375  2.0374  0.3147  2.3737
 2573TIP3    H229279   0.483   2.858   1.474  0.0866  0.6844  0.3897
 2574TIP3   OH229280   6.208   3.865   1.129  0.8552 -1.2015 -0.0292
 2574TIP3    H129281   6.270   3.809   1.083  0.7239 -0.1939 -1.4753
 2574TIP3    H229282   6.248   3.879   1.215  1.5645 -2.3165 -0.1569
 2575TIP3   OH229283   3.409   6.150   0.349  0.1859  0.3584  0.3069
 2575TIP3    H129284   3.503   6.157   0.364  1.2296 -1.5282 -3.7266
 2575TIP3    H229285   3.382   6.074   0.401  1.2580 -0.0243  0.3362
 2576TIP3   OH229286   1.073   0.688   2.169 -0.2860 -0.4602  0.1615
 2576TIP3    H129287   1.019   0.618   2.132 -0.8053 -0.3565  0.7001
 2576TIP3    H229288   1.053   0.687   2.263 -1.5146  1.4228 -0.0293
 2577TIP3   OH229289   4.840   4.278   0.890  0.0608 -0.2925  0.3909
 2577TIP3    H129290   4.858   4.323   0.808 -2.8539  0.1176 -0.1531
 2577TIP3    H229291   4.905   4.312   0.951  0.2863  1.8889 -0.9441
 2578TIP3   OH229292   5.612   3.960   7.584  0.0608  0.0733  0.4845
 2578TIP3    H129293   5.693   4.010   7.585 -1.3470  2.4581  0.7370
 2578TIP3    H229294   5.610   3.917   7.669  0.1177  1.6189  1.2970
 2579TIP3   OH229295   2.494   1.938   7.983 -0.2641  0.0234  0.3152
 2579TIP3    H129296   2.545   1.988   7.919 -1.2026 -0.6195 -0.9712
 2579TIP3    H229297   2.441   1.878   7.931 -0.7962 -0.7840  1.7229
 2580TIP3   OH229298   3.995   1.929   7.866  0.0225  0.5523  0.0135
 2580TIP3    H129299   3.983   1.850   7.814 -2.6067  0.5895  0.4446
 2580TIP3    H229300   3.951   1.998   7.817  0.3151  1.2857  0.7373
 2581TIP3   OH229301   0.688   2.503   0.894 -0.2766 -0.3294  0.6853
 2581TIP3    H129302   0.640   2.586   0.886  1.2693  0.5007 -0.6545
 2581TIP3    H229303   0.692   2.486   0.988 -1.4647  0.6020  0.9274
 2582TIP3   OH229304   5.146   3.843   7.222 -0.3523  0.1479  0.3850
 2582TIP3    H129305   5.233   3.858   7.259 -1.0655  1.0509  1.8119
 2582TIP3    H229306   5.144   3.894   7.142  0.3179  0.4032  0.5253
 2583TIP3   OH229307   0.468   5.415   1.337 -0.6346 -0.1525 -0.0986
 2583TIP3    H129308   0.408   5.488   1.352  0.6940  0.7249  1.1860
 2583TIP3    H229309   0.441   5.348   1.399 -0.5660  0.0679  0.1692
 2584TIP3   OH229310   0.528   0.138   0.909 -0.4357 -0.1094 -0.4902
 2584TIP3    H129311   0.458   0.168   0.967 -0.2473  0.0738 -0.3526
 2584TIP3    H229312   0.487   0.133   0.822 -0.4310  0.7549 -0.5576
 2585TIP3   OH229313   4.453   1.459   7.534 -0.3950  0.0156 -0.7199
 2585TIP3    H129314   4.411   1.545   7.527  2.0881  1.3446 -0.3270
 2585TIP3    H229315   4.544   1.474   7.508  0.2171 -2.4226 -0.2433
 2586TIP3   OH229316   0.892   1.632   2.181  0.3653 -0.0540  0.5880
 2586TIP3    H129317   0.950   1.566   2.142  3.3396  0.8557  3.1257
 2586TIP3    H229318   0.837   1.583   2.242  0.5662 -0.5356  0.3865
 2587TIP3   OH229319   1.558   2.997   7.908  0.2707 -0.3472 -0.0921
 2587TIP3    H129320   1.470   3.031   7.894  0.5112  0.2654 -0.1232
 2587TIP3    H229321   1.584   3.033   7.993  0.5769 -0.3468 -0.1870
 2588TIP3   OH229322   4.160   4.947   2.398  0.7761  0.0801  0.2702
 2588TIP3    H129323   4.101   4.909   2.332  1.2507  1.2542 -0.8708
 2588TIP3    H229324   4.107   5.013   2.442  0.4146 -0.8045  1.2131
 2589TIP3   OH229325   0.055   3.829   0.198  0.4637  0.7480  0.2410
 2589TIP3    H129326   0.056   3.784   0.114  1.8652 -0.6280  0.9269
 2589TIP3    H229327   0.148   3.836   0.222  0.1823  2.4972  0.9804
 2590TIP3   OH229328   5.929   1.899   1.915 -0.1721 -0.0701 -0.3832
 2590TIP3    H129329   5.879   1.975   1.886 -0.6404 -0.0885  0.3634
 2590TIP3    H229330   5.918   1.897   2.010  2.9384  1.1828  0.1507
 2591TIP3   OH229331   0.849   6.234   6.701 -0.2733 -0.0840  0.3723
 2591TIP3    H129332   0.910   6.229   6.628  0.1086 -1.2178  0.7464
 2591TIP3    H229333   0.773   6.282   6.666 -0.8546 -2.1110 -1.3547
 2592TIP3   OH229334   4.799   2.850   0.769  0.1338  0.2644 -0.3410
 2592TIP3    H129335   4.891   2.839   0.744 -0.0336  0.2801 -0.9844
 2592TIP3    H229336   4.770   2.927   0.720 -0.3775 -0.0784 -0.5926
 2593TIP3   OH229337   1.430   6.461   0.596 -0.4146  0.2205 -0.5903
 2593TIP3    H129338   1.382   6.544   0.603  0.4139  0.8738 -2.0952
 2593TIP3    H229339   1.437   6.446   0.501  2.0367  0.0049 -0.4354
 2594TIP3   OH229340   3.841   5.322   0.146  0.4977  0.5023  0.4163
 2594TIP3    H129341   3.918   5.295   0.096  0.8847 -0.0057  1.2684
 2594TIP3    H229342   3.834   5.416   0.129 -1.7943 -0.1964 -3.8721
 2595TIP3   OH229343   6.737   2.245   6.906  0.1738  0.1038  0.4645
 2595TIP3    H129344   6.721   2.262   6.999 -0.2705  2.5693  0.0114
 2595TIP3    H229345   6.669   2.183   6.881 -1.3947  1.4253  1.2466
 2596TIP3   OH229346   5.120   5.085   1.302 -0.1579 -0.3686  0.4151
 2596TIP3    H129347   5.064   5.132   1.363  0.4957  2.5869 -1.0730
 2596TIP3    H229348   5.158   5.153   1.247  0.1384 -2.7465 -2.6043
 2597TIP3   OH229349   4.593   6.298   1.290 -0.4636 -0.0740  0.5358
 2597TIP3    H129350   4.668   6.246   1.264 -1.2109 -0.3268 -1.2085
 2597TIP3    H229351   4.630   6.384   1.313  0.4595 -0.5319  0.8157
 2598TIP3   OH229352   6.424   3.089   8.170  0.2704 -0.1695  0.3308
 2598TIP3    H129353   6.462   3.039   8.098 -2.5669 -0.7527 -0.9134
 2598TIP3    H229354   6.402   3.023   8.236 -0.1357 -0.0865  0.2818
 2599TIP3   OH229355   6.567   3.170   7.193  0.1816  0.3395  0.2237
 2599TIP3    H129356   6.490   3.157   7.138 -0.5542 -0.9452  1.4813
 2599TIP3    H229357   6.554   3.255   7.235 -0.6353  0.0835  0.5093
 2600TIP3   OH229358   2.689   3.312   1.210 -0.0027  0.9446 -0.6087
 2600TIP3    H129359   2.734   3.232   1.186 -1.1632 -0.4902  1.7364
 2600TIP3    H229360   2.621   3.322   1.143  0.1122 -0.0713 -0.8860
 2601TIP3   OH229361   3.261   1.743   0.208 -0.0958  0.2582 -0.8639
 2601TIP3    H129362   3.351   1.711   0.217 -0.4581 -0.6427 -0.3440
 2601TIP3    H229363   3.219   1.681   0.148 -0.3563  0.7074 -1.1491
 2602TIP3   OH229364   0.809   3.012   0.980  0.8309 -0.3137  0.5680
 2602TIP3    H129365   0.889   3.064   0.975 -0.4596  1.8166  0.6358
 2602TIP3    H229366   0.776   3.026   1.068  0.1618 -0.7822  0.4021
 2603TIP3   OH229367   1.875   0.325   6.538 -0.2546  0.1776  0.2817
 2603TIP3    H129368   1.818   0.311   6.462 -0.9033 -0.6397  0.9019
 2603TIP3    H229369   1.963   0.325   6.501 -0.4417 -1.8615 -0.3018
 2604TIP3   OH229370   1.080   4.227   7.480  0.1233 -0.0736  0.2275
 2604TIP3    H129371   1.124   4.312   7.484 -2.2111  1.1916  0.7182
 2604TIP3    H229372   1.052   4.218   7.389  0.4038 -0.3569  0.1659
 2605TIP3   OH229373   2.962   3.767   1.795  0.6595  0.3768 -0.2832
 2605TIP3    H129374   2.938   3.725   1.877  2.9723 -2.0245 -0.6924
 2605TIP3    H229375   2.918   3.852   1.797  0.6990  0.4580  3.4539
 2606TIP3   OH229376   5.641   0.467   7.561 -0.2969 -0.0128 -0.2925
 2606TIP3    H129377   5.690   0.412   7.500 -0.6620 -2.2264  1.2874
 2606TIP3    H229378   5.700   0.479   7.635 -0.2007  1.8743 -0.6107
 2607TIP3   OH229379   1.778   5.097   7.623  0.4189 -0.3666 -0.0375
 2607TIP3    H129380   1.831   5.131   7.550 -0.5112 -1.1809 -1.1266
 2607TIP3    H229381   1.783   5.002   7.613 -2.3115 -0.4738 -0.9911
 2608TIP3   OH229382   4.549   4.416   7.628  0.6822  0.5331  0.3267
 2608TIP3    H129383   4.479   4.448   7.571 -1.7674 -2.0540  1.5601
 2608TIP3    H229384   4.549   4.477   7.702 -1.0298  0.1010  0.7457
 2609TIP3   OH229385   6.603   2.839   7.195  1.1367  0.0532  1.2291
 2609TIP3    H129386   6.643   2.782   7.130 -1.6709  0.6114 -1.1753
 2609TIP3    H229387   6.665   2.912   7.203  1.2788  0.3475 -1.4765
 2610TIP3   OH229388   1.375   0.371   0.467  0.4956  0.0251  0.5548
 2610TIP3    H129389   1.316   0.297   0.451 -0.2571  0.3292  1.8108
 2610TIP3    H229390   1.425   0.346   0.545  2.3662 -0.4033 -0.7170
 2611TIP3   OH229391   4.801   2.558   7.728  0.0044  0.6367  0.2197
 2611TIP3    H129392   4.792   2.565   7.633 -2.2041 -1.4253  0.1793
 2611TIP3    H229393   4.738   2.621   7.764  1.0607  1.6424  0.3636
 2612TIP3   OH229394   0.602   5.504   2.030 -0.6678 -0.3534  0.3167
 2612TIP3    H129395   0.589   5.564   2.103 -3.0028 -0.4623  0.0735
 2612TIP3    H229396   0.577   5.418   2.065  0.0862 -0.7402 -0.0781
 2613TIP3   OH229397   5.320   3.947   1.079 -0.2793 -0.4908  0.0599
 2613TIP3    H129398   5.399   3.916   1.034  0.0581  0.0410  0.2758
 2613TIP3    H229399   5.259   3.874   1.072 -0.5038 -0.1862 -1.9149
 2614TIP3   OH229400   3.667   1.328   1.538  0.0506 -0.0248  0.4872
 2614TIP3    H129401   3.620   1.411   1.535  0.8707  0.4335 -0.1844
 2614TIP3    H229402   3.758   1.352   1.558  0.3707 -0.7153 -0.0855
 2615TIP3   OH229403   0.584   2.781   1.722 -0.2837  0.3110  0.0116
 2615TIP3    H129404   0.585   2.866   1.680 -0.4459  0.9727  1.3003
 2615TIP3    H229405   0.509   2.784   1.781  0.4630 -0.2453  1.0149
 2616TIP3   OH229406   6.072   2.610   0.675  0.3694 -0.1116  0.8253
 2616TIP3    H129407   6.032   2.663   0.744 -0.9152  0.9696 -0.6820
 2616TIP3    H229408   6.011   2.617   0.601  1.1767 -2.0819 -0.0923
 2617TIP3   OH229409   3.109   5.465   8.593  0.3368  0.6003  0.2374
 2617TIP3    H129410   3.083   5.553   8.564 -2.5618 -0.3538 -0.4493
 2617TIP3    H229411   3.135   5.421   8.512  0.6175  0.4779  0.3955
 2618TIP3   OH229412   2.192   2.901   0.840 -0.1441 -0.4043 -0.1075
 2618TIP3    H129413   2.264   2.838   0.833  0.0534 -0.1859 -0.0817
 2618TIP3    H229414   2.236   2.986   0.844 -0.3750 -0.3113  0.6191
 2619TIP3   OH229415   0.769   1.288   1.403  0.2430  0.1022  0.0885
 2619TIP3    H129416   0.707   1.352   1.437  0.5946  0.1932  0.5639
 2619TIP3    H229417   0.838   1.284   1.469  0.9972  0.3709 -0.6635
 2620TIP3   OH229418   3.227   1.364   6.747 -0.2650  0.6388 -0.1729
 2620TIP3    H129419   3.147   1.324   6.712 -0.4244  1.4044 -0.6989
 2620TIP3    H229420   3.199   1.409   6.826 -0.1883  0.1906  0.1145
 2621TIP3   OH229421   6.518   1.185   0.367  0.4283  0.1299  0.4857
 2621TIP3    H129422   6.446   1.125   0.388  1.4435 -0.7512  1.5495
 2621TIP3    H229423   6.484   1.272   0.389 -0.8301 -0.0934 -0.4490
 2622TIP3   OH229424   3.977   3.423   7.866 -0.7029  0.0546  0.8504
 2622TIP3    H129425   3.899   3.397   7.815  0.4120 -1.5160 -0.1368
 2622TIP3    H229426   4.049   3.420   7.803  0.2202  1.2765  1.7979
 2623TIP3   OH229427   5.114   5.675   8.399 -0.0668 -0.1925 -0.2111
 2623TIP3    H129428   5.046   5.708   8.340 -1.5562 -1.2365  0.8542
 2623TIP3    H229429   5.096   5.581   8.406  1.2816 -0.4314  0.3967
 2624TIP3   OH229430   2.740   5.340   2.423  0.0824  0.8837 -0.6148
 2624TIP3    H129431   2.755   5.248   2.400 -0.2578  1.1102 -1.7919
 2624TIP3    H229432   2.825   5.371   2.453 -0.1236 -0.1953  1.2237
 2625TIP3   OH229433   5.541   5.974   0.970  0.2954 -0.0325  0.1963
 2625TIP3    H129434   5.526   5.880   0.980 -1.3666 -0.1644 -2.6589
 2625TIP3    H229435   5.574   5.984   0.881 -1.2274  2.2363 -0.1861
 2626TIP3   OH229436   1.230   4.565   1.473  0.2593  0.1904 -0.3125
 2626TIP3    H129437   1.160   4.502   1.491 -1.2028  1.4799 -1.1568
 2626TIP3    H229438   1.225   4.580   1.379  0.8902  1.1923 -0.2024
 2627TIP3   OH229439   4.027   0.050   0.175 -0.6824 -0.3126 -0.0194
 2627TIP3    H129440   4.044  -0.028   0.228 -1.3770 -0.1844  0.3965
 2627TIP3    H229441   3.934   0.069   0.189 -0.3555  1.0268  0.4648
 2628TIP3   OH229442   5.369   2.705   7.372 -0.8863 -0.4630 -0.2946
 2628TIP3    H129443   5.428   2.701   7.297 -0.2028 -0.8834  0.2561
 2628TIP3    H229444   5.285   2.675   7.337 -1.0930  1.2802 -1.3693
 2629TIP3   OH229445   1.572   0.169   1.041 -0.3828 -0.8022  0.0519
 2629TIP3    H129446   1.513   0.110   0.994 -1.0575 -0.2064  0.1268
 2629TIP3    H229447   1.535   0.256   1.026  0.1626 -0.4732  0.5756
 2630TIP3   OH229448   2.137   6.359   0.928  0.8541  0.3252  0.3189
 2630TIP3    H129449   2.208   6.369   0.992  0.2558  1.8430  0.7699
 2630TIP3    H229450   2.061   6.337   0.981  0.5829  0.5280  0.0101
 2631TIP3   OH229451   6.008   1.974   0.546  0.0764 -0.5619 -0.2310
 2631TIP3    H129452   5.995   2.068   0.543 -1.0113 -0.6777  0.2725
 2631TIP3    H229453   6.089   1.962   0.594  1.5783  0.1825 -2.4105
 2632TIP3   OH229454   0.587   1.989   1.175  0.3795  0.2791 -0.3186
 2632TIP3    H129455   0.598   2.018   1.265  0.3569 -0.1899 -0.1611
 2632TIP3    H229456   0.548   1.902   1.182  0.9696 -0.0301 -0.7610
 2633TIP3   OH229457   5.534   4.123   8.429 -0.2956  0.2084  0.0367
 2633TIP3    H129458   5.600   4.189   8.449 -0.1010 -0.6352  2.5080
 2633TIP3    H229459   5.457   4.172   8.404  0.2685  1.3155  0.4269
 2634TIP3   OH229460   4.155   6.613   1.618  0.1157  0.2844 -0.5055
 2634TIP3    H129461   4.117   6.578   1.538 -0.8765  0.2141 -0.0179
 2634TIP3    H229462   4.242   6.644   1.592  1.2051 -2.7961 -0.9043
 2635TIP3   OH229463   6.222   4.491   1.992 -0.4152 -0.3437 -0.1611
 2635TIP3    H129464   6.268   4.448   2.064  2.6398  2.6402 -0.0663
 2635TIP3    H229465   6.164   4.554   2.035  0.1537  0.2589 -0.2532
 2636TIP3   OH229466   3.238   4.377   1.167 -0.2500  0.3919 -0.6182
 2636TIP3    H129467   3.200   4.394   1.253 -1.3284 -1.0542 -0.7569
 2636TIP3    H229468   3.234   4.281   1.158 -1.0843  0.5623 -2.6607
 2637TIP3   OH229469   5.871   6.381   0.261  0.1469  0.3764 -0.1009
 2637TIP3    H129470   5.965   6.368   0.248  0.1959 -1.0065  1.2336
 2637TIP3    H229471   5.830   6.336   0.187  0.5331 -0.9106  0.4300
 2638TIP3   OH229472   1.725   1.899   8.689 -0.0398  0.0656 -0.1020
 2638TIP3    H129473   1.757   1.913   8.778  1.4919  2.6557 -0.9346
 2638TIP3    H229474   1.640   1.942   8.687  1.1120  2.4835 -0.5084
 2639TIP3   OH229475   4.181   0.443   7.870  0.3758  0.3408  0.1066
 2639TIP3    H129476   4.186   0.518   7.810  1.5691  0.2971  0.1239
 2639TIP3    H229477   4.092   0.410   7.860  0.3445  0.7408 -1.1638
 2640TIP3   OH229478   6.324   5.200   0.322  0.0726 -0.2016  0.6242
 2640TIP3    H129479   6.287   5.120   0.285 -0.6423  0.4352 -0.0730
 2640TIP3    H229480   6.353   5.250   0.246  0.6688  0.1369  1.0663
 2641TIP3   OH229481   3.184   4.515   0.911 -0.0184  0.6952  0.3458
 2641TIP3    H129482   3.190   4.457   0.987 -3.1968 -0.7538 -0.3366
 2641TIP3    H229483   3.129   4.587   0.939  0.1111  0.9844 -0.1275
 2642TIP3   OH229484   4.129   0.689   8.860  0.3160  0.3286 -0.7138
 2642TIP3    H129485   4.182   0.763   8.833 -0.4521  0.1528 -2.9069
 2642TIP3    H229486   4.182   0.644   8.926  1.7648  1.5446 -1.0017
 2643TIP3   OH229487   0.056   4.648   7.746  0.5605 -0.2275  0.2794
 2643TIP3    H129488   0.020   4.689   7.668 -2.0478  0.1830  1.5800
 2643TIP3    H229489   0.148   4.675   7.748  0.5632  0.2082 -2.2841
 2644TIP3   OH229490   5.792   5.436   0.763  0.2003  0.4244  0.0429
 2644TIP3    H129491   5.795   5.495   0.839  1.7734  0.9482 -0.4045
 2644TIP3    H229492   5.855   5.367   0.783 -0.6334 -0.3905 -0.0502
 2645TIP3   OH229493   4.923   6.145   0.157 -0.3881 -0.1636 -0.5577
 2645TIP3    H129494   5.012   6.111   0.151 -0.6602 -1.8344  2.6988
 2645TIP3    H229495   4.927   6.211   0.226 -1.8945 -1.5472  0.9589
 2646TIP3   OH229496   5.836   2.430   1.614  0.1377  0.6142 -0.2833
 2646TIP3    H129497   5.761   2.445   1.671 -0.4844  0.8870 -1.1520
 2646TIP3    H229498   5.877   2.516   1.604 -1.5992  1.2923 -2.7304
 2647TIP3   OH229499   5.124   3.055   6.732 -0.0263  0.3375  0.0457
 2647TIP3    H129500   5.209   3.064   6.774 -0.3989 -0.1668  0.9436
 2647TIP3    H229501   5.114   3.135   6.680  0.2292  1.2463  1.3403
 2648TIP3   OH229502   2.319   3.916   7.337  0.3304 -0.5513 -0.2943
 2648TIP3    H129503   2.395   3.966   7.305  0.4813  1.0838  2.3830
 2648TIP3    H229504   2.244   3.956   7.292  0.8394 -0.8175 -1.4165
 2649TIP3   OH229505   6.697   0.844   2.307 -0.3273  0.1339  0.0867
 2649TIP3    H129506   6.779   0.892   2.294 -1.4604  1.9178 -0.9611
 2649TIP3    H229507   6.716   0.755   2.276  1.8700 -0.2110  2.1921
 2650TIP3   OH229508   3.184   1.545   6.976  0.3964  0.6256  0.4803
 2650TIP3    H129509   3.234   1.543   7.057  0.3155 -0.5980  0.5288
 2650TIP3    H229510   3.118   1.612   6.989  0.2646  0.3038  1.5062
 2651TIP3   OH229511   1.124   1.922   7.785  0.1180  0.1623 -0.3524
 2651TIP3    H129512   1.085   2.009   7.784  1.1123  0.6268 -0.9968
 2651TIP3    H229513   1.196   1.928   7.721  0.4743 -0.9924 -0.0744
 2652TIP3   OH229514   6.321   5.602   1.863  0.5712  0.0741 -0.0585
 2652TIP3    H129515   6.358   5.515   1.849  0.8227  0.2622 -0.6135
 2652TIP3    H229516   6.303   5.606   1.957  0.7271 -0.5079  0.0004
 2653TIP3   OH229517   3.100   0.926   8.719  0.5595  0.1494 -0.6954
 2653TIP3    H129518   3.033   0.889   8.662 -0.7504 -0.0450  0.8827
 2653TIP3    H229519   3.160   0.853   8.735  0.3561 -0.0859 -0.9943
 2654TIP3   OH229520   4.741   3.353   8.825 -0.0413  0.0104 -0.0207
 2654TIP3    H129521   4.799   3.429   8.818  1.4730 -1.0894  0.0612
 2654TIP3    H229522   4.698   3.349   8.739  0.8181  0.2335 -0.4784
 2655TIP3   OH229523   5.651   2.347   8.359 -0.3106 -0.3955  0.2531
 2655TIP3    H129524   5.746   2.356   8.373 -0.4820 -0.2350  1.4593
 2655TIP3    H229525   5.615   2.430   8.392 -0.9068 -0.6553  0.2571
 2656TIP3   OH229526   1.237   0.724   7.298 -0.6337  0.0449  0.3096
 2656TIP3    H129527   1.226   0.790   7.229 -3.2765 -1.3767 -0.8036
 2656TIP3    H229528   1.253   0.775   7.377 -0.1238  1.8805 -0.8952
 2657TIP3   OH229529   6.130   1.688   2.224  0.7149  0.1680  0.6723
 2657TIP3    H129530   6.163   1.773   2.252 -0.1932  1.0179 -0.7254
 2657TIP3    H229531   6.192   1.659   2.156 -0.0086  0.6117 -0.1933
 2658TIP3   OH229532   1.982   3.373   1.316  0.5751  0.3112 -0.0105
 2658TIP3    H129533   2.050   3.389   1.381  0.4603  0.6137  0.0346
 2658TIP3    H229534   2.030   3.344   1.238  0.7143 -0.0113  0.1926
 2659TIP3   OH229535   1.071   2.941   7.692  0.3954  0.2583  0.1856
 2659TIP3    H129536   1.008   2.884   7.736 -2.0977  1.2514 -1.8422
 2659TIP3    H229537   1.031   3.028   7.695  1.6931  0.9374 -1.1699
 2660TIP3   OH229538   4.796   6.499   0.586 -0.2545 -0.3637  0.1215
 2660TIP3    H129539   4.890   6.517   0.588 -0.4504  0.6207  1.1482
 2660TIP3    H229540   4.757   6.578   0.549 -0.7310 -0.5735  0.1636
 2661TIP3   OH229541   5.002   1.922   7.712 -0.0030  0.6860 -0.6528
 2661TIP3    H129542   4.910   1.915   7.737  0.7299  1.2515  2.6348
 2661TIP3    H229543   5.023   2.015   7.725  1.6878  0.0752  1.5461
 2662TIP3   OH229544   1.762   0.720   0.154 -0.4973 -0.3506  0.0767
 2662TIP3    H129545   1.713   0.738   0.233 -1.6280 -0.7640 -0.5064
 2662TIP3    H229546   1.805   0.636   0.170 -1.0682 -0.6417  0.1048
 2663TIP3   OH229547   1.843   5.723   7.160  0.4704  0.4572  0.7653
 2663TIP3    H129548   1.812   5.812   7.142  1.7372  0.6524 -0.6049
 2663TIP3    H229549   1.920   5.735   7.215  1.4162  0.3092 -0.4928
 2664TIP3   OH229550   1.555   3.704   1.034  0.0939 -0.1900  0.1557
 2664TIP3    H129551   1.460   3.711   1.020  0.0023 -0.6167  0.5362
 2664TIP3    H229552   1.571   3.610   1.036 -0.0689 -0.2769  3.8723
 2665TIP3   OH229553   3.020   5.690   0.658  0.4819 -0.2661 -0.3809
 2665TIP3    H129554   2.940   5.710   0.706  1.0155  0.0908  0.3876
 2665TIP3    H229555   3.005   5.726   0.570 -0.1354 -0.0738 -0.2019
 2666TIP3   OH229556   0.174   4.170   1.389 -0.4819 -0.3977  0.3100
 2666TIP3    H129557   0.251   4.162   1.332 -0.6091 -0.9564  0.2097
 2666TIP3    H229558   0.208   4.159   1.478 -0.0077  2.1719  0.5188
 2667TIP3   OH229559   2.235   4.264   7.360 -0.4549  0.3502 -0.8816
 2667TIP3    H129560   2.193   4.186   7.325  0.6077 -0.4123 -0.5289
 2667TIP3    H229561   2.233   4.328   7.289 -0.0562 -0.5024 -1.6649
 2668TIP3   OH229562   5.582   0.661   6.875 -0.2465  0.6409 -0.3487
 2668TIP3    H129563   5.543   0.745   6.901  0.0259  0.3791  1.0063
 2668TIP3    H229564   5.567   0.656   6.781 -0.8292  1.9186 -0.3537
 2669TIP3   OH229565   2.024   0.045   0.508  0.1364 -0.2415 -0.1037
 2669TIP3    H129566   2.090   0.063   0.574  0.8831 -0.9297 -0.6434
 2669TIP3    H229567   1.990  -0.042   0.531  0.6636 -0.6468 -0.8188
 2670TIP3   OH229568   2.379   3.236   8.396  0.3890  0.3947  0.5156
 2670TIP3    H129569   2.474   3.229   8.400  0.3216 -1.0584  0.2629
 2670TIP3    H229570   2.348   3.206   8.481  0.1276 -0.1442  0.2375
 2671TIP3   OH229571   1.457   1.218   2.040 -0.1890 -0.0152 -0.2402
 2671TIP3    H129572   1.381   1.215   2.099 -0.9852  2.5433 -1.0407
 2671TIP3    H229573   1.532   1.211   2.099 -0.9815  1.7025  1.0599
 2672TIP3   OH229574   5.921   6.175   7.669 -0.1280 -0.5289 -0.0336
 2672TIP3    H129575   5.899   6.084   7.651 -0.6197 -0.7844  1.6587
 2672TIP3    H229576   5.954   6.174   7.759  1.7324  0.6857 -0.6513
 2673TIP3   OH229577   4.462   5.834   0.187  0.0974  0.2339  0.0540
 2673TIP3    H129578   4.484   5.774   0.115  0.5345  0.3497  0.0870
 2673TIP3    H229579   4.386   5.882   0.155  1.0730  1.2077 -0.8872
 2674TIP3   OH229580   6.515   3.732   1.708  0.0053  0.3509  0.1869
 2674TIP3    H129581   6.592   3.733   1.651 -0.0108  1.0195  0.1704
 2674TIP3    H229582   6.510   3.642   1.740 -1.0190 -0.5447 -2.2502
 2675TIP3   OH229583   3.473   4.554   0.359  0.7455  0.9485  0.3143
 2675TIP3    H129584   3.555   4.566   0.405  0.7623  0.0913  0.5265
 2675TIP3    H229585   3.457   4.459   0.362  1.1899  0.7241 -2.1769
 2676TIP3   OH229586   5.580   3.269   6.798  0.4793  0.0107  0.4766
 2676TIP3    H129587   5.584   3.335   6.868 -0.8093  1.2755 -0.6026
 2676TIP3    H229588   5.490   3.238   6.799  0.9372 -1.4153  0.6181
 2677TIP3   OH229589   1.923   0.735   0.626  0.3349 -0.2333 -0.0352
 2677TIP3    H129590   1.906   0.809   0.684  2.4939  0.3950 -0.1420
 2677TIP3    H229591   1.943   0.662   0.685 -0.3962 -0.3769  0.0430
 2678TIP3   OH229592   2.778   0.227   0.392  0.6909  0.3460 -0.7887
 2678TIP3    H129593   2.759   0.244   0.299 -0.0138 -0.1683 -0.7429
 2678TIP3    H229594   2.813   0.310   0.424 -2.6036  1.8033 -0.5983
 2679TIP3   OH229595   3.475   3.129   0.211  0.8239  0.1694 -0.6199
 2679TIP3    H129596   3.453   3.041   0.239  1.5609  0.1032 -0.2107
 2679TIP3    H229597   3.407   3.185   0.250  1.0137 -0.0905  0.0979
 2680TIP3   OH229598   5.361   2.120   1.068 -0.2279 -0.0257 -0.3018
 2680TIP3    H129599   5.416   2.045   1.091  0.2054  0.3851 -0.0027
 2680TIP3    H229600   5.281   2.106   1.119  1.0034  1.2722  2.1859
 2681TIP3   OH229601   4.016   3.645   0.270 -0.1129 -0.4145 -0.6207
 2681TIP3    H129602   4.046   3.629   0.360 -3.1370  0.0195  0.5707
 2681TIP3    H229603   4.050   3.571   0.220  0.2765 -1.5529  1.2301
 2682TIP3   OH229604   6.561   6.379   7.546  0.4322  0.3750 -0.3131
 2682TIP3    H129605   6.602   6.456   7.585  3.5134 -0.7674 -1.0632
 2682TIP3    H229606   6.549   6.403   7.454  1.0957  0.0981 -0.4770
 2683TIP3   OH229607   1.367   4.007   7.224  0.4191  0.2445 -0.3597
 2683TIP3    H129608   1.356   4.101   7.209 -1.5881  0.4404  1.7653
 2683TIP3    H229609   1.308   3.966   7.160 -1.4461  0.6639  1.0031
 2684TIP3   OH229610   1.009   6.363   1.599  0.3740  0.3059 -0.1569
 2684TIP3    H129611   0.975   6.275   1.610 -1.0594  0.5732 -1.8476
 2684TIP3    H229612   1.034   6.391   1.687 -2.1972 -0.6113  0.9751
 2685TIP3   OH229613   5.340   0.535   7.939 -0.0028 -0.1952  0.4205
 2685TIP3    H129614   5.335   0.541   8.035  0.1851 -1.3273  0.5176
 2685TIP3    H229615   5.259   0.492   7.914  0.1024 -0.2063  0.1030
 2686TIP3   OH229616   4.543   0.751   7.177  0.0168 -0.6192  0.1119
 2686TIP3    H129617   4.483   0.783   7.245 -0.8007 -0.7892 -0.5108
 2686TIP3    H229618   4.546   0.820   7.112 -0.9017 -1.3198 -0.7097
 2687TIP3   OH229619   3.902   5.764   6.888  0.4042  0.5563 -0.2435
 2687TIP3    H129620   3.863   5.692   6.938  0.8126  0.2432 -0.3748
 2687TIP3    H229621   3.929   5.724   6.806  1.9050  0.5398  0.2253
 2688TIP3   OH229622   5.594   3.820   1.180  0.3369  0.1940 -0.3704
 2688TIP3    H129623   5.561   3.828   1.091 -0.6418  0.4656  0.0017
 2688TIP3    H229624   5.570   3.731   1.207 -0.9239  0.6738  0.2002
 2689TIP3   OH229625   6.770   4.628   1.210 -0.2252 -0.6749  0.3474
 2689TIP3    H129626   6.758   4.535   1.194 -1.1607 -0.5919  0.5417
 2689TIP3    H229627   6.681   4.664   1.213  0.1223  0.2073  0.3544
 2690TIP3   OH229628   0.713   4.163   8.174  0.0492  0.9021 -0.1859
 2690TIP3    H129629   0.640   4.122   8.220  1.1642  0.1646  0.9878
 2690TIP3    H229630   0.681   4.174   8.084 -1.2982  0.1031  0.1653
 2691TIP3   OH229631   2.239   6.579   1.503 -0.3172  0.2316 -0.2894
 2691TIP3    H129632   2.222   6.547   1.592  1.9683 -0.0310  0.1105
 2691TIP3    H229633   2.245   6.674   1.512 -0.0869  0.2050 -0.1609
 2692TIP3   OH229634   4.521   3.773   7.258 -0.4665 -0.6266 -0.0125
 2692TIP3    H129635   4.505   3.776   7.164 -0.4038 -1.5708 -0.0594
 2692TIP3    H229636   4.465   3.703   7.291  1.4704 -2.1444  0.2217
 2693TIP3   OH229637   0.665   3.202   8.295 -0.2522 -0.3605 -0.3029
 2693TIP3    H129638   0.715   3.125   8.266  0.8145 -0.6756  2.1149
 2693TIP3    H229639   0.715   3.277   8.263  0.1874 -0.6803 -0.3776
 2694TIP3   OH229640   0.831   5.769   7.897 -0.4868  0.1383  0.2712
 2694TIP3    H129641   0.741   5.778   7.928 -0.6851 -0.3203 -0.1540
 2694TIP3    H229642   0.858   5.683   7.928 -0.3196  0.1252  0.0892
 2695TIP3   OH229643   1.473   4.347   0.101 -0.2880  0.3308 -0.3057
 2695TIP3    H129644   1.439   4.263   0.070  0.6071 -0.4386  0.6940
 2695TIP3    H229645   1.397   4.393   0.135 -0.7301 -0.2616 -0.4790
 2696TIP3   OH229646   1.077   2.424   0.261  0.4520 -0.1850 -0.5448
 2696TIP3    H129647   1.120   2.469   0.188  0.1266 -0.2968 -0.8080
 2696TIP3    H229648   1.148   2.401   0.321  0.7842 -0.5950 -1.0958
 2697TIP3   OH229649   2.825   0.518   7.306  0.7122  0.3132  0.2241
 2697TIP3    H129650   2.803   0.559   7.222 -0.2754  0.1079  0.3710
 2697TIP3    H229651   2.746   0.528   7.358  0.9038 -0.6576  0.7095
 2698TIP3   OH229652   5.684   1.592   7.565  0.0306 -0.2759 -0.4656
 2698TIP3    H129653   5.599   1.558   7.593  0.5479  0.4748  2.3029
 2698TIP3    H229654   5.664   1.678   7.527 -0.4132  0.2047  0.8062
 2699TIP3   OH229655   2.188   5.807   1.012 -0.3578 -0.1022  0.2645
 2699TIP3    H129656   2.159   5.798   1.102  0.4411 -0.0366  0.5390
 2699TIP3    H229657   2.247   5.883   1.013 -2.7035  1.8780 -0.9136
 2700TIP3   OH229658   0.471   4.855   0.327 -0.5385 -0.0692  0.0496
 2700TIP3    H129659   0.431   4.941   0.341  0.1861  0.5908 -1.6453
 2700TIP3    H229660   0.555   4.861   0.373 -0.3842  0.2189 -0.2682
 2701TIP3   OH229661   3.573   5.262   7.862 -0.5896  0.4273 -0.7725
 2701TIP3    H129662   3.578   5.310   7.779 -1.0680  1.0405 -0.4555
 2701TIP3    H229663   3.580   5.170   7.837 -3.3474  0.3911 -1.7691
 2702TIP3   OH229664   4.733   5.948   7.997  0.0483 -0.4561 -0.3376
 2702TIP3    H129665   4.735   5.987   8.084 -1.9140  2.8165 -1.5703
 2702TIP3    H229666   4.824   5.927   7.978  0.7822  0.5711  1.7373
 2703TIP3   OH229667   5.421   6.308   7.010 -0.0059  0.4483 -0.0378
 2703TIP3    H129668   5.405   6.344   7.097  0.4844  1.4633 -0.3486
 2703TIP3    H229669   5.338   6.317   6.964 -0.9409 -2.0706  0.9408
 2704TIP3   OH229670   6.669   2.338   1.546 -0.5020 -0.0935 -0.5512
 2704TIP3    H129671   6.593   2.392   1.569  0.0028  1.3973 -2.1359
 2704TIP3    H229672   6.631   2.255   1.518 -1.3238 -0.4940  1.5594
 2705TIP3   OH229673   5.322   3.886   8.643 -0.6834 -0.9175 -0.0010
 2705TIP3    H129674   5.339   3.895   8.549 -0.6764 -0.5016  0.0349
 2705TIP3    H229675   5.343   3.972   8.679 -0.8315 -1.0294  0.3593
 2706TIP3   OH229676   4.655   6.546   1.357  0.7250  0.1443  0.2413
 2706TIP3    H129677   4.683   6.547   1.448 -0.3635  1.3734  0.6114
 2706TIP3    H229678   4.687   6.629   1.321  0.1156  0.2337 -0.1265
 2707TIP3   OH229679   2.888   4.304   0.504 -0.0260  0.1068  0.3309
 2707TIP3    H129680   2.942   4.340   0.574  1.9600 -1.6518 -0.1636
 2707TIP3    H229681   2.880   4.375   0.440  1.5982  0.5048  0.5244
 2708TIP3   OH229682   6.072   4.793   1.829 -0.1776 -0.2256 -0.2285
 2708TIP3    H129683   6.094   4.719   1.886 -0.7830  0.7708  1.3767
 2708TIP3    H229684   6.031   4.857   1.888  0.1140  1.2957 -1.6100
 2709TIP3   OH229685   3.494   5.007   2.029  0.0946 -0.0130 -0.0649
 2709TIP3    H129686   3.588   5.017   2.017  0.0420 -0.0223 -0.5152
 2709TIP3    H229687   3.483   4.994   2.123  0.6842 -1.5316 -0.1718
 2710TIP3   OH229688   5.924   5.072   0.741 -0.5866  0.2775 -0.2322
 2710TIP3    H129689   5.874   5.145   0.777 -1.2711 -0.0531 -0.5039
 2710TIP3    H229690   6.013   5.085   0.775 -0.8324  0.9156  0.1828
 2711TIP3   OH229691   4.206   4.480   2.344  0.2074 -0.3332 -0.6992
 2711TIP3    H129692   4.295   4.454   2.370 -1.0035 -1.8181  2.5007
 2711TIP3    H229693   4.190   4.560   2.393  0.1435  0.5876 -2.1834
 2712TIP3   OH229694   0.274   4.962   7.754 -0.1174 -0.1617  0.0619
 2712TIP3    H129695   0.250   5.043   7.710  2.4342  1.0335  0.6476
 2712TIP3    H229696   0.216   4.958   7.830 -2.2354 -0.4780 -1.4801
 2713TIP3   OH229697   3.553   2.553   7.498  0.3296 -0.3104 -0.2944
 2713TIP3    H129698   3.524   2.628   7.446 -0.2133 -0.8989 -0.8492
 2713TIP3    H229699   3.625   2.588   7.551 -0.3814  0.7948 -0.0075
 2714TIP3   OH229700   6.503   4.048   2.512  0.2172 -0.0248 -0.2287
 2714TIP3    H129701   6.434   4.019   2.571  0.9865  2.2893  1.9805
 2714TIP3    H229702   6.473   4.133   2.480  0.4111 -0.6581 -2.2950
 2715TIP3   OH229703   4.844   6.273   0.757 -0.1386  0.6845 -0.3467
 2715TIP3    H129704   4.847   6.349   0.698 -2.9169  1.5834  0.4790
 2715TIP3    H229705   4.879   6.201   0.705  1.3505  2.2473 -1.6243
 2716TIP3   OH229706   2.228   6.242   7.595 -0.1712  1.1147 -0.1162
 2716TIP3    H129707   2.307   6.194   7.571 -0.1620  0.5186  1.0615
 2716TIP3    H229708   2.260   6.330   7.619 -0.0116  1.2371 -0.7568
 2717TIP3   OH229709   4.780   6.100   1.231  0.1088  0.1511 -0.3103
 2717TIP3    H129710   4.774   6.008   1.257 -0.8821 -0.2154 -1.7234
 2717TIP3    H229711   4.752   6.101   1.139 -0.6271  1.9585 -0.1148
 2718TIP3   OH229712   1.900   2.572   1.207  0.1362 -0.0439 -0.7289
 2718TIP3    H129713   1.938   2.545   1.124  0.9697  0.6819 -0.5941
 2718TIP3    H229714   1.970   2.619   1.252 -1.3323  2.7558 -1.1443
 2719TIP3   OH229715   3.023   2.612   2.617  0.0276  0.3562  0.4961
 2719TIP3    H129716   3.105   2.661   2.621  0.1918  0.1487 -0.2402
 2719TIP3    H229717   3.014   2.587   2.525 -0.7549  0.1930  0.6105
 2720TIP3   OH229718   1.282   1.393   6.873 -0.1535  0.2986  0.0501
 2720TIP3    H129719   1.212   1.459   6.871 -0.4644 -0.0482 -0.8087
 2720TIP3    H229720   1.249   1.321   6.819  0.9384  0.1972 -0.5074
 2721TIP3   OH229721   2.253   1.237   1.083  0.1032  0.0468 -0.3191
 2721TIP3    H129722   2.162   1.228   1.110 -0.0360 -1.6304 -1.2243
 2721TIP3    H229723   2.249   1.279   0.997 -0.1349 -3.1190 -1.9971
 2722TIP3   OH229724   1.861   6.503   7.938 -0.4014  0.2137  0.3515
 2722TIP3    H129725   1.852   6.486   8.032 -0.3672  0.8136  0.4728
 2722TIP3    H229726   1.906   6.427   7.903 -0.1949  0.0971  0.8652
 2723TIP3   OH229727   5.362   1.003   0.178  0.1315  0.2265  0.7326
 2723TIP3    H129728   5.410   1.084   0.162 -2.0462  1.2966 -0.9272
 2723TIP3    H229729   5.394   0.942   0.111  0.4715  0.3156  0.8133
 2724TIP3   OH229730   5.809   0.312   0.096  0.2038 -0.1084  0.1831
 2724TIP3    H129731   5.771   0.229   0.123  1.5423 -0.4004  1.2384
 2724TIP3    H229732   5.770   0.329   0.010  0.9318 -2.5177 -0.6916
 2725TIP3   OH229733   1.103   3.641   2.608 -0.4451 -0.0596  0.1991
 2725TIP3    H129734   1.189   3.601   2.596 -0.8954 -2.0431  2.5220
 2725TIP3    H229735   1.119   3.718   2.663 -0.0875 -0.2669  0.3912
 2726TIP3   OH229736   5.648   4.971   6.701  0.0276  0.2807 -0.5813
 2726TIP3    H129737   5.589   5.046   6.695 -1.5577 -0.9942 -2.0123
 2726TIP3    H229738   5.728   5.007   6.740 -1.0094  2.4748 -0.2875
 2727TIP3   OH229739   5.072   2.466   8.502  0.4421  0.9851 -0.5806
 2727TIP3    H129740   5.139   2.398   8.497 -0.7957 -0.6074  1.9995
 2727TIP3    H229741   5.019   2.453   8.423 -0.5715 -2.1039  0.4333
 2728TIP3   OH229742   4.823   6.584   0.179  0.0111 -0.6085 -0.2029
 2728TIP3    H129743   4.908   6.625   0.193  0.3089 -1.1489 -0.4026
 2728TIP3    H229744   4.760   6.657   0.181  0.5349 -0.1379 -0.6218
 2729TIP3   OH229745   4.724   3.218   1.246 -0.4385  0.6727  0.1554
 2729TIP3    H129746   4.777   3.274   1.190  0.8859 -0.4047  0.2710
 2729TIP3    H229747   4.745   3.247   1.335 -0.1691  0.3554  0.1958
 2730TIP3   OH229748   2.422   5.098   8.495 -0.0912  0.3537  0.7237
 2730TIP3    H129749   2.499   5.065   8.542  1.1328  1.8646 -0.1080
 2730TIP3    H229750   2.372   5.020   8.474  1.4877 -0.7454  0.8386
 2731TIP3   OH229751   1.968   2.049   1.466  0.1484  0.7026 -0.7122
 2731TIP3    H129752   1.874   2.053   1.446  0.5929  0.9281 -3.0107
 2731TIP3    H229753   1.988   2.136   1.502 -0.6768  0.3087  0.8007
 2732TIP3   OH229754   3.039   0.445   7.551 -0.5688  0.2393 -0.0722
 2732TIP3    H129755   3.009   0.504   7.620  2.3185 -0.6050  2.0484
 2732TIP3    H229756   3.019   0.357   7.584  0.9537 -0.1847 -0.2277
 2733TIP3   OH229757   4.276   1.809   0.616  0.2847  0.2088 -0.1400
 2733TIP3    H129758   4.192   1.852   0.633 -0.0818 -0.8345  0.7543
 2733TIP3    H229759   4.259   1.751   0.542  0.2074 -0.0352  0.0695
 2734TIP3   OH229760   6.619   6.642   2.538 -0.5136 -0.1086  0.1508
 2734TIP3    H129761   6.558   6.592   2.592 -0.8619  1.3834  1.2300
 2734TIP3    H229762   6.593   6.733   2.551  1.2305  0.4945 -0.2672
 2735TIP3   OH229763   6.669   2.886   0.634 -0.1546 -0.5152  0.0140
 2735TIP3    H129764   6.617   2.958   0.598  0.7948  0.0873 -0.1782
 2735TIP3    H229765   6.741   2.875   0.572  0.5034 -0.6730  0.7907
 2736TIP3   OH229766   1.611   5.182   7.934  0.3694  0.6498  0.4111
 2736TIP3    H129767   1.530   5.231   7.947 -0.6957 -0.6699 -0.9993
 2736TIP3    H229768   1.589   5.092   7.958  1.5777  0.3560  0.4894
 2737TIP3   OH229769   1.238   6.452   2.076  0.6209 -0.4949 -0.4149
 2737TIP3    H129770   1.286   6.521   2.030  2.0531 -0.1820  1.4632
 2737TIP3    H229771   1.204   6.495   2.155 -3.7271 -0.3985 -2.0372
 2738TIP3   OH229772   6.084   4.748   7.315 -0.1594  0.1261 -0.3306
 2738TIP3    H129773   6.134   4.755   7.233 -0.2905 -1.0765 -0.5285
 2738TIP3    H229774   5.994   4.767   7.289 -0.1320  0.1949 -0.3766
 2739TIP3   OH229775   2.135   4.415   7.166 -0.1026 -0.4050  0.3959
 2739TIP3    H129776   2.227   4.432   7.146 -0.5868  0.3568 -1.3255
 2739TIP3    H229777   2.089   4.425   7.083 -1.6249 -1.8611  0.9856
 2740TIP3   OH229778   0.478   0.686   7.453  0.5239  0.5411 -0.1399
 2740TIP3    H129779   0.514   0.729   7.530 -0.8951  2.1316 -0.2787
 2740TIP3    H229780   0.553   0.676   7.394  1.2919  0.9599  0.7327
 2741TIP3   OH229781   2.288   0.225   8.699  0.3336  0.5476  0.4828
 2741TIP3    H129782   2.273   0.160   8.767 -0.5733 -0.1007 -0.3079
 2741TIP3    H229783   2.384   0.226   8.688  0.3271 -1.3738 -0.1408
 2742TIP3   OH229784   5.289   0.594   2.209 -0.2509  0.1476 -0.2341
 2742TIP3    H129785   5.353   0.545   2.260 -0.0602  0.7810  0.1409
 2742TIP3    H229786   5.302   0.685   2.235 -0.6288  0.3937 -0.8962
 2743TIP3   OH229787   5.809   2.623   0.559 -0.1221 -0.5682  0.0005
 2743TIP3    H129788   5.789   2.702   0.508  1.9566 -0.2619 -0.4312
 2743TIP3    H229789   5.816   2.554   0.493  0.8999 -0.5135  0.0392
 2744TIP3   OH229790   1.112   1.099   2.535 -0.2031 -0.3654 -0.1990
 2744TIP3    H129791   1.109   1.091   2.631  2.7473 -0.1737 -0.0219
 2744TIP3    H229792   1.072   1.019   2.503  0.0601 -1.0947  1.2243
 2745TIP3   OH229793   6.313   1.047   0.498  0.0671  0.0344  0.6674
 2745TIP3    H129794   6.259   0.974   0.528 -0.1748  0.3842  1.0974
 2745TIP3    H229795   6.336   1.094   0.578  1.9117 -0.7124  0.6278
 2746TIP3   OH229796   3.239   1.991   1.300  0.0341 -0.2674 -0.2060
 2746TIP3    H129797   3.229   1.897   1.310 -0.3730 -0.1680  0.3604
 2746TIP3    H229798   3.312   2.001   1.238  0.3145 -0.9482  0.0046
 2747TIP3   OH229799   3.058   5.930   6.447  0.0465  0.5941  0.4378
 2747TIP3    H129800   3.052   5.838   6.476 -0.0251  0.4893  0.0993
 2747TIP3    H229801   3.139   5.962   6.486  1.5206 -0.4122 -1.6061
 2748TIP3   OH229802   1.736   1.522   7.039 -0.1578 -0.0437  0.2638
 2748TIP3    H129803   1.759   1.460   6.970 -1.5843 -2.2240  1.6079
 2748TIP3    H229804   1.793   1.499   7.112  0.3802  1.3087  0.2860
 2749TIP3   OH229805   2.862   4.067   7.254  0.2842 -0.7975  0.3733
 2749TIP3    H129806   2.951   4.100   7.237 -0.0831 -0.9326 -2.2059
 2749TIP3    H229807   2.874   3.974   7.269  0.5198 -1.0285 -1.0880
 2750TIP3   OH229808   6.617   6.347   7.189 -0.4189 -0.2335  0.6554
 2750TIP3    H129809   6.692   6.310   7.236 -0.1205 -1.0812 -0.4397
 2750TIP3    H229810   6.542   6.298   7.222  0.0085 -2.1428 -1.0011
 2751TIP3   OH229811   5.741   3.760   0.777 -0.2690  0.1883 -0.2734
 2751TIP3    H129812   5.769   3.781   0.688 -2.0017  1.4275 -0.5843
 2751TIP3    H229813   5.769   3.670   0.791 -1.0355 -0.4510 -2.5259
 2752TIP3   OH229814   3.889   3.659   1.925  0.3843  0.2679  0.0994
 2752TIP3    H129815   3.970   3.662   1.977  0.0441  1.0182  0.6113
 2752TIP3    H229816   3.871   3.750   1.903 -0.1375  0.0729 -0.3049
 2753TIP3   OH229817   1.510   3.797   0.327 -0.3890  0.1932 -0.0884
 2753TIP3    H129818   1.441   3.734   0.304 -1.5704  1.1589  0.6645
 2753TIP3    H229819   1.553   3.757   0.403 -1.1545  0.2846  0.4104
 2754TIP3   OH229820   6.475   2.212   0.228  0.4194  0.8595  0.0630
 2754TIP3    H129821   6.455   2.284   0.287  1.2176 -0.6649  2.3268
 2754TIP3    H229822   6.567   2.191   0.245  0.3914 -0.2824 -1.0013
 2755TIP3   OH229823   5.740   0.743   0.841  0.3718  0.4611 -0.4528
 2755TIP3    H129824   5.796   0.812   0.808  0.3665  0.6967  0.0201
 2755TIP3    H229825   5.653   0.762   0.805  0.6523 -0.0899 -1.4520
 2756TIP3   OH229826   4.667   5.575   8.326 -0.2253 -0.4446  0.1419
 2756TIP3    H129827   4.578   5.538   8.320 -0.4819  0.1674  0.0886
 2756TIP3    H229828   4.724   5.506   8.293 -0.7618 -0.5302 -0.6253
 2757TIP3   OH229829   0.719   3.773   6.520 -0.1663  0.2918  0.4711
 2757TIP3    H129830   0.704   3.700   6.460  3.7744 -0.5354  0.2000
 2757TIP3    H229831   0.720   3.850   6.464 -1.2901  0.1692  0.2679
 2758TIP3   OH229832   0.920   0.061   0.831  0.1268 -0.0028  0.1792
 2758TIP3    H129833   0.925   0.119   0.907 -1.4822  0.9300 -0.3860
 2758TIP3    H229834   0.882  -0.021   0.865 -1.4508  0.7233  0.2556
 2759TIP3   OH229835   4.003   1.643   7.731 -0.0317  0.2053  0.3389
 2759TIP3    H129836   4.037   1.641   7.820  1.6791 -1.2949 -0.2911
 2759TIP3    H229837   4.081   1.651   7.675 -0.8919 -0.8328 -1.0801
 2760TIP3   OH229838   1.264   1.678   8.028 -0.0410 -0.2432 -0.7511
 2760TIP3    H129839   1.172   1.653   8.029 -0.2332  0.4474 -0.8750
 2760TIP3    H229840   1.300   1.634   7.951  0.1593 -1.9588  0.2704
 2761TIP3   OH229841   0.146   3.430   1.293 -0.5587  0.6916 -0.4790
 2761TIP3    H129842   0.061   3.390   1.312  0.0055 -0.7062 -0.7739
 2761TIP3    H229843   0.145   3.512   1.341 -2.0544  0.6701 -0.4348
 2762TIP3   OH229844   5.970   3.813   2.377  0.2600 -0.5787  0.5079
 2762TIP3    H129845   5.911   3.849   2.310  1.8006  1.9568  0.3542
 2762TIP3    H229846   5.984   3.722   2.351  1.2800  0.4431 -3.0772
 2763TIP3   OH229847   2.371   2.418   1.814  0.4225 -0.1653  0.1701
 2763TIP3    H129848   2.379   2.510   1.789  1.2806  0.2390  1.8363
 2763TIP3    H229849   2.327   2.419   1.899 -0.8589 -1.4002 -0.4383
 2764TIP3   OH229850   1.735   5.406   7.452 -0.0978 -0.3259 -0.1893
 2764TIP3    H129851   1.760   5.393   7.361 -0.8173 -1.9413 -0.1916
 2764TIP3    H229852   1.789   5.479   7.482  0.7930 -0.3572 -1.6396
 2765TIP3   OH229853   2.708   5.308   7.533 -0.0475 -0.3615 -0.4174
 2765TIP3    H129854   2.755   5.249   7.474 -0.9423  0.0829 -1.6111
 2765TIP3    H229855   2.645   5.251   7.579 -0.5807 -0.4362 -1.2172
 2766TIP3   OH229856   5.289   2.684   8.007 -0.3027 -0.3315  0.3301
 2766TIP3    H129857   5.197   2.659   7.997 -0.5512  0.5679  0.3281
 2766TIP3    H229858   5.288   2.778   8.022  0.6674 -0.1781 -0.4438
 2767TIP3   OH229859   3.221   2.942   0.964 -0.0826 -0.6343 -0.0822
 2767TIP3    H129860   3.147   2.916   1.019  0.1584  0.1733  0.6532
 2767TIP3    H229861   3.296   2.898   1.004  0.2304  0.6287  0.7978
 2768TIP3   OH229862   0.983   0.568   8.863 -0.3272  0.0513 -0.1791
 2768TIP3    H129863   1.039   0.645   8.858  4.3345 -2.8930 -0.1719
 2768TIP3    H229864   0.986   0.542   8.955 -2.2861  0.1012 -0.0704
 2769TIP3   OH229865   4.829   5.791   2.187  0.1065 -0.1532 -0.2928
 2769TIP3    H129866   4.921   5.813   2.203  0.4444 -0.2691 -1.9179
 2769TIP3    H229867   4.810   5.720   2.249  1.3949 -0.7861 -0.5953
 2770TIP3   OH229868   1.690   1.168   2.202  0.1855 -0.1612 -0.4964
 2770TIP3    H129869   1.746   1.219   2.260  0.0337 -0.0105 -0.4803
 2770TIP3    H229870   1.749   1.107   2.159 -0.0700 -2.1899  1.8349
 2771TIP3   OH229871   0.921   6.468   0.422  0.0642 -0.7256  0.3935
 2771TIP3    H129872   0.841   6.418   0.433 -0.1154 -0.5249  0.0268
 2771TIP3    H229873   0.935   6.471   0.327 -0.0959  0.1736  0.3874
 2772TIP3   OH229874   4.026   5.321   1.752  0.4329 -0.1820  0.2839
 2772TIP3    H129875   4.033   5.242   1.805 -2.5622 -1.6769 -1.3125
 2772TIP3    H229876   4.000   5.289   1.665 -1.2243  2.5317 -0.3277
 2773TIP3   OH229877   5.762   4.220   6.405  0.0549 -0.1145  0.1024
 2773TIP3    H129878   5.717   4.301   6.428 -2.7575 -0.3853 -3.5029
 2773TIP3    H229879   5.828   4.246   6.341  0.0532 -0.5091 -0.0623
 2774TIP3   OH229880   6.090   5.313   2.389  0.3010  0.5824 -0.2839
 2774TIP3    H129881   6.103   5.239   2.330  0.9598  1.0667 -0.7588
 2774TIP3    H229882   6.020   5.364   2.349  0.8059  0.9559 -0.6942
 2775TIP3   OH229883   2.198   5.988   7.277 -0.0609  0.0083 -0.5754
 2775TIP3    H129884   2.198   6.082   7.297 -2.0097 -0.4750  2.2792
 2775TIP3    H229885   2.291   5.965   7.273  0.4571  1.7501  0.3932
 2776TIP3   OH229886   2.721   0.997   2.226 -0.4270 -0.2746  0.2511
 2776TIP3    H129887   2.751   1.060   2.292  0.3907 -0.6175  0.2215
 2776TIP3    H229888   2.633   1.027   2.203  0.1099  1.1338 -0.1062
 2777TIP3   OH229889   0.140   3.669   8.427 -0.3995 -0.8580 -0.3382
 2777TIP3    H129890   0.202   3.689   8.497 -0.2996 -2.5298  0.0778
 2777TIP3    H229891   0.068   3.730   8.441  0.7788  0.6132 -0.3806
 2778TIP3   OH229892   2.463   3.298   0.718  0.4679 -0.3094 -0.1703
 2778TIP3    H129893   2.400   3.359   0.680 -1.4094 -1.6727  0.6004
 2778TIP3    H229894   2.542   3.308   0.664 -0.6978  0.7843 -1.7554
 2779TIP3   OH229895   4.494   0.531   1.568  0.4032 -0.2014 -0.9520
 2779TIP3    H129896   4.569   0.472   1.579  1.4051  1.1058 -0.4712
 2779TIP3    H229897   4.426   0.494   1.623  1.8899  0.4816  1.4904
 2780TIP3   OH229898   0.152   3.566   7.547 -0.1445 -0.9840  0.4875
 2780TIP3    H129899   0.211   3.493   7.526  1.7222  0.7345 -0.5535
 2780TIP3    H229900   0.165   3.628   7.475 -0.0215  1.3562  2.4314
 2781TIP3   OH229901   0.832   6.572   1.225 -0.3152  0.5389 -0.0067
 2781TIP3    H129902   0.771   6.503   1.252 -0.2380  0.4348 -0.0975
 2781TIP3    H229903   0.900   6.571   1.293 -0.3228  0.5360  0.0009
 2782TIP3   OH229904   6.701   3.824   8.531 -0.0010 -0.2409 -0.0793
 2782TIP3    H129905   6.752   3.872   8.595  0.5218  0.1429 -0.7744
 2782TIP3    H229906   6.650   3.762   8.583 -0.4107  0.7980  0.7944
 2783TIP3   OH229907   6.092   5.107   1.110  0.3527 -0.0247 -0.0729
 2783TIP3    H129908   6.035   5.042   1.069  0.4414 -1.1264  1.4499
 2783TIP3    H229909   6.180   5.070   1.102  0.5820  0.5662 -0.3740
 2784TIP3   OH229910   0.783   2.775   0.831  0.5108 -0.3991  0.0247
 2784TIP3    H129911   0.798   2.864   0.860  0.6051  0.2739 -1.9424
 2784TIP3    H229912   0.865   2.729   0.850  1.4493  0.6377 -1.3357
 2785TIP3   OH229913   0.530   3.726   7.537 -0.1579  0.2155 -0.0966
 2785TIP3    H129914   0.522   3.646   7.485  2.4157 -1.5080  1.8935
 2785TIP3    H229915   0.531   3.796   7.472 -3.6659 -1.1335 -1.8664
 2786TIP3   OH229916   5.859   0.473   2.468 -0.1509 -1.1471 -0.3211
 2786TIP3    H129917   5.915   0.519   2.405 -0.3196  0.9577  0.9924
 2786TIP3    H229918   5.772   0.509   2.453 -0.5507 -2.0010 -0.1034
 2787TIP3   OH229919   4.778   3.678   7.282  0.6720  0.3860 -0.7558
 2787TIP3    H129920   4.821   3.759   7.310  0.3372  0.4755 -0.4925
 2787TIP3    H229921   4.687   3.688   7.312  0.6604 -0.1420 -0.6078
 2788TIP3   OH229922   0.680   4.568   0.240 -0.1630  0.2830  0.5724
 2788TIP3    H129923   0.763   4.530   0.212  0.0955 -0.3125  2.0750
 2788TIP3    H229924   0.701   4.617   0.319 -1.1599  0.5648  0.6841
 2789TIP3   OH229925   2.440   6.134   7.454  0.1172 -0.2727  0.3738
 2789TIP3    H129926   2.403   6.046   7.459  0.6290 -0.4926  0.3741
 2789TIP3    H229927   2.501   6.130   7.380  0.5135 -0.0613  0.6821
 2790TIP3   OH229928   2.991   0.578   8.718 -0.0153  0.0423  0.6434
 2790TIP3    H129929   3.077   0.603   8.753  0.2960 -0.2740  0.1154
 2790TIP3    H229930   2.984   0.627   8.636  1.2865 -2.6965 -1.2383
 2791TIP3   OH229931   0.388   4.962   8.105 -0.1640 -0.6818  0.0158
 2791TIP3    H129932   0.439   5.039   8.129 -1.0103 -0.9014  2.7806
 2791TIP3    H229933   0.338   4.989   8.028  0.2477  1.1907  0.3762
 2792TIP3   OH229934   4.629   3.541   0.673 -0.0507  0.3802 -0.1595
 2792TIP3    H129935   4.628   3.550   0.578 -1.7510 -2.8705 -0.5872
 2792TIP3    H229936   4.722   3.533   0.696  0.3500  0.5733 -1.6340
 2793TIP3   OH229937   0.616   0.403   7.506  0.3251 -0.4730 -0.1210
 2793TIP3    H129938   0.531   0.439   7.529  0.6417 -0.8790  1.8232
 2793TIP3    H229939   0.624   0.418   7.411 -0.8134  1.8563  0.0851
 2794TIP3   OH229940   1.618   2.654   7.558 -0.0168 -0.1575 -1.0303
 2794TIP3    H129941   1.699   2.651   7.507  0.7053 -2.1389  0.1112
 2794TIP3    H229942   1.626   2.732   7.611  1.0273 -0.1775 -1.1424
 2795TIP3   OH229943   3.622   4.459   0.033 -0.4181  0.3416 -0.0450
 2795TIP3    H129944   3.577   4.387   0.079  0.0022  1.0740  1.5998
 2795TIP3    H229945   3.660   4.418  -0.044  0.8390 -1.5351  1.4623
 2796TIP3   OH229946   1.931   2.244   7.650 -0.0578  0.6347  0.2800
 2796TIP3    H129947   1.856   2.269   7.596 -2.1772 -1.6537  1.8995
 2796TIP3    H229948   1.905   2.160   7.689  3.4590 -0.3573  0.8356
 2797TIP3   OH229949   6.446   3.009   0.953  0.6447 -0.5573  0.5521
 2797TIP3    H129950   6.436   2.945   0.882  0.9234  0.9817 -0.9582
 2797TIP3    H229951   6.370   2.995   1.009 -0.4912 -0.7397 -0.9809
 2798TIP3   OH229952   6.745   4.041   0.707 -0.1940  0.5945 -0.2175
 2798TIP3    H129953   6.772   4.009   0.620  0.3284 -0.0639  0.1819
 2798TIP3    H229954   6.818   4.096   0.735 -0.2331  0.5639 -0.0599
 2799TIP3   OH229955   4.019   3.150   0.385  0.5479 -0.1530 -0.4977
 2799TIP3    H129956   3.943   3.206   0.366  0.6622  0.3269  0.4252
 2799TIP3    H229957   4.077   3.163   0.310  0.3795  0.6379 -0.4996
 2800TIP3   OH229958   0.773   3.161   0.297  0.4424  0.1481  0.2561
 2800TIP3    H129959   0.740   3.217   0.368  1.7356 -0.0702  1.0562
 2800TIP3    H229960   0.722   3.081   0.305 -0.4088  0.6533  0.0247
 2801TIP3   OH229961   6.143   3.487   0.870  0.2602  0.4871  0.4437
 2801TIP3    H129962   6.099   3.404   0.852  1.0542  0.3345 -0.9410
 2801TIP3    H229963   6.234   3.462   0.886 -0.0251  0.8209  3.0063
 2802TIP3   OH229964   3.407   5.848   1.829  0.5763 -0.4319 -0.3906
 2802TIP3    H129965   3.424   5.856   1.923 -0.6000 -0.3260 -0.1697
 2802TIP3    H229966   3.315   5.823   1.824  0.3272  0.6175 -1.5426
 2803TIP3   OH229967   2.619   6.159   0.324 -0.1334  0.1421  0.1704
 2803TIP3    H129968   2.604   6.120   0.238  1.9867  0.4384 -0.3958
 2803TIP3    H229969   2.565   6.238   0.325 -1.2184 -0.5654 -0.3174
 2804TIP3   OH229970   4.566   1.120   7.159 -0.0072  0.5282  0.5314
 2804TIP3    H129971   4.551   1.209   7.191  0.5654  0.8756 -0.1314
 2804TIP3    H229972   4.483   1.094   7.119  0.2854  1.4002 -0.7150
 2805TIP3   OH229973   0.767   4.753   0.749  0.4683 -0.2510 -0.4165
 2805TIP3    H129974   0.773   4.842   0.785 -0.0189 -0.2738 -0.2756
 2805TIP3    H229975   0.810   4.698   0.814  1.9427  0.0311 -1.1008
 2806TIP3   OH229976   2.515   0.086   7.703 -0.2241  0.1405 -0.2609
 2806TIP3    H129977   2.540   0.147   7.772  0.5577 -0.0258 -0.3841
 2806TIP3    H229978   2.460   0.021   7.747  0.5205 -0.1381  0.2821
 2807TIP3   OH229979   4.222   1.562   6.904  0.4489 -0.0129  0.1983
 2807TIP3    H129980   4.233   1.646   6.859 -1.5985 -0.0438 -0.4817
 2807TIP3    H229981   4.154   1.579   6.969 -0.5881 -1.3304 -0.5131
 2808TIP3   OH229982   6.782   3.657   1.592  0.4140 -0.2055  0.3246
 2808TIP3    H129983   6.851   3.638   1.657  1.7334 -1.2902 -1.3163
 2808TIP3    H229984   6.781   3.753   1.587 -1.7685  0.1675  3.9685
 2809TIP3   OH229985   2.452   3.718   1.457  0.0374  0.3584 -0.3245
 2809TIP3    H129986   2.450   3.683   1.546 -0.9641 -0.7018 -0.7432
 2809TIP3    H229987   2.545   3.729   1.438  0.2759  0.2349  0.7075
 2810TIP3   OH229988   3.351   2.387   8.281 -0.3827 -0.2452 -0.1081
 2810TIP3    H129989   3.361   2.350   8.193 -1.5210 -1.4631  0.2395
 2810TIP3    H229990   3.412   2.337   8.335 -1.9417 -1.7520  0.3671
 2811TIP3   OH229991   3.636   5.677   1.423 -0.9605  0.2050  0.0379
 2811TIP3    H129992   3.611   5.661   1.514 -1.5784 -1.3337 -0.3677
 2811TIP3    H229993   3.578   5.621   1.372 -0.8631  1.3110 -1.3379
 2812TIP3   OH229994   2.157   4.585   1.828  0.1709 -0.1703 -0.4881
 2812TIP3    H129995   2.102   4.561   1.754 -0.3523  0.6542 -0.3900
 2812TIP3    H229996   2.245   4.590   1.793 -0.2642  1.7377 -1.4722
 2813TIP3   OH229997   0.191   4.291   7.374  0.6777  0.5903  0.4787
 2813TIP3    H129998   0.159   4.302   7.464 -0.8621  0.5734 -0.0340
 2813TIP3    H229999   0.249   4.365   7.360 -0.7678  1.8405  0.7931
 2814TIP3   OH230000   0.951   4.724   8.739 -0.7835  0.2174  0.2898
 2814TIP3    H130001   0.979   4.649   8.685 -3.5430 -0.8406  0.1716
 2814TIP3    H230002   0.936   4.794   8.676 -0.6057  0.0862  0.0990
 2815TIP3   OH230003   2.421   3.053   0.794  0.3877 -0.2722 -0.0078
 2815TIP3    H130004   2.482   3.013   0.732 -1.2438  0.0067 -1.9042
 2815TIP3    H230005   2.411   3.143   0.763 -1.6797 -0.5697 -0.3569
 2816TIP3   OH230006   1.117   1.754   7.187 -0.3842  0.0347 -0.0675
 2816TIP3    H130007   1.063   1.680   7.159  0.5290 -0.8992  0.5603
 2816TIP3    H230008   1.186   1.761   7.121  0.9388 -1.2599  1.0985
 2817TIP3   OH230009   1.273   2.967   8.264 -0.3546  0.1832  0.0063
 2817TIP3    H130010   1.359   2.960   8.306  0.3897 -1.9459 -1.6703
 2817TIP3    H230011   1.251   3.060   8.270  1.4880  0.5893  1.5387
 2818TIP3   OH230012   3.745   2.639   0.750 -0.3195  0.0156 -0.0841
 2818TIP3    H130013   3.746   2.665   0.658 -0.1321  0.2408 -0.0186
 2818TIP3    H230014   3.837   2.645   0.777 -0.1352 -1.4351 -0.2772
 2819TIP3   OH230015   2.679   0.636   1.138 -0.0401  0.1129  0.3989
 2819TIP3    H130016   2.699   0.543   1.128  0.5308  0.2283  0.4188
 2819TIP3    H230017   2.695   0.654   1.231  1.6621  0.6330  0.0415
 2820TIP3   OH230018   3.579   3.388   1.206 -0.0726  0.2251 -0.0880
 2820TIP3    H130019   3.564   3.422   1.117  2.3477 -2.1271 -1.5232
 2820TIP3    H230020   3.517   3.315   1.215 -2.6184  2.3763  1.5652
 2821TIP3   OH230021   6.023   6.396   7.497  0.1376  0.2225 -0.6120
 2821TIP3    H130022   5.986   6.336   7.562  0.8768  0.8343  0.4131
 2821TIP3    H230023   6.079   6.341   7.442  1.1904 -0.0052  0.6104
 2822TIP3   OH230024   3.059   3.039   6.456 -0.6910 -0.2557  0.5343
 2822TIP3    H130025   3.006   3.029   6.535 -1.0532  1.1133  0.4997
 2822TIP3    H230026   3.148   3.015   6.483 -0.3760  2.2013  1.9960
 2823TIP3   OH230027   3.290   3.781   0.513 -0.1811 -0.5436 -0.0771
 2823TIP3    H130028   3.370   3.792   0.564 -0.3722  0.8587 -0.0337
 2823TIP3    H230029   3.220   3.808   0.573 -0.8196 -2.6725  0.2204
 2824TIP3   OH230030   6.337   2.775   0.803 -0.9716 -0.2003 -0.4690
 2824TIP3    H130031   6.308   2.779   0.894 -1.2457 -0.4278 -0.5463
 2824TIP3    H230032   6.393   2.698   0.798 -0.5025  0.1260 -0.3664
 2825TIP3   OH230033   6.781   6.323   2.305 -0.2808  0.0916  0.4676
 2825TIP3    H130034   6.845   6.253   2.289  1.7060  1.8238  0.3433
 2825TIP3    H230035   6.722   6.320   2.230 -0.0638 -1.2456  0.3321
 2826TIP3   OH230036   5.937   3.601   8.196 -0.4427  0.2025 -0.0317
 2826TIP3    H130037   5.849   3.636   8.204 -0.3209  0.4186  0.4252
 2826TIP3    H230038   5.991   3.660   8.249 -0.1959 -0.5117  0.5288
 2827TIP3   OH230039   1.570   6.178   6.514 -0.0892  0.2331  0.3426
 2827TIP3    H130040   1.576   6.255   6.457 -1.7894  0.7493  0.8035
 2827TIP3    H230041   1.538   6.108   6.457  1.0516 -0.0505  0.0211
 2828TIP3   OH230042   3.198   5.258   2.201 -0.0134 -0.8160  0.6749
 2828TIP3    H130043   3.228   5.208   2.277 -0.1916 -0.2413  1.1302
 2828TIP3    H230044   3.160   5.337   2.238  1.3722  0.2436 -0.0951
 2829TIP3   OH230045   0.602   1.374   8.082  0.5044  0.6804  0.7807
 2829TIP3    H130046   0.636   1.453   8.041  2.9458 -0.7385 -0.0843
 2829TIP3    H230047   0.611   1.306   8.016 -0.3787 -0.6071  1.9190
 2830TIP3   OH230048   6.025   1.774   7.619  0.6578  0.1548 -0.2792
 2830TIP3    H130049   5.967   1.848   7.636  1.9755  1.3546 -0.7963
 2830TIP3    H230050   5.984   1.727   7.546  0.3842  1.0330 -0.6978
 2831TIP3   OH230051   5.947   4.038   7.047 -0.3865 -0.2548 -0.2445
 2831TIP3    H130052   5.968   4.037   7.140  1.4452  0.2037 -0.6118
 2831TIP3    H230053   5.856   4.010   7.042 -0.9364  1.0363  1.7838
 2832TIP3   OH230054   6.522   0.714   1.840 -0.1220  0.1042  0.5632
 2832TIP3    H130055   6.516   0.809   1.843  0.6000  0.1152  2.8092
 2832TIP3    H230056   6.613   0.694   1.859 -0.3979 -1.0624  0.7601
 2833TIP3   OH230057   6.253   6.363   1.221 -0.5531  0.6702  0.1619
 2833TIP3    H130058   6.162   6.347   1.195 -0.9557  1.6765  0.8881
 2833TIP3    H230059   6.304   6.305   1.165 -1.7761 -1.8111  1.4384
 2834TIP3   OH230060   5.539   4.711   0.892  0.1959  0.1235 -0.2605
 2834TIP3    H130061   5.632   4.729   0.874 -0.3323  1.4653 -1.9491
 2834TIP3    H230062   5.529   4.618   0.876  0.8517  0.3339 -2.2720
 2835TIP3   OH230063   3.566   6.471   1.458 -0.4771  0.4119  0.8512
 2835TIP3    H130064   3.575   6.538   1.390 -0.7814 -1.9268 -1.6719
 2835TIP3    H230065   3.656   6.450   1.482 -0.3092  0.3594  0.2055
 2836TIP3   OH230066   1.961   1.126   1.512  0.7740 -0.1135  0.1684
 2836TIP3    H130067   1.927   1.037   1.522  1.7809 -0.4324  0.9693
 2836TIP3    H230068   2.053   1.114   1.492  0.9712  0.7492  0.5030
 2837TIP3   OH230069   5.791   6.399   6.891 -0.5593 -0.4621 -0.0151
 2837TIP3    H130070   5.841   6.480   6.880 -1.0431 -0.0909  0.4746
 2837TIP3    H230071   5.713   6.425   6.941 -0.4509 -1.3231  0.6326
 2838TIP3   OH230072   5.565   2.757   8.158 -1.1248  0.4661  0.7006
 2838TIP3    H130073   5.579   2.713   8.242  0.7590 -2.3442 -0.9159
 2838TIP3    H230074   5.493   2.709   8.117  0.3593 -0.6653 -0.7192
 2839TIP3   OH230075   4.258   2.143   8.646  0.3540  0.0957 -0.3918
 2839TIP3    H130076   4.352   2.127   8.655  0.4591 -0.2261 -1.8378
 2839TIP3    H230077   4.251   2.204   8.573 -0.5224  0.7860  0.2433
 2840TIP3   OH230078   5.200   6.180   1.695  0.1468  0.3274 -0.3224
 2840TIP3    H130079   5.214   6.262   1.649  0.3178 -0.0210 -0.9089
 2840TIP3    H230080   5.250   6.188   1.776  0.1170  0.8208 -0.3540
 2841TIP3   OH230081   3.249   0.134   8.575  0.0705  0.5063  0.2142
 2841TIP3    H130082   3.155   0.151   8.582 -0.0058  0.5244 -0.6895
 2841TIP3    H230083   3.275   0.101   8.661 -0.5883  1.3204  0.7317
 2842TIP3   OH230084   1.894   0.849   1.489  0.0039  0.8921  0.1694
 2842TIP3    H130085   1.895   0.861   1.394 -1.3898 -0.0054  0.0106
 2842TIP3    H230086   1.810   0.807   1.507  0.6649  0.1510  1.6951
 2843TIP3   OH230087   3.514   4.111   8.711 -0.3483  0.3124 -0.5573
 2843TIP3    H130088   3.577   4.178   8.737  1.0478 -0.8998 -0.6298
 2843TIP3    H230089   3.463   4.094   8.790 -0.4296  1.1518 -0.4228
 2844TIP3   OH230090   3.223   3.325   8.225  0.1501  0.3595 -0.1837
 2844TIP3    H130091   3.243   3.233   8.210 -0.9926 -0.2147  1.6305
 2844TIP3    H230092   3.264   3.346   8.309 -1.2425  0.9448  0.3795
 2845TIP3   OH230093   3.228   6.303   2.454  0.6035 -0.2234  0.2920
 2845TIP3    H130094   3.272   6.326   2.372 -0.4205  0.8647  0.0186
 2845TIP3    H230095   3.249   6.375   2.514  0.5723 -0.5418  0.6927
 2846TIP3   OH230096   0.073   4.361   6.642 -1.1774  0.1944 -0.3737
 2846TIP3    H130097   0.031   4.431   6.592 -1.4752 -0.3549 -0.9127
 2846TIP3    H230098   0.003   4.324   6.695 -0.5872  1.6379  1.4881
 2847TIP3   OH230099   3.852   2.014   0.247  0.6329  0.0417  0.0800
 2847TIP3    H130100   3.904   1.944   0.287  2.5710 -0.1834 -2.5762
 2847TIP3    H230101   3.789   1.969   0.191 -1.9028  0.3583  2.4775
 2848TIP3   OH230102   3.072   1.677   1.523 -0.3430  0.3527 -0.1018
 2848TIP3    H130103   3.119   1.724   1.454  1.0652 -1.0326 -0.1501
 2848TIP3    H230104   3.015   1.742   1.562 -0.4158  1.4322 -1.8847
 2849TIP3   OH230105   5.902   6.370   8.429  0.0014  0.0700  0.1385
 2849TIP3    H130106   5.878   6.415   8.348 -0.8059  1.3824  1.0693
 2849TIP3    H230107   5.849   6.291   8.430 -0.7275  0.5506 -0.1458
 2850TIP3   OH230108   1.501   1.109   8.652  0.3743 -0.4224 -0.1227
 2850TIP3    H130109   1.556   1.173   8.607 -0.6091  0.1041 -0.6076
 2850TIP3    H230110   1.452   1.066   8.582 -0.6531 -0.0971  0.3800
 2851TIP3   OH230111   4.370   0.981   1.478 -0.5916  0.5487 -0.2551
 2851TIP3    H130112   4.359   0.898   1.432 -2.7700 -0.4203  1.8624
 2851TIP3    H230113   4.398   0.957   1.566  0.2336  2.1813 -0.0313
 2852TIP3   OH230114   3.919   5.950   0.520  0.1427  0.0791 -0.2071
 2852TIP3    H130115   3.919   5.861   0.486  2.5490  0.1428 -0.5574
 2852TIP3    H230116   4.011   5.969   0.537 -0.4815  1.8907  1.5413
 2853TIP3   OH230117   1.296   6.443   1.508  0.0958  0.0349  0.8714
 2853TIP3    H130118   1.252   6.438   1.423  0.6576 -0.4432  0.6004
 2853TIP3    H230119   1.272   6.362   1.552  1.9296 -0.9954  0.0947
 2854TIP3   OH230120   6.595   6.113   7.594  0.1140 -0.2233 -0.1603
 2854TIP3    H130121   6.662   6.120   7.662 -0.4697  1.4924  0.2906
 2854TIP3    H230122   6.574   6.204   7.573 -3.1455 -0.6411  0.8065
 2855TIP3   OH230123   4.705   2.596   0.691  0.6969 -0.0948 -0.2626
 2855TIP3    H130124   4.704   2.680   0.736  0.8133 -1.2532  2.0097
 2855TIP3    H230125   4.614   2.566   0.693  0.7008 -0.1518 -0.8157
 2856TIP3   OH230126   4.588   1.569   1.862 -0.6094 -0.0375  0.0547
 2856TIP3    H130127   4.605   1.481   1.828 -0.0908 -0.1273  0.5227
 2856TIP3    H230128   4.610   1.627   1.790  1.1369 -0.1884  0.4127
 2857TIP3   OH230129   2.810   3.606   8.386  0.0260 -0.0012 -0.1426
 2857TIP3    H130130   2.838   3.676   8.328 -0.5116  0.3806  0.0551
 2857TIP3    H230131   2.863   3.531   8.360  0.8216  0.5519 -0.1586
 2858TIP3   OH230132   1.787   0.051   2.010 -0.2625 -0.8074  0.3426
 2858TIP3    H130133   1.833   0.120   2.059  1.1474 -0.9582 -0.7071
 2858TIP3    H230134   1.695   0.062   2.034  0.0301  0.9534  0.7811
 2859TIP3   OH230135   4.868   5.778   8.273  0.4371  1.1799 -0.3646
 2859TIP3    H130136   4.802   5.718   8.310  1.1085  2.0127  2.4535
 2859TIP3    H230137   4.873   5.754   8.181 -1.1964 -1.3382  0.0890
 2860TIP3   OH230138   2.400   3.324   0.425 -0.4643 -0.4802  0.1575
 2860TIP3    H130139   2.328   3.372   0.383 -0.5192 -1.7377 -1.2997
 2860TIP3    H230140   2.468   3.319   0.358  1.7398  2.0593  1.9994
 2861TIP3   OH230141   6.042   6.110   1.399 -0.0443  0.1201 -0.5479
 2861TIP3    H130142   5.955   6.087   1.366 -0.7514  1.6978  0.0996
 2861TIP3    H230143   6.044   6.077   1.488  0.1369 -0.1807 -0.6634
 2862TIP3   OH230144   2.114   5.736   7.261 -0.0030  0.1005  0.3498
 2862TIP3    H130145   2.130   5.831   7.255 -1.0062  0.1972 -2.6613
 2862TIP3    H230146   2.197   5.697   7.234 -0.2164  0.1991 -0.4719
 2863TIP3   OH230147   1.499   3.211   7.249 -0.0112  0.7326  0.0297
 2863TIP3    H130148   1.564   3.153   7.288  0.5216  1.8459  0.8485
 2863TIP3    H230149   1.415   3.169   7.268  0.4245 -0.5697 -0.7832
 2864TIP3   OH230150   4.487   5.510   0.789  0.1350  0.1922  0.4589
 2864TIP3    H130151   4.544   5.547   0.722 -3.2650  2.4590 -1.4816
 2864TIP3    H230152   4.408   5.482   0.742  0.1595 -4.6035  2.6730
 2865TIP3   OH230153   6.647   4.513   7.885 -0.6855 -0.2984 -0.4722
 2865TIP3    H130154   6.599   4.564   7.819 -0.4361 -0.5394 -0.8453
 2865TIP3    H230155   6.738   4.539   7.874 -0.7378  0.3067  0.3713
 2866TIP3   OH230156   1.411   6.529   1.092 -0.2973  0.2715 -0.1211
 2866TIP3    H130157   1.333   6.489   1.053  0.1533 -1.1837  0.3856
 2866TIP3    H230158   1.418   6.489   1.178  0.8361  0.6115 -0.0356
 2867TIP3   OH230159   2.358   1.763   0.130  0.6061 -0.8384  0.5241
 2867TIP3    H130160   2.432   1.710   0.157  1.2990 -0.1309  0.0602
 2867TIP3    H230161   2.388   1.853   0.141 -0.8062 -0.5062  2.0377
 2868TIP3   OH230162   5.620   5.321   2.356 -0.6291  0.3469  0.6037
 2868TIP3    H130163   5.663   5.244   2.393  1.5247  0.2549 -1.7912
 2868TIP3    H230164   5.642   5.392   2.416 -0.4488 -0.4133  1.4614
 2869TIP3   OH230165   4.457   6.261   1.921 -0.1243  0.2567 -0.0135
 2869TIP3    H130166   4.438   6.169   1.903 -1.6611  0.5925 -0.2505
 2869TIP3    H230167   4.500   6.260   2.007  1.8497 -0.8357 -0.9276
 2870TIP3   OH230168   0.640   4.393   7.205 -0.1804  0.5129  0.3439
 2870TIP3    H130169   0.637   4.365   7.297  1.2724  1.6996  0.8064
 2870TIP3    H230170   0.562   4.355   7.165 -0.6351 -0.3615  1.9742
 2871TIP3   OH230171   6.676   1.514   7.002 -0.8647  0.1999 -0.5056
 2871TIP3    H130172   6.650   1.500   6.911 -0.9683 -1.1461 -0.2903
 2871TIP3    H230173   6.605   1.477   7.053 -0.8295  0.9978  0.1447
 2872TIP3   OH230174   6.041   5.525   0.349 -0.1057 -0.9631  0.1344
 2872TIP3    H130175   6.077   5.525   0.438 -0.6403 -0.1262  0.3593
 2872TIP3    H230176   6.097   5.586   0.300 -0.5034 -0.5530  0.1888
 2873TIP3   OH230177   4.434   1.549   2.322  0.4550  0.2871  0.2173
 2873TIP3    H130178   4.413   1.641   2.308 -1.6363 -0.2420 -0.3598
 2873TIP3    H230179   4.388   1.525   2.403  2.3981  0.1539  1.3431
 2874TIP3   OH230180   3.191   5.511   7.733 -0.2378  0.1699 -0.4634
 2874TIP3    H130181   3.214   5.487   7.822 -1.3771  0.8365  0.0437
 2874TIP3    H230182   3.238   5.593   7.717  0.2157 -0.1145 -0.5956
 2875TIP3   OH230183   3.167   5.107   7.451  0.1088  0.1179  0.5539
 2875TIP3    H130184   3.252   5.084   7.488  0.4582 -0.8487 -0.7672
 2875TIP3    H230185   3.107   5.105   7.525  1.1188  0.1829  1.3960
 2876TIP3   OH230186   4.150   2.615   6.721 -0.7104  0.7317  0.1192
 2876TIP3    H130187   4.088   2.622   6.649 -1.6998 -0.5822  0.7969
 2876TIP3    H230188   4.194   2.700   6.723 -1.2594  1.0874 -1.4698
 2877TIP3   OH230189   0.609   0.125   0.236 -0.2016 -0.1450  0.2589
 2877TIP3    H130190   0.601   0.133   0.141  0.8050  0.9147  0.2388
 2877TIP3    H230191   0.617   0.031   0.252 -0.7929 -0.3635 -0.6563
 2878TIP3   OH230192   4.826   3.142   1.519 -0.3463 -0.2448 -0.0380
 2878TIP3    H130193   4.896   3.126   1.583 -0.4712 -0.3039  0.0856
 2878TIP3    H230194   4.768   3.204   1.562  0.8047  1.5735 -1.0206
 2879TIP3   OH230195   1.558   0.123   7.801  0.4318  0.0263  0.4141
 2879TIP3    H130196   1.618   0.098   7.730  0.2664  0.3798  0.1471
 2879TIP3    H230197   1.613   0.172   7.862  0.2317  1.1871 -0.2984
 2880TIP3   OH230198   2.356   2.603   8.035 -0.3174 -0.5594  0.6470
 2880TIP3    H130199   2.372   2.596   7.941 -0.8582 -0.4591  0.5406
 2880TIP3    H230200   2.348   2.697   8.052 -1.5985 -0.6321  0.5379
 2881TIP3   OH230201   6.255   6.256   8.003  0.6449 -0.0595 -0.4720
 2881TIP3    H130202   6.331   6.253   8.062 -0.0192 -0.0747  0.3960
 2881TIP3    H230203   6.292   6.277   7.918  1.8568 -1.8412 -0.4460
 2882TIP3   OH230204   4.723   0.074   1.451  0.1181  0.4854 -0.5755
 2882TIP3    H130205   4.792   0.029   1.501  1.2140 -1.5175 -3.5986
 2882TIP3    H230206   4.688   0.139   1.512  2.0638 -0.9786  2.3614
 2883TIP3   OH230207   2.385   5.900   1.970 -0.5565 -0.0505 -0.4407
 2883TIP3    H130208   2.337   5.851   2.037  0.6984 -0.0812  0.4883
 2883TIP3    H230209   2.460   5.844   1.949 -0.3349  0.4617 -1.0493
 2884TIP3   OH230210   1.610   3.515   6.591  0.1363 -0.0740 -0.4095
 2884TIP3    H130211   1.590   3.516   6.685 -0.9674 -0.3720 -0.6228
 2884TIP3    H230212   1.673   3.443   6.581  0.6696  0.2974  0.1671
 2885TIP3   OH230213   2.161   3.464   0.285 -0.0409 -0.0099 -0.2684
 2885TIP3    H130214   2.132   3.476   0.375  0.2421 -0.7907 -0.0650
 2885TIP3    H230215   2.082   3.442   0.236 -0.1743  0.2959 -0.1908
 2886TIP3   OH230216   1.868   3.654   6.914  0.3995 -0.2269  0.0690
 2886TIP3    H130217   1.865   3.729   6.974 -0.8163 -0.3545  0.1806
 2886TIP3    H230218   1.829   3.687   6.833  0.4749 -0.5551 -0.1015
 2887TIP3   OH230219   4.115   6.434   8.125 -0.0302  0.0312 -0.0121
 2887TIP3    H130220   4.053   6.396   8.187  0.2512  0.1068  0.3200
 2887TIP3    H230221   4.187   6.371   8.120  0.3583  0.4266  0.4121
 2888TIP3   OH230222   4.625   5.114   7.297  0.0052 -0.4550  0.3807
 2888TIP3    H130223   4.671   5.198   7.286  0.8033 -0.8721  0.4309
 2888TIP3    H230224   4.654   5.061   7.223 -1.6319 -0.2202 -0.4845
 2889TIP3   OH230225   2.971   2.038   1.211  0.0043  0.0997  0.1117
 2889TIP3    H130226   3.061   2.029   1.244  0.8452  0.9500 -1.8124
 2889TIP3    H230227   2.964   1.973   1.142 -0.5531  0.6325 -0.3408
 2890TIP3   OH230228   3.974   3.763   8.535  0.0691 -0.3506  0.1260
 2890TIP3    H130229   4.009   3.705   8.602 -0.8277 -0.1159  0.8175
 2890TIP3    H230230   3.923   3.828   8.583  1.2933  1.2203 -0.6098
 2891TIP3   OH230231   5.142   2.008   0.463 -0.3656  0.7902  0.2372
 2891TIP3    H130232   5.185   1.959   0.393 -2.3260 -1.0096  0.2223
 2891TIP3    H230233   5.082   2.067   0.418 -0.7937  0.4553  0.3683
 2892TIP3   OH230234   5.885   3.991   1.686  0.0252 -0.2106  0.7283
 2892TIP3    H130235   5.901   4.084   1.668  1.5052 -0.6963 -0.6395
 2892TIP3    H230236   5.815   3.967   1.625  2.7719 -1.0380 -2.3534
 2893TIP3   OH230237   0.625   0.430   2.385  0.2958  0.1264  0.0424
 2893TIP3    H130238   0.537   0.425   2.422  0.7902 -1.4885  1.0714
 2893TIP3    H230239   0.669   0.352   2.416  1.7178  0.2504 -1.5110
 2894TIP3   OH230240   0.520   1.868   8.811 -0.2510  0.3775 -0.0469
 2894TIP3    H130241   0.611   1.896   8.800  0.3534 -1.7385 -1.1079
 2894TIP3    H230242   0.511   1.851   8.905  0.4268  0.6635  0.0748
 2895TIP3   OH230243   5.786   0.015   6.324  0.3268  0.6154  0.0925
 2895TIP3    H130244   5.817   0.101   6.296 -0.7240  0.7009 -0.8827
 2895TIP3    H230245   5.711   0.033   6.380 -0.1232  0.3358 -0.4076
 2896TIP3   OH230246   5.409   0.630   0.488 -0.0187  0.2968 -0.3175
 2896TIP3    H130247   5.447   0.717   0.480 -1.3628  0.9760  0.2848
 2896TIP3    H230248   5.369   0.613   0.403  0.1601  0.3179 -0.4047
 2897TIP3   OH230249   3.456   0.327   1.869 -0.0073  0.2930  0.0984
 2897TIP3    H130250   3.410   0.256   1.825 -0.3023  1.4540 -1.5419
 2897TIP3    H230251   3.523   0.283   1.922  1.1663 -1.1574 -2.4316
 2898TIP3   OH230252   3.516   5.613   8.071  0.5484  0.2313 -0.4392
 2898TIP3    H130253   3.550   5.658   8.148 -2.6266  0.0755  1.2265
 2898TIP3    H230254   3.561   5.528   8.071  0.0189 -0.1051  1.8202
 2899TIP3   OH230255   2.487   2.025   8.240  0.4362 -0.3373 -0.1847
 2899TIP3    H130256   2.407   2.008   8.290  0.1772 -1.4505 -0.9282
 2899TIP3    H230257   2.466   1.995   8.151  2.0272 -1.7351 -0.1516
 2900TIP3   OH230258   3.211   3.136   7.887  0.0442  0.1742  0.4325
 2900TIP3    H130259   3.298   3.105   7.912  0.9150 -1.8146 -3.9817
 2900TIP3    H230260   3.224   3.227   7.863  0.9749 -0.1186 -0.2298
 2901TIP3   OH230261   2.215   3.412   1.450 -0.2871  0.6757 -0.4525
 2901TIP3    H130262   2.265   3.368   1.382  0.5362  0.6931  0.1291
 2901TIP3    H230263   2.205   3.346   1.519 -1.1246  0.6525 -0.5919
 2902TIP3   OH230264   3.658   0.720   1.973  0.1278 -0.0741 -0.2582
 2902TIP3    H130265   3.687   0.742   2.061 -1.4991 -0.6803  0.4861
 2902TIP3    H230266   3.738   0.701   1.925  1.0156 -0.5551  1.3260
 2903TIP3   OH230267   4.000   3.886   0.503  0.5624  0.3689  0.9593
 2903TIP3    H130268   4.032   3.932   0.425 -1.8262 -0.4297 -0.5969
 2903TIP3    H230269   3.942   3.949   0.546  0.2339  0.1095  0.9058
 2904TIP3   OH230270   6.694   0.983   0.302 -0.4127  0.5003  0.2268
 2904TIP3    H130271   6.636   1.049   0.340 -1.6349 -0.6038  0.3918
 2904TIP3    H230272   6.666   0.901   0.343 -0.7114 -0.5061 -1.8455
 2905TIP3   OH230273   5.221   5.946   7.926  0.3535  0.1363  0.0229
 2905TIP3    H130274   5.148   5.895   7.890  0.5769 -0.7431  0.7796
 2905TIP3    H230275   5.184   6.032   7.943  0.2413  0.6101 -2.3206
 2906TIP3   OH230276   2.865   3.655   7.820  0.1634 -0.3386 -0.4576
 2906TIP3    H130277   2.942   3.691   7.862 -1.1589 -2.4249  4.5431
 2906TIP3    H230278   2.889   3.564   7.800 -0.7855 -0.9498  0.9768
 2907TIP3   OH230279   4.620   2.170   6.370  0.4744 -0.0871 -0.4094
 2907TIP3    H130280   4.564   2.234   6.326  2.5637  2.7456  0.8041
 2907TIP3    H230281   4.594   2.174   6.462  1.1916 -0.3960 -0.1881
 2908TIP3   OH230282   2.615   0.074   2.325 -0.0663  0.1287  0.2784
 2908TIP3    H130283   2.596  -0.019   2.340  0.0575  0.2896  1.5562
 2908TIP3    H230284   2.557   0.121   2.384  0.6186  0.8259  0.4169
 2909TIP3   OH230285   2.114   3.152   1.919  0.1171 -0.1670 -0.1124
 2909TIP3    H130286   2.093   3.059   1.909  0.5150 -0.1811 -0.9307
 2909TIP3    H230287   2.133   3.163   2.012 -0.5343 -0.7740  0.1011
 2910TIP3   OH230288   6.210   0.710   8.531  0.0631  0.4344 -0.0941
 2910TIP3    H130289   6.218   0.707   8.627 -1.7252  0.0069  0.0708
 2910TIP3    H230290   6.241   0.624   8.502  0.1367  0.3788  0.1497
 2911TIP3   OH230291   2.689   4.135   8.757  0.0023 -0.8831  0.0741
 2911TIP3    H130292   2.726   4.136   8.669  0.0899  2.0516  0.0302
 2911TIP3    H230293   2.763   4.118   8.815  0.0201 -2.3987 -0.3610
 2912TIP3   OH230294   6.238   1.500   2.776 -0.0724 -0.1799  0.6310
 2912TIP3    H130295   6.297   1.459   2.712 -0.6176  0.3391 -0.2231
 2912TIP3    H230296   6.155   1.454   2.764 -0.6441  1.0207 -0.2175
 2913TIP3   OH230297   2.668   3.356   7.151  0.2240  0.3920  0.0904
 2913TIP3    H130298   2.690   3.449   7.163 -0.2151  0.2586  2.3852
 2913TIP3    H230299   2.627   3.352   7.064  0.7212  2.2416 -0.2723
 2914TIP3   OH230300   4.914   6.132   0.497 -0.4870  0.5982 -0.5197
 2914TIP3    H130301   4.955   6.047   0.486 -0.6841  0.7000 -2.1327
 2914TIP3    H230302   4.832   6.127   0.449 -0.0230  2.0099 -1.5236
 2915TIP3   OH230303   1.102   6.476   7.283 -0.0902  0.2731  0.0697
 2915TIP3    H130304   1.160   6.463   7.207  1.5338  0.9610  1.1499
 2915TIP3    H230305   1.062   6.390   7.296  0.5898 -0.2007 -0.8029
 2916TIP3   OH230306   3.734   4.576   0.393 -0.1695  0.4497 -0.0963
 2916TIP3    H130307   3.734   4.481   0.382 -0.5994  0.6869 -3.1370
 2916TIP3    H230308   3.718   4.610   0.305  0.2700  3.3666  0.8379
 2917TIP3   OH230309   3.612   2.895   0.506  0.3656 -0.4127  0.2102
 2917TIP3    H130310   3.611   2.800   0.492  1.3953 -0.1240 -2.2980
 2917TIP3    H230311   3.525   2.924   0.478 -0.2468 -0.6544  1.7538
 2918TIP3   OH230312   4.954   6.418   1.275  0.0359 -0.3263  0.2258
 2918TIP3    H130313   4.938   6.416   1.180  0.5302  0.3088  0.1217
 2918TIP3    H230314   4.868   6.401   1.314 -0.7650  2.0872 -0.3291
 2919TIP3   OH230315   2.508   5.847   0.738  0.5470  0.0446 -0.3842
 2919TIP3    H130316   2.569   5.773   0.737  0.8962  0.3132 -2.1760
 2919TIP3    H230317   2.563   5.924   0.748  0.2565  0.1384  0.5921
 2920TIP3   OH230318   2.683   3.736   1.117  0.6626 -0.5278 -0.0661
 2920TIP3    H130319   2.610   3.766   1.063  1.2070 -0.7804 -0.9585
 2920TIP3    H230320   2.647   3.665   1.170 -0.0012  0.0486  0.2675
 2921TIP3   OH230321   5.739   2.977   1.309 -0.0990 -0.2257  0.1471
 2921TIP3    H130322   5.801   2.909   1.336 -0.8245 -0.5645  1.0223
 2921TIP3    H230323   5.733   3.035   1.385 -0.2445  0.2505 -0.2278
 2922TIP3   OH230324   6.131   6.551   2.325  0.1315  0.2882  0.3111
 2922TIP3    H130325   6.105   6.460   2.311  1.2298 -0.2930  1.8215
 2922TIP3    H230326   6.169   6.577   2.241  0.5118 -0.9195  0.0769
 2923TIP3   OH230327   4.624   5.419   0.490 -0.1022  0.0469  0.2279
 2923TIP3    H130328   4.658   5.331   0.473  1.1955  0.7229 -0.8127
 2923TIP3    H230329   4.685   5.457   0.554  0.6856  0.9671 -1.0193
 2924TIP3   OH230330   0.265   0.518   1.014  0.1620 -0.8013 -0.3608
 2924TIP3    H130331   0.234   0.609   1.016  1.2514 -0.4320  1.1194
 2924TIP3    H230332   0.192   0.469   0.974 -0.5349  0.6686 -0.9686
 2925TIP3   OH230333   0.833   5.390   0.767 -0.1916  0.5057 -0.4134
 2925TIP3    H130334   0.791   5.449   0.705  0.1618  0.4882 -0.6739
 2925TIP3    H230335   0.824   5.303   0.727  0.0911  0.5025 -0.4721
 2926TIP3   OH230336   1.541   3.144   7.580 -0.4495  0.7838  0.1611
 2926TIP3    H130337   1.559   3.213   7.644  0.5937 -0.2521  1.0145
 2926TIP3    H230338   1.500   3.074   7.631 -0.1760  0.1920 -0.4195
 2927TIP3   OH230339   5.540   4.123   1.628  0.1036 -0.3230  0.1108
 2927TIP3    H130340   5.565   4.113   1.720  0.7172  1.4562  0.1774
 2927TIP3    H230341   5.552   4.036   1.591  0.5321 -0.9192  1.5542
 2928TIP3   OH230342   4.832   1.482   7.293 -0.2547  0.1532  0.1135
 2928TIP3    H130343   4.801   1.398   7.261  1.3653  0.4231 -2.4280
 2928TIP3    H230344   4.756   1.540   7.287 -0.8719 -0.6508  0.0337
 2929TIP3   OH230345   2.715   4.786   0.758  0.7087  0.2245  0.2971
 2929TIP3    H130346   2.636   4.811   0.710  0.7134 -1.6079 -0.7508
 2929TIP3    H230347   2.705   4.693   0.775  1.7207  0.3912  2.0003
 2930TIP3   OH230348   3.514   1.955   0.816  0.1379  0.1583 -0.1255
 2930TIP3    H130349   3.539   1.914   0.899 -0.6368  0.9529  0.5265
 2930TIP3    H230350   3.445   1.899   0.781  0.2898 -0.0430 -0.1017
 2931TIP3   OH230351   6.357   3.648   0.599  0.2017 -0.4687 -0.2560
 2931TIP3    H130352   6.370   3.739   0.574 -0.5569  0.3695  2.0789
 2931TIP3    H230353   6.444   3.609   0.594  0.6566  0.5568 -0.6730
 2932TIP3   OH230354   0.347   5.291   6.480  0.5895  0.7320  0.0039
 2932TIP3    H130355   0.436   5.270   6.508 -0.6642  0.1863  4.1636
 2932TIP3    H230356   0.323   5.369   6.530 -1.1268  1.1978 -1.4171
 2933TIP3   OH230357   2.374   6.500   7.192 -0.1759 -0.2716  0.5018
 2933TIP3    H130358   2.338   6.582   7.158  0.9073 -0.5010 -1.2834
 2933TIP3    H230359   2.466   6.502   7.166  0.0169 -1.7618  1.0150
 2934TIP3   OH230360   0.702   5.516   1.248 -0.2202 -0.7797 -0.1224
 2934TIP3    H130361   0.626   5.459   1.257 -1.3697  0.4791 -1.4841
 2934TIP3    H230362   0.724   5.512   1.155 -1.4579  2.2906 -0.6699
 2935TIP3   OH230363   4.459   6.373   7.890 -0.3505  0.1680 -0.2027
 2935TIP3    H130364   4.416   6.383   7.975 -1.0131  0.2765 -0.5521
 2935TIP3    H230365   4.447   6.280   7.869 -1.6353  0.4873 -0.9469
 2936TIP3   OH230366   5.014   0.869   8.549  0.0530  0.0220 -0.1429
 2936TIP3    H130367   4.985   0.857   8.458 -0.6441 -0.4387  0.1322
 2936TIP3    H230368   5.029   0.780   8.581  0.7725  0.2085  0.0452
 2937TIP3   OH230369   0.950   3.437   1.610 -0.2216 -0.0301  0.0220
 2937TIP3    H130370   0.967   3.505   1.675 -0.2797  1.1328 -1.1394
 2937TIP3    H230371   1.013   3.368   1.630 -0.0754  0.4107  1.1404
 2938TIP3   OH230372   1.530   4.290   8.206  0.0251  0.1439  0.3228
 2938TIP3    H130373   1.540   4.263   8.115 -0.9222  2.6532 -0.6069
 2938TIP3    H230374   1.452   4.245   8.237  0.9944 -1.6169  0.3099
 2939TIP3   OH230375   2.431   0.808   7.955 -0.1191 -0.0379 -0.2973
 2939TIP3    H130376   2.405   0.880   7.899 -0.7356  0.0366  0.0772
 2939TIP3    H230377   2.479   0.748   7.897 -0.4876  0.1774 -0.8263
 2940TIP3   OH230378   2.853   2.642   1.509 -0.3679 -0.0428  0.2784
 2940TIP3    H130379   2.831   2.622   1.600  1.5747  0.8412  1.0027
 2940TIP3    H230380   2.924   2.582   1.487  1.6830  2.0908  0.6367
 2941TIP3   OH230381   1.908   6.338   1.077  0.7741 -0.3690  0.3416
 2941TIP3    H130382   1.836   6.380   1.030  1.5730 -0.9337 -1.4502
 2941TIP3    H230383   1.876   6.329   1.167 -2.2361 -2.3916 -0.7710
 2942TIP3   OH230384   1.205   2.079   8.573 -0.3373  0.6358  0.3239
 2942TIP3    H130385   1.239   2.127   8.497 -0.5487  1.4266  0.7250
 2942TIP3    H230386   1.165   2.146   8.628 -0.0245  0.0904  1.2283
 2943TIP3   OH230387   2.002   5.798   0.600  0.1864 -0.4310  0.5989
 2943TIP3    H130388   2.094   5.824   0.608  0.9273 -2.2753 -0.9717
 2943TIP3    H230389   1.996   5.715   0.648 -0.0817 -1.3864 -0.9862
 2944TIP3   OH230390   2.547   3.731   8.696 -0.3772 -0.2785 -0.1720
 2944TIP3    H130391   2.483   3.690   8.637 -0.1656 -1.1396  0.1821
 2944TIP3    H230392   2.544   3.824   8.674  0.7105 -0.7355 -2.5078
 2945TIP3   OH230393   6.697   6.498   0.789 -0.4266  0.3327  0.6801
 2945TIP3    H130394   6.628   6.468   0.729 -0.1289 -0.3215  0.6556
 2945TIP3    H230395   6.769   6.437   0.774  0.5556  1.6197 -0.0384
 2946TIP3   OH230396   3.488   3.224   7.729 -0.3184 -0.5314  0.5445
 2946TIP3    H130397   3.457   3.250   7.815  0.7410  2.4532  0.1512
 2946TIP3    H230398   3.451   3.290   7.670  0.9762 -1.0572 -0.9113
 2947TIP3   OH230399   4.893   0.376   6.835 -0.3466 -0.0608 -0.7185
 2947TIP3    H130400   4.909   0.466   6.865 -0.8384 -0.0035 -0.6188
 2947TIP3    H230401   4.920   0.377   6.743  0.1810  0.0370 -0.5697
 2948TIP3   OH230402   1.066   6.451   1.841 -0.4531  0.1483 -0.0138
 2948TIP3    H130403   1.111   6.440   1.925  0.1038  1.8785 -0.0442
 2948TIP3    H230404   1.091   6.538   1.812 -0.1589 -0.6374 -2.2902
 2949TIP3   OH230405   5.310   2.500   7.667  0.2336  0.2816  0.6139
 2949TIP3    H130406   5.332   2.416   7.628 -0.2374  0.3665  0.1653
 2949TIP3    H230407   5.321   2.563   7.596 -0.2193  0.4908  0.7284
 2950TIP3   OH230408   3.154   6.467   8.348 -0.7098 -0.2359  0.5759
 2950TIP3    H130409   3.209   6.486   8.272 -0.1829  1.1440  1.2620
 2950TIP3    H230410   3.117   6.551   8.373 -3.9209 -1.2292 -0.3584
 2951TIP3   OH230411   3.577   1.405   1.145  0.1527 -0.2006 -0.9787
 2951TIP3    H130412   3.502   1.352   1.121 -1.0608  0.3764  1.2600
 2951TIP3    H230413   3.628   1.413   1.064 -1.9130 -1.0240 -2.4415
 2952TIP3   OH230414   1.037   3.775   7.871  0.4921 -0.4534  0.1557
 2952TIP3    H130415   1.031   3.843   7.938  0.8736 -0.2342 -0.0296
 2952TIP3    H230416   1.125   3.738   7.881  0.6802 -0.1839 -0.4439
 2953TIP3   OH230417   4.272   5.190   1.898  0.5915  0.1575 -0.1932
 2953TIP3    H130418   4.284   5.119   1.960  2.0011 -0.6441 -1.3073
 2953TIP3    H230419   4.286   5.150   1.812 -0.3132  1.4237 -0.9760
 2954TIP3   OH230420   3.443   3.523   0.957  0.2809 -0.3320 -0.0644
 2954TIP3    H130421   3.348   3.522   0.966  0.0157  2.0370 -1.7262
 2954TIP3    H230422   3.458   3.521   0.862  1.9376 -1.3026  0.1789
 2955TIP3   OH230423   6.449   2.664   6.832  0.2438 -0.6090 -0.2728
 2955TIP3    H130424   6.458   2.742   6.777  1.6573  0.6653  1.6422
 2955TIP3    H230425   6.355   2.656   6.848  0.0166  0.2399 -1.0878
 2956TIP3   OH230426   0.867   0.147   7.995  0.3206  0.3941 -0.4494
 2956TIP3    H130427   0.836   0.124   8.083  0.1829  1.7227 -0.1248
 2956TIP3    H230428   0.892   0.064   7.956  0.4439 -0.2151  0.8706
 2957TIP3   OH230429   0.844   6.602   7.019 -0.6653 -0.0572  0.1711
 2957TIP3    H130430   0.906   6.548   6.970 -0.0905  0.9608 -0.2476
 2957TIP3    H230431   0.766   6.604   6.964 -0.6010 -0.2503  0.0707
 2958TIP3   OH230432   4.958   3.581   0.181  0.5196  0.6812 -0.0623
 2958TIP3    H130433   5.013   3.550   0.109  0.0589  0.5250 -0.3504
 2958TIP3    H230434   4.928   3.501   0.225 -1.9971  0.5744 -1.7858
 2959TIP3   OH230435   6.057   1.112   7.270 -0.6659  0.4521  0.0018
 2959TIP3    H130436   6.145   1.076   7.256 -0.1483  2.0383 -1.1344
 2959TIP3    H230437   6.046   1.111   7.365  0.2010 -0.6179  0.1130
 2960TIP3   OH230438   0.353   3.573   0.673 -0.5643  0.7078 -0.2476
 2960TIP3    H130439   0.445   3.598   0.665  0.0874 -0.9320  1.3839
 2960TIP3    H230440   0.341   3.504   0.608 -0.1523 -0.2741  0.7051
 2961TIP3   OH230441   2.409   6.378   0.291 -0.4719  0.7439  0.2215
 2961TIP3    H130442   2.338   6.423   0.244 -1.8862 -0.8318  0.7418
 2961TIP3    H230443   2.439   6.442   0.356 -0.9119  1.6969 -0.4820
 2962TIP3   OH230444   5.866   1.620   0.335 -0.1094 -0.2408  0.1607
 2962TIP3    H130445   5.809   1.659   0.402 -0.0646 -1.0898  0.7074
 2962TIP3    H230446   5.950   1.666   0.346 -0.3014  0.0937  0.2395
 2963TIP3   OH230447   0.157   6.633   6.934 -0.1244  0.1227  0.1797
 2963TIP3    H130448   0.233   6.603   6.885 -0.3304  1.0858 -0.7655
 2963TIP3    H230449   0.181   6.722   6.963  0.1137 -0.5140  2.1117
 2964TIP3   OH230450   1.400   3.451   7.349 -0.1106  0.3642 -0.1652
 2964TIP3    H130451   1.340   3.462   7.276 -1.1210 -0.3638  0.5358
 2964TIP3    H230452   1.428   3.360   7.344 -0.9279  0.0391  0.8978
 2965TIP3   OH230453   4.281   0.574   0.425  0.4016  0.0188 -0.6678
 2965TIP3    H130454   4.188   0.589   0.441  0.7963  0.4896  1.5217
 2965TIP3    H230455   4.284   0.505   0.358 -1.5255 -0.9629  0.1956
 2966TIP3   OH230456   1.866   5.196   6.912  0.1359 -0.2896  0.0014
 2966TIP3    H130457   1.782   5.221   6.873 -0.1358 -0.1139  0.6926
 2966TIP3    H230458   1.906   5.137   6.847 -1.6164 -2.4113  0.7089
 2967TIP3   OH230459   1.060   2.060   1.102  0.1552  0.1986  0.5501
 2967TIP3    H130460   1.083   2.148   1.132 -0.8315  0.3020  1.0372
 2967TIP3    H230461   0.965   2.055   1.113  0.0400 -0.4964 -0.6373
 2968TIP3   OH230462   4.134   0.718   1.102  0.4596 -0.5537 -0.1091
 2968TIP3    H130463   4.045   0.751   1.091  0.8507  0.5810  0.0265
 2968TIP3    H230464   4.129   0.659   1.177 -0.3570 -1.2608 -0.6865
 2969TIP3   OH230465   2.736   0.905   1.012 -0.9118 -0.2117  0.1218
 2969TIP3    H130466   2.768   0.929   1.099  0.6529 -0.7617 -0.2738
 2969TIP3    H230467   2.730   0.810   1.014  1.0167 -0.4075 -0.9426
 2970TIP3   OH230468   5.906   4.938   0.227  0.0025 -0.0213 -0.3146
 2970TIP3    H130469   5.945   5.003   0.285 -1.0887  1.5043 -1.2101
 2970TIP3    H230470   5.899   4.859   0.281 -0.3917  1.1464  1.4404
 2971TIP3   OH230471   6.758   3.350   8.154 -0.1371  0.2836  0.2668
 2971TIP3    H130472   6.748   3.255   8.152  0.0716  0.2629 -1.1916
 2971TIP3    H230473   6.778   3.371   8.245 -3.8775 -0.6363  1.4576
 2972TIP3   OH230474   4.121   6.440   8.543 -0.1266 -0.0077 -0.4288
 2972TIP3    H130475   4.147   6.528   8.516  1.0049 -0.1262  0.1913
 2972TIP3    H230476   4.037   6.452   8.587  0.8307  1.0718  1.2394
 2973TIP3   OH230477   4.551   2.472   7.261 -0.2361  0.9337 -0.0526
 2973TIP3    H130478   4.604   2.434   7.191  1.7830  0.7790  1.4566
 2973TIP3    H230479   4.510   2.548   7.221  0.0767  0.3131 -1.6483
 2974TIP3   OH230480   5.406   1.555   1.928 -0.1723  0.0815 -0.4024
 2974TIP3    H130481   5.313   1.536   1.944 -0.0174 -0.6387 -0.3023
 2974TIP3    H230482   5.439   1.586   2.012 -0.5943  1.5142 -0.7492
 2975TIP3   OH230483   0.648   2.295   0.405 -0.3104 -0.4069  0.0778
 2975TIP3    H130484   0.654   2.357   0.478  2.3416 -0.2507 -0.1752
 2975TIP3    H230485   0.737   2.259   0.397 -1.1388 -2.2378 -1.5166
 2976TIP3   OH230486   1.461   4.154   1.066 -0.1207 -0.3698  0.9567
 2976TIP3    H130487   1.517   4.123   0.995 -1.5939 -0.5458 -0.1718
 2976TIP3    H230488   1.502   4.235   1.096 -0.2181  0.4776 -1.0687
 2977TIP3   OH230489   3.821   1.119   0.090 -0.1057 -0.0922  0.2056
 2977TIP3    H130490   3.844   1.100   0.181 -2.0631 -1.0396  0.5614
 2977TIP3    H230491   3.904   1.120   0.044  0.9438  0.5384  2.0197
 2978TIP3   OH230492   6.286   1.024   7.986  0.6968  0.3668 -0.8283
 2978TIP3    H130493   6.194   1.046   7.971  0.2492 -1.3917 -0.8544
 2978TIP3    H230494   6.297   0.937   7.947  2.8650  1.2954 -2.4933
 2979TIP3   OH230495   3.749   3.336   2.254 -0.6290  0.0858  0.1942
 2979TIP3    H130496   3.833   3.292   2.243 -0.4880  0.3317  0.2755
 2979TIP3    H230497   3.755   3.378   2.340 -1.0301 -0.3194  0.4279
 2980TIP3   OH230498   2.405   2.317   0.419 -0.1913 -0.6818 -0.2610
 2980TIP3    H130499   2.311   2.302   0.412 -0.2223 -0.4402 -0.3605
 2980TIP3    H230500   2.412   2.401   0.464 -0.0141 -1.4589  1.2317
 2981TIP3   OH230501   2.440   1.078   2.249 -0.5949  0.2785  0.5103
 2981TIP3    H130502   2.387   0.999   2.249 -0.4337  0.1483  1.9037
 2981TIP3    H230503   2.453   1.099   2.341 -1.3543  2.4167  0.2046
 2982TIP3   OH230504   1.697   3.522   0.712  0.3141  0.0397  0.1946
 2982TIP3    H130505   1.656   3.495   0.794 -0.3592  1.3327  0.3048
 2982TIP3    H230506   1.684   3.447   0.653  0.4197 -0.7261  1.1260
 2983TIP3   OH230507   3.067   0.255   7.284  0.0976  0.2036 -0.0386
 2983TIP3    H130508   3.013   0.194   7.334  0.0208  1.6214  1.7065
 2983TIP3    H230509   3.132   0.200   7.241 -1.0943 -1.2712 -0.0100
 2984TIP3   OH230510   1.509   6.319   8.859 -0.3652  0.0076  0.1579
 2984TIP3    H130511   1.555   6.247   8.815 -0.8729 -0.7781  0.8900
 2984TIP3    H230512   1.540   6.315   8.950  0.2768  1.2879  0.0251
 2985TIP3   OH230513   1.598   1.317   8.853 -0.0766  0.2524 -0.1785
 2985TIP3    H130514   1.642   1.402   8.850  1.3142 -0.4438 -0.3769
 2985TIP3    H230515   1.628   1.273   8.774 -1.2775 -0.2056 -0.3946
 2986TIP3   OH230516   4.078   1.936   1.261  0.2005 -0.2570  0.3621
 2986TIP3    H130517   4.128   1.939   1.343  0.1766 -0.0079  0.3683
 2986TIP3    H230518   4.139   1.899   1.198  0.2629 -0.3260  0.4616
 2987TIP3   OH230519   5.881   2.171   2.028 -0.0854 -0.0002 -0.6688
 2987TIP3    H130520   5.964   2.215   2.043 -0.0914  0.0988 -0.9275
 2987TIP3    H230521   5.838   2.171   2.114 -0.2008  0.7353 -0.7135
 2988TIP3   OH230522   6.473   6.351   0.698 -0.1004  0.6353 -0.3769
 2988TIP3    H130523   6.381   6.377   0.703 -0.2822 -0.1087  0.3217
 2988TIP3    H230524   6.484   6.287   0.768  0.6371 -0.2221 -1.2396
 2989TIP3   OH230525   4.076   0.179   1.105 -0.0298  0.3545 -0.3733
 2989TIP3    H130526   4.003   0.150   1.050  2.2608 -3.3815 -1.8191
 2989TIP3    H230527   4.069   0.127   1.185  0.3236  0.9729  0.0744
 2990TIP3   OH230528   6.160   0.762   0.265  0.1513  0.3212 -0.0299
 2990TIP3    H130529   6.239   0.709   0.278 -2.2235 -3.8689 -0.9867
 2990TIP3    H230530   6.142   0.755   0.171 -1.7709  0.4484  0.2886
 2991TIP3   OH230531   3.778   6.722   1.614 -0.5120  0.0268 -0.3376
 2991TIP3    H130532   3.822   6.704   1.697 -0.5635 -1.4566 -0.6013
 2991TIP3    H230533   3.724   6.800   1.632  1.1423  1.0601  0.3654
 2992TIP3   OH230534   2.716   6.348   8.142 -0.1898  0.3287 -0.7249
 2992TIP3    H130535   2.692   6.440   8.142 -0.5885  0.2512  0.9714
 2992TIP3    H230536   2.811   6.348   8.128 -0.2539  0.9487 -1.2016
 2993TIP3   OH230537   4.948   1.388   0.619 -0.3836  0.0285  0.5072
 2993TIP3    H130538   4.927   1.476   0.650 -1.9714 -0.5085  1.0785
 2993TIP3    H230539   4.892   1.376   0.542 -0.4921 -0.6251  0.6814
 2994TIP3   OH230540   6.039   4.026   7.367  0.2617  0.2294 -0.0725
 2994TIP3    H130541   5.975   4.046   7.435  1.4854 -1.1814  1.5805
 2994TIP3    H230542   6.067   4.112   7.335  0.5542  1.0165  2.1206
 2995TIP3   OH230543   1.990   3.056   0.243  0.4258  0.4061 -0.0673
 2995TIP3    H130544   2.011   3.009   0.324 -0.4016  2.6063  1.5386
 2995TIP3    H230545   1.941   2.993   0.191  0.1224 -0.8012  1.5880
 2996TIP3   OH230546   4.516   5.949   1.137 -0.2539  0.6399 -0.4487
 2996TIP3    H130547   4.431   5.982   1.109 -1.1186 -1.2533 -0.1857
 2996TIP3    H230548   4.578   5.984   1.073 -1.2585  1.7541 -0.8404
 2997TIP3   OH230549   4.645   6.025   7.480 -0.3679  0.3155  0.5405
 2997TIP3    H130550   4.557   6.035   7.444 -0.8306  0.2428  1.6171
 2997TIP3    H230551   4.632   5.995   7.570  0.7534  0.3886  0.7535
 2998TIP3   OH230552   6.213   3.189   2.354 -0.7049  0.0378 -0.0875
 2998TIP3    H130553   6.163   3.213   2.431 -3.4745  0.2617 -1.8339
 2998TIP3    H230554   6.293   3.242   2.360 -0.7060 -0.1341  2.6743
 2999TIP3   OH230555   2.856   1.808   0.105  0.2125 -0.1830  0.4018
 2999TIP3    H130556   2.862   1.819   0.200  2.4960 -0.0692  0.2966
 2999TIP3    H230557   2.855   1.897   0.071  2.5332 -0.1751  0.2306
 3000TIP3   OH230558   5.553   4.260   1.084 -0.2986  0.5135 -0.0075
 3000TIP3    H130559   5.604   4.324   1.033 -1.0934  0.8902 -0.3406
 3000TIP3    H230560   5.619   4.202   1.122  0.4997  1.9356  0.8601
 3001TIP3   OH230561   6.703   1.384   0.009 -0.0888 -0.3618 -0.0040
 3001TIP3    H130562   6.620   1.399   0.054 -0.0224  0.2487 -0.0733
 3001TIP3    H230563   6.679   1.367  -0.082 -0.1673 -0.7060  0.0791
 3002TIP3   OH230564   0.850   3.570   7.839  0.1083  0.9166  0.4097
 3002TIP3    H130565   0.929   3.619   7.861  0.3324  1.2771 -1.0968
 3002TIP3    H230566   0.865   3.483   7.877  1.3050  0.9209 -0.0071
 3003TIP3   OH230567   4.480   4.766   1.290 -0.1608 -0.2060 -0.0710
 3003TIP3    H130568   4.409   4.750   1.228 -0.6117  0.3509  0.2965
 3003TIP3    H230569   4.556   4.785   1.235 -0.9285  1.9275 -0.4735
 3004TIP3   OH230570   0.106   0.621   8.219 -0.1738 -0.2228 -0.1445
 3004TIP3    H130571   0.194   0.597   8.246  0.0750  1.2013  0.3519
 3004TIP3    H230572   0.049   0.566   8.273  0.3846 -1.0272 -0.3471
 3005TIP3   OH230573   1.183   0.299   1.029 -0.3910 -0.1151  0.0395
 3005TIP3    H130574   1.164   0.257   1.113 -0.0880 -1.6412 -0.6231
 3005TIP3    H230575   1.146   0.386   1.037  0.1320 -0.0141  1.9771
 3006TIP3   OH230576   6.179   5.305   2.640 -0.1846 -0.7637 -0.8743
 3006TIP3    H130577   6.124   5.310   2.561 -1.4983 -1.3846 -0.0203
 3006TIP3    H230578   6.176   5.394   2.676 -0.5575 -0.7759 -0.8742
 3007TIP3   OH230579   3.606   4.094   0.640  0.5605  0.0631  0.6148
 3007TIP3    H130580   3.593   4.118   0.548  2.1247 -0.0569  0.3386
 3007TIP3    H230581   3.518   4.081   0.674 -0.0405 -0.0459 -0.9121
 3008TIP3   OH230582   4.673   4.427   1.274 -0.1420  0.4793 -0.3069
 3008TIP3    H130583   4.749   4.434   1.332 -0.5584  1.5381  0.1366
 3008TIP3    H230584   4.666   4.333   1.256 -0.5424 -0.0426  2.1458
 3009TIP3   OH230585   1.755   2.332   8.723  0.1721  0.0187 -0.5827
 3009TIP3    H130586   1.845   2.364   8.732 -0.0923  1.2969 -2.1575
 3009TIP3    H230587   1.762   2.256   8.666 -0.0209  2.1428 -3.6926
 3010TIP3   OH230588   2.291   3.634   0.932 -0.3655  0.0242  0.5885
 3010TIP3    H130589   2.302   3.605   1.023  1.2350  0.0727  0.4483
 3010TIP3    H230590   2.213   3.689   0.933  1.0345  2.1469  2.4864
 3011TIP3   OH230591   5.564   5.764   7.422  0.5885  0.0972  0.5315
 3011TIP3    H130592   5.630   5.724   7.366 -0.0273 -0.5676  0.2694
 3011TIP3    H230593   5.538   5.694   7.482  0.8532  0.6462  1.3034
 3012TIP3   OH230594   6.353   3.289   0.297 -0.4159 -0.2389 -0.5396
 3012TIP3    H130595   6.422   3.223   0.291  1.1627  1.3050 -0.1245
 3012TIP3    H230596   6.287   3.248   0.353 -0.3564 -2.1434 -1.7567
 3013TIP3   OH230597   4.783   1.921   1.864 -0.5612  0.3501  0.1705
 3013TIP3    H130598   4.838   1.939   1.941 -0.1443  0.9602 -0.2655
 3013TIP3    H230599   4.842   1.878   1.802 -0.9393 -0.2954  0.2384
 3014TIP3   OH230600   0.191   0.169   1.323  0.1880  0.1058  0.0043
 3014TIP3    H130601   0.246   0.172   1.401 -0.1954  0.1021  0.2733
 3014TIP3    H230602   0.112   0.216   1.347  0.3153  0.6371 -0.5798
 3015TIP3   OH230603   3.186   0.337   8.223 -0.1798  0.3200 -0.4293
 3015TIP3    H130604   3.118   0.403   8.212  0.6760  1.4120  0.6463
 3015TIP3    H230605   3.168   0.298   8.308  0.9083  1.0810  0.1698
 3016TIP3   OH230606   2.995   5.725   1.846 -0.1252  0.3170 -0.4318
 3016TIP3    H130607   3.026   5.816   1.848 -0.1261  0.3281 -0.8219
 3016TIP3    H230608   2.915   5.726   1.898  2.0122 -0.3049  3.1918
 3017TIP3   OH230609   1.372   0.090   1.358 -0.1860 -0.3006  0.0318
 3017TIP3    H130610   1.428   0.027   1.403  1.0187  1.3943  1.0545
 3017TIP3    H230611   1.352   0.156   1.425 -0.0078  1.2551 -1.3798
 3018TIP3   OH230612   0.304   1.794   2.222  0.1029 -0.5476  0.2063
 3018TIP3    H130613   0.341   1.714   2.258 -1.4591 -1.2124  0.3869
 3018TIP3    H230614   0.242   1.765   2.155  1.1763  0.5953 -1.3901
 3019TIP3   OH230615   4.029   6.614   0.362  0.2676 -0.0788  0.4388
 3019TIP3    H130616   4.031   6.618   0.458 -0.9965 -0.1346  0.4790
 3019TIP3    H230617   4.088   6.542   0.340 -0.3808 -0.8816  1.2389
 3020TIP3   OH230618   0.031   6.774   8.541 -0.0111  0.2987  0.4857
 3020TIP3    H130619   0.096   6.730   8.596  0.7884  1.4298  0.4806
 3020TIP3    H230620   0.042   6.867   8.561 -1.1647  0.5684 -0.0348
 3021TIP3   OH230621   5.398   0.593   8.782  0.5617  0.1664 -0.7251
 3021TIP3    H130622   5.493   0.586   8.794  0.6557 -0.5354 -1.7592
 3021TIP3    H230623   5.380   0.542   8.703 -1.4536 -4.9829  2.5114
 3022TIP3   OH230624   3.356   4.048   0.078  0.5412  0.1616  0.3043
 3022TIP3    H130625   3.295   4.030   0.007 -0.0564  1.5108  0.4536
 3022TIP3    H230626   3.341   3.977   0.141  0.3989 -0.5058 -0.4530
 3023TIP3   OH230627   6.004   4.251   6.865  0.0067  0.4399 -0.1061
 3023TIP3    H130628   5.973   4.210   6.785  1.9885 -1.3144 -0.0490
 3023TIP3    H230629   5.979   4.190   6.935  0.9613  0.4587  0.2604
 3024TIP3   OH230630   4.586   2.111   1.895 -0.3179  0.0692  0.2900
 3024TIP3    H130631   4.586   2.139   1.987 -0.1325  0.8296  0.0702
 3024TIP3    H230632   4.664   2.057   1.886 -0.0444  0.4313  0.4561
 3025TIP3   OH230633   5.101   0.587   7.442  0.1215  0.3802 -0.1734
 3025TIP3    H130634   5.050   0.584   7.360  0.0279 -0.6958 -0.0851
 3025TIP3    H230635   5.191   0.571   7.414 -0.1584 -2.0772  0.1144
 3026TIP3   OH230636   5.564   1.960   0.683 -0.2433 -0.0774  0.1930
 3026TIP3    H130637   5.616   1.957   0.602 -1.2335 -0.3525 -0.4467
 3026TIP3    H230638   5.477   1.988   0.655 -0.4585  0.3706  1.2552
 3027TIP3   OH230639   2.383   3.995   2.173 -0.8463 -0.1157  0.4392
 3027TIP3    H130640   2.468   4.007   2.216 -1.1899  0.4798  0.9767
 3027TIP3    H230641   2.351   3.912   2.209 -0.7061 -0.1010  0.6050
 3028TIP3   OH230642   3.065   6.524   2.643 -0.1362  0.3215 -0.2988
 3028TIP3    H130643   3.003   6.451   2.639 -0.2142  0.3709 -0.0111
 3028TIP3    H230644   3.151   6.482   2.644 -0.1772  0.2379 -0.2517
 3029TIP3   OH230645   4.028   5.191   2.481 -0.8469  0.3621 -0.0336
 3029TIP3    H130646   3.990   5.213   2.566  0.6067 -2.4892  1.5071
 3029TIP3    H230647   4.093   5.260   2.466 -1.5806  1.2702  0.8322
 3030TIP3   OH230648   2.686   1.635   0.732  0.0677 -0.2052 -0.4816
 3030TIP3    H130649   2.713   1.711   0.784 -0.3761  0.9598 -1.8683
 3030TIP3    H230650   2.768   1.604   0.692  0.2551 -0.4643  0.1060
 3031TIP3   OH230651   5.722   4.822   1.807 -0.6218 -0.2468  0.6375
 3031TIP3    H130652   5.799   4.874   1.782  0.0712 -1.2231  0.6932
 3031TIP3    H230653   5.735   4.803   1.900 -0.8047 -0.6225  0.5874
 3032TIP3   OH230654   2.696   0.760   0.046 -0.3593  0.4428 -0.0214
 3032TIP3    H130655   2.696   0.802  -0.039  0.8805  1.1717  0.3247
 3032TIP3    H230656   2.684   0.831   0.109  3.3249  0.6335  0.6766
 3033TIP3   OH230657   4.203   2.877   0.332 -0.0389  0.0024  0.4956
 3033TIP3    H130658   4.222   2.959   0.287  0.1455 -0.2772  0.0491
 3033TIP3    H230659   4.257   2.879   0.411  0.5111 -0.0020  0.1259
 3034TIP3   OH230660   3.071   5.732   8.478 -0.3952 -0.4073  0.0813
 3034TIP3    H130661   3.000   5.777   8.434 -0.0486  0.0253 -0.0417
 3034TIP3    H230662   3.139   5.798   8.488 -0.0345 -0.7981  0.2550
 3035TIP3   OH230663   0.350   3.227   7.802 -0.3600 -0.1574  0.2765
 3035TIP3    H130664   0.325   3.246   7.711 -1.1701  0.3509  0.5907
 3035TIP3    H230665   0.286   3.275   7.854  0.8160  0.5330  1.1253
 3036TIP3   OH230666   6.367   3.816   7.016  0.5004 -0.0195  0.5400
 3036TIP3    H130667   6.416   3.891   7.049  1.0884 -1.0908  2.2787
 3036TIP3    H230668   6.431   3.745   7.015 -0.3813 -0.8294  0.3342
 3037TIP3   OH230669   3.125   0.274   2.318  0.1444 -0.1746 -0.0822
 3037TIP3    H130670   3.039   0.231   2.311  0.2058 -0.2414 -0.4223
 3037TIP3    H230671   3.188   0.202   2.320  0.1643 -0.1464  0.6962
 3038TIP3   OH230672   4.331   4.863   8.430  0.4958 -0.2480 -0.6222
 3038TIP3    H130673   4.368   4.899   8.349 -2.3542  0.7714 -1.6113
 3038TIP3    H230674   4.285   4.936   8.470  4.0143  0.0889  3.5731
 3039TIP3   OH230675   0.017   1.255   0.501  0.1298  0.0140  0.6040
 3039TIP3    H130676   0.075   1.227   0.430 -1.7170  0.8317 -1.3441
 3039TIP3    H230677  -0.036   1.178   0.521  0.3478 -0.0910  0.7777
 3040TIP3   OH230678   5.503   5.455   0.692  0.3738  0.9405  0.2376
 3040TIP3    H130679   5.528   5.445   0.783  1.4805  0.2673 -0.1187
 3040TIP3    H230680   5.409   5.472   0.694  0.4965  1.5882  1.5260
 3041TIP3   OH230681   1.780   6.457   8.580 -0.0986  0.9527 -0.0058
 3041TIP3    H130682   1.827   6.487   8.658 -0.8541 -0.5276  1.0785
 3041TIP3    H230683   1.690   6.446   8.610  0.0411 -1.9595 -0.3452
 3042TIP3   OH230684   2.273   1.306   0.118 -0.0203 -0.4087  0.2477
 3042TIP3    H130685   2.365   1.330   0.122 -0.1676 -0.0228  1.3867
 3042TIP3    H230686   2.249   1.322   0.026  0.9912 -0.3644 -0.0263
 3043TIP3   OH230687   5.336   5.284   8.105 -0.6789  0.1776  0.3009
 3043TIP3    H130688   5.357   5.378   8.103 -2.0174  0.4996 -0.7640
 3043TIP3    H230689   5.368   5.251   8.020 -0.9370 -0.1488  0.3289
 3044TIP3   OH230690   4.698   5.659   1.138  0.1072  0.3178 -0.7432
 3044TIP3    H130691   4.724   5.643   1.048  0.1463  0.0598 -0.6872
 3044TIP3    H230692   4.610   5.623   1.144  0.0930  0.3627 -0.6864
 3045TIP3   OH230693   2.349   3.559   1.674 -0.2079 -0.3057  0.0581
 3045TIP3    H130694   2.299   3.499   1.729 -1.1963 -0.5270 -1.0461
 3045TIP3    H230695   2.366   3.510   1.594 -2.2288  1.2928 -1.4395
 3046TIP3   OH230696   4.391   3.172   7.763 -0.0249  0.0210 -0.1685
 3046TIP3    H130697   4.417   3.254   7.723  0.7119  0.9534  2.0891
 3046TIP3    H230698   4.347   3.197   7.845  1.3432 -1.8071  1.2179
 3047TIP3   OH230699   1.548   6.545   7.148  0.2893  0.0094  0.2178
 3047TIP3    H130700   1.477   6.502   7.100  0.0467  0.0175  0.5688
 3047TIP3    H230701   1.618   6.480   7.149  0.3832  0.0934 -0.3472
 3048TIP3   OH230702   2.856   1.083   8.637 -0.8134  0.0046 -0.7871
 3048TIP3    H130703   2.854   1.161   8.581 -1.8621  0.6222  0.0615
 3048TIP3    H230704   2.916   1.106   8.708 -1.2909  0.1210 -0.4213
 3049TIP3   OH230705   0.780   1.364   7.657 -0.2145 -0.1602  0.1233
 3049TIP3    H130706   0.728   1.313   7.594  0.3441 -1.0125  0.3376
 3049TIP3    H230707   0.870   1.335   7.643  0.0222  0.2668  0.7355
 3050TIP3   OH230708   0.483   2.128   8.686  0.7102  0.0033 -0.2705
 3050TIP3    H130709   0.408   2.166   8.731 -0.5436 -1.5830 -0.9654
 3050TIP3    H230710   0.508   2.053   8.740  0.5524 -0.6380 -1.0854
 3051TIP3   OH230711   5.702   6.143   1.107 -0.0188 -0.0738  0.1439
 3051TIP3    H130712   5.673   6.218   1.054  0.2895 -1.1201 -1.5956
 3051TIP3    H230713   5.645   6.071   1.079  2.6048 -1.6201 -1.6904
 3052TIP3   OH230714   2.982   5.334   1.088  0.4278  0.2579 -0.1271
 3052TIP3    H130715   3.061   5.369   1.129 -0.0551  1.0588  0.1455
 3052TIP3    H230716   2.977   5.379   1.004  1.7702 -1.8556 -1.4330
 3053TIP3   OH230717   1.427   0.531   7.402  0.4654 -0.3700  0.5543
 3053TIP3    H130718   1.374   0.456   7.373 -2.3793  0.9654  1.9215
 3053TIP3    H230719   1.394   0.605   7.351  1.9241  0.3151  0.5601
 3054TIP3   OH230720   5.016   4.397   1.059 -0.5592  0.4826  0.8055
 3054TIP3    H130721   4.977   4.480   1.086 -2.3972 -0.0535 -0.0461
 3054TIP3    H230722   5.104   4.398   1.096 -0.8627  2.4144  1.5487
 3055TIP3   OH230723   6.028   2.736   1.209 -0.0913  0.3071  0.4592
 3055TIP3    H130724   6.037   2.648   1.245  1.9389  0.9058  1.5601
 3055TIP3    H230725   5.947   2.732   1.157 -1.3255 -1.5298  2.3465
 3056TIP3   OH230726   1.674   6.328   7.701  0.1149  0.0758  0.2802
 3056TIP3    H130727   1.604   6.333   7.635  0.2313 -0.1962  0.1392
 3056TIP3    H230728   1.686   6.419   7.728 -0.4691  0.0979  0.4871
 3057TIP3   OH230729   1.755   4.756   7.857 -0.0384  0.7190  0.1558
 3057TIP3    H130730   1.845   4.764   7.827 -0.6128  1.3979 -1.4981
 3057TIP3    H230731   1.702   4.772   7.779 -1.5966  0.1721  1.0535
 3058TIP3   OH230732   4.531   1.446   2.608 -0.5091 -0.5357  0.4848
 3058TIP3    H130733   4.502   1.364   2.566  0.6739 -0.6720 -0.1297
 3058TIP3    H230734   4.454   1.503   2.604 -0.2055 -0.1127 -3.0260
 3059TIP3   OH230735   1.281   3.116   0.257  0.0011 -0.2965  0.7479
 3059TIP3    H130736   1.314   3.150   0.340  0.5029  0.7856  0.1142
 3059TIP3    H230737   1.199   3.163   0.242 -0.2305 -0.6896  0.7503
 3060TIP3   OH230738   0.186   3.609   1.781  0.1432  1.0704  0.1511
 3060TIP3    H130739   0.188   3.672   1.853  2.1986  1.8696 -0.5250
 3060TIP3    H230740   0.270   3.563   1.787  0.1756  0.8478 -1.4632
 3061TIP3   OH230741   5.974   6.007   0.807  0.1290 -0.0618 -0.3244
 3061TIP3    H130742   6.007   5.920   0.785  0.7684 -0.1052  0.7072
 3061TIP3    H230743   5.890   6.012   0.763  0.9304 -0.4529 -1.9751
 3062TIP3   OH230744   0.145   4.151   0.382 -0.2725 -0.2465 -0.7192
 3062TIP3    H130745   0.094   4.227   0.411  0.7957  0.5802 -0.9334
 3062TIP3    H230746   0.181   4.114   0.462 -2.7024 -2.0074 -0.3415
 3063TIP3   OH230747   0.045   3.401   8.421 -0.3735  0.1659 -0.5109
 3063TIP3    H130748  -0.040   3.398   8.466  0.8027  0.0649  1.8515
 3063TIP3    H230749   0.070   3.494   8.423  0.9773 -0.1707  1.7699
 3064TIP3   OH230750   0.268   6.660   0.247 -0.1772 -0.2924  0.1234
 3064TIP3    H130751   0.340   6.605   0.216 -0.7403 -1.4463  0.8133
 3064TIP3    H230752   0.258   6.637   0.340 -0.2230  1.2140  0.5206
 3065TIP3   OH230753   1.821   0.002   1.582 -0.2968 -0.3071 -0.4691
 3065TIP3    H130754   1.799   0.063   1.511 -0.0915  0.2262 -0.0785
 3065TIP3    H230755   1.916   0.009   1.590 -0.3788  0.0129  0.2050
 3066TIP3   OH230756   0.422   3.675   1.505 -0.3485  0.4065 -0.3442
 3066TIP3    H130757   0.347   3.696   1.450 -0.4297  0.9167 -0.0432
 3066TIP3    H230758   0.455   3.592   1.470 -2.1669 -0.8184  0.6782
 3067TIP3   OH230759   5.699   2.324   1.249 -0.2610 -0.3001  0.0943
 3067TIP3    H130760   5.746   2.251   1.209  0.3456  0.2068 -0.1435
 3067TIP3    H230761   5.620   2.333   1.196 -0.9642 -1.5675  0.8895
 3068TIP3   OH230762   4.961   3.481   7.366 -0.5495  0.2748 -0.0226
 3068TIP3    H130763   4.955   3.416   7.296 -2.3289 -0.4906  0.7721
 3068TIP3    H230764   4.880   3.531   7.358 -0.2980  0.8311  0.8568
 3069TIP3   OH230765   3.615   1.636   1.524  0.5141 -0.4183  0.0603
 3069TIP3    H130766   3.582   1.715   1.566  0.2547 -0.0397 -0.8487
 3069TIP3    H230767   3.592   1.645   1.432  1.3000 -1.1216 -0.2229
 3070TIP3   OH230768   3.104   5.679   2.543 -0.1053  0.0791 -0.0069
 3070TIP3    H130769   3.184   5.636   2.515  0.9691  0.3359  2.4157
 3070TIP3    H230770   3.128   5.771   2.551 -1.0932  0.4174 -0.7142
 3071TIP3   OH230771   4.775   1.517   2.517 -0.1381  0.1172  0.3183
 3071TIP3    H130772   4.760   1.600   2.473 -0.5164  0.0589  0.3375
 3071TIP3    H230773   4.696   1.502   2.569  1.4808  1.7402  3.5640
 3072TIP3   OH230774   0.444   5.873   0.476  0.1781  0.3073 -0.5536
 3072TIP3    H130775   0.378   5.816   0.436 -0.6949  1.3926 -0.7177
 3072TIP3    H230776   0.516   5.814   0.497 -0.8349 -0.9297 -0.3615
 3073TIP3   OH230777   1.968   1.220   1.070  0.1837 -0.2965  0.5361
 3073TIP3    H130778   1.952   1.193   0.980  1.3332  0.2003  0.1651
 3073TIP3    H230779   1.938   1.311   1.073  0.5873 -0.1638  0.5274
 3074TIP3   OH230780   5.618   0.965   7.961  0.0765 -0.2730  0.3826
 3074TIP3    H130781   5.681   0.894   7.969 -0.4501 -1.4415 -3.4732
 3074TIP3    H230782   5.538   0.931   8.003  0.2398 -1.4300 -0.1962
 3075TIP3   OH230783   0.074   5.448   7.456  0.2854 -0.4644 -0.3115
 3075TIP3    H130784   0.050   5.356   7.445  0.6183 -0.8987  1.9932
 3075TIP3    H230785   0.031   5.494   7.384 -0.5278 -2.3177 -1.0486
 3076TIP3   OH230786   1.338   2.180   8.378 -0.1922 -0.3633 -0.1329
 3076TIP3    H130787   1.402   2.245   8.408 -0.9333  0.9312 -1.2277
 3076TIP3    H230788   1.329   2.197   8.284 -2.2954 -0.3344  0.0190
 3077TIP3   OH230789   6.104   6.783   8.418 -0.2496 -0.3793 -0.2729
 3077TIP3    H130790   6.086   6.767   8.325 -0.4259 -0.9775 -0.1381
 3077TIP3    H230791   6.153   6.865   8.418 -0.7534 -0.0591 -0.8480
 3078TIP3   OH230792   3.628   3.574   1.413 -0.3912 -0.3108  0.3593
 3078TIP3    H130793   3.647   3.534   1.498 -3.3189  0.6733  1.6208
 3078TIP3    H230794   3.595   3.501   1.360  0.7737 -0.7991  0.2768
 3079TIP3   OH230795   0.374   1.602   1.580  0.4570  0.0534 -0.1012
 3079TIP3    H130796   0.361   1.690   1.546  0.4516  0.9531  2.0419
 3079TIP3    H230797   0.308   1.549   1.535  1.1218  0.8904 -2.1780
 3080TIP3   OH230798   0.312   4.720   0.126  0.4393  0.0666 -0.3678
 3080TIP3    H130799   0.330   4.736   0.218  0.7979  0.2875 -0.4742
 3080TIP3    H230800   0.398   4.706   0.087  0.4909  2.1355 -1.0874
 3081TIP3   OH230801   5.423   2.372   1.174 -0.4191 -0.2379  0.3302
 3081TIP3    H130802   5.413   2.290   1.127  2.0304  0.2894 -1.2770
 3081TIP3    H230803   5.350   2.427   1.144 -1.1969 -1.2653  0.2835
 3082TIP3   OH230804   0.940   3.443   0.089  0.3841 -0.0950  0.6553
 3082TIP3    H130805   1.005   3.482   0.030 -0.8084 -0.3821 -0.8984
 3082TIP3    H230806   0.966   3.351   0.096 -1.2920 -0.9076 -2.1901
 3083TIP3   OH230807   4.145   3.568   0.514  0.2822  0.1891 -0.1085
 3083TIP3    H130808   4.196   3.605   0.586 -1.0770  1.2513  0.3516
 3083TIP3    H230809   4.070   3.527   0.556  0.3009 -0.5925 -0.8248
 3084TIP3   OH230810   2.196   5.263   0.994 -0.2068 -0.3292  0.3984
 3084TIP3    H130811   2.249   5.279   1.071  0.1951 -1.7500  0.4567
 3084TIP3    H230812   2.259   5.258   0.922 -0.5769  0.9917 -0.0475
 3085TIP3   OH230813   5.980   2.150   7.950 -0.1974  0.6034  0.3284
 3085TIP3    H130814   5.921   2.153   8.025 -1.6600  0.7128 -0.7845
 3085TIP3    H230815   6.068   2.161   7.988 -0.8927  0.6497  2.0019
 3086TIP3   OH230816   3.727   5.806   0.727  0.2108  0.0399 -0.5146
 3086TIP3    H130817   3.746   5.893   0.692  1.3014 -0.0404 -0.1633
 3086TIP3    H230818   3.806   5.755   0.707 -1.0609 -1.3733 -2.2479
 3087TIP3   OH230819   6.661   4.626   0.795  0.3081  0.4413  0.0942
 3087TIP3    H130820   6.602   4.635   0.870  0.3464 -0.6464  0.2674
 3087TIP3    H230821   6.693   4.536   0.800 -0.2816  0.0895 -1.6575
 3088TIP3   OH230822   0.713   4.910   1.744  0.0681 -0.2101  0.1382
 3088TIP3    H130823   0.699   4.962   1.823  1.4253  0.9774 -0.3670
 3088TIP3    H230824   0.682   4.823   1.767 -1.3625  0.5624  1.3297
 3089TIP3   OH230825   6.578   0.884   7.624  0.3852  0.7622  0.7479
 3089TIP3    H130826   6.495   0.917   7.589 -0.1813 -0.8234  0.5119
 3089TIP3    H230827   6.552   0.815   7.685  1.5462 -0.7534 -0.3995
 3090TIP3   OH230828   4.344   5.222   8.370 -0.0093  0.1468  0.0036
 3090TIP3    H130829   4.426   5.220   8.418 -0.4698  0.8735  0.8396
 3090TIP3    H230830   4.368   5.198   8.280  0.9486 -0.6145  0.4507
 3091TIP3   OH230831   6.464   0.605   0.078 -0.0326 -0.3387 -0.1254
 3091TIP3    H130832   6.375   0.595   0.045  0.5626 -0.7551 -1.7034
 3091TIP3    H230833   6.499   0.680   0.030 -0.5135  1.9951  2.8411
 3092TIP3   OH230834   1.658   1.496   1.237 -0.4518  0.5827 -0.0205
 3092TIP3    H130835   1.672   1.446   1.157  1.4044 -0.4383  0.8846
 3092TIP3    H230836   1.650   1.587   1.207 -0.1293  0.1802 -1.3987
 3093TIP3   OH230837   1.044   1.291   7.712  0.6072 -0.1724  0.5776
 3093TIP3    H130838   1.088   1.313   7.630 -1.4076  0.4540 -0.4112
 3093TIP3    H230839   1.099   1.224   7.752  0.9404 -1.5322 -1.9645
 3094TIP3   OH230840   4.011   4.753   7.663 -0.4958 -0.0829 -0.1108
 3094TIP3    H130841   4.011   4.706   7.746 -1.1841 -1.0497 -0.6284
 3094TIP3    H230842   3.924   4.793   7.657 -0.0258  1.0081  0.1754
 3095TIP3   OH230843   2.482   3.984   1.566 -0.3947  0.4329  0.3408
 3095TIP3    H130844   2.456   4.072   1.593  2.2455  1.1590  0.7460
 3095TIP3    H230845   2.462   3.981   1.472  0.1963  1.7697  0.1510
 3096TIP3   OH230846   4.835   5.858   0.290 -0.0760  0.1048 -0.2189
 3096TIP3    H130847   4.762   5.843   0.350  0.1165 -0.7210 -0.1780
 3096TIP3    H230848   4.814   5.940   0.246 -0.1700  0.7824  1.0496
 3097TIP3   OH230849   5.980   1.448   2.627 -0.4908 -0.2562 -1.3157
 3097TIP3    H130850   5.885   1.442   2.633 -0.4775 -0.4534 -1.2866
 3097TIP3    H230851   5.996   1.524   2.571 -0.6349  0.6185 -0.1880
 3098TIP3   OH230852   0.064   3.970   1.195  0.2244 -0.0737 -0.0216
 3098TIP3    H130853   0.042   4.021   1.273  0.0541  0.2326 -0.2654
 3098TIP3    H230854   0.100   4.035   1.134  0.7696 -0.3891 -0.0331
 3099TIP3   OH230855   1.203   1.800   8.681 -0.3026  0.2065  0.4471
 3099TIP3    H130856   1.119   1.757   8.664  0.1158 -0.4475 -0.0458
 3099TIP3    H230857   1.189   1.891   8.657 -0.6312 -0.0662 -0.4299
 3100TIP3   OH230858   4.577   4.369   1.918  0.0284 -0.5914  0.2402
 3100TIP3    H130859   4.585   4.285   1.962  0.7814 -0.7620 -0.1964
 3100TIP3    H230860   4.489   4.400   1.939 -0.0375 -1.2077  0.8913
 3101TIP3   OH230861   0.691   2.233   7.161  0.2275 -0.0739  0.5366
 3101TIP3    H130862   0.596   2.246   7.151  0.3979  0.5297 -0.4523
 3101TIP3    H230863   0.699   2.167   7.230 -0.8816  0.7299  1.4851
 3102TIP3   OH230864   0.925   1.402   8.290 -0.4070  0.0771  0.0325
 3102TIP3    H130865   0.844   1.355   8.308  0.6771 -0.7720  3.5581
 3102TIP3    H230866   0.990   1.333   8.277  0.0032  0.7374 -1.6712
 3103TIP3   OH230867   2.545   1.683   8.052  0.9320  0.6911 -0.2045
 3103TIP3    H130868   2.459   1.641   8.051  1.7628 -1.1081  0.3071
 3103TIP3    H230869   2.526   1.777   8.045 -1.0280  0.3001 -0.6646
 3104TIP3   OH230870   1.704   5.540   6.236 -0.2063  0.2791 -0.1066
 3104TIP3    H130871   1.683   5.469   6.296 -0.9809  1.1352  0.6594
 3104TIP3    H230872   1.799   5.548   6.240 -0.1123 -0.6921 -0.1969
 3105TIP3   OH230873   5.487   2.569   8.382 -0.0869 -0.2867 -0.0889
 3105TIP3    H130874   5.392   2.561   8.373 -0.0076 -2.2104  0.3334
 3105TIP3    H230875   5.501   2.579   8.476  0.1316  0.2643 -0.1745
 3106TIP3   OH230876   1.611   6.590   8.405 -0.2535  0.1538  0.1916
 3106TIP3    H130877   1.687   6.640   8.434  0.1256  0.1234 -0.7139
 3106TIP3    H230878   1.648   6.516   8.357 -0.7180 -2.0097  2.8997
 3107TIP3   OH230879   3.630   4.071   8.203  0.0485  0.3218  0.2630
 3107TIP3    H130880   3.578   4.080   8.283  0.4234  1.3953  0.4009
 3107TIP3    H230881   3.566   4.049   8.135 -0.3756  0.1914  0.7007
 3108TIP3   OH230882   6.398   3.342   7.818  0.0576 -0.2973 -0.1214
 3108TIP3    H130883   6.438   3.406   7.760 -1.6919  0.6261 -0.3669
 3108TIP3    H230884   6.403   3.259   7.770 -1.5795  0.4885 -1.7744
 3109TIP3   OH230885   4.715   3.065   7.099 -0.7778 -0.7431  0.3458
 3109TIP3    H130886   4.775   3.003   7.141 -0.3934 -1.5354 -1.2918
 3109TIP3    H230887   4.692   3.023   7.016 -2.6009  0.1326  0.3551
 3110TIP3   OH230888   1.201   3.249   1.827 -0.1991  0.2346  0.0674
 3110TIP3    H130889   1.197   3.329   1.880 -2.0338 -0.4151  1.0127
 3110TIP3    H230890   1.277   3.202   1.860 -0.6690  0.3581  1.4015
 3111TIP3   OH230891   2.488   5.479   7.560  0.1564  0.4173  0.3050
 3111TIP3    H130892   2.566   5.425   7.578  0.6033  0.9532  0.0120
 3111TIP3    H230893   2.446   5.437   7.485 -0.7850 -0.8546  1.4887
 3112TIP3   OH230894   2.235   6.255   7.264 -0.4065  0.1998 -0.2583
 3112TIP3    H130895   2.267   6.330   7.214 -1.8345  0.9033 -0.1672
 3112TIP3    H230896   2.263   6.273   7.354 -2.5713  1.7898  0.1841
 3113TIP3   OH230897   1.291   3.466   6.761 -0.0252  0.0519 -0.7425
 3113TIP3    H130898   1.380   3.495   6.783 -0.7155  0.8929  1.1946
 3113TIP3    H230899   1.235   3.540   6.787 -1.6430 -1.9902  2.1455
 3114TIP3   OH230900   4.764   2.294   0.270  0.3599  0.3274 -0.1162
 3114TIP3    H130901   4.846   2.277   0.317  0.1712 -1.3677 -0.3312
 3114TIP3    H230902   4.754   2.389   0.274  2.0298  0.5281  0.4228
 3115TIP3   OH230903   1.412   4.347   1.334 -0.1055  0.5701  0.0248
 3115TIP3    H130904   1.414   4.359   1.429  0.4196 -3.6137  0.7481
 3115TIP3    H230905   1.488   4.396   1.302  1.5393 -0.3849  2.2283
 3116TIP3   OH230906   0.359   3.599   8.071 -0.1839  0.2066  0.4908
 3116TIP3    H130907   0.320   3.521   8.032  0.9606 -0.7453  1.1488
 3116TIP3    H230908   0.294   3.631   8.133 -0.2005 -0.9688  1.1115
 3117TIP3   OH230909   5.018   6.016   8.305  0.1494  0.0715  0.0659
 3117TIP3    H130910   4.950   6.064   8.352 -1.0065 -0.7132 -0.7596
 3117TIP3    H230911   4.990   5.925   8.310 -0.3828  0.0208 -2.7139
 3118TIP3   OH230912   6.267   3.473   8.680 -0.6696  0.7819  0.1385
 3118TIP3    H130913   6.216   3.498   8.758  0.6899  0.2475  1.2363
 3118TIP3    H230914   6.258   3.548   8.621 -1.5128  1.3180  0.9138
 3119TIP3   OH230915   4.572   1.799   8.499 -0.7284 -0.3819  0.3950
 3119TIP3    H130916   4.623   1.818   8.420 -0.3822 -0.4990  0.5851
 3119TIP3    H230917   4.481   1.804   8.471 -0.6038 -0.6721 -0.0691
 3120TIP3   OH230918   2.285   3.131   8.620  0.3671 -0.0876  0.2187
 3120TIP3    H130919   2.375   3.119   8.652  0.2902  2.1256  1.4423
 3120TIP3    H230920   2.235   3.159   8.696 -0.7583  1.3396 -0.9796
 3121TIP3   OH230921   0.419   0.473   0.100  0.2906  0.0879 -0.4641
 3121TIP3    H130922   0.452   0.555   0.136 -0.7058  0.3518 -0.1085
 3121TIP3    H230923   0.369   0.434   0.171  0.8835 -0.9188 -0.5760
 3122TIP3   OH230924   0.827   5.775   1.597  0.1809 -1.0200 -0.2199
 3122TIP3    H130925   0.801   5.761   1.506 -0.9725  0.4068 -0.1427
 3122TIP3    H230926   0.906   5.829   1.591 -1.0479  0.8153 -0.3792
 3123TIP3   OH230927   4.915   4.677   1.047  0.2294  0.3160  0.9816
 3123TIP3    H130928   4.975   4.735   1.095  1.2629  0.6245 -0.6194
 3123TIP3    H230929   4.870   4.735   0.986 -0.0338 -0.2989  0.5861
 3124TIP3   OH230930   5.168   3.282   1.018  0.4363  0.0338 -0.5804
 3124TIP3    H130931   5.074   3.304   1.013 -0.0678 -1.7192  0.3398
 3124TIP3    H230932   5.191   3.255   0.930  0.4124  1.6600 -1.1101
 3125TIP3   OH230933   1.856   2.786   7.438  0.4923  0.5028 -0.2581
 3125TIP3    H130934   1.922   2.786   7.368 -0.8247 -0.0365 -1.5654
 3125TIP3    H230935   1.906   2.781   7.519  2.0677 -3.0784 -1.2442
 3126TIP3   OH230936   0.721   2.068   8.290  0.1988 -0.2904  0.4935
 3126TIP3    H130937   0.779   2.135   8.325  1.2766  0.2657 -2.1125
 3126TIP3    H230938   0.780   1.998   8.260 -0.6406 -0.7232 -0.1884
 3127TIP3   OH230939   3.008   0.072   1.550  0.5636 -0.5490 -0.2509
 3127TIP3    H130940   2.994   0.086   1.456 -0.7597 -0.5697 -0.0697
 3127TIP3    H230941   3.000   0.160   1.588  0.2482 -0.6557 -0.0655
 3128TIP3   OH230942   1.905   3.071   7.309 -0.1827  0.1507 -0.1661
 3128TIP3    H130943   1.932   2.985   7.276 -1.3550 -0.2245 -0.1913
 3128TIP3    H230944   1.811   3.062   7.325 -0.6966  1.9072 -1.7752
 3129TIP3   OH230945   2.294   5.340   1.225  0.1808 -0.3744 -0.6177
 3129TIP3    H130946   2.217   5.356   1.280  0.1212 -1.5133 -0.3641
 3129TIP3    H230947   2.368   5.342   1.285  0.5125  1.7847 -1.0044
 3130TIP3   OH230948   4.377   0.569   0.148  0.7041 -0.1062  0.1563
 3130TIP3    H130949   4.409   0.479   0.140 -2.3221 -1.3298  0.4726
 3130TIP3    H230950   4.424   0.604   0.223  1.0636 -1.8819  0.8164
 3131TIP3   OH230951   1.056   6.252   2.213  0.4303  0.1906  0.2341
 3131TIP3    H130952   1.089   6.314   2.148  1.7787  1.5397  2.0905
 3131TIP3    H230953   0.977   6.293   2.247 -0.4525 -0.6644 -0.7045
 3132TIP3   OH230954   1.023   5.643   7.662  0.2232 -0.1114 -0.2682
 3132TIP3    H130955   1.058   5.581   7.726  1.4202 -1.0950 -1.7813
 3132TIP3    H230956   0.931   5.620   7.654 -0.3120  0.9571  2.0635
 3133TIP3   OH230957   5.720   1.400   6.855  0.1285 -0.5509 -0.1497
 3133TIP3    H130958   5.718   1.306   6.870 -2.0634 -0.5434 -0.0371
 3133TIP3    H230959   5.719   1.410   6.760  0.7160 -0.6302 -0.1666
 3134TIP3   OH230960   5.737   4.118   0.549  0.3894 -0.3634 -0.2712
 3134TIP3    H130961   5.801   4.102   0.618 -0.6216 -0.6852  0.6316
 3134TIP3    H230962   5.695   4.034   0.535 -1.3166  0.2705  0.7251
 3135TIP3   OH230963   1.443   1.780   0.470  0.2627 -0.1762  0.7419
 3135TIP3    H130964   1.516   1.836   0.498  1.2867 -0.4265 -1.2515
 3135TIP3    H230965   1.452   1.701   0.523  0.7893  0.2237  1.2719
 3136TIP3   OH230966   1.261   4.740   8.796 -0.1519  0.6310  0.4134
 3136TIP3    H130967   1.172   4.731   8.762  0.1427  2.0600 -0.8745
 3136TIP3    H230968   1.316   4.700   8.729  0.1946 -0.1239  1.1384
 3137TIP3   OH230969   3.909   3.303   8.652  0.0928 -0.6343 -0.4356
 3137TIP3    H130970   3.944   3.222   8.616 -0.3270 -0.8838 -0.2863
 3137TIP3    H230971   3.817   3.284   8.669 -0.0920 -0.0206 -0.7150
 3138TIP3   OH230972   5.476   5.699   1.020  0.1767  0.0675  0.2230
 3138TIP3    H130973   5.527   5.631   0.976  0.7949  1.9768 -2.2760
 3138TIP3    H230974   5.388   5.663   1.027  0.6007 -1.1920 -0.5879
 3139TIP3   OH230975   4.353   2.525   0.471 -0.1440 -0.2641 -0.1548
 3139TIP3    H130976   4.421   2.507   0.406  0.0784  0.8556 -0.2505
 3139TIP3    H230977   4.272   2.529   0.420  0.1022  1.1749 -0.4851
 3140TIP3   OH230978   3.761   1.977   0.672  0.2415 -0.3104  0.1046
 3140TIP3    H130979   3.683   1.961   0.725  0.7635 -0.8812  0.7168
 3140TIP3    H230980   3.758   1.910   0.603 -0.2359  0.1910 -0.3716
 3141TIP3   OH230981   3.637   5.460   0.764 -0.4057  0.3371 -0.4866
 3141TIP3    H130982   3.660   5.536   0.711  1.5400  2.3644  2.9102
 3141TIP3    H230983   3.714   5.403   0.759 -1.0357 -0.4695 -1.3745
 3142TIP3   OH230984   3.622   2.832   1.025  0.5746 -0.2890  0.4503
 3142TIP3    H130985   3.716   2.839   1.039  0.7532  0.7504 -0.9853
 3142TIP3    H230986   3.587   2.915   1.059  0.6966  1.0351 -2.3506
 3143TIP3   OH230987   4.473   4.447   2.359  0.1123 -0.0204 -0.9172
 3143TIP3    H130988   4.561   4.464   2.325  0.4163 -0.2031 -0.2446
 3143TIP3    H230989   4.478   4.358   2.394 -0.5365 -0.2835 -1.4890
 3144TIP3   OH230990   6.699   0.508   0.189  0.0569 -0.2684 -0.2088
 3144TIP3    H130991   6.632   0.555   0.140  0.0071 -0.5210 -0.3816
 3144TIP3    H230992   6.780   0.556   0.171  0.6090 -1.9838 -2.8634
 3145TIP3   OH230993   2.389   2.141   1.919 -0.0633 -0.1465 -0.5007
 3145TIP3    H130994   2.454   2.152   1.849 -0.0259 -0.5236 -0.5273
 3145TIP3    H230995   2.307   2.170   1.880  0.0048 -0.1084 -0.6172
 3146TIP3   OH230996   6.513   6.519   1.004  0.1426 -0.0059 -0.1344
 3146TIP3    H130997   6.507   6.430   1.039 -0.3990  1.0832  2.8376
 3146TIP3    H230998   6.563   6.509   0.923 -0.7227 -3.1061 -0.4195
 3147TIP3   OH230999   6.061   0.629   0.725 -0.0478 -0.6777  0.0012
 3147TIP3    H131000   6.097   0.541   0.717  0.9412 -0.2389 -0.6855
 3147TIP3    H231001   5.969   0.621   0.700 -0.1142 -1.6101  0.5212
 3148TIP3   OH231002   0.023   3.114   8.585 -0.5342 -0.0572 -0.0772
 3148TIP3    H131003   0.089   3.147   8.646 -2.0682 -0.4218  1.8892
 3148TIP3    H231004  -0.006   3.191   8.536  0.1081  0.4158  0.2788
 3149TIP3   OH231005   0.315   3.726   0.272 -0.0599 -0.2292 -0.3891
 3149TIP3    H131006   0.386   3.744   0.211  0.6336 -0.3326  0.3622
 3149TIP3    H231007   0.328   3.790   0.342 -1.0024  0.0690 -0.4781
 3150TIP3   OH231008   2.418   3.096   1.408 -0.0625 -0.0873  0.4251
 3150TIP3    H131009   2.324   3.094   1.392 -0.2008  1.4789  0.9369
 3150TIP3    H231010   2.450   3.167   1.352  0.9712 -1.1423 -0.3924
 3151TIP3   OH231011   3.557   0.978   6.685 -0.2982 -0.0078 -0.0512
 3151TIP3    H131012   3.492   1.004   6.620 -0.2341 -1.2822 -0.6668
 3151TIP3    H231013   3.589   0.893   6.654  0.7140 -0.0112  0.9371
 3152TIP3   OH231014   3.962   4.153   8.781 -0.2576  0.1388  0.2100
 3152TIP3    H131015   3.934   4.120   8.696 -2.8506 -0.3957  1.1477
 3152TIP3    H231016   3.979   4.246   8.767 -0.5750  0.0438 -0.9020
 3153TIP3   OH231017   3.851   0.144   2.534 -0.6276  0.4297  0.3461
 3153TIP3    H131018   3.925   0.086   2.550 -0.8715  0.3028  1.0101
 3153TIP3    H231019   3.890   0.221   2.494 -0.1995  0.1545  0.2225
 3154TIP3   OH231020   5.374   2.545   1.816 -0.5593  0.7688  0.4691
 3154TIP3    H131021   5.342   2.565   1.903 -1.2346 -1.4686  0.8057
 3154TIP3    H231022   5.311   2.585   1.756 -0.5402  1.6143  1.0036
 3155TIP3   OH231023   0.242   0.626   1.591 -0.4707 -0.2369  0.1023
 3155TIP3    H131024   0.235   0.609   1.497  1.2930  0.4579 -0.2007
 3155TIP3    H231025   0.156   0.603   1.627 -1.0658 -0.8234 -1.6234
 3156TIP3   OH231026   3.132   3.948   8.823 -0.2465 -0.2504 -0.0021
 3156TIP3    H131027   3.081   3.881   8.870 -0.1402 -1.4837 -1.5753
 3156TIP3    H231028   3.081   3.965   8.744  1.1797 -0.6329 -1.0327
 3157TIP3   OH231029   4.159   2.961   8.754  0.5441 -0.2789 -0.1792
 3157TIP3    H131030   4.145   3.025   8.683  0.2022 -1.2302 -0.9932
 3157TIP3    H231031   4.118   2.881   8.722  1.7966 -1.1919  0.4124
 3158TIP3   OH231032   3.642   1.436   0.287  0.3148 -0.6489  0.1205
 3158TIP3    H131033   3.731   1.469   0.299  1.2104 -1.6912 -2.7707
 3158TIP3    H231034   3.607   1.487   0.214 -1.1408 -0.8747  0.6355
 3159TIP3   OH231035   2.825   4.374   7.781  0.4712 -0.3074  0.0994
 3159TIP3    H131036   2.798   4.318   7.854 -0.6146 -0.0329 -0.0713
 3159TIP3    H231037   2.744   4.415   7.751  1.4163  2.5523  1.1762
 3160TIP3   OH231038   2.750   4.107   0.610 -0.2408 -0.3319  0.1649
 3160TIP3    H131039   2.780   4.023   0.576 -0.4744  0.2403 -1.5198
 3160TIP3    H231040   2.817   4.170   0.583 -1.3046  0.4221 -0.8160
 3161TIP3   OH231041   6.589   4.096   1.151 -0.2602 -0.5262 -0.4408
 3161TIP3    H131042   6.646   4.040   1.097 -0.4468  1.2237 -2.6364
 3161TIP3    H231043   6.545   4.036   1.210  2.0318 -2.2509 -0.3259
 3162TIP3   OH231044   0.918   0.866   1.998 -0.0067  0.3723 -0.3616
 3162TIP3    H131045   1.004   0.864   2.039  0.7389 -0.8298 -1.8566
 3162TIP3    H231046   0.917   0.949   1.950  0.6164  0.0819 -0.8943
 3163TIP3   OH231047   5.255   5.675   1.204  0.0668  0.4585  0.0615
 3163TIP3    H131048   5.343   5.700   1.176  0.1224  0.1472 -0.0443
 3163TIP3    H231049   5.255   5.688   1.299  0.4402 -0.1902  0.1544
 3164TIP3   OH231050   0.879   3.022   0.097 -0.6490  0.4110  0.5669
 3164TIP3    H131051   0.847   2.937   0.128 -0.4025  0.8979  2.2632
 3164TIP3    H231052   0.853   3.083   0.165  0.8975  1.3760  0.3438
 3165TIP3   OH231053   3.557   2.357   1.562  0.1238 -0.8569  0.1095
 3165TIP3    H131054   3.487   2.332   1.502 -1.0010 -0.5897  1.2854
 3165TIP3    H231055   3.513   2.384   1.642  1.2869  2.8039 -0.2569
 3166TIP3   OH231056   0.982   3.512   6.973  0.3640  0.5340 -0.4795
 3166TIP3    H131057   0.946   3.452   7.038  0.4247  0.0116 -0.9280
 3166TIP3    H231058   0.927   3.500   6.896 -0.0361  1.5379 -0.3627
 3167TIP3   OH231059   1.917   1.463   0.241  0.3939 -0.6832  0.4381
 3167TIP3    H131060   1.918   1.528   0.171 -2.6340 -1.3635 -0.3586
 3167TIP3    H231061   1.906   1.379   0.197  0.2665 -1.3225  1.6350
 3168TIP3   OH231062   2.074   4.417   0.804  0.1511  0.7968 -0.6799
 3168TIP3    H131063   2.074   4.478   0.731 -2.1340  1.6709 -0.0208
 3168TIP3    H231064   2.118   4.464   0.875  0.2779  0.8595 -0.8012
 3169TIP3   OH231065   2.114   0.336   0.175 -0.1578  0.5312  0.8948
 3169TIP3    H131066   2.159   0.379   0.248  1.7985 -0.0641  0.0925
 3169TIP3    H231067   2.184   0.306   0.117 -1.4329 -2.6522  0.7692
 3170TIP3   OH231068   4.577   2.451   7.972 -0.8099  0.1111  0.1185
 3170TIP3    H131069   4.546   2.492   7.892 -0.7178  1.4459  0.7381
 3170TIP3    H231070   4.663   2.415   7.949 -0.4791  1.0798 -0.2162
 3171TIP3   OH231071   6.574   4.853   0.594  0.0196 -0.0958 -0.2884
 3171TIP3    H131072   6.577   4.930   0.537 -0.8073 -0.0663 -0.3041
 3171TIP3    H231073   6.597   4.886   0.680 -2.3531  0.6052  0.1341
 3172TIP3   OH231074   0.305   4.421   8.487  0.4487 -0.0048 -0.0077
 3172TIP3    H131075   0.328   4.448   8.575 -0.9083  0.1730  0.3133
 3172TIP3    H231076   0.218   4.383   8.495  0.2900  0.0276 -1.2699
 3173TIP3   OH231077   2.820   3.743   0.352 -0.1526 -0.2786  0.2211
 3173TIP3    H131078   2.732   3.752   0.315 -0.7681 -0.9672  1.4691
 3173TIP3    H231079   2.837   3.649   0.352  0.4715 -0.1678  0.2300
 3174TIP3   OH231080   5.815   0.058   6.959 -0.2950  0.1938 -0.5583
 3174TIP3    H131081   5.775   0.092   6.879  0.1519 -0.1430 -0.9331
 3174TIP3    H231082   5.836  -0.033   6.938  0.5557  0.3318 -0.3278
 3175TIP3   OH231083   6.282   2.200   1.732  0.9628  0.3443  0.2023
 3175TIP3    H131084   6.206   2.244   1.770 -0.3989 -1.2098 -0.5944
 3175TIP3    H231085   6.324   2.155   1.806  1.2307  1.3354  0.6710
 3176TIP3   OH231086   0.265   1.857   7.832 -0.0257  0.1158  0.3628
 3176TIP3    H131087   0.331   1.914   7.873 -2.0028  1.7783  1.4602
 3176TIP3    H231088   0.263   1.779   7.887  0.4404  0.4157  0.8103
 3177TIP3   OH231089   0.004   4.468   1.953 -0.5051 -0.4526 -0.7009
 3177TIP3    H131090  -0.073   4.524   1.965 -0.5440 -0.6465  0.0218
 3177TIP3    H231091  -0.032   4.381   1.936 -0.4439 -0.3746 -1.2276
 3178TIP3   OH231092   2.908   1.323   7.155 -0.4807 -0.2609 -0.1559
 3178TIP3    H131093   2.961   1.258   7.110  1.4199  1.0862  0.0019
 3178TIP3    H231094   2.932   1.406   7.113 -1.8664  0.5120  0.4992
 3179TIP3   OH231095   5.596   6.225   0.357  0.3764  0.3220  0.4316
 3179TIP3    H131096   5.517   6.177   0.381  0.3863 -0.1167 -0.3999
 3179TIP3    H231097   5.666   6.161   0.366 -0.0662 -1.4574 -5.1671
 3180TIP3   OH231098   2.347   2.237   0.788  0.2161 -0.0697  0.5782
 3180TIP3    H131099   2.439   2.231   0.763 -0.1727  0.1440 -0.9963
 3180TIP3    H231100   2.303   2.170   0.736 -1.1383  2.6773 -2.1225
 3181TIP3   OH231101   1.181   5.389   6.530  0.1571 -0.6202  0.6341
 3181TIP3    H131102   1.132   5.416   6.453 -0.2030 -1.1160  0.6882
 3181TIP3    H231103   1.175   5.294   6.530  2.8029 -0.8796 -0.4886
 3182TIP3   OH231104   5.584   0.144   1.694 -0.0704 -0.6139 -1.0140
 3182TIP3    H131105   5.581   0.237   1.717  0.0118 -0.9815  0.5989
 3182TIP3    H231106   5.521   0.135   1.622 -0.1281  0.6763 -1.1412
 3183TIP3   OH231107   1.372   5.972   8.693 -0.1629  0.2171 -0.1242
 3183TIP3    H131108   1.404   5.900   8.638 -0.1715 -1.2799  1.7128
 3183TIP3    H231109   1.450   6.002   8.740 -0.6367 -0.6857  1.3328
 3184TIP3   OH231110   6.257   4.003   0.202  0.3241 -0.0443  0.1780
 3184TIP3    H131111   6.328   3.991   0.266 -0.7678 -0.3118  1.3809
 3184TIP3    H231112   6.251   4.097   0.190 -0.8219  0.1909  2.1280
 3185TIP3   OH231113   0.914   0.446   7.097  0.6138  0.2351 -0.4484
 3185TIP3    H131114   0.972   0.491   7.159  1.6198 -2.2864  0.5894
 3185TIP3    H231115   0.973   0.416   7.028  0.0623 -0.0060 -0.8184
 3186TIP3   OH231116   5.847   5.663   8.580 -0.1145  1.0418 -0.0755
 3186TIP3    H131117   5.908   5.728   8.546  1.6743  0.1366  1.2704
 3186TIP3    H231118   5.902   5.590   8.609 -1.9838 -0.6891 -0.6480
 3187TIP3   OH231119   3.493   4.829   7.535  0.5895  0.0187  0.0511
 3187TIP3    H131120   3.479   4.735   7.543  2.4743 -0.3675 -0.5130
 3187TIP3    H231121   3.530   4.841   7.447  3.1550  0.8295  1.1225
 3188TIP3   OH231122   4.978   3.525   1.235  0.4344  0.1432 -0.3153
 3188TIP3    H131123   4.917   3.597   1.253  1.5383  0.7834  1.0592
 3188TIP3    H231124   4.935   3.474   1.166 -1.8866  0.2834  0.9057
 3189TIP3   OH231125   1.288   4.151   8.180 -0.3987  0.4330 -0.5423
 3189TIP3    H131126   1.204   4.174   8.141  0.1466  1.0149 -1.4123
 3189TIP3    H231127   1.280   4.058   8.201 -1.4323  0.6072 -0.1404
 3190TIP3   OH231128   0.462   1.402   0.524 -0.1289  0.3707  0.6047
 3190TIP3    H131129   0.405   1.346   0.577  1.1988  1.3931  3.3135
 3190TIP3    H231130   0.404   1.469   0.488 -0.8585  0.8237  2.4873
 3191TIP3   OH231131   3.702   4.171   6.616  0.0800  0.6833 -0.0384
 3191TIP3    H131132   3.680   4.148   6.525  0.2331  1.4022 -0.2627
 3191TIP3    H231133   3.621   4.206   6.652 -0.8646 -2.3370  1.0560
 3192TIP3   OH231134   0.498   4.068   0.993 -0.4513  0.2428 -0.3923
 3192TIP3    H131135   0.524   4.026   1.075 -1.9144 -0.3966 -0.2250
 3192TIP3    H231136   0.557   4.144   0.985  0.9643 -0.7502  0.2575
 3193TIP3   OH231137   0.613   2.832   7.194  0.2559 -0.0638 -0.7364
 3193TIP3    H131138   0.655   2.915   7.173  1.7199 -0.5951 -0.0586
 3193TIP3    H231139   0.674   2.788   7.253 -0.3087 -1.7785 -1.3451
 3194TIP3   OH231140   2.165   4.881   7.608  0.5023  0.1756 -0.2470
 3194TIP3    H131141   2.183   4.940   7.535 -1.2993 -0.4832 -1.2815
 3194TIP3    H231142   2.198   4.796   7.579 -0.9822 -0.2734 -0.6949
 3195TIP3   OH231143   5.821   5.830   7.289  0.0065  0.5180  0.1754
 3195TIP3    H131144   5.814   5.735   7.298 -1.2575  0.7048  1.5034
 3195TIP3    H231145   5.905   5.852   7.328  0.8414 -0.1527 -1.1853
 3196TIP3   OH231146   5.569   3.652   2.068  0.6061  0.3418  0.4691
 3196TIP3    H131147   5.501   3.687   2.126 -1.5748 -0.7095 -1.2626
 3196TIP3    H231148   5.574   3.715   1.996 -0.4545 -0.7957 -0.6637
 3197TIP3   OH231149   4.674   0.746   1.671  0.1454 -0.4496 -0.0447
 3197TIP3    H131150   4.670   0.665   1.621  0.8058 -0.9645  0.7125
 3197TIP3    H231151   4.731   0.726   1.745  0.2771  0.6877  0.1872
 3198TIP3   OH231152   0.059   3.437   0.629 -0.6673 -0.4157  0.2457
 3198TIP3    H131153   0.092   3.504   0.568 -0.9215 -0.6145 -0.1164
 3198TIP3    H231154   0.109   3.451   0.709 -0.1674 -0.2942 -0.0835
 3199TIP3   OH231155   5.597   1.000   8.647  0.6595  0.9748  0.4981
 3199TIP3    H131156   5.683   1.016   8.686  0.9160 -0.8194  0.7320
 3199TIP3    H231157   5.615   0.958   8.563  0.0183 -0.8894  1.2574
 3200TIP3   OH231158   5.235   2.767   6.418  0.1722  0.2840 -0.1301
 3200TIP3    H131159   5.144   2.789   6.439  0.1240  0.0956 -0.1370
 3200TIP3    H231160   5.284   2.846   6.439  0.2683 -0.1955  1.6310
 3201TIP3   OH231161   2.190   3.779   1.491  0.0580  0.3000 -0.3817
 3201TIP3    H131162   2.161   3.689   1.481 -0.2873  0.6172 -2.9537
 3201TIP3    H231163   2.285   3.775   1.480 -0.1472  0.4168 -2.9598
 3202TIP3   OH231164   3.521   2.914   2.513  0.3547 -0.6037 -0.1701
 3202TIP3    H131165   3.545   3.006   2.497 -0.3410 -0.5815 -1.1607
 3202TIP3    H231166   3.603   2.873   2.542  1.0168  0.0134 -1.1069
 3203TIP3   OH231167   1.632   1.190   1.644 -0.6576  0.4539 -0.2161
 3203TIP3    H131168   1.676   1.153   1.567 -1.4512  0.8625 -0.8714
 3203TIP3    H231169   1.636   1.284   1.632 -3.8421  0.5139 -1.5566
 3204TIP3   OH231170   4.114   3.506   6.390  0.6126  0.0199  0.0062
 3204TIP3    H131171   4.070   3.422   6.384 -1.3721  0.6298  3.5866
 3204TIP3    H231172   4.197   3.487   6.433  0.0409 -0.0973  1.0741
 3205TIP3   OH231173   2.169   1.808   0.948 -0.0738 -0.0113  0.1879
 3205TIP3    H131174   2.104   1.775   1.011 -0.8330 -0.5089 -0.8291
 3205TIP3    H231175   2.253   1.794   0.991 -0.4324 -2.2530  0.2882
 3206TIP3   OH231176   1.178   0.885   0.148 -1.2331 -0.5310 -0.0679
 3206TIP3    H131177   1.269   0.874   0.174 -1.1170  0.4460 -0.0360
 3206TIP3    H231178   1.173   0.846   0.061 -0.6710 -0.1397 -0.2766
 3207TIP3   OH231179   5.434   0.050   8.299 -0.0490 -0.4952  0.1110
 3207TIP3    H131180   5.503   0.098   8.346 -0.5879  0.5279 -0.1078
 3207TIP3    H231181   5.353   0.091   8.328 -0.5526 -1.4675  0.1097
 3208TIP3   OH231182   5.518   3.809   0.916  0.1047 -0.2504  0.2135
 3208TIP3    H131183   5.484   3.720   0.905  0.5736 -0.6260  1.5682
 3208TIP3    H231184   5.609   3.803   0.888  0.1121 -0.1816  0.2245
 3209TIP3   OH231185   0.577   3.034   7.995  0.2607 -0.0449  1.1115
 3209TIP3    H131186   0.620   2.950   7.980 -1.2865 -0.4978 -1.4035
 3209TIP3    H231187   0.631   3.097   7.949  0.8059  0.1984  2.0527
 3210TIP3   OH231188   0.658   4.336   7.498 -0.2906 -0.1620  0.3566
 3210TIP3    H131189   0.679   4.385   7.577 -2.2101  0.6043  0.4296
 3210TIP3    H231190   0.622   4.254   7.529 -1.6233  0.3883  0.3183
 3211TIP3   OH231191   5.438   1.880   0.041 -0.9940  0.3357 -0.1801
 3211TIP3    H131192   5.503   1.951   0.047  1.4962 -1.8683  1.6756
 3211TIP3    H231193   5.439   1.855  -0.051  0.2953  0.8158 -0.3205
 3212TIP3   OH231194   5.848   3.759   1.424 -0.0612  0.2400 -0.4810
 3212TIP3    H131195   5.803   3.690   1.376 -1.0424  0.7381 -0.3095
 3212TIP3    H231196   5.933   3.722   1.447 -0.5518 -0.8766 -0.4341
 3213TIP3   OH231197   5.331   3.260   2.039 -0.2477 -0.1940  0.2145
 3213TIP3    H131198   5.362   3.320   1.972  2.6688  0.0885  1.6513
 3213TIP3    H231199   5.318   3.177   1.993  0.2288  0.3570 -0.9464
 3214TIP3   OH231200   3.790   6.538   7.879 -0.4769  0.1206  0.0412
 3214TIP3    H131201   3.763   6.611   7.823  0.2019  0.3217 -0.0288
 3214TIP3    H231202   3.858   6.493   7.829 -2.1713 -1.6989 -0.7538
 3215TIP3   OH231203   4.294   4.939   0.469  0.5939  0.4158  0.6763
 3215TIP3    H131204   4.236   4.864   0.479 -0.6573  1.5360  2.6087
 3215TIP3    H231205   4.382   4.904   0.480  0.0134 -0.7280  1.9371
 3216TIP3   OH231206   5.029   1.621   2.462 -0.2830  0.1374  0.7568
 3216TIP3    H131207   4.997   1.678   2.392  0.0033 -1.2678 -0.5612
 3216TIP3    H231208   4.950   1.584   2.501 -0.5421  2.2499  2.4050
 3217TIP3   OH231209   1.885   0.006   8.644  0.5184 -0.4979 -0.0635
 3217TIP3    H131210   1.854   0.091   8.611  0.6749 -0.7382 -0.8727
 3217TIP3    H231211   1.831  -0.011   8.721  0.5167  0.3583  0.1389
 3218TIP3   OH231212   4.928   4.700   1.448  0.2283 -0.5030  0.2706
 3218TIP3    H131213   4.889   4.613   1.441  0.8314 -0.7492 -0.0937
 3218TIP3    H231214   5.023   4.684   1.447  0.5999  0.4040 -4.8918
 3219TIP3   OH231215   4.385   4.366   8.574  0.0900  0.4699  0.4731
 3219TIP3    H131216   4.376   4.274   8.598  2.6686  0.0715  0.1964
 3219TIP3    H231217   4.296   4.393   8.551 -0.7165 -1.9971  0.3564
 3220TIP3   OH231218   5.889   5.756   7.019 -0.3066  0.1152 -0.5655
 3220TIP3    H131219   5.975   5.717   7.034 -1.2775 -1.7240  0.6009
 3220TIP3    H231220   5.855   5.773   7.106 -1.2605  0.4908 -0.9967
 3221TIP3   OH231221   2.504   3.900   1.008  0.2657 -0.1265  0.0432
 3221TIP3    H131222   2.409   3.914   1.014 -0.2960 -2.6536 -1.3435
 3221TIP3    H231223   2.530   3.949   0.930 -0.1142 -0.2616 -0.1746
 3222TIP3   OH231224   2.204   2.599   7.267 -0.3391 -0.0290 -0.4294
 3222TIP3    H131225   2.260   2.672   7.241 -1.1273  0.3496 -1.1085
 3222TIP3    H231226   2.174   2.561   7.185 -1.1773 -0.1476 -0.0799
 3223TIP3   OH231227   4.358   1.542   1.551  0.7540  0.6198 -0.2855
 3223TIP3    H131228   4.381   1.453   1.576 -2.0904  0.0679  0.7174
 3223TIP3    H231229   4.328   1.534   1.460 -1.2034  0.1607  0.3655
 3224TIP3   OH231230   4.243   3.034   0.556 -0.1608 -0.4309 -0.8425
 3224TIP3    H131231   4.210   3.117   0.591 -2.0658 -0.0771 -3.1790
 3224TIP3    H231232   4.308   3.060   0.490  1.1565 -0.9489  0.2097
 3225TIP3   OH231233   1.209   6.457   8.393 -0.0550  0.6197 -0.4519
 3225TIP3    H131234   1.196   6.423   8.305 -2.4301  0.3004 -0.0646
 3225TIP3    H231235   1.287   6.412   8.426 -1.7873 -2.9767 -0.7250
 3226TIP3   OH231236   0.227   4.216   7.998 -0.4152 -0.4021 -0.4396
 3226TIP3    H131237   0.309   4.229   7.950 -0.5199  1.3199 -0.2163
 3226TIP3    H231238   0.159   4.248   7.938 -0.7741 -0.3926 -0.0330
 3227TIP3   OH231239   3.406   5.254   8.084 -0.1040 -0.5213 -0.8043
 3227TIP3    H131240   3.350   5.323   8.049  0.9746  0.5118 -0.5600
 3227TIP3    H231241   3.456   5.224   8.008 -0.2172 -0.6909 -0.8120
 3228TIP3   OH231242   3.216   0.355   6.762  0.1411  0.2267 -0.3285
 3228TIP3    H131243   3.201   0.402   6.680  0.3210 -0.5882 -0.8401
 3228TIP3    H231244   3.260   0.419   6.818 -1.1074  1.2031 -0.4123
 3229TIP3   OH231245   5.960   1.280   7.071  0.4824  0.2490  0.4266
 3229TIP3    H131246   5.991   1.228   7.146 -1.0051  1.1052  1.6914
 3229TIP3    H231247   5.884   1.328   7.105  0.4758  1.5604 -1.3270
 3230TIP3   OH231248   1.801   6.592   0.346  0.1620 -0.2303 -0.6316
 3230TIP3    H131249   1.799   6.626   0.435  0.2790  0.1317 -0.7661
 3230TIP3    H231250   1.792   6.497   0.356  0.3717 -0.2071 -0.2285
 3231TIP3   OH231251   0.732   1.796   2.454  0.6500 -0.0854  0.0621
 3231TIP3    H131252   0.821   1.776   2.483  0.3238 -0.8841  0.5400
 3231TIP3    H231253   0.706   1.719   2.402  0.4209  0.3721 -0.5167
 3232TIP3   OH231254   3.465   0.326   7.889 -0.0123  0.1234  0.1679
 3232TIP3    H131255   3.489   0.401   7.834 -0.8999  0.1994 -0.1290
 3232TIP3    H231256   3.519   0.336   7.968  1.7221 -0.3022 -0.9035
 3233TIP3   OH231257   2.706   2.126   1.281  0.2052 -0.3338  0.5199
 3233TIP3    H131258   2.790   2.080   1.284  1.2150  1.4311  1.3459
 3233TIP3    H231259   2.711   2.179   1.202  0.1748  0.2704  0.9129
 3234TIP3   OH231260   0.761   2.226   2.042  0.2145 -0.4172 -0.1108
 3234TIP3    H131261   0.823   2.285   2.086 -0.1015 -0.4619  0.4051
 3234TIP3    H231262   0.675   2.262   2.063  0.0747  0.0824 -1.4498
 3235TIP3   OH231263   4.988   1.739   7.501 -0.0395  0.0583 -0.1858
 3235TIP3    H131264   5.028   1.792   7.570  1.7434 -0.3068 -0.8740
 3235TIP3    H231265   4.970   1.655   7.543  0.6774 -0.0328 -0.0359
 3236TIP3   OH231266   0.020   0.577   7.770  0.0153  0.0765  0.2818
 3236TIP3    H131267   0.058   0.617   7.692 -1.7317  0.3908 -0.4661
 3236TIP3    H231268   0.087   0.585   7.837  0.7353  1.8290 -0.5904
 3237TIP3   OH231269   2.133   5.083   0.754  0.5845  0.3921  0.3902
 3237TIP3    H131270   2.054   5.120   0.796  1.2571  0.1157  1.9695
 3237TIP3    H231271   2.162   5.014   0.814  2.1645  0.6448 -0.0451
 3238TIP3   OH231272   6.293   1.313   6.849 -0.1734  0.0115  0.4178
 3238TIP3    H131273   6.317   1.271   6.932 -0.1185 -2.2182 -0.6648
 3238TIP3    H231274   6.372   1.358   6.822  0.9337 -2.0665 -0.0248
 3239TIP3   OH231275   3.905   5.589   0.852 -0.3953 -0.2685 -0.4110
 3239TIP3    H131276   3.893   5.496   0.830  1.3433 -0.6257 -0.0029
 3239TIP3    H231277   3.910   5.591   0.947  0.4177  0.1249 -0.4557
 3240TIP3   OH231278   1.261   0.888   1.370 -0.1602 -0.3346 -0.3367
 3240TIP3    H131279   1.355   0.896   1.361  0.1055 -0.3395  1.7929
 3240TIP3    H231280   1.245   0.794   1.381 -0.1402 -0.1818  1.2709
 3241TIP3   OH231281   5.078   4.332   1.669  0.2034  0.1019 -0.3332
 3241TIP3    H131282   5.137   4.258   1.657  0.3102  0.5292 -2.8358
 3241TIP3    H231283   5.068   4.339   1.764  1.3059 -2.2149  0.0215
 3242TIP3   OH231284   2.797   2.313   6.651  0.3939  0.1135  0.0345
 3242TIP3    H131285   2.717   2.322   6.702 -0.0639  0.5316 -0.7376
 3242TIP3    H231286   2.778   2.244   6.588 -0.1440  1.6396 -1.5483
 3243TIP3   OH231287   4.315   0.011   2.497 -0.0213  0.1254 -0.2808
 3243TIP3    H131288   4.405   0.032   2.472  0.3815  0.4446  1.3158
 3243TIP3    H231289   4.302  -0.080   2.470  0.3024  0.4839 -1.7325
 3244TIP3   OH231290   3.202   5.374   1.259 -0.4119 -0.1240  0.7291
 3244TIP3    H131291   3.279   5.431   1.265 -0.2363 -0.3447  0.6003
 3244TIP3    H231292   3.239   5.286   1.246 -0.6804 -0.2703  0.9648
 3245TIP3   OH231293   3.143   3.067   0.638  0.5254  0.0832  0.1006
 3245TIP3    H131294   3.048   3.056   0.637  0.5867 -0.5073  0.6030
 3245TIP3    H231295   3.175   3.000   0.577  0.6885 -0.4644  0.7787
 3246TIP3   OH231296   3.126   5.756   7.175 -0.7040 -0.1162 -0.0564
 3246TIP3    H131297   3.073   5.822   7.129  1.4858 -0.3593 -3.2201
 3246TIP3    H231298   3.145   5.690   7.109  0.8782 -1.6610  1.8306
 3247TIP3   OH231299   4.746   4.409   1.579 -0.1573 -0.0588  0.3466
 3247TIP3    H131300   4.681   4.477   1.597  0.7100  0.6432  0.9196
 3247TIP3    H231301   4.796   4.401   1.660  2.3743  1.5278 -0.9263
 3248TIP3   OH231302   3.587   3.335   0.035  0.4891  0.3481  0.3341
 3248TIP3    H131303   3.569   3.302  -0.053  0.3921  0.9258  0.1333
 3248TIP3    H231304   3.565   3.262   0.093 -0.6485  0.3833 -0.0325
 3249TIP3   OH231305   2.355   1.749   7.830 -0.2743 -0.0508 -0.3283
 3249TIP3    H131306   2.412   1.734   7.755  0.8004  0.0573  0.4558
 3249TIP3    H231307   2.318   1.662   7.850  1.5779 -0.6400  0.7149
 3250TIP3   OH231308   0.864   5.393   0.014  0.7170 -0.6047  0.2711
 3250TIP3    H131309   0.854   5.324  -0.051  0.4356 -0.1228 -0.2002
 3250TIP3    H231310   0.803   5.461  -0.013 -0.6470 -1.0786  1.9820
 3251TIP3   OH231311   1.728   5.501   1.853  0.1663  0.2938 -0.2080
 3251TIP3    H131312   1.658   5.439   1.831  1.4493 -1.4254  0.2995
 3251TIP3    H231313   1.796   5.484   1.788  0.6356  1.0243  0.0801
 3252TIP3   OH231314   1.964   1.682   7.301  0.2373 -0.5863 -0.7849
 3252TIP3    H131315   1.904   1.757   7.297  1.3950  0.4502  0.3886
 3252TIP3    H231316   1.909   1.610   7.333 -0.4147  0.3384  0.2836
 3253TIP3   OH231317   3.161   5.086   8.388  0.2038  0.0924 -0.2626
 3253TIP3    H131318   3.192   5.176   8.379 -0.9104  0.6711  1.2452
 3253TIP3    H231319   3.240   5.032   8.384  0.9194  1.1489 -0.8080
 3254TIP3   OH231320   4.379   5.188   1.390  0.0202  0.0358 -0.7423
 3254TIP3    H131321   4.337   5.271   1.368  0.6701  0.2762 -1.0909
 3254TIP3    H231322   4.388   5.143   1.306 -2.3281 -1.3684 -0.3317
 3255TIP3   OH231323   1.042   4.543   0.741  0.4621  0.0151 -0.0153
 3255TIP3    H131324   0.965   4.513   0.691  0.2176  1.1595 -0.3571
 3255TIP3    H231325   1.060   4.471   0.801 -0.0376 -0.8540 -0.8628
 3256TIP3   OH231326   2.845   5.893   1.546  0.0311 -0.2607 -0.5479
 3256TIP3    H131327   2.785   5.819   1.543  0.7245 -1.0043  1.5222
 3256TIP3    H231328   2.803   5.956   1.605  0.7407 -0.2988  0.0148
 3257TIP3   OH231329   1.558   3.194   1.284 -0.1698 -0.0561  0.2451
 3257TIP3    H131330   1.498   3.262   1.253 -0.1295 -0.4141 -0.6534
 3257TIP3    H231331   1.644   3.235   1.284 -0.0575 -0.2569 -0.8539
 3258TIP3   OH231332   0.880   2.403   1.093  0.5526 -0.2179  0.2223
 3258TIP3    H131333   0.852   2.313   1.079  1.5081 -0.7805  1.6573
 3258TIP3    H231334   0.900   2.407   1.187 -0.8755  1.8996  0.5010
 3259TIP3   OH231335   0.776   4.731   8.268  0.1419  0.0708 -0.1859
 3259TIP3    H131336   0.845   4.792   8.295  1.0118 -1.2078  0.5421
 3259TIP3    H231337   0.740   4.697   8.349 -0.5498 -0.1695 -0.5841
 3260TIP3   OH231338   2.948   1.541   0.585 -0.0590  0.5234 -0.8541
 3260TIP3    H131339   3.042   1.531   0.600 -0.0741  0.5403 -0.7491
 3260TIP3    H231340   2.933   1.507   0.497 -0.0843 -0.1855 -0.5749
 3261TIP3   OH231341   5.395   3.956   0.537  0.4476 -1.1437 -0.0590
 3261TIP3    H131342   5.362   3.926   0.621 -1.4845 -0.6887 -0.6102
 3261TIP3    H231343   5.469   3.898   0.518 -0.3913 -2.6062  0.9638
 3262TIP3   OH231344   3.343   2.584   0.375  0.0867  0.0583  0.3238
 3262TIP3    H131345   3.272   2.522   0.360 -0.4990  0.7772  0.0728
 3262TIP3    H231346   3.406   2.566   0.305  0.3799 -0.8878  0.8144
 3263TIP3   OH231347   6.400   3.897   7.821  0.3886  0.5524 -0.0659
 3263TIP3    H131348   6.487   3.927   7.796  0.8970 -1.0577 -0.3373
 3263TIP3    H231349   6.346   3.912   7.743  0.7012  0.5306 -0.2891
 3264TIP3   OH231350   2.319   2.211   2.482 -0.3970 -0.1851  0.5483
 3264TIP3    H131351   2.346   2.302   2.470 -0.0915 -0.5447 -2.1883
 3264TIP3    H231352   2.228   2.209   2.452 -0.3396 -0.7943  0.3988
 3265TIP3   OH231353   1.830   5.564   7.865  0.0086  0.2315  0.3333
 3265TIP3    H131354   1.752   5.604   7.902 -1.1529 -1.1793 -0.4698
 3265TIP3    H231355   1.820   5.470   7.884  0.8359 -0.1431 -0.9154
 3266TIP3   OH231356   3.354   3.755   7.590 -0.6535 -0.1038  0.5020
 3266TIP3    H131357   3.363   3.662   7.569  1.5558  0.5607 -2.2133
 3266TIP3    H231358   3.423   3.772   7.654 -1.4114 -0.3978  1.4159
 3267TIP3   OH231359   0.421   2.779   8.443  0.2767  0.5477  0.2270
 3267TIP3    H131360   0.458   2.864   8.420 -1.3886  0.9601 -1.1691
 3267TIP3    H231361   0.387   2.792   8.532 -1.4030  1.9019 -0.5539
 3268TIP3   OH231362   5.083   0.480   0.040 -0.2572  0.5726 -0.1369
 3268TIP3    H131363   5.105   0.542   0.110  0.7669  1.0238 -0.8224
 3268TIP3    H231364   5.116   0.396   0.072 -2.6335  0.0983  1.2824
 3269TIP3   OH231365   0.495   3.539   7.339 -0.1039  0.1885 -0.1255
 3269TIP3    H131366   0.534   3.454   7.318 -0.6788 -0.1879  0.2960
 3269TIP3    H231367   0.402   3.520   7.351 -0.2720  0.9187 -0.2366
 3270TIP3   OH231368   1.099   2.974   8.802  0.5811  0.0269  0.1698
 3270TIP3    H131369   1.157   3.042   8.835  0.1572  0.5407 -0.1329
 3270TIP3    H231370   1.018   2.984   8.852  0.6625 -0.5237  0.4147
 3271TIP3   OH231371   3.808   5.320   7.070 -0.0637  0.3264 -0.3515
 3271TIP3    H131372   3.726   5.315   7.118  0.8370  0.2507  1.2571
 3271TIP3    H231373   3.834   5.229   7.055 -0.2057  0.3499 -0.7708
 3272TIP3   OH231374   3.617   1.429   8.742  0.8396 -0.0442  0.2378
 3272TIP3    H131375   3.633   1.509   8.692  0.3625  0.2703  0.5702
 3272TIP3    H231376   3.619   1.359   8.677 -0.5446  0.4431 -0.3644
 3273TIP3   OH231377   2.944   1.389   1.538  0.1540  0.6219  0.1614
 3273TIP3    H131378   2.858   1.402   1.498 -0.1536 -0.7141  0.3336
 3273TIP3    H231379   3.005   1.427   1.475 -0.4345 -0.0730 -0.8549
 3274TIP3   OH231380   4.635   4.302   0.070  0.1371  0.5178 -0.4477
 3274TIP3    H131381   4.719   4.341   0.092 -0.2890  1.0183  0.3409
 3274TIP3    H231382   4.577   4.326   0.143 -0.0829 -1.8229  0.2339
 3275TIP3   OH231383   3.611   3.562   1.924 -0.1593 -0.1447 -0.3401
 3275TIP3    H131384   3.615   3.606   2.009 -0.1925 -2.6311  1.0139
 3275TIP3    H231385   3.702   3.553   1.897 -0.1865  2.6209 -1.7558
 3276TIP3   OH231386   4.516   5.404   1.551 -0.4102  0.0794 -0.0896
 3276TIP3    H131387   4.529   5.392   1.457  1.7719  2.1371 -0.1445
 3276TIP3    H231388   4.522   5.316   1.588  0.2107 -0.6034 -1.7328
 3277TIP3   OH231389   5.696   1.265   1.185 -0.5352 -0.4016  0.4279
 3277TIP3    H131390   5.663   1.330   1.122 -0.5082 -1.4997 -0.7532
 3277TIP3    H231391   5.617   1.232   1.228 -0.5822  0.1313  0.7606
 3278TIP3   OH231392   4.299   6.646   8.241  0.0423 -0.3454  0.1872
 3278TIP3    H131393   4.240   6.596   8.185 -0.0643 -0.4963  0.4299
 3278TIP3    H231394   4.245   6.671   8.316  0.9420 -2.9042  1.8297
 3279TIP3   OH231395   4.075   2.301   0.563 -0.1813  0.2789 -0.8420
 3279TIP3    H131396   4.157   2.278   0.520  1.9113  0.1648  2.8181
 3279TIP3    H231397   4.026   2.219   0.567  1.7859 -0.9070  1.1973
 3280TIP3   OH231398   4.421   1.945   0.267 -0.3783 -0.4996  0.3164
 3280TIP3    H131399   4.364   1.968   0.193 -0.6929 -1.1280  0.3588
 3280TIP3    H231400   4.388   1.997   0.340  0.0243  0.2330 -0.0157
 3281TIP3   OH231401   5.648   1.643   7.209 -0.2905  0.3239  0.4650
 3281TIP3    H131402   5.674   1.558   7.175 -2.3298  0.2423 -1.0245
 3281TIP3    H231403   5.585   1.624   7.278 -0.2515  0.6335  0.5903
 3282TIP3   OH231404   5.019   0.563   7.178 -0.2672  0.1215  0.6261
 3282TIP3    H131405   5.041   0.565   7.085  1.3323 -1.3271  0.9289
 3282TIP3    H231406   4.923   0.554   7.179 -0.2615 -0.4197 -0.8892
 3283TIP3   OH231407   1.969   1.860   7.873  0.0893  0.0137  0.2489
 3283TIP3    H131408   1.944   1.769   7.858 -0.2907  0.1458  0.0626
 3283TIP3    H231409   1.957   1.902   7.788 -0.2318  0.3501  0.4608
 3284TIP3   OH231410   3.409   0.594   2.018  0.1314  0.1070 -0.2997
 3284TIP3    H131411   3.384   0.528   1.953 -1.4186 -0.6917  1.0209
 3284TIP3    H231412   3.495   0.566   2.048  0.5128  0.0329 -1.4149
 3285TIP3   OH231413   3.765   1.868   1.916  0.2431 -0.2645 -0.3314
 3285TIP3    H131414   3.756   1.794   1.977  0.4928  1.7298  2.3086
 3285TIP3    H231415   3.857   1.894   1.924 -0.1421  1.1088 -0.2318
 3286TIP3   OH231416   4.100   6.062   1.553 -0.7573  0.0742  0.0851
 3286TIP3    H131417   4.013   6.066   1.594 -0.3255 -0.9372  1.1671
 3286TIP3    H231418   4.154   6.015   1.617  0.2984 -0.3600 -1.0895
 3287TIP3   OH231419   1.962   5.342   6.449 -0.0026 -0.2773  0.0908
 3287TIP3    H131420   1.868   5.328   6.439 -0.6284  2.8827  0.4809
 3287TIP3    H231421   1.983   5.411   6.386  1.5510  0.6815  1.5603
 3288TIP3   OH231422   4.378   5.556   2.551  0.3557  0.4705  0.6880
 3288TIP3    H131423   4.447   5.530   2.490  1.3856 -1.9433  2.7232
 3288TIP3    H231424   4.425   5.588   2.628 -0.8973  2.3981  0.7120
 3289TIP3   OH231425   1.666   3.120   8.824 -0.4508 -0.2206 -0.1995
 3289TIP3    H131426   1.661   3.118   8.729 -0.7347 -1.2348 -0.1779
 3289TIP3    H231427   1.607   3.050   8.853 -0.7821  0.4276  0.7433
 3290TIP3   OH231428   2.018   3.648   7.643 -0.0803  0.2671  0.1812
 3290TIP3    H131429   2.077   3.699   7.588  0.1735 -0.5030 -0.2700
 3290TIP3    H231430   1.931   3.682   7.622  0.0738  0.4192 -0.2203
 3291TIP3   OH231431   3.231   4.327   8.210 -0.0044  0.0364 -0.1057
 3291TIP3    H131432   3.179   4.325   8.129 -1.5197  1.1203  0.7974
 3291TIP3    H231433   3.257   4.418   8.220 -2.6953  0.6888  2.3004
 3292TIP3   OH231434   2.141   2.598   1.390 -0.1731  0.0566  0.0609
 3292TIP3    H131435   2.186   2.524   1.430  1.9785  0.9070 -0.6694
 3292TIP3    H231436   2.195   2.674   1.411  0.2684  0.7643 -3.0327
 3293TIP3   OH231437   4.382   0.917   2.285  0.1061  0.3065 -0.2811
 3293TIP3    H131438   4.370   0.822   2.294 -0.1810  0.4624  1.2102
 3293TIP3    H231439   4.294   0.953   2.284  0.2219  0.5897 -0.5143
 3294TIP3   OH231440   2.212   2.325   7.673  0.3627  0.4916  0.1095
 3294TIP3    H131441   2.120   2.297   7.678 -0.0766  1.8587  0.0630
 3294TIP3    H231442   2.254   2.279   7.746 -0.1845 -0.6906 -0.2821
 3295TIP3   OH231443   1.161   2.634   1.560  0.1113 -0.3784  0.3624
 3295TIP3    H131444   1.210   2.559   1.528  0.4588  0.8538 -2.2170
 3295TIP3    H231445   1.227   2.704   1.566 -0.3964  0.0265  1.7826
 3296TIP3   OH231446   2.660   3.288   0.329 -0.2335 -0.1630 -0.1954
 3296TIP3    H131447   2.639   3.364   0.276  1.2250  0.1394 -0.3709
 3296TIP3    H231448   2.704   3.323   0.406  0.5416 -0.8351 -0.3225
 3297TIP3   OH231449   0.523   6.266   2.745  0.2375  0.4942  0.3485
 3297TIP3    H131450   0.466   6.301   2.676 -0.7829  1.0406  1.4398
 3297TIP3    H231451   0.515   6.171   2.738  1.0970  0.4973 -1.0453
 3298TIP3   OH231452   3.247   3.541   0.388  0.1711 -0.9760 -0.7301
 3298TIP3    H131453   3.304   3.556   0.312 -1.7034  0.3956 -1.9351
 3298TIP3    H231454   3.270   3.611   0.449 -0.6618  0.0124 -1.5155
 3299TIP3   OH231455   2.771   6.728   7.966 -0.9131  0.1145  0.5582
 3299TIP3    H131456   2.848   6.725   8.022  1.2860 -1.5119 -2.3126
 3299TIP3    H231457   2.703   6.682   8.015  0.8500 -1.1320  1.9188
 3300TIP3   OH231458   2.213   5.960   1.759 -0.1267 -0.3477  0.1218
 3300TIP3    H131459   2.265   5.946   1.838 -1.4600  0.5004  1.2138
 3300TIP3    H231460   2.227   6.052   1.738 -1.4797  0.0279  0.7174
 3301TIP3   OH231461   2.828   2.124   0.702 -0.0913  0.3261 -0.0930
 3301TIP3    H131462   2.902   2.107   0.644 -0.6316 -1.9625 -0.1898
 3301TIP3    H231463   2.757   2.148   0.643 -0.3610 -0.9872 -0.3316
 3302TIP3   OH231464   1.136   2.916   6.566 -0.4849  0.0876 -0.5457
 3302TIP3    H131465   1.077   2.841   6.566 -0.1900 -0.1474 -0.5197
 3302TIP3    H231466   1.089   2.983   6.615 -0.0290 -0.6657  0.9817
 3303TIP3   OH231467   3.141   0.945   8.272  0.1019 -0.2647 -0.0708
 3303TIP3    H131468   3.213   0.950   8.335 -0.7790  0.4012  0.9151
 3303TIP3    H231469   3.154   1.021   8.215 -0.0588  0.1123  0.3873
 3304TIP3   OH231470   5.305   2.328   8.487 -0.2007  0.7483 -0.0100
 3304TIP3    H131471   5.359   2.335   8.409  0.3254  1.1610  0.3859
 3304TIP3    H231472   5.366   2.304   8.557 -0.7396 -0.0815  0.1876
 3305TIP3   OH231473   0.571   2.791   6.481  0.5041 -0.3946  0.3207
 3305TIP3    H131474   0.533   2.842   6.410  1.6172  0.7279  0.4924
 3305TIP3    H231475   0.560   2.699   6.454 -0.3327 -0.0279 -0.6246
 3306TIP3   OH231476   3.307   1.820   7.319  0.5742 -0.0903  0.1714
 3306TIP3    H131477   3.305   1.824   7.415  0.2606 -0.0904  0.1677
 3306TIP3    H231478   3.365   1.892   7.293 -1.6988  1.9454  0.2636
 3307TIP3   OH231479   0.438   0.984   7.954 -0.2209  0.5017 -0.2967
 3307TIP3    H131480   0.508   1.042   7.925 -0.7014 -0.1789 -3.1240
 3307TIP3    H231481   0.366   1.001   7.893 -1.6069 -0.5839  0.9763
 3308TIP3   OH231482   6.137   3.838   1.819  0.0283  0.0906  0.3373
 3308TIP3    H131483   6.050   3.816   1.788 -0.1419  0.0364  0.8491
 3308TIP3    H231484   6.175   3.754   1.846  0.8898 -0.1437 -1.4959
 3309TIP3   OH231485   4.887   4.686   8.227  0.0873 -0.5024 -0.0316
 3309TIP3    H131486   4.912   4.745   8.155 -0.0981  0.2948  0.5482
 3309TIP3    H231487   4.957   4.620   8.228  1.1354  0.5709  0.2818
 3310TIP3   OH231488   0.471   1.518   7.371 -0.0332 -0.1426  0.2650
 3310TIP3    H131489   0.410   1.579   7.328  0.1803  0.0714  0.2604
 3310TIP3    H231490   0.427   1.493   7.452  0.7301  1.6284  1.2965
 3311TIP3   OH231491   0.159   5.867   0.359 -0.3482  0.4117 -0.2922
 3311TIP3    H131492   0.075   5.906   0.384 -0.4739  0.0944 -0.2155
 3311TIP3    H231493   0.156   5.778   0.394  0.1961  0.5354  0.0902
 3312TIP3   OH231494   0.238   2.533   6.652  0.6535  0.8944 -0.2918
 3312TIP3    H131495   0.311   2.490   6.696  0.3728  1.0929  0.3747
 3312TIP3    H231496   0.164   2.523   6.712  0.2863  1.2467 -0.6784
 3313TIP3   OH231497   0.587   3.673   7.796 -0.0563  0.4519  0.4189
 3313TIP3    H131498   0.677   3.640   7.803 -0.5537 -0.7822  1.3790
 3313TIP3    H231499   0.573   3.684   7.702  1.0324  0.4596  0.2433
 3314TIP3   OH231500   4.563   0.689   0.872  0.0933  0.5870  0.0758
 3314TIP3    H131501   4.575   0.735   0.789  2.9992  1.0831  0.6568
 3314TIP3    H231502   4.603   0.603   0.857 -0.8112  0.0751  0.5055
 3315TIP3   OH231503   5.777   1.094   8.874  0.6291  0.3483  0.2962
 3315TIP3    H131504   5.688   1.111   8.905  0.7165  1.3761  0.0299
 3315TIP3    H231505   5.833   1.145   8.933  0.9764  0.3748 -0.0481
 3316TIP3   OH231506   2.110   0.842   1.109  0.0669  0.6441 -0.0680
 3316TIP3    H131507   2.101   0.753   1.144  0.7716  1.3845  2.1633
 3316TIP3    H231508   2.193   0.841   1.063  0.5466  0.3803  0.7829
 3317TIP3   OH231509   1.126   1.921   0.626  0.0556  0.2561 -0.1575
 3317TIP3    H131510   1.108   2.000   0.677  1.0700 -1.3026  2.8159
 3317TIP3    H231511   1.054   1.918   0.563 -0.1432  3.3888 -0.2732
 3318TIP3   OH231512   5.222   6.535   1.862  0.1254 -0.0309  0.0253
 3318TIP3    H131513   5.144   6.556   1.811  0.0676 -0.3629 -0.0234
 3318TIP3    H231514   5.189   6.520   1.951  0.0786 -0.5977 -0.0873
 3319TIP3   OH231515   5.712   5.353   7.904  0.0151 -0.0006  0.6486
 3319TIP3    H131516   5.637   5.333   7.848 -0.3447  2.1686  0.2758
 3319TIP3    H231517   5.688   5.318   7.990 -0.4339 -1.2833  0.0324
 3320TIP3   OH231518   0.285   0.171   8.562 -0.3734  0.1458  0.3165
 3320TIP3    H131519   0.306   0.221   8.641 -0.6192  0.2397  0.3224
 3320TIP3    H231520   0.277   0.237   8.493 -0.4962  0.0951  0.2816
 3321TIP3   OH231521   2.037   5.191   8.026  0.7017 -0.0545 -0.2633
 3321TIP3    H131522   1.999   5.260   7.971 -0.3213  0.7444  1.3755
 3321TIP3    H231523   2.086   5.136   7.965 -0.5518  0.6716 -1.9981
 3322TIP3   OH231524   2.442   4.410   8.361 -0.0380 -0.3085  0.0134
 3322TIP3    H131525   2.463   4.328   8.316 -0.0195  0.5256 -1.5880
 3322TIP3    H231526   2.360   4.439   8.321 -0.0519  0.4369  0.5700
 3323TIP3   OH231527   0.608   2.302   0.059  0.0577 -0.0387  0.3880
 3323TIP3    H131528   0.601   2.315  -0.036  1.7571  1.9032  0.4560
 3323TIP3    H231529   0.532   2.348   0.094  0.6014  1.1946  0.0305
 3324TIP3   OH231530   4.757   0.630   6.871 -0.0389  1.0928 -0.1877
 3324TIP3    H131531   4.704   0.708   6.882  0.2731  1.2647  0.0980
 3324TIP3    H231532   4.847   0.662   6.868  0.2705  0.5692  2.1126
 3325TIP3   OH231533   6.148   6.547   7.125 -0.0069 -0.0932 -0.0385
 3325TIP3    H131534   6.206   6.473   7.107 -1.0504 -0.7739 -0.7023
 3325TIP3    H231535   6.139   6.591   7.040 -1.5370 -0.8160 -0.2984
 3326TIP3   OH231536   5.888   4.364   1.114  0.0113  0.0788  0.4116
 3326TIP3    H131537   5.883   4.436   1.051 -2.1769 -0.2158  0.1610
 3326TIP3    H231538   5.901   4.286   1.061  0.9365  0.1203  0.5673
 3327TIP3   OH231539   5.644   3.630   1.678 -0.0417  0.0747  0.0487
 3327TIP3    H131540   5.680   3.543   1.659 -2.7965 -0.9997 -0.8436
 3327TIP3    H231541   5.595   3.653   1.599 -1.2414  1.3801  1.1151
 3328TIP3   OH231542   3.048   6.660   8.545 -0.1640 -0.4437  0.0360
 3328TIP3    H131543   3.015   6.585   8.594  2.8009 -0.8514  1.6480
 3328TIP3    H231544   3.059   6.729   8.611  1.5450 -0.1655 -0.4811
 3329TIP3   OH231545   4.008   2.787   2.100 -0.3004  0.0999  0.0794
 3329TIP3    H131546   4.041   2.791   2.189 -1.4858  0.5821  0.5206
 3329TIP3    H231547   3.918   2.755   2.109 -0.2917 -0.2496 -0.9772
 3330TIP3   OH231548   4.268   0.510   0.880 -0.2147  0.5010  0.2299
 3330TIP3    H131549   4.330   0.499   0.808 -0.9177  0.8283 -0.4449
 3330TIP3    H231550   4.321   0.501   0.959  0.5610  0.0653 -0.3258
 3331TIP3   OH231551   4.166   1.407   8.245 -0.1090 -0.4565 -0.5479
 3331TIP3    H131552   4.231   1.374   8.308 -0.0031 -1.0582 -0.9658
 3331TIP3    H231553   4.184   1.359   8.165 -0.1441  0.4261 -1.0926
 3332TIP3   OH231554   6.623   0.301   7.698 -0.9904  0.0522  0.1222
 3332TIP3    H131555   6.618   0.242   7.623  0.1434  1.8573 -1.4604
 3332TIP3    H231556   6.682   0.257   7.759  1.4760  0.3432 -1.9049
 3333TIP3   OH231557   3.823   6.345   1.581 -0.2564 -0.3331 -0.5500
 3333TIP3    H131558   3.868   6.359   1.665 -0.1474  0.2189 -0.6969
 3333TIP3    H231559   3.805   6.251   1.579 -1.2315 -0.1976  0.5859
 3334TIP3   OH231560   0.713   0.339   0.966 -0.1618 -0.1035 -1.0646
 3334TIP3    H131561   0.662   0.411   0.929 -1.7244 -0.1012  0.8928
 3334TIP3    H231562   0.676   0.260   0.926 -0.1298  0.0249 -1.3515
 3335TIP3   OH231563   4.343   0.292   7.701  0.0448  0.1115 -0.6720
 3335TIP3    H131564   4.325   0.321   7.790 -0.5688 -1.2682 -0.3235
 3335TIP3    H231565   4.263   0.313   7.653 -0.9933 -2.2180 -0.0829
 3336TIP3   OH231566   1.912   5.236   8.864 -0.3358  0.3751  0.5308
 3336TIP3    H131567   1.871   5.261   8.946  0.5670 -1.8857  1.7460
 3336TIP3    H231568   1.936   5.319   8.823 -3.8238  1.7056  0.8624
 3337TIP3   OH231569   6.384   0.561   8.149 -0.3106  0.0989  0.7155
 3337TIP3    H131570   6.452   0.613   8.106 -1.6693  3.0425  1.8078
 3337TIP3    H231571   6.414   0.554   8.240 -0.3391 -0.6943  0.6664
 3338TIP3   OH231572   0.573   3.399   1.087  0.0170 -0.5259 -0.6403
 3338TIP3    H131573   0.486   3.437   1.098  0.2647  0.7580 -2.5672
 3338TIP3    H231574   0.558   3.305   1.082 -1.5148 -0.2499 -2.5864
 3339TIP3   OH231575   5.322   0.347   1.091 -0.0257 -0.0041  0.2414
 3339TIP3    H131576   5.292   0.290   1.162  2.4949  0.2805  1.6649
 3339TIP3    H231577   5.317   0.293   1.013  0.1275 -1.4009  1.1720
 3340TIP3   OH231578   3.886   1.605   1.578 -0.4681  0.3911  0.1324
 3340TIP3    H131579   3.926   1.691   1.572 -1.6668  0.8968 -0.9878
 3340TIP3    H231580   3.814   1.607   1.515  0.6147 -2.0788 -1.3346
 3341TIP3   OH231581   2.029   4.498   7.436  0.6293  0.4339  0.2497
 3341TIP3    H131582   2.101   4.561   7.428  0.9698 -0.1440 -1.6773
 3341TIP3    H231583   2.046   4.433   7.368 -0.7163 -0.7479  0.9857
 3342TIP3   OH231584   0.377   6.725   8.760  0.2034 -0.0617 -0.1481
 3342TIP3    H131585   0.351   6.808   8.719  2.5141  0.2959 -1.0139
 3342TIP3    H231586   0.294   6.679   8.774 -1.0121  1.6745 -1.1798
 3343TIP3   OH231587   6.618   5.319   1.473  0.2154 -0.6399 -0.6394
 3343TIP3    H131588   6.708   5.313   1.504  0.5459 -1.0723 -1.6313
 3343TIP3    H231589   6.573   5.244   1.512  0.2871 -0.4313 -0.1578
 3344TIP3   OH231590   3.757   6.587   7.104  0.8756 -0.0844 -0.5077
 3344TIP3    H131591   3.747   6.560   7.195  0.8585  0.7379 -0.2551
 3344TIP3    H231592   3.717   6.517   7.053 -2.1913  0.9511  0.2406
 3345TIP3   OH231593   6.125   1.131   1.810  0.1785  0.3603 -0.2468
 3345TIP3    H131594   6.160   1.103   1.894 -0.8054  3.1653  1.2225
 3345TIP3    H231595   6.033   1.102   1.811  0.0843  0.6585 -0.2169
 3346TIP3   OH231596   2.133   5.001   7.850  0.1970  0.5237  0.3381
 3346TIP3    H131597   2.151   4.953   7.769 -0.5764  0.4646  0.1996
 3346TIP3    H231598   2.092   4.937   7.908 -0.8491  0.9957  0.1479
 3347TIP3   OH231599   2.876   3.017   7.570 -0.2610  0.3165  0.1588
 3347TIP3    H131600   2.894   2.923   7.557  1.6720  0.8539 -1.5120
 3347TIP3    H231601   2.936   3.043   7.640 -0.5825  0.3742  0.4135
 3348TIP3   OH231602   0.890   5.927   0.913 -0.1757  0.8173 -0.4368
 3348TIP3    H131603   0.796   5.939   0.899 -0.2323  0.6421 -0.1922
 3348TIP3    H231604   0.922   6.015   0.934 -0.3839  0.7727  0.0709
 3349TIP3   OH231605   0.363   0.317   8.325  0.1579 -0.5363  0.1893
 3349TIP3    H131606   0.459   0.306   8.326  0.2943  0.5313  1.1890
 3349TIP3    H231607   0.350   0.411   8.339 -1.0581 -0.8055  0.9866
 3350TIP3   OH231608   2.158   3.460   7.446  0.0811  0.1255  0.1293
 3350TIP3    H131609   2.073   3.500   7.461  0.4647  0.2303  2.3530
 3350TIP3    H231610   2.138   3.372   7.415 -0.8405  0.1429  0.6422
 3351TIP3   OH231611   1.189   6.514   0.909  0.5516  0.6177 -0.4833
 3351TIP3    H131612   1.125   6.489   0.843  0.2036  0.3137 -0.0401
 3351TIP3    H231613   1.183   6.609   0.915 -1.5059  0.4567  1.1567
 3352TIP3   OH231614   5.663   1.108   7.557 -0.0108 -0.4495  0.4272
 3352TIP3    H131615   5.745   1.158   7.556  0.6496 -1.4869 -0.3554
 3352TIP3    H231616   5.601   1.164   7.603  0.8424  0.8269  0.0837
 3353TIP3   OH231617   2.721   1.312   1.746 -0.3555 -0.1693  0.4188
 3353TIP3    H131618   2.670   1.285   1.823 -0.4237 -0.4466  0.2793
 3353TIP3    H231619   2.812   1.310   1.775 -0.1691 -2.4234 -0.0959
 3354TIP3   OH231620   4.039   6.068   1.286  0.1286 -0.6125  0.0673
 3354TIP3    H131621   4.042   6.035   1.375  1.5712  1.8183  1.0173
 3354TIP3    H231622   4.054   6.162   1.294  0.2709 -0.2936 -2.7444
 3355TIP3   OH231623   0.977   1.161   8.095 -0.2897 -0.3195 -0.1731
 3355TIP3    H131624   1.036   1.196   8.162  1.7104 -0.5591 -1.6942
 3355TIP3    H231625   1.018   1.080   8.067 -1.5273 -0.6529 -1.0937
 3356TIP3   OH231626   0.766   2.294   7.960 -0.1852  0.4342 -0.2235
 3356TIP3    H131627   0.683   2.281   7.914  0.6669  0.8793 -1.9795
 3356TIP3    H231628   0.745   2.354   8.032 -1.5413 -0.1760 -0.0827
 3357TIP3   OH231629   5.963   5.558   1.632  0.0971 -0.3173  0.2663
 3357TIP3    H131630   6.052   5.524   1.625  0.0950 -0.3307  0.3101
 3357TIP3    H231631   5.930   5.524   1.714 -0.0284 -0.4954  0.1420
 3358TIP3   OH231632   6.152   2.812   8.627  0.7633 -0.0833 -0.5462
 3358TIP3    H131633   6.212   2.885   8.640  0.3125  0.3292 -0.7764
 3358TIP3    H231634   6.148   2.799   8.532  1.2284 -0.7364 -0.4867
 3359TIP3   OH231635   5.598   5.665   7.041  0.0506 -0.9740  0.3632
 3359TIP3    H131636   5.654   5.725   6.991 -0.0492 -0.8462  0.4068
 3359TIP3    H231637   5.523   5.649   6.984 -0.5132 -0.1064  0.8451
 3360TIP3   OH231638   4.166   2.578   1.773 -0.4056  0.4739  0.0037
 3360TIP3    H131639   4.106   2.543   1.839 -1.7789 -0.0832 -1.4798
 3360TIP3    H231640   4.237   2.513   1.768 -2.3915 -1.7509 -1.9643
 3361TIP3   OH231641   5.156   0.631   1.654  0.1077 -0.4703  0.4506
 3361TIP3    H131642   5.190   0.673   1.575  0.3468  0.0456  0.8273
 3361TIP3    H231643   5.231   0.626   1.713 -0.5500  1.0949  1.4686
 3362TIP3   OH231644   2.427   0.355   6.813  0.4078  0.2933 -0.0089
 3362TIP3    H131645   2.357   0.412   6.779 -0.6886  0.2364  1.9993
 3362TIP3    H231646   2.389   0.267   6.811  0.1726  0.3303  1.5948
 3363TIP3   OH231647   3.452   3.927   7.853 -0.0442  0.4094 -0.6984
 3363TIP3    H131648   3.403   4.003   7.885  0.6817 -0.2811  2.3699
 3363TIP3    H231649   3.515   3.964   7.790  0.0696  2.3144  0.4481
 3364TIP3   OH231650   0.758   5.111   0.771 -0.6696 -0.0472  0.5318
 3364TIP3    H131651   0.704   5.135   0.846 -0.6201  0.3835  0.4339
 3364TIP3    H231652   0.699   5.062   0.714 -0.2362 -2.0410  1.6898
 3365TIP3   OH231653   5.759   4.412   8.707 -0.1022 -0.2877  0.4375
 3365TIP3    H131654   5.819   4.392   8.779 -0.1589  0.3412  0.6690
 3365TIP3    H231655   5.772   4.341   8.645  0.5645 -0.3959  0.6891
 3366TIP3   OH231656   1.155   0.216   8.256  0.4766 -0.2913 -0.2845
 3366TIP3    H131657   1.069   0.177   8.236 -0.8824  1.5498  1.5574
 3366TIP3    H231658   1.151   0.303   8.217  1.4457 -0.1104  0.0054
 3367TIP3   OH231659   5.158   6.030   8.721  0.0122 -0.2740 -0.0545
 3367TIP3    H131660   5.200   5.964   8.666 -1.3919 -0.0638 -1.4441
 3367TIP3    H231661   5.186   6.113   8.683  0.1267 -0.0985  0.4107
 3368TIP3   OH231662   5.559   2.351   2.064  0.0379  0.7433  0.0472
 3368TIP3    H131663   5.483   2.407   2.050 -1.5097 -1.7234 -2.4814
 3368TIP3    H231664   5.525   2.276   2.113  1.0516  0.0665 -0.2486
 3369TIP3   OH231665   5.094   4.806   8.745 -0.0718  0.2259  0.0552
 3369TIP3    H131666   5.073   4.874   8.809 -0.0888  0.5927 -0.3332
 3369TIP3    H231667   5.035   4.823   8.671  2.0949  1.8319 -1.4490
 3370TIP3   OH231668   0.907   6.239   8.834  0.0847  0.5138 -0.0449
 3370TIP3    H131669   0.855   6.194   8.901  0.3863 -0.6563 -0.5880
 3370TIP3    H231670   0.967   6.172   8.800 -1.2225  0.5639 -2.7252
 3371TIP3   OH231671   6.395   0.106   0.230 -0.5637  0.3847  0.2229
 3371TIP3    H131672   6.465   0.171   0.221 -0.0518 -0.0131  1.2166
 3371TIP3    H231673   6.412   0.042   0.161  0.1301  0.2296  0.5300
 3372TIP3   OH231674   0.307   1.011   7.469 -0.1414 -0.5040 -0.6561
 3372TIP3    H131675   0.321   0.949   7.397 -1.6766 -2.4140  0.5762
 3372TIP3    H231676   0.214   1.005   7.488  0.0538  0.7104  0.8504
 3373TIP3   OH231677   1.437   2.935   1.103  0.3972  0.2726 -0.0831
 3373TIP3    H131678   1.472   2.864   1.157  1.3245  0.3465 -0.5667
 3373TIP3    H231679   1.413   3.003   1.165  3.9551  1.4710  0.1780
 3374TIP3   OH231680   3.009   0.860   7.107  0.9814 -0.4656  0.2832
 3374TIP3    H131681   3.100   0.860   7.076  0.8992  0.8749  0.0045
 3374TIP3    H231682   2.959   0.894   7.033  0.0600 -2.3909 -0.0317
 3375TIP3   OH231683   0.497   4.310   1.511 -0.5128 -0.6274 -0.6063
 3375TIP3    H131684   0.437   4.338   1.580  1.7794  3.0900  0.2038
 3375TIP3    H231685   0.574   4.278   1.558  1.2621  2.3714 -1.2293
 3376TIP3   OH231686   3.517   5.858   7.936  0.3621 -0.3096  0.7497
 3376TIP3    H131687   3.572   5.785   7.966 -0.0478 -1.0715 -0.2851
 3376TIP3    H231688   3.431   5.842   7.974  0.3470 -0.2027  0.7621
 3377TIP3   OH231689   2.333   5.399   8.004 -0.3731  0.3085 -0.5102
 3377TIP3    H131690   2.262   5.463   8.010 -0.9079 -0.3832  1.2643
 3377TIP3    H231691   2.373   5.400   8.091  2.9856  1.9385 -1.8939
 3378TIP3   OH231692   6.553   5.676   1.608 -0.0310  0.0493 -0.5419
 3378TIP3    H131693   6.522   5.762   1.578 -0.8831  0.1020  0.3983
 3378TIP3    H231694   6.474   5.621   1.607  0.5156 -0.7376 -1.1685
 3379TIP3   OH231695   2.496   3.846   7.863 -0.2669  0.6700 -0.3834
 3379TIP3    H131696   2.459   3.808   7.783  2.6063 -1.1708 -1.0369
 3379TIP3    H231697   2.558   3.912   7.832  0.8351 -0.0184  0.2376
 3380TIP3   OH231698   4.121   4.820   1.350 -0.0205  0.5224  0.1486
 3380TIP3    H131699   4.038   4.867   1.344 -0.1169  0.9355  3.2300
 3380TIP3    H231700   4.100   4.736   1.390  0.7871 -0.3542 -1.1605
 3381TIP3   OH231701   1.212   3.882   7.049  0.8572  0.0853 -0.0318
 3381TIP3    H131702   1.185   3.961   7.003  0.2899  0.2467  0.5638
 3381TIP3    H231703   1.189   3.810   6.990 -1.8165  0.1323  0.8322
 3382TIP3   OH231704   4.920   3.544   1.534 -0.4123 -0.2120  0.2289
 3382TIP3    H131705   4.963   3.495   1.464 -0.0571  0.0203  0.2807
 3382TIP3    H231706   4.892   3.626   1.493  0.5978  0.3210  0.5528
 3383TIP3   OH231707   3.454   1.619   1.256 -0.3547  0.3334 -0.0959
 3383TIP3    H131708   3.513   1.546   1.236  0.9497  1.0465  1.0171
 3383TIP3    H231709   3.438   1.661   1.172  1.0057  0.3347 -0.3622
 3384TIP3   OH231710   3.949   4.340   6.295 -0.3435  0.3881  0.2940
 3384TIP3    H131711   4.027   4.286   6.302 -0.7471  0.0166  2.4722
 3384TIP3    H231712   3.876   4.279   6.297 -0.7520  0.8031 -0.7677
 3385TIP3   OH231713   3.458   1.149   6.898  0.1661  0.1928  0.2860
 3385TIP3    H131714   3.458   1.100   6.816 -1.9510  0.7809 -0.1441
 3385TIP3    H231715   3.528   1.214   6.887  0.3618 -0.1741 -0.7666
 3386TIP3   OH231716   3.880   2.854   1.096 -0.5154 -0.0410  0.0989
 3386TIP3    H131717   3.965   2.842   1.054  0.3300  1.3809  1.2724
 3386TIP3    H231718   3.883   2.795   1.172 -0.4660  0.1776  0.2690
 3387TIP3   OH231719   3.547   6.476   6.490 -0.1040  0.3408 -0.1722
 3387TIP3    H131720   3.642   6.478   6.483 -0.0051  0.5178  0.9534
 3387TIP3    H231721   3.526   6.384   6.506 -0.3253 -0.0587 -2.4537
 3388TIP3   OH231722   0.624   1.448   0.969 -0.2525  0.0889  0.4989
 3388TIP3    H131723   0.618   1.384   0.898  0.7046  0.0815  0.4073
 3388TIP3    H231724   0.576   1.525   0.937 -0.8430 -0.3395  0.3413
 3389TIP3   OH231725   5.238   3.666   7.686  0.0701  0.2969 -0.1757
 3389TIP3    H131726   5.304   3.602   7.710 -0.6991  0.1854  1.8590
 3389TIP3    H231727   5.204   3.636   7.602  1.7172 -0.3096 -0.6673
 3390TIP3   OH231728   2.909   6.214   2.107 -0.4938 -0.7526  0.4600
 3390TIP3    H131729   2.858   6.234   2.185  0.8781  0.1362  1.1586
 3390TIP3    H231730   2.980   6.158   2.138  0.3571  0.0224 -0.0234
 3391TIP3   OH231731   1.122   6.540   8.038  0.1784 -0.0361 -0.2515
 3391TIP3    H131732   1.155   6.470   8.095  3.3926  0.4829 -1.2612
 3391TIP3    H231733   1.052   6.581   8.089  1.5493 -0.8393  2.5131
 3392TIP3   OH231734   3.976   5.442   1.493 -0.1858  0.0833 -0.9016
 3392TIP3    H131735   3.966   5.537   1.504  2.0684  0.4253 -1.2661
 3392TIP3    H231736   3.967   5.407   1.581  0.9807  0.8857 -0.4441
 3393TIP3   OH231737   5.450   4.102   2.632  0.0418 -0.3759 -0.0753
 3393TIP3    H131738   5.525   4.045   2.619 -1.0392 -1.7901 -0.4038
 3393TIP3    H231739   5.383   4.045   2.671 -1.1536  0.6043 -0.6072
 3394TIP3   OH231740   2.271   4.367   8.787 -0.6874  0.3791  0.6926
 3394TIP3    H131741   2.275   4.453   8.828  1.5167 -0.0155  1.3868
 3394TIP3    H231742   2.353   4.359   8.738 -1.7787 -0.5089 -1.1171
 3395TIP3   OH231743   2.805   5.495   8.258  0.1475  0.0974 -0.1900
 3395TIP3    H131744   2.732   5.538   8.213 -0.1394 -2.2040 -2.1376
 3395TIP3    H231745   2.767   5.461   8.339 -0.1243  1.5411  0.3289
 3396TIP3   OH231746   3.082   1.433   1.286  0.5201 -0.3254  0.0266
 3396TIP3    H131747   3.005   1.412   1.232  0.6556 -0.2918 -0.1811
 3396TIP3    H231748   3.124   1.349   1.301  1.2464 -0.1877 -1.0837
 3397TIP3   OH231749   2.218   6.018   0.364 -0.1877 -0.1028  0.2317
 3397TIP3    H131750   2.255   5.973   0.288  1.0696  1.1900  0.0408
 3397TIP3    H231751   2.251   5.970   0.439 -0.5774 -0.7493  0.0011
 3398TIP3   OH231752   2.802   3.980   0.076  0.3406 -0.2508 -0.2928
 3398TIP3    H131753   2.718   3.936   0.087  0.2138  0.2263  0.8137
 3398TIP3    H231754   2.861   3.913   0.043 -0.1925 -0.8849  0.0287
 3399TIP3   OH231755   5.072   4.773   1.882 -0.4426  0.3014 -0.1478
 3399TIP3    H131756   5.151   4.747   1.835 -0.1473  0.7824  0.0810
 3399TIP3    H231757   5.088   4.863   1.909 -1.4805  0.7501 -0.9761
 3400TIP3   OH231758   4.782   0.212   7.499  0.2160 -0.2114  0.2805
 3400TIP3    H131759   4.846   0.165   7.552 -0.1255 -0.3239  0.5934
 3400TIP3    H231760   4.822   0.216   7.412 -0.1312 -1.8487  0.0279
 3401TIP3   OH231761   3.577   1.793   2.328 -0.5236 -0.2730 -0.2999
 3401TIP3    H131762   3.581   1.747   2.412 -1.0917  0.3722  0.0940
 3401TIP3    H231763   3.509   1.859   2.340 -0.8051 -0.3438 -1.3611
 3402TIP3   OH231764   6.523   2.445   8.400  0.4007  0.1768  0.0946
 3402TIP3    H131765   6.547   2.423   8.310  0.2062 -1.8074  0.4988
 3402TIP3    H231766   6.564   2.530   8.415  2.0357 -0.3249 -1.2478
 3403TIP3   OH231767   3.831   3.804   6.931 -0.4172  0.1316 -0.0354
 3403TIP3    H131768   3.821   3.743   7.004 -0.8625  1.3150  0.9381
 3403TIP3    H231769   3.783   3.764   6.859  1.0196 -1.6301 -0.0737
 3404TIP3   OH231770   1.387   3.589   2.571  0.8964 -0.1673 -0.2891
 3404TIP3    H131771   1.411   3.517   2.513  1.8648  0.0412 -0.1670
 3404TIP3    H231772   1.463   3.648   2.569  1.3145 -0.5478  1.7761
 3405TIP3   OH231773   4.083   3.602   8.048 -0.0512  0.6901 -0.4593
 3405TIP3    H131774   4.032   3.545   7.990 -0.3427  0.2874  0.1795
 3405TIP3    H231775   4.057   3.575   8.137  1.5130  0.2428 -0.1064
 3406TIP3   OH231776   3.825   5.526   7.914 -0.2516  0.2383  0.4851
 3406TIP3    H131777   3.778   5.537   7.832 -0.6392 -0.4152  0.6101
 3406TIP3    H231778   3.857   5.614   7.936 -0.7549  0.5471  0.0037
 3407TIP3   OH231779   6.293   1.277   0.713  0.0630  0.2278 -0.4325
 3407TIP3    H131780   6.344   1.218   0.768 -0.0077  0.7108  0.1616
 3407TIP3    H231781   6.262   1.346   0.772 -0.4156  0.5035 -0.9798
 3408TIP3   OH231782   6.517   4.015   8.710 -1.1405  0.7338  0.3765
 3408TIP3    H131783   6.481   4.093   8.665 -0.3284  0.5146 -0.6947
 3408TIP3    H231784   6.571   3.972   8.643 -1.0323 -0.3882  1.1655
 3409TIP3   OH231785   4.172   2.872   1.098 -0.4502 -0.4807  0.0814
 3409TIP3    H131786   4.241   2.807   1.085 -3.0097 -3.0269 -2.2310
 3409TIP3    H231787   4.191   2.940   1.033 -1.1770 -2.2880 -2.1650
 3410TIP3   OH231788   2.860   3.329   7.943  0.0380 -0.4426 -0.0794
 3410TIP3    H131789   2.918   3.259   7.972  1.7513  0.9372 -0.0162
 3410TIP3    H231790   2.779   3.315   7.993  0.2256 -2.4914 -0.2687
 3411TIP3   OH231791   5.583   5.243   0.397  0.0694 -0.5355 -0.0457
 3411TIP3    H131792   5.628   5.166   0.361  0.6184 -0.4418  0.4204
 3411TIP3    H231793   5.551   5.290   0.321  1.6977 -0.0421 -0.4660
 3412TIP3   OH231794   3.901   3.460   1.093 -0.4205  0.0759 -0.1537
 3412TIP3    H131795   3.870   3.383   1.045 -1.3170  1.3309 -1.6721
 3412TIP3    H231796   3.851   3.533   1.056  0.7277  1.4653  0.9303
 3413TIP3   OH231797   3.591   3.841   0.854 -0.0881  0.2852 -0.4249
 3413TIP3    H131798   3.601   3.933   0.879  1.0958  0.0327  0.1376
 3413TIP3    H231799   3.499   3.821   0.868 -0.0507  0.9715  0.9411
 3414TIP3   OH231800   5.904   0.741   7.756 -0.4471 -0.9579  0.7296
 3414TIP3    H131801   5.850   0.744   7.835 -0.2948  1.4555  0.8091
 3414TIP3    H231802   5.849   0.780   7.688  1.7361  3.7414  1.2936
 3415TIP3   OH231803   2.869   5.389   7.337  0.7126 -0.5735  0.0089
 3415TIP3    H131804   2.853   5.299   7.310 -0.3833  0.0817 -1.7178
 3415TIP3    H231805   2.785   5.419   7.372  0.8357  0.0119 -0.1804
 3416TIP3   OH231806   1.840   1.949   1.084  0.3016 -0.7689  0.7766
 3416TIP3    H131807   1.926   1.937   1.125  0.0124  0.3751  1.7967
 3416TIP3    H231808   1.854   2.019   1.020  0.1740 -0.7004  0.8237
 3417TIP3   OH231809   2.614   5.239   6.965 -0.0752  0.2296 -0.2632
 3417TIP3    H131810   2.621   5.312   7.027  0.2576 -0.9571  1.1722
 3417TIP3    H231811   2.546   5.183   7.002  0.2025 -0.5637 -0.9221
 3418TIP3   OH231812   2.502   4.701   8.403  0.1068 -0.0932  0.5466
 3418TIP3    H131813   2.474   4.616   8.369  2.0622 -0.1498 -1.0703
 3418TIP3    H231814   2.552   4.741   8.332  0.9432  1.5638  1.9740
 3419TIP3   OH231815   2.673   3.389   8.477  0.2796 -0.4634 -0.1173
 3419TIP3    H131816   2.609   3.414   8.544 -0.3940 -1.5978 -0.3122
 3419TIP3    H231817   2.698   3.471   8.435 -0.9331  0.0158  0.0757
 3420TIP3   OH231818   0.364   1.857   1.479  0.2156  0.0195  0.3647
 3420TIP3    H131819   0.443   1.872   1.531  0.2258 -0.0123  0.3586
 3420TIP3    H231820   0.316   1.939   1.484 -0.6248 -0.5098  1.8939
 3421TIP3   OH231821   5.731   3.394   7.943 -0.1028 -0.4035 -0.2858
 3421TIP3    H131822   5.797   3.427   7.882  0.4223  1.4477  1.2205
 3421TIP3    H231823   5.752   3.301   7.953  0.3131 -0.5738 -2.2124
 3422TIP3   OH231824   3.256   6.604   7.520  0.2724  0.1164 -0.0071
 3422TIP3    H131825   3.223   6.659   7.591  0.7114 -1.7860  1.7648
 3422TIP3    H231826   3.318   6.544   7.563  0.3963 -1.2374 -1.9599
 3423TIP3   OH231827   5.609   3.317   8.559  0.0714 -0.0486 -0.6670
 3423TIP3    H131828   5.584   3.243   8.504  2.2954 -0.2238 -1.5745
 3423TIP3    H231829   5.631   3.386   8.497 -1.4063  1.2297  0.1600
 3424TIP3   OH231830   0.333   0.939   2.133 -0.4690 -0.1122 -0.1542
 3424TIP3    H131831   0.414   0.924   2.085  0.2530  0.3469  0.8880
 3424TIP3    H231832   0.342   0.887   2.212 -0.7567  0.6906  0.4242
 3425TIP3   OH231833   2.443   1.519   8.385  0.2432 -0.0500  0.1231
 3425TIP3    H131834   2.376   1.585   8.404  0.0672 -0.0192 -0.5863
 3425TIP3    H231835   2.524   1.556   8.421  0.2433  0.7901 -0.6964
 3426TIP3   OH231836   4.917   6.774   1.611 -0.2660  0.4888  0.4636
 3426TIP3    H131837   4.952   6.734   1.690 -1.1840 -1.5608 -0.1088
 3426TIP3    H231838   4.980   6.751   1.542  0.5845  2.3473  0.5545
 3427TIP3   OH231839   4.039   2.645   0.891  0.4641  0.1752  0.0890
 3427TIP3    H131840   3.980   2.583   0.934 -0.2112  1.8681  1.7400
 3427TIP3    H231841   4.103   2.590   0.845 -1.7280 -1.7302 -0.8772
 3428TIP3   OH231842   5.253   4.753   7.383 -0.1794  0.5102 -0.5500
 3428TIP3    H131843   5.199   4.704   7.445  0.7710  1.4017  1.0816
 3428TIP3    H231844   5.206   4.835   7.369 -0.3577  0.3393 -0.9443
 3429TIP3   OH231845   5.671   6.272   2.301 -0.1083  0.5723 -0.1311
 3429TIP3    H131846   5.740   6.333   2.274  1.8776 -1.6693 -0.5175
 3429TIP3    H231847   5.707   6.229   2.379 -0.1507 -1.9853 -1.4041
 3430TIP3   OH231848   0.132   1.626   1.240  0.1633 -0.1370 -0.1817
 3430TIP3    H131849   0.132   1.671   1.324 -0.2466 -0.1524 -0.1761
 3430TIP3    H231850   0.054   1.572   1.240  0.1970 -0.1930 -0.5443
 3431TIP3   OH231851   1.338   5.895   7.461  0.1513 -0.0819 -0.1376
 3431TIP3    H131852   1.385   5.824   7.418 -0.8785 -0.2821 -0.9710
 3431TIP3    H231853   1.344   5.969   7.400 -1.3220 -0.3660 -0.6662
 3432TIP3   OH231854   4.148   0.252   2.554 -0.0036  0.0006 -0.6031
 3432TIP3    H131855   4.192   0.168   2.549  0.7190  0.0950  2.2271
 3432TIP3    H231856   4.166   0.284   2.643 -2.5470  1.8559 -0.6134
 3433TIP3   OH231857   1.142   5.577   2.051  0.5652  0.7342  0.0335
 3433TIP3    H131858   1.079   5.552   1.984 -0.5504  0.2021  1.2522
 3433TIP3    H231859   1.192   5.649   2.011 -0.8633  1.2407 -0.9301
 3434TIP3   OH231860   4.609   0.724   2.477 -0.2146  0.0187 -0.2875
 3434TIP3    H131861   4.522   0.693   2.452 -1.3115  1.4304  1.5618
 3434TIP3    H231862   4.608   0.818   2.458  1.6745 -0.2559 -2.1385
 3435TIP3   OH231863   2.340   4.580   0.068 -0.1227 -0.1544 -0.2856
 3435TIP3    H131864   2.298   4.626   0.141  0.3344  1.4646 -1.0002
 3435TIP3    H231865   2.395   4.646   0.026  1.8494 -1.7477 -0.4146
 3436TIP3   OH231866   2.900   2.257   8.457  0.3780  0.1520 -0.6750
 3436TIP3    H131867   2.957   2.278   8.384 -0.0011 -0.7382 -1.2411
 3436TIP3    H231868   2.825   2.316   8.448  0.8292  0.7765 -0.3821
 3437TIP3   OH231869   5.133   1.492   7.682 -0.0106 -0.5963  0.5094
 3437TIP3    H131870   5.170   1.438   7.752  0.2350 -1.6306 -0.4147
 3437TIP3    H231871   5.039   1.473   7.684 -0.0881 -0.2141  0.8902
 3438TIP3   OH231872   2.050   2.854   0.410  0.4220  0.6964 -0.4169
 3438TIP3    H131873   2.134   2.886   0.443  1.0536  0.4983 -1.7556
 3438TIP3    H231874   2.069   2.764   0.382 -0.4185  0.4081 -0.0850
 3439TIP3   OH231875   6.753   0.190   1.977 -0.6105  0.5395  0.3822
 3439TIP3    H131876   6.732   0.145   2.059 -1.0352  2.1711  1.2116
 3439TIP3    H231877   6.713   0.136   1.909 -0.2981 -0.8168  1.2409
 3440TIP3   OH231878   6.774   0.717   8.496 -0.0162 -0.4868  0.0004
 3440TIP3    H131879   6.782   0.622   8.485  2.3107 -0.3268 -0.0841
 3440TIP3    H231880   6.786   0.732   8.589 -0.3011 -0.2418  0.0025
 3441TIP3   OH231881   0.931   5.569   6.561  0.0412  0.0274 -0.5844
 3441TIP3    H131882   0.988   5.645   6.574  0.0311 -0.0218 -0.2543
 3441TIP3    H231883   0.951   5.540   6.472  1.6977 -0.9526  0.0692
 3442TIP3   OH231884   6.343   2.945   6.911 -0.5465 -0.4305  0.1538
 3442TIP3    H131885   6.365   2.964   6.820 -0.3421 -2.9453 -0.4031
 3442TIP3    H231886   6.317   2.853   6.910  1.0541 -1.0202  2.9149
 3443TIP3   OH231887   3.224   2.284   7.791 -0.4783 -0.0617  0.7782
 3443TIP3    H131888   3.242   2.218   7.725 -3.0671  1.3373 -1.5423
 3443TIP3    H231889   3.174   2.239   7.859 -1.0865 -0.7714 -0.1268
 3444TIP3   OH231890   5.681   2.210   8.096  0.1636  0.0166  0.5072
 3444TIP3    H131891   5.635   2.159   8.030  0.0774 -0.0293  0.6029
 3444TIP3    H231892   5.688   2.298   8.058  1.4944 -0.3774 -0.2300
 3445TIP3   OH231893   0.907   3.245   8.695 -0.4176 -0.3459  0.0517
 3445TIP3    H131894   0.877   3.158   8.672 -1.5408  0.4146 -1.5522
 3445TIP3    H231895   0.828   3.291   8.724  0.3368 -0.1414  1.9282
 3446TIP3   OH231896   3.728   0.028   8.067 -0.3606  0.3134  0.2467
 3446TIP3    H131897   3.731  -0.062   8.099 -1.6213  0.2358  0.2033
 3446TIP3    H231898   3.814   0.064   8.089 -0.3739 -0.4263  1.6598
 3447TIP3   OH231899   6.143   4.967   7.829 -0.1276 -0.0820 -0.4441
 3447TIP3    H131900   6.129   5.013   7.746 -1.6638  1.7303  0.7630
 3447TIP3    H231901   6.084   5.009   7.891  0.6434 -1.6929  1.4981
 3448TIP3   OH231902   0.016   5.158   0.295  0.0845  0.2189 -0.2036
 3448TIP3    H131903   0.056   5.073   0.280 -1.7661 -0.8612  0.7072
 3448TIP3    H231904   0.062   5.217   0.235  2.1706 -1.1574 -0.0424
 3449TIP3   OH231905   2.760   2.188   2.180 -0.3648  0.4715 -0.4266
 3449TIP3    H131906   2.713   2.270   2.191 -1.3309 -0.2565  1.2689
 3449TIP3    H231907   2.732   2.134   2.254  1.2766 -0.8970 -0.7373
 3450TIP3   OH231908   5.701   4.632   8.441  0.4310  0.6001 -0.3514
 3450TIP3    H131909   5.684   4.569   8.371  1.3209  0.3232 -0.3291
 3450TIP3    H231910   5.644   4.605   8.513  1.1815 -0.5276 -0.1492
 3451TIP3   OH231911   1.451   5.430   0.029 -0.5261 -0.8507 -0.0443
 3451TIP3    H131912   1.501   5.504   0.064 -0.3594 -1.8267  1.9187
 3451TIP3    H231913   1.515   5.360   0.018 -1.1801 -1.6635  1.1184
 3452TIP3   OH231914   5.194   1.978   6.985 -0.6191  0.1177 -0.9377
 3452TIP3    H131915   5.221   2.022   6.904 -1.6803 -1.0965 -1.9899
 3452TIP3    H231916   5.258   1.909   6.997 -1.4044 -0.7720 -1.7039
 3453TIP3   OH231917   0.270   2.054   1.201 -0.1356 -0.0720  1.0595
 3453TIP3    H131918   0.299   1.971   1.237  1.0053  0.6708  1.9331
 3453TIP3    H231919   0.311   2.059   1.114 -0.8258 -0.7311  0.6808
 3454TIP3   OH231920   2.629   3.704   2.381  0.1341  0.0692 -0.6601
 3454TIP3    H131921   2.572   3.634   2.414  0.6879  0.0092  0.2124
 3454TIP3    H231922   2.700   3.658   2.337  0.7842  0.0412  0.3821
 3455TIP3   OH231923   4.875   1.386   1.775 -0.4410  0.4624  0.3066
 3455TIP3    H131924   4.788   1.360   1.747 -0.3801  0.1705  0.3872
 3455TIP3    H231925   4.934   1.350   1.709 -0.3256  0.0651  0.6276
 3456TIP3   OH231926   6.415   3.367   8.095 -0.1431 -0.0250  0.3073
 3456TIP3    H131927   6.405   3.274   8.114  1.6439 -0.7240 -1.6913
 3456TIP3    H231928   6.440   3.370   8.002 -1.7093  2.5691 -0.1556
 3457TIP3   OH231929   1.482   4.516   1.587 -0.2491  0.1381 -0.0808
 3457TIP3    H131930   1.467   4.549   1.675 -2.2844  1.6805 -0.9097
 3457TIP3    H231931   1.402   4.539   1.539  0.8905 -0.4067 -2.4043
 3458TIP3   OH231932   3.069   1.738   8.202  0.5469 -0.0341 -0.3260
 3458TIP3    H131933   3.028   1.824   8.187  1.6504  0.5257 -0.2394
 3458TIP3    H231934   3.103   1.712   8.117  0.2145 -0.3963 -0.3517
 3459TIP3   OH231935   1.289   5.672   8.442  0.1447  0.1957 -0.0656
 3459TIP3    H131936   1.239   5.680   8.361 -0.3764  1.6229  0.3668
 3459TIP3    H231937   1.280   5.580   8.466 -1.5240  0.2119 -0.4909
 3460TIP3   OH231938   0.999   4.353   2.072 -0.5908 -0.1760  0.1223
 3460TIP3    H131939   1.003   4.263   2.042  1.7643 -0.0809 -0.0074
 3460TIP3    H231940   1.010   4.348   2.167 -1.3178 -0.0546  0.2212
 3461TIP3   OH231941   6.457   1.287   1.951  0.6419 -0.0531  0.0138
 3461TIP3    H131942   6.493   1.235   2.023 -0.2331 -0.4544  0.1754
 3461TIP3    H231943   6.418   1.223   1.892 -2.5433  0.4684  1.3640
 3462TIP3   OH231944   4.753   6.462   7.546 -0.4830  1.0232 -0.1078
 3462TIP3    H131945   4.791   6.417   7.472  1.2297  0.4731  1.0497
 3462TIP3    H231946   4.709   6.538   7.508  0.1570  0.6361 -1.6875
 3463TIP3   OH231947   5.602   3.630   6.242  0.7589 -0.3993 -0.6017
 3463TIP3    H131948   5.666   3.701   6.245  0.1896  0.1036 -0.0654
 3463TIP3    H231949   5.615   3.582   6.324  1.0369 -0.8227 -0.8916
 3464TIP3   OH231950   4.173   1.327   6.810  0.2167  0.6208  0.5022
 3464TIP3    H131951   4.166   1.266   6.884 -1.8505  1.4058  1.0323
 3464TIP3    H231952   4.202   1.409   6.849  1.5201  0.4057  0.0262
 3465TIP3   OH231953   6.053   3.579   2.245 -0.3581  0.3052  0.2568
 3465TIP3    H131954   6.002   3.614   2.172  1.9657 -1.0271 -2.1901
 3465TIP3    H231955   6.040   3.484   2.241  3.4876 -0.3293 -1.6781
 3466TIP3   OH231956   1.200   3.566   8.541 -0.6333 -0.0239 -0.1250
 3466TIP3    H131957   1.155   3.602   8.617 -0.2162  0.0920  0.0664
 3466TIP3    H231958   1.240   3.485   8.572  0.9834  0.8752  0.2399
 3467TIP3   OH231959   5.206   4.481   0.222  0.2768  1.0313 -0.3598
 3467TIP3    H131960   5.289   4.441   0.197  0.2909  0.5637  0.4013
 3467TIP3    H231961   5.165   4.506   0.139  1.0569  1.0256 -0.7472
 3468TIP3   OH231962   2.086   5.603   0.850  0.5715 -0.5658 -0.3116
 3468TIP3    H131963   2.100   5.681   0.904  0.1766 -0.7507  0.0660
 3468TIP3    H231964   2.172   5.581   0.815  0.7057 -0.0311 -0.3200
 3469TIP3   OH231965   1.576   0.307   0.700 -0.4914 -0.3246  0.3625
 3469TIP3    H131966   1.644   0.272   0.758 -0.6881 -1.6084 -0.1423
 3469TIP3    H231967   1.563   0.397   0.729 -1.8634 -1.4131  3.5033
 3470TIP3   OH231968   2.315   4.866   6.841 -0.0207 -0.0133 -0.5539
 3470TIP3    H131969   2.388   4.846   6.900 -0.7494 -0.4940  0.2083
 3470TIP3    H231970   2.310   4.789   6.784  0.0891  0.0333 -0.6264
 3471TIP3   OH231971   6.062   3.843   8.330 -0.1614 -0.5395  0.1196
 3471TIP3    H131972   6.130   3.902   8.300  0.4679 -1.0864  0.4368
 3471TIP3    H231973   6.083   3.827   8.422 -0.6607 -0.7893  0.1954
 3472TIP3   OH231974   2.820   3.347   0.879 -0.0351  0.0667 -0.4624
 3472TIP3    H131975   2.864   3.276   0.926 -0.7549 -0.5572 -0.7222
 3472TIP3    H231976   2.848   3.427   0.925  1.2792 -0.3235 -0.5550
 3473TIP3   OH231977   1.925   2.791   0.678 -1.2182 -0.2265 -0.0147
 3473TIP3    H131978   1.996   2.795   0.741 -1.8836 -1.1904  0.8127
 3473TIP3    H231979   1.958   2.838   0.601 -0.5971  1.4202  1.2216
 3474TIP3   OH231980   0.365   2.895   2.191 -0.4193  0.2995 -0.2022
 3474TIP3    H131981   0.301   2.960   2.219 -2.3662  0.0617 -3.5368
 3474TIP3    H231982   0.316   2.813   2.186 -0.2758  0.2701 -3.6561
 3475TIP3   OH231983   2.458   2.310   7.214 -0.2503 -0.2984  0.4931
 3475TIP3    H131984   2.425   2.362   7.141 -2.0592 -2.3711 -0.2639
 3475TIP3    H231985   2.398   2.236   7.221  0.0398 -0.3872  3.9051
 3476TIP3   OH231986   0.698   2.732   8.408 -0.3622  0.2570 -0.0963
 3476TIP3    H131987   0.616   2.742   8.456  0.8051  1.5272  1.7415
 3476TIP3    H231988   0.713   2.637   8.406 -1.4349  0.0701  0.2991
 3477TIP3   OH231989   3.813   0.796   0.111  0.1148  0.0463 -0.2960
 3477TIP3    H131990   3.850   0.789   0.023  2.4578  2.8761  0.3111
 3477TIP3    H231991   3.764   0.878   0.110  1.7250  1.1120  1.4548
 3478TIP3   OH231992   6.102   0.783   7.102 -0.1169  0.3282  0.7275
 3478TIP3    H131993   6.153   0.827   7.034 -0.3900 -1.1488 -0.5039
 3478TIP3    H231994   6.127   0.827   7.183  1.2598  1.2561 -0.1501
 3479TIP3   OH231995   4.044   3.760   6.446  0.0452 -0.6554  0.5238
 3479TIP3    H131996   4.049   3.676   6.400 -0.3789  0.1122 -0.9600
 3479TIP3    H231997   4.129   3.769   6.488  0.7701 -0.9910 -0.8174
 3480TIP3   OH231998   0.625   0.839   0.554  0.0219 -0.4968 -0.5703
 3480TIP3    H131999   0.590   0.792   0.478 -1.6042 -0.2449 -0.0047
 3480TIP3    H232000   0.664   0.919   0.517 -0.4626 -0.5299 -1.1688
 3481TIP3   OH232001   3.223   4.193   7.464 -0.4692 -0.2120  0.3193
 3481TIP3    H132002   3.162   4.228   7.529 -3.6661  0.1011 -2.6028
 3481TIP3    H232003   3.205   4.099   7.463 -0.2133 -0.2591  0.0664
 3482TIP3   OH232004   2.099   2.509   8.152 -0.0016  0.3862 -0.0902
 3482TIP3    H132005   2.181   2.557   8.148  0.6334 -0.6761 -0.3167
 3482TIP3    H232006   2.060   2.520   8.065  0.2654  0.2971 -0.2243
 3483TIP3   OH232007   1.798   0.595   1.385 -0.5649 -0.2394  0.3224
 3483TIP3    H132008   1.731   0.663   1.393  0.5784  1.5523 -3.0646
 3483TIP3    H232009   1.785   0.559   1.297  1.1195 -1.8939  0.6750
 3484TIP3   OH232010   2.393   6.715   1.174 -0.2988 -0.2400 -0.2836
 3484TIP3    H132011   2.301   6.727   1.199 -0.0259  0.1679  0.5647
 3484TIP3    H232012   2.429   6.659   1.243 -0.4429 -2.3793 -1.8197
 3485TIP3   OH232013   3.369   0.889   1.134 -0.8978 -0.0565  0.7170
 3485TIP3    H132014   3.403   0.925   1.052 -2.8099  0.9735  0.3176
 3485TIP3    H232015   3.416   0.936   1.202 -0.3329  0.1341  0.2039
 3486TIP3   OH232016   1.048   0.954   2.797  0.3810  0.1388  0.1534
 3486TIP3    H132017   0.959   0.951   2.830  0.9897 -0.5327  1.8498
 3486TIP3    H232018   1.102   0.977   2.873  1.6545  0.5867 -0.8400
 3487TIP3   OH232019   2.609   3.009   0.339 -0.4904 -0.4564  1.2330
 3487TIP3    H132020   2.637   3.101   0.343  1.4167 -0.9123 -0.1006
 3487TIP3    H232021   2.558   3.003   0.259 -0.3665 -0.6075  1.1653
 3488TIP3   OH232022   4.246   3.221   2.353 -0.2446  0.1117  0.0143
 3488TIP3    H132023   4.324   3.268   2.382 -0.9844  1.3116  0.1353
 3488TIP3    H232024   4.270   3.129   2.360  0.5819  0.4043  1.6944
 3489TIP3   OH232025   1.153   5.667   7.343 -0.1273  0.0850 -0.7106
 3489TIP3    H132026   1.079   5.650   7.284  1.5877  0.1598 -3.0321
 3489TIP3    H232027   1.212   5.593   7.329 -0.0107 -0.2950  1.5697
 3490TIP3   OH232028   5.476   2.388   6.707  0.2968 -0.0940  0.4648
 3490TIP3    H132029   5.417   2.424   6.641 -1.3085  0.2153  1.9829
 3490TIP3    H232030   5.508   2.307   6.669 -0.9624 -0.1763 -0.5072
 3491TIP3   OH232031   0.320   0.829   8.602 -0.0476 -0.3013 -0.2223
 3491TIP3    H132032   0.259   0.896   8.573  0.5713 -0.0575 -1.0132
 3491TIP3    H232033   0.323   0.838   8.697 -1.4590 -0.5271 -0.1429
 3492TIP3   OH232034   5.257   4.103   1.577 -1.1159  0.2233  0.3626
 3492TIP3    H132035   5.343   4.127   1.612 -1.1352 -1.0115  1.3444
 3492TIP3    H232036   5.276   4.033   1.515 -1.3983 -0.0134  0.5425
 3493TIP3   OH232037   0.972   2.890   1.715  0.1681  0.1002  0.2486
 3493TIP3    H132038   1.067   2.879   1.705  0.3334  0.1891  1.4881
 3493TIP3    H232039   0.964   2.953   1.787 -0.8366  0.0227  0.2068
 3494TIP3   OH232040   3.939   4.210   6.721  0.4684  0.0691 -0.0015
 3494TIP3    H132041   3.948   4.118   6.698  1.0905 -0.1601  1.0724
 3494TIP3    H232042   3.852   4.235   6.691 -0.1037 -1.1488  0.5906
 3495TIP3   OH232043   1.607   0.864   6.689 -0.1003 -0.0185  0.1503
 3495TIP3    H132044   1.690   0.890   6.729 -0.0148 -1.2118  0.7938
 3495TIP3    H232045   1.616   0.887   6.597  0.1977  1.6112  0.5604
 3496TIP3   OH232046   3.738   4.141   7.756 -1.0117 -0.3043 -0.1399
 3496TIP3    H132047   3.794   4.105   7.825 -0.0197 -1.7425 -1.6157
 3496TIP3    H232048   3.742   4.076   7.686 -4.1028 -0.1984 -0.5593
 3497TIP3   OH232049   2.732   4.175   6.362  0.0322 -0.3093  0.4336
 3497TIP3    H132050   2.818   4.189   6.323  0.3965 -0.2942  1.2157
 3497TIP3    H232051   2.743   4.095   6.414 -0.1470  0.2373  1.3162
 3498TIP3   OH232052   1.612   5.479   1.275 -0.2009  0.1812 -0.1199
 3498TIP3    H132053   1.555   5.556   1.266 -1.5511 -0.5197  1.7868
 3498TIP3    H232054   1.682   5.507   1.333  0.0162  0.3456 -0.4639
 3499TIP3   OH232055   2.486   0.129   2.552 -0.0520  0.4901  0.1384
 3499TIP3    H132056   2.504   0.051   2.605 -1.4643 -0.4962 -0.7801
 3499TIP3    H232057   2.513   0.202   2.608 -0.3472 -0.5627  1.7249
 3500TIP3   OH232058   0.379   3.998   7.459  0.4383  0.4071  0.2006
 3500TIP3    H132059   0.287   4.024   7.466  0.5556  1.2115 -1.0116
 3500TIP3    H232060   0.389   3.969   7.368  0.8830 -1.7733  0.8819
 3501TIP3   OH232061   1.928   6.636   2.602  0.5230  0.3500 -0.0988
 3501TIP3    H132062   1.965   6.578   2.535 -0.9659  0.4809 -1.0779
 3501TIP3    H232063   1.854   6.679   2.559 -0.5632  0.3467  1.6598
 3502TIP3   OH232064   5.788   3.899   2.187  0.4476 -0.4837  0.2556
 3502TIP3    H132065   5.846   3.926   2.116 -0.2284  0.2285 -0.0506
 3502TIP3    H232066   5.702   3.932   2.161 -0.0959 -1.4877  0.7095
 3503TIP3   OH232067   5.237   3.821   7.932 -0.6835 -0.3624  0.5123
 3503TIP3    H132068   5.198   3.908   7.925 -0.2256 -0.0866  1.2894
 3503TIP3    H232069   5.243   3.790   7.841 -1.3125  0.2037  0.2698
 3504TIP3   OH232070   6.338   5.883   7.996 -0.0498  0.1944  0.0166
 3504TIP3    H132071   6.414   5.872   7.939 -1.1701 -1.5121 -1.2597
 3504TIP3    H232072   6.281   5.944   7.949 -0.0063  0.5055  0.3681
 3505TIP3   OH232073   1.944   3.413   2.123  0.2085 -0.0899  0.7774
 3505TIP3    H132074   2.020   3.464   2.094  0.5055 -0.1924  1.3771
 3505TIP3    H232075   1.980   3.328   2.148  0.0150  0.1181  1.8108
 3506TIP3   OH232076   5.588   5.649   0.167  0.3420 -0.0031 -0.8839
 3506TIP3    H132077   5.683   5.662   0.174  0.0568  1.8381  0.1623
 3506TIP3    H232078   5.558   5.718   0.107 -0.3703 -0.4296 -1.0338
 3507TIP3   OH232079   3.394   4.701   1.917  0.4253  0.4342 -0.5562
 3507TIP3    H132080   3.458   4.738   1.856  0.9876 -0.4334 -0.5020
 3507TIP3    H232081   3.433   4.713   2.004  1.5165 -1.9459 -0.6493
 3508TIP3   OH232082   6.461   6.506   1.655  0.5081 -0.0029 -0.1729
 3508TIP3    H132083   6.432   6.564   1.725 -0.6099  0.4683 -0.9871
 3508TIP3    H232084   6.383   6.456   1.631  0.5412  0.6533 -1.8248
 3509TIP3   OH232085   5.507   0.476   1.356  0.3747 -0.1329  0.0367
 3509TIP3    H132086   5.580   0.537   1.353 -1.9041  2.7854 -1.0059
 3509TIP3    H232087   5.527   0.410   1.290  2.7753 -0.4340  0.9721
 3510TIP3   OH232088   3.312   3.800   0.218 -0.3389 -0.3790 -0.5659
 3510TIP3    H132089   3.313   3.711   0.184 -1.2320 -0.5534 -0.1725
 3510TIP3    H232090   3.273   3.792   0.305 -0.2854  0.3699 -0.4673
 3511TIP3   OH232091   3.698   4.538   0.688  0.4106  0.1213 -0.1042
 3511TIP3    H132092   3.772   4.484   0.715  0.5415  1.0219  1.4584
 3511TIP3    H232093   3.720   4.567   0.600  0.9842 -1.2177 -0.4213
 3512TIP3   OH232094   5.867   4.085   7.610  0.0135 -0.5376  0.3007
 3512TIP3    H132095   5.928   4.156   7.592  0.4573 -0.9306  0.2348
 3512TIP3    H232096   5.895   4.050   7.695  0.4180 -1.2723 -0.1289
 3513TIP3   OH232097   5.364   2.339   0.007 -0.7147 -0.0991 -0.3619
 3513TIP3    H132098   5.454   2.371   0.003 -0.1088 -1.3402  1.6607
 3513TIP3    H232099   5.373   2.244  -0.003 -1.7572 -0.2564  0.1348
 3514TIP3   OH232100   2.115   5.478   6.639  0.0114 -0.3570 -0.5170
 3514TIP3    H132101   2.054   5.537   6.683  1.0504  1.4658 -1.3934
 3514TIP3    H232102   2.061   5.428   6.578 -0.6213  1.5070 -1.5714
 3515TIP3   OH232103   0.276   2.251   8.752  0.3844  0.3154 -0.1429
 3515TIP3    H132104   0.191   2.264   8.795  0.3175  2.8319 -0.8427
 3515TIP3    H232105   0.253   2.233   8.661  0.5552  1.3406 -0.4061
 3516TIP3   OH232106   2.924   0.629   0.942  0.5005 -0.2165  0.0173
 3516TIP3    H132107   2.954   0.673   1.021  0.1723  2.3370 -1.1691
 3516TIP3    H232108   3.003   0.620   0.888  0.0859  2.2157 -1.1526
 3517TIP3   OH232109   4.364   2.901   0.050 -1.0472  0.5651  0.1217
 3517TIP3    H132110   4.286   2.935   0.006 -1.8965 -0.6304  0.6442
 3517TIP3    H232111   4.437   2.927  -0.006 -1.9957  0.0404 -1.4252
 3518TIP3   OH232112   1.185   1.384   1.733 -0.0336  0.1058 -0.0816
 3518TIP3    H132113   1.219   1.300   1.764 -0.1542 -0.6346 -1.8283
 3518TIP3    H232114   1.187   1.441   1.810  1.2298 -1.1271  0.8497
 3519TIP3   OH232115   0.290   4.527   8.218  0.0369  0.2083  0.2788
 3519TIP3    H132116   0.216   4.472   8.196  1.6862 -1.2383 -2.1173
 3519TIP3    H232117   0.323   4.492   8.300  0.2712 -1.5796 -0.5422
 3520TIP3   OH232118   1.884   1.287   8.737  0.0450  0.7233 -0.2564
 3520TIP3    H132119   1.910   1.230   8.809 -1.1580 -0.9305 -1.0631
 3520TIP3    H232120   1.887   1.375   8.773  1.4948  0.1335  1.1814
 3521TIP3   OH232121   4.938   0.184   1.289 -0.7260 -0.5527 -0.6508
 3521TIP3    H132122   4.878   0.148   1.354 -0.8884  0.4190 -0.2392
 3521TIP3    H232123   4.882   0.235   1.231 -0.4271 -0.4483 -0.8487
 3522TIP3   OH232124   1.748   0.979   8.049  0.5585  0.4105  0.5200
 3522TIP3    H132125   1.735   1.034   8.127 -0.6752  1.0286 -0.0921
 3522TIP3    H232126   1.839   0.952   8.054  0.9504  1.7752  1.3357
 3523TIP3   OH232127   6.404   4.039   0.422  0.9460  0.3475  0.4366
 3523TIP3    H132128   6.494   4.036   0.390  0.9271 -0.0715  0.4218
 3523TIP3    H232129   6.399   3.969   0.487  0.4084 -0.1715 -0.1486
 3524TIP3   OH232130   4.578   3.927   8.403 -0.3417 -0.2631  0.1032
 3524TIP3    H132131   4.644   3.868   8.440  2.6789  2.2688 -0.8805
 3524TIP3    H232132   4.589   3.918   8.309  0.3338  1.9481 -0.0662
 3525TIP3   OH232133   0.517   5.741   7.642 -0.0075  0.3490 -0.2932
 3525TIP3    H132134   0.551   5.819   7.597  0.2834  0.1221 -0.4697
 3525TIP3    H232135   0.447   5.709   7.586 -0.9842  1.1962  0.3937
 3526TIP3   OH232136   0.885   0.829   7.222  0.3399 -0.3554  0.6201
 3526TIP3    H132137   0.952   0.822   7.154  0.8913 -1.3917  1.2539
 3526TIP3    H232138   0.884   0.922   7.246  1.5632 -0.3339  0.6240
 3527TIP3   OH232139   1.593   4.434   2.215 -0.0086 -0.1435  0.0749
 3527TIP3    H132140   1.643   4.359   2.181  1.2957  1.6742 -2.4064
 3527TIP3    H232141   1.658   4.504   2.222 -1.6560  1.4961 -0.2918
 3528TIP3   OH232142   4.822   2.095   7.333 -0.7142 -0.0732  0.4247
 3528TIP3    H132143   4.852   2.137   7.413 -2.0423  1.4004  0.2019
 3528TIP3    H232144   4.881   2.128   7.265 -0.8318  0.2701  0.4873
 3529TIP3   OH232145   2.616   0.206   7.976 -0.3015  0.1594  0.2726
 3529TIP3    H132146   2.646   0.116   7.963 -3.7140 -0.9606 -1.0533
 3529TIP3    H232147   2.603   0.214   8.071  0.8699 -0.4056  0.4917
 3530TIP3   OH232148   6.145   1.978   7.009  0.3391  0.0266 -0.4141
 3530TIP3    H132149   6.101   2.063   7.002  0.4627  0.2945  1.5831
 3530TIP3    H232150   6.076   1.917   7.032  0.3464 -0.3507 -1.3316
 3531TIP3   OH232151   5.762   0.650   2.248  0.0771  0.3270  0.3672
 3531TIP3    H132152   5.690   0.686   2.196  0.3917  1.4069  0.6507
 3531TIP3    H232153   5.763   0.703   2.328  0.1777 -0.7264  1.0762
 3532TIP3   OH232154   5.119   3.205   0.226  0.2132 -0.5119  0.2362
 3532TIP3    H132155   5.192   3.249   0.183  0.7215 -1.5950 -0.0497
 3532TIP3    H232156   5.047   3.268   0.223  0.5071 -0.2124 -1.3689
 3533TIP3   OH232157   6.120   4.554   1.110 -0.7768  0.5033  0.0500
 3533TIP3    H132158   6.158   4.631   1.069 -0.6762 -0.8093 -2.5227
 3533TIP3    H232159   6.034   4.545   1.069 -0.3096 -1.3694 -0.6363
 3534TIP3   OH232160   5.723   0.425   0.869 -0.2250 -0.5158 -0.0465
 3534TIP3    H132161   5.762   0.422   0.782  0.9500 -1.3096  0.4912
 3534TIP3    H232162   5.700   0.518   0.881  1.3714 -0.0416 -0.4387
 3535TIP3   OH232163   1.144   6.317   0.541 -0.6308  0.3856  0.6439
 3535TIP3    H132164   1.196   6.253   0.493  0.2957  0.6601  1.2457
 3535TIP3    H232165   1.136   6.392   0.482 -0.1556  0.4186  0.6145
 3536TIP3   OH232166   6.748   1.959   7.178 -0.7395  0.1753 -0.1692
 3536TIP3    H132167   6.732   1.932   7.268 -0.0759  0.4741  0.0489
 3536TIP3    H232168   6.687   2.031   7.163 -2.4850 -1.3523 -0.7411
 3537TIP3   OH232169   0.304   0.263   8.046 -0.8255 -0.1238 -0.5576
 3537TIP3    H132170   0.322   0.273   8.140 -1.0809 -2.4190 -0.1872
 3537TIP3    H232171   0.352   0.334   8.005  2.2937 -1.0686  1.0791
 3538TIP3   OH232172   4.074   4.371   8.382 -0.1408 -0.1474 -0.3738
 3538TIP3    H132173   4.084   4.276   8.377 -4.3144 -0.7673 -0.3209
 3538TIP3    H232174   4.118   4.405   8.304  1.0046 -2.1313 -0.6423
 3539TIP3   OH232175   6.734   3.064   0.847 -0.0366 -0.0145 -0.1787
 3539TIP3    H132176   6.716   3.014   0.767  0.6023 -0.8428  0.1833
 3539TIP3    H232177   6.654   3.055   0.899 -0.1415 -0.1850 -0.3648
 3540TIP3   OH232178   6.381   3.015   8.724  0.1052 -0.0354  0.4741
 3540TIP3    H132179   6.473   3.005   8.749  0.2701 -0.5139 -0.2891
 3540TIP3    H232180   6.350   3.088   8.777  0.8054 -0.1493  1.0624
 3541TIP3   OH232181   0.034   3.213   7.316  0.5383  0.1908  0.5310
 3541TIP3    H132182   0.047   3.303   7.346 -1.8446  0.5466  0.6933
 3541TIP3    H232183  -0.060   3.207   7.299  0.7202 -2.1409  0.0513
 3542TIP3   OH232184   0.269   6.326   1.163  0.5980  0.2300  0.4335
 3542TIP3    H132185   0.363   6.339   1.151  0.3142  2.1580  0.0119
 3542TIP3    H232186   0.262   6.264   1.235  2.2119  1.6530  1.8969
 3543TIP3   OH232187   4.629   1.700   6.681  0.5320  0.0467  0.2332
 3543TIP3    H132188   4.642   1.676   6.589 -1.7646  1.4159 -0.5408
 3543TIP3    H232189   4.563   1.638   6.713 -1.7717  2.0412 -0.3472
 3544TIP3   OH232190   3.905   0.699   8.717 -0.0879  0.5404  0.4634
 3544TIP3    H132191   3.974   0.700   8.783 -0.5730 -1.0002  1.0362
 3544TIP3    H232192   3.920   0.618   8.668 -0.3885  1.1202 -0.6161
 3545TIP3   OH232193   1.883   5.448   1.052 -0.5627 -0.0932  0.1777
 3545TIP3    H132194   1.958   5.451   0.993 -1.8293  0.9282 -1.4864
 3545TIP3    H232195   1.834   5.370   1.024 -0.1211 -0.8148  1.3213
 3546TIP3   OH232196   2.439   1.496   7.319 -0.0606 -0.1806 -0.8599
 3546TIP3    H132197   2.378   1.458   7.383 -0.0945  0.2470 -0.6313
 3546TIP3    H232198   2.397   1.483   7.234  0.3455 -1.4564 -0.8848
 3547TIP3   OH232199   6.215   3.532   0.311  0.3995  0.1425 -0.2776
 3547TIP3    H132200   6.265   3.451   0.302 -0.9849 -0.7931  0.0720
 3547TIP3    H232201   6.193   3.536   0.404  1.4297  1.5558 -0.0626
 3548TIP3   OH232202   5.406   0.892   0.418  0.2990  0.5811 -0.1630
 3548TIP3    H132203   5.382   0.920   0.330 -0.7973 -1.0665 -0.4396
 3548TIP3    H232204   5.343   0.934   0.475  0.0549  0.4630 -0.3406
 3549TIP3   OH232205   6.438   0.133   2.450  0.4558  0.5436  0.2030
 3549TIP3    H132206   6.394   0.098   2.528  1.0129  0.3814  0.4471
 3549TIP3    H232207   6.443   0.227   2.466 -0.2718  0.6356 -0.0663
 3550TIP3   OH232208   0.326   4.042   8.812  0.0089 -0.0761  0.7728
 3550TIP3    H132209   0.391   4.095   8.766 -0.3114  0.1642  0.5914
 3550TIP3    H232210   0.323   4.080   8.900  1.6197 -1.3933  1.4552
 3551TIP3   OH232211   6.564   2.938   7.959  0.1966 -0.1678  0.0442
 3551TIP3    H132212   6.550   2.912   7.868  0.4152  1.4198 -0.4872
 3551TIP3    H232213   6.605   2.862   8.001 -3.6404 -2.5215 -0.0414
 3552TIP3   OH232214   1.117   6.115   8.374  0.3327 -0.0879 -0.3525
 3552TIP3    H132215   1.073   6.043   8.330 -1.6202  0.9355 -0.1995
 3552TIP3    H232216   1.082   6.113   8.463  1.3822  0.1655  0.0830
 3553TIP3   OH232217   6.564   6.178   2.939  0.5517  0.2360  0.1939
 3553TIP3    H132218   6.598   6.266   2.958  0.4265  0.3382 -0.0547
 3553TIP3    H232219   6.637   6.132   2.900  0.3559  0.5115 -0.5056
 3554TIP3   OH232220   4.819   4.290   6.603  0.1693  0.6922 -0.5316
 3554TIP3    H132221   4.869   4.219   6.563  0.1247  0.4610 -0.1764
 3554TIP3    H232222   4.807   4.354   6.532  0.0475  0.2647 -0.8980
 3555TIP3   OH232223   5.921   4.720   7.664  0.4187 -0.0091  0.0765
 3555TIP3    H132224   5.962   4.806   7.655  0.0761 -0.0011 -2.0858
 3555TIP3    H232225   5.969   4.678   7.735  1.8636  1.2812 -0.0716
 3556TIP3   OH232226   4.609   4.791   7.804  0.4836 -0.4992 -0.3117
 3556TIP3    H132227   4.679   4.805   7.740  1.1018 -1.1746  0.2093
 3556TIP3    H232228   4.608   4.696   7.818  1.5114 -0.2239  1.9604
 3557TIP3   OH232229   4.382   3.453   8.818 -0.7173  0.5328 -0.2703
 3557TIP3    H132230   4.415   3.524   8.764  2.0114  1.7581  2.7141
 3557TIP3    H232231   4.320   3.495   8.878 -0.3639  0.0668  0.4305
 3558TIP3   OH232232   3.291   2.320   8.605  0.0911  0.6935  0.1378
 3558TIP3    H132233   3.347   2.278   8.540 -2.7033 -0.3054 -1.8298
 3558TIP3    H232234   3.239   2.248   8.641 -0.6003  1.6885  1.2132
 3559TIP3   OH232235   5.502   5.543   2.734  0.1482 -0.9635  0.7095
 3559TIP3    H132236   5.521   5.636   2.722 -2.5051 -0.6795 -2.4901
 3559TIP3    H232237   5.561   5.498   2.673 -1.1945 -1.0025 -0.6072
 3560TIP3   OH232238   2.547   4.157   7.793  0.4552  0.9710 -0.0395
 3560TIP3    H132239   2.506   4.221   7.850 -1.8063  1.2200 -1.7848
 3560TIP3    H232240   2.525   4.186   7.705 -0.7970 -2.2007 -0.9074
 3561TIP3   OH232241   5.603   3.854   1.860  0.0473  0.1804 -0.4921
 3561TIP3    H132242   5.614   3.790   1.790 -0.1437  0.2598 -0.5932
 3561TIP3    H232243   5.509   3.857   1.876  0.1985 -1.0441  0.8832
 3562TIP3   OH232244   6.280   4.498   0.151 -0.1057  0.3258  1.1090
 3562TIP3    H132245   6.323   4.425   0.195  0.8405 -1.3724 -2.2643
 3562TIP3    H232246   6.344   4.529   0.087 -2.6011 -0.1224 -1.8539
 3563TIP3   OH232247   3.725   3.266   8.339 -0.2635  0.0551  0.2590
 3563TIP3    H132248   3.751   3.355   8.315 -0.5895  0.4298  1.2214
 3563TIP3    H232249   3.675   3.277   8.420  2.5057 -1.2814  2.3286
 3564TIP3   OH232250   4.448   4.875   8.167  0.4463 -1.0161  0.1726
 3564TIP3    H132251   4.507   4.822   8.220  2.0899  2.0217  1.5593
 3564TIP3    H232252   4.504   4.938   8.122 -1.5264  0.7154 -0.0443
 3565TIP3   OH232253   4.291   0.120   8.033 -0.3172 -1.0275  0.2268
 3565TIP3    H132254   4.320   0.190   8.091 -0.0173 -0.7867 -0.2152
 3565TIP3    H232255   4.270   0.048   8.093  1.2183 -1.2317  0.5818
 3566TIP3   OH232256   0.634   3.099   1.674 -0.3025  0.5982 -0.2916
 3566TIP3    H132257   0.545   3.095   1.709 -0.0041  0.3747  0.4560
 3566TIP3    H232258   0.685   3.142   1.743  0.5792 -1.0543  0.1468
 3567TIP3   OH232259   3.205   1.624   8.415 -0.7308 -0.5338  0.2124
 3567TIP3    H132260   3.175   1.649   8.327  0.9729 -0.0878 -0.2629
 3567TIP3    H232261   3.261   1.696   8.443  0.1579 -1.4755  0.9270
 3568TIP3   OH232262   3.641   0.156   1.714  0.0871  0.1311 -0.3024
 3568TIP3    H132263   3.652   0.250   1.699 -1.7618  0.4980  0.4082
 3568TIP3    H232264   3.642   0.147   1.809  1.3225 -0.7344 -0.3816
 3569TIP3   OH232265   5.814   5.430   6.971  0.1957 -0.1598 -0.3966
 3569TIP3    H132266   5.721   5.410   6.967  0.0262  0.1796  1.1902
 3569TIP3    H232267   5.819   5.525   6.955  0.4277 -0.4002 -1.8949
 3570TIP3   OH232268   1.529   6.081   1.465 -0.1105 -1.0242  0.1788
 3570TIP3    H132269   1.595   6.057   1.400 -1.4235 -1.1024 -1.1838
 3570TIP3    H232270   1.562   6.163   1.503  1.0453 -1.3678 -0.0377
 3571TIP3   OH232271   0.373   1.965   7.619  0.0090 -0.2038  0.2689
 3571TIP3    H132272   0.466   1.959   7.638  0.4800  1.0613 -1.4046
 3571TIP3    H232273   0.330   1.932   7.699  1.8418  0.5726  1.6525
 3572TIP3   OH232274   3.274   4.525   1.732 -0.1599 -0.6283  0.3454
 3572TIP3    H132275   3.316   4.580   1.799 -2.7358 -0.3508  1.9026
 3572TIP3    H232276   3.195   4.574   1.708 -0.8182 -2.1371 -0.7107
 3573TIP3   OH232277   5.262   1.903   7.940 -0.1592  0.1554  0.6150
 3573TIP3    H132278   5.287   1.813   7.919 -0.4253  0.0516  0.7490
 3573TIP3    H232279   5.188   1.895   7.999 -0.5361  0.4665  0.1970
 3574TIP3   OH232280   6.626   4.788   0.253  0.1416  0.0583  0.2632
 3574TIP3    H132281   6.578   4.761   0.174  0.5685 -0.5397  0.2022
 3574TIP3    H232282   6.563   4.840   0.303 -0.0354  0.7099 -0.6187
 3575TIP3   OH232283   3.369   4.881   0.017 -0.0611 -0.0036 -0.1096
 3575TIP3    H132284   3.403   4.798   0.052  0.1219  0.2869  0.4129
 3575TIP3    H232285   3.420   4.949   0.062  0.6875  0.3745 -1.4964
 3576TIP3   OH232286   1.553   2.538   0.801 -0.2160 -0.2324 -0.5031
 3576TIP3    H132287   1.591   2.625   0.792 -1.2676  0.2287 -0.6531
 3576TIP3    H232288   1.474   2.551   0.853  0.6279 -1.4058  1.1922
 3577TIP3   OH232289   5.670   3.776   8.359 -0.1657 -0.5279  0.5613
 3577TIP3    H132290   5.727   3.824   8.297  1.6182 -1.3606  1.4784
 3577TIP3    H232291   5.666   3.687   8.324  0.1628 -0.7933  1.1802
 3578TIP3   OH232292   4.714   1.906   7.736 -0.0117  0.0543  0.1966
 3578TIP3    H132293   4.713   1.890   7.641 -1.4079  0.0096  0.1855
 3578TIP3    H232294   4.718   2.001   7.744 -1.3934  0.1491  0.0350
 3579TIP3   OH232295   1.215   3.697   1.061  0.0109  0.4602  0.0812
 3579TIP3    H132296   1.233   3.705   0.967  2.6054  1.5430  0.5873
 3579TIP3    H232297   1.121   3.711   1.069 -0.6919 -1.9142 -2.5437
 3580TIP3   OH232298   0.436   6.160   7.831 -0.4328  0.1150 -0.4158
 3580TIP3    H132299   0.361   6.141   7.888  0.3472 -1.4828  0.1172
 3580TIP3    H232300   0.419   6.111   7.751  1.1221 -2.2621  0.6009
 3581TIP3   OH232301   5.161   1.911   8.664 -0.4041 -0.2129 -0.0979
 3581TIP3    H132302   5.074   1.872   8.673 -0.0861 -0.8654  0.2369
 3581TIP3    H232303   5.214   1.842   8.623 -0.4126  0.7190 -1.7671
 3582TIP3   OH232304   6.310   3.180   6.572 -0.7337  0.6833  0.0530
 3582TIP3    H132305   6.242   3.152   6.634 -0.6925  1.3448  0.4146
 3582TIP3    H232306   6.285   3.270   6.550 -0.0197  0.9052  0.1332
 3583TIP3   OH232307   2.960   1.877   6.349 -0.5100  0.3211  0.3195
 3583TIP3    H132308   3.052   1.854   6.358 -0.3469  0.9501  0.2943
 3583TIP3    H232309   2.914   1.793   6.348 -0.1044  0.0516  2.1285
 3584TIP3   OH232310   6.071   6.453   8.045 -0.8348  0.1063  0.2435
 3584TIP3    H132311   6.123   6.373   8.036 -0.9790  0.0426 -0.0456
 3584TIP3    H232312   6.029   6.464   7.960 -2.8170 -0.8917  1.0431
 3585TIP3   OH232313   0.692   5.427   7.383 -0.1119  0.4822 -0.1241
 3585TIP3    H132314   0.621   5.411   7.321 -0.5180 -1.0271  0.6927
 3585TIP3    H232315   0.769   5.442   7.328 -0.8224  0.9554 -1.0029
 3586TIP3   OH232316   0.526   2.613   8.016 -0.5813 -0.2898  0.2679
 3586TIP3    H132317   0.490   2.698   7.991 -0.3181  0.1414  1.3040
 3586TIP3    H232318   0.487   2.551   7.955  0.0610  0.7114 -1.2022
 3587TIP3   OH232319   4.310   0.865   0.700 -0.5675 -0.2215 -0.0320
 3587TIP3    H132320   4.239   0.823   0.750 -1.3934  1.6624  0.4640
 3587TIP3    H232321   4.353   0.923   0.764  1.0034 -0.8061 -0.5084
 3588TIP3   OH232322   4.591   5.411   1.306  0.1618 -0.3244  0.3310
 3588TIP3    H132323   4.594   5.369   1.219 -1.2915  1.2494 -0.5248
 3588TIP3    H232324   4.675   5.457   1.313 -0.1636  0.4592 -0.7411
 3589TIP3   OH232325   1.655   3.883   0.770 -0.0206 -0.0064 -0.9129
 3589TIP3    H132326   1.636   3.941   0.844 -1.9331  0.1649 -1.4884
 3589TIP3    H232327   1.580   3.824   0.766 -0.2297  0.3256 -3.0406
 3590TIP3   OH232328   1.319   0.731   2.042 -0.0627  0.7534  0.2269
 3590TIP3    H132329   1.234   0.727   2.086 -0.4795 -0.6907 -0.6571
 3590TIP3    H232330   1.382   0.714   2.112 -0.5077  1.4232  0.8089
 3591TIP3   OH232331   0.758   4.070   2.140  0.5048  0.6509 -0.1560
 3591TIP3    H132332   0.777   4.161   2.164  1.6342  0.9595 -2.0110
 3591TIP3    H232333   0.842   4.036   2.108 -0.5396 -0.1482 -2.1727
 3592TIP3   OH232334   1.993   4.709   7.738  1.5332 -0.1360  0.3789
 3592TIP3    H132335   2.048   4.787   7.726 -1.0595  1.9260  0.8986
 3592TIP3    H232336   2.018   4.676   7.824  3.3058 -0.4715 -0.2281
 3593TIP3   OH232337   1.479   2.162   0.517  0.0843  0.3216 -0.0414
 3593TIP3    H132338   1.415   2.132   0.581  0.8846 -2.3589 -0.3654
 3593TIP3    H232339   1.531   2.228   0.562 -1.1829  0.5850  1.0806
 3594TIP3   OH232340   4.753   2.915   0.322  0.3257 -0.1422  0.1243
 3594TIP3    H132341   4.680   2.862   0.293 -0.7625  0.5395  1.5194
 3594TIP3    H232342   4.736   3.002   0.286  0.2461  0.1072  0.7481
 3595TIP3   OH232343   3.525   6.683   8.775 -0.5981  0.4798  0.1805
 3595TIP3    H132344   3.597   6.677   8.838  0.5217 -1.5954 -1.1869
 3595TIP3    H232345   3.446   6.676   8.828  0.3085 -3.5536  1.3203
 3596TIP3   OH232346   0.332   3.826   1.112 -0.8733  0.8798 -0.8829
 3596TIP3    H132347   0.394   3.862   1.174 -0.3213  1.3797 -1.7114
 3596TIP3    H232348   0.269   3.897   1.096 -1.7794  0.3250  0.0788
 3597TIP3   OH232349   4.856   5.389   8.243 -0.1249 -0.1022 -0.2405
 3597TIP3    H132350   4.846   5.316   8.182  1.5080  2.0662 -3.3542
 3597TIP3    H232351   4.909   5.353   8.314 -2.8819 -2.9768  0.5879
 3598TIP3   OH232352   0.387   5.171   7.413  0.2652  0.2047 -0.2185
 3598TIP3    H132353   0.466   5.132   7.451 -0.9898 -0.2714  2.1027
 3598TIP3    H232354   0.379   5.132   7.326  2.1642 -0.2679 -0.2212
 3599TIP3   OH232355   5.920   5.282   7.731 -0.6116  0.0602  0.0023
 3599TIP3    H132356   5.837   5.303   7.773 -0.1813  1.1710  0.3301
 3599TIP3    H232357   5.985   5.333   7.779  0.3208 -1.0726 -0.0198
 3600TIP3   OH232358   5.704   6.072   0.745  0.0633 -0.3953 -0.0541
 3600TIP3    H132359   5.646   6.095   0.673 -0.0767 -1.5218 -0.3265
 3600TIP3    H232360   5.693   6.142   0.809  0.5508  0.8578 -1.3161
 3601TIP3   OH232361   3.936   4.755   6.499  0.2634  0.3936 -0.1004
 3601TIP3    H132362   3.966   4.840   6.531  0.4631 -0.0019  0.8016
 3601TIP3    H232363   4.008   4.723   6.444 -0.2152  1.2199 -1.2435
 3602TIP3   OH232364   0.111   2.928   0.464  0.3687 -0.2265  0.0400
 3602TIP3    H132365   0.139   2.935   0.372 -1.2189  1.0623 -0.3797
 3602TIP3    H232366   0.102   3.018   0.493  0.7373 -0.6238  1.4570
 3603TIP3   OH232367   4.564   4.605   0.258 -0.2297  0.2030 -0.2382
 3603TIP3    H132368   4.565   4.624   0.352  0.1003 -1.1520  0.0539
 3603TIP3    H232369   4.534   4.514   0.252  2.9977 -0.9414 -1.1565
 3604TIP3   OH232370   6.646   1.667   7.634  0.2572 -0.4002  0.2076
 3604TIP3    H132371   6.610   1.687   7.548  0.6467 -0.9158 -0.0825
 3604TIP3    H232372   6.605   1.730   7.693 -0.4391 -0.4070 -0.2627
 3605TIP3   OH232373   1.366   1.409   0.250  0.0402 -0.0841 -0.2904
 3605TIP3    H132374   1.448   1.457   0.235 -0.1119 -0.6629 -3.8870
 3605TIP3    H232375   1.312   1.470   0.301  2.4079  0.5661  1.6049
 3606TIP3   OH232376   5.580   4.507   7.922 -0.2949 -0.6609  0.3757
 3606TIP3    H132377   5.502   4.460   7.954 -0.9843  0.7728  0.8758
 3606TIP3    H232378   5.652   4.445   7.935 -1.3611 -2.0975 -0.2899
 3607TIP3   OH232379   3.745   4.857   7.006  0.2451 -0.4450  0.2785
 3607TIP3    H132380   3.706   4.941   7.029 -2.9519 -1.7028 -0.1052
 3607TIP3    H232381   3.757   4.861   6.911 -1.0852 -0.8076  0.0708
 3608TIP3   OH232382   3.132   6.242   0.538  0.3366  0.1009 -0.6303
 3608TIP3    H132383   3.227   6.236   0.544  0.2078 -1.0942  0.6497
 3608TIP3    H232384   3.112   6.331   0.567  0.8620 -0.7497  2.7504
 3609TIP3   OH232385   1.274   3.183   8.855  0.0538  0.4610 -0.3624
 3609TIP3    H132386   1.284   3.254   8.792 -1.6376  0.4193 -0.7243
 3609TIP3    H232387   1.309   3.218   8.937  0.8390  1.0666 -0.9347
 3610TIP3   OH232388   0.381   4.462   7.308 -0.1088  0.3370  0.1372
 3610TIP3    H132389   0.464   4.510   7.322  0.2604 -0.4091  0.5730
 3610TIP3    H232390   0.393   4.419   7.224 -0.0210  0.1649  0.2378
 3611TIP3   OH232391   5.409   6.581   6.883  0.1591  0.3865 -0.0341
 3611TIP3    H132392   5.444   6.608   6.799 -1.4769  1.6959 -0.3507
 3611TIP3    H232393   5.482   6.537   6.927  1.6552  1.5129 -1.2868
 3612TIP3   OH232394   0.436   2.025   8.420 -0.1914 -0.3772  0.4111
 3612TIP3    H132395   0.465   2.072   8.498  0.9544 -0.7537  0.2278
 3612TIP3    H232396   0.469   1.935   8.432  0.4933 -0.3032 -0.7500
 3613TIP3   OH232397   0.098   0.085   8.305  0.6328 -0.4525 -0.3130
 3613TIP3    H132398   0.107   0.059   8.397 -1.0791  0.4307  0.1628
 3613TIP3    H232399   0.185   0.074   8.268  1.1020 -1.9457  1.1096
 3614TIP3   OH232400   5.402   3.881   8.380 -0.8179  0.1975  1.3306
 3614TIP3    H132401   5.479   3.825   8.375 -1.4309 -0.5707 -2.0476
 3614TIP3    H232402   5.437   3.969   8.393  1.0650  0.3089 -2.8215
 3615TIP3   OH232403   3.842   4.568   8.379  0.7255  0.1893  0.1685
 3615TIP3    H132404   3.841   4.663   8.367 -1.8157  0.0904 -1.1396
 3615TIP3    H232405   3.932   4.542   8.359  0.8774  2.0595 -1.9141
 3616TIP3   OH232406   2.576   4.344   1.168  0.1994 -0.0704 -0.1851
 3616TIP3    H132407   2.549   4.329   1.259  1.6181  1.7335  0.6016
 3616TIP3    H232408   2.500   4.384   1.127  0.5351  2.1358  1.1611
 3617TIP3   OH232409   3.351   2.500   6.754  0.4210 -0.1620 -0.1777
 3617TIP3    H132410   3.289   2.444   6.707 -0.2680  0.2739  0.1837
 3617TIP3    H232411   3.298   2.540   6.823  1.6625 -1.7304  1.7812
 3618TIP3   OH232412   4.513   3.584   0.190 -0.7626 -0.0593  0.1971
 3618TIP3    H132413   4.493   3.499   0.153 -1.7770  0.3386 -0.2024
 3618TIP3    H232414   4.528   3.640   0.114 -0.8133  0.2870  0.4399
 3619TIP3   OH232415   5.135   3.623   1.037 -0.4917 -0.2461 -0.5218
 3619TIP3    H132416   5.073   3.680   0.991 -1.6413 -1.0492 -0.0289
 3619TIP3    H232417   5.081   3.551   1.071  0.8346 -1.3708 -0.6918
 3620TIP3   OH232418   4.045   1.615   8.017 -0.0128  0.1703 -0.1987
 3620TIP3    H132419   3.985   1.688   8.029 -0.0429  0.2528 -0.8235
 3620TIP3    H232420   3.997   1.539   8.047  0.2171  0.4723  0.9901
 3621TIP3   OH232421   2.528   1.617   0.276 -0.1403 -0.1954 -0.0188
 3621TIP3    H132422   2.550   1.664   0.357  2.3852 -1.3474  0.0569
 3621TIP3    H232423   2.539   1.525   0.298 -0.8061 -0.6136 -1.3199
 3622TIP3   OH232424   6.148   6.437   0.203 -0.5581 -0.0108  0.7047
 3622TIP3    H132425   6.170   6.527   0.181 -0.1325 -0.2383  0.1498
 3622TIP3    H232426   6.232   6.393   0.213 -0.7235 -0.7316 -0.7271
 3623TIP3   OH232427   0.298   0.581   8.438 -0.0491 -1.1197 -0.2233
 3623TIP3    H132428   0.347   0.663   8.442  0.0938 -1.1038 -1.7199
 3623TIP3    H232429   0.275   0.562   8.529 -0.4837  0.8080  0.1129
 3624TIP3   OH232430   2.047   3.174   8.856  0.4292  0.6688 -0.2343
 3624TIP3    H132431   1.995   3.249   8.827  1.4035  1.2654 -0.5198
 3624TIP3    H232432   2.020   3.160   8.946 -2.5849 -1.1492 -1.2766
 3625TIP3   OH232433   4.302   1.784   8.369  0.7810  0.2574  0.2869
 3625TIP3    H132434   4.309   1.866   8.319  0.3808  0.0265 -0.1540
 3625TIP3    H232435   4.304   1.715   8.302 -0.9582 -0.0165  0.4696
 3626TIP3   OH232436   4.163   6.228   7.701  0.1303 -0.0177 -0.5459
 3626TIP3    H132437   4.252   6.206   7.727 -0.3814  0.5671  2.0578
 3626TIP3    H232438   4.141   6.304   7.755 -2.2042 -0.6506 -0.4940
 3627TIP3   OH232439   4.939   0.723   2.185 -0.4227 -0.1734  0.1926
 3627TIP3    H132440   4.932   0.776   2.106  0.8722 -0.5574 -0.1973
 3627TIP3    H232441   4.995   0.774   2.243 -0.4868 -0.3861  0.4432
 3628TIP3   OH232442   0.651   0.689   1.264  0.0463 -0.0344 -0.7886
 3628TIP3    H132443   0.692   0.698   1.178 -0.0697 -0.8629 -0.9439
 3628TIP3    H232444   0.560   0.712   1.251  0.3007  1.1437 -0.5901
 3629TIP3   OH232445   1.357   3.128   6.523  0.0399  0.2506  0.4044
 3629TIP3    H132446   1.386   3.208   6.480  0.1124  0.0106 -0.0029
 3629TIP3    H232447   1.262   3.134   6.523 -0.1894 -1.1592 -2.6767
 3630TIP3   OH232448   6.026   1.886   0.283 -0.6876  0.1047  0.3764
 3630TIP3    H132449   6.104   1.906   0.232 -0.9785 -0.3989 -0.2843
 3630TIP3    H232450   6.048   1.912   0.373  0.9391 -1.7904  0.5885
 3631TIP3   OH232451   2.465   1.148   8.623  0.1602  0.0322 -0.1604
 3631TIP3    H132452   2.486   1.226   8.675  0.5777  0.1718 -0.5293
 3631TIP3    H232453   2.375   1.126   8.648  0.0176  0.6647 -0.0911
 3632TIP3   OH232454   2.880   1.156   7.608  0.1334  0.4683 -0.2784
 3632TIP3    H132455   2.878   1.082   7.669  1.0558 -0.5137 -1.3970
 3632TIP3    H232456   2.972   1.163   7.582  0.1741  2.3868  0.2294
 3633TIP3   OH232457   1.956   1.215   0.125  0.3876  0.2374  0.8478
 3633TIP3    H132458   1.910   1.131   0.123  1.5726 -0.4282 -0.1364
 3633TIP3    H232459   2.033   1.198   0.179  1.5627  0.1486 -0.7829
 3634TIP3   OH232460   0.069   4.286   8.876 -0.5436  0.0913 -0.3105
 3634TIP3    H132461   0.098   4.306   8.965  0.9903  0.8304 -0.9315
 3634TIP3    H232462   0.060   4.191   8.874 -0.5966  0.0687  0.6431
 3635TIP3   OH232463   1.392   4.250   7.924  0.4533 -0.6597  0.2046
 3635TIP3    H132464   1.306   4.241   7.964  0.1350  0.2190 -0.2557
 3635TIP3    H232465   1.375   4.247   7.830  0.8488  0.0440  0.1030
 3636TIP3   OH232466   5.933   3.374   6.861 -0.5140 -0.3636  0.0433
 3636TIP3    H132467   5.896   3.290   6.888  0.2446 -0.9458 -0.6777
 3636TIP3    H232468   6.028   3.358   6.856 -0.4638  0.1902 -1.2339
 3637TIP3   OH232469   3.599   4.978   7.847 -0.5001 -0.1446 -0.0747
 3637TIP3    H132470   3.506   4.960   7.840 -0.4140 -0.4608 -0.4656
 3637TIP3    H232471   3.626   4.939   7.930 -1.0371  1.3947  0.8656
 3638TIP3   OH232472   5.864   2.981   0.169  0.6423 -0.0785  0.1795
 3638TIP3    H132473   5.827   2.990   0.081  0.1839  0.1066  0.3891
 3638TIP3    H232474   5.889   3.070   0.194  1.4607 -0.2324 -0.0529
 3639TIP3   OH232475   2.219   0.250   7.029  0.3102  0.3751 -0.3619
 3639TIP3    H132476   2.276   0.306   7.083 -0.9688  2.2599 -0.9017
 3639TIP3    H232477   2.280   0.194   6.981  1.6661  1.5746 -0.1001
 3640TIP3   OH232478   4.032   6.024   0.890 -0.0177 -0.3291  1.0782
 3640TIP3    H132479   3.964   6.089   0.907 -0.9300 -1.4864  2.0282
 3640TIP3    H232480   4.070   6.051   0.807 -0.9898  0.8876  0.9884
 3641TIP3   OH232481   4.241   5.588   7.491  0.1150 -0.3005  0.4583
 3641TIP3    H132482   4.147   5.605   7.492  0.1504  0.4124  3.5532
 3641TIP3    H232483   4.253   5.521   7.559  1.9541  0.6381  1.1265
 3642TIP3   OH232484   0.512   5.689   7.353 -0.4371  0.3273 -0.5750
 3642TIP3    H132485   0.525   5.689   7.259  0.1765 -2.1310 -0.5483
 3642TIP3    H232486   0.575   5.626   7.387 -0.7457  1.0320  1.4821
 3643TIP3   OH232487   4.462   6.323   0.261  0.8348 -0.2160  0.1329
 3643TIP3    H132488   4.485   6.415   0.276  1.3645 -0.3437  0.1148
 3643TIP3    H232489   4.469   6.312   0.166 -0.9830  0.1854 -0.0788
 3644TIP3   OH232490   0.775   2.253   0.847  0.1713 -0.0083  0.2773
 3644TIP3    H132491   0.746   2.343   0.867  0.3977  0.3862 -1.0233
 3644TIP3    H232492   0.710   2.221   0.784  1.0259 -0.1184 -0.5747
 3645TIP3   OH232493   4.400   0.425   8.468 -0.5211 -0.2655  0.7182
 3645TIP3    H132494   4.458   0.400   8.397 -2.7337  1.4210 -1.8805
 3645TIP3    H232495   4.329   0.361   8.465 -0.9391  0.1754  1.0142
 3646TIP3   OH232496   6.718   0.880   1.180  0.1456 -0.5570 -0.4931
 3646TIP3    H132497   6.691   0.895   1.270 -2.4108 -0.1549 -1.2457
 3646TIP3    H232498   6.677   0.797   1.156  0.0528 -0.2274 -1.5446
 3647TIP3   OH232499   6.567   5.988   2.642 -0.2359 -0.1049  0.1832
 3647TIP3    H132500   6.635   5.983   2.709  0.4815  1.2059 -0.4161
 3647TIP3    H232501   6.604   5.941   2.567 -0.2150  0.1158  0.0526
 3648TIP3   OH232502   5.987   5.417   8.602 -0.1401  0.2979  0.3289
 3648TIP3    H132503   6.001   5.325   8.582 -0.9760  0.3399 -0.5046
 3648TIP3    H232504   6.032   5.465   8.532 -0.1527  0.5224  0.4695
 3649TIP3   OH232505   1.656   2.994   0.439 -0.5735  0.2208 -0.2445
 3649TIP3    H132506   1.661   3.061   0.370  4.0562  0.1678 -0.2780
 3649TIP3    H232507   1.745   2.989   0.473 -1.4417 -3.7381  1.9758
 3650TIP3   OH232508   3.149   1.114   1.822  0.1420 -0.1056 -0.0531
 3650TIP3    H132509   3.211   1.094   1.892 -0.0084 -0.6612 -0.0777
 3650TIP3    H232510   3.195   1.090   1.742 -0.2397 -0.8842 -0.0484
 3651TIP3   OH232511   1.552   0.018   2.133  0.7990 -0.7419  0.5001
 3651TIP3    H132512   1.531  -0.016   2.220  0.4605  1.0207  1.1365
 3651TIP3    H232513   1.535   0.112   2.138  0.9195 -0.5619 -1.4304
 3652TIP3   OH232514   2.934   2.457   8.734  0.4032 -0.0119 -0.4794
 3652TIP3    H132515   2.912   2.367   8.711  0.9214 -0.3950  0.4513
 3652TIP3    H232516   2.867   2.484   8.797  0.8884 -0.1554  0.1110
 3653TIP3   OH232517   6.507   1.408   6.690 -0.4301 -0.4135 -0.1339
 3653TIP3    H132518   6.452   1.338   6.655  0.1298  0.0038 -1.9514
 3653TIP3    H232519   6.522   1.466   6.616  0.3282  0.8674  0.9758
 3654TIP3   OH232520   1.655   2.636   7.869  0.3425 -0.3518 -0.3209
 3654TIP3    H132521   1.720   2.701   7.842  1.7762 -2.0682 -1.2250
 3654TIP3    H232522   1.657   2.569   7.800 -1.9515 -0.8002 -0.0453
 3655TIP3   OH232523   2.470   1.859   2.571  0.5074 -0.0108  0.0878
 3655TIP3    H132524   2.407   1.792   2.597  0.1670  0.1659 -0.2850
 3655TIP3    H232525   2.555   1.819   2.589  0.3983 -1.5223 -2.3407
 3656TIP3   OH232526   3.907   2.969   0.002  0.6641 -0.1321 -0.2653
 3656TIP3    H132527   3.966   3.010  -0.061 -0.5545 -1.5533 -2.4915
 3656TIP3    H232528   3.828   2.951  -0.048 -0.2199 -1.7638  1.5765
 3657TIP3   OH232529   3.929   3.690   7.818 -0.0263 -0.4874 -0.3178
 3657TIP3    H132530   3.978   3.734   7.888 -0.4092 -0.2891 -0.1734
 3657TIP3    H232531   3.847   3.663   7.859 -0.8857  0.9018 -1.0379
 3658TIP3   OH232532   0.634   3.264   7.790  0.7269 -0.0879 -0.3294
 3658TIP3    H132533   0.636   3.349   7.748 -0.9714  0.3513  0.3923
 3658TIP3    H232534   0.547   3.259   7.831  0.2324 -2.7091 -1.4898
 3659TIP3   OH232535   6.322   3.844   0.002 -1.2174 -0.0983  0.0537
 3659TIP3    H132536   6.325   3.909   0.073  1.5611  0.0433 -0.0832
 3659TIP3    H232537   6.366   3.768   0.038  0.1375 -0.0621 -1.4489
 3660TIP3   OH232538   5.600   0.750   0.184 -0.4251  0.2566 -0.5756
 3660TIP3    H132539   5.626   0.740   0.093  0.2320  0.9339 -0.4756
 3660TIP3    H232540   5.638   0.834   0.211  0.6168 -0.6054  0.7362
 3661TIP3   OH232541   6.199   5.104   1.907 -0.1921 -0.3788  0.0090
 3661TIP3    H132542   6.250   5.024   1.922  0.4222  0.2214  1.2973
 3661TIP3    H232543   6.108   5.077   1.916  0.0529 -0.6878  1.8535
 3662TIP3   OH232544   2.186   1.170   7.204  0.7799  0.0938  0.0240
 3662TIP3    H132545   2.160   1.083   7.234  0.1052  0.6249  1.0607
 3662TIP3    H232546   2.114   1.199   7.148  0.6185  0.3021  0.3361
 3663TIP3   OH232547   1.297   1.355   8.802  0.1544 -0.0030  0.4278
 3663TIP3    H132548   1.332   1.392   8.720 -1.1165 -0.1473 -0.2028
 3663TIP3    H232549   1.210   1.394   8.810  0.4484  0.3930  1.9882
 3664TIP3   OH232550   5.893   0.245   2.256  0.2029 -0.2246  0.4662
 3664TIP3    H132551   5.915   0.165   2.208 -0.5773  0.5519 -1.2971
 3664TIP3    H232552   5.975   0.272   2.298  1.1124 -0.5953 -0.9971
 3665TIP3   OH232553   3.240   1.008   6.730 -0.2048 -0.1800  0.4635
 3665TIP3    H132554   3.282   1.070   6.671  0.5868 -2.0263 -1.0159
 3665TIP3    H232555   3.147   1.033   6.729 -0.1571  0.0572 -1.3125
 3666TIP3   OH232556   4.609   0.582   1.297 -0.2929 -0.2175  0.0715
 3666TIP3    H132557   4.554   0.560   1.372  2.1272 -0.5500  1.8956
 3666TIP3    H232558   4.692   0.609   1.336  0.4082  1.6846 -2.4653
 3667TIP3   OH232559   0.695   3.403   8.845  0.4244 -1.0126  0.1590
 3667TIP3    H132560   0.768   3.397   8.906 -0.6476  0.4259  1.6495
 3667TIP3    H232561   0.641   3.327   8.865  0.5257 -1.0280  0.3753
 3668TIP3   OH232562   3.598   3.937   7.301 -0.5005 -0.3042 -0.4611
 3668TIP3    H132563   3.547   3.939   7.220 -0.7209  1.3406 -0.3113
 3668TIP3    H232564   3.534   3.915   7.369 -1.3587  2.7084 -0.1243
 3669TIP3   OH232565   1.134   5.932   0.573  0.3987  0.1549 -0.4271
 3669TIP3    H132566   1.210   5.880   0.602 -0.6622 -0.6584  1.0411
 3669TIP3    H232567   1.142   6.014   0.622  1.8418  1.2853 -2.4278
 3670TIP3   OH232568   3.489   4.326   8.468  0.1930 -0.4166 -0.0116
 3670TIP3    H132569   3.483   4.407   8.417 -1.2705 -0.5397 -0.0742
 3670TIP3    H232570   3.453   4.349   8.554 -1.6918 -1.3494 -0.5059
 3671TIP3   OH232571   2.133   4.021   8.823 -0.0028  0.2109  0.0927
 3671TIP3    H132572   2.054   3.978   8.856  0.6346  0.1551  1.6552
 3671TIP3    H232573   2.146   3.984   8.736 -0.0794 -2.0153  0.9478
 3672TIP3   OH232574   2.393   0.709   6.995  0.2895 -0.6799  0.2106
 3672TIP3    H132575   2.384   0.701   6.900  0.1273 -0.7083  0.2280
 3672TIP3    H232576   2.414   0.801   7.009  0.3834 -0.6904  0.1424
 3673TIP3   OH232577   0.776   3.524   1.945 -0.4952 -0.1885  0.2428
 3673TIP3    H132578   0.737   3.537   1.859  1.0618 -0.5992 -0.5590
 3673TIP3    H232579   0.771   3.429   1.959  2.5641 -0.6987 -1.1369
 3674TIP3   OH232580   3.403   2.281   8.046  0.4250  0.1144  0.2720
 3674TIP3    H132581   3.497   2.270   8.059  0.5749  2.3743  1.5771
 3674TIP3    H232582   3.395   2.315   7.957  0.9229  0.7714  0.4793
 3675TIP3   OH232583   0.702   4.521   8.087 -0.2467  0.1406  0.3443
 3675TIP3    H132584   0.776   4.471   8.052  0.4673  2.1236 -1.2079
 3675TIP3    H232585   0.737   4.561   8.167  0.2812  0.7847 -0.1934
 3676TIP3   OH232586   5.869   0.028   2.034  0.0048 -0.4242 -0.1142
 3676TIP3    H132587   5.804  -0.026   1.990  0.0435  0.4009 -1.2123
 3676TIP3    H232588   5.876   0.107   1.980  0.7285  0.2114  0.8711
 3677TIP3   OH232589   1.246   2.790   7.547 -0.4692 -0.2049 -0.9170
 3677TIP3    H132590   1.167   2.838   7.572 -0.3790 -0.7612  0.5580
 3677TIP3    H232591   1.308   2.808   7.618 -0.2979 -2.1567 -0.5060
 3678TIP3   OH232592   5.956   3.867   6.838 -0.1551 -0.8265 -0.3457
 3678TIP3    H132593   5.957   3.891   6.930 -1.2332 -1.7261 -0.0862
 3678TIP3    H232594   5.960   3.951   6.792  2.5790 -0.4113  0.4452
 3679TIP3   OH232595   2.271   1.574   1.096  0.1408 -0.0821  0.0379
 3679TIP3    H132596   2.342   1.632   1.069  0.5776 -0.3980  0.4810
 3679TIP3    H232597   2.292   1.551   1.187 -0.8739  0.3394  0.3867
 3680TIP3   OH232598   5.328   0.267   0.233 -0.2238  0.5762  0.8551
 3680TIP3    H132599   5.281   0.276   0.316 -1.0927  1.4369  0.2972
 3680TIP3    H232600   5.420   0.269   0.257 -0.4675  0.3927  1.8354
 3681TIP3   OH232601   4.841   4.079   1.102  0.1707 -0.5224  0.0426
 3681TIP3    H132602   4.852   4.144   1.032 -0.5897 -1.2169 -0.7612
 3681TIP3    H232603   4.772   4.115   1.157  1.1080  0.2589  0.7370
 3682TIP3   OH232604   5.556   5.009   7.731 -0.1359  0.2305 -0.0454
 3682TIP3    H132605   5.498   4.976   7.662 -0.2024 -0.8241  0.4946
 3682TIP3    H232606   5.505   5.077   7.774 -0.4881  0.1821 -0.3733
 3683TIP3   OH232607   5.870   0.865   8.730 -0.7631 -0.1732  0.1924
 3683TIP3    H132608   5.905   0.902   8.649 -0.2373 -0.3136  0.3459
 3683TIP3    H232609   5.848   0.940   8.784 -1.5670 -0.0721 -0.2587
 3684TIP3   OH232610   6.008   3.965   0.334 -0.1083  1.1218 -0.0630
 3684TIP3    H132611   5.975   4.044   0.292  0.8964  1.7008  0.2227
 3684TIP3    H232612   6.102   3.978   0.342  0.1394 -0.2806 -0.3815
 3685TIP3   OH232613   2.477   1.237   7.648  0.0932  0.1882  0.4256
 3685TIP3    H132614   2.478   1.201   7.559  0.5368 -0.0253  0.5123
 3685TIP3    H232615   2.469   1.331   7.635 -2.0975  0.0129  0.2171
 3686TIP3   OH232616   0.770   3.789   1.730 -0.2181 -0.4437  0.4553
 3686TIP3    H132617   0.695   3.842   1.757 -0.5283 -0.3061 -0.6281
 3686TIP3    H232618   0.842   3.818   1.786 -0.7889 -0.0527  0.9975
 3687TIP3   OH232619   1.418   5.417   7.785  0.1027  0.1008 -0.5467
 3687TIP3    H132620   1.326   5.390   7.794 -0.7416  2.8015 -0.1410
 3687TIP3    H232621   1.451   5.365   7.712 -1.0000 -2.6730  0.8108
 3688TIP3   OH232622   2.748   4.482   0.256 -0.4193 -0.0870 -0.5630
 3688TIP3    H132623   2.687   4.512   0.324  0.9605  2.4881 -0.3184
 3688TIP3    H232624   2.696   4.482   0.176 -1.0577  0.9909 -0.1788
 3689TIP3   OH232625   6.724   5.615   6.979  0.7112 -0.2686  0.0129
 3689TIP3    H132626   6.763   5.590   7.063 -1.1120  1.4154  1.4766
 3689TIP3    H232627   6.678   5.537   6.950 -0.4540 -0.2962  1.7504
 3690TIP3   OH232628   4.837   1.988   8.439 -0.0390 -0.2534 -0.3100
 3690TIP3    H132629   4.845   1.912   8.497 -0.4914  0.4153  0.6465
 3690TIP3    H232630   4.923   2.031   8.445 -0.0441 -0.2541 -0.2244
 3691TIP3   OH232631   4.013   1.352   0.772  0.5761 -0.3816 -0.4177
 3691TIP3    H132632   3.970   1.436   0.786  2.9409  0.7369  0.9631
 3691TIP3    H232633   4.079   1.370   0.705  0.8004 -1.2472 -0.4380
 3692TIP3   OH232634   3.683   4.740   1.791 -0.6912 -0.0525 -1.0914
 3692TIP3    H132635   3.682   4.732   1.887  0.3735  0.9804 -0.9661
 3692TIP3    H232636   3.718   4.656   1.760  0.9275  0.3311 -0.4270
 3693TIP3   OH232637   0.860   0.184   0.539 -0.6328 -0.3386  0.4509
 3693TIP3    H132638   0.808   0.110   0.570 -1.0281  0.2291  1.1564
 3693TIP3    H232639   0.838   0.191   0.446  1.5430 -2.8715 -0.4038
 3694TIP3   OH232640   5.950   2.159   0.929 -0.1572 -0.2072 -0.6166
 3694TIP3    H132641   5.863   2.147   0.892  0.5659 -0.7472 -2.2359
 3694TIP3    H232642   5.974   2.249   0.905 -0.0979 -0.2054 -0.5499
 3695TIP3   OH232643   3.121   3.111   8.537 -0.3879  0.0336  0.4891
 3695TIP3    H132644   3.115   3.032   8.591  0.5372  0.4654  1.2667
 3695TIP3    H232645   3.188   3.164   8.581 -0.5067  0.9456 -0.4054
 3696TIP3   OH232646   0.035   6.768   0.126 -0.1175  0.1556 -0.4057
 3696TIP3    H132647  -0.004   6.797   0.209  1.0251  0.1603  0.1501
 3696TIP3    H232648   0.114   6.720   0.152 -1.2501 -2.4396 -1.3360
 3697TIP3   OH232649   6.294   3.295   0.648  0.8033  0.3602  0.1915
 3697TIP3    H132650   6.389   3.286   0.652  0.7872  0.5969  1.7163
 3697TIP3    H232651   6.263   3.258   0.731 -0.4238  0.4103 -0.2267
 3698TIP3   OH232652   4.803   1.556   6.831 -0.7203 -0.0502  0.6598
 3698TIP3    H132653   4.870   1.624   6.836 -1.4735  0.7737 -0.1216
 3698TIP3    H232654   4.731   1.597   6.783 -1.0544 -1.5036 -0.1400
 3699TIP3   OH232655   0.381   5.379   1.050  0.5096  0.3483 -0.1100
 3699TIP3    H132656   0.465   5.425   1.052  1.1860 -0.8338 -0.4548
 3699TIP3    H232657   0.357   5.369   1.142  0.9036  0.4105  0.0032
 3700TIP3   OH232658   4.658   2.777   7.304 -0.3450  0.4426 -0.1675
 3700TIP3    H132659   4.741   2.811   7.272 -0.0970 -1.3315 -1.5599
 3700TIP3    H232660   4.604   2.767   7.226 -0.3730 -2.2997  0.1073
 3701TIP3   OH232661   3.461   4.737   2.185  0.4552 -0.6520 -0.5032
 3701TIP3    H132662   3.426   4.671   2.245  3.0099  0.5640  2.5513
 3701TIP3    H232663   3.459   4.819   2.234  1.4715  0.7104 -2.5752
 3702TIP3   OH232664   1.294   2.022   0.974  1.0161 -0.2694  0.0562
 3702TIP3    H132665   1.217   2.020   1.031  1.8168 -0.3873  1.1827
 3702TIP3    H232666   1.306   1.930   0.948 -0.1506 -0.0296 -1.4709
 3703TIP3   OH232667   4.062   3.804   7.617  0.2156 -0.0319  0.0376
 3703TIP3    H132668   4.112   3.876   7.655  0.3829  0.2005 -0.5977
 3703TIP3    H232669   4.016   3.764   7.691  0.6841  0.2782  0.5007
 3704TIP3   OH232670   0.962   1.728   0.826  0.1945  0.0115 -0.5028
 3704TIP3    H132671   0.898   1.669   0.786  0.6296 -0.3346 -0.6986
 3704TIP3    H232672   1.035   1.731   0.764  1.3977 -1.4532  0.7273
 3705TIP3   OH232673   2.264   5.385   6.880  0.4980  0.2338  0.0322
 3705TIP3    H132674   2.178   5.377   6.839 -0.1019  0.9069  1.1071
 3705TIP3    H232675   2.302   5.297   6.874  0.0828  0.1191 -1.1719
 3706TIP3   OH232676   2.809   1.572   8.856  0.4382 -0.2573 -0.1660
 3706TIP3    H132677   2.786   1.648   8.910 -0.0338 -0.6121  0.1445
 3706TIP3    H232678   2.752   1.578   8.780 -0.3000 -0.8268  0.3303
 3707TIP3   OH232679   4.570   1.911   1.250 -0.4769 -0.0013  0.2434
 3707TIP3    H132680   4.554   1.913   1.344 -1.4694 -1.3624  0.1466
 3707TIP3    H232681   4.560   2.001   1.221 -0.4759  0.3779  1.3813
 3708TIP3   OH232682   1.472   1.492   7.051  0.7262 -0.2532 -0.1383
 3708TIP3    H132683   1.419   1.570   7.034  0.4686 -0.7009 -1.5092
 3708TIP3    H232684   1.562   1.524   7.050  0.5424  0.4599  1.9073
 3709TIP3   OH232685   2.967   1.688   7.488 -0.4012  0.2284 -0.0358
 3709TIP3    H132686   2.937   1.622   7.425 -1.8667  0.9751 -0.1504
 3709TIP3    H232687   3.034   1.643   7.539 -1.9192 -1.6502  0.4265
 3710TIP3   OH232688   0.740   3.086   7.470 -0.4601 -0.3205  0.0349
 3710TIP3    H132689   0.708   3.168   7.507  1.4625  1.2445 -1.5410
 3710TIP3    H232690   0.743   3.026   7.544 -4.0754  0.2312  0.8343
 3711TIP3   OH232691   4.657   3.149   0.880 -0.0957 -0.0497  0.1381
 3711TIP3    H132692   4.670   3.184   0.968 -0.6236  1.6626 -0.4272
 3711TIP3    H232693   4.695   3.215   0.822 -0.6437 -0.6730 -0.9598
 3712TIP3   OH232694   4.996   4.947   1.102 -0.0628  0.1618  0.4166
 3712TIP3    H132695   5.057   4.983   1.166 -0.1637  1.2628 -0.0909
 3712TIP3    H232696   4.991   5.013   1.033  1.4343 -1.7704 -1.6689
 3713TIP3   OH232697   4.448   3.309   1.657 -0.4393  0.1618  0.1021
 3713TIP3    H132698   4.542   3.316   1.640 -0.2454  0.3501  1.1974
 3713TIP3    H232699   4.420   3.234   1.605  0.3764 -0.1020  0.0243
 3714TIP3   OH232700   1.257   3.031   2.067  0.0047 -0.1789  0.4322
 3714TIP3    H132701   1.317   3.048   1.994  1.3418  0.1203  1.5713
 3714TIP3    H232702   1.194   3.102   2.063  0.6485  0.3878  0.1601
 3715TIP3   OH232703   0.603   6.341   2.050 -0.6154  0.1483  0.1970
 3715TIP3    H132704   0.522   6.325   2.098 -0.6798  1.6368  0.6369
 3715TIP3    H232705   0.636   6.254   2.028 -1.9066 -0.4937  0.7180
 3716TIP3   OH232706   1.830   5.003   0.394  0.5752  0.6083  0.4759
 3716TIP3    H132707   1.882   5.083   0.383 -0.3307  1.0702 -0.6628
 3716TIP3    H232708   1.742   5.035   0.417 -0.2582  0.0538 -1.7265
 3717TIP3   OH232709   3.121   3.871   8.469 -0.1488  0.0318  0.0489
 3717TIP3    H132710   3.133   3.805   8.401 -0.4194  0.7894 -0.7723
 3717TIP3    H232711   3.147   3.953   8.426 -1.9131  0.7747  0.2941
 3718TIP3   OH232712   3.525   2.062   7.210  0.4124 -0.1208  0.1226
 3718TIP3    H132713   3.515   2.042   7.117  1.7020 -1.5533  0.2421
 3718TIP3    H232714   3.620   2.069   7.223  0.2605 -0.0985  1.3612
 3719TIP3   OH232715   4.601   5.019   1.463  0.2293  1.1834  0.4781
 3719TIP3    H132716   4.647   4.978   1.389  0.7927  0.9467  0.9451
 3719TIP3    H232717   4.544   5.085   1.423 -1.2006 -0.4792 -0.3542
 3720TIP3   OH232718   1.523   4.911   0.341  0.1929  0.7045 -0.0822
 3720TIP3    H132719   1.568   4.893   0.258 -0.3487  0.0964 -0.2458
 3720TIP3    H232720   1.552   4.842   0.400 -2.7989 -1.5862 -1.0521
 3721TIP3   OH232721   0.901   2.225   8.402  0.0916 -0.0427 -0.7109
 3721TIP3    H132722   0.976   2.168   8.421  0.8627  1.3724  0.7168
 3721TIP3    H232723   0.935   2.290   8.340 -0.8590 -1.2178 -2.5586
 3722TIP3   OH232724   3.707   6.669   8.561  0.1364 -0.2066 -0.2080
 3722TIP3    H132725   3.655   6.640   8.486  0.9564  1.3490 -1.4366
 3722TIP3    H232726   3.643   6.686   8.630 -0.9659  1.1604 -1.5094
 3723TIP3   OH232727   1.139   3.921   8.852  0.7435 -0.2023 -0.3865
 3723TIP3    H132728   1.172   3.871   8.927  1.1732 -1.7471 -1.5437
 3723TIP3    H232729   1.073   3.980   8.888  1.4306 -0.4220  1.2894
 3724TIP3   OH232730   2.540   5.510   7.832  0.2254  0.4495 -0.2621
 3724TIP3    H132731   2.462   5.498   7.887  0.5359  0.8135  0.2710
 3724TIP3    H232732   2.516   5.472   7.748 -0.4064  0.2419  0.0029
 3725TIP3   OH232733   2.695   3.269   8.233  0.5042 -0.1633 -0.4570
 3725TIP3    H132734   2.747   3.192   8.256  1.3507  0.2360 -0.9892
 3725TIP3    H232735   2.681   3.315   8.316  0.0311 -0.8531 -0.1422
 3726TIP3   OH232736   3.619   4.984   1.652  0.0571 -0.9413  0.8471
 3726TIP3    H132737   3.528   5.002   1.677  0.5706 -1.6643  3.5763
 3726TIP3    H232738   3.643   4.906   1.702  2.7770  0.4079  1.8490
 3727TIP3   OH232739   3.637   4.445   1.451 -0.1052 -0.5749 -0.4156
 3727TIP3    H132740   3.695   4.513   1.416  0.1679 -0.3716  0.4191
 3727TIP3    H232741   3.695   4.387   1.500 -0.4182 -1.1070 -0.6657
 3728TIP3   OH232742   2.797   1.828   7.648 -0.3607 -0.0160  0.3760
 3728TIP3    H132743   2.807   1.921   7.629  1.3093  0.0574  1.4381
 3728TIP3    H232744   2.840   1.784   7.574  1.8218  0.1609  1.4884
 3729TIP3   OH232745   4.867   4.042   0.113 -0.0419  0.4917 -0.0432
 3729TIP3    H132746   4.919   4.118   0.140  0.5792  0.1288 -0.1930
 3729TIP3    H232747   4.824   4.013   0.193  0.2122  0.6256  0.1448
 3730TIP3   OH232748   5.592   6.374   1.287  0.1551  0.3486 -0.0245
 3730TIP3    H132749   5.635   6.386   1.372 -0.5315  0.0198  0.3785
 3730TIP3    H232750   5.554   6.287   1.292 -2.8359  1.5679  0.7052
 3731TIP3   OH232751   5.266   4.862   1.268  0.3626  0.7917 -0.0531
 3731TIP3    H132752   5.252   4.831   1.178 -0.1200  0.6726  0.0581
 3731TIP3    H232753   5.221   4.946   1.271 -0.1104  0.5313  0.2354
 3732TIP3   OH232754   0.682   1.286   8.335 -0.1107  0.3538  0.1038
 3732TIP3    H132755   0.689   1.196   8.303  0.9642  0.3878  0.2263
 3732TIP3    H232756   0.616   1.326   8.279 -0.8111 -0.5846  0.2269
 3733TIP3   OH232757   3.928   5.414   8.371 -0.2764 -0.2512  0.1133
 3733TIP3    H132758   3.840   5.394   8.404 -1.1491 -0.7301 -2.3330
 3733TIP3    H232759   3.958   5.332   8.332  1.1047  0.0311  0.5227
 3734TIP3   OH232760   2.020   5.133   7.395  0.5323 -0.1569 -0.1116
 3734TIP3    H132761   2.038   5.065   7.331  1.3877 -0.5076  0.4953
 3734TIP3    H232762   1.971   5.200   7.345 -0.8878 -1.4692 -0.5585
 3735TIP3   OH232763   2.616   3.792   7.225  0.3574  0.0612  0.0294
 3735TIP3    H132764   2.569   3.785   7.308  0.6181  0.4633  0.2134
 3735TIP3    H232765   2.582   3.872   7.184  3.0497  2.2131  1.5892
 3736TIP3   OH232766   2.495   2.038   1.011  0.1219 -0.2099  0.4585
 3736TIP3    H132767   2.469   2.096   1.083  0.3568 -1.3922  1.5378
 3736TIP3    H232768   2.582   2.069   0.986  0.3393 -0.2125  1.1743
 3737TIP3   OH232769   0.777   5.683   6.792 -0.1598 -0.1383 -0.7393
 3737TIP3    H132770   0.821   5.654   6.712 -0.6179  0.9670 -1.4075
 3737TIP3    H232771   0.684   5.685   6.769 -0.3185 -0.0335 -0.1023
 3738TIP3   OH232772   0.583   5.956   1.637  0.3594  0.1040 -0.0483
 3738TIP3    H132773   0.657   5.896   1.625 -0.1810 -0.5981  0.0293
 3738TIP3    H232774   0.517   5.903   1.682 -0.1081  0.7841  0.0762
 3739TIP3   OH232775   0.978   0.429   1.992  0.3438  0.6527 -1.1488
 3739TIP3    H132776   1.044   0.372   2.030 -0.8592  0.1273  0.2320
 3739TIP3    H232777   1.017   0.459   1.909  2.4174  0.6196 -0.2419
 3740TIP3   OH232778   6.179   1.831   8.433 -0.6755 -0.2492  0.1599
 3740TIP3    H132779   6.268   1.863   8.419 -0.9952  0.4177 -0.3601
 3740TIP3    H232780   6.151   1.873   8.515 -0.0241 -1.5433  1.0836
 3741TIP3   OH232781   2.438   1.173   7.357  0.0068 -0.0226  0.0532
 3741TIP3    H132782   2.525   1.194   7.324 -0.1359  0.0399 -0.2907
 3741TIP3    H232783   2.381   1.183   7.281 -0.7291  2.5456  0.8549
 3742TIP3   OH232784   4.271   1.209   0.661 -0.1303  0.1143  0.1607
 3742TIP3    H132785   4.340   1.274   0.657  0.4748 -0.5324 -0.1069
 3742TIP3    H232786   4.291   1.148   0.589 -1.3071  0.2479 -0.3080
 3743TIP3   OH232787   0.908   6.700   7.765  0.5587 -0.1316 -0.0332
 3743TIP3    H132788   0.914   6.654   7.681 -0.3361  0.0230 -0.1962
 3743TIP3    H232789   0.937   6.789   7.746  2.3310 -0.6082  0.2906
 3744TIP3   OH232790   5.243   3.122   8.708 -0.1346  0.3256 -0.8766
 3744TIP3    H132791   5.249   3.167   8.624  1.0717  0.8903 -0.5130
 3744TIP3    H232792   5.149   3.111   8.724 -0.3750  0.1647 -2.3112
 3745TIP3   OH232793   3.612   0.345   7.520  0.3555  0.1321 -0.1810
 3745TIP3    H132794   3.582   0.254   7.516  0.5766  0.0785 -0.6235
 3745TIP3    H232795   3.552   0.387   7.582  1.1942 -0.6654  1.2225
 3746TIP3   OH232796   4.342   6.271   8.128 -0.1359  0.2642  0.3258
 3746TIP3    H132797   4.326   6.179   8.106  1.9403  0.0517 -0.5031
 3746TIP3    H232798   4.376   6.268   8.217  1.5126 -0.0093 -0.2637
 3747TIP3   OH232799   5.967   0.597   8.677  0.2878 -0.6254  0.0308
 3747TIP3    H132800   5.967   0.567   8.768 -2.3594 -1.2573 -0.1186
 3747TIP3    H232801   5.961   0.693   8.684  0.7442 -0.6232  0.4901
 3748TIP3   OH232802   2.498   6.587   0.429 -0.0206 -0.3561  0.6290
 3748TIP3    H132803   2.415   6.633   0.440 -0.1279 -0.3458 -0.1754
 3748TIP3    H232804   2.513   6.544   0.513 -0.2782  0.5533  1.1514
 3749TIP3   OH232805   6.703   6.481   1.755  0.1870 -0.1517  0.0980
 3749TIP3    H132806   6.749   6.422   1.696 -0.7114 -0.1205 -0.6564
 3749TIP3    H232807   6.611   6.470   1.732 -0.0391  1.0934  0.3564
 3750TIP3   OH232808   2.440   1.019   0.379 -0.0470 -0.6588 -0.1785
 3750TIP3    H132809   2.359   1.032   0.330 -0.1381 -1.5648 -0.2838
 3750TIP3    H232810   2.418   1.041   0.470 -0.0620  0.3376 -0.4124
 3751TIP3   OH232811   2.182   1.111   8.693  0.0477 -0.0164 -0.3665
 3751TIP3    H132812   2.099   1.117   8.742  0.8527  1.8439  0.9040
 3751TIP3    H232813   2.184   1.022   8.659 -1.9701 -0.4431  0.4883
 3752TIP3   OH232814   0.914   3.825   8.271 -0.2236  0.2245 -0.3395
 3752TIP3    H132815   0.837   3.788   8.314 -0.9359  0.6126 -1.2366
 3752TIP3    H232816   0.956   3.750   8.229 -0.8500  0.1956 -0.9327
 3753TIP3   OH232817   3.081   4.264   7.206  0.2286 -0.3992  0.0505
 3753TIP3    H132818   3.152   4.260   7.270 -0.3764 -1.2453  0.6936
 3753TIP3    H232819   3.116   4.317   7.135  1.0631  0.2229  0.9005
 3754TIP3   OH232820   4.329   5.728   7.928 -0.0083  0.9735 -0.4021
 3754TIP3    H132821   4.324   5.809   7.978  0.5791 -0.7928  2.7802
 3754TIP3    H232822   4.423   5.707   7.925 -0.2905 -0.8149  1.1659
 3755TIP3   OH232823   0.171   2.568   7.232 -0.2480  0.4621 -0.1693
 3755TIP3    H132824   0.206   2.482   7.207  0.0346  0.6049 -0.2708
 3755TIP3    H232825   0.222   2.630   7.180 -2.1160  0.5744 -2.0013
 3756TIP3   OH232826   6.282   1.860   8.802 -0.5464  0.2048  0.3027
 3756TIP3    H132827   6.322   1.944   8.824 -1.0879  0.1855  1.4391
 3756TIP3    H232828   6.201   1.882   8.756 -0.8080  0.3318  0.8085
 3757TIP3   OH232829   6.523   6.241   1.012  0.2757 -0.5703 -0.1687
 3757TIP3    H132830   6.431   6.214   1.016  0.4002 -0.9908 -0.1105
 3757TIP3    H232831   6.568   6.167   0.972  0.3323  0.2941 -1.8216
 3758TIP3   OH232832   1.991   4.846   8.016  0.0356 -0.7412 -0.1089
 3758TIP3    H132833   2.022   4.873   8.102  0.8237 -2.4874  0.2057
 3758TIP3    H232834   1.918   4.787   8.035  1.6327 -2.9834 -0.4388
 3759TIP3   OH232835   4.724   6.016   1.996  0.3537  0.0184 -0.0674
 3759TIP3    H132836   4.775   5.959   2.054  1.4816 -0.5667 -1.5739
 3759TIP3    H232837   4.637   6.019   2.036  0.3806 -2.3919  0.3166
 3760TIP3   OH232838   4.763   6.205   7.826  0.5674  0.5211 -0.5414
 3760TIP3    H132839   4.850   6.209   7.788  1.6606 -0.4818  1.6991
 3760TIP3    H232840   4.753   6.115   7.857 -0.3116  1.1884  1.2944
 3761TIP3   OH232841   2.261   3.060   7.099 -0.3857 -0.0523 -0.3022
 3761TIP3    H132842   2.169   3.050   7.075 -0.2851  0.4587 -0.9205
 3761TIP3    H232843   2.292   3.133   7.046  0.5110 -0.5442 -0.4774
 3762TIP3   OH232844   3.574   2.273   8.441 -0.0243 -0.1801 -0.0411
 3762TIP3    H132845   3.639   2.247   8.376  0.5016 -1.3713  0.9038
 3762TIP3    H232846   3.625   2.286   8.521 -0.6460  1.3285  0.1457
 3763TIP3   OH232847   3.522   1.571   0.080  0.0353  0.2384  0.0649
 3763TIP3    H132848   3.543   1.532  -0.005  0.4153  0.9952 -0.1984
 3763TIP3    H232849   3.426   1.565   0.086 -0.0696  0.8747 -0.7710
 3764TIP3   OH232850   4.394   0.334   7.199  0.3601  0.4730 -0.4125
 3764TIP3    H132851   4.436   0.384   7.129 -0.5670  1.5044 -0.2721
 3764TIP3    H232852   4.431   0.370   7.279  1.0272 -0.3370 -0.3556
 3765TIP3   OH232853   5.163   2.557   8.856 -0.1894  0.1157  0.0445
 3765TIP3    H132854   5.075   2.543   8.891  0.0571 -0.6451  0.3705
 3765TIP3    H232855   5.198   2.469   8.840  0.8028  0.3766  0.6640
 3766TIP3   OH232856   2.296   5.685   7.577  0.4564  0.0777  0.2987
 3766TIP3    H132857   2.236   5.625   7.533  1.9180 -1.2606  0.0347
 3766TIP3    H232858   2.370   5.630   7.602  2.5241  2.0228 -1.1941
 3767TIP3   OH232859   4.498   0.953   1.719 -0.1748  0.0570  0.2671
 3767TIP3    H132860   4.474   0.927   1.808 -1.6697 -1.0420 -0.4249
 3767TIP3    H232861   4.561   0.887   1.691 -0.8840 -0.4938 -0.0385
 3768TIP3   OH232862   1.741   4.227   7.627 -0.2722 -0.3580 -0.4287
 3768TIP3    H132863   1.705   4.259   7.545  0.2754  0.6321 -0.3031
 3768TIP3    H232864   1.802   4.296   7.655 -0.3473 -0.7376  0.7337
 3769TIP3   OH232865   4.202   6.055   7.507  0.4287  0.7384 -0.7225
 3769TIP3    H132866   4.180   6.113   7.580 -0.9360 -1.0670  0.3942
 3769TIP3    H232867   4.288   6.085   7.478  0.2663  2.5918  0.5045
 3770TIP3   OH232868   6.469   2.594   7.252 -0.6510 -0.1276  0.6137
 3770TIP3    H132869   6.508   2.680   7.238  0.1945 -0.4567  0.8842
 3770TIP3    H232870   6.525   2.534   7.203  0.4399 -0.8816  2.6526
 3771TIP3   OH232871   4.945   2.663   6.949 -0.1205  0.5458  0.1589
 3771TIP3    H132872   4.947   2.730   6.880 -0.9008 -0.1089 -0.5172
 3771TIP3    H232873   4.974   2.583   6.905 -0.1110  0.2332  0.7259
 3772TIP3   OH232874   3.784   3.545   8.230 -0.1575  0.3447 -0.5075
 3772TIP3    H132875   3.783   3.641   8.231 -1.2011  0.3444  0.5900
 3772TIP3    H232876   3.846   3.521   8.298 -0.2097  0.2389 -0.4968
 3773TIP3   OH232877   5.622   1.585   8.691  0.3497 -0.9357 -0.1827
 3773TIP3    H132878   5.642   1.492   8.680  1.4480 -0.7774  0.3621
 3773TIP3    H232879   5.578   1.589   8.776  0.0938 -0.9895 -0.3131
 3774TIP3   OH232880   0.018   1.386   8.388  0.2773 -0.4510 -0.1833
 3774TIP3    H132881   0.046   1.412   8.300 -0.8634  1.1961 -0.1018
 3774TIP3    H232882  -0.054   1.325   8.373  0.6398 -0.8411 -0.3733
 3775TIP3   OH232883   2.880   0.326   8.702 -0.3264  0.5707 -0.1388
 3775TIP3    H132884   2.924   0.326   8.616  1.0661 -1.2001  0.4837
 3775TIP3    H232885   2.890   0.415   8.734  0.4154  0.9015 -1.2114
 3776TIP3   OH232886   3.258   1.004   0.473  0.3632  0.6994 -0.3032
 3776TIP3    H132887   3.167   0.992   0.499 -0.0696  1.5023 -1.3579
 3776TIP3    H232888   3.286   0.917   0.442 -0.2907  0.6211 -0.6930
 3777TIP3   OH232889   3.115   4.952   1.407  1.0352 -0.6994  0.1762
 3777TIP3    H132890   3.166   5.031   1.392  0.0934 -0.0819  0.0960
 3777TIP3    H232891   3.107   4.946   1.502 -2.3731  1.7263  0.2651
 3778TIP3   OH232892   3.272   3.262   0.363  0.1580 -0.0425  0.7363
 3778TIP3    H132893   3.295   3.355   0.356 -2.1316  0.6584  1.4058
 3778TIP3    H232894   3.188   3.262   0.409 -0.5632 -2.3805 -0.4131
 3779TIP3   OH232895   0.690   3.579   8.641  0.3763 -0.2255  0.4617
 3779TIP3    H132896   0.693   3.513   8.710  1.6187 -0.0409  0.6111
 3779TIP3    H232897   0.732   3.655   8.679 -2.1575  1.1383  0.7416
 3780TIP3   OH232898   1.480   1.085   0.243  0.0277  0.4502  0.0922
 3780TIP3    H132899   1.481   0.991   0.226 -3.2901  0.1551  0.7733
 3780TIP3    H232900   1.570   1.106   0.267  1.1395 -2.2780 -1.2847
 3781TIP3   OH232901   5.417   2.956   6.483  0.3260 -0.0247  0.2693
 3781TIP3    H132902   5.393   3.049   6.478 -0.1576 -0.2140 -2.0995
 3781TIP3    H232903   5.512   2.956   6.476  0.5808  0.3567  2.7268
 3782TIP3   OH232904   6.080   4.059   1.391 -0.0373  0.3101 -0.6701
 3782TIP3    H132905   6.136   4.014   1.454  0.0260 -0.2140 -1.1032
 3782TIP3    H232906   5.991   4.030   1.413 -0.0678  0.5322 -0.4911
 3783TIP3   OH232907   1.549   4.781   7.162  0.0519 -0.6045 -0.1118
 3783TIP3    H132908   1.521   4.733   7.240  1.3798 -2.2818 -0.6074
 3783TIP3    H232909   1.525   4.723   7.089 -2.3032  1.4725 -1.1131
 3784TIP3   OH232910   1.355   2.363   0.300  0.0291  0.1748  0.5829
 3784TIP3    H132911   1.410   2.327   0.370  1.3451  0.7227 -0.1338
 3784TIP3    H232912   1.398   2.444   0.275 -1.0020  0.5114 -0.1640
 3785TIP3   OH232913   3.176   3.471   8.817 -0.5716 -0.0007  0.0375
 3785TIP3    H132914   3.166   3.538   8.749  4.2543  1.6873  0.5656
 3785TIP3    H232915   3.198   3.391   8.769  0.8388  0.6905 -0.5240
 3786TIP3   OH232916   0.531   3.903   1.270 -0.0819  0.5461  0.1827
 3786TIP3    H132917   0.553   3.949   1.351 -0.1248  1.7305 -0.4608
 3786TIP3    H232918   0.597   3.834   1.263  1.0233  1.5643  0.3123
 3787TIP3   OH232919   4.762   5.231   6.493  0.5357 -0.0772 -0.4500
 3787TIP3    H132920   4.847   5.212   6.453  1.4078  0.1050  1.2272
 3787TIP3    H232921   4.753   5.326   6.487  1.1960  0.0808  0.7298
 3788TIP3   OH232922   2.825   3.715   8.630  0.2707 -0.0582  0.1093
 3788TIP3    H132923   2.817   3.677   8.542  0.7578  0.7933 -0.3133
 3788TIP3    H232924   2.735   3.722   8.662 -0.1074  1.5270 -1.1606
 3789TIP3   OH232925   0.577   1.481   8.532  0.2048 -0.1393 -0.4589
 3789TIP3    H132926   0.512   1.413   8.553 -0.4793  0.5672 -0.2478
 3789TIP3    H232927   0.628   1.444   8.460 -0.2541 -0.8190 -0.4446
 3790TIP3   OH232928   0.935   1.902   8.242 -0.0280  0.4317 -0.0058
 3790TIP3    H132929   1.025   1.876   8.261 -0.2947  0.3955  1.2787
 3790TIP3    H232930   0.889   1.819   8.226  0.0440  0.4131 -0.1182
 3791TIP3   OH232931   4.566   2.496   8.527  0.1932  0.1250  0.0491
 3791TIP3    H132932   4.640   2.435   8.524 -1.1198 -1.5078 -1.0417
 3791TIP3    H232933   4.507   2.466   8.458 -1.6269  1.1889  1.0537
 3792TIP3   OH232934   4.169   0.589   1.847 -0.8610 -0.4002  0.3168
 3792TIP3    H132935   4.199   0.511   1.800 -0.8392 -0.8307  1.0302
 3792TIP3    H232936   4.249   0.626   1.886 -0.7047  0.5933 -0.8936
 3793TIP3   OH232937   6.520   3.094   0.513  0.0943  0.2079  0.5398
 3793TIP3    H132938   6.440   3.043   0.506  0.2886  0.0921 -1.2261
 3793TIP3    H232939   6.549   3.107   0.423  2.6069 -0.6048  1.1498
 3794TIP3   OH232940   2.749   4.713   0.024  0.2809 -0.0330  0.5411
 3794TIP3    H132941   2.678   4.762  -0.018 -1.0899 -2.9722 -0.8493
 3794TIP3    H232942   2.737   4.623  -0.005  2.3397 -1.3660  3.3324
 3795TIP3   OH232943   2.387   5.448   6.543 -0.8495  0.2294  0.4229
 3795TIP3    H132944   2.291   5.457   6.546 -1.0694 -1.4199 -0.6406
 3795TIP3    H232945   2.410   5.462   6.451 -0.1704 -0.2257  0.5146
 3796TIP3   OH232946   5.984   3.001   1.635 -0.1884 -0.1284 -0.3205
 3796TIP3    H132947   6.057   2.997   1.573  0.3820  0.3253  0.3035
 3796TIP3    H232948   6.025   3.023   1.719 -1.1203  0.8544 -0.0946
 3797TIP3   OH232949   4.079   4.427   6.839 -0.2468  0.2677  0.2436
 3797TIP3    H132950   4.038   4.345   6.810 -1.1375  0.8006 -0.0551
 3797TIP3    H232951   4.021   4.460   6.908  0.7909  0.0174  1.2495
 3798TIP3   OH232952   0.917   2.965   7.303  0.3424 -0.2207 -0.0774
 3798TIP3    H132953   0.859   3.016   7.359 -0.6281  0.5080 -1.6643
 3798TIP3    H232954   0.899   2.874   7.326  2.4535  0.0184  3.1517
 3799TIP3   OH232955   0.944   3.914   7.603 -0.4815 -0.4324 -0.1061
 3799TIP3    H132956   0.967   3.881   7.690 -0.6690  0.2317  0.2000
 3799TIP3    H232957   0.910   3.838   7.557 -2.0936 -0.4321  1.0112
 3800TIP3   OH232958   5.741   2.883   8.500  0.5738  0.5087  0.0533
 3800TIP3    H132959   5.779   2.968   8.522  1.7523 -0.1931  0.8368
 3800TIP3    H232960   5.660   2.878   8.551  1.0190  0.7449  0.7851
 3801TIP3   OH232961   5.032   4.503   7.407 -0.5863 -0.1628  0.1176
 3801TIP3    H132962   4.971   4.488   7.335  1.3050  0.2294 -1.6441
 3801TIP3    H232963   4.980   4.549   7.473 -2.3793 -0.5328 -0.9691
 3802TIP3   OH232964   5.630   6.441   0.556 -0.1983  0.3908  0.2247
 3802TIP3    H132965   5.546   6.444   0.601 -0.3307  0.7044 -0.0392
 3802TIP3    H232966   5.621   6.369   0.493  0.5579 -1.1453  1.8036
 3803TIP3   OH232967   5.907   5.011   7.645  0.7734 -0.0305 -0.3148
 3803TIP3    H132968   5.913   5.101   7.676  2.1271  0.1061 -0.8961
 3803TIP3    H232969   5.939   5.014   7.555  0.8304 -1.0866 -0.3447
 3804TIP3   OH232970   0.414   5.372   8.113 -0.1493  0.1485  0.4465
 3804TIP3    H132971   0.356   5.431   8.161 -1.0792  0.2470 -0.7721
 3804TIP3    H232972   0.502   5.395   8.144 -0.6266  1.0298  1.1960
 3805TIP3   OH232973   1.894   3.074   1.345  1.1112  0.5644 -0.4918
 3805TIP3    H132974   1.845   3.036   1.418  1.0739  0.0174 -0.7972
 3805TIP3    H232975   1.858   3.031   1.267  1.5323  0.7399 -0.7864
 3806TIP3   OH232976   3.416   3.570   6.623  0.6574  0.5662  0.4196
 3806TIP3    H132977   3.488   3.578   6.560  0.9035  0.3163  0.6670
 3806TIP3    H232978   3.359   3.644   6.603  0.3014  0.0265 -0.6393
 3807TIP3   OH232979   3.715   3.806   8.288 -0.6117  0.3894  0.2139
 3807TIP3    H132980   3.709   3.810   8.384 -2.0525  1.5654  0.1011
 3807TIP3    H232981   3.720   3.898   8.261 -3.5865  0.2933 -0.9951
 3808TIP3   OH232982   4.313   1.642   8.095  0.0447  0.2137 -0.4480
 3808TIP3    H132983   4.228   1.599   8.093  1.0124 -1.7790 -1.5472
 3808TIP3    H232984   4.305   1.714   8.032 -0.4472 -0.8190 -1.6129
 3809TIP3   OH232985   0.234   0.787   1.828 -0.0977  0.4629 -0.8648
 3809TIP3    H132986   0.293   0.767   1.754  1.0221  1.0653 -0.1589
 3809TIP3    H232987   0.292   0.796   1.903 -1.1210  0.9202 -0.1078
 3810TIP3   OH232988   5.108   1.322   7.934  0.2135 -0.0236 -0.1093
 3810TIP3    H132989   5.068   1.386   7.993 -0.5825 -1.9035  1.4950
 3810TIP3    H232990   5.039   1.302   7.871  0.4155  0.5648 -0.5256
 3811TIP3   OH232991   4.112   4.694   8.508  0.2142  0.3490  0.0292
 3811TIP3    H132992   4.050   4.762   8.534 -1.2849 -0.1711 -1.9368
 3811TIP3    H232993   4.195   4.740   8.497  0.0824  1.1757  2.1689
 3812TIP3   OH232994   1.532   1.746   0.874  0.4573  0.1885  0.6558
 3812TIP3    H132995   1.461   1.686   0.852  0.6293 -0.0505  0.7431
 3812TIP3    H232996   1.593   1.739   0.800  0.4323  0.3266  0.6218
 3813TIP3   OH232997   3.849   0.397   8.852 -0.0014  0.3731 -0.0010
 3813TIP3    H132998   3.765   0.378   8.810 -0.7979  1.2400  1.1415
 3813TIP3    H232999   3.829   0.463   8.918  1.2864 -0.6246  1.4587
 3814TIP3   OH233000   2.328   1.644   2.711 -0.1512  0.8180  0.1064
 3814TIP3    H133001   2.251   1.587   2.708 -0.8723  1.7891 -0.2911
 3814TIP3    H233002   2.382   1.607   2.781 -1.4294  0.6886  1.0638
 3815TIP3   OH233003   1.136   4.281   0.104  0.4604 -0.0499  0.4700
 3815TIP3    H133004   1.163   4.262   0.015  1.5727  0.1531  0.7543
 3815TIP3    H233005   1.207   4.247   0.159  0.5594  1.2665  1.1873
 3816TIP3   OH233006   3.635   4.906   8.765 -0.2074 -0.7192 -0.0018
 3816TIP3    H133007   3.672   4.829   8.723 -1.3891 -0.5869 -1.3809
 3816TIP3    H233008   3.544   4.882   8.784 -1.0340  0.7464 -1.7599
 3817TIP3   OH233009   3.852   3.138   1.131 -0.2569  0.4322  0.2384
 3817TIP3    H133010   3.845   3.152   1.225  0.0931  0.5289  0.2540
 3817TIP3    H233011   3.909   3.061   1.122  1.1117  1.4201  0.0859
 3818TIP3   OH233012   1.616   1.509   0.256  0.0379  0.5971 -0.6466
 3818TIP3    H133013   1.652   1.572   0.319 -1.8720  2.7005 -1.5296
 3818TIP3    H233014   1.642   1.542   0.171 -0.1914 -0.3816 -1.1145
 3819TIP3   OH233015   5.209   4.654   1.451 -0.2209 -0.4264 -0.1472
 3819TIP3    H133016   5.296   4.620   1.469  0.0519 -0.0658 -0.7408
 3819TIP3    H233017   5.225   4.731   1.395 -0.8270  0.4510  0.8423
 3820TIP3   OH233018   6.427   2.127   1.954 -0.9158 -0.7483 -0.3225
 3820TIP3    H133019   6.401   2.050   2.005  1.5089 -1.6243 -0.3046
 3820TIP3    H233020   6.445   2.195   2.019 -0.1292 -1.1244 -0.1431
 3821TIP3   OH233021   0.633   0.966   0.935  0.2832 -0.4276 -0.1937
 3821TIP3    H133022   0.714   1.009   0.908 -0.6738  0.9281 -1.0297
 3821TIP3    H233023   0.577   1.037   0.965 -1.2101 -1.1132 -1.2275
 3822TIP3   OH233024   1.745   2.048   7.976 -0.3088 -0.3677  0.1358
 3822TIP3    H133025   1.825   1.999   7.958 -0.8219 -0.9282 -0.6736
 3822TIP3    H233026   1.742   2.052   8.072  1.0313  0.2652  0.1763
 3823TIP3   OH233027   5.499   0.687   7.613  0.3217 -0.4983 -0.6376
 3823TIP3    H133028   5.557   0.611   7.614 -0.3922 -1.0571 -0.8573
 3823TIP3    H233029   5.420   0.657   7.567  0.1198  0.4415 -0.9338
 3824TIP3   OH233030   4.233   1.266   7.999  0.5117  0.0402 -0.0977
 3824TIP3    H133031   4.253   1.324   7.925 -0.9734  1.2591  0.4010
 3824TIP3    H233032   4.318   1.235   8.028  1.3595  1.7645 -0.5752
 3825TIP3   OH233033   2.621   4.660   7.186 -0.0618 -0.0953 -0.0933
 3825TIP3    H133034   2.629   4.589   7.121 -1.3866 -0.8114  0.4787
 3825TIP3    H233035   2.649   4.738   7.139  1.7406 -1.0183 -0.6567
 3826TIP3   OH233036   0.553   1.706   8.137 -0.2740 -0.2357  0.2267
 3826TIP3    H133037   0.538   1.753   8.219 -1.5187 -0.3253  0.0679
 3826TIP3    H233038   0.642   1.671   8.145 -0.7531 -1.1507  1.9956
 3827TIP3   OH233039   2.789   1.577   8.006 -0.2048 -0.1742  0.3418
 3827TIP3    H133040   2.695   1.596   8.009  0.1933  2.0272  2.9734
 3827TIP3    H233041   2.811   1.547   8.094  1.5568 -0.9283 -0.2891
 3828TIP3   OH233042   2.060   2.026   0.374  0.7620  0.3540  0.2080
 3828TIP3    H133043   1.979   2.001   0.419 -0.2840  2.3744 -0.4366
 3828TIP3    H233044   2.079   1.951   0.318  0.4525 -0.9709  1.7761
 3829TIP3   OH233045   4.545   1.811   2.010 -0.5851  0.0586 -0.4696
 3829TIP3    H133046   4.574   1.879   1.949  0.4140  0.9877  0.9598
 3829TIP3    H233047   4.554   1.729   1.961  1.3045  0.6528 -1.2330
 3830TIP3   OH233048   3.824   6.095   8.451 -0.3054 -0.2113 -0.0503
 3830TIP3    H133049   3.914   6.082   8.423 -0.2928  1.3997 -0.8078
 3830TIP3    H233050   3.782   6.010   8.435  0.8155 -0.6775 -0.6191
 3831TIP3   OH233051   0.374   1.774   1.224  0.3715  0.0028  0.2486
 3831TIP3    H133052   0.290   1.749   1.187  0.5462 -0.6927  0.3030
 3831TIP3    H233053   0.358   1.784   1.317 -0.4396  3.3183 -0.1243
 3832TIP3   OH233054   3.673   2.797   7.270  0.7296 -0.4617  0.0235
 3832TIP3    H133055   3.667   2.865   7.338  1.9475 -0.6161  0.3165
 3832TIP3    H233056   3.754   2.818   7.223  1.8881 -2.4394  0.9931
 3833TIP3   OH233057   0.472   3.058   8.393 -0.0882  0.1491 -0.5659
 3833TIP3    H133058   0.392   3.098   8.360  0.4146  1.5250 -0.1844
 3833TIP3    H233059   0.542   3.114   8.361  0.7647 -1.2170 -1.1673
 3834TIP3   OH233060   1.987   4.258   1.362  0.4797 -0.0177 -0.1010
 3834TIP3    H133061   1.982   4.163   1.355 -2.3322  0.0842 -0.7340
 3834TIP3    H233062   1.904   4.289   1.327  1.8286  2.7847 -1.1687
 3835TIP3   OH233063   0.720   5.077   0.432  0.5055  0.1302 -0.1219
 3835TIP3    H133064   0.681   5.041   0.512 -0.5401 -0.7564 -1.0058
 3835TIP3    H233065   0.804   5.031   0.425  1.5111  1.6039  1.4590
 3836TIP3   OH233066   5.650   5.594   0.451 -0.2427 -0.1112 -0.1096
 3836TIP3    H133067   5.635   5.673   0.503  3.1310  1.4332 -1.2137
 3836TIP3    H233068   5.606   5.611   0.368 -0.7483 -0.0482  0.1658
 3837TIP3   OH233069   1.618   5.175   6.800 -0.6647 -0.6256  0.2712
 3837TIP3    H133070   1.540   5.135   6.761  0.3978 -1.1867 -1.3725
 3837TIP3    H233071   1.677   5.191   6.726  0.6913  0.0172  1.4382
 3838TIP3   OH233072   5.730   0.139   8.722 -0.0038 -0.0135 -0.0082
 3838TIP3    H133073   5.718   0.104   8.811  0.5882  1.1746  0.5570
 3838TIP3    H233074   5.752   0.062   8.670 -1.1850 -0.8672  0.6823
 3839TIP3   OH233075   1.805   1.004   0.099  0.2548 -0.1456  0.2305
 3839TIP3    H133076   1.728   1.010   0.043 -0.2445  0.2742  0.9472
 3839TIP3    H233077   1.810   0.912   0.124 -1.7808  0.2982  2.5837
 3840TIP3   OH233078   6.681   6.335   7.884 -0.2802 -0.2433  0.3591
 3840TIP3    H133079   6.701   6.387   7.962  0.5653  1.4316 -0.9192
 3840TIP3    H233080   6.681   6.398   7.812  0.7408 -2.0054 -1.2669
 3841TIP3   OH233081   4.645   4.135   1.319 -0.4090  0.2813 -0.6015
 3841TIP3    H133082   4.696   4.128   1.399 -0.8349  1.9629 -0.1407
 3841TIP3    H233083   4.554   4.119   1.346 -0.5234  0.5995 -0.7892
 3842TIP3   OH233084   2.239   6.509   0.135 -0.3886 -0.5830  0.4315
 3842TIP3    H133085   2.166   6.571   0.139 -0.4300 -0.7063  2.2391
 3842TIP3    H233086   2.300   6.549   0.073 -0.7945  0.8381  0.9161
 3843TIP3   OH233087   6.242   6.093   2.024 -0.4939  0.3847  0.1409
 3843TIP3    H133088   6.149   6.114   2.037 -0.0564  2.5316  0.2784
 3843TIP3    H233089   6.273   6.070   2.112 -0.8908 -0.3343  0.0954
 3844TIP3   OH233090   3.030   0.565   8.198  0.6903 -0.0152 -0.2308
 3844TIP3    H133091   3.067   0.607   8.120  1.1253  0.0784  0.0240
 3844TIP3    H233092   2.935   0.573   8.187  0.7596  0.6238 -0.4180
 3845TIP3   OH233093   4.953   0.037   7.632  0.1281 -0.3762 -0.5365
 3845TIP3    H133094   5.011  -0.032   7.599 -0.2863 -0.6257 -0.7614
 3845TIP3    H233095   4.866  -0.004   7.633  0.1420 -0.4306  1.0516
 3846TIP3   OH233096   1.547   0.920   8.821  0.0305 -0.0337 -0.2974
 3846TIP3    H133097   1.518   0.994   8.767 -0.2292 -0.1708 -0.3480
 3846TIP3    H233098   1.529   0.843   8.767 -2.2001 -0.3487  0.7789
 3847TIP3   OH233099   2.893   3.581   1.027 -0.5539 -0.6107 -0.3661
 3847TIP3    H133100   2.955   3.652   1.049 -0.1360 -0.3321 -2.2718
 3847TIP3    H233101   2.808   3.615   1.053 -0.3281  0.5348 -1.0253
 3848TIP3   OH233102   0.204   6.322   0.239 -0.5336  0.5738 -0.6449
 3848TIP3    H133103   0.182   6.350   0.151  2.1668  0.8232 -1.3226
 3848TIP3    H233104   0.207   6.226   0.234 -1.0092  0.5596 -0.6546
 3849TIP3   OH233105   1.690   1.231   1.346  0.7692 -0.5486  0.0385
 3849TIP3    H133106   1.728   1.184   1.271 -1.8176 -1.1107 -1.0491
 3849TIP3    H233107   1.681   1.321   1.315 -1.2858 -0.9919 -0.8403
 3850TIP3   OH233108   5.254   0.144   7.732 -0.6557  0.2888 -0.2412
 3850TIP3    H133109   5.172   0.127   7.684 -0.1092  0.2352 -1.1799
 3850TIP3    H233110   5.322   0.107   7.677 -0.1036 -0.9958  1.2489
 3851TIP3   OH233111   0.115   5.033   1.961  0.1853  0.1967  0.1928
 3851TIP3    H133112   0.031   5.015   2.003  0.6245 -0.8228  0.6561
 3851TIP3    H233113   0.180   5.010   2.028  0.9746 -2.7667 -1.4278
 3852TIP3   OH233114   3.817   4.487   2.234  0.0402  0.3550 -0.5512
 3852TIP3    H133115   3.824   4.423   2.305  0.5292  0.1233 -0.7984
 3852TIP3    H233116   3.796   4.435   2.156 -0.2564  0.5778 -0.6222
 3853TIP3   OH233117   3.183   3.737   1.421  0.2211  0.0709  0.1340
 3853TIP3    H133118   3.203   3.709   1.511  1.9755  0.2644 -0.1616
 3853TIP3    H233119   3.158   3.657   1.376 -0.9163  0.0115  0.8528
 3854TIP3   OH233120   6.281   4.744   0.322 -0.2272  0.0515  0.3343
 3854TIP3    H133121   6.293   4.711   0.411  0.9222 -0.6022 -0.0439
 3854TIP3    H233122   6.262   4.667   0.270 -1.6660  0.5250  0.1104
 3855TIP3   OH233123   1.743   2.249   7.429 -0.1721  0.1472 -0.2152
 3855TIP3    H133124   1.652   2.219   7.422 -0.1098 -0.6027  1.6112
 3855TIP3    H233125   1.784   2.219   7.348 -1.5315  0.4949 -1.0742
 3856TIP3   OH233126   3.168   4.595   7.750 -0.1028 -0.1220  0.2799
 3856TIP3    H133127   3.257   4.572   7.723 -0.3719  0.8546 -1.5770
 3856TIP3    H233128   3.180   4.670   7.809  0.3051 -0.1404  0.2239
 3857TIP3   OH233129   5.258   3.270   7.964  0.3392 -0.2636 -0.1392
 3857TIP3    H133130   5.297   3.196   8.012 -0.4198 -1.4132 -1.2219
 3857TIP3    H233131   5.224   3.327   8.033  1.6385 -0.4965  0.7531
 3858TIP3   OH233132   5.759   5.751   1.613  0.0652  0.5308  0.2137
 3858TIP3    H133133   5.709   5.741   1.532  0.8569 -0.4187 -0.1729
 3858TIP3    H233134   5.838   5.698   1.600  0.6817  1.1625  1.2175
 3859TIP3   OH233135   0.859   1.412   2.387  0.1192 -0.1434 -0.5218
 3859TIP3    H133136   0.929   1.459   2.432 -0.7929  1.2199 -0.4692
 3859TIP3    H233137   0.783   1.470   2.394 -0.9644 -1.5013 -0.7484
 3860TIP3   OH233138   6.332   2.374   0.438  0.0279  0.0827 -0.4311
 3860TIP3    H133139   6.378   2.321   0.503  0.3035  0.1773 -0.5438
 3860TIP3    H233140   6.318   2.458   0.481 -3.7536 -1.1637  1.1508
 3861TIP3   OH233141   3.326   4.772   0.915  0.3793 -0.6530 -0.0688
 3861TIP3    H133142   3.404   4.772   0.859  1.5274 -0.2392  1.4482
 3861TIP3    H233143   3.305   4.680   0.927  0.5440 -0.7638 -0.5985
 3862TIP3   OH233144   4.100   6.296   1.402  0.3383 -0.1900  0.0860
 3862TIP3    H133145   4.178   6.349   1.418  0.2850 -0.5264  1.5503
 3862TIP3    H233146   4.096   6.236   1.477 -0.9389 -0.6515 -0.3321
 3863TIP3   OH233147   2.177   4.737   0.596  0.0384  0.5111 -0.2222
 3863TIP3    H133148   2.175   4.650   0.559  1.1253  0.6892 -0.7339
 3863TIP3    H233149   2.192   4.795   0.522 -0.5809  1.1346  0.1212
 3864TIP3   OH233150   3.937   4.554   0.094 -0.2088  0.6684  0.3590
 3864TIP3    H133151   3.904   4.630   0.046 -1.3319  0.2119  0.3895
 3864TIP3    H233152   3.892   4.556   0.178 -2.6210 -1.6770 -0.7289
 3865TIP3   OH233153   5.669   1.754   6.767 -0.3450  0.3575 -0.1622
 3865TIP3    H133154   5.705   1.744   6.855 -1.6067  1.0350  0.4583
 3865TIP3    H233155   5.744   1.741   6.709  0.6084  0.3761  1.0187
 3866TIP3   OH233156   4.871   2.836   8.207  0.2521  0.6205 -0.1557
 3866TIP3    H133157   4.874   2.852   8.113 -0.1267  1.9544  0.0414
 3866TIP3    H233158   4.962   2.848   8.236  0.4273 -0.0951 -0.3806
 3867TIP3   OH233159   6.108   6.768   7.563  0.1093  0.1221  0.1994
 3867TIP3    H133160   6.151   6.711   7.499 -0.2179  0.5736 -0.4278
 3867TIP3    H233161   6.152   6.748   7.646 -0.4182 -1.5049  0.1208
 3868TIP3   OH233162   3.638   3.394   6.939 -0.5397 -0.0459  0.1672
 3868TIP3    H133163   3.561   3.372   6.991  0.5127 -1.5391  1.1883
 3868TIP3    H233164   3.686   3.457   6.993 -0.3747 -0.1652  0.1605
 3869TIP3   OH233165   2.842   6.200   6.387  0.2983  0.4335 -0.1425
 3869TIP3    H133166   2.857   6.254   6.464  0.2918  2.4652 -1.4654
 3869TIP3    H233167   2.923   6.151   6.376  1.3224  2.0586 -0.2570
 3870TIP3   OH233168   3.047   4.979   1.817  0.3109  0.6292 -0.0213
 3870TIP3    H133169   2.974   4.920   1.833 -1.7608  3.1027  0.3046
 3870TIP3    H233170   3.098   4.937   1.748 -0.5732 -1.8318  0.7154
 3871TIP3   OH233171   1.067   6.122   2.434 -0.6820 -0.5328  0.0527
 3871TIP3    H133172   1.076   6.176   2.356 -0.8586 -0.5122  0.0474
 3871TIP3    H233173   1.031   6.181   2.500 -1.7721 -0.8806 -0.2148
 3872TIP3   OH233174   4.725   0.496   8.039  0.1347  0.1054 -0.2267
 3872TIP3    H133175   4.761   0.443   7.968  1.1135  0.0118  0.3134
 3872TIP3    H233176   4.703   0.579   7.997  0.7707  0.0767 -0.6383
 3873TIP3   OH233177   3.392   2.917   8.053 -0.9077  0.0116  0.1793
 3873TIP3    H133178   3.354   2.840   8.095  0.0550 -0.2027  0.6809
 3873TIP3    H233179   3.351   2.991   8.098  0.7857 -0.1984  2.2182
 3874TIP3   OH233180   0.577   1.691   0.855 -0.8220  0.2446  0.2740
 3874TIP3    H133181   0.487   1.688   0.821 -1.3228 -0.1647  1.5649
 3874TIP3    H233182   0.599   1.784   0.859 -0.2051  0.3091 -2.4206
 3875TIP3   OH233183   2.468   2.723   0.217  0.1791  0.3387  0.1382
 3875TIP3    H133184   2.393   2.680   0.175  2.3547 -2.2229 -1.5022
 3875TIP3    H233185   2.487   2.797   0.160 -2.3920  2.5518  1.8860
 3876TIP3   OH233186   3.712   0.132   0.758 -0.5701 -0.5407  0.0873
 3876TIP3    H133187   3.645   0.200   0.765  0.3015  0.4253 -0.5476
 3876TIP3    H233188   3.698   0.093   0.672 -0.6832 -0.7397  0.1964
 3877TIP3   OH233189   4.724   3.921   0.343 -0.1383  0.4715  0.4496
 3877TIP3    H133190   4.706   3.837   0.385 -2.2643  0.4883 -0.3155
 3877TIP3    H233191   4.758   3.976   0.414  0.1112 -0.6497  1.2283
 3878TIP3   OH233192   3.841   3.650   0.554 -0.1210 -0.0920  0.3754
 3878TIP3    H133193   3.905   3.713   0.521 -0.1776 -0.8250 -1.2450
 3878TIP3    H233194   3.767   3.657   0.492 -0.5592 -0.9917  0.7816
 3879TIP3   OH233195   3.826   5.878   7.784 -0.2645  0.5530 -0.3943
 3879TIP3    H133196   3.893   5.904   7.721  0.0514 -0.9448 -0.7121
 3879TIP3    H233197   3.874   5.859   7.864 -0.5165  1.0883 -0.1040
 3880TIP3   OH233198   1.259   0.214   7.060 -0.8176  0.5127  0.1666
 3880TIP3    H133199   1.189   0.245   7.002  0.9522  1.1605 -1.7409
 3880TIP3    H233200   1.318   0.289   7.069  0.7720 -0.6563 -0.1073
 3881TIP3   OH233201   2.561   2.315   6.817  0.4030 -0.7813 -0.0430
 3881TIP3    H133202   2.611   2.292   6.896 -0.8655 -0.5818  0.8438
 3881TIP3    H233203   2.471   2.289   6.836 -0.4726  1.7524 -0.3060
 3882TIP3   OH233204   0.674   5.419   8.188 -0.0164 -0.5998  0.1153
 3882TIP3    H133205   0.693   5.419   8.282  2.0325 -2.7167 -0.2162
 3882TIP3    H233206   0.760   5.412   8.146 -1.0170 -1.9832 -1.8503
 3883TIP3   OH233207   2.679   1.581   8.615  0.4347  0.1361 -0.0028
 3883TIP3    H133208   2.748   1.546   8.558  0.3506 -0.7181  0.4067
 3883TIP3    H233209   2.666   1.670   8.584  2.7417  0.8281  0.8150
 3884TIP3   OH233210   1.261   4.192   6.982 -0.1993  0.2599 -0.3028
 3884TIP3    H133211   1.171   4.224   6.984 -0.8911 -1.4600 -1.3617
 3884TIP3    H233212   1.275   4.164   6.891  0.5343 -1.7576  0.3628
 3885TIP3   OH233213   5.946   5.389   8.268  0.1652  0.4854  0.4724
 3885TIP3    H133214   5.871   5.440   8.237  0.9854  1.7900  0.5523
 3885TIP3    H233215   5.955   5.413   8.360  0.4329  0.0179  0.5726
 3886TIP3   OH233216   6.014   2.364   8.700 -0.7179 -0.2006 -0.2348
 3886TIP3    H133217   6.074   2.361   8.774  1.1741 -1.2806 -1.7164
 3886TIP3    H233218   5.998   2.457   8.686 -0.5056  0.0497  1.0350
 3887TIP3   OH233219   1.850   0.042   7.680 -0.5917  0.1866  0.3013
 3887TIP3    H133220   1.895   0.044   7.764 -0.7274  1.0733  0.3696
 3887TIP3    H233221   1.916   0.069   7.617 -0.5414 -0.2887  0.1522
 3888TIP3   OH233222   3.303   0.741   8.769  0.4403 -0.0759 -0.5886
 3888TIP3    H133223   3.328   0.805   8.836  0.1960  0.9724 -1.4698
 3888TIP3    H233224   3.380   0.735   8.713 -0.3171  1.2249 -1.8357
 3889TIP3   OH233225   3.960   3.817   0.057 -0.0491  0.2878  0.8083
 3889TIP3    H133226   3.954   3.778   0.145 -0.7177 -0.3860  0.4738
 3889TIP3    H233227   4.051   3.801   0.031 -0.1125 -0.3838  0.9841
 3890TIP3   OH233228   6.605   2.449   0.940  0.3380 -0.2359  0.2023
 3890TIP3    H133229   6.618   2.375   1.000 -0.4043 -1.0145 -0.5756
 3890TIP3    H233230   6.519   2.483   0.962  0.3382 -0.1081  0.0059
 3891TIP3   OH233231   0.775   5.083   1.959 -0.3319  0.5886  0.2368
 3891TIP3    H133232   0.851   5.041   1.999 -0.6976 -1.3052 -0.9175
 3891TIP3    H233233   0.705   5.074   2.023 -0.1518  0.3140  0.3934
 3892TIP3   OH233234   1.127   5.413   7.787 -0.1873  1.1111  0.0386
 3892TIP3    H133235   1.105   5.458   7.869 -1.0751  0.6313  0.0753
 3892TIP3    H233236   1.172   5.333   7.815 -0.3454  1.0267  0.0526
 3893TIP3   OH233237   4.575   2.697   1.724 -0.2588  0.2091 -0.3312
 3893TIP3    H133238   4.604   2.757   1.655  0.5893 -0.4533 -0.5685
 3893TIP3    H233239   4.516   2.750   1.779 -0.1965  1.0089 -1.0165
 3894TIP3   OH233240   0.059   4.461   1.641 -0.2784 -0.3415  0.5335
 3894TIP3    H133241   0.124   4.390   1.642 -2.4451 -2.6276 -2.4408
 3894TIP3    H233242  -0.023   4.418   1.666 -1.1208  2.0043  2.1600
 3895TIP3   OH233243   3.866   5.467   1.126 -0.5824  0.6214 -0.1578
 3895TIP3    H133244   3.914   5.389   1.098 -1.3246 -0.2921  1.0096
 3895TIP3    H233245   3.904   5.490   1.210 -0.9403  1.0056 -0.0988
 3896TIP3   OH233246   1.657   3.144   0.213  0.1605  0.5832 -0.3309
 3896TIP3    H133247   1.562   3.150   0.202  0.1025  0.0366 -0.1633
 3896TIP3    H233248   1.692   3.147   0.124 -0.1346 -1.0029 -0.5262
 3897TIP3   OH233249   0.242   2.758   0.693  0.4689  0.2977  0.1088
 3897TIP3    H133250   0.276   2.823   0.632  1.6659 -0.7940 -0.4338
 3897TIP3    H233251   0.312   2.693   0.701  1.0900  1.1955  3.9346
 3898TIP3   OH233252   1.003   3.134   0.555 -0.1799  0.7487  0.1441
 3898TIP3    H133253   0.914   3.141   0.589 -0.3122 -0.4524  0.0917
 3898TIP3    H233254   1.003   3.054   0.502  1.5189 -0.6157  2.0356
 3899TIP3   OH233255   1.563   2.597   6.511 -0.2123  0.3258 -0.0728
 3899TIP3    H133256   1.659   2.593   6.516 -0.2963 -0.6539  1.0490
 3899TIP3    H233257   1.543   2.690   6.526  0.4719  0.1701  2.0745
 3900TIP3   OH233258   3.951   3.559   8.710  0.1504 -0.0553 -0.0690
 3900TIP3    H133259   3.861   3.578   8.737 -0.1248 -0.0266 -0.9845
 3900TIP3    H233260   3.945   3.475   8.666  0.9142 -1.0262  1.5832
 3901TIP3   OH233261   5.113   6.779   8.395  0.4371 -0.2069  0.1422
 3901TIP3    H133262   5.020   6.758   8.406  0.0996  1.0028 -0.2762
 3901TIP3    H233263   5.158   6.718   8.454 -0.6671 -0.2389  0.9891
 3902TIP3   OH233264   6.112   1.517   1.915  0.4166 -0.3674  0.7348
 3902TIP3    H133265   6.081   1.464   1.841  1.1221  0.8825 -0.5047
 3902TIP3    H233266   6.119   1.606   1.880  2.2913 -0.0215  1.8435
 3903TIP3   OH233267   4.096   0.267   8.342 -0.2722 -0.1563 -0.2844
 3903TIP3    H133268   4.040   0.190   8.331  0.6230 -0.8714  0.0597
 3903TIP3    H233269   4.086   0.315   8.260 -1.0215 -0.5098 -0.4152
 3904TIP3   OH233270   4.686   2.403   8.216 -0.6984 -0.0164 -0.1546
 3904TIP3    H133271   4.619   2.438   8.157  1.1050  1.3194 -1.5093
 3904TIP3    H233272   4.712   2.320   8.176  0.6327  0.9594 -1.4416
 3905TIP3   OH233273   3.011   1.143   6.983  0.3039  0.3519 -0.3521
 3905TIP3    H133274   2.916   1.151   6.986  0.1788 -1.0736  2.1876
 3905TIP3    H233275   3.030   1.111   6.894 -1.7427 -0.8839 -0.3885
 3906TIP3   OH233276   6.567   3.441   7.349 -0.5099  0.3518 -0.1014
 3906TIP3    H133277   6.632   3.491   7.301  2.0973 -2.5362  0.1031
 3906TIP3    H233278   6.553   3.490   7.429  1.1076  1.3096 -0.3662
 3907TIP3   OH233279   0.861   2.025   8.009 -0.5811 -0.0479  0.0679
 3907TIP3    H133280   0.821   2.104   8.046 -0.8930  0.0187 -0.4132
 3907TIP3    H233281   0.889   2.051   7.922  1.0968  0.0955  0.6139
 3908TIP3   OH233282   0.216   1.273   7.715  0.5002 -0.5889 -0.2295
 3908TIP3    H133283   0.175   1.231   7.639  0.3563  0.5323 -0.8011
 3908TIP3    H233284   0.206   1.367   7.698  0.6530 -0.3134  1.0816
 3909TIP3   OH233285   3.143   5.677   2.222 -0.0125  0.7113  0.2141
 3909TIP3    H133286   3.140   5.770   2.242  2.9510  1.0508 -0.4551
 3909TIP3    H233287   3.195   5.639   2.292  0.3513 -0.1156 -0.4837
 3910TIP3   OH233288   1.572   5.501   8.106 -0.0765 -0.1226 -0.0210
 3910TIP3    H133289   1.520   5.426   8.135 -2.1408  1.5914  0.9330
 3910TIP3    H233290   1.549   5.512   8.014  0.2169 -0.6182 -0.1592
 3911TIP3   OH233291   5.696   6.589   7.333  0.2666 -0.5648  0.1412
 3911TIP3    H133292   5.769   6.561   7.278  0.0960 -1.6021  0.4293
 3911TIP3    H233293   5.737   6.625   7.412  0.4851 -2.0412  0.7373
 3912TIP3   OH233294   3.096   0.810   8.029 -0.0421 -0.1350 -0.3517
 3912TIP3    H133295   3.143   0.874   7.976 -1.0867 -0.4343 -1.7122
 3912TIP3    H233296   3.082   0.853   8.113  0.4029  0.9248 -0.8001
 3913TIP3   OH233297   2.056   0.127   2.768 -0.1620 -0.0359 -0.0886
 3913TIP3    H133298   2.035   0.153   2.679 -2.2053 -0.0058  0.3322
 3913TIP3    H233299   2.069   0.033   2.764  0.1464  0.0230 -0.4775
 3914TIP3   OH233300   4.445   0.711   6.612 -0.0477 -0.2566 -0.3984
 3914TIP3    H133301   4.393   0.678   6.686  1.0803 -0.7594  0.1931
 3914TIP3    H233302   4.407   0.797   6.593 -0.5088 -0.2148  0.6155
 3915TIP3   OH233303   5.466   4.586   0.627  0.3824  0.4333  0.2846
 3915TIP3    H133304   5.408   4.606   0.553 -1.0203 -2.1797  0.5440
 3915TIP3    H233305   5.407   4.563   0.698  1.7419  0.5200  1.4882
 3916TIP3   OH233306   3.493   0.987   0.922 -0.2634 -0.3989  0.1304
 3916TIP3    H133307   3.469   0.968   0.831  0.4374  0.8987 -0.3577
 3916TIP3    H233308   3.552   0.916   0.946 -1.8275 -1.7265  0.1938
 3917TIP3   OH233309   0.838   0.528   6.592 -0.3111 -0.6446  0.2362
 3917TIP3    H133310   0.892   0.569   6.525 -0.4557 -0.0618  0.4727
 3917TIP3    H233311   0.809   0.446   6.552 -2.4170  0.8047 -1.4089
 3918TIP3   OH233312   0.453   3.117   0.323 -0.7870 -0.1016  0.3832
 3918TIP3    H133313   0.368   3.080   0.300 -1.4055  1.6787 -0.2958
 3918TIP3    H233314   0.511   3.040   0.329 -2.3194 -1.2946  0.4136
 3919TIP3   OH233315   4.238   5.959   1.082 -0.0952  0.2961 -0.6140
 3919TIP3    H133316   4.185   5.969   1.003  0.5075  1.2415 -0.9188
 3919TIP3    H233317   4.233   6.044   1.125  0.2077  0.0246 -0.0260
 3920TIP3   OH233318   3.899   6.321   7.065  0.2324 -0.1866 -0.5166
 3920TIP3    H133319   3.819   6.315   7.013 -0.2490 -0.2834  0.2196
 3920TIP3    H233320   3.970   6.301   7.004 -0.3370 -0.4878 -1.0804
 3921TIP3   OH233321   1.825   6.201   0.182 -0.1595  0.0424 -0.4012
 3921TIP3    H133322   1.884   6.239   0.248 -0.0728  1.2301 -1.1363
 3921TIP3    H233323   1.837   6.106   0.191 -0.5052  0.1375  1.6061
 3922TIP3   OH233324   1.303   4.173   0.289  0.1252  0.0611  0.3979
 3922TIP3    H133325   1.381   4.119   0.287  0.4386  0.5106  0.2869
 3922TIP3    H233326   1.260   4.151   0.372  1.2034  0.9696  1.2262
 3923TIP3   OH233327   0.268   1.403   1.055 -0.4980 -0.1586  0.3651
 3923TIP3    H133328   0.194   1.344   1.067 -2.1130  1.6381 -0.1846
 3923TIP3    H233329   0.233   1.490   1.077  1.7038  0.6602  0.9375
 3924TIP3   OH233330   5.333   4.217   0.865 -0.1556 -0.1734  0.4631
 3924TIP3    H133331   5.388   4.213   0.787 -1.2774 -0.9476 -0.3212
 3924TIP3    H233332   5.395   4.224   0.938  1.1189 -2.9965 -0.2205
 3925TIP3   OH233333   1.418   0.436   7.116 -0.1601  0.5834  0.2346
 3925TIP3    H133334   1.508   0.405   7.130 -0.1399 -0.0045 -1.0030
 3925TIP3    H233335   1.428   0.524   7.080  0.0518 -0.2925 -2.0034
 3926TIP3   OH233336   3.902   1.237   6.754  0.1403  0.3371 -0.0646
 3926TIP3    H133337   3.986   1.278   6.774  1.1336 -1.6941  0.1244
 3926TIP3    H233338   3.922   1.171   6.687 -0.9165 -1.5269  1.3769
 3927TIP3   OH233339   6.111   0.533   6.760 -0.2210 -0.3795  0.3496
 3927TIP3    H133340   6.133   0.621   6.732  1.8891 -0.1743  2.2791
 3927TIP3    H233341   6.196   0.491   6.777 -1.1450 -2.8071 -0.5273
 3928TIP3   OH233342   6.326   2.912   0.483 -0.3483  0.7585 -0.0370
 3928TIP3    H133343   6.266   2.941   0.414  0.4108 -0.4034 -1.2181
 3928TIP3    H233344   6.321   2.817   0.482  0.6019  0.6800  0.6692
 3929TIP3   OH233345   1.138   0.335   2.445 -0.0469 -0.0087  0.6054
 3929TIP3    H133346   1.224   0.312   2.478 -0.4242 -1.0714  0.8757
 3929TIP3    H233347   1.076   0.296   2.507 -0.7634 -1.8173 -1.1372
 3930TIP3   OH233348   5.714   3.153   0.711  0.3567  0.0716 -0.0205
 3930TIP3    H133349   5.788   3.114   0.666 -0.2495 -0.0874 -0.9051
 3930TIP3    H233350   5.712   3.110   0.796  1.2312  0.0321 -0.0145
 3931TIP3   OH233351   0.144   5.343   2.110 -0.2949  0.3158  0.1421
 3931TIP3    H133352   0.144   5.439   2.115  0.1351  0.2581  2.7444
 3931TIP3    H233353   0.219   5.316   2.164 -0.2479 -1.5008 -0.7567
 3932TIP3   OH233354   6.331   2.848   1.840  0.3881 -0.7933 -0.5707
 3932TIP3    H133355   6.326   2.912   1.768  2.5841 -0.7057 -0.6896
 3932TIP3    H233356   6.367   2.897   1.913 -1.9379 -0.8574  0.7253
 3933TIP3   OH233357   0.263   6.756   7.959 -0.3811 -0.2538  0.1081
 3933TIP3    H133358   0.175   6.776   7.990  0.0185  0.9505  0.5417
 3933TIP3    H233359   0.300   6.841   7.936 -0.2762 -0.9674 -2.7495
 3934TIP3   OH233360   1.589   0.033   1.748  0.6249  0.4738 -0.4087
 3934TIP3    H133361   1.569   0.125   1.763 -1.5440  0.2591 -1.5694
 3934TIP3    H233362   1.675   0.033   1.705  0.6872  1.9358 -0.3163
 3935TIP3   OH233363   3.717   2.336   8.121 -0.0484  0.7226  0.3088
 3935TIP3    H133364   3.752   2.282   8.192 -0.2879 -2.5973 -1.8814
 3935TIP3    H233365   3.788   2.340   8.057 -1.1698  0.0076 -1.0451
 3936TIP3   OH233366   5.380   4.870   0.255 -0.2575 -0.3745  0.1241
 3936TIP3    H133367   5.300   4.920   0.238 -0.4830 -0.7612  0.0369
 3936TIP3    H233368   5.446   4.937   0.272 -0.5121 -0.0372 -0.1739
 3937TIP3   OH233369   2.538   1.731   7.623  0.3544  0.0594  0.8083
 3937TIP3    H133370   2.622   1.776   7.624  0.7748 -0.6454 -0.2589
 3937TIP3    H233371   2.511   1.734   7.531 -1.7044  1.8700  1.3780
 3938TIP3   OH233372   6.702   1.217   1.398 -0.1037  0.0220 -0.6401
 3938TIP3    H133373   6.764   1.150   1.370  2.3262  1.9635 -0.3591
 3938TIP3    H233374   6.698   1.208   1.494  0.4932  0.4145 -0.5652
 3939TIP3   OH233375   3.775   4.999   2.048  0.0012 -0.2162  0.1265
 3939TIP3    H133376   3.801   4.908   2.037  1.0130  0.1966 -1.2319
 3939TIP3    H233377   3.845   5.049   2.005 -0.1802  1.2342  1.4363
 3940TIP3   OH233378   0.971   1.257   1.606  0.3313 -0.8653  0.4721
 3940TIP3    H133379   0.994   1.181   1.554 -1.2370 -1.0874  0.0633
 3940TIP3    H233380   1.055   1.298   1.628  1.1325 -2.1660 -0.1033
 3941TIP3   OH233381   3.428   2.638   8.429  0.5814  0.5642  0.1370
 3941TIP3    H133382   3.462   2.643   8.340  0.9008 -0.2468  0.2030
 3941TIP3    H233383   3.374   2.559   8.429 -0.5191  1.2913  0.3061
 3942TIP3   OH233384   0.707   4.897   8.072  0.3998 -0.1457 -0.1135
 3942TIP3    H133385   0.674   4.973   8.119  2.5299  0.1447  1.0225
 3942TIP3    H233386   0.730   4.834   8.141 -0.7307 -1.5952 -1.0011
 3943TIP3   OH233387   6.207   6.419   8.308 -0.3776  0.8035 -0.4720
 3943TIP3    H133388   6.120   6.419   8.269 -0.4688 -0.1694 -0.3109
 3943TIP3    H233389   6.211   6.337   8.357  0.7897  0.6193 -0.8370
 3944TIP3   OH233390   2.001   1.614   0.034  0.4163 -0.5134  0.0774
 3944TIP3    H133391   2.058   1.574  -0.032  0.7902  2.0368 -1.2502
 3944TIP3    H233392   1.925   1.645  -0.015  1.0172  2.0385  0.6361
 3945TIP3   OH233393   2.142   5.667   2.563  0.7610  0.0034  0.5886
 3945TIP3    H133394   2.084   5.603   2.606  1.4194  0.0837  1.6531
 3945TIP3    H233395   2.119   5.662   2.470 -0.9381  0.0394  0.9671
 3946TIP3   OH233396   3.970   5.002   6.581  0.0420 -0.1068 -0.1735
 3946TIP3    H133397   4.046   5.054   6.556  0.7382 -1.1869 -0.3910
 3946TIP3    H233398   3.913   5.063   6.628  2.1564  0.1883  2.2398
 3947TIP3   OH233399   5.861   3.125   6.385 -0.2715  0.7487  0.5102
 3947TIP3    H133400   5.852   3.179   6.464  1.2451  0.5303  0.8600
 3947TIP3    H233401   5.948   3.146   6.351  0.6420 -1.9342  1.0128
 3948TIP3   OH233402   5.697   3.918   2.655  0.6529  0.1213  0.1010
 3948TIP3    H133403   5.662   3.892   2.740  0.6265  0.0141  0.0569
 3948TIP3    H233404   5.677   3.845   2.597  2.3157 -0.6309  0.4254
 3949TIP3   OH233405   5.813   4.486   2.060  0.0423  0.0284 -0.7092
 3949TIP3    H133406   5.874   4.557   2.080 -0.0433 -0.0806 -0.0428
 3949TIP3    H233407   5.729   4.516   2.093 -0.1605 -0.0421 -1.1617
 3950TIP3   OH233408   2.197   3.005   8.359 -0.4002 -0.3929  0.3069
 3950TIP3    H133409   2.264   3.073   8.359 -0.0099 -0.7233 -1.6593
 3950TIP3    H233410   2.203   2.965   8.446 -0.6419  2.0285  1.5284
 3951TIP3   OH233411   4.399   4.520   0.963 -0.1680  0.1734 -0.9023
 3951TIP3    H133412   4.491   4.545   0.958 -0.3165  0.5763 -1.8056
 3951TIP3    H233413   4.365   4.566   1.039  0.0934  1.0103 -1.2776
 3952TIP3   OH233414   6.040   1.226   0.058  0.4553 -0.1987  0.0291
 3952TIP3    H133415   6.108   1.164   0.033  1.0794  0.5497 -0.1845
 3952TIP3    H233416   6.000   1.189   0.136  2.6291  0.4225  1.5166
 3953TIP3   OH233417   1.830   2.486   8.196 -0.1203 -0.3657  0.2426
 3953TIP3    H133418   1.925   2.490   8.207 -0.1147  0.4855 -0.0373
 3953TIP3    H233419   1.795   2.484   8.285  0.1461 -0.4073  0.3461
 3954TIP3   OH233420   5.236   2.777   6.970  0.7349 -0.1680  0.0991
 3954TIP3    H133421   5.287   2.846   6.929 -1.7428  0.9488 -1.2700
 3954TIP3    H233422   5.204   2.724   6.897 -2.6158  1.0506  0.5291
 3955TIP3   OH233423   1.714   0.227   1.464  0.0471 -0.3569  0.6642
 3955TIP3    H133424   1.706   0.300   1.403  1.5959  0.3050  1.1827
 3955TIP3    H233425   1.651   0.162   1.433 -0.1096  0.4749 -0.8620
 3956TIP3   OH233426   1.477   5.694   7.350 -0.0866  0.1796  0.4191
 3956TIP3    H133427   1.573   5.696   7.342 -0.1794  0.6217 -0.7254
 3956TIP3    H233428   1.460   5.614   7.400  0.8319 -0.4563 -0.2353
 3957TIP3   OH233429   4.744   1.852   7.469  0.2412 -0.4499  0.1826
 3957TIP3    H133430   4.839   1.845   7.466  0.4311  1.4417  0.6365
 3957TIP3    H233431   4.723   1.924   7.410 -0.9447 -0.9714 -0.0631
 3958TIP3   OH233432   2.201   5.959   8.853  0.3326  0.1303 -0.0818
 3958TIP3    H133433   2.206   6.044   8.898 -0.2885 -0.7351  1.7338
 3958TIP3    H233434   2.232   5.896   8.918 -1.1852 -1.2623 -0.6335
 3959TIP3   OH233435   5.521   1.239   0.104 -0.2189 -0.7104 -0.1254
 3959TIP3    H133436   5.559   1.291   0.174  1.0220 -2.3512  0.4951
 3959TIP3    H233437   5.440   1.285   0.081  2.0683  3.0513 -1.6012
 3960TIP3   OH233438   4.873   1.507   7.617  0.3206 -0.7669  0.1125
 3960TIP3    H133439   4.848   1.488   7.527 -0.0729 -0.1144  0.0801
 3960TIP3    H233440   4.808   1.461   7.670 -1.0876  1.0167  0.0280
 3961TIP3   OH233441   5.625   0.069   8.013  0.2741 -0.6709  0.5230
 3961TIP3    H133442   5.669   0.094   7.932  0.4807 -0.6011  0.6555
 3961TIP3    H233443   5.636  -0.026   8.019 -1.3403 -0.9656 -0.4741
 3962TIP3   OH233444   1.578   6.285   0.243 -0.4408 -0.6131  0.0305
 3962TIP3    H133445   1.661   6.240   0.226  0.0559  0.4610 -0.5111
 3962TIP3    H233446   1.550   6.252   0.328 -0.6076 -2.6746 -0.7507
 3963TIP3   OH233447   6.773   6.226   1.918  0.1423  0.0231 -0.6225
 3963TIP3    H133448   6.711   6.223   1.991  0.5471 -1.3610 -0.2898
 3963TIP3    H233449   6.751   6.305   1.870 -2.0806 -0.5960 -0.6981
 3964TIP3   OH233450   6.287   5.601   1.597 -0.1281 -0.5324 -0.0296
 3964TIP3    H133451   6.229   5.657   1.546 -0.6948  0.7071  1.8415
 3964TIP3    H233452   6.268   5.624   1.688  2.2605 -1.1288  0.7076
 3965TIP3   OH233453   5.277   4.252   6.814 -0.1154 -0.0433  0.3672
 3965TIP3    H133454   5.281   4.339   6.853 -1.2968 -0.1594  0.7889
 3965TIP3    H233455   5.352   4.248   6.755 -0.5246  1.5681 -0.2951
 3966TIP3   OH233456   4.858   3.868   8.043  0.5803  0.0052 -0.2828
 3966TIP3    H133457   4.777   3.901   8.082  1.0769  1.5753 -0.5089
 3966TIP3    H233458   4.840   3.776   8.024 -1.1800  0.3459 -0.4310
 3967TIP3   OH233459   0.701   2.919   7.693 -0.0470  0.3374 -1.0719
 3967TIP3    H133460   0.623   2.877   7.731  0.5993  0.1704  0.1389
 3967TIP3    H233461   0.760   2.930   7.768  1.0116  0.6418 -1.9359
 3968TIP3   OH233462   2.701   2.056   7.484  0.5763 -0.3675 -0.3112
 3968TIP3    H133463   2.753   2.074   7.561 -0.1087  0.8106 -0.0983
 3968TIP3    H233464   2.611   2.079   7.509  0.5359  1.5082 -1.8735
 3969TIP3   OH233465   1.534   2.141   1.077  0.8185 -0.4018  0.4376
 3969TIP3    H133466   1.564   2.184   0.997 -0.4082  2.6179  1.4347
 3969TIP3    H233467   1.460   2.088   1.049  0.3579  0.6725 -0.4760
 3970TIP3   OH233468   2.758   4.246   1.812  0.2294 -0.5095 -0.2014
 3970TIP3    H133469   2.699   4.299   1.759 -1.2508 -1.4079  0.4887
 3970TIP3    H233470   2.827   4.306   1.839 -1.1665  0.9600  0.2000
 3971TIP3   OH233471   3.156   5.807   8.787  0.3723  0.2195  0.0938
 3971TIP3    H133472   3.125   5.874   8.727 -0.8016  0.2108  0.6779
 3971TIP3    H233473   3.237   5.775   8.747  0.8554  1.8396 -0.2851
 3972TIP3   OH233474   0.557   5.996   0.919  0.3970 -0.8708 -0.1037
 3972TIP3    H133475   0.466   5.995   0.891  0.8257 -0.6603 -1.6195
 3972TIP3    H233476   0.554   5.982   1.013 -1.3087  1.3246  0.2247
 3973TIP3   OH233477   1.753   3.992   0.546  0.0683  0.5877 -0.2518
 3973TIP3    H133478   1.747   4.087   0.537 -3.6663  0.5787  0.6754
 3973TIP3    H233479   1.738   3.975   0.639  0.2892 -0.9526 -0.4679
 3974TIP3   OH233480   6.709   3.267   7.641  0.3625 -0.5382 -0.3041
 3974TIP3    H133481   6.664   3.352   7.634 -0.3061 -0.7667  0.9170
 3974TIP3    H233482   6.800   3.287   7.620  0.2035  0.4759 -0.1042
 3975TIP3   OH233483   5.877   6.600   6.174  0.1091  0.0969 -0.2756
 3975TIP3    H133484   5.794   6.555   6.162  0.3817 -0.8842  1.2838
 3975TIP3    H233485   5.858   6.669   6.237  0.0613  1.2005 -1.4456
 3976TIP3   OH233486   4.225   6.052   1.842 -0.1842 -0.0290 -0.3239
 3976TIP3    H133487   4.168   5.978   1.862  0.1351 -0.1275  0.2302
 3976TIP3    H233488   4.232   6.100   1.924  0.1858  0.2234 -0.4986
 3977TIP3   OH233489   6.525   5.125   7.579  0.0299  0.1536 -0.3725
 3977TIP3    H133490   6.490   5.116   7.667  0.0253 -0.7571 -0.4586
 3977TIP3    H233491   6.449   5.115   7.522  0.0661  0.5252 -0.4876
 3978TIP3   OH233492   0.099   4.912   0.167 -0.2143 -0.5201 -0.0530
 3978TIP3    H133493   0.020   4.869   0.199 -1.4188  0.5300 -1.4309
 3978TIP3    H233494   0.165   4.843   0.165 -1.3515 -1.6591  0.2600
 3979TIP3   OH233495   1.614   6.574   1.962  0.5407 -0.5575  0.2973
 3979TIP3    H133496   1.624   6.657   2.009  1.3765 -0.4904  0.0166
 3979TIP3    H233497   1.635   6.507   2.027 -2.6517 -0.7625  1.3159
 3980TIP3   OH233498   4.821   2.389   7.124  0.7413  0.6506 -0.1673
 3980TIP3    H133499   4.867   2.405   7.206  2.2880 -2.9165 -0.1748
 3980TIP3    H233500   4.881   2.420   7.056  0.8361  0.7657 -0.0301
 3981TIP3   OH233501   5.492   0.565   1.036 -0.6694 -0.5062 -0.0623
 3981TIP3    H133502   5.481   0.653   1.072 -0.0526  0.2260 -1.5354
 3981TIP3    H233503   5.441   0.509   1.093 -0.6342  0.7286  1.2503
 3982TIP3   OH233504   2.336   3.052   7.663  0.0788 -0.1221 -0.0554
 3982TIP3    H133505   2.430   3.060   7.646 -0.4089  1.4952 -2.3053
 3982TIP3    H233506   2.314   3.130   7.714 -0.1787 -0.1898 -0.0604
 3983TIP3   OH233507   1.044   0.587   2.434 -0.0255 -0.1266  0.4755
 3983TIP3    H133508   0.962   0.588   2.484 -0.1122 -2.2078  0.4362
 3983TIP3    H233509   1.076   0.498   2.441  2.3782  0.6875  0.6403
 3984TIP3   OH233510   3.719   0.431   0.236 -0.1802 -0.0979  0.3317
 3984TIP3    H133511   3.669   0.361   0.195  0.2430 -0.6527  0.7429
 3984TIP3    H233512   3.789   0.385   0.283  2.0746  0.6881 -1.9685
 3985TIP3   OH233513   5.924   5.671   2.042 -0.3198  0.2592  0.5521
 3985TIP3    H133514   5.941   5.606   2.110 -2.1031  1.3245  2.1218
 3985TIP3    H233515   5.890   5.747   2.090 -2.5113  0.7504 -1.5828
 3986TIP3   OH233516   1.088   4.828   2.010 -0.6990 -0.2886 -0.0742
 3986TIP3    H133517   1.142   4.879   1.949 -0.7573 -0.3511 -0.1795
 3986TIP3    H233518   1.073   4.887   2.084  0.0749 -0.5092  0.2588
 3987TIP3   OH233519   6.281   4.830   8.279 -0.2406  0.1086  0.0076
 3987TIP3    H133520   6.187   4.846   8.270 -0.1743 -0.1390 -1.5673
 3987TIP3    H233521   6.320   4.885   8.211  0.7948  0.5261  0.9276
 3988TIP3   OH233522   1.122   2.354   0.898 -0.0440 -0.4336  0.1601
 3988TIP3    H133523   1.128   2.260   0.882 -0.9406 -1.0086  2.8733
 3988TIP3    H233524   1.086   2.363   0.986  3.6480  2.3757  1.6818
 3989TIP3   OH233525   3.815   3.572   7.072  0.5603  0.5290 -0.5280
 3989TIP3    H133526   3.804   3.609   7.160  2.3344  0.9115 -0.4265
 3989TIP3    H233527   3.871   3.496   7.085 -1.6354 -1.2625 -0.9706
 3990TIP3   OH233528   0.452   3.156   8.667 -0.4684  0.2481  0.2927
 3990TIP3    H133529   0.467   3.078   8.613 -1.4840 -0.9593  1.6797
 3990TIP3    H233530   0.518   3.151   8.735 -1.3237 -0.1146  1.1169
 3991TIP3   OH233531   0.667   0.415   1.737 -0.6226 -0.5529  0.0210
 3991TIP3    H133532   0.707   0.469   1.805  1.7034 -2.2652  0.1238
 3991TIP3    H233533   0.586   0.382   1.777 -0.0019 -0.4249  1.4299
 3992TIP3   OH233534   5.278   3.355   0.565  0.0775 -0.5520 -0.2004
 3992TIP3    H133535   5.199   3.406   0.547 -0.3125 -0.7876  0.8065
 3992TIP3    H233536   5.252   3.293   0.633  1.8328  1.2464  2.2742
 3993TIP3   OH233537   4.080   0.058   7.830 -0.2806 -0.0300  0.7311
 3993TIP3    H133538   4.128   0.090   7.906  0.2143 -0.6352  0.6771
 3993TIP3    H233539   4.108  -0.033   7.820 -2.9675 -1.0984  1.9611
 3994TIP3   OH233540   3.583   2.487   1.244  0.0827 -0.2840 -0.1353
 3994TIP3    H133541   3.524   2.419   1.276  0.0025 -0.6235 -0.9718
 3994TIP3    H233542   3.565   2.493   1.150 -0.8595  1.8529  0.1276
 3995TIP3   OH233543   5.482   2.890   8.603  0.2336 -0.0121 -0.1437
 3995TIP3    H133544   5.427   2.813   8.595  0.3875 -0.5683  2.8507
 3995TIP3    H233545   5.455   2.931   8.685  0.3385  3.0317 -1.4912
 3996TIP3   OH233546   0.242   0.704   7.633 -0.7584 -0.1076 -0.3229
 3996TIP3    H133547   0.299   0.708   7.710 -1.5128  0.0416  0.2434
 3996TIP3    H233548   0.294   0.657   7.567  0.7821  1.7939 -0.5331
 3997TIP3   OH233549   1.185   1.496   2.001 -0.2420 -0.5009 -0.1411
 3997TIP3    H133550   1.260   1.474   2.056 -1.9204 -2.0628  1.6709
 3997TIP3    H233551   1.110   1.455   2.045 -2.4242  2.2285 -1.0218
 3998TIP3   OH233552   5.867   4.901   7.265 -0.0092 -0.7813 -0.6275
 3998TIP3    H133553   5.851   4.959   7.190 -0.8761  0.1779  0.2596
 3998TIP3    H233554   5.782   4.860   7.282 -0.1699  0.0137  0.6214
 3999TIP3   OH233555   2.153   1.704   2.473 -0.0704 -0.0665 -0.6935
 3999TIP3    H133556   2.184   1.695   2.564  0.0660  0.8891 -0.6399
 3999TIP3    H233557   2.098   1.627   2.460  0.5403 -0.6296 -0.0580
 4000TIP3   OH233558   3.904   0.414   1.663  0.6041 -0.2975  1.1165
 4000TIP3    H133559   3.949   0.359   1.728  0.2395 -2.6397 -0.4767
 4000TIP3    H233560   3.872   0.352   1.598 -1.7293  1.6646  0.2588
 4001TIP3   OH233561   0.717   1.013   8.346  0.2881 -0.2441 -0.3906
 4001TIP3    H133562   0.762   0.931   8.363 -0.6672 -0.5040  1.1218
 4001TIP3    H233563   0.624   0.989   8.345 -0.0323  0.8502  0.4999
 4002TIP3   OH233564   2.035   4.305   0.078 -0.2054 -0.3988 -0.7649
 4002TIP3    H133565   1.984   4.380   0.108 -2.3827 -1.7985 -0.7865
 4002TIP3    H233566   2.011   4.294  -0.014 -1.3339 -2.1495 -0.3157
 4003TIP3   OH233567   2.673   4.192   7.061 -0.0116 -0.4185  0.5315
 4003TIP3    H133568   2.682   4.287   7.065 -1.0582 -0.3417  1.8094
 4003TIP3    H233569   2.734   4.158   7.126  0.9215 -0.6985 -0.4492
 4004TIP3   OH233570   0.563   2.510   6.398  0.0238 -0.1632 -0.0840
 4004TIP3    H133571   0.472   2.479   6.388 -0.1420  0.7240 -1.7716
 4004TIP3    H233572   0.614   2.430   6.411 -1.1363 -0.5723  2.6475
 4005TIP3   OH233573   4.118   0.400   8.720 -0.2904 -0.5496  0.1314
 4005TIP3    H133574   4.029   0.404   8.755 -1.5287 -1.1253 -2.6748
 4005TIP3    H233575   4.159   0.482   8.748 -0.5877 -1.5359  3.9623
 4006TIP3   OH233576   0.522   2.513   7.249 -0.0887  0.4080 -0.0868
 4006TIP3    H133577   0.485   2.425   7.238  1.1564 -0.1201 -0.3674
 4006TIP3    H233578   0.450   2.573   7.230 -0.6687 -0.5576 -1.0725
 4007TIP3   OH233579   6.493   1.399   7.180 -0.3826 -0.5489  0.4543
 4007TIP3    H133580   6.546   1.389   7.259  0.1280  1.2618  0.3895
 4007TIP3    H233581   6.404   1.409   7.212 -0.1753  0.1949  0.8083
 4008TIP3   OH233582   1.890   6.601   7.270 -0.4863 -0.1648 -0.0287
 4008TIP3    H133583   1.862   6.692   7.274  1.8762  0.5971  1.0507
 4008TIP3    H233584   1.817   6.551   7.308 -0.8530  1.5336  1.6138
 4009TIP3   OH233585   0.737   1.794   7.890  0.1858 -0.1891  0.3169
 4009TIP3    H133586   0.794   1.852   7.940  0.6955  0.2582 -0.7473
 4009TIP3    H233587   0.777   1.708   7.897 -0.8765 -0.5838  2.3765
 4010TIP3   OH233588   3.463   4.393   0.853  0.1159 -0.1894  0.2712
 4010TIP3    H133589   3.519   4.455   0.806 -1.1225  0.0334 -0.9873
 4010TIP3    H233590   3.408   4.448   0.908 -2.0307  0.0905 -1.9510
 4011TIP3   OH233591   4.788   2.149   1.577  0.4151  0.2511 -0.1935
 4011TIP3    H133592   4.830   2.148   1.663  1.5960  1.4176 -0.7278
 4011TIP3    H233593   4.858   2.171   1.516 -0.5006 -0.1133 -1.4206
 4012TIP3   OH233594   1.740   2.971   8.165 -0.8574  0.3437 -0.1873
 4012TIP3    H133595   1.817   2.954   8.111 -1.8518  0.9186 -1.8420
 4012TIP3    H233596   1.705   2.884   8.185  0.3587  0.0576  0.8606
 4013TIP3   OH233597   4.054   3.003   7.340 -0.0702  0.6536 -0.4700
 4013TIP3    H133598   3.989   2.987   7.408 -0.8974  2.2991 -0.8160
 4013TIP3    H233599   4.012   3.065   7.281  1.4435  0.9836 -1.2607
 4014TIP3   OH233600   0.077   6.367   2.600  0.1315 -0.0226 -0.3046
 4014TIP3    H133601   0.074   6.447   2.653 -2.1966  0.5494 -1.1518
 4014TIP3    H233602   0.039   6.394   2.516 -2.8989 -2.5017  0.1114
 4015TIP3   OH233603   0.650   5.592   6.524  0.3697 -0.3409 -0.4925
 4015TIP3    H133604   0.746   5.595   6.521  0.5430  0.5019  2.4325
 4015TIP3    H233605   0.622   5.678   6.492  0.5763 -0.4954 -1.1084
 4016TIP3   OH233606   5.714   3.448   0.597 -0.1283  0.3799  0.1340
 4016TIP3    H133607   5.733   3.365   0.640 -1.9124 -0.0640  0.1157
 4016TIP3    H233608   5.780   3.454   0.528  0.7919 -0.4102  0.9087
 4017TIP3   OH233609   0.757   0.731   0.998  0.1751  0.3651 -0.1231
 4017TIP3    H133610   0.733   0.709   0.908  1.0198  1.0391 -0.5227
 4017TIP3    H233611   0.709   0.811   1.017  0.3191  0.4525 -0.1250
 4018TIP3   OH233612   4.213   1.242   8.770  0.3211  0.5106 -0.4434
 4018TIP3    H133613   4.278   1.301   8.731  0.9145  0.6747  0.7251
 4018TIP3    H233614   4.192   1.283   8.854 -1.3699  0.4890 -0.8255
 4019TIP3   OH233615   4.080   3.480   6.696  0.2825 -0.6165  0.0220
 4019TIP3    H133616   3.986   3.500   6.694  0.2029 -0.9542  0.2558
 4019TIP3    H233617   4.113   3.509   6.611  0.4136  1.6863  0.7894
 4020TIP3   OH233618   5.478   5.920   1.490 -0.0679  0.0348  0.3266
 4020TIP3    H133619   5.436   5.989   1.439 -2.1633 -1.6422 -0.3477
 4020TIP3    H233620   5.529   5.870   1.427  2.0752  1.3323  0.9408
 4021TIP3   OH233621   2.436   5.602   1.512  0.0066 -0.0474 -0.1375
 4021TIP3    H133622   2.459   5.593   1.605 -1.1878 -1.7069  0.0676
 4021TIP3    H233623   2.359   5.545   1.502  0.4796 -0.3848 -2.2806
 4022TIP3   OH233624   3.692   3.849   6.690 -0.2789 -0.3932  0.3433
 4022TIP3    H133625   3.785   3.835   6.672 -0.8486 -1.9155 -1.7337
 4022TIP3    H233626   3.677   3.940   6.665  0.4890 -0.3733 -0.0800
 4023TIP3   OH233627   3.620   3.486   0.730  0.0658  0.0684  0.5728
 4023TIP3    H133628   3.584   3.531   0.654 -0.0925 -1.0188 -0.0159
 4023TIP3    H233629   3.714   3.486   0.716 -0.0588 -1.5821 -0.4910
 4024TIP3   OH233630   6.757   0.749   0.875 -0.3037  0.4322 -0.7418
 4024TIP3    H133631   6.713   0.834   0.875 -0.1968  0.4884 -0.4204
 4024TIP3    H233632   6.736   0.711   0.790 -0.0218  0.9541 -1.0536
 4025TIP3   OH233633   5.425   4.058   0.120 -0.2339  0.0430  0.2299
 4025TIP3    H133634   5.346   4.005   0.119  1.2183 -2.3148 -1.4830
 4025TIP3    H233635   5.475   4.026   0.195  0.7236 -1.2950 -0.9077
 4026TIP3   OH233636   4.325   2.033   8.241  0.3081 -0.0738 -0.7017
 4026TIP3    H133637   4.420   2.028   8.248  0.2424 -0.4001  0.0516
 4026TIP3    H233638   4.304   2.123   8.265  0.5144  0.3737 -2.1100
 4027TIP3   OH233639   5.723   3.583   1.025  0.5731 -0.4345  0.2794
 4027TIP3    H133640   5.784   3.524   0.980  0.4416  1.1090 -2.1041
 4027TIP3    H233641   5.780   3.649   1.065  0.5772  0.7749 -1.6013
 4028TIP3   OH233642   0.237   0.576   1.330 -1.0800  0.2938 -0.2539
 4028TIP3    H133643   0.267   0.665   1.312  3.1874 -1.1228 -1.3924
 4028TIP3    H233644   0.239   0.532   1.245 -3.5395 -0.8728  0.2014
 4029TIP3   OH233645   0.610   5.723   0.814  0.7310 -0.0354  0.3684
 4029TIP3    H133646   0.647   5.726   0.726 -2.0854 -0.2362 -0.9548
 4029TIP3    H233647   0.618   5.812   0.847  0.2409  0.4891 -0.8580
 4030TIP3   OH233648   4.433   1.341   7.275  0.0339  0.0675  0.1048
 4030TIP3    H133649   4.444   1.368   7.366  2.4111 -0.8936  0.1796
 4030TIP3    H233650   4.407   1.420   7.228  0.0735  0.8668  1.4089
 4031TIP3   OH233651   1.603   2.414   0.563 -0.2792  0.1455 -0.4861
 4031TIP3    H133652   1.609   2.463   0.481 -1.2195  0.6191 -0.2833
 4031TIP3    H233653   1.588   2.481   0.629  1.9937 -0.0465  0.3396
 4032TIP3   OH233654   0.855   1.802   1.298  0.1328  0.3255 -0.1322
 4032TIP3    H133655   0.868   1.719   1.252  0.9261 -0.4107  1.3567
 4032TIP3    H233656   0.941   1.843   1.298 -0.0814  0.7765 -0.1593
 4033TIP3   OH233657   5.591   1.834   1.777 -0.4398  0.2770 -0.2252
 4033TIP3    H133658   5.657   1.765   1.787  0.5365  1.3253  0.9027
 4033TIP3    H233659   5.596   1.884   1.858 -2.1136  0.8591 -0.4368
 4034TIP3   OH233660   1.866   1.278   8.310  0.3363  0.6954 -0.1033
 4034TIP3    H133661   1.868   1.183   8.313 -0.1481  0.7114  1.4088
 4034TIP3    H233662   1.803   1.299   8.241 -2.1326 -0.1434  1.7582
 4035TIP3   OH233663   6.423   3.711   1.282  0.2765 -0.1601 -0.0357
 4035TIP3    H133664   6.477   3.790   1.284  0.9477 -0.6050  0.0438
 4035TIP3    H233665   6.459   3.659   1.210 -1.4142  0.4484 -1.3836
 4036TIP3   OH233666   0.524   5.524   2.569  0.2304  0.1281 -0.0079
 4036TIP3    H133667   0.588   5.569   2.624 -1.4249  1.6760  0.7437
 4036TIP3    H233668   0.529   5.570   2.485  1.7057 -1.2892 -0.7729
 4037TIP3   OH233669   6.656   1.787   8.719 -0.1915  0.1902  0.2191
 4037TIP3    H133670   6.569   1.750   8.727 -0.2639  0.4358  0.6186
 4037TIP3    H233671   6.708   1.719   8.676 -0.3264 -0.3572  0.9034
 4038TIP3   OH233672   3.090   6.122   0.262 -0.5460  0.4314  0.8549
 4038TIP3    H133673   3.116   6.161   0.346 -0.6610 -1.2854  1.7355
 4038TIP3    H233674   3.005   6.081   0.280  0.4819 -1.9904  0.6197
 4039TIP3   OH233675   5.854   4.612   6.719 -1.0133  0.8408  0.3485
 4039TIP3    H133676   5.913   4.627   6.793 -0.8229  1.1576  0.1323
 4039TIP3    H233677   5.774   4.658   6.743 -0.9291  0.9983  0.3310
 4040TIP3   OH233678   5.867   4.951   1.062 -0.0036  0.1364  0.4717
 4040TIP3    H133679   5.812   5.028   1.077  0.5390  0.6941 -0.2825
 4040TIP3    H233680   5.834   4.885   1.122 -1.9410  0.2203 -0.4352
 4041TIP3   OH233681   0.631   6.391   7.607 -0.1600  0.2823  0.7126
 4041TIP3    H133682   0.574   6.351   7.672 -1.0060 -0.4424 -0.4305
 4041TIP3    H233683   0.653   6.320   7.547 -2.8671  1.6585 -2.2100
 4042TIP3   OH233684   4.251   0.983   1.109  0.3389 -0.7660 -0.1750
 4042TIP3    H133685   4.299   0.980   1.026 -0.8423 -0.6089 -0.8981
 4042TIP3    H233686   4.191   0.909   1.104 -0.3941 -0.2027  0.1196
 4043TIP3   OH233687   2.686   5.680   1.448 -0.3797 -0.4378 -0.0600
 4043TIP3    H133688   2.592   5.672   1.462 -0.7493 -1.4571 -2.5181
 4043TIP3    H233689   2.708   5.605   1.393  1.7078  0.2618 -0.2622
 4044TIP3   OH233690   6.179   2.213   1.093  0.1609  0.2914 -0.4900
 4044TIP3    H133691   6.259   2.186   1.046  0.2232 -1.9504  0.7725
 4044TIP3    H233692   6.109   2.203   1.029  0.8511  2.9254 -1.8337
 4045TIP3   OH233693   4.461   4.827   1.663  0.4673  0.4727  0.3600
 4045TIP3    H133694   4.522   4.858   1.730  1.5354 -0.6342 -0.0581
 4045TIP3    H233695   4.484   4.876   1.585  0.6215  0.2855  0.2853
 4046TIP3   OH233696   4.987   4.431   0.688  0.2099  0.4543 -0.3632
 4046TIP3    H133697   5.054   4.388   0.635 -0.9850 -0.0755 -1.4759
 4046TIP3    H233698   5.011   4.524   0.687  0.8793  0.2810 -0.7937
 4047TIP3   OH233699   4.281   0.353   1.330  0.1781 -0.2314 -0.0031
 4047TIP3    H133700   4.274   0.448   1.338  0.2347 -0.2895  0.7238
 4047TIP3    H233701   4.328   0.340   1.247  0.9138  0.3910  0.3059
 4048TIP3   OH233702   1.211   4.799   0.201  0.1525 -0.0252  0.5121
 4048TIP3    H133703   1.233   4.779   0.110 -0.5192  1.8720 -0.1153
 4048TIP3    H233704   1.254   4.882   0.218 -1.5391  0.7548  1.1883
 4049TIP3   OH233705   5.529   1.785   0.902 -0.0070 -0.4287  0.0176
 4049TIP3    H133706   5.449   1.751   0.863 -0.5213 -0.3084  0.9295
 4049TIP3    H233707   5.580   1.818   0.829 -1.4661  0.8995 -0.4407
 4050TIP3   OH233708   6.172   6.425   1.831  0.5360 -0.6935  0.0406
 4050TIP3    H133709   6.194   6.340   1.793 -0.2499 -0.9238  0.0841
 4050TIP3    H233710   6.110   6.405   1.901  1.0302 -0.1608  0.6537
 4051TIP3   OH233711   1.477   5.962   0.181 -0.2646  0.0618  0.1900
 4051TIP3    H133712   1.389   5.924   0.187 -0.5735  0.0341 -2.8566
 4051TIP3    H233713   1.522   5.931   0.260 -3.1538  0.6830  2.2399
 4052TIP3   OH233714   4.218   4.129   0.466 -0.4455  0.3591 -0.0505
 4052TIP3    H133715   4.242   4.063   0.531 -0.9764 -0.7167 -0.9158
 4052TIP3    H233716   4.165   4.082   0.402 -0.6353  1.5778 -0.8308
 4053TIP3   OH233717   6.266   3.028   7.887 -0.6345  0.3018  0.8592
 4053TIP3    H133718   6.325   3.042   7.814 -2.1836  1.8514 -0.1806
 4053TIP3    H233719   6.317   3.051   7.965  0.7050 -0.3473  0.2030
 4054TIP3   OH233720   3.562   0.037   0.397  0.1652  0.1946  0.1026
 4054TIP3    H133721   3.493   0.023   0.461 -0.0681 -0.5068 -0.2970
 4054TIP3    H233722   3.626  -0.032   0.415  0.1664  0.0797 -0.3306
 4055TIP3   OH233723   5.053   6.639   1.393 -0.9179  0.1254 -0.1740
 4055TIP3    H133724   5.022   6.553   1.364 -0.3584 -0.2338  0.2789
 4055TIP3    H233725   5.077   6.684   1.312  2.2286 -1.4710 -0.3000
 4056TIP3   OH233726   2.256   0.201   7.770 -0.3214  0.3071  0.2667
 4056TIP3    H133727   2.333   0.220   7.717 -1.7030 -0.1015 -2.0172
 4056TIP3    H233728   2.195   0.158   7.710 -1.5693 -1.2600  2.4779
 4057TIP3   OH233729   2.799   3.999   7.832 -0.1085 -0.6265 -0.3863
 4057TIP3    H133730   2.706   4.023   7.832  0.2193  0.7842  0.8615
 4057TIP3    H233731   2.828   4.016   7.742 -0.5232  1.3364 -0.2109
 4058TIP3   OH233732   5.490   3.385   0.725 -0.0398  0.5602 -0.2245
 4058TIP3    H133733   5.418   3.426   0.678  0.3048 -0.8003 -2.0394
 4058TIP3    H233734   5.569   3.412   0.679  0.1905 -2.1359 -1.6082
 4059TIP3   OH233735   3.508   2.485   1.791 -0.0772 -0.4255 -0.0243
 4059TIP3    H133736   3.435   2.494   1.852 -1.6244 -0.0153 -1.8397
 4059TIP3    H233737   3.570   2.554   1.816 -0.8601 -0.0185  0.8177
 4060TIP3   OH233738   4.026   4.641   1.976  0.6491 -0.2431  0.0555
 4060TIP3    H133739   3.938   4.635   1.937  0.0477  0.9963  1.1682
 4060TIP3    H233740   4.085   4.628   1.902 -0.4360 -1.7878 -0.6234
 4061TIP3   OH233741   3.792   0.250   1.480  0.0641  0.1518 -0.6596
 4061TIP3    H133742   3.706   0.292   1.474 -0.1330 -0.1633 -0.0865
 4061TIP3    H233743   3.793   0.187   1.409 -2.0984 -3.2889  2.0246
 4062TIP3   OH233744   1.524   3.266   8.218 -0.5301 -0.4825  0.3630
 4062TIP3    H133745   1.567   3.283   8.134 -2.4717  1.0022 -0.3928
 4062TIP3    H233746   1.510   3.171   8.218  2.0519 -0.9452  0.3670
 4063TIP3   OH233747   4.315   5.457   7.734  0.3017  0.4976  0.0604
 4063TIP3    H133748   4.351   5.429   7.818 -1.7735 -1.4550  0.3830
 4063TIP3    H233749   4.248   5.521   7.757 -0.3233 -0.0981 -0.0916
 4064TIP3   OH233750   6.578   1.150   7.083  0.1069 -0.2622 -0.6307
 4064TIP3    H133751   6.571   1.245   7.070 -0.0505 -0.3926 -1.5786
 4064TIP3    H233752   6.522   1.132   7.158  1.7653  0.6719  0.9177
 4065TIP3   OH233753   3.128   2.392   0.073  0.0654 -0.0235 -0.2904
 4065TIP3    H133754   3.056   2.368   0.131 -0.4979  1.9073 -0.0986
 4065TIP3    H233755   3.086   2.442   0.003  1.3931  3.8501  1.3870
 4066TIP3   OH233756   4.498   0.855   0.096  0.4928 -0.0682  0.7700
 4066TIP3    H133757   4.406   0.835   0.112  0.4263  1.2416  2.4469
 4066TIP3    H233758   4.497   0.941   0.055  0.9559 -0.1951  0.4868
 4067TIP3   OH233759   5.643   0.401   1.793  0.3607 -0.5137  0.3644
 4067TIP3    H133760   5.659   0.490   1.761 -0.7349 -0.3781  0.1625
 4067TIP3    H233761   5.660   0.405   1.887 -2.2837  0.6151  0.8791
 4068TIP3   OH233762   2.765   1.177   0.966  0.3350  0.2597 -0.6413
 4068TIP3    H133763   2.756   1.184   0.871  1.5809 -0.6859 -0.8617
 4068TIP3    H233764   2.756   1.084   0.984  3.5480 -0.1227 -0.3190
 4069TIP3   OH233765   4.493   3.415   7.645 -0.3703 -0.0523  0.2378
 4069TIP3    H133766   4.495   3.493   7.589 -3.1468  0.5996  0.9094
 4069TIP3    H233767   4.572   3.367   7.621  0.6121  2.1672 -1.3473
 4070TIP3   OH233768   2.190   4.258   8.107  0.6085  0.1545 -0.0584
 4070TIP3    H133769   2.146   4.333   8.147  0.7204  0.8033 -1.1181
 4070TIP3    H233770   2.118   4.202   8.077  0.5225 -0.4087  1.1425
 4071TIP3   OH233771   4.842   2.875   7.677 -0.0014 -0.3791 -0.1923
 4071TIP3    H133772   4.767   2.869   7.619 -1.1987 -0.6047  1.3290
 4071TIP3    H233773   4.918   2.869   7.618 -1.1243 -2.1150 -1.5838
 4072TIP3   OH233774   0.019   6.273   1.591 -0.2768 -0.0113  0.4281
 4072TIP3    H133775   0.101   6.237   1.623  0.6197  1.9851  0.5073
 4072TIP3    H233776  -0.036   6.196   1.575  1.1606 -1.3275  1.5105
 4073TIP3   OH233777   1.517   3.972   2.559 -0.5914 -0.1494 -0.3002
 4073TIP3    H133778   1.534   3.889   2.514  1.2549 -0.5993  1.0838
 4073TIP3    H233779   1.601   4.019   2.554 -0.4751 -0.0037  2.1382
 4074TIP3   OH233780   0.639   6.697   8.311  0.1210 -0.0957 -0.3944
 4074TIP3    H133781   0.583   6.628   8.347  1.3648 -1.1305 -0.3515
 4074TIP3    H233782   0.673   6.659   8.229  3.0464 -0.7619  0.9765
 4075TIP3   OH233783   4.993   3.797   1.881 -0.0664  0.2208 -0.1124
 4075TIP3    H133784   4.909   3.751   1.879  1.1275 -2.1807  0.7344
 4075TIP3    H233785   5.050   3.740   1.933  2.0451  1.8426 -0.5229
 4076TIP3   OH233786   3.612   0.908   1.294 -0.3008  0.6484  0.1110
 4076TIP3    H133787   3.613   0.872   1.383  0.7979  0.2057 -0.0691
 4076TIP3    H233788   3.631   1.001   1.306 -0.7047  0.7012  0.3790
 4077TIP3   OH233789   0.903   4.034   0.072 -0.1932  0.2275  0.3030
 4077TIP3    H133790   0.847   4.093   0.022 -1.1067 -1.1625 -0.3838
 4077TIP3    H233791   0.850   4.007   0.146 -0.7340 -1.5557 -0.6638
 4078TIP3   OH233792   4.263   4.606   1.792  0.1840 -0.3351 -0.2410
 4078TIP3    H133793   4.285   4.621   1.700  1.1174 -1.6039 -0.2608
 4078TIP3    H233794   4.340   4.562   1.828 -0.2419 -0.0411  1.1113
 4079TIP3   OH233795   3.827   6.193   8.728  0.4459 -0.0793 -0.4326
 4079TIP3    H133796   3.833   6.165   8.637 -0.7372 -0.6719 -0.3484
 4079TIP3    H233797   3.766   6.132   8.768  1.8204 -0.5694  1.0609
 4080TIP3   OH233798   3.255   0.808   6.965 -0.1115 -0.0860  0.6423
 4080TIP3    H133799   3.248   0.862   6.886 -0.9413 -0.8004  0.2003
 4080TIP3    H233800   3.346   0.780   6.967  0.3546  1.3616  0.9204
 4081TIP3   OH233801   1.271   1.175   0.460  0.2744  0.3386  0.2677
 4081TIP3    H133802   1.277   1.265   0.428 -2.2148 -0.1388 -1.8371
 4081TIP3    H233803   1.320   1.123   0.396  1.4860  0.0954  1.3365
 4082TIP3   OH233804   1.250   6.657   7.802 -0.1375 -0.3283  0.4319
 4082TIP3    H133805   1.186   6.630   7.867 -0.5149  0.9053  0.6002
 4082TIP3    H233806   1.335   6.642   7.843 -0.3193 -1.3935  0.4425
 4083TIP3   OH233807   1.508   0.026   8.098 -0.1470  0.0168 -0.0059
 4083TIP3    H133808   1.476  -0.030   8.169  0.9758  0.6522  1.0349
 4083TIP3    H233809   1.432   0.077   8.071 -0.2937  0.7500  1.6995
 4084TIP3   OH233810   2.717   1.039   1.582 -0.2467  0.1043  0.4574
 4084TIP3    H133811   2.747   1.104   1.646 -0.8173  0.9693 -0.1352
 4084TIP3    H233812   2.659   0.982   1.632  0.2669  0.0296  0.9869
 4085TIP3   OH233813   1.395   5.780   1.944 -0.3955  0.2589  0.1101
 4085TIP3    H133814   1.487   5.803   1.960 -0.7231 -0.1275  2.9351
 4085TIP3    H233815   1.347   5.820   2.016 -2.2380 -1.0777 -0.2963
 4086TIP3   OH233816   6.612   1.684   1.417 -0.3864  0.3866  0.2618
 4086TIP3    H133817   6.580   1.629   1.345  1.0336 -0.5285  0.2973
 4086TIP3    H233818   6.555   1.660   1.491  1.4505 -2.6749  0.8580
 4087TIP3   OH233819   6.372   2.324   8.702 -0.0391 -0.5373  0.0989
 4087TIP3    H133820   6.465   2.349   8.704  0.3126 -0.8590 -3.6480
 4087TIP3    H233821   6.325   2.405   8.723  1.0794 -0.0383  0.7660
 4088TIP3   OH233822   4.284   2.268   7.843 -0.0904 -0.5427 -0.0599
 4088TIP3    H133823   4.275   2.306   7.931 -1.2361 -0.4004 -0.2279
 4088TIP3    H233824   4.298   2.343   7.786  0.9412 -0.6563  0.0174
 4089TIP3   OH233825   5.608   4.114   1.917  0.1444 -0.4610  0.1301
 4089TIP3    H133826   5.682   4.166   1.884 -0.3190 -0.4879 -0.9804
 4089TIP3    H233827   5.630   4.024   1.893 -0.4136 -0.4248 -0.5351
 4090TIP3   OH233828   1.164   2.338   6.266 -0.2326 -0.5835  0.0513
 4090TIP3    H133829   1.231   2.392   6.308  1.5489 -1.7932 -1.0747
 4090TIP3    H233830   1.129   2.393   6.196 -0.3781  0.0408  0.6033
 4091TIP3   OH233831   0.605   6.689   0.358 -0.5995 -0.2595  0.4048
 4091TIP3    H133832   0.589   6.700   0.452 -1.5097 -0.7278  0.3114
 4091TIP3    H233833   0.646   6.603   0.351 -0.0326  0.0039  0.4183
 4092TIP3   OH233834   2.070   6.379   1.979  0.2976  0.7606  0.8347
 4092TIP3    H133835   2.025   6.299   2.008  1.2208  0.2210  0.8311
 4092TIP3    H233836   2.060   6.440   2.051 -2.8445  1.7025 -0.2233
 4093TIP3   OH233837   3.152   6.209   1.745  0.0772  0.1472  0.8264
 4093TIP3    H133838   3.173   6.300   1.764  0.5457  0.0672  0.6943
 4093TIP3    H233839   3.193   6.192   1.660 -2.2956  0.6101 -0.5095
 4094TIP3   OH233840   5.387   4.293   8.664 -0.1971  0.2358 -0.1277
 4094TIP3    H133841   5.432   4.209   8.674  0.5006  0.8406  2.4388
 4094TIP3    H233842   5.296   4.270   8.643 -0.1110 -1.1718  0.9615
 4095TIP3   OH233843   6.177   6.106   0.656  0.0365 -0.2277  0.1366
 4095TIP3    H133844   6.192   6.118   0.562  4.2389  0.2896  0.6361
 4095TIP3    H233845   6.083   6.092   0.665 -1.2385  3.5730 -3.7370
 4096TIP3   OH233846   5.266   3.231   7.196  0.0355 -0.0500 -0.0064
 4096TIP3    H133847   5.223   3.283   7.264  3.1294  1.1028  1.2512
 4096TIP3    H233848   5.267   3.142   7.231 -1.8190 -0.2525 -0.3772
 4097TIP3   OH233849   1.629   3.249   0.698 -0.4475  0.1216 -0.0904
 4097TIP3    H133850   1.592   3.225   0.783 -1.3312  0.4901 -0.3621
 4097TIP3    H233851   1.588   3.189   0.636  2.1710 -1.9640  0.0289
 4098TIP3   OH233852   1.474   2.191   7.442  0.0162  0.1157 -0.0414
 4098TIP3    H133853   1.439   2.108   7.411 -1.1200  0.7824 -0.6115
 4098TIP3    H233854   1.463   2.250   7.367 -0.6551  1.1820  0.8760
 4099TIP3   OH233855   2.333   4.192   1.653 -0.4061 -0.3654  0.2788
 4099TIP3    H133856   2.248   4.224   1.623 -0.8431 -1.2410  0.5615
 4099TIP3    H233857   2.337   4.216   1.745  0.6559  1.7314 -0.2544
 4100TIP3   OH233858   5.073   0.173   0.109  0.0950 -0.3691 -0.3882
 4100TIP3    H133859   5.088   0.161   0.016 -0.8647 -1.6808 -0.4002
 4100TIP3    H233860   5.160   0.186   0.146  0.5446 -0.5111 -1.3644
 4101TIP3   OH233861   5.682   0.671   1.738 -0.0319 -0.1771 -0.6919
 4101TIP3    H133862   5.658   0.753   1.695 -0.0126 -0.3715 -1.0768
 4101TIP3    H233863   5.727   0.698   1.818  0.2146  0.1890 -0.9531
 4102TIP3   OH233864   4.920   0.900   1.656 -0.0552 -0.2490 -0.1893
 4102TIP3    H133865   4.826   0.879   1.652  0.0980 -0.8008 -1.0731
 4102TIP3    H233866   4.957   0.862   1.576  1.1579 -1.2354  0.7968
 4103TIP3   OH233867   5.616   3.907   1.490  0.1112 -0.0438 -0.2288
 4103TIP3    H133868   5.565   3.862   1.422 -0.8998  0.0380  0.4477
 4103TIP3    H233869   5.706   3.881   1.473 -0.1918 -0.5003 -1.2431
 4104TIP3   OH233870   4.068   2.234   1.261 -0.0604  0.4713 -0.9122
 4104TIP3    H133871   4.128   2.230   1.336 -1.6130 -1.0109  0.3398
 4104TIP3    H233872   4.041   2.143   1.247 -0.2102  0.7777 -2.9910
 4105TIP3   OH233873   6.154   4.749   0.703  0.6373 -0.0284  0.4112
 4105TIP3    H133874   6.199   4.815   0.649  1.2410 -0.3229  0.5406
 4105TIP3    H233875   6.201   4.668   0.685 -0.3374 -0.5055 -0.0207
 4106TIP3   OH233876   2.421   3.558   8.257 -0.3784  1.1202  0.0506
 4106TIP3    H133877   2.459   3.571   8.170 -0.9030 -2.1246 -0.7981
 4106TIP3    H233878   2.327   3.548   8.240 -0.3078 -1.1493  0.6953
 4107TIP3   OH233879   5.476   4.606   1.493 -0.4116  0.0658 -0.0287
 4107TIP3    H133880   5.479   4.664   1.417 -0.9378 -0.0080 -0.1113
 4107TIP3    H233881   5.526   4.529   1.467  0.1370  0.4023  0.0164
 4108TIP3   OH233882   1.202   1.151   1.019 -0.3057 -0.0395 -0.7651
 4108TIP3    H133883   1.146   1.076   1.040  2.1065 -1.9210 -0.6451
 4108TIP3    H233884   1.217   1.144   0.925  1.3206 -0.8216 -0.4908
 4109TIP3   OH233885   3.169   0.874   7.554 -0.3369  0.2534 -0.1012
 4109TIP3    H133886   3.197   0.963   7.575 -0.4267  0.2096  0.2159
 4109TIP3    H233887   3.136   0.839   7.637 -0.8691  0.1306 -0.3611
 4110TIP3   OH233888   4.712   6.764   1.188  0.2217 -1.0779 -0.8793
 4110TIP3    H133889   4.783   6.783   1.127 -0.7395 -0.1833 -1.7629
 4110TIP3    H233890   4.720   6.832   1.255  0.5507 -1.3504 -0.6321
 4111TIP3   OH233891   3.890   2.124   7.729 -0.2902 -0.7004  0.2566
 4111TIP3    H133892   3.831   2.117   7.654  1.8049 -1.4751 -1.4152
 4111TIP3    H233893   3.882   2.215   7.757  1.7282  0.8921 -3.5338
 4112TIP3   OH233894   3.179   2.743   6.577  0.2142 -0.8873  0.4382
 4112TIP3    H133895   3.136   2.723   6.660  3.8494 -1.5553  2.3837
 4112TIP3    H233896   3.201   2.836   6.584 -2.9124  0.1976 -1.7191
 4113TIP3   OH233897   1.665   2.694   8.147  0.1634  0.2340 -0.1832
 4113TIP3    H133898   1.669   2.681   8.052 -0.6074 -0.6752 -0.1029
 4113TIP3    H233899   1.721   2.626   8.183 -0.9079 -0.5262  0.0778
 4114TIP3   OH233900   5.334   3.149   6.928  0.0730  0.3915 -0.2923
 4114TIP3    H133901   5.318   3.240   6.905  1.2761  1.2489  1.9653
 4114TIP3    H233902   5.309   3.143   7.021 -2.7028 -2.3256 -1.0174
 4115TIP3   OH233903   2.184   4.256   6.582 -1.3849 -0.1114 -0.0946
 4115TIP3    H133904   2.171   4.330   6.522 -0.1996  0.5424  0.4211
 4115TIP3    H233905   2.136   4.184   6.541 -1.6271  0.6410 -1.1940
 4116TIP3   OH233906   6.346   1.692   7.225 -0.1344  0.2855 -0.1073
 4116TIP3    H133907   6.284   1.631   7.184  0.6015 -0.0631 -0.7302
 4116TIP3    H233908   6.355   1.763   7.161  1.0757 -0.2956 -0.6111
 4117TIP3   OH233909   2.286   4.185   0.705  0.0386 -0.6918 -0.2039
 4117TIP3    H133910   2.246   4.187   0.618  0.0174  0.7985 -0.1871
 4117TIP3    H233911   2.235   4.249   0.756  0.2740 -1.2878  0.8065
 4118TIP3   OH233912   4.896   5.465   7.696 -0.2157  0.2848 -0.8457
 4118TIP3    H133913   4.954   5.410   7.642 -1.5498 -1.7982 -0.2866
 4118TIP3    H233914   4.808   5.447   7.662 -0.8280  1.0084  0.3010
 4119TIP3   OH233915   5.046   3.381   2.007  0.2189 -0.6680  0.1893
 4119TIP3    H133916   5.132   3.339   2.014  0.1977 -0.5545  1.3200
 4119TIP3    H233917   5.066   3.475   2.007  0.0808 -0.6398  0.6610
 4120TIP3   OH233918   2.503   5.986   6.448  0.0949 -0.2407 -0.1855
 4120TIP3    H133919   2.508   6.080   6.467 -0.8893 -0.0292 -0.8687
 4120TIP3    H233920   2.559   5.975   6.370 -0.1424 -0.1322 -0.3741
 4121TIP3   OH233921   4.482   2.009   0.937 -0.5842  0.3088 -0.2046
 4121TIP3    H133922   4.575   2.029   0.927 -0.8179  1.1864 -0.7513
 4121TIP3    H233923   4.447   2.084   0.986 -0.7826 -0.6115  1.1188
 4122TIP3   OH233924   1.122   5.665   8.222 -0.9767  0.8693  0.0340
 4122TIP3    H133925   1.081   5.590   8.178  0.2430  0.5088 -0.5463
 4122TIP3    H233926   1.108   5.739   8.162  0.6497  0.3876 -1.0224
 4123TIP3   OH233927   5.898   5.243   0.954  0.2944  0.3678 -0.0348
 4123TIP3    H133928   5.965   5.217   1.018  0.0496  0.5545  0.3001
 4123TIP3    H233929   5.817   5.247   1.004 -0.0237 -0.1308 -0.4972
 4124TIP3   OH233930   0.047   2.221   2.693  0.5878  0.2403 -0.3999
 4124TIP3    H133931  -0.026   2.281   2.710  0.7187 -0.1729  1.8735
 4124TIP3    H233932   0.010   2.134   2.706  1.6194  0.0527  1.5455
 4125TIP3   OH233933   0.984   1.692   7.939  0.2904 -0.3897  0.0592
 4125TIP3    H133934   0.999   1.770   7.885 -1.4771  0.1385  0.2668
 4125TIP3    H233935   1.043   1.626   7.903 -0.0649  0.2676 -1.8585
 4126TIP3   OH233936   0.818   6.253   1.834 -0.1080 -0.3009  0.0320
 4126TIP3    H133937   0.848   6.344   1.837  1.4128 -0.7982  1.7663
 4126TIP3    H233938   0.726   6.259   1.806  0.7487  1.5090 -2.8530
 4127TIP3   OH233939   3.922   5.114   6.932  0.2767 -0.7882 -0.2129
 4127TIP3    H133940   3.984   5.137   6.864  1.0589  0.2846  0.8255
 4127TIP3    H233941   3.840   5.098   6.885  0.6479  0.4617 -1.3552
 4128TIP3   OH233942   0.002   4.370   0.495  0.7992 -0.8615 -0.1512
 4128TIP3    H133943  -0.003   4.455   0.451  0.2281 -0.9851 -0.3272
 4128TIP3    H233944  -0.041   4.384   0.579  0.8524 -0.9305 -0.1130
 4129TIP3   OH233945   3.280   3.227   1.225  0.4625 -0.5061  0.1109
 4129TIP3    H133946   3.268   3.229   1.130  0.0408 -0.7102  0.1625
 4129TIP3    H233947   3.195   3.203   1.260  0.7651 -1.0013  0.5167
 4130TIP3   OH233948   2.185   3.985   8.382 -0.6755  0.4336 -0.1060
 4130TIP3    H133949   2.140   3.934   8.314 -1.4321  0.1457  0.5937
 4130TIP3    H233950   2.133   4.066   8.389  0.8897  1.6534 -1.6737
 4131TIP3   OH233951   2.519   1.398   8.061 -0.2411  0.5103  0.5670
 4131TIP3    H133952   2.547   1.375   8.150  0.9383 -1.7518 -0.3100
 4131TIP3    H233953   2.572   1.343   8.004 -4.1884 -1.7653 -1.3900
 4132TIP3   OH233954   5.317   5.205   0.987 -0.1417  0.1460  0.2324
 4132TIP3    H133955   5.239   5.165   0.949  0.5682 -0.7736 -0.2802
 4132TIP3    H233956   5.374   5.131   1.007  0.5472  0.8050  0.7309
 4133TIP3   OH233957   6.602   0.493   8.632  0.0004 -0.0138  0.4291
 4133TIP3    H133958   6.569   0.411   8.670 -3.0617  0.8738 -0.0374
 4133TIP3    H233959   6.582   0.560   8.698  2.3849  0.4532  0.7666
 4134TIP3   OH233960   3.687   2.381   8.826 -0.4115 -0.0917 -0.9852
 4134TIP3    H133961   3.729   2.426   8.899  0.1020 -1.0527 -0.6617
 4134TIP3    H233962   3.594   2.383   8.847 -0.5940  2.1331 -1.7413
 4135TIP3   OH233963   2.013   2.836   8.110  0.6320  0.1182 -0.3867
 4135TIP3    H133964   2.104   2.865   8.118  0.6678  0.4005 -1.6347
 4135TIP3    H233965   2.012   2.783   8.030 -0.1863 -0.3629 -0.0676
 4136TIP3   OH233966   1.482   2.177   1.954 -0.1207 -0.3625 -0.4617
 4136TIP3    H133967   1.508   2.264   1.984  0.3598 -1.0478  1.2130
 4136TIP3    H233968   1.561   2.140   1.914 -1.1369  1.1455 -4.3565
 4137TIP3   OH233969   5.190   1.863   7.342 -0.1198  0.7068 -1.0145
 4137TIP3    H133970   5.131   1.804   7.389  0.5197  1.1374  0.3766
 4137TIP3    H233971   5.206   1.819   7.258  0.4098 -1.1674  0.0033
 4138TIP3   OH233972   0.857   2.045   1.434  0.4925 -0.2651 -0.3718
 4138TIP3    H133973   0.816   1.959   1.426  0.0621 -0.1688  0.7394
 4138TIP3    H233974   0.950   2.029   1.419  0.4521 -0.9682  0.1152
 4139TIP3   OH233975   0.152   4.271   0.750 -0.3444  0.0680  0.2492
 4139TIP3    H133976   0.187   4.358   0.771  0.8735 -0.4115  0.3004
 4139TIP3    H233977   0.225   4.225   0.709 -1.2342 -0.6591 -0.5497
 4140TIP3   OH233978   6.518   0.267   8.789 -0.6220 -0.2283 -0.3366
 4140TIP3    H133979   6.467   0.191   8.763  0.3693 -1.1957  0.4666
 4140TIP3    H233980   6.527   0.260   8.884  0.0539  0.5143 -0.3309
 4141TIP3   OH233981   2.380   1.310   0.514  0.7608 -0.6537 -0.2877
 4141TIP3    H133982   2.291   1.334   0.489  0.9412 -0.9865 -1.3092
 4141TIP3    H233983   2.369   1.240   0.578  0.2792  0.2874  0.6907
 4142TIP3   OH233984   2.539   1.010   6.725 -0.2510  0.0159 -0.5061
 4142TIP3    H133985   2.615   1.067   6.710  1.0874 -1.8795 -1.2194
 4142TIP3    H233986   2.470   1.049   6.670 -0.1481  2.2877  0.8338
 4143TIP3   OH233987   6.097   1.527   7.716  0.0618 -0.1738 -0.4337
 4143TIP3    H133988   6.089   1.615   7.678 -1.8137  0.0338  0.3250
 4143TIP3    H233989   6.025   1.522   7.780  2.0884 -1.0803  1.9347
 4144TIP3   OH233990   3.532   2.609   0.185 -0.3109  0.1947 -0.2983
 4144TIP3    H133991   3.514   2.533   0.130  0.4974 -0.7768  0.7257
 4144TIP3    H233992   3.538   2.682   0.124 -0.3806 -0.6805 -1.3865
 4145TIP3   OH233993   5.824   1.353   1.908  0.6191 -0.3452  0.4572
 4145TIP3    H133994   5.867   1.420   1.854 -0.4347  1.8420  2.1936
 4145TIP3    H233995   5.887   1.336   1.979  0.0887  0.2853  1.0899
 4146TIP3   OH233996   4.797   4.693   2.127 -0.1086  0.2794 -0.0579
 4146TIP3    H133997   4.728   4.748   2.163 -2.1314 -0.8565 -1.9542
 4146TIP3    H233998   4.778   4.605   2.161 -0.6957 -0.3648 -1.8956
 4147TIP3   OH233999   5.306   1.425   1.280 -0.0281  0.3256 -0.3845
 4147TIP3    H134000   5.304   1.440   1.186  0.4684  0.4810 -0.3692
 4147TIP3    H234001   5.288   1.332   1.290  0.0177  0.2907 -0.6330
 4148TIP3   OH234002   5.574   6.620   2.345  0.5758  0.3381  0.3870
 4148TIP3    H134003   5.563   6.571   2.427  0.8636 -0.0740  0.1856
 4148TIP3    H234004   5.502   6.591   2.290  0.7551  0.1226  0.2621
 4149TIP3   OH234005   1.551   1.019   0.587  0.1409  0.2022 -0.3720
 4149TIP3    H134006   1.563   1.099   0.536 -2.3374  1.6476  1.1379
 4149TIP3    H234007   1.542   1.049   0.677 -2.9412 -1.5135  0.0122
 4150TIP3   OH234008   5.918   5.503   2.280  0.3232  0.2365 -0.1824
 4150TIP3    H134009   5.995   5.550   2.312  0.1009  1.2968 -1.1372
 4150TIP3    H234010   5.847   5.567   2.285 -0.1992 -0.3015 -0.5763
 4151TIP3   OH234011   4.726   1.204   1.213 -0.0398 -0.4759  0.3382
 4151TIP3    H134012   4.678   1.123   1.229 -0.1807 -0.9123 -1.9738
 4151TIP3    H234013   4.719   1.218   1.119  3.3468  0.0705  0.0347
 4152TIP3   OH234014   4.502   4.224   1.662  0.2501  0.3635 -0.1958
 4152TIP3    H134015   4.449   4.241   1.584 -1.0987 -1.9925  0.1101
 4152TIP3    H234016   4.539   4.309   1.684 -2.2741  1.8694 -1.2738
 4153TIP3   OH234017   6.587   6.585   6.972  0.2663 -0.3848 -0.1256
 4153TIP3    H134018   6.655   6.650   6.991 -0.1231 -0.3388  1.1804
 4153TIP3    H234019   6.616   6.543   6.890  1.2210  0.4781 -0.2464
 4154TIP3   OH234020   5.363   4.503   6.942 -0.4270  0.7330  0.3252
 4154TIP3    H134021   5.457   4.493   6.952 -0.0520  4.0495  1.4372
 4154TIP3    H234022   5.328   4.498   7.031 -0.6933  3.3610  0.4597
 4155TIP3   OH234023   5.176   6.536   0.211  0.6676  0.1907 -0.3450
 4155TIP3    H134024   5.160   6.487   0.130  0.7168  1.2463 -1.0181
 4155TIP3    H234025   5.271   6.546   0.214  0.7353 -0.5941  0.3080
 4156TIP3   OH234026   5.953   6.706   0.373  0.1056 -1.2297 -0.3435
 4156TIP3    H134027   6.010   6.683   0.300 -0.1660  0.1001 -1.0046
 4156TIP3    H234028   5.867   6.671   0.349 -0.4596  0.8383 -1.6471
 4157TIP3   OH234029   4.874   2.158   0.643 -0.5875 -0.2677  0.0545
 4157TIP3    H134030   4.892   2.192   0.556 -0.1200 -0.3281  0.1254
 4157TIP3    H234031   4.838   2.070   0.627 -2.8743  0.6444 -0.1772
 4158TIP3   OH234032   1.341   1.897   0.124  0.0117 -0.1910 -0.2171
 4158TIP3    H134033   1.340   1.992   0.119 -1.8582 -0.1866 -0.1621
 4158TIP3    H234034   1.398   1.878   0.199 -0.0924  0.9029  0.1506
 4159TIP3   OH234035   5.627   1.526   1.007  0.5956 -0.3525 -0.2313
 4159TIP3    H134036   5.606   1.587   0.936 -1.7047  0.0302  0.6902
 4159TIP3    H234037   5.654   1.583   1.080  0.8462 -0.5995 -0.1307
 4160TIP3   OH234038   2.826   4.900   1.303  0.3505  0.4784 -0.3768
 4160TIP3    H134039   2.910   4.925   1.264  0.6450 -0.5602 -0.4486
 4160TIP3    H234040   2.842   4.903   1.397  0.7987 -0.7324 -0.3996
 4161TIP3   OH234041   2.344   5.136   6.763  0.0476 -0.4276 -0.6149
 4161TIP3    H134042   2.380   5.054   6.798  2.3630  0.0472 -1.6649
 4161TIP3    H234043   2.329   5.119   6.670 -0.0165  0.1623 -0.7181
 4162TIP3   OH234044   2.807   4.236   1.446  0.2314 -0.1609 -0.0220
 4162TIP3    H134045   2.826   4.329   1.435 -0.9903  0.0137 -0.9700
 4162TIP3    H234046   2.712   4.230   1.437  0.0572 -1.2593  2.0196
 4163TIP3   OH234047   2.780   6.413   7.824 -0.0296 -0.1013  0.0350
 4163TIP3    H134048   2.697   6.367   7.811 -0.0027 -0.7719  1.8398
 4163TIP3    H234049   2.842   6.345   7.851  0.7138  0.5973  0.1530
 4164TIP3   OH234050   3.585   6.376   0.932  0.3334  0.3011 -0.1764
 4164TIP3    H134051   3.552   6.352   0.845  1.0721  0.4573 -0.5145
 4164TIP3    H234052   3.672   6.335   0.936  0.2774  0.2516  0.5120
 4165TIP3   OH234053   6.765   2.677   7.387  0.9866  0.2954  0.1745
 4165TIP3    H134054   6.845   2.641   7.348  1.6010  1.1155  0.6294
 4165TIP3    H234055   6.760   2.767   7.354  0.4291  0.3560  0.4082
 4166TIP3   OH234056   5.481   6.042   6.972  0.3192  0.3139 -0.0283
 4166TIP3    H134057   5.477   6.137   6.979 -1.4933  0.2720  0.0263
 4166TIP3    H234058   5.559   6.017   7.021  0.3099  1.6963  0.7421
 4167TIP3   OH234059   4.820   5.742   1.920  0.1743  0.2411  0.4015
 4167TIP3    H134060   4.853   5.656   1.945  1.8671  0.7778  0.1130
 4167TIP3    H234061   4.808   5.788   2.003  0.0901  0.0195  0.5131
 4168TIP3   OH234062   1.555   5.281   7.594  0.0571  0.2680 -0.3360
 4168TIP3    H134063   1.602   5.198   7.604  0.3114  0.5207  0.6623
 4168TIP3    H234064   1.615   5.338   7.546  1.2505  0.9449  1.8666
 4169TIP3   OH234065   4.655   5.872   0.681 -0.4286  0.2436 -0.7536
 4169TIP3    H134066   4.740   5.902   0.714 -0.9049  0.8127 -0.0017
 4169TIP3    H234067   4.655   5.894   0.588 -0.3709  1.7155 -0.4353
 4170TIP3   OH234068   5.573   5.667   8.562 -0.1997  0.4938 -0.5393
 4170TIP3    H134069   5.546   5.576   8.550  1.8522 -0.2193 -0.1677
 4170TIP3    H234070   5.668   5.663   8.567 -0.1536  2.4060  1.5855
 4171TIP3   OH234071   0.196   3.225   8.793  0.5932  0.0754  0.5526
 4171TIP3    H134072   0.202   3.313   8.829  1.5326  1.1954 -2.0766
 4171TIP3    H234073   0.286   3.201   8.772  0.1720 -0.7257 -0.4215
 4172TIP3   OH234074   4.682   2.347   1.244  0.3877  0.1364 -0.4013
 4172TIP3    H134075   4.689   2.440   1.265 -0.8551  0.0673  0.4570
 4172TIP3    H234076   4.661   2.344   1.151  1.1264  0.6673 -0.5969
 4173TIP3   OH234077   3.331   2.148   0.077  0.0670  0.3308 -0.4683
 4173TIP3    H134078   3.274   2.142  -0.000 -1.0798  0.1277  0.3576
 4173TIP3    H234079   3.420   2.142   0.042 -0.3962  1.0460 -1.8427
 4174TIP3   OH234080   0.217   2.664   2.232 -0.4258  0.6256  0.5074
 4174TIP3    H134081   0.266   2.582   2.239 -2.0283 -0.3651  0.6053
 4174TIP3    H234082   0.148   2.657   2.298 -1.7694  1.1975 -0.7758
 4175TIP3   OH234083   0.901   2.219   0.286 -0.4447  0.2868 -0.0647
 4175TIP3    H134084   0.968   2.285   0.270  0.5218 -0.1914  1.6561
 4175TIP3    H234085   0.927   2.145   0.232  1.0595 -0.2491  1.2817
 4176TIP3   OH234086   0.171   2.778   7.661 -0.3297 -0.4308 -0.3051
 4176TIP3    H134087   0.185   2.832   7.739 -1.1762 -0.8710  0.1724
 4176TIP3    H234088   0.080   2.748   7.669 -0.9902  0.7925 -2.2558
 4177TIP3   OH234089   4.906   1.948   1.061 -0.5139  0.1827 -0.0954
 4177TIP3    H134090   4.863   1.975   1.142  1.0769  0.5562  0.6846
 4177TIP3    H234091   4.856   1.989   0.991 -0.9543  1.2250  0.8066
 4178TIP3   OH234092   3.024   5.071   1.155 -0.6077  0.2064  0.0998
 4178TIP3    H134093   2.974   5.090   1.076  0.0295  0.1931 -0.3152
 4178TIP3    H234094   3.059   5.155   1.183 -1.3161  0.3064  0.7114
 4179TIP3   OH234095   0.266   6.051   7.069 -0.0543  0.1862  0.4782
 4179TIP3    H134096   0.361   6.051   7.056 -0.0200 -0.6188  0.6682
 4179TIP3    H234097   0.244   5.959   7.088 -0.9050  0.3123  0.1721
 4180TIP3   OH234098   5.181   6.039   0.115  0.0442  0.0229  0.1061
 4180TIP3    H134099   5.200   5.949   0.141  2.6831  0.5577  0.3216
 4180TIP3    H234100   5.189   6.039   0.019  1.4909  0.2514  0.1954
 4181TIP3   OH234101   2.855   2.892   8.258 -0.2141 -0.0049  0.5478
 4181TIP3    H134102   2.945   2.860   8.269 -0.4304 -0.0646  2.4188
 4181TIP3    H234103   2.815   2.881   8.344 -0.9467  3.3152  0.7707
 4182TIP3   OH234104   0.830   0.332   8.497  0.1418  0.3133 -0.3118
 4182TIP3    H134105   0.771   0.279   8.551 -2.0179  1.4731 -1.3763
 4182TIP3    H234106   0.795   0.324   8.408  1.9466  0.6470 -1.1053
 4183TIP3   OH234107   6.117   0.374   0.642 -0.0660  0.0204 -0.2730
 4183TIP3    H134108   6.046   0.337   0.589  1.1660  0.8812 -2.6545
 4183TIP3    H234109   6.144   0.301   0.699 -1.6262 -0.8653 -0.5957
 4184TIP3   OH234110   6.432   5.161   0.903  0.0785 -0.6459 -0.2446
 4184TIP3    H134111   6.439   5.249   0.942 -1.0424 -0.2746 -0.8202
 4184TIP3    H234112   6.479   5.104   0.963 -0.6231  0.0954  1.0616
 4185TIP3   OH234113   5.819   0.740   1.949 -0.1656 -0.0143  0.0069
 4185TIP3    H134114   5.880   0.673   1.981 -0.2994 -0.5020 -0.7443
 4185TIP3    H234115   5.755   0.750   2.020 -0.9986 -1.7721 -0.4436
 4186TIP3   OH234116   0.787   1.703   1.564  0.2956 -0.4690 -0.2514
 4186TIP3    H134117   0.818   1.722   1.475 -0.6663  0.7095 -0.3680
 4186TIP3    H234118   0.731   1.626   1.554  1.1974 -1.1191 -0.4370
 4187TIP3   OH234119   5.550   4.159   7.104  0.3898  0.2862 -0.2621
 4187TIP3    H134120   5.465   4.184   7.141  1.2216  1.1261  1.1842
 4187TIP3    H234121   5.569   4.228   7.040  0.6311  0.9209  0.4754
 4188TIP3   OH234122   6.092   0.493   7.071  0.0806  0.5256 -0.1377
 4188TIP3    H134123   6.086   0.589   7.066 -0.6246  0.4541 -1.0940
 4188TIP3    H234124   6.143   0.468   6.994 -0.8780  0.0583 -0.6396
 4189TIP3   OH234125   0.273   2.559   8.707 -0.3258  0.0069  0.0330
 4189TIP3    H134126   0.181   2.570   8.732 -0.3244 -0.9189  0.4818
 4189TIP3    H234127   0.271   2.551   8.611 -0.7504 -0.3973  0.0765
 4190TIP3   OH234128   4.340   0.824   7.684 -0.3514  1.1207  0.3700
 4190TIP3    H134129   4.320   0.917   7.698  0.8637  1.2820  1.2302
 4190TIP3    H234130   4.255   0.784   7.665 -1.2554  2.0301  2.2025
 4191TIP3   OH234131   0.633   3.913   6.747  0.4758  0.2884  0.7656
 4191TIP3    H134132   0.687   3.855   6.693 -0.2790  0.3284 -0.0509
 4191TIP3    H234133   0.544   3.900   6.714  0.0744  0.7153  1.6547
 4192TIP3   OH234134   6.628   4.975   1.446  0.3280 -0.0356 -0.0471
 4192TIP3    H134135   6.664   4.948   1.531  0.1071 -2.7554 -0.7428
 4192TIP3    H234136   6.541   5.009   1.467  1.0029  1.1538  0.9890
 4193TIP3   OH234137   5.790   6.579   8.818 -0.4375  0.2803 -0.6691
 4193TIP3    H134138   5.870   6.527   8.803  0.0614  0.4686  1.0897
 4193TIP3    H234139   5.774   6.623   8.734 -0.0939 -1.6157 -1.7966
 4194TIP3   OH234140   1.400   4.934   8.264  0.2680  0.0691  0.3194
 4194TIP3    H134141   1.351   4.853   8.257  0.2666 -0.0060  1.0836
 4194TIP3    H234142   1.483   4.908   8.305  0.3670  0.4125  0.3404
 4195TIP3   OH234143   1.959   2.689   2.113 -0.0934 -0.4190  0.1924
 4195TIP3    H134144   1.871   2.658   2.092 -0.3482  0.8548 -0.7348
 4195TIP3    H234145   1.945   2.760   2.176  0.5781 -3.1243  3.7072
 4196TIP3   OH234146   5.118   5.992   7.498  0.1277 -0.8269  0.1178
 4196TIP3    H134147   5.150   6.063   7.443  1.0577  0.3670  2.0938
 4196TIP3    H234148   5.192   5.967   7.553 -0.9300 -1.4209  1.3623
 4197TIP3   OH234149   4.896   4.425   0.108 -0.5655 -0.1428  0.0534
 4197TIP3    H134150   4.957   4.435   0.035 -2.5339 -0.3026 -1.6856
 4197TIP3    H234151   4.940   4.365   0.168  1.4994  0.7274 -0.5142
 4198TIP3   OH234152   5.801   4.137   1.450  0.2281  0.1703 -0.2151
 4198TIP3    H134153   5.724   4.140   1.507  0.3820  1.2838 -0.0322
 4198TIP3    H234154   5.767   4.164   1.364  0.5859  1.7948  0.1134
 4199TIP3   OH234155   1.513   6.061   1.017  0.1678 -0.5291 -0.3819
 4199TIP3    H134156   1.460   6.141   1.012  1.6736  0.5322 -0.1308
 4199TIP3    H234157   1.495   6.015   0.935 -1.3250 -0.3448 -0.1858
 4200TIP3   OH234158   5.348   4.038   7.472  0.1408 -0.6377 -0.0385
 4200TIP3    H134159   5.392   4.122   7.485  0.9621 -0.8347 -1.3385
 4200TIP3    H234160   5.395   3.977   7.530 -0.0852 -0.3191  0.4820
 4201TIP3   OH234161   2.695   2.685   0.359 -0.2535  0.1111  0.3360
 4201TIP3    H134162   2.694   2.776   0.386  0.4356 -0.1365  1.2550
 4201TIP3    H234163   2.618   2.675   0.303  0.3144  1.5321 -0.7363
 4202TIP3   OH234164   0.444   1.673   0.188  0.3972 -0.0765  0.7358
 4202TIP3    H134165   0.531   1.634   0.204  0.4348 -0.7196 -0.8214
 4202TIP3    H234166   0.414   1.631   0.108 -0.9718  0.8299  0.7431
 4203TIP3   OH234167   2.545   0.717   7.651 -0.0933  0.6119  0.1431
 4203TIP3    H134168   2.523   0.793   7.597 -0.2287  1.1581  0.9441
 4203TIP3    H234169   2.640   0.712   7.648 -0.0692  0.9537  0.2637
 4204TIP3   OH234170   0.908   4.554   6.909  0.2861  0.3347  0.2831
 4204TIP3    H134171   0.932   4.462   6.911  0.0102  0.1356 -2.2688
 4204TIP3    H234172   0.835   4.559   6.847  0.5236  2.3180  0.0797
 4205TIP3   OH234173   5.124   6.450   0.785 -0.3012 -0.1916  0.3398
 4205TIP3    H134174   5.140   6.544   0.790 -1.5632  0.0188  0.8575
 4205TIP3    H234175   5.081   6.437   0.701  0.9589 -0.5116 -0.2900
 4206TIP3   OH234176   3.060   6.574   7.360  0.1418 -0.1642 -0.1342
 4206TIP3    H134177   3.112   6.597   7.283  1.3912  0.1153  0.7583
 4206TIP3    H234178   3.114   6.601   7.434 -1.9250  1.5255  0.8436
 4207TIP3   OH234179   4.086   4.063   1.241 -0.6583 -0.1490 -0.0095
 4207TIP3    H134180   4.179   4.085   1.226 -0.5194 -1.1242 -0.6523
 4207TIP3    H234181   4.042   4.092   1.161 -0.8222 -0.2384  0.0488
 4208TIP3   OH234182   6.649   1.165   7.727  0.1779 -0.4647 -0.3044
 4208TIP3    H134183   6.573   1.108   7.718 -0.2949  0.0800  0.2046
 4208TIP3    H234184   6.623   1.247   7.685  1.6503 -1.2910 -3.1144
 4209TIP3   OH234185   3.615   0.756   1.008  0.5122  0.0888 -0.2690
 4209TIP3    H134186   3.660   0.677   1.038 -1.5825 -0.9019  0.4791
 4209TIP3    H234187   3.570   0.789   1.085 -0.6485  0.5704 -1.1238
 4210TIP3   OH234188   3.071   5.873   1.187 -0.1071  0.0866  0.1303
 4210TIP3    H134189   3.057   5.790   1.234 -1.4807 -0.0978 -0.5560
 4210TIP3    H234190   3.080   5.938   1.257  0.2646 -0.5259  0.6708
 4211TIP3   OH234191   2.291   1.470   7.102 -0.4661 -0.3967 -0.4049
 4211TIP3    H134192   2.302   1.549   7.049 -2.3975 -0.5715 -1.1279
 4211TIP3    H234193   2.262   1.403   7.041  0.3404 -1.4708  0.3459
 4212TIP3   OH234194   2.659   4.205   7.384  0.4128  0.6227 -0.1281
 4212TIP3    H134195   2.736   4.151   7.366  0.1359 -0.2558  1.1614
 4212TIP3    H234196   2.691   4.295   7.380  1.5963  0.2662  0.6987
 4213TIP3   OH234197   0.104   3.957   8.678  0.0818 -0.3207  0.5941
 4213TIP3    H134198   0.065   4.019   8.616  0.6585 -0.9391 -0.4131
 4213TIP3    H234199   0.182   4.001   8.711  1.7748 -1.2954 -1.8154
 4214TIP3   OH234200   1.096   1.913   1.364 -0.2791  0.0300 -0.0495
 4214TIP3    H134201   1.146   1.994   1.352 -0.4536  0.5488  2.2558
 4214TIP3    H234202   1.162   1.844   1.363  0.6730  0.7117  3.0349
 4215TIP3   OH234203   6.722   0.937   7.904 -0.4836 -0.5759  0.2292
 4215TIP3    H134204   6.687   0.994   7.836 -1.6452 -0.4187  0.9192
 4215TIP3    H234205   6.817   0.944   7.896 -0.5212  2.4725  1.0658
 4216TIP3   OH234206   3.178   3.919   7.454 -0.2202 -0.3944  0.0695
 4216TIP3    H134207   3.140   3.842   7.411 -0.4693  0.5439 -1.4607
 4216TIP3    H234208   3.227   3.883   7.528 -3.1335 -1.7506  1.4964
 4217TIP3   OH234209   4.748   1.917   7.122 -0.3493  0.4171 -0.4076
 4217TIP3    H134210   4.666   1.959   7.097 -1.0489 -0.4602  0.3388
 4217TIP3    H234211   4.793   1.982   7.175 -2.7244 -0.6194  3.2643
 4218TIP3   OH234212   1.715   5.769   8.117 -0.9109  0.2275 -0.7225
 4218TIP3    H134213   1.722   5.832   8.046 -1.8181  1.7426  0.4732
 4218TIP3    H234214   1.640   5.714   8.094 -0.8657  0.3624 -1.1903
 4219TIP3   OH234215   5.907   3.247   0.191 -0.2348 -0.3501 -0.4436
 4219TIP3    H134216   5.823   3.276   0.155 -0.0325  0.0631 -0.5854
 4219TIP3    H234217   5.921   3.303   0.267  0.2512  0.0739 -0.8321
 4220TIP3   OH234218   1.695   2.569   8.423  0.0910 -0.2045 -0.1187
 4220TIP3    H134219   1.613   2.596   8.383 -0.8585  1.7692  2.8400
 4220TIP3    H234220   1.754   2.644   8.411 -0.3503  0.6232  2.3169
 4221TIP3   OH234221   1.862   6.033   0.564  0.0881 -0.0515  0.1992
 4221TIP3    H134222   1.849   6.076   0.648 -0.6794  1.1610 -0.5106
 4221TIP3    H234223   1.915   5.956   0.584 -0.4629 -0.0319  1.8514
 4222TIP3   OH234224   2.077   4.340   6.883  0.3109  0.0779 -0.2229
 4222TIP3    H134225   2.130   4.359   6.805  1.6716 -0.2724  0.5861
 4222TIP3    H234226   2.100   4.251   6.907 -0.4178  0.0324  0.3514
 4223TIP3   OH234227   2.536   4.399   8.623 -0.0079 -0.2451 -0.2301
 4223TIP3    H134228   2.605   4.334   8.613 -0.0934 -0.3868  0.0964
 4223TIP3    H234229   2.503   4.413   8.534  1.9844  1.5436 -0.7741
 4224TIP3   OH234230   1.872   6.227   8.495 -0.0529 -0.3100 -0.0298
 4224TIP3    H134231   1.856   6.321   8.499  0.4001 -0.2326 -0.0180
 4224TIP3    H234232   1.792   6.191   8.456 -0.3528  0.0424  0.2490
 4225TIP3   OH234233   0.919   3.436   0.500  0.4751 -0.5368  0.0031
 4225TIP3    H134234   0.841   3.383   0.517  0.1147 -0.4576 -1.2920
 4225TIP3    H234235   0.976   3.420   0.575 -0.0842 -1.8887  0.1584
 4226TIP3   OH234236   5.270   4.033   6.991  0.4215 -0.2355  0.2925
 4226TIP3    H134237   5.257   4.120   6.954 -2.9670 -0.0585  1.4747
 4226TIP3    H234238   5.311   3.982   6.921  0.2506  1.6918 -1.2854
 4227TIP3   OH234239   3.114   4.842   8.633 -0.7448  0.1109 -0.4137
 4227TIP3    H134240   3.094   4.797   8.551 -2.0813 -0.1403  0.0193
 4227TIP3    H234241   3.136   4.771   8.694 -1.8999  0.0829  0.0068
 4228TIP3   OH234242   2.711   3.272   1.556  0.0657  0.0216 -0.1276
 4228TIP3    H134243   2.721   3.181   1.529  1.9688  0.0410  0.3536
 4228TIP3    H234244   2.731   3.272   1.649  1.6194  1.1251 -0.4186
 4229TIP3   OH234245   5.525   4.520   8.666  0.0834 -0.4864  0.3276
 4229TIP3    H134246   5.612   4.482   8.664 -0.1166 -0.9102 -1.4038
 4229TIP3    H234247   5.466   4.445   8.665 -0.3243 -0.3132 -3.4900
 4230TIP3   OH234248   3.633   4.958   6.279  0.4182 -0.0797  0.1926
 4230TIP3    H134249   3.711   5.001   6.245  0.4278  1.0672  1.6110
 4230TIP3    H234250   3.560   5.006   6.238  0.4417  0.5639  0.8902
 4231TIP3   OH234251   0.210   2.028   0.515 -0.5740 -0.3539  0.0948
 4231TIP3    H134252   0.244   1.947   0.551  1.0413 -0.1849 -0.9661
 4231TIP3    H234253   0.227   2.021   0.421 -1.9771  0.4873 -0.2514
 4232TIP3   OH234254   0.754   2.043   8.804 -0.2972  0.7160  0.4439
 4232TIP3    H134255   0.740   2.005   8.717 -0.6980 -0.8810  1.1623
 4232TIP3    H234256   0.848   2.034   8.819 -0.3736  0.0964  0.5627
 4233TIP3   OH234257   2.581   3.941   2.456  0.5318 -0.1751  0.1764
 4233TIP3    H134258   2.574   3.846   2.447  0.6224 -0.1630 -0.0199
 4233TIP3    H234259   2.491   3.973   2.452  0.4856 -0.2715  0.4460
 4234TIP3   OH234260   5.714   4.301   7.330  0.6687 -0.6461 -0.2368
 4234TIP3    H134261   5.790   4.311   7.273  1.3300 -1.0739  0.5310
 4234TIP3    H234262   5.712   4.381   7.382 -1.5954  1.0532 -2.6758
 4235TIP3   OH234263   2.429   2.529   8.545 -0.1587 -0.2131  0.2199
 4235TIP3    H134264   2.380   2.594   8.495 -1.0045  0.4350  1.8342
 4235TIP3    H234265   2.374   2.451   8.544  1.6875 -1.7419 -3.3707
 4236TIP3   OH234266   2.446   4.404   7.967 -0.5691 -0.4816 -0.1189
 4236TIP3    H134267   2.387   4.346   8.015 -1.8649  1.6720  1.1104
 4236TIP3    H234268   2.516   4.424   8.030  1.5997 -2.9555 -1.5370
 4237TIP3   OH234269   4.042   4.454   7.580  0.5292 -0.7812  0.4561
 4237TIP3    H134270   4.011   4.419   7.664 -1.2167  0.4912  0.3857
 4237TIP3    H234271   4.056   4.547   7.597  3.5143 -1.0900  0.1994
 4238TIP3   OH234272   3.754   1.078   2.011 -0.0737 -0.0362 -0.1001
 4238TIP3    H134273   3.756   1.126   2.094 -0.3238  0.1660 -0.2127
 4238TIP3    H234274   3.844   1.044   2.002  0.0297  0.1746  0.1133
 4239TIP3   OH234275   3.370   0.773   0.368  0.5453  0.8804  0.3176
 4239TIP3    H134276   3.463   0.756   0.351  0.9278  0.6895  2.3458
 4239TIP3    H234277   3.324   0.712   0.311  1.6758  0.2314  0.0516
 4240TIP3   OH234278   4.145   2.957   1.932 -0.5760  0.2314  0.3932
 4240TIP3    H134279   4.139   2.905   1.852  0.1329 -0.1422  0.5720
 4240TIP3    H234280   4.091   2.910   1.995  2.8692 -2.4708  1.6640
 4241TIP3   OH234281   2.796   0.803   7.499 -0.0596 -0.1810  0.8597
 4241TIP3    H134282   2.838   0.878   7.456 -0.1574 -1.9802 -2.7367
 4241TIP3    H234283   2.734   0.770   7.434  0.8284 -4.0761  1.7527
 4242TIP3   OH234284   3.850   6.135   7.580  0.2064  0.2070 -0.5426
 4242TIP3    H134285   3.919   6.196   7.553 -0.3788  1.1725  0.0556
 4242TIP3    H234286   3.841   6.075   7.507  1.4740  0.2481 -0.7554
 4243TIP3   OH234287   0.778   3.791   2.039 -0.0452 -0.1401  0.2850
 4243TIP3    H134288   0.770   3.698   2.017 -1.2568  0.0486 -0.1333
 4243TIP3    H234289   0.853   3.821   1.987 -0.7960 -0.4696 -1.0356
 4244TIP3   OH234290   5.994   1.278   2.116 -0.3687  0.4010 -0.4431
 4244TIP3    H134291   5.959   1.200   2.160 -0.0580 -0.3244 -1.4531
 4244TIP3    H234292   6.087   1.259   2.105 -0.2609  0.9883 -0.5702
 4245TIP3   OH234293   0.443   4.770   6.420  0.4007  0.4041 -0.4712
 4245TIP3    H134294   0.463   4.827   6.494 -0.5212  0.0916  0.0436
 4245TIP3    H234295   0.526   4.760   6.374  0.9817  0.6392  0.4969
 4246TIP3   OH234296   4.503   6.485   1.782 -0.1342  0.5021  0.6305
 4246TIP3    H134297   4.497   6.395   1.816  1.9488 -0.5833 -1.6179
 4246TIP3    H234298   4.595   6.509   1.794 -0.2095  1.5303 -0.6733
 4247TIP3   OH234299   3.123   2.989   7.672 -0.1143  0.3691  0.5183
 4247TIP3    H134300   3.161   3.035   7.746  1.1546  1.3493 -0.6761
 4247TIP3    H234301   3.197   2.946   7.629 -1.0804 -1.7858  0.8505
 4248TIP3   OH234302   5.892   5.304   2.084 -0.3929  0.1481 -0.4198
 4248TIP3    H134303   5.918   5.381   2.134  1.3294 -0.2351 -0.6542
 4248TIP3    H234304   5.861   5.241   2.150  0.2445  0.2679  0.0040
 4249TIP3   OH234305   5.427   2.122   6.839  0.7285  0.4985 -0.1037
 4249TIP3    H134306   5.494   2.119   6.770  0.6128 -0.2147 -0.1878
 4249TIP3    H234307   5.344   2.126   6.792  0.7151  2.1896 -0.0062
 4250TIP3   OH234308   0.467   0.242   7.083 -0.1828  0.2077  0.2287
 4250TIP3    H134309   0.522   0.165   7.091 -0.2558  0.0360 -0.7293
 4250TIP3    H234310   0.513   0.310   7.133 -0.3925 -0.5824  1.5133
 4251TIP3   OH234311   1.502   2.870   8.633  0.1519  0.0340  0.0876
 4251TIP3    H134312   1.459   2.885   8.717 -1.7947 -1.9963 -0.4484
 4251TIP3    H234313   1.567   2.802   8.651 -0.5253 -0.6727 -0.0972
 4252TIP3   OH234314   2.229   1.899   2.045  0.0252 -0.6587  0.2860
 4252TIP3    H134315   2.193   1.943   1.968  1.0614 -0.2072  0.0406
 4252TIP3    H234316   2.305   1.851   2.012  1.9763  1.4854  1.3797
 4253TIP3   OH234317   4.945   3.623   7.648  0.5156  0.0494  0.1959
 4253TIP3    H134318   5.025   3.662   7.684  1.3658 -0.3453 -1.1888
 4253TIP3    H234319   4.961   3.618   7.553 -1.1690 -0.0095 -0.1250
 4254TIP3   OH234320   3.743   5.557   6.989 -0.0454 -0.5150 -0.1360
 4254TIP3    H134321   3.754   5.464   7.011 -0.8516 -0.9006 -1.2751
 4254TIP3    H234322   3.667   5.559   6.931 -0.1657  0.8938  0.0348
 4255TIP3   OH234323   6.072   2.814   0.431  0.1388 -0.0039  0.7764
 4255TIP3    H134324   6.117   2.731   0.417 -0.5010 -0.4888  1.5239
 4255TIP3    H234325   5.981   2.796   0.408  0.0729  0.6074  0.5377
 4256TIP3   OH234326   2.389   4.972   1.518  0.1242  0.2217 -0.9681
 4256TIP3    H134327   2.413   4.961   1.426 -1.1724  2.5446 -1.6486
 4256TIP3    H234328   2.467   4.943   1.566  0.3688 -2.3033 -2.6849
 4257TIP3   OH234329   1.126   0.292   2.168 -0.0605  0.0748 -0.3166
 4257TIP3    H134330   1.131   0.311   2.261 -0.6662 -0.6802 -0.1230
 4257TIP3    H234331   1.137   0.197   2.162  0.3197  0.1574 -1.0424
 4258TIP3   OH234332   1.247   0.898   7.525 -0.0373 -0.2858 -0.1594
 4258TIP3    H134333   1.265   0.991   7.540  1.1994 -0.4790 -0.2666
 4258TIP3    H234334   1.170   0.878   7.577  1.4317  0.1194  2.3077
 4259TIP3   OH234335   3.703   0.797   2.806  0.3405  0.3228 -0.1638
 4259TIP3    H134336   3.634   0.737   2.778  1.0419 -0.1419 -0.9403
 4259TIP3    H234337   3.753   0.815   2.726  1.0475  0.7433  0.3593
 4260TIP3   OH234338   1.175   3.727   0.659 -0.1457 -0.5163  0.0923
 4260TIP3    H134339   1.180   3.795   0.592  0.9013 -1.6480 -1.0373
 4260TIP3    H234340   1.104   3.755   0.717 -0.7051  0.7821 -1.1621
 4261TIP3   OH234341   6.399   5.146   2.224 -0.1444 -0.0976  1.0635
 4261TIP3    H134342   6.374   5.060   2.188  1.8293  0.0506 -0.8437
 4261TIP3    H234343   6.472   5.174   2.170 -0.8932  2.9526  1.4763
 4262TIP3   OH234344   5.097   0.406   2.171  0.2423  0.4242  0.2982
 4262TIP3    H134345   5.039   0.460   2.117  1.0246 -0.8016 -1.8696
 4262TIP3    H234346   5.163   0.468   2.203 -0.1152  1.1433 -0.3165
 4263TIP3   OH234347   5.985   0.545   7.491 -0.2655 -0.4532  0.8129
 4263TIP3    H134348   5.976   0.452   7.474 -0.6473 -0.5019  1.2862
 4263TIP3    H234349   6.031   0.550   7.575 -2.2769 -0.2448  1.9690
 4264TIP3   OH234350   1.840   5.293   7.829  0.0438 -0.6955 -0.5413
 4264TIP3    H134351   1.752   5.255   7.835 -0.0161 -0.6928 -1.2738
 4264TIP3    H234352   1.872   5.265   7.743  0.7056 -0.5752 -0.3407
 4265TIP3   OH234353   5.257   6.317   8.647 -0.2468  0.2848 -0.9949
 4265TIP3    H134354   5.277   6.345   8.736 -0.7673 -1.2251 -0.3612
 4265TIP3    H234355   5.164   6.294   8.650  0.6602 -4.3539 -0.5056
 4266TIP3   OH234356   1.467   0.818   0.193  0.5619  0.1190  0.3518
 4266TIP3    H134357   1.508   0.829   0.107  1.0214  0.2751  0.5888
 4266TIP3    H234358   1.466   0.723   0.206 -0.3968  0.0377 -0.2473
 4267TIP3   OH234359   3.851   3.071   6.456  0.0796  0.4768 -0.2549
 4267TIP3    H134360   3.885   3.008   6.520 -1.0643 -0.8738 -0.9229
 4267TIP3    H234361   3.921   3.135   6.446  0.4032  0.6000  2.1546
 4268TIP3   OH234362   1.185   0.615   1.396 -0.2678 -0.2624 -0.0344
 4268TIP3    H134363   1.092   0.596   1.410 -0.2728  0.5261  1.1831
 4268TIP3    H234364   1.231   0.545   1.442 -0.2948  1.4143  2.7966
 4269TIP3   OH234365   4.982   1.660   2.140  0.2227 -0.5245  0.0122
 4269TIP3    H134366   4.892   1.652   2.172 -0.7503 -0.1948 -2.3907
 4269TIP3    H234367   5.001   1.754   2.144 -0.6983 -0.1732 -2.1132
 4270TIP3   OH234368   5.791   0.217   2.881  0.9105  0.3360  0.3618
 4270TIP3    H134369   5.725   0.150   2.902 -1.6504  2.4168 -0.4621
 4270TIP3    H234370   5.802   0.266   2.963  1.9295 -0.3617  0.6577
 4271TIP3   OH234371   1.272   1.727   0.740 -0.4989  0.3098  0.1327
 4271TIP3    H134372   1.256   1.805   0.685 -0.4704 -0.0553 -0.4016
 4271TIP3    H234373   1.237   1.654   0.688  1.8878 -0.4005 -0.6199
 4272TIP3   OH234374   4.919   2.818   1.725 -0.2409  0.1404 -0.6311
 4272TIP3    H134375   4.880   2.822   1.813  0.5661  1.4509 -0.3103
 4272TIP3    H234376   4.928   2.909   1.699 -0.4494 -0.2321 -2.0908
 4273TIP3   OH234377   6.118   6.694   8.743 -0.1002  0.0497 -0.4778
 4273TIP3    H134378   6.114   6.740   8.659  0.3448  1.7199  0.3532
 4273TIP3    H234379   6.132   6.602   8.720 -0.6159  0.3735 -2.2274
 4274TIP3   OH234380   0.097   2.947   7.298  0.3178  0.1180 -0.3432
 4274TIP3    H134381   0.076   3.040   7.301  0.0801  0.1307 -1.7608
 4274TIP3    H234382   0.185   2.941   7.336  0.6758  1.0437 -0.9916
 4275TIP3   OH234383   4.890   4.192   1.471  0.0645 -0.0069 -0.3002
 4275TIP3    H134384   4.835   4.255   1.517 -0.3370 -0.3109 -0.3546
 4275TIP3    H234385   4.963   4.243   1.437  0.2230  0.2723  0.4432
 4276TIP3   OH234386   6.004   5.676   7.771 -0.6606 -0.5038  0.2929
 4276TIP3    H134387   6.076   5.722   7.814 -1.3283  0.3850  0.4783
 4276TIP3    H234388   5.998   5.593   7.819  1.8416 -1.7360 -1.3011
 4277TIP3   OH234389   5.598   2.360   7.253  0.3301  0.3967  0.1190
 4277TIP3    H134390   5.566   2.269   7.258 -0.6192  0.5196 -2.2076
 4277TIP3    H234391   5.674   2.355   7.194  0.0283  1.1527 -0.3473
 4278TIP3   OH234392   3.958   4.814   8.860 -0.5766  0.5950 -0.1893
 4278TIP3    H134393   3.949   4.850   8.771  0.6813 -0.7190 -0.8961
 4278TIP3    H234394   4.035   4.858   8.896 -0.1296 -0.0176 -0.3724
 4279TIP3   OH234395   4.889   1.756   0.238  0.0549  0.4690 -0.0778
 4279TIP3    H134396   4.875   1.788   0.149 -1.0588  0.5618  0.1113
 4279TIP3    H234397   4.879   1.833   0.294  1.8987  0.6423  0.0723
 4280TIP3   OH234398   3.557   0.751   8.665  0.1458  0.0862  0.0367
 4280TIP3    H134399   3.643   0.783   8.694 -0.7066  1.5281  1.0502
 4280TIP3    H234400   3.557   0.767   8.571  0.8966  0.3076  0.0637
 4281TIP3   OH234401   5.089   4.079   0.917  0.2556  0.0080  0.4455
 4281TIP3    H134402   5.163   4.139   0.910  2.2961 -2.3519  0.0856
 4281TIP3    H234403   5.088   4.053   1.009 -0.2155  0.1186  0.4741
 4282TIP3   OH234404   2.019   0.277   8.323  0.0576 -0.2900 -0.2690
 4282TIP3    H134405   2.018   0.315   8.235  0.0663 -2.1744 -1.1204
 4282TIP3    H234406   2.016   0.182   8.308  2.2521 -0.7308  1.7079
 4283TIP3   OH234407   1.944   5.179   0.942 -0.3894  0.2668 -0.7376
 4283TIP3    H134408   2.028   5.222   0.963  0.1124 -0.3657 -1.3863
 4283TIP3    H234409   1.909   5.152   1.026  0.0229  0.6069 -0.4508
 4284TIP3   OH234410   5.818   6.248   1.763 -0.2777  0.1601 -0.2708
 4284TIP3    H134411   5.857   6.161   1.753  0.4590  0.0705  2.4546
 4284TIP3    H234412   5.725   6.235   1.746 -0.7708 -1.9944  3.1200
 4285TIP3   OH234413   0.332   3.348   0.247  0.1773  0.6242 -0.4136
 4285TIP3    H134414   0.390   3.424   0.261 -0.5544  0.9566  0.9992
 4285TIP3    H234415   0.389   3.272   0.262  0.1925  0.9491  1.3594
 4286TIP3   OH234416   0.710   5.871   0.131 -0.2973 -0.4530  0.1418
 4286TIP3    H134417   0.727   5.947   0.186  0.1761  0.6046 -1.3829
 4286TIP3    H234418   0.795   5.828   0.120 -0.2356 -0.2141 -0.3636
 4287TIP3   OH234419   4.946   3.754   8.317  0.3317  0.0937  0.3343
 4287TIP3    H134420   4.999   3.674   8.312  1.2853  0.6974  0.5004
 4287TIP3    H234421   4.909   3.763   8.230  0.1042 -0.5889  0.3468
 4288TIP3   OH234422   2.025   3.592   1.098  0.4204  0.1070 -0.2308
 4288TIP3    H134423   2.018   3.502   1.068  0.8881  0.7857 -2.6459
 4288TIP3    H234424   2.080   3.588   1.176  0.5744 -1.6550 -0.3896
 4289TIP3   OH234425   4.969   5.532   7.298  0.1304 -0.5407  0.4471
 4289TIP3    H134426   5.061   5.556   7.308 -0.3653  0.9315  1.9068
 4289TIP3    H234427   4.923   5.615   7.290 -1.0863 -1.2538 -0.3162
 4290TIP3   OH234428   5.674   2.779   8.857 -0.1448  0.1533 -0.2083
 4290TIP3    H134429   5.601   2.840   8.849  0.4580  0.8660 -0.3910
 4290TIP3    H234430   5.657   2.731   8.938 -1.2971 -0.3525 -0.7337
 4291TIP3   OH234431   4.450   0.358   1.987 -0.3364  1.0163 -0.0061
 4291TIP3    H134432   4.540   0.336   2.010 -0.5635  0.2190  0.1655
 4291TIP3    H234433   4.397   0.297   2.038 -0.9210  0.5043 -1.1815
 4292TIP3   OH234434   6.059   4.411   7.873  0.0360  0.1431 -0.2845
 4292TIP3    H134435   6.151   4.386   7.877 -0.1244 -0.2756  1.4313
 4292TIP3    H234436   6.052   4.487   7.931 -1.3300 -2.0786  2.7296
 4293TIP3   OH234437   1.149   2.772   8.621  0.4811 -0.2200 -0.1764
 4293TIP3    H134438   1.101   2.838   8.673 -0.6500 -0.0626 -1.3699
 4293TIP3    H234439   1.128   2.793   8.530  2.2347 -0.6458 -0.7073
 4294TIP3   OH234440   6.610   3.609   8.704  0.1516 -0.1327 -0.0686
 4294TIP3    H134441   6.587   3.553   8.777 -0.8443 -0.6967 -0.7916
 4294TIP3    H234442   6.607   3.552   8.627  0.2787  0.6374 -0.6643
 4295TIP3   OH234443   2.682   1.528   7.424 -0.4882 -0.2592  0.1780
 4295TIP3    H134444   2.702   1.540   7.332 -0.3597 -0.3114  0.1994
 4295TIP3    H234445   2.586   1.531   7.428 -0.5279 -0.9743 -0.0552
 4296TIP3   OH234446   0.646   6.613   8.680 -0.5195 -0.5701  0.1857
 4296TIP3    H134447   0.647   6.586   8.588 -0.2208  1.6255 -0.5057
 4296TIP3    H234448   0.560   6.652   8.693 -1.2418 -2.4382  1.3842
 4297TIP3   OH234449   3.534   5.008   6.546 -0.0864 -0.2687 -0.1409
 4297TIP3    H134450   3.562   5.012   6.454  0.9053 -0.1312  0.1548
 4297TIP3    H234451   3.615   4.996   6.595 -0.6598 -0.8170  0.6901
 4298TIP3   OH234452   6.061   3.565   1.489  0.3580 -0.1573 -0.3111
 4298TIP3    H134453   6.103   3.528   1.412  3.3499  0.9944  0.6208
 4298TIP3    H234454   6.100   3.518   1.563 -0.6420  0.4145  0.6251
 4299TIP3   OH234455   2.516   0.508   7.159  0.3968 -0.1517 -0.6261
 4299TIP3    H134456   2.586   0.558   7.202  1.0654  0.1020 -1.9467
 4299TIP3    H234457   2.488   0.564   7.086 -1.7964  0.1267  0.3510
 4300TIP3   OH234458   0.864   5.044   1.289  0.2843  0.4900 -0.3726
 4300TIP3    H134459   0.871   4.982   1.361  0.5210 -1.3562 -1.8951
 4300TIP3    H234460   0.798   5.005   1.231  0.9283  1.3115 -1.7062
 4301TIP3   OH234461   4.994   6.295   8.593 -0.1232 -0.0773  0.0853
 4301TIP3    H134462   4.945   6.268   8.515 -0.2314 -1.5605  0.6239
 4301TIP3    H234463   4.929   6.333   8.651 -0.6631 -1.7900  0.6827
 4302TIP3   OH234464   5.830   0.186   1.835 -0.5730  0.0850  0.0231
 4302TIP3    H134465   5.740   0.208   1.812 -0.4307  0.3731 -0.2670
 4302TIP3    H234466   5.856   0.122   1.768 -0.4837  0.1765 -0.0286
 4303TIP3   OH234467   4.223   5.564   0.306 -0.6938 -0.2658  0.4663
 4303TIP3    H134468   4.193   5.651   0.333 -1.1771 -0.2601 -0.0522
 4303TIP3    H234469   4.230   5.570   0.210 -2.8028 -1.3963  0.1858
 4304TIP3   OH234470   4.050   5.463   7.014  0.0014 -0.0271 -0.4502
 4304TIP3    H134471   3.964   5.423   7.025  0.1484  0.0718  1.3859
 4304TIP3    H234472   4.062   5.468   6.919 -1.6105 -0.8830 -0.7414
 4305TIP3   OH234473   2.207   4.040   0.244  0.2736  0.3966 -0.2310
 4305TIP3    H134474   2.277   3.976   0.259 -0.4720 -0.7198 -1.2792
 4305TIP3    H234475   2.129   4.000   0.283  0.1012  1.4017  0.4832
 4306TIP3   OH234476   2.725   0.708   0.657 -0.0699  0.0177  0.3940
 4306TIP3    H134477   2.789   0.727   0.726  0.1268 -0.7599  0.4382
 4306TIP3    H234478   2.655   0.661   0.702  0.1902 -0.7417  0.0232
 4307TIP3   OH234479   6.122   6.704   0.157  0.0696  0.4166  0.2544
 4307TIP3    H134480   6.171   6.786   0.163  0.5977  0.0754  0.6529
 4307TIP3    H234481   6.116   6.687   0.063 -0.8032  1.3507  0.1137
 4308TIP3   OH234482   2.287   0.633   8.527  0.4852 -0.7729 -0.3508
 4308TIP3    H134483   2.362   0.605   8.578 -0.0697 -0.5095  0.6287
 4308TIP3    H234484   2.221   0.565   8.541 -0.1225 -0.0598  0.3441
 4309TIP3   OH234485   2.846   3.517   1.711  0.0613  0.1278 -0.5488
 4309TIP3    H134486   2.906   3.448   1.739  1.1833  1.5028  0.5616
 4309TIP3    H234487   2.902   3.592   1.695 -1.2131  1.0080 -1.0443
 4310TIP3   OH234488   1.871   6.331   6.437  0.2365 -1.0251 -0.3692
 4310TIP3    H134489   1.914   6.329   6.523  0.7269 -1.4049 -0.6208
 4310TIP3    H234490   1.829   6.245   6.429 -0.6547 -0.6248 -0.0882
 4311TIP3   OH234491   4.068   2.398   2.372 -0.4477 -0.2449  0.7280
 4311TIP3    H134492   4.046   2.305   2.376 -2.7542  0.2470  0.9371
 4311TIP3    H234493   3.995   2.437   2.325  0.5687  1.4481  0.5064
 4312TIP3   OH234494   6.048   3.240   0.780 -0.3276 -0.6292  0.2373
 4312TIP3    H134495   6.008   3.181   0.716 -2.7073  0.0709  0.9749
 4312TIP3    H234496   6.070   3.184   0.854 -1.8246 -0.7769  0.6058
 4313TIP3   OH234497   6.368   5.334   1.855 -0.2780  0.7488  0.3675
 4313TIP3    H134498   6.336   5.254   1.898 -1.4200  1.5178  1.0071
 4313TIP3    H234499   6.403   5.303   1.771 -2.0627 -0.2760 -0.0636
 4314TIP3   OH234500   3.337   0.449   0.553 -0.2318  0.3241 -0.2062
 4314TIP3    H134501   3.268   0.487   0.498  0.4933  0.5568 -0.9633
 4314TIP3    H234502   3.368   0.373   0.504 -0.2329 -0.0353  0.3330
 4315TIP3   OH234503   1.159   3.237   7.548  0.0212  0.4664  0.3385
 4315TIP3    H134504   1.220   3.303   7.582  0.0298  0.5708  0.1225
 4315TIP3    H234505   1.213   3.182   7.491 -0.3568  1.3794 -0.9440
 4316TIP3   OH234506   1.937   2.950   7.701 -0.3812  0.0406  0.2690
 4316TIP3    H134507   2.019   2.905   7.719  0.2522 -0.3781 -2.9875
 4316TIP3    H234508   1.960   3.020   7.640 -2.5008 -0.8338 -1.7066
 4317TIP3   OH234509   0.424   5.420   7.553  0.2275 -0.2582 -0.2777
 4317TIP3    H134510   0.366   5.483   7.512 -0.9576 -1.3798 -0.3903
 4317TIP3    H234511   0.412   5.339   7.502  2.8133 -0.2329 -1.1029
 4318TIP3   OH234512   5.660   2.907   7.818  0.2228 -0.1245  0.0450
 4318TIP3    H134513   5.678   2.935   7.907  0.1622  2.6247 -0.6915
 4318TIP3    H234514   5.745   2.882   7.782  1.1477  3.1988 -0.4188
 4319TIP3   OH234515   6.458   0.095   8.555  0.3412 -0.0266 -0.0086
 4319TIP3    H134516   6.523   0.137   8.498  0.3335 -0.2414 -0.1775
 4319TIP3    H234517   6.493   0.007   8.570  0.8294  0.3394  1.1115
 4320TIP3   OH234518   1.398   1.490   7.813 -0.2737  0.1304 -0.6576
 4320TIP3    H134519   1.339   1.550   7.768  0.0068 -0.6165 -2.0924
 4320TIP3    H234520   1.483   1.533   7.811 -0.6312  1.0218  1.0486
 4321TIP3   OH234521   4.695   1.650   8.686  0.0447  0.0935  0.3887
 4321TIP3    H134522   4.664   1.721   8.630  0.0611 -2.3492 -3.0311
 4321TIP3    H234523   4.616   1.604   8.714  0.1413  0.1476  0.7682
 4322TIP3   OH234524   4.200   6.547   7.394 -0.7651 -0.2331  0.1561
 4322TIP3    H134525   4.280   6.567   7.443 -0.5855 -1.2273  0.2828
 4322TIP3    H234526   4.146   6.627   7.403  0.7883  1.0294 -1.1577
 4323TIP3   OH234527   4.938   0.428   0.414 -0.4943  0.5010 -0.4381
 4323TIP3    H134528   4.979   0.503   0.371  0.9795  0.0813  0.1729
 4323TIP3    H234529   4.896   0.464   0.492 -2.9284  1.2209 -1.9587
 4324TIP3   OH234530   6.673   4.478   0.230  0.5392 -0.1773 -0.0757
 4324TIP3    H134531   6.669   4.552   0.291 -1.3174  0.6694 -1.1226
 4324TIP3    H234532   6.766   4.468   0.210  0.9774  0.8723  1.2776
 4325TIP3   OH234533   2.906   5.691   7.384 -0.9785 -0.1897  0.2480
 4325TIP3    H134534   2.991   5.717   7.349 -0.9111  0.4032  0.8169
 4325TIP3    H234535   2.889   5.756   7.453 -2.8776  1.0089 -1.2555
 4326TIP3   OH234536   0.922   4.162   7.723  0.4687  0.1117 -0.0214
 4326TIP3    H134537   0.927   4.073   7.687 -2.0434  0.1533 -0.7055
 4326TIP3    H234538   0.971   4.216   7.661  1.4498 -0.6867  0.0377
 4327TIP3   OH234539   3.246   3.116   7.398 -0.1859 -0.5437 -1.2373
 4327TIP3    H134540   3.178   3.052   7.418  0.3920 -0.9406 -0.5121
 4327TIP3    H234541   3.296   3.076   7.327  0.0023 -0.7634 -0.9787
 4328TIP3   OH234542   4.425   0.649   1.960  0.3102 -0.1513 -0.0779
 4328TIP3    H134543   4.511   0.690   1.961  0.4227 -0.3826  0.6387
 4328TIP3    H234544   4.444   0.556   1.945  0.2665 -0.3547  1.0644
 4329TIP3   OH234545   5.006   5.078   8.382 -0.3743 -0.1270  0.0044
 4329TIP3    H134546   4.990   5.085   8.288  1.0340 -0.5307 -0.3000
 4329TIP3    H234547   5.088   5.126   8.395 -1.3579  1.2687  1.3079
 4330TIP3   OH234548   4.798   4.835   1.691  0.1150 -0.0581  0.1954
 4330TIP3    H134549   4.819   4.791   1.609 -0.1953 -0.3068  0.2475
 4330TIP3    H234550   4.834   4.923   1.682  1.9665 -0.7230  0.6206
 4331TIP3   OH234551   4.439   1.504   6.716  0.2538  0.2143 -0.5611
 4331TIP3    H134552   4.476   1.435   6.771  1.7533  1.1341 -0.3346
 4331TIP3    H234553   4.352   1.520   6.751  1.1930  0.8273  1.6227
 4332TIP3   OH234554   6.763   0.676   0.625  0.2298 -0.4359 -0.2366
 4332TIP3    H134555   6.691   0.699   0.566  0.5571  0.0221 -0.4638
 4332TIP3    H234556   6.796   0.592   0.591 -0.0558 -0.5370 -0.2636
 4333TIP3   OH234557   3.203   2.688   2.171  0.3752  0.1410  0.5847
 4333TIP3    H134558   3.272   2.701   2.236 -0.6871  0.0638  1.7571
 4333TIP3    H234559   3.247   2.643   2.098  1.1860 -1.6418  2.0900
 4334TIP3   OH234560   4.637   4.118   0.757  0.0316 -0.4729 -0.1857
 4334TIP3    H134561   4.565   4.167   0.718  0.2235 -1.9345 -2.5667
 4334TIP3    H234562   4.679   4.181   0.815 -0.7902  1.6579 -1.7452
 4335TIP3   OH234563   0.407   6.423   8.723 -0.1392 -0.1067 -0.1165
 4335TIP3    H134564   0.487   6.441   8.673  0.3075 -2.5699 -0.3929
 4335TIP3    H234565   0.338   6.418   8.657 -0.1579 -0.0436 -0.1024
 4336TIP3   OH234566   5.958   3.168   7.227  0.5186 -0.8473  0.0879
 4336TIP3    H134567   5.986   3.259   7.221 -1.1552 -0.3469 -0.8668
 4336TIP3    H234568   5.949   3.151   7.320 -0.1990  0.3238  0.2479
 4337TIP3   OH234569   3.952   1.733   8.640 -0.6317 -0.2026  0.1063
 4337TIP3    H134570   4.025   1.787   8.669  0.0200 -0.6412 -0.6959
 4337TIP3    H234571   3.980   1.696   8.556 -0.4492 -2.9816  1.2958
 4338TIP3   OH234572   1.699   1.725   6.820 -0.1835  0.0512 -0.1794
 4338TIP3    H134573   1.693   1.738   6.915 -0.2719 -0.9020 -0.0472
 4338TIP3    H234574   1.727   1.810   6.786  2.3388 -0.2108  0.9644
 4339TIP3   OH234575   2.671   4.177   0.224 -0.1821  0.0181  0.0416
 4339TIP3    H134576   2.729   4.109   0.191 -0.9559  0.1048 -1.5708
 4339TIP3    H234577   2.724   4.257   0.223  0.0174 -0.1175 -0.3201
 4340TIP3   OH234578   5.719   1.362   7.173  0.0483  0.1521  0.4570
 4340TIP3    H134579   5.650   1.306   7.208  0.2426 -0.0753  0.4786
 4340TIP3    H234580   5.714   1.349   7.078  0.5566 -0.4508  0.5075
 4341TIP3   OH234581   1.781   3.479   0.223  0.6154  0.6557 -0.3001
 4341TIP3    H134582   1.751   3.551   0.278 -0.8771 -0.2132  0.0816
 4341TIP3    H234583   1.761   3.507   0.134 -1.2650  0.1817 -0.0682
 4342TIP3   OH234584   3.349   2.850   0.702 -0.0520  0.2423  0.2830
 4342TIP3    H134585   3.293   2.854   0.624 -1.2864 -2.9728  0.8388
 4342TIP3    H234586   3.291   2.874   0.774  0.1408 -0.0326  0.5332
 4343TIP3   OH234587   0.026   2.521   1.355  0.2273  0.3383  0.3790
 4343TIP3    H134588   0.004   2.451   1.416 -0.5581 -0.1545 -0.4390
 4343TIP3    H234589  -0.058   2.564   1.337  0.0744 -0.7602 -1.8421
 4344TIP3   OH234590   3.140   2.465   7.449 -0.1185  0.5915  0.2784
 4344TIP3    H134591   3.091   2.427   7.376  1.2402  1.0071 -0.8996
 4344TIP3    H234592   3.145   2.558   7.430 -0.2237  0.7954  1.2029
 4345TIP3   OH234593   6.676   4.482   8.447  0.3321  0.0922 -0.1017
 4345TIP3    H134594   6.584   4.502   8.462  0.4372 -0.1048  0.9150
 4345TIP3    H234595   6.705   4.442   8.529  1.4400  0.6082 -0.2244
 4346TIP3   OH234596   5.701   3.959   7.034 -0.0093  0.3027 -0.6002
 4346TIP3    H134597   5.651   4.040   7.039  0.3910  0.6713 -1.9816
 4346TIP3    H234598   5.654   3.906   6.969  0.7274  0.1919 -1.0602
 4347TIP3   OH234599   3.350   0.018   8.364 -0.1282 -0.1160  0.3900
 4347TIP3    H134600   3.305   0.032   8.447 -0.8681 -0.4421  0.0601
 4347TIP3    H234601   3.409  -0.056   8.380 -3.4442 -3.2424 -0.4508
 4348TIP3   OH234602   3.540   4.018   0.325  0.3754 -0.0105 -0.0935
 4348TIP3    H134603   3.512   3.928   0.307  1.2630 -0.2755 -0.1827
 4348TIP3    H234604   3.591   4.044   0.248  0.3439  0.4808  0.0451
 4349TIP3   OH234605   4.941   5.024   6.883  0.2478 -0.0329 -0.8914
 4349TIP3    H134606   4.855   5.017   6.840 -1.0889 -0.6508  1.7095
 4349TIP3    H234607   4.983   4.940   6.867 -0.4867 -0.4838 -0.5016
 4350TIP3   OH234608   4.445   1.659   1.199  0.2759 -0.6586  0.6930
 4350TIP3    H134609   4.373   1.713   1.166  0.8689 -0.0418  0.3793
 4350TIP3    H234610   4.511   1.723   1.228  0.7288 -1.2153  0.8925
 4351TIP3   OH234611   5.339   1.282   7.380 -0.2089 -0.4420 -0.1706
 4351TIP3    H134612   5.357   1.250   7.469 -0.1275  2.8418  1.1624
 4351TIP3    H234613   5.244   1.296   7.379 -0.2231 -0.5682 -0.6426
 4352TIP3   OH234614   1.662   5.347   6.429 -0.0167 -0.0373 -0.4623
 4352TIP3    H134615   1.605   5.279   6.464  1.0591 -0.3908  0.6614
 4352TIP3    H234616   1.642   5.424   6.481  0.8157 -0.2782  0.2404
 4353TIP3   OH234617   2.001   4.766   8.490 -0.7840 -0.5901 -0.0750
 4353TIP3    H134618   2.091   4.797   8.482 -1.3583  1.2864  0.0792
 4353TIP3    H234619   1.964   4.775   8.402 -1.2895  0.3569  0.2121
 4354TIP3   OH234620   5.746   5.426   1.105  0.4488  0.0052  0.4381
 4354TIP3    H134621   5.756   5.445   1.198  2.4072  1.3810 -0.0021
 4354TIP3    H234622   5.806   5.487   1.061 -1.0847  0.0287 -1.7922
 4355TIP3   OH234623   3.523   5.025   0.215  0.3690  0.0790  0.2099
 4355TIP3    H134624   3.579   4.958   0.253  0.1824 -1.0306 -1.3412
 4355TIP3    H234625   3.561   5.108   0.243  1.6047 -0.6713  0.8109
 4356TIP3   OH234626   3.011   2.851   1.559  0.3230 -0.2913  0.0563
 4356TIP3    H134627   2.942   2.787   1.548  0.0749 -0.8618  3.5965
 4356TIP3    H234628   2.980   2.928   1.511 -0.9481 -1.7106 -1.5147
 4357TIP3   OH234629   5.139   3.234   1.282  0.0862  0.3736 -0.1090
 4357TIP3    H134630   5.220   3.259   1.327 -0.1658  0.2495  0.4161
 4357TIP3    H234631   5.135   3.293   1.206 -0.1841  1.5194  0.7655
 4358TIP3   OH234632   4.316   2.171   7.092 -0.0706 -0.4926  0.2239
 4358TIP3    H134633   4.273   2.255   7.081  0.1335 -0.2138  1.4231
 4358TIP3    H234634   4.349   2.172   7.182 -0.3734 -1.9879  0.3823
 4359TIP3   OH234635   5.801   3.092   8.019  0.2180  0.1731 -0.1627
 4359TIP3    H134636   5.764   3.047   8.095  0.1874 -2.2966 -1.5179
 4359TIP3    H234637   5.872   3.145   8.055  0.8112 -1.6264  1.4982
 4360TIP3   OH234638   2.646   6.723   8.566 -0.9253  0.1051  0.0491
 4360TIP3    H134639   2.671   6.710   8.474  2.3063 -0.0005  0.8008
 4360TIP3    H234640   2.579   6.657   8.583 -0.8954 -0.5033 -1.9727
 4361TIP3   OH234641   2.224   0.504   7.517 -0.3159 -0.1051  0.6788
 4361TIP3    H134642   2.261   0.496   7.605  0.9164  1.2073  0.3061
 4361TIP3    H234643   2.137   0.465   7.524 -1.7191  3.0822  3.3834
 4362TIP3   OH234644   1.756   4.812   6.891  0.0018 -0.3080 -0.4637
 4362TIP3    H134645   1.662   4.804   6.873 -0.6126  1.6113  1.5020
 4362TIP3    H234646   1.762   4.874   6.963  2.8981  0.9124 -1.5747
 4363TIP3   OH234647   1.954   3.428   8.778 -0.8856 -0.5679 -0.1050
 4363TIP3    H134648   1.990   3.516   8.768  0.8789 -1.1416  0.8089
 4363TIP3    H234649   1.861   3.442   8.794 -0.1064  1.4653  4.0346
 4364TIP3   OH234650   0.071   0.251   6.649  0.4656 -0.1735 -0.7001
 4364TIP3    H134651   0.068   0.324   6.587  1.4784  0.4801 -0.0217
 4364TIP3    H234652   0.112   0.180   6.600  0.5993  0.1047 -1.0018
 4365TIP3   OH234653   5.752   3.852   7.306 -0.5317  0.0650  0.3393
 4365TIP3    H134654   5.734   3.894   7.222  0.1561  0.8731  0.5767
 4365TIP3    H234655   5.703   3.905   7.369 -2.8445 -1.8248  0.2539
 4366TIP3   OH234656   4.683   3.902   0.615 -0.8047 -0.2622  0.3839
 4366TIP3    H134657   4.656   3.968   0.678 -0.7889  0.4108 -0.2898
 4366TIP3    H234658   4.716   3.829   0.668  1.0086  1.0424  1.1495
 4367TIP3   OH234659   5.939   4.006   1.971  0.3629 -0.2039  0.3065
 4367TIP3    H134660   6.014   4.000   2.030  0.2595  1.4443  0.6703
 4367TIP3    H234661   5.961   3.950   1.897  1.1062 -1.2182  1.2786
 4368TIP3   OH234662   2.380   2.812   7.204  0.3373  0.1253 -0.0130
 4368TIP3    H134663   2.471   2.806   7.175  0.3195  1.2362 -0.3729
 4368TIP3    H234664   2.355   2.902   7.183 -0.9541 -0.2679 -0.2342
 4369TIP3   OH234665   6.526   3.855   0.626 -0.0885  0.4695 -0.0461
 4369TIP3    H134666   6.582   3.777   0.629 -1.3081 -0.4205  1.0112
 4369TIP3    H234667   6.561   3.912   0.694  0.5961  0.7141 -0.5885
 4370TIP3   OH234668   0.264   1.573   0.445  0.2573 -0.5184 -0.0506
 4370TIP3    H134669   0.256   1.540   0.355 -1.6300 -0.1125 -0.0738
 4370TIP3    H234670   0.229   1.662   0.441 -2.8076 -1.5180  1.6100
 4371TIP3   OH234671   3.441   3.708   8.202  0.5939 -0.1462  0.0043
 4371TIP3    H134672   3.395   3.790   8.182 -2.3148 -0.3816  4.3780
 4371TIP3    H234673   3.523   3.736   8.244 -0.2903  0.6372  1.2927
 4372TIP3   OH234674   5.961   3.445   7.756  0.2420  0.0206  0.3497
 4372TIP3    H134675   6.006   3.466   7.674  1.2083 -1.3901  0.4899
 4372TIP3    H234676   5.981   3.353   7.771  0.1199  0.2709  2.2078
 4373TIP3   OH234677   5.870   1.211   0.276  0.4280 -0.2548 -0.6152
 4373TIP3    H134678   5.927   1.286   0.261 -0.0122 -0.0070 -1.0800
 4373TIP3    H234679   5.826   1.230   0.359  0.4970 -0.1117 -0.6114
 4374TIP3   OH234680   1.312   1.006   8.456  0.6706 -0.1042 -0.3803
 4374TIP3    H134681   1.227   1.014   8.498  0.2679 -0.3733 -1.1117
 4374TIP3    H234682   1.316   0.914   8.427  0.5240  0.2801 -1.7241
 4375TIP3   OH234683   3.075   5.579   8.232  0.1556  0.0996  0.0711
 4375TIP3    H134684   3.085   5.619   8.319  1.1972 -1.5694  0.7792
 4375TIP3    H234685   2.987   5.542   8.232  0.4025 -0.5235  0.7367
 4376TIP3   OH234686   6.420   1.421   2.326  0.1837 -0.5592 -0.3323
 4376TIP3    H134687   6.495   1.481   2.323  0.7607 -1.2096  0.5126
 4376TIP3    H234688   6.366   1.447   2.251  1.1353  0.0680 -0.8318
 4377TIP3   OH234689   3.818   2.628   8.680  0.1315 -0.3213 -0.1884
 4377TIP3    H134690   3.873   2.577   8.620 -0.8220 -0.9582 -0.5379
 4377TIP3    H234691   3.785   2.565   8.743 -0.1766  0.0611  0.0404
 4378TIP3   OH234692   5.265   5.606   7.279 -0.0132 -0.1382 -0.2555
 4378TIP3    H134693   5.317   5.683   7.252  0.6402 -0.5095 -0.0852
 4378TIP3    H234694   5.247   5.622   7.372 -1.8099  0.8844 -0.7412
 4379TIP3   OH234695   5.519   3.596   8.571 -0.0245 -0.1541 -0.1673
 4379TIP3    H134696   5.538   3.687   8.548  0.4387  0.1834  1.4421
 4379TIP3    H234697   5.425   3.588   8.560  0.0154  0.3410 -0.9289
 4380TIP3   OH234698   2.715   5.654   0.742 -0.3347 -0.1750 -0.5432
 4380TIP3    H134699   2.705   5.635   0.836  2.9288 -0.2347 -0.1113
 4380TIP3    H234700   2.716   5.568   0.700 -2.0002 -0.1435 -0.7419
 4381TIP3   OH234701   1.091   2.498   8.493 -0.4039 -0.0189  0.2390
 4381TIP3    H134702   1.115   2.591   8.500 -1.9332  0.3507  0.9196
 4381TIP3    H234703   1.040   2.493   8.412 -0.6196 -0.1887  0.3857
 4382TIP3   OH234704   1.872   5.703   8.516  0.2037  0.2312 -0.4432
 4382TIP3    H134705   1.871   5.637   8.585  1.1244 -1.2002 -1.7345
 4382TIP3    H234706   1.938   5.766   8.544 -0.3953  0.4066  0.6131
 4383TIP3   OH234707   4.709   6.297   8.185 -0.0104  0.1358  1.1443
 4383TIP3    H134708   4.679   6.281   8.095 -1.0111 -2.5877  1.8362
 4383TIP3    H234709   4.752   6.382   8.182 -2.2266  1.3054 -1.3599
 4384TIP3   OH234710   1.432   3.859   7.657  0.4576  0.0514  0.1205
 4384TIP3    H134711   1.410   3.931   7.599  0.3105  0.6851  0.9495
 4384TIP3    H234712   1.355   3.849   7.713  1.6303  1.3375  2.0908
 4385TIP3   OH234713   5.060   1.869   0.851  0.3278 -0.0982 -0.2385
 4385TIP3    H134714   5.028   1.887   0.940  1.6606  0.8056  0.0821
 4385TIP3    H234715   5.113   1.946   0.829  1.7773 -1.2626 -0.9619
 4386TIP3   OH234716   3.230   4.785   6.277 -0.3837  0.4955  0.0297
 4386TIP3    H134717   3.231   4.697   6.316 -3.0171 -0.1818 -1.2357
 4386TIP3    H234718   3.138   4.805   6.266  0.2053  2.5869 -1.6474
 4387TIP3   OH234719   3.153   5.992   7.354  0.8313 -0.5260  0.4379
 4387TIP3    H134720   3.245   5.984   7.380  0.5877  0.5233  1.7351
 4387TIP3    H234721   3.124   5.901   7.342  1.8601 -0.8963  0.6114
 4388TIP3   OH234722   2.826   5.509   2.177  0.0740 -0.0845 -0.6557
 4388TIP3    H134723   2.821   5.427   2.226  2.3538 -0.1789 -0.5173
 4388TIP3    H234724   2.906   5.551   2.207 -0.7617  1.9892 -1.0984
 4389TIP3   OH234725   2.455   5.283   0.842 -0.2773  0.0536 -0.0919
 4389TIP3    H134726   2.523   5.263   0.906  0.4010 -0.3991 -0.9323
 4389TIP3    H234727   2.465   5.377   0.824 -0.4080  0.1596  0.3835
 4390TIP3   OH234728   2.359   6.003   7.692  0.6064  0.1477 -0.2573
 4390TIP3    H134729   2.305   6.070   7.734  0.7566  1.3098 -1.8270
 4390TIP3    H234730   2.433   5.991   7.752 -1.5656 -1.9128  2.2194
 4391TIP3   OH234731   5.526   6.325   0.091 -0.3407  0.0334 -0.4880
 4391TIP3    H134732   5.522   6.260   0.162  0.7758  0.3300 -0.1312
 4391TIP3    H234733   5.616   6.321   0.060 -0.7151  0.1881 -1.6479
 4392TIP3   OH234734   6.244   6.637   7.382  0.1417  0.5166  0.9412
 4392TIP3    H134735   6.196   6.582   7.320 -1.3317  0.7482  1.8324
 4392TIP3    H234736   6.334   6.605   7.377 -0.5590 -1.6247  1.0380
 4393TIP3   OH234737   4.982   1.218   0.857  0.4291  0.6765 -0.1874
 4393TIP3    H134738   4.951   1.275   0.786  0.9667  1.8824  0.5124
 4393TIP3    H234739   5.004   1.278   0.928  0.8307 -0.4337  0.6541
 4394TIP3   OH234740   0.653   0.409   7.225  0.3704 -0.1157  0.4200
 4394TIP3    H134741   0.735   0.397   7.177 -0.3540 -0.6454 -0.7319
 4394TIP3    H234742   0.639   0.503   7.226  0.7172 -0.0611  0.1430
 4395TIP3   OH234743   2.670   0.811   8.100 -0.7422  0.3639  0.0310
 4395TIP3    H134744   2.587   0.797   8.054  0.6480  1.5787 -3.1278
 4395TIP3    H234745   2.663   0.901   8.133 -1.4772 -0.2898  1.8192
 4396TIP3   OH234746   1.944   6.326   6.713 -1.0135 -0.3943 -0.1585
 4396TIP3    H134747   1.933   6.408   6.761 -0.2887  0.7218 -1.8053
 4396TIP3    H234748   1.865   6.276   6.734 -2.0239  1.1901  0.0274
 4397TIP3   OH234749   2.587   2.937   7.515  0.1758  0.1727 -0.0777
 4397TIP3    H134750   2.583   2.984   7.432  0.7220 -0.0293 -0.2253
 4397TIP3    H234751   2.675   2.956   7.549  1.5050 -2.8989 -1.4547
 4398TIP3   OH234752   4.095   3.890   8.061  0.2883  0.3231  0.1050
 4398TIP3    H134753   4.182   3.924   8.039  0.0501  0.1056 -1.3187
 4398TIP3    H234754   4.105   3.795   8.058  0.0167  0.2973 -0.0341
 4399TIP3   OH234755   3.693   4.459   6.732 -0.0359  0.2173  0.2885
 4399TIP3    H134756   3.628   4.391   6.716 -0.6039  1.0588 -1.2105
 4399TIP3    H234757   3.750   4.456   6.655 -1.5376  2.9838 -1.1131
 4400TIP3   OH234758   2.642   4.465   1.614  0.3671  0.0094 -0.2575
 4400TIP3    H134759   2.713   4.508   1.566  1.8343 -2.2045 -0.2401
 4400TIP3    H234760   2.589   4.425   1.545  1.9081 -2.3157 -0.2407
 4401TIP3   OH234761   4.195   4.335   7.096  0.2107 -0.0124  0.1998
 4401TIP3    H134762   4.187   4.387   7.017 -2.4217  0.2890  0.5752
 4401TIP3    H234763   4.151   4.387   7.163  0.6043 -1.1836  1.4065
 4402TIP3   OH234764   2.154   1.413   8.732  0.2940 -0.0105 -0.3278
 4402TIP3    H134765   2.147   1.327   8.690  1.2855 -0.2517 -0.0262
 4402TIP3    H234766   2.222   1.458   8.682  0.0971  0.4298 -0.1978
 4403TIP3   OH234767   1.599   4.443   0.760  1.0449  0.5598 -0.3142
 4403TIP3    H134768   1.533   4.512   0.756 -1.2162 -1.4911 -0.7072
 4403TIP3    H234769   1.604   4.419   0.852  0.3662 -0.0100 -0.4105
 4404TIP3   OH234770   5.422   3.158   1.176  0.3235 -0.0824 -0.0140
 4404TIP3    H134771   5.455   3.238   1.135  3.2223 -1.7507 -1.2854
 4404TIP3    H234772   5.328   3.172   1.184  0.0031  1.7850 -4.1839
 4405TIP3   OH234773   4.247   5.196   0.874 -0.0407  0.4124 -0.1028
 4405TIP3    H134774   4.237   5.199   0.779  0.8651 -1.8982 -0.3317
 4405TIP3    H234775   4.332   5.154   0.888 -0.5468 -0.0940  1.7265
 4406TIP3   OH234776   6.078   3.350   1.720  0.1370 -0.4751  0.3110
 4406TIP3    H134777   6.037   3.325   1.803 -1.1973 -1.9285 -0.7190
 4406TIP3    H234778   6.169   3.367   1.742 -0.7176  1.7560  2.5030
 4407TIP3   OH234779   2.003   3.369   7.720 -0.0804  0.5144 -0.1303
 4407TIP3    H134780   2.006   3.352   7.814  1.4312 -0.4964 -0.3199
 4407TIP3    H234781   2.002   3.464   7.712 -0.4873  0.6092  0.8967
 4408TIP3   OH234782   0.903   0.595   6.835  0.2560 -0.5601 -0.1048
 4408TIP3    H134783   0.991   0.558   6.836  0.6455  0.3393 -0.6131
 4408TIP3    H234784   0.867   0.569   6.750  0.0215 -0.9278  0.1028
 4409TIP3   OH234785   3.314   6.062   1.039 -0.3097 -0.7165 -0.1316
 4409TIP3    H134786   3.321   6.107   1.123  0.9848 -0.9275 -0.0963
 4409TIP3    H234787   3.305   5.969   1.062 -1.2006 -0.6653 -0.2264
 4410TIP3   OH234788   6.664   1.410   2.589  0.0316  0.6161 -1.1085
 4410TIP3    H134789   6.745   1.369   2.619 -0.4091  0.3410 -0.2604
 4410TIP3    H234790   6.692   1.493   2.551  0.6614  0.7958 -0.2859
 4411TIP3   OH234791   1.803   4.595   0.611 -0.2789  0.3318 -0.0632
 4411TIP3    H134792   1.744   4.626   0.542 -1.6444 -0.5678  0.6444
 4411TIP3    H234793   1.745   4.550   0.673  0.8420  1.4555  1.8790
 4412TIP3   OH234794   3.041   0.161   6.903 -0.7559 -0.3899  0.0281
 4412TIP3    H134795   3.046   0.111   6.821  0.6928  0.3320 -0.3581
 4412TIP3    H234796   3.092   0.240   6.886 -0.8344  0.0007  1.4721
 4413TIP3   OH234797   1.958   6.268   7.219  0.1656  0.6673 -0.2301
 4413TIP3    H134798   1.991   6.328   7.286 -0.2681  0.2351  0.3826
 4413TIP3    H234799   1.994   6.183   7.244 -1.1776  0.2331  0.2979
 4414TIP3   OH234800   5.357   3.752   6.979 -0.4707 -1.0568 -0.2221
 4414TIP3    H134801   5.440   3.775   6.937 -0.0089 -0.4367  0.9692
 4414TIP3    H234802   5.363   3.791   7.066 -1.9917 -1.0722 -0.0854
 4415TIP3   OH234803   0.741   6.173   7.474  0.2036 -0.5021 -0.8169
 4415TIP3    H134804   0.735   6.117   7.396  1.2036 -0.3826 -0.9948
 4415TIP3    H234805   0.758   6.111   7.546 -1.3831 -0.6789 -0.5723
 4416TIP3   OH234806   2.286   2.888   0.524 -0.5085  0.2601 -0.4089
 4416TIP3    H134807   2.319   2.847   0.605 -0.1999  2.1093  0.4458
 4416TIP3    H234808   2.335   2.845   0.454 -1.0518 -1.6565  0.3112
 4417TIP3   OH234809   0.609   2.589   0.395 -0.2175  0.6323 -0.5070
 4417TIP3    H134810   0.677   2.604   0.460 -1.4381  0.8487  0.7578
 4417TIP3    H234811   0.655   2.551   0.320  1.0909 -0.5687  0.8490
 4418TIP3   OH234812   1.980   6.146   7.481 -0.2183 -0.1334  0.0506
 4418TIP3    H134813   2.036   6.218   7.511  0.1458 -0.7579  0.9033
 4418TIP3    H234814   2.020   6.067   7.518  0.2493 -0.9742 -2.0771
 4419TIP3   OH234815   1.324   0.019   7.263 -0.1617 -0.0674 -0.0228
 4419TIP3    H134816   1.231   0.006   7.246 -0.5998  2.7843 -0.3056
 4419TIP3    H234817   1.334  -0.002   7.356 -0.5628 -2.5919 -0.4956
 4420TIP3   OH234818   3.108   1.208   0.353 -0.0314 -0.8416 -0.4992
 4420TIP3    H134819   3.168   1.170   0.416 -0.0757 -0.1757 -0.0486
 4420TIP3    H234820   3.123   1.158   0.272  0.1673 -1.5564 -0.0262
 4421TIP3   OH234821   6.117   0.829   1.995 -0.3052  0.4040  0.1676
 4421TIP3    H134822   6.089   0.813   2.085 -0.9396  1.5801  0.1886
 4421TIP3    H234823   6.093   0.750   1.948 -1.1234  0.2889  0.7700
 4422TIP3   OH234824   3.306   0.076   6.490  0.2570 -1.0078  0.0444
 4422TIP3    H134825   3.215   0.091   6.515  0.4669  0.3664  0.0255
 4422TIP3    H234826   3.304  -0.009   6.445 -1.6702  0.5220 -3.1353
 4423TIP3   OH234827   2.372   5.120   7.936  0.5383  0.1256  0.0745
 4423TIP3    H134828   2.354   5.211   7.961  0.5556  0.0142  0.5029
 4423TIP3    H234829   2.285   5.082   7.921  0.3380 -0.4609  2.3176
 4424TIP3   OH234830   1.739   3.002   1.108 -0.5064  0.9479 -0.3857
 4424TIP3    H134831   1.775   3.013   1.019 -0.2231  0.4684 -0.3350
 4424TIP3    H234832   1.646   2.986   1.094 -0.2024 -0.7180 -0.7087
 4425TIP3   OH234833   1.754   0.291   8.002 -0.3671  0.1235  0.0252
 4425TIP3    H134834   1.703   0.357   7.955  0.2588  0.9286  0.4633
 4425TIP3    H234835   1.830   0.275   7.946 -0.5160 -0.2302 -0.0794
 4426TIP3   OH234836   0.364   4.156   0.202 -0.1804 -0.0228  0.0980
 4426TIP3    H134837   0.410   4.240   0.205  0.3940 -0.2545 -1.3505
 4426TIP3    H234838   0.296   4.163   0.269  0.4819  1.2249  0.6557
 4427TIP3   OH234839   2.356   5.685   7.177  0.0717  0.3488  0.2119
 4427TIP3    H134840   2.398   5.655   7.096 -0.0070  2.2795 -0.5883
 4427TIP3    H234841   2.421   5.743   7.218 -1.2728  2.4053 -0.4230
 4428TIP3   OH234842   6.596   6.621   1.420 -0.4570 -0.1783  0.0288
 4428TIP3    H134843   6.561   6.599   1.507 -1.6968 -0.1007 -0.4332
 4428TIP3    H234844   6.675   6.673   1.439 -0.5351 -0.4256  1.1082
 4429TIP3   OH234845   6.233   0.500   8.874 -0.6590 -0.0419 -0.2569
 4429TIP3    H134846   6.150   0.517   8.917  0.4120 -0.1367  1.9838
 4429TIP3    H234847   6.258   0.412   8.903 -0.2614 -0.4698 -1.7716
 4430TIP3   OH234848   2.730   1.212   0.691 -0.1240  0.5549 -0.2246
 4430TIP3    H134849   2.658   1.150   0.689  0.7258 -0.4723  0.2573
 4430TIP3    H234850   2.766   1.211   0.602  1.0077 -1.0356  0.2064
 4431TIP3   OH234851   1.753   3.512   1.414  0.0114 -0.2247  0.0612
 4431TIP3    H134852   1.767   3.588   1.358 -0.2936 -1.3877 -1.6942
 4431TIP3    H234853   1.825   3.453   1.392  0.7403 -0.1325  2.0280
 4432TIP3   OH234854   2.877   5.121   0.692  1.1728  0.0273  0.0802
 4432TIP3    H134855   2.794   5.125   0.644  0.5870 -1.8846  0.8127
 4432TIP3    H234856   2.930   5.058   0.642  1.6865  0.2605  0.3261
 4433TIP3   OH234857   0.811   3.917   7.157  0.3914  0.1290  0.0343
 4433TIP3    H134858   0.793   3.964   7.238 -0.0318  0.9290 -0.5022
 4433TIP3    H234859   0.902   3.939   7.136  1.0414 -1.3850  1.1146
 4434TIP3   OH234860   4.832   2.323   7.920  0.0143  0.3040  0.0581
 4434TIP3    H134861   4.864   2.367   7.841 -0.2977  0.3668 -0.0319
 4434TIP3    H234862   4.911   2.282   7.958  0.6009  2.1054  0.9108
 4435TIP3   OH234863   4.999   4.863   6.611  0.4817 -0.4555  0.1112
 4435TIP3    H134864   5.075   4.921   6.623 -0.2485  0.4693  0.3405
 4435TIP3    H234865   4.935   4.893   6.676 -0.1996 -1.0255 -0.2846
 4436TIP3   OH234866   0.836   1.146   0.776 -0.0975 -0.3747  0.3189
 4436TIP3    H134867   0.911   1.204   0.793 -0.1911 -0.5240  1.2860
 4436TIP3    H234868   0.872   1.076   0.721 -0.3271  1.3806 -2.2132
 4437TIP3   OH234869   5.068   3.988   8.406 -0.3774  0.4979 -0.4290
 4437TIP3    H134870   5.045   3.897   8.388  2.3371 -0.0516 -1.6500
 4437TIP3    H234871   5.025   4.038   8.337 -0.8684 -0.0156 -0.5000
 4438TIP3   OH234872   4.812   1.235   2.531  0.3688  0.4326  0.5741
 4438TIP3    H134873   4.883   1.243   2.467  1.4797  0.6677  1.7915
 4438TIP3    H234874   4.781   1.324   2.544  2.7820  1.0442  3.1715
 4439TIP3   OH234875   6.546   5.633   0.391  0.5249  0.6268 -0.2220
 4439TIP3    H134876   6.615   5.648   0.456 -0.8177 -1.4056  1.8188
 4439TIP3    H234877   6.580   5.561   0.337  0.2866  0.0318  0.4046
 4440TIP3   OH234878   3.627   0.762   8.355 -0.1277  0.0830 -0.4819
 4440TIP3    H134879   3.623   0.670   8.327 -1.3420 -0.0194 -0.0475
 4440TIP3    H234880   3.701   0.799   8.306  0.4525 -1.1479 -0.5809
 4441TIP3   OH234881   5.073   1.558   1.414 -0.1355  0.2895  0.8875
 4441TIP3    H134882   5.135   1.604   1.470  1.4943  1.9137 -2.0023
 4441TIP3    H234883   5.127   1.494   1.367 -0.9568  0.5578 -0.4611
 4442TIP3   OH234884   6.229   3.574   1.935  0.1989 -0.0740  0.2622
 4442TIP3    H134885   6.304   3.529   1.896  0.4908 -0.4920  1.2594
 4442TIP3    H234886   6.199   3.514   2.004 -0.8183  0.2604  0.1229
 4443TIP3   OH234887   0.149   0.637   0.190 -0.5290 -0.1471 -0.2306
 4443TIP3    H134888   0.201   0.574   0.240 -1.5794  0.2436  1.4415
 4443TIP3    H234889   0.156   0.719   0.238 -2.4390 -0.0182 -0.0769
 4444TIP3   OH234890   1.263   2.816   2.253  0.0878 -0.4135 -0.2688
 4444TIP3    H134891   1.339   2.772   2.214  2.0294  1.6021  0.9969
 4444TIP3    H234892   1.243   2.888   2.192  0.8212  0.5482  0.5906
 4445TIP3   OH234893   6.567   3.229   1.132 -0.4050 -0.1467  0.0494
 4445TIP3    H134894   6.497   3.294   1.138 -0.7682 -0.5135 -0.1520
 4445TIP3    H234895   6.537   3.169   1.064  0.0129 -0.4209  0.1074
 4446TIP3   OH234896   2.727   2.827   8.503 -0.4089 -0.1996  0.3068
 4446TIP3    H134897   2.742   2.891   8.572 -0.7604  1.6463 -1.2535
 4446TIP3    H234898   2.791   2.757   8.520  0.3406  0.8075  1.7561
 4447TIP3   OH234899   1.939   1.114   2.040 -0.2942 -0.9297 -0.3019
 4447TIP3    H134900   1.910   1.040   1.988 -0.6501 -0.8373 -0.2404
 4447TIP3    H234901   2.031   1.126   2.018 -0.4784 -0.8057 -1.0125
 4448TIP3   OH234902   4.210   5.399   1.391  0.4492 -0.2815  0.4778
 4448TIP3    H134903   4.245   5.479   1.351 -0.9906  0.6537  1.0377
 4448TIP3    H234904   4.126   5.425   1.429 -0.7521 -2.3903 -0.5731
 4449TIP3   OH234905   3.043   3.526   8.044 -0.0909  0.0605 -0.0599
 4449TIP3    H134906   3.024   3.521   8.138 -2.5195  0.0402 -0.4809
 4449TIP3    H234907   2.978   3.469   8.003  1.2057 -0.2879 -1.7557
 4450TIP3   OH234908   3.238   2.690   1.661 -0.1015 -0.6233  0.1136
 4450TIP3    H134909   3.184   2.641   1.723 -1.0254 -0.0364 -0.2015
 4450TIP3    H234910   3.175   2.745   1.613  0.6586 -0.6418 -0.9404
 4451TIP3   OH234911   2.863   5.301   8.740  0.1232 -0.1591 -0.0692
 4451TIP3    H134912   2.820   5.216   8.736  1.5504 -0.8620 -1.4502
 4451TIP3    H234913   2.876   5.326   8.648 -0.2567  1.5639  0.3056
 4452TIP3   OH234914   0.593   6.447   8.457 -0.2260 -0.2891 -0.1268
 4452TIP3    H134915   0.665   6.402   8.413 -0.5481 -1.0807  0.1373
 4452TIP3    H234916   0.518   6.435   8.398 -0.6623 -1.3616  0.6182
 4453TIP3   OH234917   6.393   1.422   0.478  0.1882 -0.0576 -0.0971
 4453TIP3    H134918   6.466   1.472   0.514 -1.2728  1.4480  0.8966
 4453TIP3    H234919   6.336   1.404   0.552 -0.7661 -0.6585 -0.9429
 4454TIP3   OH234920   2.116   3.247   7.280  0.3738 -0.2830  0.1618
 4454TIP3    H134921   2.042   3.194   7.310  0.4106 -0.0829  0.6146
 4454TIP3    H234922   2.167   3.188   7.225  0.0623 -0.5256  0.1307
 4455TIP3   OH234923   5.122   1.497   0.973 -0.2185 -0.2748 -0.0372
 4455TIP3    H134924   5.034   1.535   0.979 -0.5030 -0.9824  0.3042
 4455TIP3    H234925   5.133   1.477   0.880 -0.4116 -0.1789 -0.0809
 4456TIP3   OH234926   0.799   0.683   0.735 -0.7233  0.2519  0.7243
 4456TIP3    H134927   0.730   0.714   0.677 -1.3156 -0.7952  0.8387
 4456TIP3    H234928   0.796   0.587   0.726  0.2861  0.1632  1.2139
 4457TIP3   OH234929   4.467   5.012   0.769  0.7766  0.1051  0.5218
 4457TIP3    H134930   4.512   5.025   0.685 -0.4872 -1.6455 -0.5092
 4457TIP3    H234931   4.513   4.939   0.810 -1.0756 -1.8166 -0.6207
 4458TIP3   OH234932   1.360   6.449   0.326  0.1747  0.0670  0.2057
 4458TIP3    H134933   1.444   6.494   0.312 -0.1492  0.6555  0.1440
 4458TIP3    H234934   1.370   6.366   0.279 -0.0712  1.0473 -1.6571
 4459TIP3   OH234935   4.516   2.386   8.775 -0.4053 -0.1497  0.4098
 4459TIP3    H134936   4.496   2.366   8.683  2.3523  0.7197 -0.4564
 4459TIP3    H234937   4.482   2.474   8.788  3.4647  1.8314 -1.4189
 4460TIP3   OH234938   3.599   2.813   1.344  0.0211 -0.6235 -0.1696
 4460TIP3    H134939   3.532   2.788   1.407 -0.4595 -1.7007 -1.0753
 4460TIP3    H234940   3.606   2.908   1.353  0.0824 -0.7698  1.5976
 4461TIP3   OH234941   4.716   5.098   8.401 -0.0376 -0.7911  0.1761
 4461TIP3    H134942   4.698   5.004   8.412  1.0999 -1.2989 -1.8093
 4461TIP3    H234943   4.810   5.102   8.382 -0.4801  0.4885 -2.0901
 4462TIP3   OH234944   6.080   0.719   0.983 -0.7195 -0.3221  0.2536
 4462TIP3    H134945   6.114   0.633   1.009 -0.5095 -0.0806  0.7937
 4462TIP3    H234946   6.093   0.723   0.888  2.7336  0.5975  0.6417
 4463TIP3   OH234947   2.472   0.475   0.157  0.4592 -0.1292  0.2052
 4463TIP3    H134948   2.548   0.500   0.210  0.1009  0.4257  0.4687
 4463TIP3    H234949   2.396   0.496   0.212  0.1016 -0.2586 -0.2300
 4464TIP3   OH234950   2.987   4.605   1.718  0.3690 -0.2893  0.0148
 4464TIP3    H134951   3.001   4.517   1.754  0.2518  0.1735  1.2574
 4464TIP3    H234952   2.898   4.627   1.744  0.2046 -0.0162 -0.7771
 4465TIP3   OH234953   1.697   5.006   1.777 -0.2973 -0.2355 -0.1672
 4465TIP3    H134954   1.665   4.916   1.789 -1.9812  0.4401  0.7386
 4465TIP3    H234955   1.621   5.054   1.744  0.0474  1.2344  1.1077
 4466TIP3   OH234956   1.270   6.140   0.742  0.0656 -0.0090  0.3643
 4466TIP3    H134957   1.265   6.160   0.836 -0.4810  0.2026  0.2945
 4466TIP3    H234958   1.262   6.225   0.699 -2.1181 -0.2988  0.0660
 4467TIP3   OH234959   3.013   6.274   6.660 -0.0572  0.0454  0.0468
 4467TIP3    H134960   3.025   6.307   6.749  3.3708  0.8267 -0.5660
 4467TIP3    H234961   3.097   6.291   6.617 -1.1623 -1.4922 -2.9693
 4468TIP3   OH234962   5.636   0.178   8.430  0.7223  0.0586 -0.2686
 4468TIP3    H134963   5.686   0.108   8.387  0.3376 -1.4581  1.5996
 4468TIP3    H234964   5.639   0.155   8.523  1.6350  3.2402  0.6131
 4469TIP3   OH234965   0.109   4.934   1.245  0.6145 -0.5042  0.5618
 4469TIP3    H134966   0.161   4.855   1.227 -0.2728 -0.7923 -0.8914
 4469TIP3    H234967   0.022   4.901   1.264  0.4241  0.0928  0.7323
 4470TIP3   OH234968   5.950   2.738   1.850 -0.0861 -0.1769  0.1528
 4470TIP3    H134969   5.935   2.662   1.906  1.7134  1.2670  2.8140
 4470TIP3    H234970   5.870   2.789   1.856 -0.5598 -0.8813 -0.0417
 4471TIP3   OH234971   1.490   1.736   2.082  0.2889  0.6289 -0.0980
 4471TIP3    H134972   1.541   1.789   2.144  1.2829  0.7686 -1.0041
 4471TIP3    H234973   1.436   1.680   2.137 -1.3272  3.0111  0.9342
 4472TIP3   OH234974   1.799   3.090   0.848  0.3613 -0.1760 -0.0273
 4472TIP3    H134975   1.869   3.068   0.786 -1.3159 -0.6751 -1.8611
 4472TIP3    H234976   1.762   3.171   0.814 -0.5772 -0.4408  0.3299
 4473TIP3   OH234977   2.648   1.682   1.293 -0.1872 -0.1246 -0.6133
 4473TIP3    H134978   2.688   1.687   1.206 -2.3076  0.4865 -1.6096
 4473TIP3    H234979   2.648   1.773   1.324 -0.8454 -0.1081 -0.6539
 4474TIP3   OH234980   4.112   3.607   1.235  0.1773  0.1265 -0.0696
 4474TIP3    H134981   4.057   3.546   1.186 -0.6473  0.7557  0.0520
 4474TIP3    H234982   4.185   3.626   1.177 -0.1874 -0.0507 -0.5896
 4475TIP3   OH234983   4.190   4.515   0.230  0.3058 -0.2845 -0.1856
 4475TIP3    H134984   4.256   4.518   0.159 -1.2069 -2.6394 -1.8242
 4475TIP3    H234985   4.109   4.543   0.188 -0.4454 -0.7996  0.8894
 4476TIP3   OH234986   5.970   4.097   8.039  0.1474  0.2891  0.9040
 4476TIP3    H134987   5.933   4.133   7.958  0.0868  0.9885  1.2330
 4476TIP3    H234988   6.059   4.072   8.014 -0.7215 -2.0685 -0.0703
 4477TIP3   OH234989   0.483   3.732   2.010 -0.1682  0.6308  0.4796
 4477TIP3    H134990   0.519   3.688   1.933 -0.0672 -0.6734  1.2402
 4477TIP3    H234991   0.389   3.717   2.004 -0.1485  0.4229  0.6585
 4478TIP3   OH234992   4.243   5.341   2.347 -1.0424 -0.0690 -0.0252
 4478TIP3    H134993   4.215   5.405   2.412  1.1955  2.8212 -1.6399
 4478TIP3    H234994   4.333   5.320   2.372 -1.2002 -1.3355 -0.4635
 4479TIP3   OH234995   4.767   2.470   8.835 -0.4457 -0.6404  0.4244
 4479TIP3    H134996   4.692   2.432   8.789  0.2994 -0.2308 -1.2348
 4479TIP3    H234997   4.749   2.565   8.836  0.5511 -0.4024 -1.0543
 4480TIP3   OH234998   4.961   2.983   2.461 -0.7993  0.3840  0.5196
 4480TIP3    H134999   5.011   2.901   2.460 -1.4592 -0.0322  0.5417
 4480TIP3    H235000   4.882   2.961   2.510 -1.3829  0.7967 -0.2219
 4481TIP3   OH235001   2.435   6.261   1.336  0.6421  0.2145  0.2743
 4481TIP3    H135002   2.467   6.308   1.412 -1.4126 -1.3653  2.2329
 4481TIP3    H235003   2.471   6.173   1.345 -0.3497 -0.2401 -0.0666
 4482TIP3   OH235004   0.892   2.286   8.813 -0.0583 -0.1571  0.2460
 4482TIP3    H135005   0.809   2.237   8.817 -0.0895 -0.0779  3.6223
 4482TIP3    H235006   0.952   2.235   8.868  1.6961  0.6108 -0.8746
 4483TIP3   OH235007   0.935   1.883   7.369  0.2192  0.8281  0.0573
 4483TIP3    H135008   0.981   1.817   7.317 -0.6764 -0.4255  0.7983
 4483TIP3    H235009   0.999   1.911   7.435  0.4143  0.2535  0.1119
 4484TIP3   OH235010   1.178   6.626   0.375 -0.2222  0.4854 -0.4153
 4484TIP3    H135011   1.121   6.578   0.315 -0.3798 -2.4992  1.8585
 4484TIP3    H235012   1.259   6.575   0.376  0.5873  1.7389  0.2301
 4485TIP3   OH235013   4.055   4.621   1.566 -0.1295 -0.5635 -0.1019
 4485TIP3    H135014   4.033   4.556   1.632 -0.0902  0.6046  1.0940
 4485TIP3    H235015   4.149   4.611   1.553  0.3113  0.6862  1.7285
 4486TIP3   OH235016   4.166   1.722   1.647 -0.0208  0.5615  0.1999
 4486TIP3    H135017   4.242   1.664   1.637  0.2397  0.7012  1.2693
 4486TIP3    H235018   4.162   1.741   1.741 -0.7900  1.3531  0.0225
 4487TIP3   OH235019   3.089   2.794   8.360 -0.1607 -0.1317  0.1063
 4487TIP3    H135020   3.073   2.726   8.425 -1.0804  0.2247  0.2749
 4487TIP3    H235021   3.117   2.870   8.411  0.3639 -0.2231 -0.0363
 4488TIP3   OH235022   6.227   1.772   0.973 -0.6887 -0.2727 -0.3314
 4488TIP3    H135023   6.271   1.816   1.046  0.1188 -1.0374 -0.3386
 4488TIP3    H235024   6.226   1.837   0.903 -1.6550  0.5441  0.4140
 4489TIP3   OH235025   4.820   2.176   0.028  0.3073  0.1044  0.0681
 4489TIP3    H135026   4.787   2.217   0.108 -1.9180  1.1760 -1.2805
 4489TIP3    H235027   4.862   2.247  -0.021 -0.8175  0.1349 -0.9070
 4490TIP3   OH235028   1.234   1.632   0.327 -0.0296  0.3117 -0.1846
 4490TIP3    H135029   1.283   1.701   0.371 -2.0995  2.7006 -1.4233
 4490TIP3    H235030   1.157   1.618   0.382 -1.3508  1.5178 -1.6287
 4491TIP3   OH235031   2.943   4.078   8.602 -0.2151 -0.0553  0.1524
 4491TIP3    H135032   3.013   4.117   8.549 -0.9069 -0.0637 -0.7958
 4491TIP3    H235033   2.926   3.993   8.560 -0.6647 -0.1289  0.4784
 4492TIP3   OH235034   5.414   5.764   8.277  0.4323 -0.5110  0.1429
 4492TIP3    H135035   5.479   5.781   8.346  0.1462  0.5682  0.1596
 4492TIP3    H235036   5.356   5.698   8.315 -0.2380  0.6848  1.3206
 4493TIP3   OH235037   4.543   1.699   7.827  0.0321  0.4377  0.2567
 4493TIP3    H135038   4.483   1.744   7.886  0.7650  1.9784 -0.1317
 4493TIP3    H235039   4.599   1.768   7.792  1.1106 -0.7642 -0.4807
 4494TIP3   OH235040   6.047   3.249   8.706 -0.8596 -0.3807 -0.1509
 4494TIP3    H135041   6.118   3.305   8.673 -1.0927 -0.1238 -0.2119
 4494TIP3    H235042   6.075   3.225   8.794 -0.8236 -0.0621 -0.0763
 4495TIP3   OH235043   6.156   5.760   0.986  0.1551  0.2635 -0.0850
 4495TIP3    H135044   6.244   5.763   0.949 -0.8294  3.1298 -2.5981
 4495TIP3    H235045   6.157   5.825   1.056  0.8035 -2.0798  2.2621
 4496TIP3   OH235046   6.023   1.304   8.136 -0.1664  0.1291  0.1829
 4496TIP3    H135047   6.014   1.305   8.232  1.1152 -0.6034  0.3441
 4496TIP3    H235048   6.117   1.290   8.122 -0.3750  0.0304 -1.1851
 4497TIP3   OH235049   5.198   1.021   8.706  0.3423 -0.1818 -0.1994
 4497TIP3    H135050   5.269   0.978   8.754  0.3258  0.4160  0.3779
 4497TIP3    H235051   5.160   0.951   8.652  1.0829 -0.6073 -0.1871
 4498TIP3   OH235052   0.316   0.823   2.856 -0.7129  0.2406 -0.5539
 4498TIP3    H135053   0.387   0.831   2.793 -1.0501 -3.3463 -1.5834
 4498TIP3    H235054   0.331   0.895   2.918  3.4501  0.0476 -1.0513
 4499TIP3   OH235055   4.079   4.325   1.530  0.6396  0.7504 -0.1971
 4499TIP3    H135056   3.983   4.319   1.527  0.4093  2.9566  0.5451
 4499TIP3    H235057   4.108   4.237   1.552 -1.4855  0.6539  2.9490
 4500TIP3   OH235058   6.153   2.436   7.601 -0.0359  0.0806 -0.1369
 4500TIP3    H135059   6.070   2.442   7.648 -1.0749  0.1468 -1.8552
 4500TIP3    H235060   6.174   2.342   7.602 -0.6692 -0.0750 -0.5271
 4501TIP3   OH235061   0.535   0.204   2.187  0.4048 -0.0241 -0.6485
 4501TIP3    H135062   0.565   0.199   2.278  1.8389  1.8057 -0.9689
 4501TIP3    H235063   0.441   0.225   2.195  0.6587  0.8541  0.4479
 4502TIP3   OH235064   6.502   5.280   7.810 -0.8428  0.5040  0.4615
 4502TIP3    H135065   6.566   5.225   7.855 -1.5441 -1.0220 -0.3211
 4502TIP3    H235066   6.423   5.274   7.865 -0.4121  2.2432  1.3391
 4503TIP3   OH235067   5.236   4.709   1.033 -0.0563  0.1432 -0.1744
 4503TIP3    H135068   5.203   4.720   0.944  0.5831 -0.0139 -0.4393
 4503TIP3    H235069   5.265   4.618   1.036 -2.1812 -0.5462  0.9292
 4504TIP3   OH235070   6.097   0.067   0.732 -0.0815 -0.4810  0.6094
 4504TIP3    H135071   6.028   0.022   0.781 -1.1109 -0.7621 -1.0569
 4504TIP3    H235072   6.074   0.056   0.640  0.6323  1.8633  0.0705
 4505TIP3   OH235073   6.751   4.203   2.096 -0.0106 -0.2666 -0.2979
 4505TIP3    H135074   6.814   4.253   2.149 -1.2419 -0.0406  1.0055
 4505TIP3    H235075   6.786   4.114   2.096  0.0172 -0.2776  0.9273
 4506TIP3   OH235076   5.589   0.577   7.224 -0.3767  0.1267  0.4482
 4506TIP3    H135077   5.626   0.653   7.268 -0.5182  0.5660 -0.1814
 4506TIP3    H235078   5.524   0.543   7.286 -0.9287  1.0322  0.3848
 4507TIP3   OH235079   0.846   4.475   0.565  0.1984  0.3173  0.2262
 4507TIP3    H135080   0.819   4.498   0.476 -2.7106 -0.5058  0.7908
 4507TIP3    H235081   0.867   4.382   0.560 -0.4826  0.1443  0.4771
 4508TIP3   OH235082   2.039   6.523   6.335 -0.2682 -0.6609  0.2630
 4508TIP3    H135083   1.972   6.455   6.341 -2.9871  1.8774  1.0127
 4508TIP3    H235084   2.040   6.564   6.422 -2.2734  3.1870 -1.2648
 4509TIP3   OH235085   1.636   3.506   7.486 -0.1127 -0.0769 -0.0594
 4509TIP3    H135086   1.555   3.479   7.441  0.2449  0.4136 -1.0422
 4509TIP3    H235087   1.687   3.426   7.493  0.3064  0.0228 -1.5970
 4510TIP3   OH235088   1.407   0.207   7.571  0.2241  0.4382  0.2411
 4510TIP3    H135089   1.397   0.111   7.575  1.3910  0.3083  0.2144
 4510TIP3    H235090   1.486   0.225   7.620 -0.0371  1.4151  0.3164
 4511TIP3   OH235091   4.496   5.686   7.455 -0.8930 -0.0503  0.3308
 4511TIP3    H135092   4.558   5.634   7.507  0.2754  1.5827  0.6734
 4511TIP3    H235093   4.411   5.650   7.477 -0.2622 -0.7063  1.8871
 4512TIP3   OH235094   2.736   6.245   0.543 -0.0355  0.2329 -0.0990
 4512TIP3    H135095   2.670   6.196   0.494 -0.0533 -1.7950  1.7920
 4512TIP3    H235096   2.686   6.307   0.596 -0.1498  1.0022 -1.0796
 4513TIP3   OH235097   4.783   3.647   1.799  0.2123 -0.1452 -0.3223
 4513TIP3    H135098   4.819   3.560   1.778 -0.8948 -0.7367  0.1515
 4513TIP3    H235099   4.701   3.651   1.750  0.0518  0.4696 -0.0107
 4514TIP3   OH235100   1.998   5.155   8.410 -0.0107  0.5869  0.5038
 4514TIP3    H135101   2.066   5.177   8.345 -1.3233  1.0098 -0.7853
 4514TIP3    H235102   2.040   5.172   8.494  1.0250  2.2889 -0.2860
 4515TIP3   OH235103   5.796   5.734   0.755  0.3529 -0.4590 -0.1459
 4515TIP3    H135104   5.707   5.750   0.726  0.2599  0.5468  0.6445
 4515TIP3    H235105   5.851   5.775   0.688  0.1936 -0.1543 -0.0898
 4516TIP3   OH235106   0.641   1.274   6.929 -0.1950  0.0013  0.3843
 4516TIP3    H135107   0.580   1.332   6.884  1.2338  1.4984  0.2888
 4516TIP3    H235108   0.726   1.292   6.888  0.9278  0.4164  2.7154
 4517TIP3   OH235109   4.916   1.501   8.596  0.1672 -0.4377  0.1683
 4517TIP3    H135110   4.947   1.469   8.681 -0.4914  0.7929  0.8862
 4517TIP3    H235111   4.823   1.518   8.609 -0.3082 -1.6957 -1.2527
 4518TIP3   OH235112   5.186   4.263   8.014  0.1904 -0.0033 -0.1234
 4518TIP3    H135113   5.241   4.256   7.937  0.7789  1.4197  0.1363
 4518TIP3    H235114   5.133   4.183   8.014  0.8793 -0.4754 -1.4393
 4519TIP3   OH235115   2.756   5.195   2.090  0.2427 -0.6075 -0.4303
 4519TIP3    H135116   2.787   5.160   2.173 -0.9314  0.1499  0.3546
 4519TIP3    H235117   2.707   5.124   2.050  1.6384 -1.3081 -0.9763
 4520TIP3   OH235118   2.289   2.908   8.026 -0.0845  0.2816  0.1594
 4520TIP3    H135119   2.335   2.933   8.105  1.9195  0.7382 -1.0864
 4520TIP3    H235120   2.278   2.989   7.977  1.1755 -0.3620 -1.2494
 4521TIP3   OH235121   5.651   3.605   8.148  0.0999  0.2044 -0.6858
 4521TIP3    H135122   5.694   3.581   8.066 -1.4600 -1.0380 -1.1981
 4521TIP3    H235123   5.602   3.684   8.128 -0.5259 -0.2678 -1.0710
 4522TIP3   OH235124   0.043   3.729   8.829  0.7321 -0.3647  0.3829
 4522TIP3    H135125  -0.046   3.702   8.803  0.0010 -1.0155  3.2403
 4522TIP3    H235126   0.061   3.806   8.775 -2.9302  1.7821  1.8710
 4523TIP3   OH235127   1.969   1.758   0.574 -0.2583 -0.1592  0.0607
 4523TIP3    H135128   1.931   1.686   0.624 -2.0166 -0.9252 -2.1807
 4523TIP3    H235129   2.027   1.715   0.511  1.7984  0.7661  1.2288
 4524TIP3   OH235130   3.608   5.296   0.289  0.0793 -0.1719  0.2240
 4524TIP3    H135131   3.619   5.349   0.368 -2.2065  0.7638 -0.0068
 4524TIP3    H235132   3.687   5.314   0.237  0.5255  1.0246  1.2601
 4525TIP3   OH235133   3.511   4.559   7.539 -0.3731  0.1386 -0.0351
 4525TIP3    H135134   3.509   4.493   7.470  0.1174 -1.4647  1.4269
 4525TIP3    H235135   3.587   4.537   7.592 -0.3195  1.7677  0.6203
 4526TIP3   OH235136   2.798   6.597   2.532 -0.0266  0.4635 -0.2768
 4526TIP3    H135137   2.885   6.629   2.555 -0.6000  3.2051 -1.4239
 4526TIP3    H235138   2.798   6.505   2.557  3.0980  0.4308 -0.0194
 4527TIP3   OH235139   5.559   0.301   8.155 -0.1746 -0.2320 -0.2156
 4527TIP3    H135140   5.585   0.221   8.110  1.7221 -0.1527  0.6569
 4527TIP3    H235141   5.593   0.291   8.244  0.6542  1.7856 -0.2595
 4528TIP3   OH235142   1.574   4.692   0.136  0.0590 -0.0442  0.4398
 4528TIP3    H135143   1.517   4.627   0.176  1.8038 -1.6430  0.5100
 4528TIP3    H235144   1.626   4.642   0.073 -1.6972  2.1311 -3.0482
 4529TIP3   OH235145   3.968   2.236   7.443  0.4000 -0.7860  0.4803
 4529TIP3    H135146   4.043   2.251   7.501  0.1553  0.5156  0.4928
 4529TIP3    H235147   3.993   2.278   7.360  0.3796 -1.8415 -0.0702
 4530TIP3   OH235148   3.650   0.452   8.351  0.3473  0.3077 -0.2046
 4530TIP3    H135149   3.679   0.381   8.408 -1.9775 -0.3554  0.2423
 4530TIP3    H235150   3.639   0.411   8.265 -0.8558  0.1428  0.0198
 4531TIP3   OH235151   3.851   2.472   0.537  0.0154 -0.0847  0.1711
 4531TIP3    H135152   3.932   2.427   0.514  1.4368  1.8717  1.0878
 4531TIP3    H235153   3.808   2.413   0.598  1.9164 -0.1797  1.5143
 4532TIP3   OH235154   5.162   4.962   1.676 -0.1597  0.5361  0.2326
 4532TIP3    H135155   5.169   4.990   1.767 -1.9103  1.5473  0.0830
 4532TIP3    H235156   5.071   4.979   1.652  0.0689 -0.4515 -1.4731
 4533TIP3   OH235157   6.493   0.752   0.990 -0.1094  0.1415  0.7791
 4533TIP3    H135158   6.569   0.705   0.956  0.6470  2.3838 -0.9224
 4533TIP3    H235159   6.419   0.695   0.972  0.7816 -0.5662 -0.8410
 4534TIP3   OH235160   0.089   1.747   1.481 -0.2786  0.2705 -0.4673
 4534TIP3    H135161  -0.002   1.718   1.475 -0.1638 -0.1303 -0.3673
 4534TIP3    H235162   0.132   1.679   1.534 -0.0012  0.6456 -0.2107
 4535TIP3   OH235163   4.079   4.369   0.448 -0.1431  0.4624 -0.4307
 4535TIP3    H135164   4.122   4.284   0.453 -0.5004  0.2299 -1.1628
 4535TIP3    H235165   4.104   4.404   0.362 -0.4362  0.8531 -0.3613
 4536TIP3   OH235166   4.710   0.978   7.835 -0.1693  0.3445 -0.3610
 4536TIP3    H135167   4.708   0.987   7.931 -0.4167  0.7163 -0.3965
 4536TIP3    H235168   4.779   0.915   7.818 -0.6327 -0.3121  0.1131
 4537TIP3   OH235169   4.001   1.039   8.091 -0.2533 -0.1584 -0.5669
 4537TIP3    H135170   4.037   1.024   8.178 -2.5870 -1.0278  0.3213
 4537TIP3    H235171   4.074   1.022   8.031  0.7922 -1.8215  1.0947
 4538TIP3   OH235172   5.149   6.335   0.461  0.0456 -0.2958 -0.0746
 4538TIP3    H135173   5.081   6.268   0.459  0.0783 -0.3252 -0.8027
 4538TIP3    H235174   5.109   6.411   0.419 -0.2454  0.4089  1.4401
 4539TIP3   OH235175   0.645   3.651   1.354  0.2836  0.4160 -0.0385
 4539TIP3    H135176   0.605   3.706   1.421 -1.2678 -0.1093 -0.4917
 4539TIP3    H235177   0.609   3.563   1.370 -0.3998  0.3445 -1.7397
 4540TIP3   OH235178   2.843   0.595   7.048  0.4057 -0.6750 -0.1651
 4540TIP3    H135179   2.835   0.673   6.993  0.8159 -1.6213 -1.6102
 4540TIP3    H235180   2.936   0.591   7.071  0.9728 -2.2099 -2.4162
 4541TIP3   OH235181   3.113   6.472   1.443 -0.3390  0.3677  0.0226
 4541TIP3    H135182   3.056   6.447   1.371  0.6004 -1.5931 -0.1020
 4541TIP3    H235183   3.174   6.536   1.406  0.0452 -0.5174 -0.8936
 4542TIP3   OH235184   5.069   4.248   7.135 -0.2299 -0.0376  0.3323
 4542TIP3    H135185   4.990   4.235   7.187 -0.6532  0.4325 -0.1746
 4542TIP3    H235186   5.075   4.169   7.081 -1.0516  0.4508 -0.5076
 4543TIP3   OH235187   6.227   6.588   0.987 -0.6106  0.8325  0.1132
 4543TIP3    H135188   6.302   6.600   1.046 -2.0256 -0.2534  2.2819
 4543TIP3    H235189   6.266   6.580   0.900  2.0696 -1.8312  1.3593
 4544TIP3   OH235190   1.783   5.027   7.084  0.4989 -0.3610 -0.1163
 4544TIP3    H135191   1.791   5.059   7.174  1.4633  0.6690 -0.5354
 4544TIP3    H235192   1.831   5.092   7.032  0.5323 -1.3000 -1.2914
 4545TIP3   OH235193   1.422   4.310   7.182 -0.7570 -0.8825  0.0915
 4545TIP3    H135194   1.506   4.325   7.138 -0.3223 -0.3086  1.0968
 4545TIP3    H235195   1.366   4.271   7.114 -0.5818  1.3560 -1.4413
 4546TIP3   OH235196   2.071   2.697   8.573  0.0628 -0.0771  0.2343
 4546TIP3    H135197   2.148   2.715   8.519 -0.8524 -0.8850 -1.4021
 4546TIP3    H235198   2.084   2.607   8.603 -1.0161 -0.8526 -1.4860
 4547TIP3   OH235199   1.437   1.246   7.927 -0.1997 -0.5658  0.7990
 4547TIP3    H135200   1.429   1.335   7.894  0.2690 -1.1347 -0.9917
 4547TIP3    H235201   1.532   1.232   7.936 -0.1884 -1.2751 -0.1965
 4548TIP3   OH235202   3.387   3.478   7.569 -0.4666  0.5963  0.6540
 4548TIP3    H135203   3.326   3.423   7.519  2.0057 -1.1951 -0.6464
 4548TIP3    H235204   3.460   3.494   7.509  1.2624  0.9314  2.7014
 4549TIP3   OH235205   2.947   1.431   0.340  0.3096 -0.5832 -0.0296
 4549TIP3    H135206   2.958   1.487   0.264  0.0437  0.2677  0.5491
 4549TIP3    H235207   3.013   1.362   0.329 -0.3141 -0.9929 -1.4782
 4550TIP3   OH235208   3.506   0.900   0.648 -0.0912  0.5381  0.1422
 4550TIP3    H135209   3.427   0.928   0.602 -0.9947 -0.1641  1.2210
 4550TIP3    H235210   3.516   0.808   0.627  1.4821  1.0167 -1.4141
 4551TIP3   OH235211   5.505   6.164   7.750  0.1749  0.5233 -0.2172
 4551TIP3    H135212   5.466   6.202   7.829 -1.4693  1.0485 -1.2258
 4551TIP3    H235213   5.539   6.079   7.779 -1.0686  0.3732  0.9212
 4552TIP3   OH235214   6.190   4.057   6.338  0.2583  0.1560 -0.3024
 4552TIP3    H135215   6.115   3.997   6.335  0.4549 -0.1436  0.5594
 4552TIP3    H235216   6.152   4.144   6.327 -0.4016  0.1404  1.5017
 4553TIP3   OH235217   2.839   3.097   0.686  0.8694  0.7578  0.2702
 4553TIP3    H135218   2.884   3.117   0.768  0.7240  1.5538  0.1622
 4553TIP3    H235219   2.802   3.181   0.658 -0.9893  0.0807  0.5407
 4554TIP3   OH235220   3.329   0.516   0.137 -0.2047  0.7801  0.1738
 4554TIP3    H135221   3.278   0.476   0.067 -1.6775 -0.8911  2.0712
 4554TIP3    H235222   3.420   0.505   0.109 -0.7515  0.4551 -1.5954
 4555TIP3   OH235223   2.536   5.299   8.277 -0.3092 -0.8371 -0.3863
 4555TIP3    H135224   2.507   5.226   8.332  1.0361  0.5144  2.3480
 4555TIP3    H235225   2.504   5.377   8.323  1.7693  0.4077 -0.9103
 4556TIP3   OH235226   1.491   5.758   8.859  1.2613 -0.0719  0.9090
 4556TIP3    H135227   1.477   5.841   8.905 -0.0003 -0.4731  1.2785
 4556TIP3    H235228   1.569   5.773   8.806  0.6569  1.5872  0.4350
 4557TIP3   OH235229   0.498   1.989   2.210  0.1750 -0.2614 -0.1080
 4557TIP3    H135230   0.456   2.043   2.143 -1.3292  0.0411  1.0025
 4557TIP3    H235231   0.431   1.925   2.235  1.5064 -1.8738 -0.5139
 4558TIP3   OH235232   5.294   3.876   0.789  0.9138 -0.0402 -0.6071
 4558TIP3    H135233   5.360   3.832   0.841  1.4025  0.1444 -1.0593
 4558TIP3    H235234   5.272   3.955   0.838  1.0351 -0.1000 -0.4585
 4559TIP3   OH235235   1.895   3.884   7.363 -0.4385  0.1351  0.5477
 4559TIP3    H135236   1.826   3.936   7.403 -0.1370  0.4341  0.6913
 4559TIP3    H235237   1.895   3.802   7.413 -1.2751 -0.2269 -0.0320
 4560TIP3   OH235238   4.461   4.894   0.228 -0.4914 -0.0052 -0.2911
 4560TIP3    H135239   4.369   4.895   0.202 -0.5312 -0.3392 -0.1720
 4560TIP3    H235240   4.475   4.806   0.265 -0.8427  0.8907  2.1885
 4561TIP3   OH235241   3.155   3.927   2.458 -0.0964  0.0998 -0.3246
 4561TIP3    H135242   3.225   3.975   2.413  0.4168  2.2913  2.5149
 4561TIP3    H235243   3.087   3.992   2.474  0.2582 -0.1703  2.9369
 4562TIP3   OH235244   1.262   3.469   7.081 -0.1685 -0.1500  0.0183
 4562TIP3    H135245   1.285   3.490   6.990 -0.1769  0.6512  0.1883
 4562TIP3    H235246   1.210   3.389   7.075 -1.3537  0.6457 -0.8261
 4563TIP3   OH235247   5.569   1.415   0.371  0.1359  1.0015 -0.2234
 4563TIP3    H135248   5.638   1.392   0.433 -1.4646 -0.1779  1.2237
 4563TIP3    H235249   5.614   1.463   0.302  2.5960 -0.7607  0.0196
 4564TIP3   OH235250   1.081   5.848   2.355  0.0990 -0.6818 -0.3836
 4564TIP3    H135251   1.066   5.819   2.445 -1.3553 -0.2819 -0.4645
 4564TIP3    H235252   1.054   5.940   2.354  0.6486 -0.5208 -1.0990
 4565TIP3   OH235253   5.885   2.685   7.955 -0.1412 -0.1532  0.0894
 4565TIP3    H135254   5.885   2.748   8.027  0.9132 -0.7289  0.6166
 4565TIP3    H235255   5.974   2.689   7.920 -1.2359  1.9813 -2.9074
 4566TIP3   OH235256   6.353   3.393   1.239 -0.6492  0.1682 -0.0620
 4566TIP3    H135257   6.384   3.462   1.298  1.0234 -0.2797 -0.3764
 4566TIP3    H235258   6.261   3.415   1.222 -0.6826  1.2420  1.3548
 4567TIP3   OH235259   3.066   0.509   2.040 -0.0334 -0.4952 -0.2366
 4567TIP3    H135260   2.974   0.486   2.053 -0.4689  0.7852 -0.8649
 4567TIP3    H235261   3.105   0.503   2.128 -0.2326 -2.8308 -0.2268
 4568TIP3   OH235262   0.676   4.164   0.727 -0.4793  0.2423  0.9703
 4568TIP3    H135263   0.666   4.215   0.808  0.1751  0.2429  1.0563
 4568TIP3    H235264   0.766   4.133   0.730  0.0396  1.5091 -0.5019
 4569TIP3   OH235265   1.211   0.038   2.172 -0.3061 -0.2922  0.3105
 4569TIP3    H135266   1.297   0.021   2.134 -0.7575  0.6499 -1.2234
 4569TIP3    H235267   1.194  -0.038   2.227  0.3358 -1.8363 -1.4924
 4570TIP3   OH235268   0.618   3.996   1.815  0.0004 -0.5596 -0.4229
 4570TIP3    H135269   0.663   4.057   1.757 -1.2915 -0.8285 -1.7955
 4570TIP3    H235270   0.532   4.036   1.830 -0.6136 -1.6617 -0.7849
 4571TIP3   OH235271   5.157   5.663   7.514  0.2919 -0.2099  0.3664
 4571TIP3    H135272   5.226   5.699   7.569 -0.2627  1.1816  0.1959
 4571TIP3    H235273   5.076   5.703   7.547 -0.2512 -0.6641 -0.3722
 4572TIP3   OH235274   1.337   5.538   6.708 -1.0816  0.2425 -0.0799
 4572TIP3    H135275   1.282   5.500   6.639 -1.1364  2.6839 -1.5092
 4572TIP3    H235276   1.275   5.569   6.774 -1.0479 -1.7990  0.9706
 4573TIP3   OH235277   6.768   6.365   1.101 -0.0199  0.5015 -0.3862
 4573TIP3    H135278   6.759   6.313   1.181 -0.0213  1.9649  0.6066
 4573TIP3    H235279   6.689   6.344   1.051  0.8457 -1.8113 -0.8832
 4574TIP3   OH235280   5.970   4.835   8.208  0.3947 -0.4774 -0.4075
 4574TIP3    H135281   5.962   4.931   8.210  1.1945 -0.3815 -1.1852
 4574TIP3    H235282   5.884   4.803   8.237  0.2436  0.4745  0.2221
 4575TIP3   OH235283   3.980   5.969   0.000  0.5751 -0.8698  0.2137
 4575TIP3    H135284   3.985   5.921  -0.082 -1.2150 -2.2759  0.8557
 4575TIP3    H235285   3.920   6.042  -0.018  0.8007 -0.7179  0.0740
 4576TIP3   OH235286   4.830   6.723   8.439  0.0907  0.2625  0.0296
 4576TIP3    H135287   4.815   6.722   8.533  1.4684 -0.7071  0.2718
 4576TIP3    H235288   4.748   6.692   8.401 -0.1935 -0.1414  0.9529
 4577TIP3   OH235289   6.524   4.737   1.334 -0.6001 -0.2239 -0.2821
 4577TIP3    H135290   6.563   4.808   1.384 -1.0187 -0.3477  0.2317
 4577TIP3    H235291   6.489   4.677   1.400 -1.5069 -0.1960 -0.7135
 4578TIP3   OH235292   3.891   3.931   7.454  0.2376  0.3154  0.4512
 4578TIP3    H135293   3.964   3.896   7.505  0.8828  2.3143  0.9907
 4578TIP3    H235294   3.813   3.891   7.494  0.8820 -0.0188  1.4335
 4579TIP3   OH235295   0.472   1.225   7.711  0.5097 -0.1361  0.1214
 4579TIP3    H135296   0.376   1.228   7.702 -0.1906 -3.0872  3.8620
 4579TIP3    H235297   0.494   1.301   7.765 -0.1614 -0.6584  1.1771
 4580TIP3   OH235298   4.405   3.039   6.925 -0.8578  0.1274  0.2552
 4580TIP3    H135299   4.342   2.984   6.879  0.0508 -1.3744  0.7609
 4580TIP3    H235300   4.491   3.002   6.903  0.0501  2.8875 -1.4895
 4581TIP3   OH235301   3.131   0.245   0.156  0.0713  0.1935  0.0809
 4581TIP3    H135302   3.069   0.172   0.158  1.3841 -0.9359  1.0911
 4581TIP3    H235303   3.090   0.312   0.212  0.0021 -0.7546  1.1910
 4582TIP3   OH235304   1.796   0.994   8.362 -0.2766  0.0489  0.0674
 4582TIP3    H135305   1.809   1.005   8.457 -1.3300 -0.5803  0.2983
 4582TIP3    H235306   1.862   0.930   8.336  0.0822  0.2967  0.3534
 4583TIP3   OH235307   5.319   1.701   7.159  0.1745 -0.2209 -0.0749
 4583TIP3    H135308   5.362   1.742   7.084 -0.8040  1.1453  0.0952
 4583TIP3    H235309   5.391   1.659   7.207  1.5133  2.5882  0.5947
 4584TIP3   OH235310   2.352   3.803   0.009  0.2942  0.3002  0.2024
 4584TIP3    H135311   2.346   3.745  -0.067  0.3251 -1.9443  1.8042
 4584TIP3    H235312   2.295   3.877  -0.013  0.4585 -0.1771 -2.0547
 4585TIP3   OH235313   5.279   4.482   0.807 -0.0892 -0.6681 -0.6050
 4585TIP3    H135314   5.193   4.483   0.849 -0.0548  0.2252 -0.5316
 4585TIP3    H235315   5.317   4.398   0.831  0.0736 -0.0521  1.4504
 4586TIP3   OH235316   1.705   5.821   7.500  0.1866 -0.1680  0.2499
 4586TIP3    H135317   1.742   5.901   7.465 -2.0370  0.3240 -1.1563
 4586TIP3    H235318   1.778   5.759   7.503  1.3964  1.1567 -0.9856
 4587TIP3   OH235319   4.203   2.392   1.096  0.6581 -0.1635  0.3141
 4587TIP3    H135320   4.123   2.354   1.132  0.0847  1.6212  1.0272
 4587TIP3    H235321   4.190   2.391   1.001 -0.0994 -0.0914  0.4121
 4588TIP3   OH235322   5.651   2.385   8.808 -0.4619 -0.0884  0.1807
 4588TIP3    H135323   5.626   2.470   8.771 -2.0300 -0.6061 -0.0292
 4588TIP3    H235324   5.739   2.399   8.843 -1.6884  2.3993  2.6311
 4589TIP3   OH235325   5.591   4.525   1.782 -0.0052  0.0671 -0.1388
 4589TIP3    H135326   5.675   4.570   1.782 -0.3381  0.7017  0.4300
 4589TIP3    H235327   5.562   4.528   1.691  1.4615 -1.8613 -0.7534
 4590TIP3   OH235328   4.070   0.910   8.363  0.1105  0.3325  0.5796
 4590TIP3    H135329   4.015   0.939   8.436  0.3000  0.8234  0.5299
 4590TIP3    H235330   4.054   0.816   8.357 -1.3783  0.5928  0.0181
 4591TIP3   OH235331   4.660   0.140   0.624 -0.2092 -0.0330  0.0880
 4591TIP3    H135332   4.755   0.141   0.610 -0.3482 -0.5376 -0.9453
 4591TIP3    H235333   4.650   0.116   0.716  0.6670  0.0604  0.2189
 4592TIP3   OH235334   1.579   3.805   1.489 -0.1036  0.3098  0.4869
 4592TIP3    H135335   1.540   3.893   1.492  1.8914  1.2108  2.2677
 4592TIP3    H235336   1.600   3.792   1.397 -2.5008  0.6939 -0.1858
 4593TIP3   OH235337   6.260   2.759   7.143  0.5861 -0.2627 -0.3720
 4593TIP3    H135338   6.225   2.724   7.061  1.4233  0.1958 -0.9380
 4593TIP3    H235339   6.312   2.687   7.180  0.2296 -0.4605 -0.2549
 4594TIP3   OH235340   6.012   3.655   1.094 -0.0602  0.9173 -0.6472
 4594TIP3    H135341   6.043   3.745   1.105 -1.2774  1.3525 -0.5450
 4594TIP3    H235342   6.041   3.629   1.007  1.7125  0.8043 -0.0511
 4595TIP3   OH235343   4.504   1.305   6.913 -0.1218 -0.2020 -0.2587
 4595TIP3    H135344   4.448   1.239   6.954  0.8500 -1.0717 -0.2725
 4595TIP3    H235345   4.593   1.274   6.930  0.3333  0.0994 -1.9288
 4596TIP3   OH235346   4.214   0.074   8.852 -0.2205  0.1445 -0.6190
 4596TIP3    H135347   4.134   0.064   8.904 -0.1833  1.9761 -0.1307
 4596TIP3    H235348   4.190   0.137   8.784  0.3825 -0.5016 -1.4535
 4597TIP3   OH235349   4.739   5.035   6.682 -0.0595 -0.2629 -0.2726
 4597TIP3    H135350   4.773   5.053   6.595 -0.1520  2.2292  0.1437
 4597TIP3    H235351   4.680   4.961   6.670  0.1377 -0.1406 -2.2550
 4598TIP3   OH235352   6.240   0.045   1.290  0.9730  0.2601 -0.0504
 4598TIP3    H135353   6.156   0.018   1.253  1.9108  0.3667 -2.4678
 4598TIP3    H235354   6.242   0.006   1.377 -1.0961 -0.7040 -0.3777
 4599TIP3   OH235355   0.354   3.545   1.134 -0.0897  0.2415  0.4613
 4599TIP3    H135356   0.280   3.515   1.186 -0.6120  0.9040  0.1209
 4599TIP3    H235357   0.351   3.641   1.140  0.9045  0.2792  0.6604
 4600TIP3   OH235358   2.822   3.000   1.244 -0.2735 -0.1116  0.7720
 4600TIP3    H135359   2.751   2.966   1.298 -1.7995  0.4916 -0.7567
 4600TIP3    H235360   2.821   2.945   1.166  1.3115 -0.4142  0.9365
 4601TIP3   OH235361   1.141   4.875   1.568  0.0227  0.1652  0.5180
 4601TIP3    H135362   1.190   4.950   1.601  1.6483  0.2538 -1.8986
 4601TIP3    H235363   1.206   4.806   1.558 -0.5158 -0.0995 -1.6216
 4602TIP3   OH235364   3.745   6.600   1.093  0.1155  0.1762  0.3528
 4602TIP3    H135365   3.682   6.559   1.035  0.6474  0.9301 -0.7942
 4602TIP3    H235366   3.789   6.527   1.137  0.6313 -0.4807 -1.2063
 4603TIP3   OH235367   3.603   3.460   7.393  0.2924  0.6742  0.3320
 4603TIP3    H135368   3.674   3.399   7.373 -0.0418  0.4623 -0.2441
 4603TIP3    H235369   3.644   3.546   7.392  0.4363  0.6125 -0.6267
 4604TIP3   OH235370   0.500   2.943   6.269 -0.3772  0.2023  0.1314
 4604TIP3    H135371   0.411   2.955   6.301 -0.7194 -0.3171 -0.5756
 4604TIP3    H235372   0.542   3.029   6.278  0.3247 -0.3782  4.0791
 4605TIP3   OH235373   6.166   5.721   0.173  0.0489 -0.4487  0.0877
 4605TIP3    H135374   6.147   5.772   0.095 -3.6021 -1.1293  0.3745
 4605TIP3    H235375   6.162   5.784   0.245  0.3574 -0.3318  0.0015
 4606TIP3   OH235376   0.269   5.421   2.590  0.3881  0.4865  0.3484
 4606TIP3    H135377   0.359   5.448   2.610  1.0051 -1.8532  0.9506
 4606TIP3    H235378   0.215   5.491   2.627  1.8830  1.1593  1.3822
 4607TIP3   OH235379   2.164   3.188   2.197  0.0776  0.1390 -0.6616
 4607TIP3    H135380   2.196   3.135   2.271 -0.8263 -0.8876 -0.9804
 4607TIP3    H235381   2.240   3.240   2.171  0.4772  0.3732  0.8509
 4608TIP3   OH235382   0.263   2.408   1.913  0.1261  0.0666 -0.0875
 4608TIP3    H135383   0.249   2.316   1.889  2.6857 -0.4169  0.0337
 4608TIP3    H235384   0.273   2.407   2.008 -2.3428  0.8947  0.2481
 4609TIP3   OH235385   3.382   5.052   1.786  0.1681 -0.3688 -0.5637
 4609TIP3    H135386   3.331   5.133   1.789  0.7147 -0.0448  0.2526
 4609TIP3    H235387   3.425   5.047   1.871  0.2769 -1.4345 -0.6679
 4610TIP3   OH235388   3.074   5.676   0.171 -0.5018  0.0172 -0.2241
 4610TIP3    H135389   3.090   5.585   0.145  0.6032 -0.8410  3.0389
 4610TIP3    H235390   3.106   5.728   0.097  1.7411 -2.1733 -0.9290
 4611TIP3   OH235391   0.063   1.907   8.153  0.0008  0.2789 -0.1103
 4611TIP3    H135392   0.097   1.878   8.238 -0.1445 -0.1350 -0.1947
 4611TIP3    H235393   0.066   2.003   8.158  3.3391  0.3635 -0.9363
 4612TIP3   OH235394   1.205   6.085   8.868  0.3308 -0.5972  0.4061
 4612TIP3    H135395   1.261   6.150   8.910 -1.5516  1.7243 -0.4863
 4612TIP3    H235396   1.258   6.052   8.795  0.3242  2.2750 -1.0431
 4613TIP3   OH235397   1.852   0.195   1.125 -0.3811  0.5235  0.1596
 4613TIP3    H135398   1.756   0.199   1.123 -0.4178  0.2956  1.0243
 4613TIP3    H235399   1.871   0.101   1.137 -0.0710  0.6267  0.4982
 4614TIP3   OH235400   6.271   0.252   8.439  0.1406  0.1927 -0.1237
 4614TIP3    H135401   6.334   0.203   8.493  0.2523  2.1805  1.6593
 4614TIP3    H235402   6.306   0.341   8.435 -2.3338  1.2813  0.6170
 4615TIP3   OH235403   2.357   6.187   1.639 -0.2877  0.4401 -0.1651
 4615TIP3    H135404   2.393   6.139   1.565 -0.6298  1.5718 -1.0947
 4615TIP3    H235405   2.291   6.245   1.600 -2.3787 -0.7836  1.3205
 4616TIP3   OH235406   0.937   1.564   7.080 -0.0139 -0.3705 -0.6692
 4616TIP3    H135407   0.922   1.487   7.135  1.0516  0.2192  0.5256
 4616TIP3    H235408   0.954   1.529   6.993 -1.6589 -1.3410 -0.6425
 4617TIP3   OH235409   3.321   1.442   1.529  0.2166 -0.1598  0.2280
 4617TIP3    H135410   3.269   1.512   1.488  2.0112  0.9103 -0.3674
 4617TIP3    H235411   3.347   1.386   1.455  3.9378  2.0862 -0.4439
 4618TIP3   OH235412   0.102   5.890   1.613 -0.6116 -0.6017 -0.3452
 4618TIP3    H135413   0.064   5.804   1.597  0.3786 -1.9101  3.2238
 4618TIP3    H235414   0.080   5.909   1.705  0.4527  2.3196 -0.5770
 4619TIP3   OH235415   3.710   4.302   0.346  0.6368  0.1014 -0.3318
 4619TIP3    H135416   3.620   4.275   0.364  0.0293  0.8069 -2.1078
 4619TIP3    H235417   3.721   4.289   0.252  2.5381 -0.3361 -0.0958
 4620TIP3   OH235418   4.019   4.442   1.008 -0.2860  0.0263 -0.6893
 4620TIP3    H135419   3.935   4.458   1.052 -0.0905  1.0576 -0.6764
 4620TIP3    H235420   4.005   4.469   0.918  0.5959  2.1328 -0.2419
 4621TIP3   OH235421   1.623   0.471   7.877 -0.2354 -0.2255 -0.4901
 4621TIP3    H135422   1.615   0.534   7.948 -1.6038 -0.7718 -0.1362
 4621TIP3    H235423   1.563   0.502   7.810 -1.2770 -1.3540 -0.1297
 4622TIP3   OH235424   2.939   4.099   2.465 -0.8529  0.0033 -0.5249
 4622TIP3    H135425   2.868   4.114   2.529  0.1879  2.2339  0.2058
 4622TIP3    H235426   2.923   4.164   2.397 -0.0109 -0.0861 -0.8091
 4623TIP3   OH235427   4.868   4.554   7.618  0.7750 -0.2648  0.1456
 4623TIP3    H135428   4.873   4.603   7.701  0.1254 -0.6442  0.4140
 4623TIP3    H235429   4.774   4.548   7.599  0.8840 -0.8071 -0.2453
 4624TIP3   OH235430   6.280   6.225   1.683 -0.3658  0.0167  0.2513
 4624TIP3    H135431   6.341   6.243   1.612  0.2136 -0.0674  0.7185
 4624TIP3    H235432   6.292   6.132   1.701 -1.1651 -0.1763 -0.1335
 4625TIP3   OH235433   1.556   1.097   0.857  0.0050 -0.1723 -0.2039
 4625TIP3    H135434   1.539   1.051   0.940 -1.7063 -0.4625 -0.6824
 4625TIP3    H235435   1.651   1.107   0.855  0.0572  0.6099  2.2120
 4626TIP3   OH235436   2.119   6.544   0.726 -0.0948  0.2843 -0.2286
 4626TIP3    H135437   2.128   6.465   0.779  1.4714 -1.0379 -2.2785
 4626TIP3    H235438   2.209   6.573   0.711 -0.6431  2.6032  0.6005
 4627TIP3   OH235439   1.429   1.740   1.327  0.3730  0.0129  0.4143
 4627TIP3    H135440   1.491   1.759   1.257 -1.2830  0.1433 -1.0987
 4627TIP3    H235441   1.348   1.717   1.281 -0.9474  0.6733  2.3004
 4628TIP3   OH235442   1.282   3.757   7.392 -0.4343 -0.1128 -0.2551
 4628TIP3    H135443   1.232   3.702   7.330  2.3233 -2.4777 -0.5961
 4628TIP3    H235444   1.256   3.724   7.478  0.4504 -1.3233 -0.4270
 4629TIP3   OH235445   6.321   3.581   8.242  0.0562 -0.6120 -0.2400
 4629TIP3    H135446   6.329   3.496   8.200 -0.8549  0.4988 -2.8622
 4629TIP3    H235447   6.353   3.643   8.176  2.0298  1.0280  2.0786
 4630TIP3   OH235448   4.582   2.977   1.581  0.3354  0.7704 -0.1651
 4630TIP3    H135449   4.505   3.034   1.583  0.3386  0.7735 -0.0957
 4630TIP3    H235450   4.648   3.028   1.534 -0.3964 -0.1449 -2.3033
 4631TIP3   OH235451   0.212   3.208   8.294 -0.6039  0.0977 -0.2255
 4631TIP3    H135452   0.187   3.290   8.336  1.5108  0.2859  0.7625
 4631TIP3    H235453   0.285   3.231   8.237 -0.1650 -1.0406 -0.1488
 4632TIP3   OH235454   3.661   5.562   1.701  0.0057 -0.2284  0.7229
 4632TIP3    H135455   3.697   5.617   1.770  2.2344 -0.5595 -0.0885
 4632TIP3    H235456   3.657   5.474   1.739  1.4156 -0.4489  0.4335
 4633TIP3   OH235457   4.907   2.721   1.460  0.0293 -0.1319  0.3540
 4633TIP3    H135458   4.962   2.796   1.439  0.4880 -0.6111 -0.2245
 4633TIP3    H235459   4.934   2.695   1.548  2.1436 -1.5133 -0.5971
 4634TIP3   OH235460   2.550   2.933   0.043  0.6944 -0.4398  0.2986
 4634TIP3    H135461   2.462   2.961   0.017  0.1882 -1.1503  1.1865
 4634TIP3    H235462   2.606   3.006   0.019 -0.0750 -0.1338 -0.6591
 4635TIP3   OH235463   3.838   4.110   8.522 -0.2895  0.1090  0.1507
 4635TIP3    H135464   3.772   4.042   8.510 -1.6240  1.5682 -1.4042
 4635TIP3    H235465   3.898   4.100   8.449 -0.9096  0.9919 -0.5091
 4636TIP3   OH235466   6.514   1.985   0.434 -0.3837 -0.3518 -0.2613
 4636TIP3    H135467   6.584   1.941   0.387  0.3406  0.3797  0.1166
 4636TIP3    H235468   6.444   1.919   0.440  0.6652 -1.4366  0.2916
 4637TIP3   OH235469   1.431   1.856   6.470 -0.4715 -0.1945  0.2230
 4637TIP3    H135470   1.356   1.807   6.437 -0.1627 -0.4939 -0.0426
 4637TIP3    H235471   1.497   1.789   6.488 -0.6759 -0.0546  1.5954
 4638TIP3   OH235472   2.616   3.783   8.142  0.8183 -0.4568  0.4879
 4638TIP3    H135473   2.698   3.825   8.166  1.4530 -1.0316 -0.6127
 4638TIP3    H235474   2.630   3.751   8.053 -1.1974  0.9553 -0.4104
 4639TIP3   OH235475   4.846   4.369   8.519  0.1598 -0.0653  0.2288
 4639TIP3    H135476   4.787   4.309   8.473  1.0177 -1.5387  0.9641
 4639TIP3    H235477   4.792   4.408   8.587 -0.8912  1.4726 -1.3941
 4640TIP3   OH235478   1.668   6.196   2.002  0.1426  0.1959 -0.1933
 4640TIP3    H135479   1.747   6.187   1.948  1.7861  2.0345  1.7463
 4640TIP3    H235480   1.700   6.216   2.089 -2.5079  0.6769  0.7761
 4641TIP3   OH235481   0.170   0.771   1.052 -0.1840 -0.2306 -0.3242
 4641TIP3    H135482   0.144   0.855   1.090 -0.8863 -1.0270  1.0422
 4641TIP3    H235483   0.090   0.736   1.013 -0.4115 -1.1582  0.9097
 4642TIP3   OH235484   1.691   3.646   8.374  0.1983 -0.1072 -0.0611
 4642TIP3    H135485   1.663   3.737   8.372  2.0315  0.4962 -0.9111
 4642TIP3    H235486   1.767   3.645   8.432  1.3063 -0.7054 -1.4583
 4643TIP3   OH235487   3.181   0.776   1.946 -0.4457  0.7106  0.6403
 4643TIP3    H135488   3.142   0.715   2.010 -0.2429 -0.8078 -0.6242
 4643TIP3    H235489   3.267   0.738   1.928 -0.9907  0.3861 -1.4665
 4644TIP3   OH235490   6.670   4.163   1.528  0.0070  0.2341 -0.0179
 4644TIP3    H135491   6.623   4.244   1.549  0.1175  0.8164 -1.8254
 4644TIP3    H235492   6.731   4.188   1.459 -1.6078 -1.8169 -2.3680
 4645TIP3   OH235493   3.428   6.733   0.884  0.2439  0.5246  0.0587
 4645TIP3    H135494   3.506   6.764   0.930 -0.4300  0.5874  1.2057
 4645TIP3    H235495   3.393   6.665   0.941 -0.0937 -0.0726 -0.8476
 4646TIP3   OH235496   1.436   4.988   8.601  0.1629 -1.1316  0.1112
 4646TIP3    H135497   1.447   5.066   8.548  0.4978 -2.8936 -2.6377
 4646TIP3    H235498   1.522   4.946   8.602  0.2018 -1.0918  2.2425
 4647TIP3   OH235499   6.235   1.637   8.143  0.0369  0.3628  0.1528
 4647TIP3    H135500   6.237   1.566   8.207 -1.2727 -0.0319 -0.2162
 4647TIP3    H235501   6.324   1.674   8.145  0.3381 -0.3748  1.3551
 4648TIP3   OH235502   2.780   3.644   0.636 -0.5462 -0.1544 -0.2514
 4648TIP3    H135503   2.717   3.649   0.707  0.4380  1.5951  0.5788
 4648TIP3    H235504   2.730   3.665   0.557 -1.1619  0.4287  0.2828
 4649TIP3   OH235505   3.549   4.922   8.153 -0.2539  0.1823 -0.1334
 4649TIP3    H135506   3.474   4.923   8.212 -0.7137  0.9618 -0.7130
 4649TIP3    H235507   3.594   5.005   8.169 -0.9675  0.8856 -1.5749
 4650TIP3   OH235508   6.210   5.997   7.789  0.5255 -1.0186  0.0798
 4650TIP3    H135509   6.249   6.084   7.794 -0.6779 -0.4991  0.8758
 4650TIP3    H235510   6.225   5.969   7.699 -1.5016  1.2146 -1.0665
 4651TIP3   OH235511   3.702   3.100   8.118  0.2743 -0.0502 -0.2887
 4651TIP3    H135512   3.682   3.010   8.143  1.0437 -0.2693 -0.4047
 4651TIP3    H235513   3.723   3.144   8.200  0.0555 -0.0213 -0.2494
 4652TIP3   OH235514   5.508   4.333   1.423  0.6314 -0.0794  0.2645
 4652TIP3    H135515   5.495   4.311   1.515 -0.0007  0.7205  0.3794
 4652TIP3    H235516   5.433   4.294   1.378 -0.3340  1.4957  0.4297
 4653TIP3   OH235517   2.749   0.173   1.763 -0.5012 -0.4831 -0.6858
 4653TIP3    H135518   2.678   0.207   1.817  0.5622 -0.2210  0.5838
 4653TIP3    H235519   2.706   0.146   1.681 -2.1538 -0.9233  0.2785
 4654TIP3   OH235520   3.593   6.172   1.622  0.1424  0.0690  0.6220
 4654TIP3    H135521   3.594   6.178   1.718 -1.3566 -0.7518  0.7083
 4654TIP3    H235522   3.529   6.237   1.595  0.0161 -0.2226  0.2148
 4655TIP3   OH235523   5.907   1.567   2.105  0.8620 -0.3062  0.1931
 4655TIP3    H135524   5.972   1.629   2.139  1.8355 -1.4346  0.4715
 4655TIP3    H235525   5.951   1.482   2.111 -0.0638 -0.8959 -1.1278
 4656TIP3   OH235526   1.933   1.916   7.027  0.0905  0.0729 -0.0905
 4656TIP3    H135527   1.909   1.944   6.939  1.9236  0.6593 -0.4328
 4656TIP3    H235528   1.978   1.832   7.015  0.5711  0.2743  0.2451
 4657TIP3   OH235529   1.341   6.497   7.425 -0.5859  0.5668  0.0277
 4657TIP3    H135530   1.259   6.480   7.379 -1.2718 -1.3865  1.8624
 4657TIP3    H235531   1.363   6.415   7.469  2.3490  1.0277 -0.3199
 4658TIP3   OH235532   6.288   5.983   8.246  0.2949  0.7466  0.2716
 4658TIP3    H135533   6.216   6.044   8.237 -0.0161  0.4007  0.3949
 4658TIP3    H235534   6.295   5.941   8.160 -0.3871 -0.0272  0.5809
 4659TIP3   OH235535   2.646   1.964   0.423  0.5320 -0.1224  0.2356
 4659TIP3    H135536   2.718   1.920   0.376  0.1418  0.0838 -0.5630
 4659TIP3    H235537   2.576   1.970   0.359 -0.5522 -1.1519  1.2841
 4660TIP3   OH235538   3.713   1.214   7.204  0.5660 -0.6555  0.5522
 4660TIP3    H135539   3.689   1.208   7.112 -1.5529 -0.1831  1.0251
 4660TIP3    H235540   3.764   1.295   7.210 -0.5038  0.0920 -0.0004
 4661TIP3   OH235541   5.148   5.152   7.783 -0.0651 -0.4044 -0.5457
 4661TIP3    H135542   5.135   5.164   7.689 -1.7553  0.9322 -0.1836
 4661TIP3    H235543   5.234   5.188   7.801  0.7415 -1.6514 -1.7226
 4662TIP3   OH235544   2.562   1.933   1.765 -0.2689 -0.1499  0.6059
 4662TIP3    H135545   2.603   2.008   1.809 -0.7312 -0.8374  2.3240
 4662TIP3    H235546   2.601   1.931   1.678  0.1658  1.7401  0.7162
 4663TIP3   OH235547   2.936   6.625   2.143  0.0830 -0.0357 -0.6278
 4663TIP3    H135548   2.948   6.577   2.225 -0.0469  0.2223 -0.4550
 4663TIP3    H235549   2.953   6.561   2.074  0.3426 -0.2149 -0.3980
 4664TIP3   OH235550   6.225   0.049   2.295  0.2288 -0.2509 -0.0903
 4664TIP3    H135551   6.200   0.141   2.300 -1.4353 -0.7262  1.0312
 4664TIP3    H235552   6.314   0.046   2.331  0.3423  0.9219 -0.2567
 4665TIP3   OH235553   5.019   5.512   6.603  0.0306 -0.3430 -0.8667
 4665TIP3    H135554   4.931   5.546   6.615  0.5298  0.5657  0.4399
 4665TIP3    H235555   5.007   5.431   6.553 -1.3505  0.7100 -2.3427
 4666TIP3   OH235556   2.419   2.237   8.600  0.6912  0.4712  0.4877
 4666TIP3    H135557   2.392   2.250   8.509 -2.0559 -1.5841  0.8588
 4666TIP3    H235558   2.501   2.188   8.593  0.3262 -0.0070 -0.9014
 4667TIP3   OH235559   6.161   4.816   1.570  0.1063  0.2741 -0.4870
 4667TIP3    H135560   6.130   4.800   1.659 -0.2108 -2.0950 -0.9586
 4667TIP3    H235561   6.256   4.820   1.578  0.0480  0.7373  0.0439
 4668TIP3   OH235562   1.188   6.379   1.252 -0.6546 -0.3681 -0.5381
 4668TIP3    H135563   1.220   6.289   1.259 -0.5127 -0.3656 -1.0879
 4668TIP3    H235564   1.109   6.372   1.198 -0.3668 -0.1113 -1.0068
 4669TIP3   OH235565   4.237   3.838   8.515  0.0053  0.0422  0.1316
 4669TIP3    H135566   4.143   3.831   8.495 -0.4095  0.8185  1.6826
 4669TIP3    H235567   4.280   3.790   8.444 -1.4576  1.0670 -1.5299
 4670TIP3   OH235568   0.323   6.385   2.195  0.5782  0.2654  0.0599
 4670TIP3    H135569   0.407   6.420   2.227  0.3838  1.6773 -0.8839
 4670TIP3    H235570   0.323   6.294   2.224  1.9754  0.5181  0.9792
 4671TIP3   OH235571   2.892   1.034   1.894 -0.5091 -0.0457  0.4946
 4671TIP3    H135572   2.975   1.075   1.871 -1.2164  1.9216  1.2997
 4671TIP3    H235573   2.896   0.948   1.851  2.3582 -0.4748  1.3738
 4672TIP3   OH235574   3.879   0.078   2.044 -0.0340 -0.7917  0.2132
 4672TIP3    H135575   3.931   0.157   2.025 -0.9519  0.1277  1.3273
 4672TIP3    H235576   3.940   0.020   2.090 -0.1423  0.6167  2.2616
 4673TIP3   OH235577   0.005   4.609   8.241 -0.6578  0.2249 -0.1396
 4673TIP3    H135578   0.027   4.526   8.200  1.5906 -0.4096  2.0964
 4673TIP3    H235579  -0.035   4.585   8.325 -3.4533  1.4598 -1.0173
 4674TIP3   OH235580   0.968   2.572   7.208 -0.0165  0.1032 -0.3045
 4674TIP3    H135581   1.010   2.493   7.241  0.6558  1.1575  1.5171
 4674TIP3    H235582   0.926   2.611   7.285 -0.1564  1.6296 -1.1110
 4675TIP3   OH235583   3.657   2.026   1.442  0.0231 -0.0160 -0.3210
 4675TIP3    H135584   3.702   1.948   1.411 -0.5085  0.5635 -2.7904
 4675TIP3    H235585   3.619   2.001   1.526  0.6326 -2.1037 -0.6278
 4676TIP3   OH235586   1.685   0.621   8.756  0.4282 -0.0269  0.1264
 4676TIP3    H135587   1.716   0.643   8.843 -1.2935  2.8897  0.1330
 4676TIP3    H235588   1.636   0.539   8.767  0.5875  0.0777  1.8068
 4677TIP3   OH235589   5.184   3.697   1.366 -0.4230  0.0741 -0.4167
 4677TIP3    H135590   5.110   3.758   1.370 -0.3598  0.1133  0.3310
 4677TIP3    H235591   5.150   3.622   1.317 -0.6621  0.4899 -0.8980
 4678TIP3   OH235592   0.492   3.919   0.456 -0.4735 -0.5563 -0.0936
 4678TIP3    H135593   0.502   4.011   0.434  3.0698 -0.5620  0.9606
 4678TIP3    H235594   0.451   3.920   0.543 -1.5463 -0.0641 -0.5867
 4679TIP3   OH235595   6.649   4.349   7.588 -0.0515 -0.5942  0.0302
 4679TIP3    H135596   6.631   4.413   7.519  0.4961  0.1948  0.5991
 4679TIP3    H235597   6.605   4.384   7.666  0.6029 -0.6878  0.4520
 4680TIP3   OH235598   5.134   4.378   7.647  0.6612  0.1724  0.3264
 4680TIP3    H135599   5.151   4.418   7.562  1.7720  0.5525  0.7113
 4680TIP3    H235600   5.044   4.404   7.669 -1.1956 -3.0783 -2.4405
 4681TIP3   OH235601   3.014   6.462   0.720 -0.1342 -0.8385 -0.4057
 4681TIP3    H135602   3.050   6.412   0.793  1.8089  0.2992 -0.5204
 4681TIP3    H235603   2.935   6.503   0.755  0.1374 -1.2364  0.7083
 4682TIP3   OH235604   1.320   3.324   1.119 -0.3637 -0.1091  0.1496
 4682TIP3    H135605   1.250   3.388   1.106 -1.6957 -1.5217 -0.0364
 4682TIP3    H235606   1.335   3.287   1.032 -0.1317 -0.5448  0.3706
 4683TIP3   OH235607   1.252   1.324   7.163  0.5963 -0.2326  0.4946
 4683TIP3    H135608   1.165   1.317   7.124  0.4786 -1.8124  0.9583
 4683TIP3    H235609   1.301   1.382   7.105 -0.5662  0.1329 -0.1354
 4684TIP3   OH235610   0.362   3.110   1.749  0.1209  0.9873  0.0269
 4684TIP3    H135611   0.313   3.191   1.733  0.0315  1.1052  0.8457
 4684TIP3    H235612   0.317   3.044   1.696 -0.4645  1.2523  0.1777
 4685TIP3   OH235613   3.695   1.294   6.933 -0.0850  0.0351  0.0283
 4685TIP3    H135614   3.716   1.387   6.935 -0.4116  0.1068  0.2399
 4685TIP3    H235615   3.766   1.254   6.884  2.5033 -0.2304  3.5844
 4686TIP3   OH235616   2.413   4.428   7.078  0.2380 -0.2566 -0.4008
 4686TIP3    H135617   2.462   4.347   7.088  0.5476  0.0061  0.3380
 4686TIP3    H235618   2.390   4.432   6.985 -2.1312 -2.5184 -0.0196
 4687TIP3   OH235619   2.165   2.826   7.744 -0.0462 -0.3623  0.1644
 4687TIP3    H135620   2.238   2.886   7.727  0.3553 -1.4110 -2.2563
 4687TIP3    H235621   2.204   2.739   7.735 -1.5351 -0.9455 -1.0058
 4688TIP3   OH235622   2.290   4.058   7.793  0.2290  0.7010 -0.0294
 4688TIP3    H135623   2.380   4.056   7.825 -0.7273 -1.7344  3.1311
 4688TIP3    H235624   2.275   3.970   7.758 -1.8052 -0.3566  2.9984
 4689TIP3   OH235625   1.815   0.142   2.474  0.1825 -0.1218 -0.0164
 4689TIP3    H135626   1.807   0.155   2.568 -0.5192  0.7516 -0.1825
 4689TIP3    H235627   1.863   0.218   2.443  0.7981 -0.6217 -0.3126
 4690TIP3   OH235628   5.605   0.187   0.865  0.4433  0.0866  0.0523
 4690TIP3    H135629   5.649   0.266   0.834  1.0266  0.1565  1.0016
 4690TIP3    H235630   5.608   0.194   0.961 -1.3225 -0.0932  0.1565
 4691TIP3   OH235631   4.067   5.579   8.532  0.2296 -0.0520 -0.0425
 4691TIP3    H135632   4.016   5.541   8.460 -2.0453 -1.5605  2.1989
 4691TIP3    H235633   4.151   5.531   8.529 -0.0327 -0.4680 -1.3426
 4692TIP3   OH235634   3.089   1.248   8.672  0.0195  0.8273 -0.3112
 4692TIP3    H135635   3.161   1.223   8.615  0.8325  2.6572 -0.1356
 4692TIP3    H235636   3.105   1.201   8.753 -0.9980 -1.5842 -1.4079
 4693TIP3   OH235637   2.019   3.526   0.538 -0.5989 -0.0233  0.5805
 4693TIP3    H135638   1.975   3.520   0.623 -1.0078 -0.8879  0.3202
 4693TIP3    H235639   1.987   3.450   0.489  1.0955 -0.6312  0.3342
 4694TIP3   OH235640   2.213   2.044   1.078  0.0928 -0.1512 -0.3060
 4694TIP3    H135641   2.262   1.993   1.014 -0.6885 -1.7131  0.2839
 4694TIP3    H235642   2.262   2.126   1.087  1.4113 -0.8036 -1.2631
 4695TIP3   OH235643   0.902   3.182   7.678  0.2734  0.4745  0.5770
 4695TIP3    H135644   0.843   3.211   7.608 -0.0793 -1.0897  0.1742
 4695TIP3    H235645   0.976   3.242   7.674  0.1357  0.5883 -0.9764
 4696TIP3   OH235646   1.373   6.291   7.963 -0.3732 -0.0068  0.0418
 4696TIP3    H135647   1.457   6.249   7.978 -0.6945  0.1628  2.7856
 4696TIP3    H235648   1.392   6.385   7.962 -0.3561 -0.0132 -0.7863
 4697TIP3   OH235649   6.243   2.553   8.758 -0.3336  0.4164  0.2549
 4697TIP3    H135650   6.306   2.610   8.802 -1.0895  2.7662 -1.5031
 4697TIP3    H235651   6.197   2.610   8.697 -0.1185 -2.3579 -2.8127
 4698TIP3   OH235652   5.096   5.065   8.066  0.0852  0.2913  0.3474
 4698TIP3    H135653   5.135   5.083   7.981 -0.1737 -0.0167  0.1602
 4698TIP3    H235654   5.166   5.021   8.116 -0.0320 -0.2965  0.0004
 4699TIP3   OH235655   6.456   1.436   0.134 -0.5151 -0.2671  0.7571
 4699TIP3    H135656   6.504   1.413   0.214 -1.3180 -0.5593  1.1693
 4699TIP3    H235657   6.408   1.516   0.157 -0.1629  0.0720  0.3237
 4700TIP3   OH235658   3.768   6.053   1.452  0.0593  0.2386  0.2810
 4700TIP3    H135659   3.698   6.101   1.495  0.6680  0.4642  1.0475
 4700TIP3    H235660   3.729   6.019   1.372 -0.4046  2.0264 -0.3054
 4701TIP3   OH235661   1.203   1.097   7.869  1.1633  0.2074  0.0878
 4701TIP3    H135662   1.226   1.014   7.911  0.5135  1.5859  3.5257
 4701TIP3    H235663   1.281   1.151   7.878  0.7871  0.7522  0.1717
 4702TIP3   OH235664   3.471   1.588   6.938  0.2481  0.4453  0.4874
 4702TIP3    H135665   3.475   1.588   7.033  0.7526 -1.6085  0.5228
 4702TIP3    H235666   3.387   1.545   6.917  0.2654  0.6308  0.0214
 4703TIP3   OH235667   4.934   2.701   2.395 -0.7459 -0.4254  0.1526
 4703TIP3    H135668   4.901   2.637   2.332 -0.5896 -0.8281  0.4829
 4703TIP3    H235669   4.941   2.653   2.478  0.7747 -0.3775  0.0764
 4704TIP3   OH235670   0.346   1.899   0.303  0.6724 -0.3530 -0.4561
 4704TIP3    H135671   0.411   1.964   0.277  0.7279 -1.0529 -2.1861
 4704TIP3    H235672   0.379   1.816   0.267  0.9359 -1.5230  2.2305
 4705TIP3   OH235673   3.439   0.772   1.766 -0.3946  0.7749 -0.2534
 4705TIP3    H135674   3.498   0.772   1.691 -0.6332 -0.5063 -0.4668
 4705TIP3    H235675   3.492   0.735   1.837 -0.4629  1.0910 -0.0362
 4706TIP3   OH235676   4.757   0.552   2.310 -0.3825  0.2835  0.0251
 4706TIP3    H135677   4.833   0.600   2.278 -1.1176  2.2920  1.1246
 4706TIP3    H235678   4.724   0.605   2.382 -1.9268 -1.3389  0.5813
 4707TIP3   OH235679   2.239   2.780   2.092  0.2150  0.1124  0.1285
 4707TIP3    H135680   2.151   2.744   2.102 -0.1653  1.2040  0.9659
 4707TIP3    H235681   2.297   2.704   2.094 -0.6822 -0.5915 -0.0805
 4708TIP3   OH235682   1.593   4.990   7.372 -0.5654 -0.6516 -0.0733
 4708TIP3    H135683   1.686   4.970   7.385  0.2514  1.4121 -2.1603
 4708TIP3    H235684   1.563   4.923   7.310  0.2082  0.1001 -1.2948
 4709TIP3   OH235685   0.189   5.028   1.712 -0.2126 -0.3068  0.3677
 4709TIP3    H135686   0.169   5.066   1.798  1.1435 -1.6763  1.3215
 4709TIP3    H235687   0.109   4.983   1.686 -0.5751 -0.0164  0.9727
 4710TIP3   OH235688   2.207   1.211   7.748 -0.2478  1.1320 -0.3173
 4710TIP3    H135689   2.290   1.249   7.721 -0.1797  0.1895 -1.4949
 4710TIP3    H235690   2.166   1.180   7.667 -0.8127 -0.2451  0.4419
 4711TIP3   OH235691   0.071   1.160   7.495  0.3606 -0.0127  0.3171
 4711TIP3    H135692  -0.002   1.208   7.455  1.5762  1.5503 -0.1462
 4711TIP3    H235693   0.029   1.091   7.546 -1.6149  2.1565  1.8928
 4712TIP3   OH235694   0.553   4.984   6.592  0.3956 -0.2293 -0.3589
 4712TIP3    H135695   0.633   4.944   6.628  0.8552  0.2998 -0.7736
 4712TIP3    H235696   0.581   5.070   6.562 -0.0788 -0.4645 -1.5391
 4713TIP3   OH235697   0.313   0.616   0.615 -0.5452 -0.5767 -0.0623
 4713TIP3    H135698   0.358   0.646   0.694 -1.1282  0.5228 -0.1383
 4713TIP3    H235699   0.291   0.525   0.634  0.0005 -0.5569  0.7339
 4714TIP3   OH235700   2.022   2.846   7.190  0.2402 -0.4954 -0.3417
 4714TIP3    H135701   2.011   2.877   7.100  0.1152 -0.4630 -0.3151
 4714TIP3    H235702   2.110   2.808   7.192  0.7808  0.7300 -0.1104
 4715TIP3   OH235703   5.824   2.718   7.267 -0.3086  0.2352  0.1080
 4715TIP3    H135704   5.769   2.791   7.296  0.0054  0.6989 -0.4417
 4715TIP3    H235705   5.889   2.759   7.210 -2.3493 -0.8667 -3.2909
 4716TIP3   OH235706   6.178   0.492   1.093 -0.0442 -0.5931 -0.0489
 4716TIP3    H135707   6.193   0.512   1.186 -0.6934 -3.5677  0.7888
 4716TIP3    H235708   6.120   0.416   1.094  2.7092 -2.9919 -2.7684
 4717TIP3   OH235709   4.560   3.827   7.865  0.0358 -0.2833  0.1566
 4717TIP3    H135710   4.587   3.883   7.938  0.1149  0.8155 -0.6855
 4717TIP3    H235711   4.630   3.837   7.800 -0.2015 -0.9725 -0.2223
 4718TIP3   OH235712   1.529   0.848   7.257 -0.4442 -0.0671 -0.1550
 4718TIP3    H135713   1.510   0.942   7.255 -0.1475 -0.0139 -0.7030
 4718TIP3    H235714   1.565   0.832   7.344 -0.6498  0.2918  0.0009
 4719TIP3   OH235715   2.265   4.854   8.515 -0.4989  0.3468  0.2372
 4719TIP3    H135716   2.258   4.854   8.610  2.9648  1.6764  0.6477
 4719TIP3    H235717   2.335   4.792   8.496  0.1842  1.4890 -1.2320
 4720TIP3   OH235718   6.053   3.787   0.090 -0.8451 -0.2561 -0.0140
 4720TIP3    H135719   6.056   3.858   0.154 -3.4848  0.6809 -0.8028
 4720TIP3    H235720   6.108   3.817   0.018  1.1845 -0.7947  1.2385
 4721TIP3   OH235721   0.978   4.680   1.826 -0.6695  0.3132 -0.4996
 4721TIP3    H135722   0.902   4.727   1.793 -1.1470 -0.4566 -0.5094
 4721TIP3    H235723   1.017   4.740   1.890 -0.9979  0.9061 -0.8417
 4722TIP3   OH235724   5.194   2.117   7.394 -0.2653 -0.0309 -0.3388
 4722TIP3    H135725   5.218   2.026   7.380 -0.7372 -0.0592 -1.0082
 4722TIP3    H235726   5.121   2.114   7.455  0.9828  0.0234  1.2210
 4723TIP3   OH235727   6.303   5.148   8.582  0.3529  0.1418 -0.2864
 4723TIP3    H135728   6.266   5.139   8.494 -0.5233 -2.8727  0.2784
 4723TIP3    H235729   6.384   5.097   8.579  0.4640  0.2520  0.5960
 4724TIP3   OH235730   4.611   2.752   8.219  0.5285 -0.1486 -0.4745
 4724TIP3    H135731   4.698   2.779   8.189  0.7277  0.4544  0.5782
 4724TIP3    H235732   4.615   2.762   8.314 -0.2426 -1.4772 -0.2856
 4725TIP3   OH235733   5.634   6.349   7.457  0.8244  0.1847  0.9038
 4725TIP3    H135734   5.640   6.426   7.400  0.3118  0.7895  1.6415
 4725TIP3    H235735   5.661   6.381   7.543 -0.7157 -0.0949  1.5284
 4726TIP3   OH235736   3.488   6.076   8.626 -0.0349  0.3040  0.3969
 4726TIP3    H135737   3.409   6.078   8.680 -0.6155 -3.4536 -0.0520
 4726TIP3    H235738   3.557   6.047   8.685  0.3606  0.5870  0.0856
 4727TIP3   OH235739   0.172   3.763   7.349 -0.5458  0.1668  0.0148
 4727TIP3    H135740   0.122   3.817   7.288 -0.9970 -0.4308 -0.1496
 4727TIP3    H235741   0.186   3.819   7.425 -0.6568  0.6499 -0.3198
 4728TIP3   OH235742   5.005   3.231   8.167  0.0704 -0.5372  0.3513
 4728TIP3    H135743   5.043   3.223   8.254 -0.3335 -0.6752  0.5164
 4728TIP3    H235744   4.915   3.200   8.177 -0.1465 -0.0337  0.0083
 4729TIP3   OH235745   4.928   0.462   1.690 -0.2206  0.0484  0.2959
 4729TIP3    H135746   5.012   0.507   1.676  0.1433 -0.3312  1.1289
 4729TIP3    H235747   4.882   0.517   1.753  0.1295 -0.5996  1.1443
 4730TIP3   OH235748   3.355   3.535   0.157  0.3119  0.0644  0.3249
 4730TIP3    H135749   3.308   3.507   0.079  2.0678 -1.5064 -0.2624
 4730TIP3    H235750   3.447   3.518   0.136  1.1346  2.4769  1.5979
 4731TIP3   OH235751   6.557   6.625   2.179  0.1178 -0.1077  0.2223
 4731TIP3    H135752   6.634   6.608   2.125 -1.1379 -0.0015 -1.7106
 4731TIP3    H235753   6.533   6.539   2.214  0.9462 -0.1790  0.6537
 4732TIP3   OH235754   5.310   1.130   0.831 -0.2256  0.5090  0.2912
 4732TIP3    H135755   5.225   1.140   0.874 -0.6599 -1.6191  0.0116
 4732TIP3    H235756   5.366   1.196   0.873 -2.0735  2.1731  0.2497
 4733TIP3   OH235757   2.214   3.172   0.578 -0.2303 -0.1925 -0.3932
 4733TIP3    H135758   2.220   3.087   0.536 -0.4223  0.2272 -1.3071
 4733TIP3    H235759   2.260   3.232   0.518  1.8694 -0.0034  1.3144
 4734TIP3   OH235760   5.537   5.184   1.321 -0.0821  0.1435 -0.3761
 4734TIP3    H135761   5.484   5.113   1.356 -0.4128  0.2032 -0.7415
 4734TIP3    H235762   5.616   5.185   1.375 -1.2756  1.2885  1.4491
 4735TIP3   OH235763   6.250   3.197   0.004 -0.7305  0.7310 -0.4205
 4735TIP3    H135764   6.203   3.133   0.057 -3.0196  1.1376 -1.8262
 4735TIP3    H235765   6.265   3.271   0.064  1.2123 -0.6710  0.9756
 4736TIP3   OH235766   0.070   3.190   6.439  0.3736  0.3002  0.7179
 4736TIP3    H135767  -0.025   3.189   6.422  0.0507  0.0863  2.4033
 4736TIP3    H235768   0.084   3.270   6.490  1.0768  0.2295  0.6395
 4737TIP3   OH235769   3.108   1.080   7.903  0.2513  0.6626  0.7284
 4737TIP3    H135770   3.179   1.113   7.847  0.7025 -0.0233  0.8782
 4737TIP3    H235771   3.042   1.049   7.841  0.6552  0.1056  0.5658
 4738TIP3   OH235772   0.919   1.804   8.872  0.0906 -0.0435 -0.2709
 4738TIP3    H135773   0.883   1.764   8.792  0.0563 -1.2804  0.3458
 4738TIP3    H235774   0.996   1.752   8.892 -0.3637 -0.2645  0.9586
 4739TIP3   OH235775   3.786   6.654   2.361 -0.3453 -0.2106  0.3604
 4739TIP3    H135776   3.788   6.573   2.310 -0.6349 -0.4301  0.6946
 4739TIP3    H235777   3.876   6.665   2.393 -0.1007  0.0591 -0.3893
 4740TIP3   OH235778   5.435   3.003   7.417 -0.3269  0.3063  0.0445
 4740TIP3    H135779   5.475   3.050   7.490  0.0351  0.8384 -0.4887
 4740TIP3    H235780   5.505   2.951   7.380 -0.7195 -0.6637  0.6130
 4741TIP3   OH235781   0.952   5.751   1.121 -0.1206  0.0484  1.3881
 4741TIP3    H135782   0.927   5.798   1.041  0.6240  1.2385  1.8239
 4741TIP3    H235783   1.008   5.680   1.089 -1.8264 -1.0192  0.6549
 4742TIP3   OH235784   4.369   2.754   7.515  0.6826  0.4904  0.6200
 4742TIP3    H135785   4.347   2.774   7.424  1.0660 -0.0293  0.4077
 4742TIP3    H235786   4.312   2.810   7.567 -2.2615 -1.8721  0.1673
 4743TIP3   OH235787   1.467   4.084   0.547 -0.5959 -0.1214  0.4950
 4743TIP3    H135788   1.530   4.138   0.595  0.2215 -0.5719 -0.0467
 4743TIP3    H235789   1.427   4.029   0.615  0.8114 -1.0145  0.6468
 4744TIP3   OH235790   0.047   1.220   1.053  0.0220 -0.1735  0.6600
 4744TIP3    H135791   0.028   1.180   0.968  0.0742 -0.8321  0.9465
 4744TIP3    H235792  -0.036   1.216   1.100  0.1822 -0.5480  0.9228
 4745TIP3   OH235793   5.552   6.262   8.199  0.0852  0.0796 -0.4654
 4745TIP3    H135794   5.643   6.287   8.181 -0.3907  0.4134 -2.6265
 4745TIP3    H235795   5.560   6.187   8.258  1.7074  0.9897  0.5558
 4746TIP3   OH235796   5.512   0.444   6.433  0.0669 -0.1981 -0.0599
 4746TIP3    H135797   5.598   0.412   6.405 -0.6206 -3.6585  1.3273
 4746TIP3    H235798   5.450   0.378   6.402 -1.9928  1.5947  0.0066
 4747TIP3   OH235799   3.042   0.598   6.366  0.4243  0.3578 -0.2362
 4747TIP3    H135800   3.024   0.654   6.290  1.0188 -0.3258 -0.9025
 4747TIP3    H235801   2.956   0.582   6.405  0.2706  1.9730  0.1568
 4748TIP3   OH235802   6.488   1.572   8.574 -0.1702  0.0911 -0.4750
 4748TIP3    H135803   6.491   1.496   8.516  2.2075 -2.5019  2.6435
 4748TIP3    H235804   6.418   1.552   8.637  0.5984  0.3527  0.4949
 4749TIP3   OH235805   5.512   2.425   0.327  0.0534  0.1669  0.1351
 4749TIP3    H135806   5.561   2.352   0.363 -1.6966 -1.6776 -1.0002
 4749TIP3    H235807   5.428   2.387   0.302 -1.9844  3.1096  1.8785
 4750TIP3   OH235808   3.087   2.428   8.320 -0.0544  0.2661  0.1975
 4750TIP3    H135809   3.089   2.518   8.353 -0.8226  0.0107  0.9750
 4750TIP3    H235810   3.179   2.405   8.306  0.1168  1.4088 -0.7007
 4751TIP3   OH235811   0.339   2.876   7.429  1.0592  0.0990 -0.1274
 4751TIP3    H135812   0.306   2.835   7.509  0.5356 -0.9580 -0.8530
 4751TIP3    H235813   0.392   2.950   7.459 -0.4978  0.7620  1.1473
 4752TIP3   OH235814   0.757   6.168   0.195  0.7219  0.3544 -0.1588
 4752TIP3    H135815   0.667   6.143   0.220  0.8355 -0.6096 -0.6962
 4752TIP3    H235816   0.757   6.264   0.203 -0.1177  0.3114  0.6325
 4753TIP3   OH235817   5.993   5.879   8.504  0.1261 -0.3131 -0.9395
 4753TIP3    H135818   5.976   5.961   8.550  0.3518 -0.0166 -1.3738
 4753TIP3    H235819   5.997   5.904   8.412  0.3790 -0.7842 -1.0595
 4754TIP3   OH235820   5.559   1.908   1.168  0.8283  0.2370  0.1381
 4754TIP3    H135821   5.536   1.869   1.084  2.7055  0.8022 -0.6707
 4754TIP3    H235822   5.594   1.835   1.220 -0.5147 -0.1526  0.5556
 4755TIP3   OH235823   3.784   0.105   1.239 -0.0008 -0.1444  0.8958
 4755TIP3    H135824   3.704   0.125   1.191  1.3620  1.2679 -0.9681
 4755TIP3    H235825   3.832   0.046   1.180  0.3062 -1.0695  2.0361
 4756TIP3   OH235826   4.249   2.024   0.073 -0.4902 -0.4353  0.2921
 4756TIP3    H135827   4.157   2.012   0.049 -0.7924 -1.2746  1.7551
 4756TIP3    H235828   4.297   2.016  -0.010 -1.8427  1.8489 -0.8013
 4757TIP3   OH235829   2.896   0.123   2.369 -0.1224 -0.1587 -0.1380
 4757TIP3    H135830   2.810   0.082   2.357  0.5860 -2.0675  0.9010
 4757TIP3    H235831   2.951   0.053   2.402  1.7406  1.1501 -0.3325
 4758TIP3   OH235832   0.296   5.383   6.825  0.0182 -0.4461  0.0676
 4758TIP3    H135833   0.323   5.441   6.754 -1.6268  0.6595  0.2918
 4758TIP3    H235834   0.378   5.345   6.857  0.7570 -1.4367 -2.7494
 4759TIP3   OH235835   1.809   2.401   0.948 -0.2117 -0.1703 -0.5494
 4759TIP3    H135836   1.858   2.320   0.962 -2.0866 -1.1504  0.7456
 4759TIP3    H235837   1.740   2.377   0.886 -1.2726  0.1900  0.4504
 4760TIP3   OH235838   2.223   5.443   8.348 -0.1584 -0.3671  0.1836
 4760TIP3    H135839   2.239   5.363   8.299 -1.0301 -0.5263  0.1377
 4760TIP3    H235840   2.127   5.452   8.348 -0.0831  0.5185  0.4269
 4761TIP3   OH235841   6.309   1.757   7.609  0.0818 -0.5617 -0.0960
 4761TIP3    H135842   6.365   1.765   7.687  0.1509 -2.5941  0.1256
 4761TIP3    H235843   6.231   1.807   7.630  0.6116 -0.0710  0.7835
 4762TIP3   OH235844   0.771   1.927   2.202 -0.0071 -0.0416 -0.0943
 4762TIP3    H135845   0.706   1.972   2.147  1.7248  0.2802 -1.9836
 4762TIP3    H235846   0.719   1.883   2.269 -2.1935  0.0739 -1.6164
 4763TIP3   OH235847   0.800   4.061   1.230  0.2269  0.5221 -0.2554
 4763TIP3    H135848   0.772   4.035   1.318  0.3983 -0.3408 -0.4390
 4763TIP3    H235849   0.825   4.153   1.238 -0.0680  0.5400  0.5215
 4764TIP3   OH235850   1.121   0.084   1.205  0.2055  0.0460  0.9479
 4764TIP3    H135851   1.191   0.082   1.270  1.0844 -2.1622  0.0406
 4764TIP3    H235852   1.043   0.109   1.254  1.5356  2.4005  2.0252
 4765TIP3   OH235853   6.730   2.402   7.137  1.1317 -0.3162 -0.6747
 4765TIP3    H135854   6.688   2.460   7.073  0.7264  1.5144  1.1473
 4765TIP3    H235855   6.813   2.446   7.158  0.1820  0.4832  1.8024
 4766TIP3   OH235856   2.886   2.452   0.859  0.1704  0.0261  0.1098
 4766TIP3    H135857   2.977   2.442   0.885  0.0683 -1.8093 -0.0939
 4766TIP3    H235858   2.890   2.499   0.775  0.9085  0.1918  0.2348
 4767TIP3   OH235859   3.565   5.665   0.098 -0.0189  0.2494  0.2760
 4767TIP3    H135860   3.513   5.721   0.156  0.2156 -0.6993  1.4188
 4767TIP3    H235861   3.501   5.629   0.037 -0.1542  1.8682 -0.5988
 4768TIP3   OH235862   1.445   5.439   1.787  0.0361  0.6212 -0.3659
 4768TIP3    H135863   1.408   5.372   1.844  0.4130 -0.8995 -1.8438
 4768TIP3    H235864   1.372   5.495   1.764  0.0821  2.0141  2.5204
 4769TIP3   OH235865   4.961   6.649   7.221  0.2973 -0.3264  0.4050
 4769TIP3    H135866   5.053   6.671   7.234  0.3059  0.1755 -0.3900
 4769TIP3    H235867   4.955   6.556   7.244  1.3302 -0.7752 -0.9892
 4770TIP3   OH235868   3.849   0.516   1.355 -0.1661 -0.4935  0.4561
 4770TIP3    H135869   3.853   0.438   1.411  0.2082 -0.6400  0.2283
 4770TIP3    H235870   3.846   0.589   1.416 -0.2821 -0.6749  0.6709
 4771TIP3   OH235871   3.758   3.680   0.234 -0.3208  1.1418 -0.2373
 4771TIP3    H135872   3.851   3.666   0.256 -0.9678  0.4337  2.4091
 4771TIP3    H235873   3.746   3.632   0.152  0.9728 -1.6876  1.0483
 4772TIP3   OH235874   3.154   1.917   7.760  0.6080  0.5128 -0.5818
 4772TIP3    H135875   3.186   1.986   7.817  0.8112  1.1010 -1.4066
 4772TIP3    H235876   3.115   1.853   7.820 -1.3756  2.2492  0.1079
 4773TIP3   OH235877   4.387   0.292   0.228 -0.1955  0.5113 -0.3836
 4773TIP3    H135878   4.462   0.281   0.287 -1.4921  2.5479  1.8651
 4773TIP3    H235879   4.409   0.241   0.150  3.0267  0.1963  0.5992
 4774TIP3   OH235880   1.619   3.972   7.419  0.2098 -0.1215  0.0674
 4774TIP3    H135881   1.560   3.932   7.354 -1.1086 -0.6295  1.5091
 4774TIP3    H235882   1.653   4.050   7.375  1.2069 -1.6586 -2.0711
 4775TIP3   OH235883   0.666   0.668   7.225 -0.0704  0.4083 -0.5998
 4775TIP3    H135884   0.650   0.698   7.135  0.6081 -1.3032 -1.3231
 4775TIP3    H235885   0.760   0.681   7.238 -0.2369  1.0457  0.0348
 4776TIP3   OH235886   3.326   0.131   8.125  0.1762  0.0170 -0.1405
 4776TIP3    H135887   3.357   0.088   8.205  0.5085 -1.6921 -1.1575
 4776TIP3    H235888   3.286   0.213   8.157 -1.3222 -1.4259  1.9747
 4777TIP3   OH235889   0.372   1.277   8.525  0.2061  0.3043  0.7253
 4777TIP3    H135890   0.388   1.307   8.436 -0.9948 -0.5993  0.1696
 4777TIP3    H235891   0.277   1.263   8.528  0.1901  0.6164  2.2389
 4778TIP3   OH235892   6.143   5.295   0.497  0.1912 -0.4137 -0.2355
 4778TIP3    H135893   6.136   5.207   0.534  0.6635 -1.0344 -1.5431
 4778TIP3    H235894   6.216   5.290   0.436 -0.0951  0.7544 -0.7160
 4779TIP3   OH235895   3.153   4.318   0.289  0.0193 -0.4924  0.1233
 4779TIP3    H135896   3.204   4.303   0.369 -0.7504 -1.4172  0.4482
 4779TIP3    H235897   3.117   4.233   0.267 -0.6924 -0.0182 -0.5933
 4780TIP3   OH235898   4.048   0.526   2.145 -0.5479  0.5871 -0.4318
 4780TIP3    H135899   4.075   0.447   2.098 -1.3682  0.5511 -0.8669
 4780TIP3    H235900   4.063   0.506   2.237  2.2481  1.0919 -0.6757
 4781TIP3   OH235901   5.230   5.890   8.489 -0.1326  0.0361 -0.2157
 4781TIP3    H135902   5.183   5.818   8.447 -2.3439 -0.1923  2.3782
 4781TIP3    H235903   5.202   5.968   8.442 -1.2931 -0.3614 -0.2109
 4782TIP3   OH235904   0.176   2.747   6.885  0.1694  0.5543  0.2639
 4782TIP3    H135905   0.097   2.705   6.919  0.7171 -0.6369  0.0884
 4782TIP3    H235906   0.244   2.681   6.892  0.9727  1.2889 -0.3667
 4783TIP3   OH235907   4.869   3.104   0.466  0.4692  0.4560 -0.2492
 4783TIP3    H135908   4.801   3.155   0.511  0.9728 -0.3016  1.4627
 4783TIP3    H235909   4.830   3.017   0.456  1.3280 -0.1490  1.2621
 4784TIP3   OH235910   4.889   1.894   1.369 -0.0911 -0.4936  0.0307
 4784TIP3    H135911   4.942   1.922   1.444 -0.0365 -1.3981  0.3411
 4784TIP3    H235912   4.817   1.956   1.366  0.3951  0.0972  0.2760
 4785TIP3   OH235913   6.012   5.153   8.563  0.0619  0.2450 -0.0830
 4785TIP3    H135914   6.066   5.114   8.632 -0.9874 -1.2603 -0.0742
 4785TIP3    H235915   6.068   5.150   8.485  0.6844  0.5050  0.3461
 4786TIP3   OH235916   6.750   6.355   6.764 -0.1605 -0.0571  0.1654
 4786TIP3    H135917   6.739   6.301   6.842 -0.4811 -1.6174 -0.9183
 4786TIP3    H235918   6.661   6.366   6.730  0.0652 -0.0653 -0.4293
 4787TIP3   OH235919   0.035   5.253   6.851  0.0809  0.3891  0.0684
 4787TIP3    H135920   0.124   5.289   6.860 -0.1044  1.3497 -1.6602
 4787TIP3    H235921   0.033   5.215   6.763 -1.0745 -0.0778  0.2790
 4788TIP3   OH235922   4.601   1.688   1.601 -0.6871  0.2486 -0.0703
 4788TIP3    H135923   4.513   1.657   1.582 -0.6636  1.0449 -1.6078
 4788TIP3    H235924   4.656   1.648   1.534 -0.4128  2.2421 -1.1175
 4789TIP3   OH235925   5.002   4.354   8.223 -0.2696 -0.1070 -0.4023
 4789TIP3    H135926   4.957   4.270   8.228  0.7001 -0.6603 -0.6882
 4789TIP3    H235927   5.040   4.356   8.135 -1.4063  1.2334 -0.9038
 4790TIP3   OH235928   3.854   4.514   1.771  0.0575 -0.1394 -0.2793
 4790TIP3    H135929   3.834   4.441   1.712  2.9976 -0.5105 -0.9946
 4790TIP3    H235930   3.845   4.478   1.859 -1.7670 -0.3568 -0.5345
 4791TIP3   OH235931   1.108   4.218   8.677  0.4909 -0.0804 -0.0340
 4791TIP3    H135932   1.044   4.175   8.734 -2.4472  1.2391 -2.0399
 4791TIP3    H235933   1.105   4.168   8.596  1.3751  0.5315 -0.4540
 4792TIP3   OH235934   5.569   2.621   7.202  0.1661 -0.4099  0.5140
 4792TIP3    H135935   5.539   2.538   7.240  0.0988 -0.2080  0.9183
 4792TIP3    H235936   5.658   2.631   7.235  0.0466 -0.1487  0.7702
 4793TIP3   OH235937   4.126   3.317   1.340  0.3382  0.3244 -0.7150
 4793TIP3    H135938   4.148   3.349   1.427  1.0196 -0.9045 -0.4129
 4793TIP3    H235939   4.183   3.366   1.281 -0.9432  2.0129 -0.6298
 4794TIP3   OH235940   5.742   0.403   2.060  0.9470 -0.3487  0.8296
 4794TIP3    H135941   5.798   0.338   2.103  2.1084  0.1643  0.1423
 4794TIP3    H235942   5.771   0.487   2.096  1.2659  0.0032 -0.2170
 4795TIP3   OH235943   5.204   4.057   0.370  0.2064  0.2086 -0.3587
 4795TIP3    H135944   5.142   3.984   0.365 -0.0476  0.3319  0.6221
 4795TIP3    H235945   5.266   4.030   0.438  0.6011  0.5527 -0.5806
 4796TIP3   OH235946   0.731   2.040   7.375 -0.1594 -0.3204 -0.1086
 4796TIP3    H135947   0.680   2.016   7.452 -0.2980 -0.8334 -0.3539
 4796TIP3    H235948   0.808   1.983   7.379 -0.0800 -0.2234 -0.2521
 4797TIP3   OH235949   6.480   0.545   1.371 -0.8447  0.0487 -0.5392
 4797TIP3    H135950   6.426   0.469   1.392 -1.4075  1.1928  2.7079
 4797TIP3    H235951   6.418   0.618   1.365 -0.0639  0.6822 -1.1221
 4798TIP3   OH235952   1.953   1.729   6.264 -0.2434  0.0118  0.4080
 4798TIP3    H135953   1.948   1.781   6.184 -0.9936 -2.0236 -0.9426
 4798TIP3    H235954   2.019   1.774   6.318  0.5355  1.2549 -1.4761
 4799TIP3   OH235955   1.569   6.370   1.502  0.3857  0.1035 -0.1637
 4799TIP3    H135956   1.626   6.417   1.562  0.0857  0.1492  0.0880
 4799TIP3    H235957   1.484   6.412   1.512 -0.1125 -1.0915  0.7479
 4800TIP3   OH235958   6.033   1.195   2.486 -0.6343  0.1946  0.4544
 4800TIP3    H135959   6.004   1.112   2.524 -2.2223  0.3265 -0.3901
 4800TIP3    H235960   6.027   1.258   2.558  0.9617 -0.4482  1.2083
 4801TIP3   OH235961   0.531   1.983   7.884 -0.4061 -0.0256 -0.8944
 4801TIP3    H135962   0.587   1.908   7.901 -0.6393  0.1266  0.7774
 4801TIP3    H235963   0.517   2.022   7.971 -0.9127  1.4934 -1.6236
 4802TIP3   OH235964   5.993   0.555   0.114 -0.0574  0.0795  0.0522
 4802TIP3    H135965   5.941   0.475   0.123 -0.5743  0.2808 -1.0211
 4802TIP3    H235966   5.968   0.607   0.190 -0.1770 -0.5225  0.4362
 4803TIP3   OH235967   2.653   1.205   2.011 -0.7653  0.1409  0.7196
 4803TIP3    H135968   2.722   1.266   2.036 -0.2396  0.1068 -0.5641
 4803TIP3    H235969   2.693   1.118   2.018 -0.2516  0.1822 -1.1744
 4804TIP3   OH235970   0.440   3.839   8.232 -0.6130 -0.3745 -0.0891
 4804TIP3    H135971   0.391   3.818   8.312 -1.1186  0.1796 -0.2465
 4804TIP3    H235972   0.427   3.933   8.220  0.7650 -0.1450  0.0398
 4805TIP3   OH235973   2.092   0.760   7.415 -0.2171  0.0294  0.0842
 4805TIP3    H135974   2.013   0.713   7.385 -0.4003  1.7355 -2.4172
 4805TIP3    H235975   2.137   0.697   7.471 -2.3077 -1.7523 -0.0776
 4806TIP3   OH235976   0.531   0.536   0.926  0.2543  0.0180 -0.3486
 4806TIP3    H135977   0.440   0.506   0.929  0.3072 -0.0837  2.3197
 4806TIP3    H235978   0.531   0.609   0.864 -1.3421 -0.7956 -1.3667
 4807TIP3   OH235979   4.259   2.328   7.328  0.1472 -0.1470 -0.3606
 4807TIP3    H135980   4.331   2.345   7.267  0.6611 -0.1010  0.2595
 4807TIP3    H235981   4.189   2.386   7.298  1.6873  2.8700  1.4127
 4808TIP3   OH235982   0.723   3.936   0.259  0.0379  0.2720 -1.0091
 4808TIP3    H135983   0.750   3.849   0.229 -0.6308 -0.3160  0.0551
 4808TIP3    H235984   0.661   3.919   0.330 -0.2600  1.6201 -0.9250
 4809TIP3   OH235985   1.473   0.366   1.261 -0.2441 -0.0326 -0.3959
 4809TIP3    H135986   1.442   0.292   1.209 -1.4799  0.6785 -0.7006
 4809TIP3    H235987   1.404   0.381   1.326  1.1159 -0.6951  1.3059
 4810TIP3   OH235988   2.498   4.278   1.427  0.4321 -0.3191  0.1104
 4810TIP3    H135989   2.501   4.226   1.507  0.8816 -0.4519  0.0098
 4810TIP3    H235990   2.406   4.302   1.417  0.5024  0.4571  1.1597
 4811TIP3   OH235991   2.872   2.337   7.769 -0.1202  0.1422  0.2712
 4811TIP3    H135992   2.939   2.405   7.777 -1.0411  1.1280 -0.2307
 4811TIP3    H235993   2.798   2.380   7.727 -1.5551 -0.6081  1.9123
 4812TIP3   OH235994   6.633   2.833   0.020 -0.8987 -0.2068  0.0431
 4812TIP3    H135995   6.656   2.825   0.113  0.1999 -0.0195 -0.1995
 4812TIP3    H235996   6.658   2.922  -0.004 -2.9706  0.4293  0.0176
 4813TIP3   OH235997   5.015   3.445   8.492  0.6867  0.0453  0.1612
 4813TIP3    H135998   4.994   3.449   8.398  1.0469  1.4738  0.1150
 4813TIP3    H235999   5.062   3.363   8.502  0.5503 -0.1829 -0.9015
 4814TIP3   OH236000   1.656   2.126   8.220  0.0012 -0.1164  0.2088
 4814TIP3    H136001   1.592   2.145   8.289  1.0262  1.1710  0.8686
 4814TIP3    H236002   1.639   2.192   8.153  1.2885  0.9562  0.8847
 4815TIP3   OH236003   2.390   2.175   7.516 -0.1609 -0.6377  0.1768
 4815TIP3    H136004   2.458   2.241   7.504 -0.1167 -0.8708 -0.9553
 4815TIP3    H236005   2.320   2.221   7.562  0.7609 -0.4052  1.4086
 4816TIP3   OH236006   2.948   3.936   0.930 -0.2720 -0.5873  0.3452
 4816TIP3    H136007   2.857   3.950   0.955  0.1937  0.5810  1.4976
 4816TIP3    H236008   2.981   3.875   0.995 -0.3990 -1.5717 -0.4916
 4817TIP3   OH236009   2.661   0.108   8.232 -0.2693 -0.8506  0.4233
 4817TIP3    H136010   2.739   0.064   8.267 -0.7923 -0.6109  1.9756
 4817TIP3    H236011   2.591   0.043   8.243 -0.1385 -1.4654 -1.9413
 4818TIP3   OH236012   0.421   3.463   1.782 -0.1452  0.1875  0.1313
 4818TIP3    H136013   0.511   3.481   1.755 -0.9785  3.5324 -0.8076
 4818TIP3    H236014   0.404   3.374   1.750  2.4571 -0.1415 -0.5512
 4819TIP3   OH236015   0.025   0.385   0.967  0.0841 -0.5499  0.2078
 4819TIP3    H136016   0.017   0.314   1.031  2.6487 -0.9582  0.1742
 4819TIP3    H236017   0.004   0.343   0.883 -0.1441 -0.8189  0.3959
 4820TIP3   OH236018   1.050   2.470   0.626 -0.2253  0.0851 -0.2505
 4820TIP3    H136019   1.122   2.531   0.639 -0.2089  0.2211 -0.9356
 4820TIP3    H236020   1.038   2.428   0.711  0.9498 -0.2618 -0.2409
 4821TIP3   OH236021   3.450   4.282   0.435  0.0241 -0.2334  0.0291
 4821TIP3    H136022   3.416   4.296   0.523 -1.5004  0.6482 -0.6671
 4821TIP3    H236023   3.403   4.206   0.402 -0.4245  0.2556 -0.4976
 4822TIP3   OH236024   4.838   6.175   8.394  0.1772 -0.0920  0.3007
 4822TIP3    H136025   4.762   6.142   8.441 -0.5410 -2.4243 -2.2280
 4822TIP3    H236026   4.802   6.208   8.311  1.6695  1.3043  0.1545
 4823TIP3   OH236027   0.963   6.087   1.652  0.2890  0.3234 -0.5060
 4823TIP3    H136028   1.052   6.086   1.686  0.4248  2.5822 -0.6488
 4823TIP3    H236029   0.915   6.144   1.712 -0.8293 -0.0779 -0.9869
 4824TIP3   OH236030   0.358   0.267   8.817  0.4456  0.3900  0.2494
 4824TIP3    H136031   0.384   0.337   8.877  1.7349  1.1549 -1.1264
 4824TIP3    H236032   0.435   0.209   8.814 -0.2244 -0.5335  0.5768
 4825TIP3   OH236033   4.120   1.223   7.613  0.0528  0.1532 -0.2723
 4825TIP3    H136034   4.144   1.219   7.520 -0.9617 -0.9186 -0.5164
 4825TIP3    H236035   4.073   1.305   7.622  2.3752  1.5533 -0.1038
 4826TIP3   OH236036   3.626   6.032   8.846 -0.1700 -0.4213  0.5340
 4826TIP3    H136037   3.631   5.947   8.888 -1.3070 -0.5220  0.4846
 4826TIP3    H236038   3.571   6.085   8.903 -0.8920 -0.2529 -0.2901
 4827TIP3   OH236039   2.950   4.631   8.061 -0.3551  0.6850  0.2642
 4827TIP3    H136040   2.970   4.578   7.984  1.0326  0.8834  0.4646
 4827TIP3    H236041   2.947   4.568   8.133  1.8863  0.8751  0.6024
 4828TIP3   OH236042   0.667   4.622   1.536 -0.1918  1.0268  0.1405
 4828TIP3    H136043   0.676   4.717   1.526  1.4416  0.8037 -0.8440
 4828TIP3    H236044   0.662   4.609   1.631 -1.1310  2.1384  0.2570
 4829TIP3   OH236045   2.211   5.197   8.250  0.0865  0.4636  0.2564
 4829TIP3    H136046   2.150   5.204   8.177  0.3439  1.8666  0.1461
 4829TIP3    H236047   2.251   5.111   8.240 -1.3043 -0.1592 -0.1063
 4830TIP3   OH236048   2.092   6.522   2.226  0.2984 -0.1853  0.1408
 4830TIP3    H136049   2.100   6.617   2.226  0.8360 -0.2212 -0.9088
 4830TIP3    H236050   2.081   6.499   2.319 -2.0584  1.0496  0.2272
 4831TIP3   OH236051   3.944   0.971   7.068  0.2571  0.2707  0.2162
 4831TIP3    H136052   3.876   0.942   7.007 -0.4262  0.0486  1.0601
 4831TIP3    H236053   4.024   0.929   7.037 -0.4014 -1.2365  0.4608
 4832TIP3   OH236054   0.636   3.101   8.853  0.7492  0.1852  0.1105
 4832TIP3    H136055   0.587   3.040   8.908  1.9265 -3.3315 -2.3480
 4832TIP3    H236056   0.727   3.075   8.864  1.2973  1.5010 -1.0584
 4833TIP3   OH236057   1.434   4.961   7.694 -0.6830  0.1846  0.2291
 4833TIP3    H136058   1.473   4.947   7.781 -1.7733  0.7059  0.8188
 4833TIP3    H236059   1.508   4.984   7.638 -0.0298  0.3708  1.1446
 4834TIP3   OH236060   6.773   6.106   0.980 -0.0760  0.5143 -0.1611
 4834TIP3    H136061   6.842   6.148   0.929  3.3008 -3.1354  0.8804
 4834TIP3    H236062   6.790   6.134   1.070  0.3786 -0.7089  0.1552
 4835TIP3   OH236063   1.490   6.272   1.838 -0.0027 -0.4920 -0.3593
 4835TIP3    H136064   1.566   6.261   1.895 -0.8027  0.0083  0.8520
 4835TIP3    H236065   1.501   6.359   1.800 -1.2845  0.7787  1.9631
 4836TIP3   OH236066   4.503   6.258   0.921  0.0284 -0.1618  0.2028
 4836TIP3    H136067   4.496   6.287   1.012 -2.0841  1.2281 -0.3249
 4836TIP3    H236068   4.539   6.334   0.874 -0.1298 -0.4057 -0.3245
 4837TIP3   OH236069   2.412   1.526   1.321 -0.3007  0.1060  0.1183
 4837TIP3    H136070   2.362   1.534   1.403  0.0558 -0.7871  0.4236
 4837TIP3    H236071   2.486   1.585   1.333 -0.7130  0.6410  0.0833
 4838TIP3   OH236072   4.986   2.363   0.960 -0.4705  0.4308 -0.1609
 4838TIP3    H136073   5.052   2.424   0.991  0.7756 -0.8940 -0.1145
 4838TIP3    H236074   4.987   2.373   0.865  1.5813 -1.2467 -0.3988
 4839TIP3   OH236075   6.722   4.002   6.837  0.1203  0.3216  0.0247
 4839TIP3    H136076   6.701   4.093   6.815  0.0064  0.6196  1.2876
 4839TIP3    H236077   6.810   3.988   6.802  0.0849  0.8675 -0.2908
 4840TIP3   OH236078   5.463   0.618   6.612  0.0930  0.6124 -0.6057
 4840TIP3    H136079   5.451   0.560   6.538  0.4769  0.4382 -0.5346
 4840TIP3    H236080   5.391   0.598   6.671  0.7130 -0.4275 -0.1778
 4841TIP3   OH236081   4.028   5.090   8.386  0.2287 -0.1879 -0.4984
 4841TIP3    H136082   4.038   5.156   8.317  0.0892  0.0132 -0.3287
 4841TIP3    H236083   4.110   5.094   8.435  0.2997 -0.2807 -0.6090
 4842TIP3   OH236084   1.064   0.730   1.164  0.2624 -0.7229  0.1913
 4842TIP3    H136085   1.093   0.723   1.255  2.3311 -0.7518 -0.4175
 4842TIP3    H236086   1.008   0.653   1.151 -0.5833 -0.3776  1.5889
 4843TIP3   OH236087   1.478   0.030   8.532  0.0049 -0.1434 -0.2824
 4843TIP3    H136088   1.490  -0.048   8.477 -0.3379  0.1762 -0.8246
 4843TIP3    H236089   1.400   0.072   8.496  0.8722  1.0873 -0.7940
 4844TIP3   OH236090   2.915   0.196   0.918 -0.4372  0.0273  0.2691
 4844TIP3    H136091   2.929   0.203   0.823 -0.7239 -0.8976  0.1447
 4844TIP3    H236092   2.918   0.102   0.935 -1.4758  0.1215  1.0104
 4845TIP3   OH236093   4.869   5.242   7.937  0.3577  1.0244  0.5861
 4845TIP3    H136094   4.944   5.181   7.938  0.0486  0.6163 -0.2176
 4845TIP3    H236095   4.903   5.320   7.893 -0.1423  0.1994 -1.3566
 4846TIP3   OH236096   6.465   0.534   8.393 -0.6086  0.4403 -0.6501
 4846TIP3    H136097   6.505   0.620   8.380  1.3908 -0.4838 -0.9644
 4846TIP3    H236098   6.518   0.492   8.461 -0.1214 -1.3459 -2.0324
 4847TIP3   OH236099   0.224   6.558   0.930 -0.0962 -0.5105 -0.0124
 4847TIP3    H136100   0.233   6.650   0.906 -1.4231 -0.2933  0.2510
 4847TIP3    H236101   0.314   6.529   0.947  0.2441  1.0128  0.9706
 4848TIP3   OH236102   4.936   1.097   8.109  0.0054  0.1087 -0.0171
 4848TIP3    H136103   5.002   1.055   8.054  0.6143 -1.2357  1.6381
 4848TIP3    H236104   4.863   1.035   8.109  0.2499 -0.1955  1.1311
 4849TIP3   OH236105   5.891   0.746   0.346  0.0086 -0.4964 -0.1589
 4849TIP3    H136106   5.982   0.771   0.328  0.0483  0.9188  1.7055
 4849TIP3    H236107   5.842   0.828   0.343 -0.9540 -1.0280  0.2803
 4850TIP3   OH236108   6.139   2.809   8.079  0.0448  0.2516 -0.3798
 4850TIP3    H136109   6.140   2.860   7.998  0.6723  0.3241 -0.3353
 4850TIP3    H236110   6.148   2.718   8.051  0.7055  0.3119 -0.3730
 4851TIP3   OH236111   4.459   5.434   0.107 -0.0898  0.1446 -0.4969
 4851TIP3    H136112   4.422   5.497   0.045 -0.9024 -0.1121 -0.2878
 4851TIP3    H236113   4.530   5.482   0.150 -0.5297  0.8382 -0.5193
 4852TIP3   OH236114   5.507   3.541   1.188 -0.3143  0.4133  0.7471
 4852TIP3    H136115   5.434   3.544   1.126 -0.6685  0.3883  1.1547
 4852TIP3    H236116   5.582   3.512   1.136 -1.0775 -1.7381  0.7634
 4853TIP3   OH236117   2.438   1.774   0.979 -0.1955 -0.2091 -0.0471
 4853TIP3    H136118   2.462   1.865   0.990  0.4719 -0.5672  1.9053
 4853TIP3    H236119   2.448   1.756   0.886 -1.2661  1.9386 -0.6229
 4854TIP3   OH236120   2.830   2.997   8.686  0.0587  0.4307 -0.7890
 4854TIP3    H136121   2.902   2.959   8.737 -0.7960  0.3674  0.3963
 4854TIP3    H236122   2.860   3.086   8.665 -0.0211  0.8572  0.7925
 4855TIP3   OH236123   2.055   2.597   1.769  0.0224  0.1171  0.3081
 4855TIP3    H136124   1.998   2.669   1.742 -2.6549 -1.3535  1.5233
 4855TIP3    H236125   2.030   2.524   1.712  3.4699  0.2929 -1.6843
 4856TIP3   OH236126   2.938   4.622   7.198  0.2338 -0.4239 -0.0941
 4856TIP3    H136127   2.850   4.607   7.234 -0.2374  1.5208 -0.2733
 4856TIP3    H236128   2.929   4.601   7.105 -0.0333 -0.3587 -0.0858
 4857TIP3   OH236129   0.341   5.894   8.621  0.2103  0.0311  0.0559
 4857TIP3    H136130   0.391   5.815   8.604  0.5855  0.2722  0.0148
 4857TIP3    H236131   0.352   5.910   8.715 -2.1492 -1.4965  0.6836
 4858TIP3   OH236132   0.039   3.673   0.882  0.1199 -0.1520 -0.0434
 4858TIP3    H136133   0.088   3.593   0.901 -0.0626 -0.6104 -1.3989
 4858TIP3    H236134  -0.003   3.695   0.965  0.4541 -1.2652  0.4479
 4859TIP3   OH236135   2.071   0.018   8.231 -0.2866 -0.1392 -0.2312
 4859TIP3    H136136   2.032   0.012   8.143 -0.4979 -1.6497 -0.0706
 4859TIP3    H236137   2.041  -0.062   8.275  1.9068 -0.7039  0.3567
 4860TIP3   OH236138   5.334   6.139   0.345 -1.0453 -0.6934  0.0734
 4860TIP3    H136139   5.283   6.218   0.361 -1.0048 -0.5413 -0.5389
 4860TIP3    H236140   5.284   6.091   0.279 -1.0501 -1.1638  0.4093
 4861TIP3   OH236141   1.191   4.687   0.554  0.4823  0.0409  0.3231
 4861TIP3    H136142   1.114   4.718   0.506  0.4323  0.0503  0.4079
 4861TIP3    H236143   1.156   4.623   0.616  0.6564 -0.5636 -0.1993
 4862TIP3   OH236144   4.800   0.124   6.623  0.2940 -1.1302  0.5411
 4862TIP3    H136145   4.751   0.181   6.564  0.2938 -1.1022  0.5677
 4862TIP3    H236146   4.879   0.101   6.575  1.3569  0.6518  1.3240
 4863TIP3   OH236147   0.386   5.856   7.868  0.2032 -0.1325  0.1442
 4863TIP3    H136148   0.449   5.791   7.898  0.3454 -0.1413 -0.1730
 4863TIP3    H236149   0.343   5.816   7.793  0.7108  0.3662 -0.4245
 4864TIP3   OH236150   3.632   0.842   1.560  0.7163 -0.2385  0.2425
 4864TIP3    H136151   3.711   0.790   1.573  1.5817  1.3794  1.9297
 4864TIP3    H236152   3.650   0.925   1.604 -1.7668  0.3604  0.3063
 4865TIP3   OH236153   1.131   6.555   6.438 -0.6432  0.5428 -0.1838
 4865TIP3    H136154   1.040   6.536   6.458  0.1689 -2.0006  1.7297
 4865TIP3    H236155   1.159   6.483   6.381  0.7980 -0.4379  1.6093
 4866TIP3   OH236156   5.957   1.228   8.629 -0.8744 -0.1305 -0.0431
 4866TIP3    H136157   5.922   1.147   8.591 -0.0507 -0.6684  0.3027
 4866TIP3    H236158   5.974   1.205   8.721 -0.2485  0.3061 -0.0437
 4867TIP3   OH236159   2.133   1.479   7.333  0.4102  0.0096 -0.9612
 4867TIP3    H136160   2.140   1.448   7.243 -2.7278 -1.4478 -0.8294
 4867TIP3    H236161   2.070   1.551   7.329  2.2062  1.7356 -0.2027
 4868TIP3   OH236162   1.575   2.277   0.848 -0.3535  0.8242  0.3729
 4868TIP3    H136163   1.502   2.229   0.808 -0.3811 -0.2127  1.5885
 4868TIP3    H236164   1.569   2.365   0.813  0.1623 -0.2089 -2.6205
 4869TIP3   OH236165   0.317   5.290   0.119 -0.4231  0.0489  0.1809
 4869TIP3    H136166   0.333   5.195   0.125 -0.0867  0.1924  2.0024
 4869TIP3    H236167   0.224   5.296   0.096 -0.5719 -0.7322  0.5321
 4870TIP3   OH236168   0.813   2.489   0.200 -0.7915  0.6439 -0.0024
 4870TIP3    H136169   0.906   2.471   0.211 -1.2372 -1.3086  0.9931
 4870TIP3    H236170   0.775   2.406   0.171 -2.0715  1.7127 -1.5740
 4871TIP3   OH236171   6.749   4.535   7.414 -0.4184  0.3166  0.1451
 4871TIP3    H136172   6.788   4.587   7.484 -0.1451 -0.6696  0.7430
 4871TIP3    H236173   6.807   4.550   7.339 -0.6060  1.2276  0.1730
 4872TIP3   OH236174   0.899   6.128   0.641 -0.5006 -0.0498 -0.0896
 4872TIP3    H136175   0.916   6.188   0.569 -2.2802  0.1410 -0.3992
 4872TIP3    H236176   0.826   6.074   0.611 -0.4697 -0.7960  1.0941
 4873TIP3   OH236177   1.128   2.528   8.032 -0.6735 -0.0868  0.1528
 4873TIP3    H136178   1.113   2.612   7.988  1.4865 -0.2070 -0.9671
 4873TIP3    H236179   1.111   2.462   7.965 -1.2376 -0.4975  0.6927
 4874TIP3   OH236180   5.256   1.649   8.129  0.3738 -0.3862 -0.0634
 4874TIP3    H136181   5.255   1.738   8.166  1.0676 -0.3638 -0.0846
 4874TIP3    H236182   5.343   1.616   8.150  0.8967 -0.2828 -1.9098
 4875TIP3   OH236183   6.533   6.335   2.463 -0.2237  0.4751  0.2312
 4875TIP3    H136184   6.625   6.313   2.451 -0.2920  0.8178 -1.0432
 4875TIP3    H236185   6.487   6.251   2.464  0.0561  0.3246  0.5193
 4876TIP3   OH236186   6.540   5.296   8.688  0.3665  0.2805  0.2128
 4876TIP3    H136187   6.466   5.246   8.652 -0.5913  0.5752  1.6846
 4876TIP3    H236188   6.616   5.240   8.674 -0.1669 -0.1713 -1.0486
 4877TIP3   OH236189   0.571   4.479   1.305  0.2880 -0.1333 -0.0896
 4877TIP3    H136190   0.566   4.413   1.375  2.3201 -1.2306 -0.8911
 4877TIP3    H236191   0.523   4.554   1.340 -0.0920 -1.1965  1.8360
 4878TIP3   OH236192   3.487   5.150   0.970 -0.4905  0.2275 -0.1863
 4878TIP3    H136193   3.526   5.062   0.973 -0.1675  0.3257 -1.0465
 4878TIP3    H236194   3.541   5.202   1.029  0.2493  0.1904 -0.8153
 4879TIP3   OH236195   2.143   0.014   8.550  0.0272  0.1731  0.1720
 4879TIP3    H136196   2.051   0.021   8.574  0.1019 -0.0547  0.5322
 4879TIP3    H236197   2.187   0.078   8.607 -0.1090  1.5310 -1.1869
 4880TIP3   OH236198   3.751   1.070   8.446 -0.4705  0.4444  0.0683
 4880TIP3    H136199   3.826   1.053   8.502 -1.2232  0.0919  0.9889
 4880TIP3    H236200   3.675   1.058   8.502 -1.2398  0.4728 -0.9287
 4881TIP3   OH236201   3.335   2.032   1.682  0.2617 -0.7005  0.3745
 4881TIP3    H136202   3.291   1.988   1.609  1.4602 -0.3344 -0.6088
 4881TIP3    H236203   3.267   2.085   1.722  0.1438  1.4331 -2.3513
 4882TIP3   OH236204   2.552   6.424   1.512  0.0552  0.0865  0.7204
 4882TIP3    H136205   2.633   6.442   1.560  0.2196  1.2340  0.0546
 4882TIP3    H236206   2.508   6.509   1.508 -0.0039  0.0099 -1.0328
 4883TIP3   OH236207   2.940   0.052   7.430  0.1396  0.4422  0.0977
 4883TIP3    H136208   2.959  -0.037   7.399 -1.1283  0.7800 -1.8128
 4883TIP3    H236209   2.858   0.043   7.478  0.4171  0.4735  0.5878
 4884TIP3   OH236210   0.200   2.107   1.765 -0.1858  0.0787  0.3953
 4884TIP3    H136211   0.256   2.171   1.721  0.4141 -0.4142  0.4209
 4884TIP3    H236212   0.169   2.050   1.695  0.7093 -0.6610  0.5787
 4885TIP3   OH236213   5.228   0.184   1.696  0.1597 -0.1784 -0.4025
 4885TIP3    H136214   5.257   0.269   1.730  1.2060 -0.5929 -0.2267
 4885TIP3    H236215   5.272   0.175   1.612  1.0446 -1.0792  0.1385
 4886TIP3   OH236216   3.930   1.589   1.864 -0.2064 -0.3633  0.1886
 4886TIP3    H136217   3.956   1.677   1.891 -0.7044  0.0502 -0.6359
 4886TIP3    H236218   3.917   1.595   1.770 -0.7650 -1.1926  0.1931
 4887TIP3   OH236219   5.324   6.420   1.615 -0.4254  0.2402 -0.6792
 4887TIP3    H136220   5.330   6.485   1.545  1.4708 -0.2113 -0.9877
 4887TIP3    H236221   5.323   6.471   1.696 -1.3742  0.7213 -0.9828
 4888TIP3   OH236222   2.623   3.084   7.256 -0.1970  0.1891  0.5140
 4888TIP3    H136223   2.615   3.176   7.283  0.1206  0.8563 -1.4964
 4888TIP3    H236224   2.637   3.088   7.162 -1.1057 -1.9789  0.2296
 4889TIP3   OH236225   0.938   0.259   2.621  0.0462 -0.1371  0.5998
 4889TIP3    H136226   0.901   0.175   2.649 -1.1446  0.1460 -0.0695
 4889TIP3    H236227   0.879   0.325   2.658  0.3173  0.3571  0.1589
 4890TIP3   OH236228   4.225   1.252   1.635  0.6729  0.4059  0.0377
 4890TIP3    H136229   4.294   1.241   1.570  1.7454  0.7980  1.0687
 4890TIP3    H236230   4.201   1.162   1.659  1.0402  0.2620 -0.1206
 4891TIP3   OH236231   6.751   0.097   0.376 -0.3308  0.1999 -0.0831
 4891TIP3    H136232   6.730   0.022   0.431 -0.3670 -1.0877 -1.7947
 4891TIP3    H236233   6.844   0.113   0.392 -0.6140  0.6649  1.2653
 4892TIP3   OH236234   4.183   6.309   1.729  0.0169 -0.1240  0.2522
 4892TIP3    H136235   4.228   6.322   1.645 -1.1245  0.2106 -0.3322
 4892TIP3    H236236   4.208   6.220   1.756  0.1451 -0.3614 -0.6087
 4893TIP3   OH236237   3.741   4.192   0.116 -0.0735  0.1099 -0.1320
 4893TIP3    H136238   3.706   4.103   0.119 -0.6169  0.1961 -2.0664
 4893TIP3    H236239   3.800   4.192   0.040  0.5327  1.2039  0.3094
 4894TIP3   OH236240   1.030   2.138   0.755 -0.4517  0.4165  0.3601
 4894TIP3    H136241   0.963   2.128   0.688 -0.1178 -0.0754  0.0970
 4894TIP3    H236242   0.982   2.134   0.838 -0.6178 -1.0806  0.2112
 4895TIP3   OH236243   5.389   5.492   1.852  0.7103  1.0196  0.1150
 4895TIP3    H136244   5.442   5.476   1.775  2.5415  0.1934  1.4959
 4895TIP3    H236245   5.437   5.452   1.925 -3.1184 -2.4596  1.1286
 4896TIP3   OH236246   6.603   0.206   8.360 -0.1908  0.1401 -0.1853
 4896TIP3    H136247   6.550   0.253   8.296 -1.0651  0.8429  1.0054
 4896TIP3    H236248   6.691   0.204   8.322 -0.1215  2.6772 -0.3767
 4897TIP3   OH236249   6.096   3.482   7.518  0.3140  0.1850 -0.6686
 4897TIP3    H136250   6.143   3.400   7.502  0.1432  0.2053 -1.3167
 4897TIP3    H236251   6.079   3.517   7.430  1.9103  1.8083 -0.3868
 4898TIP3   OH236252   5.055   2.821   1.162  0.2218  0.0314 -0.0308
 4898TIP3    H136253   5.138   2.798   1.204 -0.8055 -1.5179  1.3236
 4898TIP3    H236254   5.019   2.891   1.217  1.2650  1.7718 -1.4884
 4899TIP3   OH236255   0.475   1.163   2.048  0.0849  0.7786  0.1417
 4899TIP3    H136256   0.526   1.174   2.128  0.0036  2.0040  0.0529
 4899TIP3    H236257   0.401   1.107   2.073  1.2154 -0.6620  0.3696
 4900TIP3   OH236258   1.741   5.299   0.669 -0.1717 -0.0680  0.3341
 4900TIP3    H136259   1.652   5.332   0.682 -0.2765 -0.4518  0.5870
 4900TIP3    H236260   1.796   5.355   0.723 -0.1225  0.8292 -0.6003
 4901TIP3   OH236261   1.915   4.082   0.169  0.3590  0.0342 -0.9724
 4901TIP3    H136262   2.003   4.116   0.158 -0.5258  2.7028 -0.4981
 4901TIP3    H236263   1.864   4.156   0.201 -1.3153 -2.2545  2.3521
 4902TIP3   OH236264   1.440   0.389   0.981  0.3230  0.4111  0.0122
 4902TIP3    H136265   1.440   0.448   0.906 -2.2560  0.3576 -0.1096
 4902TIP3    H236266   1.356   0.344   0.976  0.1923  0.2026  2.7739
 4903TIP3   OH236267   0.491   6.361   0.384 -0.5925  0.3845  0.1225
 4903TIP3    H136268   0.522   6.288   0.331  0.2868  0.7585  0.1059
 4903TIP3    H236269   0.412   6.392   0.339  1.0132  1.7475 -1.9415
 4904TIP3   OH236270   1.436   3.736   0.018  0.2802  0.0945 -0.1742
 4904TIP3    H136271   1.461   3.825   0.045 -0.6907  0.8969 -1.7596
 4904TIP3    H236272   1.473   3.727  -0.070 -0.8392 -0.5204 -0.5973
 4905TIP3   OH236273   0.365   5.579   6.645  0.3260 -0.5592 -0.0437
 4905TIP3    H136274   0.299   5.643   6.674 -0.6010 -1.6111  0.2289
 4905TIP3    H236275   0.448   5.626   6.652 -0.2002  0.2408  1.2629
 4906TIP3   OH236276   1.025   6.180   7.136  0.2613 -0.0736 -0.1581
 4906TIP3    H136277   0.949   6.161   7.190 -0.2304  1.4369 -0.2547
 4906TIP3    H236278   0.995   6.169   7.046 -0.2175  1.6249 -0.2396
 4907TIP3   OH236279   6.080   3.003   1.903  0.1990  0.0889  0.3837
 4907TIP3    H136280   6.016   2.978   1.970 -0.1446  0.9752  0.3924
 4907TIP3    H236281   6.149   2.937   1.911  0.1077  0.1085  1.5339
 4908TIP3   OH236282   4.519   1.451   8.162  0.0365  0.6054 -0.2151
 4908TIP3    H136283   4.458   1.523   8.178 -0.4667 -0.0978  1.1419
 4908TIP3    H236284   4.568   1.442   8.243 -1.0157 -1.6052  0.2554
 4909TIP3   OH236285   0.793   5.913   7.669  0.3196 -0.1162  0.2522
 4909TIP3    H136286   0.791   5.856   7.745 -2.0642  0.9322  1.1053
 4909TIP3    H236287   0.827   5.996   7.702  3.1692 -0.7312 -0.8361
 4910TIP3   OH236288   4.260   3.925   0.634  0.9247 -0.3560  0.0261
 4910TIP3    H136289   4.182   3.934   0.687  0.0284  0.0020 -1.2983
 4910TIP3    H236290   4.309   3.854   0.675 -0.2604 -0.8213  0.6822
 4911TIP3   OH236291   2.603   5.902   7.084  0.2637  0.0060 -0.6140
 4911TIP3    H136292   2.629   5.898   6.992 -0.4647 -0.4715 -0.8098
 4911TIP3    H236293   2.648   5.829   7.126  2.2307  1.4231 -0.1387
 4912TIP3   OH236294   3.113   3.661   8.627 -0.2069 -0.5574  0.1316
 4912TIP3    H136295   3.021   3.633   8.623 -0.9075  1.0908  2.3428
 4912TIP3    H236296   3.115   3.746   8.583  0.0973 -0.3093  0.6047
 4913TIP3   OH236297   0.147   1.398   0.187  0.8452 -0.6615  0.7509
 4913TIP3    H136298   0.113   1.411   0.099  0.8617  0.0803  0.8478
 4913TIP3    H236299   0.153   1.303   0.197 -0.2693 -0.7840  0.3717
 4914TIP3   OH236300   5.186   0.934   8.266 -0.1227  0.1655  0.5763
 4914TIP3    H136301   5.204   0.843   8.243  3.3777  0.6705  0.7631
 4914TIP3    H236302   5.100   0.952   8.229 -0.3242 -2.7967 -0.6446
 4915TIP3   OH236303   0.132   2.343   7.549  0.1176  0.0339  0.1620
 4915TIP3    H136304   0.202   2.282   7.527  0.3564  0.2396  0.3318
 4915TIP3    H236305   0.113   2.389   7.467 -1.2099 -1.4001 -0.3637
 4916TIP3   OH236306   2.434   3.603   7.989 -0.6324  0.2576  0.0483
 4916TIP3    H136307   2.496   3.559   7.931 -1.2065 -0.1377 -0.2770
 4916TIP3    H236308   2.458   3.695   7.984  0.6317  0.0052  0.7906
 4917TIP3   OH236309   0.382   1.167   0.664  0.1614 -0.2116  0.3067
 4917TIP3    H136310   0.452   1.185   0.727 -0.4990 -0.2140  1.0514
 4917TIP3    H236311   0.328   1.101   0.707 -1.3806  1.1679  0.5638
 4918TIP3   OH236312   6.741   6.666   1.060 -0.5910 -0.4722  1.1071
 4918TIP3    H136313   6.648   6.660   1.082 -1.6020 -2.1844 -2.7837
 4918TIP3    H236314   6.746   6.640   0.968  3.9719 -2.1058  1.5453
 4919TIP3   OH236315   4.353   0.979   1.952 -0.0177  0.4175  0.2415
 4919TIP3    H136316   4.419   1.006   2.016 -0.4419  0.3872  0.6902
 4919TIP3    H236317   4.302   0.911   1.996  0.1395 -0.1212 -0.3815
 4920TIP3   OH236318   0.419   0.644   2.214 -0.2606  0.4384 -0.5303
 4920TIP3    H136319   0.344   0.588   2.235  0.5970 -0.0277  1.4934
 4920TIP3    H236320   0.409   0.720   2.271  0.5447  0.6049 -0.6010
 4921TIP3   OH236321   3.539   3.238   0.850  0.7389 -0.1450  0.4501
 4921TIP3    H136322   3.536   3.181   0.773  1.8495  1.5630 -0.9280
 4921TIP3    H236323   3.527   3.326   0.815 -1.1989  0.5289  2.5482
 4922TIP3   OH236324   5.542   3.636   2.695  0.1250  0.4302  0.3872
 4922TIP3    H136325   5.575   3.547   2.692 -0.1892  0.2927  0.8982
 4922TIP3    H236326   5.451   3.629   2.665  0.3935  0.7345 -0.5431
 4923TIP3   OH236327   1.280   1.177   1.843 -0.5707 -0.4458  0.8202
 4923TIP3    H136328   1.309   1.109   1.782  0.9399  1.4951 -0.7837
 4923TIP3    H236329   1.343   1.174   1.915  0.2064 -0.0110  0.1741
 4924TIP3   OH236330   6.590   2.177   7.202  0.2824 -0.2600  0.7887
 4924TIP3    H136331   6.541   2.184   7.284  1.3157  1.4252  1.3223
 4924TIP3    H236332   6.622   2.266   7.186 -1.2764 -0.1513 -2.3554
 4925TIP3   OH236333   3.290   6.068   8.272  0.3257  0.1474  0.6478
 4925TIP3    H136334   3.309   5.975   8.258  0.6783  0.2396  0.5058
 4925TIP3    H236335   3.316   6.110   8.190 -0.3205  0.3034  0.5250
 4926TIP3   OH236336   0.852   6.606   0.951  0.2848 -0.0843 -0.1602
 4926TIP3    H136337   0.854   6.603   1.047  0.2302 -0.1853 -0.1613
 4926TIP3    H236338   0.896   6.525   0.924  0.9663  0.2982 -0.2286
 4927TIP3   OH236339   2.841   1.127   8.319 -0.3182 -0.0480 -0.0485
 4927TIP3    H136340   2.780   1.078   8.263  1.5673 -1.2023 -1.1953
 4927TIP3    H236341   2.874   1.063   8.380 -0.8131  0.7627  1.1109
 4928TIP3   OH236342   2.229   3.967   0.868  0.0396 -0.3994  0.5424
 4928TIP3    H136343   2.282   4.032   0.823 -0.1472  0.1320  1.0728
 4928TIP3    H236344   2.173   3.929   0.800  1.7943 -1.7248 -0.2492
 4929TIP3   OH236345   6.544   2.108   1.591  0.5271  0.4373  0.1626
 4929TIP3    H136346   6.586   2.040   1.643  1.0150  0.0998 -0.6535
 4929TIP3    H236347   6.471   2.138   1.645  0.3634 -0.6647  0.5757
 4930TIP3   OH236348   3.696   2.270   0.300  0.1674  0.5329 -0.3687
 4930TIP3    H136349   3.764   2.208   0.323 -0.0591  0.1149 -0.8136
 4930TIP3    H236350   3.737   2.356   0.308  0.6354  0.2996 -0.2800
 4931TIP3   OH236351   4.104   1.279   0.373  0.3324 -0.3337 -0.3574
 4931TIP3    H136352   4.178   1.219   0.373  0.0442 -0.7934  1.9639
 4931TIP3    H236353   4.041   1.239   0.433 -0.7260  1.2931 -0.3077
 4932TIP3   OH236354   2.767   4.031   8.092 -0.5894  0.1430  0.3420
 4932TIP3    H136355   2.790   4.017   8.000 -1.1763  0.4349  0.1474
 4932TIP3    H236356   2.672   4.020   8.095 -0.8208  1.8770  0.5825
 4933TIP3   OH236357   0.220   5.052   8.837 -0.2977  0.5287 -0.3065
 4933TIP3    H136358   0.223   4.983   8.771  0.7693  1.1284 -0.9157
 4933TIP3    H236359   0.171   5.013   8.910 -2.6748  0.3070 -1.9259
 4934TIP3   OH236360   0.434   4.771   8.636  0.0965  0.4438 -0.5440
 4934TIP3    H136361   0.472   4.738   8.718 -1.2687  0.5480  0.1498
 4934TIP3    H236362   0.340   4.758   8.646 -0.0398 -0.5505 -2.5599
 4935TIP3   OH236363   2.760   6.253   6.859 -0.0222  0.5415 -0.2379
 4935TIP3    H136364   2.676   6.297   6.850  0.1789  0.9024 -0.3919
 4935TIP3    H236365   2.806   6.273   6.778 -0.0508 -0.2291 -0.4423
 4936TIP3   OH236366   6.365   2.107   8.868 -0.1467 -0.1731 -0.8237
 4936TIP3    H136367   6.323   2.183   8.829  0.5431 -0.0665 -1.3895
 4936TIP3    H236368   6.417   2.142   8.940  0.4247 -0.0494 -1.2824
 4937TIP3   OH236369   0.764   4.749   0.461  0.1985  0.3014 -0.8011
 4937TIP3    H136370   0.793   4.759   0.552  0.6078 -0.7781 -0.8001
 4937TIP3    H236371   0.844   4.759   0.409 -0.1134  1.4387 -1.0978
 4938TIP3   OH236372   1.459   0.633   6.774 -0.2028  0.4623 -0.7239
 4938TIP3    H136373   1.520   0.685   6.721 -0.0749  0.1373 -0.9015
 4938TIP3    H236374   1.474   0.662   6.864  1.2234 -0.6079 -0.5917
 4939TIP3   OH236375   3.990   5.093   1.913  0.2276  0.6421 -0.1645
 4939TIP3    H136376   4.048   5.019   1.900 -0.1772 -0.0480  1.7336
 4939TIP3    H236377   4.037   5.152   1.972 -1.4882 -0.6425  2.6574
 4940TIP3   OH236378   4.648   2.191   7.043 -0.5334  0.5811  0.0112
 4940TIP3    H136379   4.709   2.257   7.074 -0.6051  0.2127  0.9771
 4940TIP3    H236380   4.581   2.240   6.996  0.8137  0.9308 -1.6282
 4941TIP3   OH236381   2.208   0.034   2.131 -0.4017  0.0154 -0.0512
 4941TIP3    H136382   2.127   0.043   2.181 -0.8759  0.2216 -0.8282
 4941TIP3    H236383   2.260   0.111   2.154 -0.2205 -0.3505  0.8003
 4942TIP3   OH236384   0.488   3.874   2.267 -0.2501 -1.1410  0.2001
 4942TIP3    H136385   0.511   3.859   2.359 -2.2122  1.6796  1.3286
 4942TIP3    H236386   0.392   3.865   2.265 -0.6779  2.1425 -0.6654
 4943TIP3   OH236387   6.062   0.322   8.185  0.1802  0.4155  0.4014
 4943TIP3    H136388   5.973   0.288   8.201 -0.1316  0.7654 -0.5290
 4943TIP3    H236389   6.089   0.357   8.270 -0.1811 -0.5756  0.9438
 4944TIP3   OH236390   5.043   3.486   0.539 -0.2019 -0.3720  0.2503
 4944TIP3    H136391   4.967   3.517   0.588  0.2408  1.9429 -0.4024
 4944TIP3    H236392   5.103   3.560   0.539  0.5266 -0.8694 -2.3189
 4945TIP3   OH236393   2.387   4.578   1.464  0.3187 -0.2620 -0.1107
 4945TIP3    H136394   2.335   4.516   1.414 -0.7148 -0.2673  0.9069
 4945TIP3    H236395   2.372   4.662   1.421  1.2143 -0.5993 -1.1106
 4946TIP3   OH236396   5.008   2.186   0.314  0.3724 -0.2793  0.7447
 4946TIP3    H136397   5.016   2.137   0.233 -1.1987 -0.2141  0.5344
 4946TIP3    H236398   5.083   2.246   0.313  2.3177 -2.5615  0.9884
 4947TIP3   OH236399   5.779   5.298   0.013 -0.5957  0.1647 -0.0563
 4947TIP3    H136400   5.779   5.371   0.075 -2.7988  1.4965 -1.4783
 4947TIP3    H236401   5.859   5.310  -0.038  0.3084  0.1147  1.3157
 4948TIP3   OH236402   6.213   1.417   7.213 -0.3450 -0.1938  0.6435
 4948TIP3    H136403   6.172   1.336   7.184 -0.2812  0.0823 -0.2376
 4948TIP3    H236404   6.193   1.480   7.144 -3.4012  1.5368  2.8881
 4949TIP3   OH236405   0.067   1.502   0.629 -0.0860  0.2893  0.6613
 4949TIP3    H136406   0.113   1.545   0.558  1.8222  0.0530  1.6903
 4949TIP3    H236407   0.054   1.412   0.598  1.3913 -0.0165  0.8502
 4950TIP3   OH236408   4.669   5.525   8.644 -0.1838 -0.1579 -0.0369
 4950TIP3    H136409   4.743   5.502   8.700 -1.6256  0.1088  2.1150
 4950TIP3    H236410   4.708   5.570   8.569  1.8148 -0.1092  0.9691
 4951TIP3   OH236411   0.736   1.320   1.985 -0.0156  0.5396 -0.4611
 4951TIP3    H136412   0.700   1.284   2.066  1.2879  2.5603  1.1192
 4951TIP3    H236413   0.828   1.334   2.004 -0.1296  3.1348 -1.5012
 4952TIP3   OH236414   2.835   2.864   7.286 -0.5936  0.4938 -0.1618
 4952TIP3    H136415   2.749   2.905   7.291 -0.5183  0.7843 -1.1059
 4952TIP3    H236416   2.848   2.825   7.372 -1.4018  0.9846  0.1930
 4953TIP3   OH236417   6.360   5.504   0.076 -0.4499  0.4736 -0.0183
 4953TIP3    H136418   6.298   5.564   0.116 -0.4158  0.3670  0.1976
 4953TIP3    H236419   6.306   5.443   0.026 -0.7521 -1.1552  2.1520
 4954TIP3   OH236420   5.668   2.102   0.915  0.1350  0.5184 -0.6198
 4954TIP3    H136421   5.682   2.194   0.890  1.0306  0.1502 -1.5601
 4954TIP3    H236422   5.602   2.070   0.854  0.9494  0.1303 -1.3139
 4955TIP3   OH236423   2.604   5.717   1.139 -0.0073  0.0934 -0.4444
 4955TIP3    H136424   2.513   5.691   1.148 -0.1846  0.5537 -0.8618
 4955TIP3    H236425   2.647   5.642   1.099 -0.0893 -0.3289  0.2438
 4956TIP3   OH236426   3.603   1.445   0.797  0.3951  0.0612 -0.3234
 4956TIP3    H136427   3.661   1.516   0.768 -0.8589  1.9822  1.5957
 4956TIP3    H236428   3.658   1.392   0.855  1.1027 -0.0472 -1.0713
 4957TIP3   OH236429   1.040   2.537   1.309  0.7184  0.0813  0.0086
 4957TIP3    H136430   1.014   2.558   1.399  0.3576  0.9458 -0.2867
 4957TIP3    H236431   1.076   2.619   1.275  0.0446  0.0080 -0.9167
 4958TIP3   OH236432   3.238   2.369   1.553 -0.7016 -0.0991 -0.1018
 4958TIP3    H136433   3.212   2.319   1.631 -0.7238  0.5544  0.3158
 4958TIP3    H236434   3.252   2.458   1.585  0.3957 -0.0672 -0.6388
 4959TIP3   OH236435   2.358   0.724   7.321 -0.3386  0.3804 -0.1626
 4959TIP3    H136436   2.362   0.655   7.254  0.1759  0.2683 -0.0160
 4959TIP3    H236437   2.265   0.742   7.331 -0.5853 -1.2671  0.8043
 4960TIP3   OH236438   0.987   6.730   7.380 -0.3717  0.1932 -0.3714
 4960TIP3    H136439   1.022   6.649   7.418 -0.6260  0.0563 -0.4235
 4960TIP3    H236440   0.976   6.789   7.455 -1.5671 -0.3294 -0.1098
 4961TIP3   OH236441   4.122   6.510   6.461  0.0243 -0.0480 -0.3768
 4961TIP3    H136442   4.205   6.469   6.486 -0.6997 -1.4803 -0.2306
 4961TIP3    H236443   4.122   6.594   6.507  0.1322 -1.2381  1.9638
 4962TIP3   OH236444   4.319   2.104   1.766  0.0513 -0.2642  0.4064
 4962TIP3    H136445   4.290   2.037   1.828 -0.4942 -0.4329 -0.0321
 4962TIP3    H236446   4.409   2.124   1.794  0.0555 -0.8341  0.8260
 4963TIP3   OH236447   1.832   0.918   1.229 -0.0065 -0.3958 -0.4686
 4963TIP3    H136448   1.752   0.921   1.176 -0.6171  0.2748  0.4560
 4963TIP3    H236449   1.898   0.881   1.171 -0.8205 -0.3104 -1.4745
 4964TIP3   OH236450   2.259   2.995   0.116 -0.3140 -0.1661 -0.1847
 4964TIP3    H136451   2.171   3.021   0.144  0.0259  0.1901  0.5859
 4964TIP3    H236452   2.317   3.062   0.151  0.2642 -0.3349 -0.7793
 4965TIP3   OH236453   4.820   3.850   8.793 -0.0360  0.1569  0.5120
 4965TIP3    H136454   4.850   3.906   8.865  1.7628 -3.2316  2.6921
 4965TIP3    H236455   4.900   3.821   8.750 -0.8831 -0.8026 -0.4917
 4966TIP3   OH236456   3.169   4.153   8.420 -0.5281 -0.5811  0.6044
 4966TIP3    H136457   3.185   4.210   8.345 -0.2935  0.4165  1.3813
 4966TIP3    H236458   3.250   4.159   8.471 -0.4079 -1.8178  0.5881
 4967TIP3   OH236459   3.153   0.511   0.784  0.1647 -0.4192  0.5999
 4967TIP3    H136460   3.222   0.486   0.723 -1.0672  1.1198 -1.5823
 4967TIP3    H236461   3.170   0.461   0.863  2.4751 -1.7104 -0.6417
 4968TIP3   OH236462   2.626   1.187   7.893  0.0443 -0.4945 -0.0810
 4968TIP3    H136463   2.591   1.172   7.805 -1.4153  0.6821  0.2782
 4968TIP3    H236464   2.720   1.201   7.878  0.2155 -2.3652 -1.1983
 4969TIP3   OH236465   0.502   0.769   0.799 -0.1925  0.1533 -0.3916
 4969TIP3    H136466   0.513   0.846   0.856  1.0750  0.1315 -0.5941
 4969TIP3    H236467   0.532   0.798   0.713 -1.1388 -0.1301 -0.8389
 4970TIP3   OH236468   3.385   5.945   1.509  0.4060 -0.0334 -0.5312
 4970TIP3    H136469   3.303   5.899   1.526  1.9155 -2.4507  0.7936
 4970TIP3    H236470   3.413   5.978   1.595  1.3736 -0.2810 -0.7328
 4971TIP3   OH236471   6.627   2.624   0.702 -0.0680 -0.1608 -0.0911
 4971TIP3    H136472   6.661   2.625   0.792  0.9477  0.3080 -0.4601
 4971TIP3    H236473   6.632   2.716   0.674  2.6049 -0.6738 -1.6704
 4972TIP3   OH236474   6.480   1.118   2.400  0.4834  0.2080  0.3109
 4972TIP3    H136475   6.463   1.212   2.411  0.1700  0.1446  0.3888
 4972TIP3    H236476   6.547   1.098   2.466 -0.4043  0.1132  1.2102
 4973TIP3   OH236477   0.505   5.406   1.793 -0.1091 -0.2685  0.2510
 4973TIP3    H136478   0.411   5.422   1.797  0.0191  0.8513 -0.5702
 4973TIP3    H236479   0.541   5.450   1.869 -0.1281  0.3482 -0.0948
 4974TIP3   OH236480   1.759   6.375   7.084  0.0397 -0.5061 -0.2100
 4974TIP3    H136481   1.834   6.336   7.130 -1.2144 -2.4002  0.3264
 4974TIP3    H236482   1.798   6.426   7.013  1.8169 -2.7117 -0.9298
 4975TIP3   OH236483   3.675   0.067   7.079 -0.0509  0.1771  0.2456
 4975TIP3    H136484   3.714  -0.016   7.107 -1.0866 -1.0266 -1.6432
 4975TIP3    H236485   3.720   0.089   6.997 -1.4486  0.1550 -0.5622
 4976TIP3   OH236486   5.270   4.499   1.919 -0.0736  0.1435 -0.7129
 4976TIP3    H136487   5.178   4.481   1.899  0.1231 -0.5506 -1.0181
 4976TIP3    H236488   5.295   4.568   1.857 -0.0914 -0.4173 -1.3460
 4977TIP3   OH236489   4.434   2.991   0.907  0.3287  0.2144 -0.0165
 4977TIP3    H136490   4.516   3.039   0.895 -0.8090  2.0601 -0.8756
 4977TIP3    H236491   4.377   3.051   0.955 -0.8304 -0.6515 -0.2590
 4978TIP3   OH236492   4.674   0.519   8.308  0.3361  0.6829 -0.0427
 4978TIP3    H136493   4.724   0.449   8.351  1.7543  2.5846  1.6038
 4978TIP3    H236494   4.702   0.516   8.217 -0.3393 -1.4248 -0.2430
 4979TIP3   OH236495   2.550   6.054   1.443  0.2469  0.4557 -0.5315
 4979TIP3    H136496   2.620   6.047   1.507  0.9399  0.3994 -1.2730
 4979TIP3    H236497   2.562   5.978   1.386 -1.6787 -0.7177  0.5105
 4980TIP3   OH236498   3.623   3.616   7.706 -0.0539 -0.8544 -0.0384
 4980TIP3    H136499   3.671   3.596   7.787  0.2227 -0.3265 -0.0631
 4980TIP3    H236500   3.557   3.547   7.699  1.3661 -2.2167 -0.5663
 4981TIP3   OH236501   3.824   0.231   7.412  0.8956  0.0854  0.4574
 4981TIP3    H136502   3.771   0.305   7.443  1.8340  1.1575 -0.4404
 4981TIP3    H236503   3.769   0.154   7.429 -1.6915  1.2465 -1.8763
 4982TIP3   OH236504   5.333   1.327   1.609 -0.6728  0.5971  0.4813
 4982TIP3    H136505   5.372   1.241   1.628 -0.7867  0.6403  0.9220
 4982TIP3    H236506   5.405   1.389   1.619 -0.4044  0.4773 -0.6042
 4983TIP3   OH236507   6.259   3.220   1.885  0.1031 -0.0962 -0.0926
 4983TIP3    H136508   6.270   3.231   1.979  0.3111  0.1092 -0.1429
 4983TIP3    H236509   6.177   3.171   1.877 -0.8840  1.4407  0.1276
 4984TIP3   OH236510   0.483   6.577   7.974  0.0048 -0.4693  0.4172
 4984TIP3    H136511   0.498   6.574   7.880 -0.1442 -1.2085  0.4170
 4984TIP3    H236512   0.391   6.600   7.983  0.3782  1.2159  0.4081
 4985TIP3   OH236513   6.419   4.264   8.658 -0.4000  0.3553 -0.3619
 4985TIP3    H136514   6.380   4.241   8.573 -0.7386 -0.3970 -0.0133
 4985TIP3    H236515   6.362   4.332   8.693 -0.0884  0.8875 -0.8636
 4986TIP3   OH236516   5.118   6.154   8.064  0.0280  0.2980 -0.5585
 4986TIP3    H136517   5.079   6.095   8.128 -0.5536  0.1725 -1.0202
 4986TIP3    H236518   5.043   6.194   8.019  0.4225 -0.0575 -1.5640
 4987TIP3   OH236519   6.645   3.650   0.271 -0.6826 -0.2363 -0.4173
 4987TIP3    H136520   6.565   3.626   0.224  0.6219 -1.8036 -2.0233
 4987TIP3    H236521   6.684   3.720   0.218 -0.9358  0.4596  0.3068
 4988TIP3   OH236522   5.430   1.377   8.458  0.0818 -0.1949  0.3553
 4988TIP3    H136523   5.389   1.334   8.383 -0.0082  0.1464  0.2086
 4988TIP3    H236524   5.415   1.470   8.444  1.6287  0.0143 -0.1558
 4989TIP3   OH236525   1.317   6.152   0.404  0.0233  0.3008 -0.8536
 4989TIP3    H136526   1.350   6.067   0.434  2.4756  0.8815 -1.6635
 4989TIP3    H236527   1.257   6.130   0.332  1.3917 -0.7610 -1.7317
 4990TIP3   OH236528   4.689   4.709   8.744 -0.4510  0.5081  0.2988
 4990TIP3    H136529   4.741   4.741   8.671  3.1450 -0.7116  2.1095
 4990TIP3    H236530   4.667   4.619   8.721  0.4387  0.2150  0.5597
 4991TIP3   OH236531   3.672   4.987   8.428  0.3014 -0.1956 -0.1471
 4991TIP3    H136532   3.584   5.002   8.463  0.3739  0.0512 -0.0718
 4991TIP3    H236533   3.715   5.072   8.432 -0.2279  0.2448 -2.3980
 4992TIP3   OH236534   1.433   3.193   0.897 -0.0416 -0.3910 -0.2627
 4992TIP3    H136535   1.375   3.179   0.822  1.3391  0.0368 -1.4691
 4992TIP3    H236536   1.456   3.104   0.926 -1.1414 -0.5613  0.1251
 4993TIP3   OH236537   6.652   1.750   0.303  0.1194  0.0086  0.1097
 4993TIP3    H136538   6.697   1.785   0.226  0.5076  1.3078  0.9028
 4993TIP3    H236539   6.618   1.665   0.274  1.5665 -0.2191 -1.0332
 4994TIP3   OH236540   4.644   5.000   8.003  0.7400 -0.0979 -0.7692
 4994TIP3    H136541   4.608   4.961   7.923 -2.2222  0.5292  0.1160
 4994TIP3    H236542   4.629   5.094   7.992  0.0726 -0.0209  0.5663
 4995TIP3   OH236543   6.089   1.537   1.237 -0.3456  0.2864 -0.2169
 4995TIP3    H136544   6.112   1.606   1.300  0.3389 -0.0958 -0.0407
 4995TIP3    H236545   6.034   1.476   1.288 -1.4687  1.0014 -0.5360
 4996TIP3   OH236546   6.330   1.018   7.494 -0.5377  0.3926 -0.6898
 4996TIP3    H136547   6.249   0.970   7.510 -1.5385  2.1438 -0.2819
 4996TIP3    H236548   6.334   1.083   7.565  0.0128  1.8587 -2.0128
 4997TIP3   OH236549   6.320   2.074   8.242 -0.4930 -0.3472 -0.6546
 4997TIP3    H136550   6.296   2.066   8.334 -1.4608 -0.4434 -0.9012
 4997TIP3    H236551   6.415   2.070   8.241 -0.5186 -1.5420  0.2207
 4998TIP3   OH236552   5.996   4.606   8.482  0.3007  0.1089  0.0062
 4998TIP3    H136553   5.988   4.639   8.571  1.4420 -1.4605  0.7310
 4998TIP3    H236554   5.906   4.596   8.452 -0.1125  0.2089  1.1598
 4999TIP3   OH236555   1.410   5.972   8.343 -0.0819  0.6919  0.2044
 4999TIP3    H136556   1.497   5.956   8.379 -0.5056  1.9368  1.8729
 4999TIP3    H236557   1.389   5.890   8.297  1.6919  0.1349  0.2941
 5000TIP3   OH236558   5.748   0.686   7.972  0.2235 -0.2603  0.3112
 5000TIP3    H136559   5.659   0.682   8.006 -0.4770 -1.0367 -1.4591
 5000TIP3    H236560   5.804   0.665   8.047 -1.1224 -0.4410  1.2993
 5001TIP3   OH236561   1.876   5.962   8.783  0.0374 -0.9607  0.1361
 5001TIP3    H136562   1.953   5.999   8.825 -0.4742  0.6008 -0.2266
 5001TIP3    H236563   1.886   5.984   8.690 -1.8129  1.1833  0.3597
 5002TIP3   OH236564   5.165   1.285   2.099  0.0178 -0.2158  0.5889
 5002TIP3    H136565   5.115   1.349   2.048  2.0420  0.0554 -1.2154
 5002TIP3    H236566   5.237   1.337   2.138  0.4321 -1.0189  0.9146
 5003TIP3   OH236567   6.507   4.107   0.086  0.2336 -0.0383 -0.0287
 5003TIP3    H136568   6.574   4.064   0.138  0.2205  1.6661  1.4981
 5003TIP3    H236569   6.501   4.056   0.005  1.2853 -1.9114  1.0418
 5004TIP3   OH236570   3.244   5.609   1.065 -0.0382 -0.1014  0.0529
 5004TIP3    H136571   3.181   5.644   1.128  0.3625  1.0798 -0.1766
 5004TIP3    H236572   3.287   5.686   1.028  0.7577 -0.8357 -0.6121
 5005TIP3   OH236573   1.737   0.788   0.428  0.2852  0.1486  0.1595
 5005TIP3    H136574   1.714   0.878   0.452  1.3470 -0.1764  2.7816
 5005TIP3    H236575   1.797   0.759   0.497 -1.5144 -3.2106  0.5871
 5006TIP3   OH236576   3.801   3.214   0.234  0.2035 -0.0172  0.2505
 5006TIP3    H136577   3.788   3.215   0.139  1.7989 -1.0443 -0.0229
 5006TIP3    H236578   3.784   3.123   0.259 -0.9946  0.4199  1.0999
 5007TIP3   OH236579   4.013   3.939   0.814 -0.1170  0.2263 -0.0045
 5007TIP3    H136580   3.971   3.980   0.890 -1.8885  0.0202 -0.8308
 5007TIP3    H236581   3.993   3.997   0.741 -0.0066 -0.5134 -0.6388
 5008TIP3   OH236582   6.747   0.927   2.036 -0.1088  0.3963  0.3836
 5008TIP3    H136583   6.804   1.002   2.017  0.8253 -0.6461 -1.1605
 5008TIP3    H236584   6.733   0.931   2.131  2.4808  0.7772  0.8327
 5009TIP3   OH236585   3.361   3.515   1.819 -0.0788 -0.2364  0.1761
 5009TIP3    H136586   3.365   3.421   1.836 -1.6497 -0.1686  1.0700
 5009TIP3    H236587   3.449   3.547   1.839  0.6969 -1.6129 -0.8782
 5010TIP3   OH236588   0.757   5.317   1.806  0.0219 -0.6107 -0.0975
 5010TIP3    H136589   0.662   5.319   1.792 -0.2861  1.2058  1.7733
 5010TIP3    H236590   0.772   5.237   1.856 -0.6299 -0.5087  0.2684
 5011TIP3   OH236591   0.311   2.823   6.610 -0.2143 -0.2036 -0.1631
 5011TIP3    H136592   0.377   2.762   6.579 -0.0283 -0.5585  0.8895
 5011TIP3    H236593   0.268   2.778   6.683 -0.8158  0.4868 -0.0761
 5012TIP3   OH236594   2.681   2.156   7.923 -0.6513  0.2104  0.2318
 5012TIP3    H136595   2.759   2.206   7.901 -1.4478  1.2183 -0.4199
 5012TIP3    H236596   2.677   2.159   8.019  0.0676  0.2009  0.2648
 5013TIP3   OH236597   1.171   4.221   1.230  0.9520 -0.5748  0.0725
 5013TIP3    H136598   1.260   4.257   1.227  1.0991 -0.8261  1.1077
 5013TIP3    H236599   1.153   4.196   1.140  1.1484  1.3321 -0.5500
 5014TIP3   OH236600   1.565   2.584   0.344 -0.2323 -0.4122  0.0029
 5014TIP3    H136601   1.653   2.603   0.311  1.5358 -0.2876  4.1112
 5014TIP3    H236602   1.530   2.668   0.372 -0.0072 -0.8868  1.8156
 5015TIP3   OH236603   5.178   4.491   2.516  0.1480  0.0039  0.0063
 5015TIP3    H136604   5.231   4.474   2.594 -0.0413 -2.0805 -0.2707
 5015TIP3    H236605   5.146   4.405   2.489 -1.0117  0.8628 -1.5210
 5016TIP3   OH236606   4.605   3.437   1.893 -0.0650  1.2097 -0.1388
 5016TIP3    H136607   4.552   3.411   1.818 -0.4847 -1.5793  1.0092
 5016TIP3    H236608   4.684   3.384   1.887 -0.7683 -0.2403  2.1261
 5017TIP3   OH236609   4.472   0.004   1.887  0.2119  0.5959 -0.4489
 5017TIP3    H136610   4.513   0.011   1.973 -0.4951  2.5766 -0.2197
 5017TIP3    H236611   4.378   0.013   1.905 -0.0203  0.0058 -1.3321
 5018TIP3   OH236612   4.429   2.123   2.122 -0.3312  0.3187  0.3537
 5018TIP3    H136613   4.380   2.056   2.074  0.4790  0.5649 -0.8510
 5018TIP3    H236614   4.384   2.205   2.100  0.0967  0.4425 -0.0722
 5019TIP3   OH236615   4.271   3.199   8.025  0.0593  0.1357 -0.3586
 5019TIP3    H136616   4.180   3.220   8.044  0.3718  2.7794 -1.3848
 5019TIP3    H236617   4.320   3.231   8.100  0.1601 -1.7193  0.4166
 5020TIP3   OH236618   3.271   3.066   8.288  0.1533  0.0769 -0.3235
 5020TIP3    H136619   3.204   3.074   8.356  0.6638  1.1798  0.0734
 5020TIP3    H236620   3.350   3.040   8.336  0.5535  1.0115 -0.4637
 5021TIP3   OH236621   2.849   1.848   1.431  0.4633 -0.0812  0.3967
 5021TIP3    H136622   2.893   1.884   1.354  1.8480 -0.2702  1.0578
 5021TIP3    H236623   2.822   1.760   1.404  0.5239  0.0240 -0.0135
 5022TIP3   OH236624   1.606   6.040   8.833 -0.3384  0.0234 -0.1065
 5022TIP3    H136625   1.697   6.026   8.807 -0.2163  2.3739 -1.1487
 5022TIP3    H236626   1.607   6.031   8.928  0.5469 -1.9340 -0.2450
 5023TIP3   OH236627   2.541   5.874   8.023 -0.9129  0.1707 -0.2453
 5023TIP3    H136628   2.485   5.951   8.030 -0.7182  0.2935 -0.0554
 5023TIP3    H236629   2.487   5.810   7.976 -1.0602  0.4333 -0.4324
 5024TIP3   OH236630   6.368   2.519   1.059 -0.5647 -0.3050 -0.3529
 5024TIP3    H136631   6.315   2.510   1.139 -0.8073 -0.0899 -0.4870
 5024TIP3    H236632   6.332   2.453   1.000  0.1698 -1.0433  0.0096
 5025TIP3   OH236633   2.493   4.001   0.738  0.7277  0.3895  0.0620
 5025TIP3    H136634   2.446   4.082   0.721  0.9716  0.4128 -0.5162
 5025TIP3    H236635   2.586   4.025   0.737  0.9554 -0.2613 -2.4709
 5026TIP3   OH236636   5.163   0.690   1.182 -0.4719  0.0661 -0.3406
 5026TIP3    H136637   5.254   0.661   1.187 -0.6830 -0.5570 -0.0324
 5026TIP3    H236638   5.134   0.693   1.273 -0.6846  0.5050 -0.4234
 5027TIP3   OH236639   2.485   1.236   8.338  0.1924 -0.6132  0.4844
 5027TIP3    H136640   2.465   1.329   8.342 -1.3947 -0.9201  0.1574
 5027TIP3    H236641   2.507   1.212   8.428 -1.9551 -0.4384  1.1075
 5028TIP3   OH236642   2.496   6.180   0.761  0.4511  0.0957 -0.2172
 5028TIP3    H136643   2.425   6.141   0.710 -0.5974 -0.7261  1.7633
 5028TIP3    H236644   2.458   6.195   0.848  2.1346  1.5183  0.3388
 5029TIP3   OH236645   5.258   4.463   7.186  0.0988 -0.2805 -0.2029
 5029TIP3    H136646   5.195   4.392   7.178 -0.1316 -0.2873  1.2816
 5029TIP3    H236647   5.219   4.522   7.251  0.9617  0.4414 -0.3182
 5030TIP3   OH236648   2.646   3.005   8.015 -0.4277  0.5337  0.0655
 5030TIP3    H136649   2.683   2.954   7.942 -1.9059 -0.6675  0.1016
 5030TIP3    H236650   2.716   3.007   8.080  0.1718 -0.2359 -0.5233
 5031TIP3   OH236651   0.155   5.181   1.357 -0.2829 -0.0920 -0.2562
 5031TIP3    H136652   0.129   5.095   1.325  0.1643 -0.3971  0.1925
 5031TIP3    H236653   0.248   5.174   1.375 -0.1001  0.6899 -0.8469
 5032TIP3   OH236654   2.512   0.992   0.798  0.1965 -0.3167  0.3564
 5032TIP3    H136655   2.430   0.953   0.830  0.2491 -0.3153  0.4961
 5032TIP3    H236656   2.579   0.927   0.821  0.2322 -0.3249  0.2283
 5033TIP3   OH236657   5.781   2.524   2.256 -0.1041 -0.6088  0.1036
 5033TIP3    H136658   5.722   2.449   2.265  1.5235 -2.0090 -0.2459
 5033TIP3    H236659   5.813   2.540   2.345  1.3072 -1.9035 -0.1194
 5034TIP3   OH236660   2.332   0.504   8.225 -0.0798 -0.0986  0.1063
 5034TIP3    H136661   2.332   0.456   8.308 -2.8583 -3.4638 -1.5498
 5034TIP3    H236662   2.245   0.544   8.221  0.3952  0.8864 -0.7770
 5035TIP3   OH236663   4.556   3.693   7.558  0.5963 -0.0836 -0.4596
 5035TIP3    H136664   4.479   3.730   7.515  0.8725 -1.5609 -2.3333
 5035TIP3    H236665   4.615   3.768   7.569 -0.0117  0.5820 -1.5077
 5036TIP3   OH236666   0.351   6.237   8.234 -0.8867  0.1056 -0.1138
 5036TIP3    H136667   0.344   6.172   8.164  0.2624  0.8130 -0.9269
 5036TIP3    H236668   0.352   6.186   8.315 -0.2201 -0.8840 -0.7230
 5037TIP3   OH236669   5.037   2.417   1.959  0.2320  0.5411 -0.2426
 5037TIP3    H136670   5.094   2.420   2.036 -2.0038 -1.9655  1.7105
 5037TIP3    H236671   4.962   2.472   1.983 -0.9413 -1.0431 -0.1197
 5038TIP3   OH236672   5.959   4.208   0.213 -0.5071  0.1667  0.2924
 5038TIP3    H136673   5.921   4.285   0.254  0.7727  1.4920 -0.8693
 5038TIP3    H236674   5.932   4.213   0.121  0.1905 -0.3587  0.0432
 5039TIP3   OH236675   4.351   1.601   7.188 -0.4526 -0.2187  0.1905
 5039TIP3    H136676   4.360   1.690   7.221  1.6069 -0.3886  0.2525
 5039TIP3    H236677   4.338   1.612   7.094  1.5695  0.1815 -0.0956
 5040TIP3   OH236678   2.837   0.360   1.553  0.0537  0.0961  0.1408
 5040TIP3    H136679   2.777   0.434   1.560  1.6893  1.6114 -0.9696
 5040TIP3    H236680   2.856   0.335   1.643 -0.7955  0.7907  0.5169
 5041TIP3   OH236681   3.304   0.992   1.385 -0.3630 -0.2050  0.0761
 5041TIP3    H136682   3.266   0.944   1.311 -1.0602  0.1211  0.2123
 5041TIP3    H236683   3.288   0.937   1.461 -1.4754  0.3756  0.2868
 5042TIP3   OH236684   2.741   3.759   6.244 -0.2841  0.9188  0.0363
 5042TIP3    H136685   2.787   3.770   6.161  0.6816  1.4572  0.6212
 5042TIP3    H236686   2.755   3.667   6.267  0.0893  0.9561 -0.0312
 5043TIP3   OH236687   4.393   4.971   7.205 -0.2733  0.4335  0.5903
 5043TIP3    H136688   4.486   4.993   7.215 -0.8770  2.8440  1.5365
 5043TIP3    H236689   4.368   5.012   7.122 -0.1527 -1.7466 -0.6132
 5044TIP3   OH236690   3.516   5.232   0.631 -0.2125  0.4070  0.0508
 5044TIP3    H136691   3.450   5.226   0.700  0.7086 -0.1587  0.9026
 5044TIP3    H236692   3.550   5.321   0.638 -2.2841  1.4183 -1.7427
 5045TIP3   OH236693   2.344   1.234   6.618  0.4195  0.4368 -0.0427
 5045TIP3    H136694   2.312   1.304   6.676 -0.9853 -0.3579  0.1875
 5045TIP3    H236695   2.268   1.209   6.566  1.8389  1.7609 -2.9984
 5046TIP3   OH236696   6.713   2.221   1.889 -0.2076 -0.1553 -0.4132
 5046TIP3    H136697   6.627   2.187   1.864 -0.7768  2.0252 -1.6186
 5046TIP3    H236698   6.749   2.257   1.808  1.2729  0.1645  0.3538
 5047TIP3   OH236699   3.385   0.663   8.181  0.2976  0.3078 -0.2803
 5047TIP3    H136700   3.407   0.725   8.250  1.3544  0.7447 -0.9792
 5047TIP3    H236701   3.306   0.698   8.141 -0.3055  0.0621  0.6835
 5048TIP3   OH236702   3.991   6.129   7.911 -0.1751 -0.8497 -0.0464
 5048TIP3    H136703   4.030   6.148   7.825  0.3450 -1.0080  0.1564
 5048TIP3    H236704   4.060   6.086   7.960  0.4692  1.6937  1.4409
 5049TIP3   OH236705   1.987   3.888   8.205 -0.9793  0.2979  0.2802
 5049TIP3    H136706   1.991   3.891   8.110  0.3832 -0.0051  0.3067
 5049TIP3    H236707   1.984   3.795   8.226  0.4636  0.2934  0.5621
 5050TIP3   OH236708   2.498   3.397   8.679 -0.0780  0.5472  0.3798
 5050TIP3    H136709   2.491   3.492   8.689 -0.6278  0.5943 -0.3454
 5050TIP3    H236710   2.414   3.364   8.711  1.2880 -0.0020  3.7688
 5051TIP3   OH236711   4.770   1.463   0.842  0.1361  0.3849  0.2115
 5051TIP3    H136712   4.741   1.521   0.772  0.8752  0.6570  0.1238
 5051TIP3    H236713   4.781   1.520   0.918 -0.2757  0.1576  0.4450
 5052TIP3   OH236714   1.357   5.917   1.574 -0.6383 -0.3309 -0.0072
 5052TIP3    H136715   1.387   5.836   1.532 -1.0679  0.3867 -1.7665
 5052TIP3    H236716   1.421   5.983   1.550 -1.2207  0.2399 -0.0438
 5053TIP3   OH236717   5.598   1.435   8.125  0.0883  0.5262  0.3842
 5053TIP3    H136718   5.609   1.346   8.159 -2.9059 -0.3670 -0.5966
 5053TIP3    H236719   5.640   1.433   8.040 -1.5333 -0.6317 -0.4534
 5054TIP3   OH236720   0.946   4.338   0.915 -0.1954 -0.2431 -0.0370
 5054TIP3    H136721   1.024   4.293   0.947  1.0209  0.5758 -1.7224
 5054TIP3    H236722   0.931   4.301   0.828 -1.4660 -0.1026  0.1062
 5055TIP3   OH236723   4.407   4.822   7.485 -0.1254  0.7910 -0.2186
 5055TIP3    H136724   4.407   4.864   7.399  0.8573 -0.0442 -0.6507
 5055TIP3    H236725   4.347   4.875   7.538 -0.2739  1.6742 -1.2384
 5056TIP3   OH236726   3.968   0.641   7.931  0.2730  0.5253  0.3391
 5056TIP3    H136727   3.932   0.574   7.873  0.6725 -0.1728  0.8744
 5056TIP3    H236728   4.013   0.702   7.873 -0.4330  0.5535 -0.1929
 5057TIP3   OH236729   5.437   2.113   7.994  0.0182  0.1001 -0.0484
 5057TIP3    H136730   5.442   2.181   7.927  0.2881 -0.6278 -0.7874
 5057TIP3    H236731   5.399   2.037   7.948 -0.3128 -0.2366  0.7652
 5058TIP3   OH236732   0.217   5.750   0.639 -0.1016 -0.0895  0.2363
 5058TIP3    H136733   0.251   5.706   0.717  0.5351  0.6894  0.4123
 5058TIP3    H236734   0.284   5.736   0.572  0.3758  1.0498  0.4518
 5059TIP3   OH236735   2.510   5.384   0.185  0.4053  0.3539 -0.2912
 5059TIP3    H136736   2.479   5.293   0.185 -0.5975  0.6678  1.0280
 5059TIP3    H236737   2.584   5.384   0.245 -1.1858  0.8528  1.8008
 5060TIP3   OH236738   4.381   3.323   8.267  0.1057 -0.6854  0.4015
 5060TIP3    H136739   4.342   3.369   8.342  1.3511 -0.7104  1.0780
 5060TIP3    H236740   4.389   3.391   8.200 -0.4377 -0.5162  0.5041
 5061TIP3   OH236741   5.973   3.304   2.247 -0.1877  0.0671 -0.1256
 5061TIP3    H136742   6.032   3.251   2.300 -0.3263  1.8505  1.9687
 5061TIP3    H236743   5.889   3.260   2.253  0.1000 -0.4826 -0.0179
 5062TIP3   OH236744   6.710   5.277   2.424  0.2049 -0.0233  0.2973
 5062TIP3    H136745   6.698   5.281   2.329  0.3974 -0.2947  0.2611
 5062TIP3    H236746   6.621   5.278   2.460  0.1502  1.3365  0.1718
 5063TIP3   OH236747   5.277   1.469   2.237 -0.0386 -0.0698 -0.2232
 5063TIP3    H136748   5.323   1.549   2.211  1.2874 -0.4491  0.8272
 5063TIP3    H236749   5.290   1.463   2.332 -1.5676 -0.6486 -0.0244
 5064TIP3   OH236750   1.992   2.608   0.931  0.3907  0.3606  0.0340
 5064TIP3    H136751   1.924   2.541   0.924  2.0331 -1.3926  0.2100
 5064TIP3    H236752   2.064   2.575   0.878  0.4560  3.1117 -1.7545
 5065TIP3   OH236753   4.920   5.957   0.802  0.4423  0.3400  0.3015
 5065TIP3    H136754   4.975   5.967   0.880  2.2444  2.2596 -1.1011
 5065TIP3    H236755   4.975   5.912   0.739  0.2694  1.8158 -0.9638
 5066TIP3   OH236756   1.242   2.951   1.400 -0.5082  0.6273 -0.1213
 5066TIP3    H136757   1.336   2.959   1.416 -0.1278  1.6169 -2.4692
 5066TIP3    H236758   1.202   3.007   1.466  0.8771  3.9041 -1.8344
 5067TIP3   OH236759   4.013   2.466   1.992 -0.0718 -0.2326  0.0374
 5067TIP3    H136760   3.962   2.480   2.071 -1.7987  0.0875 -1.0841
 5067TIP3    H236761   4.104   2.474   2.020 -0.6656  0.5963  1.8383
 5068TIP3   OH236762   0.580   6.123   0.671 -0.4876  0.1034 -0.0721
 5068TIP3    H136763   0.594   6.091   0.760 -0.7911  0.5953  0.1549
 5068TIP3    H236764   0.527   6.055   0.629  0.6088 -0.6755 -0.2390
 5069TIP3   OH236765   0.713   1.079   0.422 -0.3294  0.5298 -0.4580
 5069TIP3    H136766   0.776   1.033   0.367  0.0961 -0.2940  0.6708
 5069TIP3    H236767   0.699   1.163   0.379  1.0968  0.4788 -1.0461
 5070TIP3   OH236768   3.863   4.744   0.620  0.0825 -0.3156  0.8012
 5070TIP3    H136769   3.900   4.832   0.625 -0.0399 -0.2450  0.4694
 5070TIP3    H236770   3.910   4.703   0.547  1.8999 -1.3522  2.4631
 5071TIP3   OH236771   4.132   6.139   0.661 -0.3520 -0.5414  0.4209
 5071TIP3    H136772   4.073   6.179   0.597 -0.7902 -1.0973  0.4668
 5071TIP3    H236773   4.195   6.208   0.682 -1.3210  0.2532  0.7980
 5072TIP3   OH236774   3.264   4.539   6.404  0.1566 -0.6052  0.1068
 5072TIP3    H136775   3.301   4.459   6.366  0.5062 -0.9888  1.2285
 5072TIP3    H236776   3.173   4.518   6.422  0.3622 -0.9162  0.8217
 5073TIP3   OH236777   1.524   0.462   8.469  0.6714  0.2790  0.0361
 5073TIP3    H136778   1.557   0.454   8.380  3.8885  0.5539  1.1040
 5073TIP3    H236779   1.601   0.460   8.525 -1.3124 -1.7480  3.0330
 5074TIP3   OH236780   6.651   0.720   7.345  0.5611 -0.1676  0.2094
 5074TIP3    H136781   6.710   0.773   7.398 -1.5705  1.3913  1.1781
 5074TIP3    H236782   6.645   0.636   7.390  3.1449 -0.9504 -0.7518
 5075TIP3   OH236783   2.978   0.847   0.130  0.0561  0.1907  0.1327
 5075TIP3    H136784   2.931   0.804   0.202  1.0702 -0.7383  0.2561
 5075TIP3    H236785   2.917   0.914   0.099 -0.8971 -0.2311  1.0314
 5076TIP3   OH236786   4.772   0.264   8.365 -0.0715 -0.1918 -0.6983
 5076TIP3    H136787   4.740   0.186   8.320  0.6123 -0.0407 -1.4789
 5076TIP3    H236788   4.761   0.245   8.458  0.3160 -1.3116 -0.8733
 5077TIP3   OH236789   5.920   2.924   2.094 -0.5201  0.3918 -0.1430
 5077TIP3    H136790   5.881   2.997   2.142 -0.3649 -0.3254  1.1222
 5077TIP3    H236791   5.855   2.854   2.102 -0.3092  0.1418 -0.6406
 5078TIP3   OH236792   1.473   3.383   2.402  0.3411  0.2077 -0.1457
 5078TIP3    H136793   1.435   3.417   2.321  1.7179 -0.2229 -1.0035
 5078TIP3    H236794   1.566   3.368   2.381  1.1555  1.7085  1.9986
 5079TIP3   OH236795   1.486   0.280   1.774 -0.4208  0.5936 -0.8006
 5079TIP3    H136796   1.412   0.292   1.714 -0.9211 -0.1855 -0.3479
 5079TIP3    H236797   1.449   0.295   1.861  0.0741  0.6882 -0.6031
 5080TIP3   OH236798   0.542   2.419   8.684  0.6883 -0.1238  0.5044
 5080TIP3    H136799   0.587   2.459   8.609  1.3718 -0.9261  0.4620
 5080TIP3    H236800   0.517   2.332   8.653  0.8466 -0.4107  1.1632
 5081TIP3   OH236801   4.516   0.675   7.843  0.0627 -0.5539 -0.1290
 5081TIP3    H136802   4.542   0.621   7.769 -0.4855  0.8729 -1.4217
 5081TIP3    H236803   4.438   0.722   7.813 -0.0711  0.2091  1.2826
 5082TIP3   OH236804   1.434   5.204   7.263 -0.0102 -0.2501 -0.3189
 5082TIP3    H136805   1.476   5.140   7.320 -0.0087  1.5586  1.8492
 5082TIP3    H236806   1.504   5.236   7.207  0.9922  0.8214  1.4537
 5083TIP3   OH236807   6.579   3.302   0.705  0.6996 -0.1578  0.4116
 5083TIP3    H136808   6.570   3.226   0.648 -0.2616  2.0317 -2.5451
 5083TIP3    H236809   6.668   3.334   0.688  0.4662  0.4170  0.2556
 5084TIP3   OH236810   6.304   4.359   7.165 -0.0847  0.0125 -0.1004
 5084TIP3    H136811   6.217   4.387   7.135  0.6408  1.6197 -0.8284
 5084TIP3    H236812   6.353   4.343   7.085  0.4390 -0.4130  0.3004
 5085TIP3   OH236813   0.578   6.766   7.086  0.6254  0.2909 -0.1742
 5085TIP3    H136814   0.617   6.718   7.013  0.3259 -0.3326  0.0750
 5085TIP3    H236815   0.552   6.699   7.148  0.6334  0.8031  0.3942
 5086TIP3   OH236816   3.429   0.508   7.663  0.8753 -0.5094  0.3950
 5086TIP3    H136817   3.352   0.548   7.704 -0.4452 -0.8759 -1.6088
 5086TIP3    H236818   3.493   0.579   7.659  0.1088  0.2286  0.7746
 5087TIP3   OH236819   2.228   3.218   1.687  0.4880 -0.2687  0.5000
 5087TIP3    H136820   2.319   3.244   1.699 -0.2696  2.2902  1.3765
 5087TIP3    H236821   2.193   3.211   1.776 -0.4428 -0.0873  0.1653
 5088TIP3   OH236822   4.422   4.446   6.928  0.2325 -0.4601  0.0711
 5088TIP3    H136823   4.440   4.526   6.879 -1.0212  1.0072  1.8429
 5088TIP3    H236824   4.507   4.420   6.963  0.6476  0.1730 -0.4364
 5089TIP3   OH236825   2.131   5.499   7.444  0.6281 -0.0830 -0.1553
 5089TIP3    H136826   2.097   5.569   7.388  1.4820  0.8385  0.4274
 5089TIP3    H236827   2.057   5.473   7.498 -0.1891 -0.9345 -1.6302
 5090TIP3   OH236828   5.444   4.379   8.125 -0.0789  0.1798 -0.5692
 5090TIP3    H136829   5.392   4.337   8.056  0.5730  0.4101 -1.2147
 5090TIP3    H236830   5.398   4.357   8.206  0.1056 -1.5964 -0.8922
 5091TIP3   OH236831   4.741   4.434   2.249 -0.0916 -0.2119  0.1624
 5091TIP3    H136832   4.729   4.365   2.183  0.9954 -2.3460  2.1048
 5091TIP3    H236833   4.833   4.431   2.271 -0.3847  0.6589  1.6026
 5092TIP3   OH236834   1.642   6.528   7.416 -0.5084 -0.6969 -0.0379
 5092TIP3    H136835   1.636   6.598   7.481  0.7957 -0.9390  0.3647
 5092TIP3    H236836   1.557   6.530   7.371 -0.4236  1.2722 -0.1881
 5093TIP3   OH236837   5.452   6.575   0.183 -0.5619  0.2912 -0.0088
 5093TIP3    H136838   5.471   6.481   0.181  1.5295  0.6695 -1.2157
 5093TIP3    H236839   5.537   6.617   0.197 -1.5619  2.0116  1.3202
 5094TIP3   OH236840   1.267   3.757   8.337  0.0545  0.6304 -0.3201
 5094TIP3    H136841   1.243   3.678   8.385  0.0479  0.5782 -0.4098
 5094TIP3    H236842   1.338   3.730   8.280  0.4721  0.8368  0.1005
 5095TIP3   OH236843   4.543   2.336   0.898 -0.7953  0.3810 -0.6382
 5095TIP3    H136844   4.512   2.422   0.871 -1.0188  0.3816 -0.3883
 5095TIP3    H236845   4.489   2.314   0.975  0.4161  0.7636  0.3512
 5096TIP3   OH236846   3.644   2.774   8.539 -0.1331 -0.0151  0.1450
 5096TIP3    H136847   3.709   2.725   8.590 -1.0158 -1.0807  0.2871
 5096TIP3    H236848   3.574   2.711   8.523 -1.1015  1.0865 -0.0708
 5097TIP3   OH236849   1.116   5.527   2.316  0.8096 -0.6644  0.2484
 5097TIP3    H136850   1.125   5.605   2.371  0.9787 -2.7397  3.4201
 5097TIP3    H236851   1.164   5.549   2.236  1.4485  2.2149  1.2850
 5098TIP3   OH236852   3.407   5.910   7.455  0.8633  0.1103 -0.3637
 5098TIP3    H136853   3.419   5.966   7.532  0.3069 -0.6002  0.2537
 5098TIP3    H236854   3.389   5.823   7.491  0.9213 -0.3009 -1.3029
 5099TIP3   OH236855   0.730   2.440   8.476 -0.2435  0.1520  0.9214
 5099TIP3    H136856   0.770   2.468   8.558  1.5063  0.3550  0.0290
 5099TIP3    H236857   0.771   2.356   8.456 -2.0340 -0.8354  1.1742
 5100TIP3   OH236858   3.557   2.904   6.282  0.0599 -0.1268  0.0880
 5100TIP3    H136859   3.518   2.897   6.369 -1.0295 -2.1466 -0.4921
 5100TIP3    H236860   3.551   2.997   6.260 -2.5450 -0.0462  0.8909
 5101TIP3   OH236861   2.418   2.513   1.248  0.0215 -0.4175  0.2756
 5101TIP3    H136862   2.454   2.521   1.159  0.5089 -1.3779  0.3726
 5101TIP3    H236863   2.483   2.555   1.304  0.0422 -0.4087  0.2452
 5102TIP3   OH236864   2.973   4.436   8.312 -0.1517  0.1413  0.7243
 5102TIP3    H136865   3.020   4.466   8.390 -0.8178  1.5103  0.6382
 5102TIP3    H236866   3.010   4.350   8.293  1.0280  0.4034  1.7054
 5103TIP3   OH236867   4.274   6.322   6.709  0.2766  0.3063  0.6208
 5103TIP3    H136868   4.294   6.229   6.705 -2.0447 -0.2599  0.8572
 5103TIP3    H236869   4.288   6.353   6.620 -0.8110 -0.7260  0.0616
 5104TIP3   OH236870   4.511   6.344   2.170 -0.5130  0.3669  0.1040
 5104TIP3    H136871   4.523   6.424   2.220 -1.3559 -0.0184  0.9568
 5104TIP3    H236872   4.419   6.320   2.184 -0.5671 -0.1598 -1.0292
 5105TIP3   OH236873   1.715   6.042   8.253  0.0181  0.0223 -1.0422
 5105TIP3    H136874   1.674   5.955   8.260  1.6351 -0.7225 -0.2571
 5105TIP3    H236875   1.688   6.074   8.167  0.0847 -1.6474 -1.7281
 5106TIP3   OH236876   2.349   4.742   7.134  0.1582 -0.3410  0.1441
 5106TIP3    H136877   2.421   4.804   7.138  0.7812 -1.0092 -0.4737
 5106TIP3    H236878   2.387   4.662   7.098 -0.8822 -0.7047 -0.2096
 5107TIP3   OH236879   5.611   5.273   8.136 -0.2133  0.4559  0.2284
 5107TIP3    H136880   5.517   5.260   8.138 -0.3841  1.5694  0.4638
 5107TIP3    H236881   5.624   5.361   8.172  1.0282 -0.2129  1.5204
 5108TIP3   OH236882   2.940   2.843   1.049  0.3804 -0.0268  0.2297
 5108TIP3    H136883   2.954   2.776   0.983 -0.6817 -1.2162  1.1527
 5108TIP3    H236884   2.987   2.810   1.126 -0.5076  0.0691  0.8201
 5109TIP3   OH236885   0.528   1.908   0.508 -0.7317  0.5180 -0.1531
 5109TIP3    H136886   0.446   1.865   0.530 -1.9626  2.5543 -0.5699
 5109TIP3    H236887   0.548   1.877   0.419  0.3058 -1.8519  0.8128
 5110TIP3   OH236888   2.059   1.972   0.770  0.3327  1.1741  0.2582
 5110TIP3    H136889   2.097   1.915   0.836 -1.2817  0.5100  0.6674
 5110TIP3    H236890   2.013   1.913   0.711 -0.3643  1.9554 -0.0027
 5111TIP3   OH236891   2.210   1.051   2.037 -0.4454  0.6144 -0.2633
 5111TIP3    H136892   2.228   1.030   2.129  1.6898  0.2165 -0.7171
 5111TIP3    H236893   2.228   1.145   2.031 -0.7138  0.6670 -0.2540
 5112TIP3   OH236894   1.497   0.749   8.599 -0.0754 -0.2320  0.3302
 5112TIP3    H136895   1.427   0.690   8.627 -0.2013  0.6693  2.0555
 5112TIP3    H236896   1.577   0.696   8.603 -0.4809 -0.9137 -0.4205
 5113TIP3   OH236897   1.962   5.685   8.161  0.3503 -0.1866  0.3826
 5113TIP3    H136898   1.976   5.613   8.223  0.0844 -1.3404 -0.8488
 5113TIP3    H236899   1.867   5.697   8.159  0.2453 -1.0152 -0.6960
 5114TIP3   OH236900   6.552   3.952   0.911 -0.1868  0.2559 -0.0057
 5114TIP3    H136901   6.508   4.013   0.970 -1.3728  0.7612 -1.3671
 5114TIP3    H236902   6.606   4.007   0.855  0.8347 -0.2127  0.4855
 5115TIP3   OH236903   0.295   0.317   7.411 -0.1042 -0.2712  0.2463
 5115TIP3    H136904   0.321   0.228   7.389 -3.7073 -0.9015 -2.5004
 5115TIP3    H236905   0.298   0.320   7.507  0.0227 -3.4150  0.4483
 5116TIP3   OH236906   4.749   3.758   8.537  0.6485  0.6817 -0.2802
 5116TIP3    H136907   4.795   3.816   8.597  0.4644  2.1999 -1.5537
 5116TIP3    H236908   4.818   3.714   8.488  0.7812  1.0521 -0.4301
 5117TIP3   OH236909   0.771   0.266   1.276  0.0278  0.2816  0.1738
 5117TIP3    H136910   0.794   0.291   1.187  1.5545 -0.8639  0.2110
 5117TIP3    H236911   0.682   0.232   1.269  0.8018 -1.6374 -1.3230
 5118TIP3   OH236912   4.025   6.719   8.105 -0.2048  0.7124  0.2184
 5118TIP3    H136913   4.018   6.670   8.187 -1.0479  0.9456  0.2881
 5118TIP3    H236914   4.000   6.655   8.038  0.0764  0.6434  0.1786
 5119TIP3   OH236915   4.980   5.565   7.917  0.5503  0.0539  0.0507
 5119TIP3    H136916   4.952   5.543   7.828  0.1057  0.1348  0.1683
 5119TIP3    H236917   5.068   5.527   7.924 -0.1943 -1.7275  0.2441
 5120TIP3   OH236918   1.019   1.618   8.460  0.4939  0.5597  0.4798
 5120TIP3    H136919   1.077   1.659   8.396 -1.6624  0.5988 -1.5723
 5120TIP3    H236920   0.983   1.542   8.415  0.7796 -0.8986  2.5701
 5121TIP3   OH236921   0.499   3.885   8.519  0.2828  0.0859 -0.3064
 5121TIP3    H136922   0.460   3.972   8.529 -2.2856 -1.0001  0.0402
 5121TIP3    H236923   0.444   3.828   8.572  2.0026 -1.7526 -0.3807
 5122TIP3   OH236924   0.249   0.776   6.719  0.1311 -0.1380  0.6592
 5122TIP3    H136925   0.187   0.849   6.716  0.8344  0.4425  0.0349
 5122TIP3    H236926   0.334   0.817   6.731  0.5660 -0.8407  0.0414
 5123TIP3   OH236927   3.531   5.748   7.272 -0.2146  0.3014 -0.0198
 5123TIP3    H136928   3.494   5.804   7.340  0.6920  0.7992  0.0876
 5123TIP3    H236929   3.590   5.689   7.318 -0.9741 -0.5917 -0.1673
 5124TIP3   OH236930   1.238   1.362   2.383 -0.9647  0.1182  0.6735
 5124TIP3    H136931   1.272   1.350   2.471 -2.2944 -1.5356  1.0369
 5124TIP3    H236932   1.154   1.407   2.395 -1.9564 -1.5710  0.4783
 5125TIP3   OH236933   6.632   3.079   8.797 -0.4447 -0.6482  0.1620
 5125TIP3    H136934   6.677   3.109   8.717 -0.7215 -0.9635 -0.1115
 5125TIP3    H236935   6.644   3.152   8.859 -0.9848 -0.0287 -0.4513
 5126TIP3   OH236936   2.709   5.593   8.749  0.0380  0.4204  0.0482
 5126TIP3    H136937   2.660   5.586   8.667 -1.1973 -1.0869  0.8590
 5126TIP3    H236938   2.762   5.514   8.752  0.6407  0.8241  0.3905
 5127TIP3   OH236939   2.140   6.263   1.500 -0.0938 -0.0774  0.5851
 5127TIP3    H136940   2.125   6.173   1.472  0.4108 -0.1623  0.5808
 5127TIP3    H236941   2.140   6.314   1.419 -0.4489 -0.0595  0.5933
 5128TIP3   OH236942   6.234   3.136   1.262  0.4279 -0.3663 -0.2031
 5128TIP3    H136943   6.294   3.208   1.244  1.5170 -0.7426  1.7239
 5128TIP3    H236944   6.185   3.163   1.339  0.5333 -1.4868  0.2851
 5129TIP3   OH236945   6.274   4.469   7.690  0.3690 -0.0686  0.1076
 5129TIP3    H136946   6.275   4.502   7.600 -1.8874  1.9511  0.7202
 5129TIP3    H236947   6.218   4.531   7.738  1.7289 -0.8806  2.9966
 5130TIP3   OH236948   2.471   4.438   1.961  0.0924 -0.1174 -0.5258
 5130TIP3    H136949   2.552   4.440   2.012  0.0628 -1.0039 -0.4385
 5130TIP3    H236950   2.410   4.491   2.012  0.9767  1.7203 -1.2571
 5131TIP3   OH236951   0.158   3.798   0.641 -0.2142 -0.2407 -0.4277
 5131TIP3    H136952   0.221   3.725   0.642  1.0954  0.8514  0.4710
 5131TIP3    H236953   0.082   3.763   0.688  0.1273 -1.2524 -0.5918
 5132TIP3   OH236954   6.334   2.299   1.319 -0.1107  0.1709  0.0686
 5132TIP3    H136955   6.304   2.245   1.393  0.0530  0.3695  0.2822
 5132TIP3    H236956   6.291   2.261   1.243  0.5295 -0.6730  0.1240
 5133TIP3   OH236957   3.328   1.268   7.817 -0.0489 -0.8297  0.2773
 5133TIP3    H136958   3.410   1.308   7.788  0.1187 -0.9845  0.5351
 5133TIP3    H236959   3.268   1.281   7.744 -0.1606  0.3616  0.5535
 5134TIP3   OH236960   0.811   5.065   7.605 -0.4846 -0.5330 -0.1242
 5134TIP3    H136961   0.848   5.113   7.530  1.5675 -0.6366  0.7619
 5134TIP3    H236962   0.831   5.120   7.681  0.3241 -1.9349  0.7131
 5135TIP3   OH236963   1.261   6.115   1.737 -0.5678 -0.3849 -0.1335
 5135TIP3    H136964   1.282   6.028   1.702 -1.0468 -0.7637  0.5171
 5135TIP3    H236965   1.346   6.149   1.768 -0.2268 -0.2543 -1.1655
 5136TIP3   OH236966   5.081   3.944   7.676  0.5114 -0.4482 -0.0844
 5136TIP3    H136967   5.087   4.010   7.606 -0.4783 -0.5100 -0.2339
 5136TIP3    H236968   5.160   3.890   7.664 -0.4978 -1.5799 -2.3104
 5137TIP3   OH236969   1.873   2.768   8.364  0.4159 -0.0818 -0.2015
 5137TIP3    H136970   1.934   2.774   8.291  0.5887  1.5548  0.0361
 5137TIP3    H236971   1.866   2.858   8.396 -0.5307 -0.5893  1.0782
 5138TIP3   OH236972   4.009   0.694   0.324 -0.2774 -0.2575  0.0699
 5138TIP3    H136973   3.947   0.654   0.264  1.2034 -0.9128 -1.0860
 5138TIP3    H236974   4.044   0.769   0.277 -0.1005  0.0415  0.6611
 5139TIP3   OH236975   6.310   1.042   0.162 -0.1283  0.2453  0.0511
 5139TIP3    H136976   6.272   1.111   0.216  0.3158  0.2567  0.3551
 5139TIP3    H236977   6.268   0.962   0.193  0.7752  0.1376  1.0373
 5140TIP3   OH236978   6.411   4.965   7.866 -0.1917 -0.1949  0.3594
 5140TIP3    H136979   6.318   4.957   7.884  0.1860  1.3273  3.7953
 5140TIP3    H236980   6.453   4.949   7.951  2.4762  1.7684 -0.4565
 5141TIP3   OH236981   4.852   5.746   2.519  0.1168  0.3588  0.2948
 5141TIP3    H136982   4.841   5.693   2.441  0.7608  0.0656  0.3964
 5141TIP3    H236983   4.841   5.685   2.592 -0.1299  0.5614  0.4288
 5142TIP3   OH236984   3.893   2.499   1.262  0.1531  0.0810 -0.7458
 5142TIP3    H136985   3.920   2.452   1.341 -1.6582  0.8392  0.3787
 5142TIP3    H236986   3.875   2.429   1.198  1.8962 -0.5249 -0.6326
 5143TIP3   OH236987   3.074   5.658   6.498 -0.3563 -0.0486  0.2956
 5143TIP3    H136988   3.009   5.601   6.458  0.9104 -1.5708  0.2957
 5143TIP3    H236989   3.155   5.639   6.450  0.0229  2.1224 -0.0044
 5144TIP3   OH236990   2.881   6.032   0.388  0.2585  0.8138  0.4369
 5144TIP3    H136991   2.836   6.117   0.382 -2.0500 -0.3532  0.3197
 5144TIP3    H236992   2.821   5.977   0.439 -0.9049 -2.2834 -3.7250
 5145TIP3   OH236993   1.950   6.411   8.846  0.5151 -0.0749 -0.0884
 5145TIP3    H136994   1.917   6.329   8.882  1.0522 -0.1404  0.2803
 5145TIP3    H236995   1.968   6.466   8.923  0.8919  0.0915 -0.2886
 5146TIP3   OH236996   4.710   2.965   1.112  0.4986  0.2559  0.0137
 5146TIP3    H136997   4.731   3.047   1.157  0.8818  0.1211  0.0796
 5146TIP3    H236998   4.651   2.919   1.172 -0.6020  0.9646 -0.4962
 5147TIP3   OH236999   1.994   6.292   7.810 -0.9401 -0.2077 -0.2264
 5147TIP3    H137000   2.087   6.279   7.791 -1.1625 -0.0865 -1.5381
 5147TIP3    H237001   1.968   6.214   7.859 -0.3076 -0.6141 -0.5174
 5148TIP3   OH237002   4.899   1.162   6.347  0.5390 -0.0414 -0.3994
 5148TIP3    H137003   4.958   1.120   6.284 -0.5545 -0.6612 -1.0545
 5148TIP3    H237004   4.874   1.092   6.407  0.5057  0.2277 -0.0979
 5149TIP3   OH237005   1.086   4.309   1.477 -0.0209  0.1602  0.0822
 5149TIP3    H137006   1.012   4.272   1.525  0.0787 -1.5038 -0.9724
 5149TIP3    H237007   1.082   4.268   1.391  3.5297 -1.9786  0.7368
 5150TIP3   OH237008   5.579   2.984   1.717 -0.2347 -0.4431  0.0169
 5150TIP3    H137009   5.539   2.905   1.755  2.1282 -1.8704 -0.2808
 5150TIP3    H237010   5.603   3.037   1.793 -1.6855 -0.0214  0.2245
 5151TIP3   OH237011   6.669   3.533   2.477 -0.2829 -0.0139  0.3370
 5151TIP3    H137012   6.751   3.495   2.445 -0.3213  1.7383 -2.0772
 5151TIP3    H237013   6.695   3.596   2.544  0.2548 -0.0687  0.1792
 5152TIP3   OH237014   0.742   4.487   7.716  0.3615 -0.0684  0.0993
 5152TIP3    H137015   0.704   4.558   7.767 -0.0855 -1.3723  1.6465
 5152TIP3    H237016   0.831   4.516   7.696  0.0695  1.0579  0.3876
 5153TIP3   OH237017   3.169   6.770   7.714  0.3792  0.4701  0.2200
 5153TIP3    H137018   3.076   6.789   7.717  0.1640 -0.0588 -1.6464
 5153TIP3    H237019   3.182   6.700   7.778 -0.6133  0.1692  0.1065
 5154TIP3   OH237020   1.195   1.059   0.759  0.3451  0.2371 -0.2238
 5154TIP3    H137021   1.134   1.009   0.705  2.6374 -3.1612 -0.0272
 5154TIP3    H237022   1.264   1.086   0.699 -0.6719  3.1465 -0.2537
 5155TIP3   OH237023   1.830   3.307   6.603 -0.1585 -0.4487 -0.7586
 5155TIP3    H137024   1.779   3.229   6.582 -0.3167 -0.8645  1.0173
 5155TIP3    H237025   1.910   3.298   6.552 -0.5935 -1.2855 -1.3138
 5156TIP3   OH237026   1.475   4.520   7.945 -0.3681 -0.5749  0.6739
 5156TIP3    H137027   1.527   4.536   7.866 -1.4098  2.3551  0.4684
 5156TIP3    H237028   1.436   4.433   7.930 -0.3232 -0.2318 -1.9457
 5157TIP3   OH237029   4.225   3.197   0.216 -0.1786  0.0283 -0.0946
 5157TIP3    H137030   4.284   3.180   0.143 -0.4888  0.2481 -0.3946
 5157TIP3    H237031   4.263   3.273   0.261 -0.7593  0.7967 -0.8640
 5158TIP3   OH237032   5.398   5.611   6.838  0.2656 -0.2824 -0.0596
 5158TIP3    H137033   5.317   5.661   6.848  0.3074 -0.0962 -0.5872
 5158TIP3    H237034   5.378   5.524   6.873  0.4512  0.3451  1.6814
 5159TIP3   OH237035   3.298   4.988   7.817  0.4797  0.2636  0.4540
 5159TIP3    H137036   3.277   4.915   7.874 -0.2180  0.1494  0.0575
 5159TIP3    H237037   3.217   5.007   7.770  1.2737 -0.2889 -1.2186
 5160TIP3   OH237038   3.036   6.690   1.108  0.3754  0.2828  0.0367
 5160TIP3    H137039   3.028   6.601   1.143  0.2433 -0.7062 -2.2929
 5160TIP3    H237040   3.129   6.708   1.108  0.3097  0.8024  1.9343
 5161TIP3   OH237041   0.569   5.653   7.891  0.5797  0.4740 -0.3082
 5161TIP3    H137042   0.562   5.557   7.889 -0.7442  0.4806  1.4664
 5161TIP3    H237043   0.574   5.679   7.799  0.1126 -1.2525 -0.8537
 5162TIP3   OH237044   1.070   6.381   8.624  0.0207  0.4146 -0.2740
 5162TIP3    H137045   1.093   6.401   8.534 -1.2685 -2.8852 -1.5145
 5162TIP3    H237046   1.151   6.389   8.673  1.2024  0.3108 -2.1408
 5163TIP3   OH237047   5.180   0.281   0.476  0.2722  0.3460 -0.3735
 5163TIP3    H137048   5.202   0.305   0.566  2.4002 -0.0097 -0.7411
 5163TIP3    H237049   5.098   0.326   0.458 -0.2149  0.3810  1.7508
 5164TIP3   OH237050   2.618   1.495   7.714 -0.1213 -0.1438  0.2432
 5164TIP3    H137051   2.569   1.480   7.795 -0.5930 -0.6177 -0.1236
 5164TIP3    H237052   2.591   1.582   7.686 -1.1682 -0.6094 -0.2343
 5165TIP3   OH237053   0.513   4.342   0.003  0.2869 -0.0355 -0.5201
 5165TIP3    H137054   0.443   4.311   0.060 -0.2506  1.7840 -0.1400
 5165TIP3    H237055   0.504   4.437   0.003  1.7972  0.1454 -1.7131
 5166TIP3   OH237056   2.453   0.038   1.768 -0.2176  1.0268  0.7905
 5166TIP3    H137057   2.362   0.040   1.738 -0.9936 -1.3331  2.7204
 5166TIP3    H237058   2.458   0.110   1.831 -0.5988  1.4371  0.3694
 5167TIP3   OH237059   0.091   6.406   8.118  0.2569 -0.2363  0.2353
 5167TIP3    H137060   0.148   6.331   8.134 -0.5667 -0.8971  0.1377
 5167TIP3    H237061   0.047   6.421   8.202 -0.2545 -0.4449  0.0079
 5168TIP3   OH237062   6.719   1.973   2.692 -0.7345  0.3924 -0.4013
 5168TIP3    H137063   6.669   1.917   2.752 -0.1819 -1.5882 -1.6662
 5168TIP3    H237064   6.684   1.951   2.605 -0.4517  2.0188 -0.9615
 5169TIP3   OH237065   5.505   1.607   0.067 -0.0126  0.5382  0.1486
 5169TIP3    H137066   5.423   1.557   0.073 -0.2494  0.8730 -0.1775
 5169TIP3    H237067   5.479   1.697   0.087  0.1869  0.7227 -0.3878
 5170TIP3   OH237068   4.066   1.630   8.387  0.3893  0.1651  0.0002
 5170TIP3    H137069   4.097   1.550   8.345  0.1234 -0.8958  1.7084
 5170TIP3    H237070   4.140   1.691   8.381  1.0178 -0.6087 -0.3163
 5171TIP3   OH237071   0.893   3.359   7.413 -0.0171 -0.1439 -0.0285
 5171TIP3    H137072   0.980   3.321   7.403  0.5485  0.8299  0.9677
 5171TIP3    H237073   0.861   3.368   7.324  0.4396 -1.5193 -0.3619
 5172TIP3   OH237074   6.350   0.533   0.894 -0.3865 -0.0572  0.5858
 5172TIP3    H137075   6.403   0.459   0.864  2.0742  1.9805 -0.3179
 5172TIP3    H237076   6.297   0.496   0.966  0.0289 -2.8874 -0.4401
 5173TIP3   OH237077   0.972   4.502   0.157 -0.2121 -0.6769 -0.5025
 5173TIP3    H137078   1.016   4.418   0.149  0.3670 -0.2361 -2.4611
 5173TIP3    H237079   0.968   4.536   0.067  0.6287  1.9072  0.3578
 5174TIP3   OH237080   4.217   0.764   2.111  0.1564  0.1894  0.1492
 5174TIP3    H137081   4.298   0.726   2.077 -0.0682 -0.1298 -0.0403
 5174TIP3    H237082   4.165   0.688   2.138  0.4597  0.4498  1.5235
 5175TIP3   OH237083   0.684   6.022   7.274 -0.3320 -0.0737  0.2039
 5175TIP3    H137084   0.651   6.058   7.191  0.2093 -1.6073 -0.7206
 5175TIP3    H237085   0.736   5.946   7.248  0.7162  0.0254  1.9034
 5176TIP3   OH237086   6.220   3.781   1.465 -0.3535 -0.4446  0.2379
 5176TIP3    H137087   6.294   3.739   1.423 -1.8337 -0.7454 -2.2895
 5176TIP3    H237088   6.155   3.711   1.476 -1.7386  0.5102 -1.3413
 5177TIP3   OH237089   0.271   1.161   2.432 -0.2163  0.2100  0.7077
 5177TIP3    H137090   0.317   1.244   2.423  0.4025 -0.2543 -0.7748
 5177TIP3    H237091   0.325   1.110   2.493 -0.5546  0.8510  1.5534
 5178TIP3   OH237092   1.882   4.851   8.712  0.2828 -0.0238  0.4138
 5178TIP3    H137093   1.927   4.822   8.633 -0.5962  0.1056 -0.1518
 5178TIP3    H237094   1.827   4.923   8.683 -0.3881 -0.2638  1.0535
 5179TIP3   OH237095   2.449   4.975   0.858 -0.2642  0.2227  0.2274
 5179TIP3    H137096   2.495   5.059   0.847 -1.8408  1.1500  0.3783
 5179TIP3    H237097   2.453   4.934   0.772  2.4174 -0.6225  0.6617
 5180TIP3   OH237098   2.494   2.927   8.450  0.1026 -0.0879 -0.4343
 5180TIP3    H137099   2.580   2.887   8.465  0.6581  0.6980 -1.4491
 5180TIP3    H237100   2.479   2.981   8.528 -0.1266 -1.3003  0.3992
 5181TIP3   OH237101   0.584   6.706   1.051 -0.3343 -0.0729  0.9656
 5181TIP3    H137102   0.662   6.688   0.999  0.8027 -0.1236  2.6098
 5181TIP3    H237103   0.525   6.752   0.991  0.2611 -1.5034 -0.7919
 5182TIP3   OH237104   4.530   4.251   7.259 -0.0997  0.5964 -0.0973
 5182TIP3    H137105   4.470   4.216   7.193 -0.6747 -1.0994  1.2568
 5182TIP3    H237106   4.612   4.203   7.243 -0.2002  0.2807  0.3165
 5183TIP3   OH237107   3.025   5.630   1.336 -0.0763  0.0488 -0.2826
 5183TIP3    H137108   2.949   5.577   1.311  1.2578 -1.1987 -1.9251
 5183TIP3    H237109   3.083   5.569   1.381  1.9419 -0.2850 -3.0877
 5184TIP3   OH237110   5.712   4.428   8.182 -0.0662 -0.4116  0.5424
 5184TIP3    H137111   5.628   4.397   8.148 -0.1595 -0.0175  0.4119
 5184TIP3    H237112   5.758   4.348   8.207  0.4338 -0.7986 -1.4844
 5185TIP3   OH237113   1.055   6.679   8.413  0.4693  0.3699  0.0905
 5185TIP3    H137114   1.110   6.610   8.451 -0.3986 -1.2021 -1.3682
 5185TIP3    H237115   0.995   6.632   8.355 -0.0694  2.3944 -1.0668
 5186TIP3   OH237116   5.184   3.567   7.065  0.4047  0.1741  0.4201
 5186TIP3    H137117   5.190   3.501   6.996 -3.3533 -0.9847  0.9773
 5186TIP3    H237118   5.252   3.631   7.043 -0.5988 -0.0538 -4.4189
 5187TIP3   OH237119   5.007   4.447   1.427  0.2003 -0.0881  0.4579
 5187TIP3    H137120   4.997   4.433   1.521 -0.4738 -0.2023  0.3696
 5187TIP3    H237121   5.088   4.497   1.419 -0.8495  1.8372  1.2616
 5188TIP3   OH237122   6.500   4.688   7.730 -0.6113  0.2001  0.2157
 5188TIP3    H137123   6.439   4.758   7.755 -0.5107 -0.3124  2.0341
 5188TIP3    H237124   6.457   4.644   7.657 -1.1889  1.4535 -0.2455
 5189TIP3   OH237125   3.570   3.334   0.421 -0.0493 -0.6045  0.1711
 5189TIP3    H137126   3.618   3.302   0.345 -0.5673  0.8938 -0.8393
 5189TIP3    H237127   3.540   3.421   0.395 -5.3380 -2.2250 -0.2165
 5190TIP3   OH237128   2.866   6.278   1.422 -0.1011  0.4034  0.0078
 5190TIP3    H137129   2.778   6.242   1.420 -0.3610  0.9939  0.4778
 5190TIP3    H237130   2.866   6.336   1.499  0.5531  0.7643 -0.2596
 5191TIP3   OH237131   6.339   1.202   6.541 -0.2669  0.5186  0.0800
 5191TIP3    H137132   6.297   1.117   6.556  0.6457  0.0444  0.0079
 5191TIP3    H237133   6.394   1.188   6.464  1.6921  0.4856  1.4075
 5192TIP3   OH237134   5.320   1.690   0.727 -0.5862 -0.6081 -0.2411
 5192TIP3    H137135   5.241   1.744   0.723  0.4718  0.9562 -0.8407
 5192TIP3    H237136   5.287   1.600   0.727 -2.4113  0.0027  0.9289
 5193TIP3   OH237137   1.061   0.369   0.700  0.1965  0.2737 -0.0587
 5193TIP3    H137138   1.118   0.390   0.774 -0.2169 -0.4967  0.4950
 5193TIP3    H237139   1.084   0.434   0.633  1.2083  0.4269  0.4095
 5194TIP3   OH237140   3.848   4.018   8.017 -0.1763 -0.3650  0.0250
 5194TIP3    H137141   3.927   3.965   8.021 -1.6891 -2.7017  1.1906
 5194TIP3    H237142   3.776   3.955   8.024 -2.3171  1.2928 -3.7783
 5195TIP3   OH237143   3.952   1.414   7.444  0.0836  0.3000 -0.2061
 5195TIP3    H137144   4.030   1.468   7.432  0.0168  0.5924  0.6325
 5195TIP3    H237145   3.914   1.407   7.356 -0.3132  2.2452 -0.2404
 5196TIP3   OH237146   5.885   6.495   7.168  0.0468 -0.2734  0.3650
 5196TIP3    H137147   5.872   6.402   7.188 -1.3793 -0.0644  0.5311
 5196TIP3    H237148   5.976   6.501   7.139  0.0982 -1.7601  0.1375
 5197TIP3   OH237149   4.071   2.664   8.230 -0.3313  0.1748 -0.1174
 5197TIP3    H137150   4.042   2.714   8.153  0.6515  1.5593  0.3673
 5197TIP3    H237151   4.037   2.713   8.305 -3.2133 -2.3705  0.3934
 5198TIP3   OH237152   4.870   1.642   1.028  0.6132  0.6676 -0.0873
 5198TIP3    H137153   4.850   1.614   1.118 -1.5804 -0.1409 -0.7534
 5198TIP3    H237154   4.884   1.736   1.034  0.8486  0.5725  1.1345
 5199TIP3   OH237155   2.899   4.622   0.472  0.2781  0.2708 -0.2457
 5199TIP3    H137156   2.836   4.624   0.544 -0.0171 -0.1197 -0.4924
 5199TIP3    H237157   2.973   4.571   0.506  0.7956  1.3265  0.3021
 5200TIP3   OH237158   2.175   0.444   6.670 -0.0631  0.6934  0.1145
 5200TIP3    H137159   2.114   0.419   6.740 -1.2539  3.2319  0.0693
 5200TIP3    H237160   2.158   0.382   6.599 -0.6780 -0.2808  1.0919
 5201TIP3   OH237161   5.997   4.282   7.284 -0.3804  0.6700 -0.2408
 5201TIP3    H137162   6.017   4.350   7.349  1.5268  0.9085 -1.0271
 5201TIP3    H237163   6.021   4.321   7.200 -0.4597 -0.5164 -0.8315
 5202TIP3   OH237164   4.726   5.569   7.076  0.1785  0.0375 -0.2467
 5202TIP3    H137165   4.725   5.592   7.168 -1.8478 -3.6618  0.8981
 5202TIP3    H237166   4.712   5.651   7.030 -0.9585  1.7392  2.8579
 5203TIP3   OH237167   4.116   1.032   2.263 -0.7284 -0.2079 -0.2808
 5203TIP3    H137168   4.108   1.123   2.236 -2.8714 -0.9255 -2.4971
 5203TIP3    H237169   4.113   1.035   2.359 -1.7476  1.9942 -0.3136
 5204TIP3   OH237170   4.741   2.290   8.519  0.3195 -0.0167  0.2961
 5204TIP3    H137171   4.827   2.279   8.558 -0.1048 -1.9750  0.8149
 5204TIP3    H237172   4.755   2.282   8.425  0.8074  0.5144  0.3223
 5205TIP3   OH237173   6.544   5.558   8.769  0.6784 -0.4799 -0.2827
 5205TIP3    H137174   6.531   5.467   8.740 -0.4308 -1.1512  2.0570
 5205TIP3    H237175   6.497   5.563   8.852 -1.0989  2.8635 -1.3228
 5206TIP3   OH237176   4.907   0.045   0.980  0.1986  0.2970  0.0140
 5206TIP3    H137177   4.985   0.017   1.028 -0.4628 -0.6896  0.5631
 5206TIP3    H237178   4.939   0.073   0.895  1.1524 -0.0964  0.2313
 5207TIP3   OH237179   0.865   3.292   7.948  0.5623 -0.1036 -0.5600
 5207TIP3    H137180   0.930   3.223   7.965 -0.0575 -0.8539 -1.1442
 5207TIP3    H237181   0.819   3.262   7.870 -1.1552 -0.0916  0.4103
 5208TIP3   OH237182   4.987   3.134   6.966  0.4855  0.0072  0.6898
 5208TIP3    H137183   4.948   3.065   7.020 -0.3869  0.5561  0.7685
 5208TIP3    H237184   4.995   3.094   6.879 -1.2368  0.2133  0.4076
 5209TIP3   OH237185   5.886   4.282   0.834  0.0887  0.3389  0.1036
 5209TIP3    H137186   5.972   4.292   0.795  0.7388 -0.8798  1.1771
 5209TIP3    H237187   5.860   4.192   0.813  0.3505 -0.2634  2.2030
 5210TIP3   OH237188   0.717   1.458   0.455 -0.4723 -0.8942 -0.0539
 5210TIP3    H137189   0.628   1.425   0.467 -1.8639  2.0982 -1.2938
 5210TIP3    H237190   0.715   1.502   0.370  1.7407  0.6273  0.6101
 5211TIP3   OH237191   3.830   6.517   7.385  0.1078 -0.9560 -0.0329
 5211TIP3    H137192   3.901   6.453   7.386 -0.3150 -1.4279  0.8832
 5211TIP3    H237193   3.874   6.601   7.393  0.5119 -1.3178  1.9928
 5212TIP3   OH237194   3.393   5.617   1.663 -0.1421 -0.5376 -0.2556
 5212TIP3    H137195   3.407   5.703   1.704 -1.6131 -0.2878 -0.2513
 5212TIP3    H237196   3.480   5.576   1.666  0.3845  0.5618  0.6101
 5213TIP3   OH237197   4.234   4.231   1.008 -0.4721  0.1930 -0.7212
 5213TIP3    H137198   4.286   4.298   0.963 -0.9452  1.4283  0.4875
 5213TIP3    H237199   4.143   4.255   0.990 -0.6787 -1.4235 -2.0651
 5214TIP3   OH237200   3.389   1.831   8.272  0.4584 -0.7758  0.1407
 5214TIP3    H137201   3.448   1.776   8.222  0.3187  0.8389 -1.9424
 5214TIP3    H237202   3.326   1.863   8.208 -0.6040  0.2879  1.6374
 5215TIP3   OH237203   3.685   5.101   1.393  0.3925 -0.4115  0.6161
 5215TIP3    H137204   3.706   5.025   1.339 -0.0912  0.1396 -0.3705
 5215TIP3    H237205   3.664   5.064   1.479  0.1008 -1.3961  0.1395
 5216TIP3   OH237206   2.388   2.068   0.292  0.4366 -0.4223 -0.7601
 5216TIP3    H137207   2.361   2.156   0.317  2.1188  0.5357 -2.1693
 5216TIP3    H237208   2.349   2.012   0.359  1.5961  1.6348  1.8092
 5217TIP3   OH237209   3.241   3.405   7.789  0.4876 -0.2405 -0.2197
 5217TIP3    H137210   3.256   3.477   7.851  0.0307  1.0725 -1.5736
 5217TIP3    H237211   3.302   3.422   7.717 -0.3339 -0.6276 -1.0286
 5218TIP3   OH237212   4.210   6.322   8.797  0.1037 -0.7349 -0.0113
 5218TIP3    H137213   4.228   6.406   8.840 -0.3376 -1.1357  0.9764
 5218TIP3    H237214   4.169   6.346   8.714 -0.1956  0.0280  0.3489
 5219TIP3   OH237215   1.610   5.345   7.001 -0.0124 -0.1720  0.0476
 5219TIP3    H137216   1.613   5.282   6.929  0.8357  0.0899 -0.1682
 5219TIP3    H237217   1.643   5.427   6.963 -1.5192  0.5449  0.2010
 5220TIP3   OH237218   0.879   6.182   8.537  0.4975  0.0134 -0.5033
 5220TIP3    H137219   0.860   6.108   8.595  1.9753 -1.0849 -1.3382
 5220TIP3    H237220   0.906   6.253   8.595  1.1024 -0.7842  0.2196
 5221TIP3   OH237221   1.069   6.487   0.173 -0.4598 -0.4853  0.1099
 5221TIP3    H137222   1.154   6.504   0.132 -1.1329  0.7210 -0.8645
 5221TIP3    H237223   1.005   6.502   0.103 -1.7003  2.2359  1.6398
 5222TIP3   OH237224   0.108   1.564   7.725  0.5602  0.6615  0.1000
 5222TIP3    H137225   0.092   1.550   7.818 -0.3799  0.9532 -0.0071
 5222TIP3    H237226   0.037   1.623   7.697  1.8892  2.1005 -0.3904
 5223TIP3   OH237227   5.646   4.443   0.846 -0.0350  0.0704 -0.0245
 5223TIP3    H137228   5.740   4.430   0.836 -0.2899 -1.1344 -1.1209
 5223TIP3    H237229   5.608   4.405   0.766 -1.4537  0.3729  0.4821
 5224TIP3   OH237230   6.404   4.295   0.255 -0.2289 -0.6290 -0.3920
 5224TIP3    H137231   6.482   4.341   0.283 -0.4380 -0.6067  0.1612
 5224TIP3    H237232   6.436   4.224   0.200  0.2052 -0.8272  0.1113
 5225TIP3   OH237233   4.326   1.108   7.023  0.3156  0.3409  0.2735
 5225TIP3    H137234   4.267   1.170   7.064 -2.1725 -0.1021 -2.3525
 5225TIP3    H237235   4.272   1.032   7.003  2.4494 -1.2676  0.2013
 5226TIP3   OH237236   6.422   1.762   0.714  0.4163 -0.0772 -0.0588
 5226TIP3    H137237   6.478   1.720   0.648 -0.2069 -1.6279  0.3639
 5226TIP3    H237238   6.363   1.693   0.744 -2.1179  1.5700 -0.8455
 5227TIP3   OH237239   3.783   0.141   0.239  0.1735 -0.0038  0.2819
 5227TIP3    H137240   3.734   0.156   0.158  1.3816  0.6887 -0.3437
 5227TIP3    H237241   3.721   0.097   0.297 -1.7979  2.3718  0.1654
 5228TIP3   OH237242   6.555   1.859   7.810 -0.0178  0.0718 -0.0563
 5228TIP3    H137243   6.600   1.936   7.776 -1.1927 -0.1050 -2.2513
 5228TIP3    H237244   6.500   1.892   7.881  0.8387  0.9349  0.2174
 5229TIP3   OH237245   6.437   0.364   2.595  0.5821  0.3845  0.5361
 5229TIP3    H137246   6.368   0.425   2.569 -0.9103 -0.8214  1.5373
 5229TIP3    H237247   6.420   0.346   2.687  2.2762  0.0749  0.8224
 5230TIP3   OH237248   4.758   0.596   1.883  0.1586 -0.0935 -0.2104
 5230TIP3    H137249   4.747   0.521   1.941  0.8012 -0.0880 -0.0751
 5230TIP3    H237250   4.747   0.672   1.940  0.3542 -0.0860 -0.1840
 5231TIP3   OH237251   3.432   5.811   1.070 -0.1641  0.0420 -0.7254
 5231TIP3    H137252   3.423   5.752   1.144 -1.0647  1.7187  0.5664
 5231TIP3    H237253   3.520   5.793   1.036  0.8226  0.1454  1.5884
 5232TIP3   OH237254   2.681   6.331   7.491  0.2663 -0.3974  0.3418
 5232TIP3    H137255   2.603   6.299   7.446  0.9184 -1.1125 -0.2991
 5232TIP3    H237256   2.661   6.320   7.584  0.8267 -3.7579  0.1966
 5233TIP3   OH237257   1.411   1.082   8.128  0.0515  0.1466 -0.1061
 5233TIP3    H137258   1.430   1.121   8.042 -0.4505  0.1762 -0.2077
 5233TIP3    H237259   1.414   0.988   8.114  0.7788  0.1494  0.0280
 5234TIP3   OH237260   6.754   4.853   1.679 -0.2529 -0.3824  0.6164
 5234TIP3    H137261   6.783   4.786   1.617  1.6697 -0.4326  1.4942
 5234TIP3    H237262   6.739   4.805   1.761  1.6579  0.2863  1.4020
 5235TIP3   OH237263   5.065   3.213   2.327 -0.6118  0.1603 -0.8713
 5235TIP3    H137264   5.018   3.270   2.266 -2.2811  1.1385  1.2021
 5235TIP3    H237265   4.997   3.175   2.382  0.4241 -3.9506 -2.1003
 5236TIP3   OH237266   5.153   0.313   8.106 -0.4862  0.0810 -0.3119
 5236TIP3    H137267   5.236   0.268   8.090 -0.2926  0.9157 -1.8052
 5236TIP3    H237268   5.088   0.242   8.109  0.3596 -0.6980  1.9972
 5237TIP3   OH237269   4.582   4.850   0.948  0.1906 -0.2842  0.1025
 5237TIP3    H137270   4.677   4.860   0.950  0.1839 -0.2675  0.4215
 5237TIP3    H237271   4.566   4.766   0.990  0.0572 -0.2353  0.1516
 5238TIP3   OH237272   0.098   5.163   8.168 -0.1048  0.0714  0.1223
 5238TIP3    H137273   0.121   5.210   8.248 -1.1421 -0.5621  0.8236
 5238TIP3    H237274   0.021   5.210   8.134 -0.3150 -0.2944  0.0882
 5239TIP3   OH237275   1.529   0.288   2.218  0.3066  0.2138  0.2304
 5239TIP3    H137276   1.588   0.364   2.219 -2.0102  2.1151  0.2907
 5239TIP3    H237277   1.479   0.294   2.299 -0.2862 -1.1148  0.0022
 5240TIP3   OH237278   5.609   2.005   7.694  0.6380  0.0741 -0.1997
 5240TIP3    H137279   5.590   1.955   7.773 -0.6685 -1.0752 -1.1882
 5240TIP3    H237280   5.628   1.938   7.628  1.6142  0.9979 -0.8972
 5241TIP3   OH237281   3.113   4.660   1.379 -0.1884  0.5823  0.0034
 5241TIP3    H137282   3.095   4.701   1.294  0.8257 -0.7300 -0.8875
 5241TIP3    H237283   3.190   4.706   1.412 -0.2127  0.6827 -0.0780
 5242TIP3   OH237284   0.331   6.075   8.445  0.0721 -0.0257  1.0976
 5242TIP3    H137285   0.297   6.015   8.511 -0.2605 -0.7910  0.2537
 5242TIP3    H237286   0.426   6.070   8.454  0.1388 -2.1573 -0.1826
 5243TIP3   OH237287   6.575   2.863   7.603  0.5974 -0.0997 -0.3625
 5243TIP3    H137288   6.527   2.796   7.555  1.2441  0.1403 -1.3492
 5243TIP3    H237289   6.642   2.815   7.652  0.4104 -0.2664 -0.2679
 5244TIP3   OH237290   3.949   2.773   0.520 -0.3276  0.0340  0.1717
 5244TIP3    H137291   4.022   2.716   0.495 -0.7080 -0.5571  0.3915
 5244TIP3    H237292   3.871   2.722   0.500 -0.6685 -0.3502  2.2207
 5245TIP3   OH237293   2.354   0.211   0.943 -0.1355  0.0337  0.1061
 5245TIP3    H137294   2.436   0.181   0.980 -0.4927  0.0397  0.9122
 5245TIP3    H237295   2.356   0.306   0.952 -0.0276  0.0738 -0.3094
 5246TIP3   OH237296   2.679   4.161   2.567 -0.2471  0.1753  0.4249
 5246TIP3    H137297   2.653   4.233   2.509 -0.0242 -0.9858 -1.1748
 5246TIP3    H237298   2.654   4.082   2.520  1.9558 -0.8786  0.8943
 5247TIP3   OH237299   6.294   3.263   7.489 -0.2229 -0.1642  0.1193
 5247TIP3    H137300   6.369   3.246   7.546 -0.2656 -0.7454  0.0090
 5247TIP3    H237301   6.320   3.225   7.405 -0.3672  0.2366 -0.1052
 5248TIP3   OH237302   3.190   6.255   8.804 -0.2222  0.0221  0.1932
 5248TIP3    H137303   3.192   6.285   8.713 -0.2351  3.6963  1.2541
 5248TIP3    H237304   3.105   6.212   8.813 -1.5424  2.2109 -0.8883
 5249TIP3   OH237305   0.278   2.310   1.354 -0.0013 -0.1774  0.6178
 5249TIP3    H137306   0.192   2.350   1.342  0.1370  0.0438  0.3584
 5249TIP3    H237307   0.261   2.216   1.355 -0.0778 -0.2108 -0.9500
 5250TIP3   OH237308   0.466   1.729   8.410  0.5244  0.0359  0.4449
 5250TIP3    H137309   0.503   1.662   8.468 -0.5181  1.0418  2.3666
 5250TIP3    H237310   0.382   1.692   8.383  0.4788  0.0651  0.5460
 5251TIP3   OH237311   0.725   3.960   1.473  0.6615  0.7640  0.1496
 5251TIP3    H137312   0.709   3.884   1.530 -0.3875  0.4102 -0.5813
 5251TIP3    H237313   0.747   4.031   1.533 -0.2630  0.3598  0.9935
 5252TIP3   OH237314   6.548   1.419   7.703  0.2953  0.3377 -0.0218
 5252TIP3    H137315   6.555   1.513   7.683  0.5370  0.4072  0.3682
 5252TIP3    H237316   6.466   1.412   7.752  0.4539  0.4039  0.2564
 5253TIP3   OH237317   3.593   5.102   6.989  0.5047  0.2626  0.2967
 5253TIP3    H137318   3.554   5.151   7.061  0.7220  1.9619 -0.7049
 5253TIP3    H237319   3.577   5.155   6.911  0.5040 -1.3950 -0.9001
 5254TIP3   OH237320   2.946   3.232   0.412 -0.5311  0.0006  0.2329
 5254TIP3    H137321   2.953   3.327   0.404 -1.0733  0.0413  0.2473
 5254TIP3    H237322   2.901   3.218   0.495  0.1784 -0.2893  0.5789
 5255TIP3   OH237323   5.031   4.115   0.630 -0.1396 -0.0258  0.1297
 5255TIP3    H137324   5.069   4.093   0.716  1.6667  0.4472 -0.5039
 5255TIP3    H237325   5.091   4.179   0.593 -0.7582 -0.3881 -1.6002
 5256TIP3   OH237326   2.211   4.404   7.644  0.6558 -0.2065 -0.5589
 5256TIP3    H137327   2.251   4.318   7.651  1.9966  0.4601  0.7166
 5256TIP3    H237328   2.182   4.410   7.553  2.8927 -1.0306 -1.4107
 5257TIP3   OH237329   3.788   3.782   1.510  0.4887 -0.8568 -0.4117
 5257TIP3    H137330   3.880   3.760   1.523 -0.1309 -3.5327 -0.0312
 5257TIP3    H237331   3.754   3.712   1.455 -1.4650 -0.2324 -0.0907
 5258TIP3   OH237332   1.267   2.016   1.881 -0.2466 -0.2968  0.0541
 5258TIP3    H137333   1.313   1.932   1.884  1.0196  0.3815  0.5539
 5258TIP3    H237334   1.336   2.081   1.891 -1.1570  0.8320 -0.7076
 5259TIP3   OH237335   0.819   0.567   2.153  0.4057  0.1708 -0.9643
 5259TIP3    H137336   0.763   0.505   2.200  0.1708  0.7045 -0.5237
 5259TIP3    H237337   0.882   0.512   2.106  0.4740 -0.3881 -0.2368
 5260TIP3   OH237338   1.953   1.558   7.917 -1.3823 -0.1746  0.4456
 5260TIP3    H137339   1.966   1.472   7.956  0.6408 -0.2610 -0.2843
 5260TIP3    H237340   1.863   1.557   7.885 -0.4116 -3.4533 -2.8180
 5261TIP3   OH237341   1.602   3.735   2.400 -0.4122  0.5199  0.1951
 5261TIP3    H137342   1.646   3.650   2.407  0.8282  1.2149  0.9953
 5261TIP3    H237343   1.613   3.760   2.309  0.2276  0.3676  0.2305
 5262TIP3   OH237344   4.902   5.103   1.673 -0.0644  0.0565 -0.2902
 5262TIP3    H137345   4.939   5.168   1.614  0.5763 -0.3619 -0.3627
 5262TIP3    H237346   4.834   5.150   1.721  0.9995  1.0405  0.3094
 5263TIP3   OH237347   4.468   5.733   2.278 -0.0351  0.0946  0.8925
 5263TIP3    H137348   4.487   5.644   2.309 -1.5227 -0.4900  0.2559
 5263TIP3    H237349   4.545   5.784   2.302  0.8943 -1.3829  1.1996
 5264TIP3   OH237350   3.324   4.586   8.088  0.1079  0.6226 -0.0283
 5264TIP3    H137351   3.385   4.574   8.015  0.4564  1.4044  0.1326
 5264TIP3    H237352   3.256   4.644   8.054 -1.4720 -1.4911 -0.7317
 5265TIP3   OH237353   2.157   3.112   1.366  0.6464  0.1107  0.5899
 5265TIP3    H137354   2.165   3.112   1.271  2.5761  0.4535  0.7071
 5265TIP3    H237355   2.064   3.098   1.383  0.2400  0.2637 -1.3397
 5266TIP3   OH237356   2.034   5.012   2.386 -0.2799 -0.1915 -0.4767
 5266TIP3    H137357   1.991   4.934   2.351 -1.0102 -0.6985  1.4748
 5266TIP3    H237358   2.126   4.987   2.395 -0.3472 -0.5112 -0.6720
 5267TIP3   OH237359   2.940   0.665   7.690  0.4986 -0.2412 -0.1456
 5267TIP3    H137360   2.867   0.692   7.635 -0.4442  0.2716  1.2794
 5267TIP3    H237361   2.907   0.676   7.780  2.5600  0.6897  0.5568
 5268TIP3   OH237362   5.775   6.001   0.367  0.3485 -0.2188 -0.0406
 5268TIP3    H137363   5.792   5.971   0.278 -1.1423 -0.7018 -0.1969
 5268TIP3    H237364   5.749   5.921   0.414 -0.4146  0.2780  0.4019
 5269TIP3   OH237365   2.597   6.431   0.688  0.6879 -0.1484 -0.0621
 5269TIP3    H137366   2.542   6.369   0.736 -1.6344  2.1511  0.5347
 5269TIP3    H237367   2.652   6.471   0.756  0.2252  0.3415  0.0282
 5270TIP3   OH237368   1.054   4.966   7.946  0.7661 -0.3169  0.4850
 5270TIP3    H137369   1.093   4.946   7.861 -0.4338  0.7410 -0.3501
 5270TIP3    H237370   0.984   4.902   7.956  0.6242 -0.1640  0.4718
 5271TIP3   OH237371   3.388   4.403   8.719 -0.7561  0.4861 -0.0864
 5271TIP3    H137372   3.396   4.355   8.801 -0.0271 -1.0344 -0.9800
 5271TIP3    H237373   3.294   4.406   8.702 -0.8160 -1.4609 -0.3928
 5272TIP3   OH237374   6.538   6.565   7.290  0.4903 -0.5852  0.5167
 5272TIP3    H137375   6.538   6.634   7.223  0.1464 -0.7106  0.3886
 5272TIP3    H237376   6.578   6.490   7.247  3.6755  0.3787  1.5406
 5273TIP3   OH237377   3.835   0.152   7.764  0.1820  0.4343 -0.2364
 5273TIP3    H137378   3.777   0.097   7.711 -0.9434  1.5855 -0.2811
 5273TIP3    H237379   3.913   0.099   7.779 -1.2127 -1.5046  0.5138
 5274TIP3   OH237380   1.196   5.826   0.845  0.8439 -0.1447 -0.2066
 5274TIP3    H137381   1.183   5.748   0.792 -0.5908  0.0405 -0.1675
 5274TIP3    H237382   1.111   5.870   0.844  1.4050  1.0009  0.4323
 5275TIP3   OH237383   4.842   2.501   0.487 -0.1159 -0.2922 -0.0074
 5275TIP3    H137384   4.819   2.527   0.576  0.0797 -3.0014  0.9513
 5275TIP3    H237385   4.762   2.512   0.437 -0.0321  1.9957  0.2559
 5276TIP3   OH237386   6.122   6.675   2.072  0.3047 -0.0955  0.5705
 5276TIP3    H137387   6.042   6.703   2.026 -0.6757  0.0249  2.2637
 5276TIP3    H237388   6.130   6.736   2.145  0.6824 -1.4477  1.7048
 5277TIP3   OH237389   3.775   4.856   2.517  0.1613  0.5386 -0.5810
 5277TIP3    H137390   3.838   4.912   2.562 -0.3134 -0.0501  0.9042
 5277TIP3    H237391   3.693   4.906   2.519 -0.0917  0.1133  0.1062
 5278TIP3   OH237392   2.818   3.621   7.121  0.4966  0.4188  0.1850
 5278TIP3    H137393   2.741   3.673   7.144  0.0243  0.2360 -0.9068
 5278TIP3    H237394   2.889   3.661   7.170 -0.3592  0.3075  1.5782
 5279TIP3   OH237395   1.046   5.300   0.966  0.1717 -0.0444 -0.7281
 5279TIP3    H137396   0.993   5.313   0.887 -0.1016 -1.0760 -0.7307
 5279TIP3    H237397   0.982   5.302   1.038  0.3345  0.2411 -0.5900
 5280TIP3   OH237398   6.025   2.471   1.253 -0.0832 -0.5070  0.3935
 5280TIP3    H137399   6.022   2.379   1.278 -0.0225 -0.9598 -1.1691
 5280TIP3    H237400   5.984   2.474   1.167 -1.4684  1.1742  1.0534
 5281TIP3   OH237401   2.623   5.110   0.575  0.3151 -0.1753 -0.5611
 5281TIP3    H137402   2.529   5.114   0.594  0.0741  1.3542 -1.8887
 5281TIP3    H237403   2.635   5.023   0.535 -0.7252 -0.0501 -1.2084
 5282TIP3   OH237404   6.034   5.965   0.218  0.3576 -0.3463 -0.4258
 5282TIP3    H137405   6.065   6.039   0.165 -1.1299  1.7130  1.3779
 5282TIP3    H237406   6.053   5.990   0.308 -3.0363 -0.5622  0.5082
 5283TIP3   OH237407   3.476   0.454   0.967  0.1339  0.6309 -0.2609
 5283TIP3    H137408   3.564   0.455   1.005  0.2440 -3.7996  0.1749
 5283TIP3    H237409   3.421   0.499   1.031  1.5080 -0.0398  1.4877
 5284TIP3   OH237410   2.480   6.611   7.402 -0.1830 -0.1249 -0.0667
 5284TIP3    H137411   2.432   6.555   7.341  3.0922 -1.0310 -2.1045
 5284TIP3    H237412   2.480   6.562   7.485 -1.6110 -0.6523 -0.3561
 5285TIP3   OH237413   4.402   3.535   2.692  0.3580  0.0272  0.0133
 5285TIP3    H137414   4.398   3.440   2.691  3.2681 -0.1955 -2.4449
 5285TIP3    H237415   4.401   3.561   2.600 -0.6765  2.4404  0.6209
 5286TIP3   OH237416   1.738   0.992   1.826  0.0968 -0.6849 -0.1927
 5286TIP3    H137417   1.657   0.957   1.864  0.1026 -3.5111 -2.4322
 5286TIP3    H237418   1.710   1.068   1.776 -1.1332 -1.3489 -0.5667
 5287TIP3   OH237419   3.137   1.991   0.219  0.3220 -0.4085  0.1506
 5287TIP3    H137420   3.209   2.033   0.172  1.5663 -1.3156  1.1793
 5287TIP3    H237421   3.171   1.905   0.244 -1.3299 -1.0996  0.1815
 5288TIP3   OH237422   1.632   1.668   6.528 -0.1222  0.1584 -0.5594
 5288TIP3    H137423   1.686   1.631   6.459  0.5854  0.0085  0.0679
 5288TIP3    H237424   1.690   1.674   6.604 -1.0286 -0.1756  0.1776
 5289TIP3   OH237425   6.356   0.926   7.238 -0.2399  0.5046  0.1660
 5289TIP3    H137426   6.358   0.831   7.241 -0.6282  0.5145  0.9165
 5289TIP3    H237427   6.359   0.954   7.330  0.8111  1.2398 -0.0704
 5290TIP3   OH237428   0.324   6.402   0.627  0.6477  0.4755  0.6154
 5290TIP3    H137429   0.297   6.491   0.605 -3.3168 -0.7543 -0.4166
 5290TIP3    H237430   0.398   6.383   0.570  0.1192  2.3586 -0.7714
 5291TIP3   OH237431   5.638   5.156   0.705 -0.1673  0.0087  0.0374
 5291TIP3    H137432   5.544   5.166   0.715 -0.1731 -0.9541  1.1417
 5291TIP3    H237433   5.660   5.078   0.756  0.8194 -1.4053 -2.3541
 5292TIP3   OH237434   1.704   5.010   0.679  0.0324 -0.3822  0.6446
 5292TIP3    H137435   1.744   5.097   0.683 -0.3871  0.1526 -3.0444
 5292TIP3    H237436   1.778   4.951   0.664  0.0153 -0.0201 -1.1684
 5293TIP3   OH237437   5.836   0.933   1.373  0.2469 -0.0688 -0.0621
 5293TIP3    H137438   5.841   0.973   1.460 -1.4391 -0.9943  0.5089
 5293TIP3    H237439   5.912   0.875   1.369  1.8309  1.9210 -0.2914
 5294TIP3   OH237440   0.041   6.125   1.266  0.1581 -0.4978  0.5386
 5294TIP3    H137441   0.109   6.067   1.301 -0.1627 -0.6819  0.8712
 5294TIP3    H237442  -0.040   6.078   1.282 -0.1413  0.2125  1.1803
 5295TIP3   OH237443   2.895   3.550   7.456  0.8254 -0.0938 -0.0735
 5295TIP3    H137444   2.915   3.471   7.406 -0.8661 -1.3259  1.0972
 5295TIP3    H237445   2.927   3.532   7.544  1.7809  1.1613 -0.1423
 5296TIP3   OH237446   2.686   5.331   8.004  0.1150 -0.3594 -0.2825
 5296TIP3    H137447   2.640   5.407   7.969  0.7077 -0.2789 -0.9220
 5296TIP3    H237448   2.676   5.339   8.098  2.8257  2.3237 -0.0503
 5297TIP3   OH237449   1.051   6.103   0.254  0.4705  0.7166 -0.2847
 5297TIP3    H137450   1.082   6.067   0.171  0.1371 -2.4227  0.8059
 5297TIP3    H237451   0.959   6.126   0.238  0.3116 -0.1853 -0.7197
 5298TIP3   OH237452   4.836   6.542   8.200  0.0612 -0.0023  0.5037
 5298TIP3    H137453   4.846   6.602   8.126  2.6795 -2.0616 -1.0022
 5298TIP3    H237454   4.862   6.594   8.276  0.2135  1.3678 -0.4439
 5299TIP3   OH237455   5.371   1.346   0.998  0.1023  0.3725  0.2685
 5299TIP3    H137456   5.437   1.408   0.969  0.2897 -1.2067 -3.1038
 5299TIP3    H237457   5.290   1.376   0.958 -0.2534 -0.3042  0.4596
 5300TIP3   OH237458   0.040   0.438   8.431  0.6868  0.1485 -0.3192
 5300TIP3    H137459   0.135   0.437   8.437  0.8264  1.0864 -1.8550
 5300TIP3    H237460   0.010   0.398   8.513  2.3750  0.8681  0.6966
 5301TIP3   OH237461   3.335   0.079   2.516  0.1805  1.1555 -0.0720
 5301TIP3    H137462   3.349   0.142   2.586 -0.7051  1.8773 -0.5257
 5301TIP3    H237463   3.422   0.061   2.482  1.1078 -1.7714  3.3369
 5302TIP3   OH237464   5.701   4.602   0.464  0.1698  0.0120  0.1474
 5302TIP3    H137465   5.706   4.512   0.430  0.6572  0.0425  0.1240
 5302TIP3    H237466   5.619   4.604   0.513 -0.4317 -0.0997 -0.8264
 5303TIP3   OH237467   3.721   5.067   0.591 -0.2131 -0.2992 -0.3587
 5303TIP3    H137468   3.643   5.123   0.601 -0.1215 -0.3148  0.5560
 5303TIP3    H237469   3.686   4.982   0.564 -0.5143 -0.2909 -0.0126
 5304TIP3   OH237470   5.121   2.093   1.184  0.1535 -0.3681 -0.3910
 5304TIP3    H137471   5.063   2.024   1.155  1.8286 -1.2805 -1.7986
 5304TIP3    H237472   5.174   2.053   1.253  1.3815 -0.6932 -1.4636
 5305TIP3   OH237473   0.553   2.858   0.071 -0.3770  0.5459  0.3394
 5305TIP3    H137474   0.501   2.857   0.151  1.0643  2.0560  1.3638
 5305TIP3    H237475   0.616   2.787   0.083 -1.4115 -0.5384 -0.3963
 5306TIP3   OH237476   6.583   0.387   1.590 -0.2376 -0.1039  0.2016
 5306TIP3    H137477   6.621   0.409   1.505 -2.3245  2.7432 -0.1391
 5306TIP3    H237478   6.534   0.307   1.575  1.1809 -0.8602 -0.6512
 5307TIP3   OH237479   1.181   4.856   7.393 -0.2143 -0.4148 -1.0637
 5307TIP3    H137480   1.087   4.837   7.392 -0.3517 -0.5941  2.7567
 5307TIP3    H237481   1.187   4.950   7.375 -1.1087 -0.3666 -1.1595
 5308TIP3   OH237482   2.828   0.421   6.836  0.1502  0.2643 -0.1825
 5308TIP3    H137483   2.824   0.474   6.916 -0.8708  0.8361 -0.6000
 5308TIP3    H237484   2.919   0.430   6.807  0.4139  0.4235  0.6640
 5309TIP3   OH237485   2.954   4.731   0.914  0.0370 -0.1575 -0.0171
 5309TIP3    H137486   2.998   4.811   0.884 -0.0692  0.3110  1.0284
 5309TIP3    H237487   2.867   4.736   0.875 -0.9748  1.7008  2.2330
 5310TIP3   OH237488   0.309   1.782   0.673  0.7972  0.7236 -0.0086
 5310TIP3    H137489   0.242   1.800   0.738 -0.5072  0.3647 -1.1930
 5310TIP3    H237490   0.335   1.691   0.691 -1.1890 -0.1840 -1.2919
 5311TIP3   OH237491   4.649   6.112   0.394 -0.1200  0.2844 -0.4642
 5311TIP3    H137492   4.613   6.166   0.324 -2.0342 -0.5887 -0.2031
 5311TIP3    H237493   4.593   6.035   0.396  0.5904 -0.2235  1.3000
 5312TIP3   OH237494   5.681   2.783   2.161 -0.6392  0.0326 -0.2781
 5312TIP3    H137495   5.704   2.700   2.204 -1.7191  0.6658  1.6424
 5312TIP3    H237496   5.641   2.835   2.230 -0.8824  1.8033 -1.6908
 5313TIP3   OH237497   0.408   2.687   0.257  0.0729  0.3360 -0.1934
 5313TIP3    H137498   0.475   2.652   0.315 -2.1331 -0.2153  2.2251
 5313TIP3    H237499   0.403   2.624   0.185  0.8941 -0.5769  0.5288
 5314TIP3   OH237500   3.726   3.620   0.967  0.0871 -0.2942  0.3759
 5314TIP3    H137501   3.670   3.546   0.943 -0.2436 -0.8726  2.6579
 5314TIP3    H237502   3.683   3.696   0.927 -0.2069 -1.1599 -1.0439
 5315TIP3   OH237503   5.817   0.397   7.760 -0.3085  0.4890 -0.2450
 5315TIP3    H137504   5.853   0.311   7.781 -0.4337  0.3512 -0.5944
 5315TIP3    H237505   5.742   0.407   7.819 -0.7384  0.0469 -0.7158
 5316TIP3   OH237506   0.300   6.026   0.780  0.7300  0.3572 -0.7756
 5316TIP3    H137507   0.264   6.115   0.769 -2.1591 -0.6950 -0.8772
 5316TIP3    H237508   0.260   5.976   0.709  2.5068 -1.0157 -0.8758
 5317TIP3   OH237509   1.015   4.925   8.294  0.4170  0.0480  0.1382
 5317TIP3    H137510   0.979   4.978   8.223  0.5751 -2.7528 -2.2170
 5317TIP3    H237511   1.103   4.960   8.308  0.5707  0.3666 -1.4210
 5318TIP3   OH237512   2.822   0.366   2.428  0.3006  0.3883 -0.5277
 5318TIP3    H137513   2.741   0.373   2.478  0.5568  3.0134 -0.3717
 5318TIP3    H237514   2.826   0.273   2.403 -2.4424  0.0489 -0.0693
 5319TIP3   OH237515   2.710   6.099   1.662 -0.6135  0.7033 -0.8474
 5319TIP3    H137516   2.779   6.147   1.707  0.0718 -1.6450  0.8337
 5319TIP3    H237517   2.635   6.104   1.721 -0.9830  0.9050 -1.3307
 5320TIP3   OH237518   2.821   0.531   0.050 -0.1662 -0.1445  0.2937
 5320TIP3    H137519   2.766   0.608   0.065  1.3720  0.8250  1.1473
 5320TIP3    H237520   2.876   0.555  -0.024  0.8093 -0.1301  1.0139
 5321TIP3   OH237521   0.190   3.229   7.110 -0.5435 -0.6107 -0.3364
 5321TIP3    H137522   0.142   3.197   7.187  1.2668 -1.9610  0.2927
 5321TIP3    H237523   0.233   3.151   7.075  0.4208  0.3795 -1.4256
 5322TIP3   OH237524   2.061   4.584   8.723 -0.2164 -0.1516 -0.5490
 5322TIP3    H137525   2.058   4.491   8.701  0.6643  0.1860 -2.2980
 5322TIP3    H237526   2.023   4.628   8.646  0.0221  0.9717 -0.0447
 5323TIP3   OH237527   2.265   5.885   0.614 -0.0873  0.2176  0.1761
 5323TIP3    H137528   2.230   5.941   0.683  0.1575 -0.0728  0.5403
 5323TIP3    H237529   2.353   5.861   0.645 -0.4558 -0.9427  0.3662
 5324TIP3   OH237530   5.708   0.576   8.431 -0.4058 -0.3154  0.0537
 5324TIP3    H137531   5.769   0.615   8.369 -0.1601  0.4984  0.7814
 5324TIP3    H237532   5.741   0.487   8.445  0.0922 -0.1768 -0.2336
 5325TIP3   OH237533   1.303   4.648   7.700  0.2052 -0.2484  0.6710
 5325TIP3    H137534   1.365   4.581   7.729 -0.8942 -0.5624  2.4425
 5325TIP3    H237535   1.349   4.731   7.716  0.7624 -0.5176  0.4761
 5326TIP3   OH237536   5.952   2.634   8.687 -0.7208  0.1518 -0.2885
 5326TIP3    H137537   5.904   2.661   8.765 -1.1245  1.0095 -0.8224
 5326TIP3    H237538   6.012   2.705   8.669 -0.6069 -0.0508 -0.7428
 5327TIP3   OH237539   4.353   0.505   8.062 -0.7645 -0.0179 -0.0051
 5327TIP3    H137540   4.426   0.545   8.014 -0.4895 -1.3789 -0.7823
 5327TIP3    H237541   4.296   0.470   7.994 -0.6446 -1.5114  0.6060
 5328TIP3   OH237542   5.322   2.846   1.365 -0.0684 -0.3356 -1.0812
 5328TIP3    H137543   5.379   2.920   1.385  0.5347 -0.7571 -1.2283
 5328TIP3    H237544   5.381   2.775   1.343 -0.5934 -1.3365  0.5755
 5329TIP3   OH237545   1.763   3.305   1.137 -0.1397  0.4511 -0.4047
 5329TIP3    H137546   1.840   3.348   1.174 -0.7431  0.8810  0.4005
 5329TIP3    H237547   1.791   3.215   1.120  0.1056  0.1600  1.3668
 5330TIP3   OH237548   5.903   1.039   2.212  0.2796 -0.4923 -0.2559
 5330TIP3    H137549   5.960   0.962   2.206 -0.0827 -0.7424 -0.5670
 5330TIP3    H237550   5.879   1.044   2.305 -0.1484 -1.0896 -0.3319
 5331TIP3   OH237551   1.368   3.950   0.754  0.0496 -0.0007  0.0501
 5331TIP3    H137552   1.307   3.951   0.828  0.6130  0.4122  0.5265
 5331TIP3    H237553   1.395   3.858   0.746  0.2335  0.0017  0.5816
 5332TIP3   OH237554   5.203   5.493   8.733  0.1117 -0.4169  0.5615
 5332TIP3    H137555   5.156   5.410   8.724 -0.7586  0.0783  0.4617
 5332TIP3    H237556   5.253   5.484   8.814  1.9406 -1.9496 -0.6407
 5333TIP3   OH237557   2.524   3.976   8.612 -0.2506  0.6246 -0.2497
 5333TIP3    H137558   2.576   4.047   8.652  1.0477 -0.5797  0.2918
 5333TIP3    H237559   2.535   3.989   8.518  2.3219 -0.4043 -0.1870
 5334TIP3   OH237560   1.435   1.467   8.618  0.0243  0.0096 -0.3767
 5334TIP3    H137561   1.478   1.549   8.594 -1.6470  0.4829 -2.0440
 5334TIP3    H237562   1.503   1.400   8.609  0.7895  0.9029 -1.5153
 5335TIP3   OH237563   5.896   4.595   0.199  0.6645  0.0531 -0.1214
 5335TIP3    H137564   5.966   4.620   0.259  0.4926 -1.3017  0.6711
 5335TIP3    H237565   5.820   4.580   0.256  0.9294 -2.9189 -0.3875
 5336TIP3   OH237566   2.440   3.185   8.073 -0.2356  0.5502  0.0849
 5336TIP3    H137567   2.489   3.249   8.124 -0.5750  1.2020 -0.3990
 5336TIP3    H237568   2.507   3.126   8.038  0.3535  2.0353 -1.4281
 5337TIP3   OH237569   0.628   1.102   1.796 -0.3486  0.6787 -0.3128
 5337TIP3    H137570   0.707   1.149   1.824  0.2550 -0.5109  0.0412
 5337TIP3    H237571   0.559   1.135   1.853  0.1425  0.8889  0.1686
 5338TIP3   OH237572   5.672   5.284   7.565  0.2940 -0.3172 -0.7980
 5338TIP3    H137573   5.743   5.300   7.627 -1.2267  2.8655  0.3423
 5338TIP3    H237574   5.594   5.274   7.621 -0.6587 -0.3703 -2.0991
 5339TIP3   OH237575   3.121   3.152   1.644  0.0147  0.2416  0.9395
 5339TIP3    H137576   3.096   3.061   1.633 -0.2910  0.3262  0.9330
 5339TIP3    H237577   3.192   3.165   1.580 -0.6905  0.3073  0.1588
 5340TIP3   OH237578   2.089   1.815   0.184 -0.2185 -0.2529 -0.5307
 5340TIP3    H137579   2.178   1.783   0.192 -0.8369 -2.0150 -0.1623
 5340TIP3    H237580   2.038   1.738   0.158 -1.7742  0.4927  0.1352
 5341TIP3   OH237581   4.322   4.644   1.512  0.1833 -1.1667 -0.0150
 5341TIP3    H137582   4.381   4.654   1.437  0.6904 -1.5722  0.3194
 5341TIP3    H237583   4.328   4.727   1.558 -0.4620 -0.7576 -0.6519
 5342TIP3   OH237584   4.394   3.682   0.749  0.1461 -0.2260 -0.4205
 5342TIP3    H137585   4.449   3.741   0.800  1.0999 -0.1103 -1.5565
 5342TIP3    H237586   4.450   3.607   0.730 -0.6245 -0.8865 -0.1649
 5343TIP3   OH237587   3.135   2.981   0.141 -0.1427 -0.1436  0.1350
 5343TIP3    H137588   3.197   3.003   0.211 -1.0974 -2.2114  1.7185
 5343TIP3    H237589   3.133   2.886   0.139 -1.2013 -0.1420 -1.8096
 5344TIP3   OH237590   5.685   4.809   2.118  0.4200 -0.0443 -0.3065
 5344TIP3    H137591   5.731   4.781   2.197  2.1546  0.4208 -1.1226
 5344TIP3    H237592   5.641   4.890   2.144 -0.5006 -0.8015  0.6404
 5345TIP3   OH237593   6.185   5.380   1.438 -0.0524  0.0331 -0.5683
 5345TIP3    H137594   6.176   5.316   1.508 -1.8382 -0.4504 -1.1681
 5345TIP3    H237595   6.266   5.426   1.457  0.5584 -1.4658  0.6566
 5346TIP3   OH237596   0.608   0.569   0.336 -0.5409  1.0128  0.3713
 5346TIP3    H137597   0.703   0.569   0.324 -0.8140 -1.3257 -3.7593
 5346TIP3    H237598   0.588   0.480   0.365 -1.5332  1.0658 -0.1085
 5347TIP3   OH237599   2.972   6.429   2.348  0.4806 -0.4138  0.3471
 5347TIP3    H137600   3.036   6.359   2.364  0.8229 -1.2977 -3.8060
 5347TIP3    H237601   2.888   6.390   2.370  0.9361 -0.8335  1.4541
 5348TIP3   OH237602   4.092   4.620   8.253  0.2597 -1.0340  0.7811
 5348TIP3    H137603   4.132   4.696   8.212 -0.5977 -0.7298  0.4963
 5348TIP3    H237604   4.099   4.637   8.347 -1.3284  0.1626  0.7122
 5349TIP3   OH237605   3.636   6.733   7.719  0.5347 -0.3356 -0.3121
 5349TIP3    H137606   3.574   6.739   7.791  1.3204 -1.6237  0.4962
 5349TIP3    H237607   3.592   6.778   7.646 -0.9005 -0.3247  0.5244
 5350TIP3   OH237608   2.575   1.362   0.357  0.0058  0.4339  0.7142
 5350TIP3    H137609   2.515   1.332   0.425  0.7055  0.8936  1.5582
 5350TIP3    H237610   2.632   1.287   0.341  0.0458  0.4306  0.8708
 5351TIP3   OH237611   3.360   3.800   1.042 -0.4084 -0.3559  0.5154
 5351TIP3    H137612   3.275   3.755   1.049 -1.0007  0.5769 -0.3169
 5351TIP3    H237613   3.405   3.778   1.123 -1.8473 -0.0737  1.4358
 5352TIP3   OH237614   6.767   0.876   1.711  0.2842  0.5576 -0.4522
 5352TIP3    H137615   6.747   0.822   1.634  0.2150 -1.5227  0.9299
 5352TIP3    H237616   6.835   0.827   1.757  0.4102  1.8052  0.7452
 5353TIP3   OH237617   3.832   2.604   6.825  0.1895 -0.1976 -0.1552
 5353TIP3    H137618   3.836   2.693   6.791 -1.3411 -0.1897 -0.4248
 5353TIP3    H237619   3.890   2.604   6.901 -1.6159  1.7698  1.3635
 5354TIP3   OH237620   6.555   3.875   8.291 -0.6589  0.0777  0.4875
 5354TIP3    H137621   6.626   3.847   8.349  0.8957  0.0405 -1.3498
 5354TIP3    H237622   6.540   3.801   8.233 -0.5750  0.9158 -0.6370
 5355TIP3   OH237623   6.141   1.756   1.798  0.0524 -0.1509 -0.1429
 5355TIP3    H137624   6.109   1.773   1.710  1.0202  1.6777 -0.1772
 5355TIP3    H237625   6.087   1.810   1.855 -0.1963 -0.8916  0.3413
 5356TIP3   OH237626   1.846   1.690   7.599 -0.1101  0.1902  0.3338
 5356TIP3    H137627   1.857   1.600   7.629 -0.1217  0.0219 -0.1575
 5356TIP3    H237628   1.934   1.718   7.574 -0.0695  0.3943  0.6916
 5357TIP3   OH237629   6.749   1.900   7.459  0.0970  0.0176 -0.0171
 5357TIP3    H137630   6.661   1.864   7.466  0.0769 -0.1061 -0.8349
 5357TIP3    H237631   6.778   1.910   7.549 -0.9279  0.4895  0.2698
 5358TIP3   OH237632   2.254   1.691   8.490 -0.8433  0.1695  0.2101
 5358TIP3    H137633   2.294   1.678   8.576 -0.1701  1.2537  0.0805
 5358TIP3    H237634   2.194   1.617   8.480  0.6696 -1.1822  0.6703
 5359TIP3   OH237635   2.447   0.950   7.510 -0.5115  0.0695  0.3249
 5359TIP3    H137636   2.449   1.038   7.473 -1.4649 -0.2222 -0.4667
 5359TIP3    H237637   2.408   0.896   7.442  0.5088 -1.0759  0.6168
 5360TIP3   OH237638   2.963   6.120   2.376 -0.2324  0.1851 -0.1855
 5360TIP3    H137639   2.973   6.100   2.469  0.0590 -0.3842 -0.3321
 5360TIP3    H237640   2.873   6.150   2.367 -0.1643  0.5506  0.3338
 5361TIP3   OH237641   2.251   6.155   7.892 -0.2345 -0.6163  0.2986
 5361TIP3    H137642   2.170   6.124   7.933  0.3326 -0.2490  1.7598
 5361TIP3    H237643   2.294   6.206   7.960  0.4308  0.6222 -1.0144
 5362TIP3   OH237644   1.714   4.404   1.528  0.4984  0.7198 -0.0730
 5362TIP3    H137645   1.630   4.443   1.552 -0.6093 -1.5807  0.0445
 5362TIP3    H237646   1.742   4.454   1.451 -0.1121  2.5928  0.8363
 5363TIP3   OH237647   0.438   1.161   1.038 -0.7251  0.2482 -1.1027
 5363TIP3    H137648   0.399   1.157   1.126 -0.4482  1.0109 -0.9332
 5363TIP3    H237649   0.401   1.241   1.000  0.0405  0.5421 -1.2450
 5364TIP3   OH237650   2.742   0.813   8.403 -0.2512 -0.2950  0.4366
 5364TIP3    H137651   2.656   0.840   8.371 -0.7233 -0.5282  1.4668
 5364TIP3    H237652   2.738   0.829   8.497  1.2004  0.6610  0.3665
 5365TIP3   OH237653   0.997   4.015   8.481 -0.1601  0.1759  0.0934
 5365TIP3    H137654   0.905   4.030   8.501  0.0822 -0.6849  2.0562
 5365TIP3    H237655   0.996   3.957   8.404 -1.3434 -1.7036  1.4547
 5366TIP3   OH237656   6.401   1.945   1.384 -0.0921 -0.4132  0.0958
 5366TIP3    H137657   6.359   2.028   1.408  0.2244 -0.8072  2.1181
 5366TIP3    H237658   6.491   1.953   1.415  1.0517 -0.1815 -2.8667
 5367TIP3   OH237659   2.869   6.377   8.390  0.1345 -0.4823 -0.0667
 5367TIP3    H137660   2.916   6.360   8.471  1.6998  0.2336 -0.7908
 5367TIP3    H237661   2.913   6.322   8.325  1.4445  1.7772 -1.2107
 5368TIP3   OH237662   6.214   6.259   7.342 -0.1721 -0.1589 -0.6491
 5368TIP3    H137663   6.278   6.243   7.273  1.0587  0.6987  0.2430
 5368TIP3    H237664   6.214   6.180   7.395 -0.2521 -0.3681 -0.9622
 5369TIP3   OH237665   3.715   2.736   7.965 -0.1769  0.5694 -0.5830
 5369TIP3    H137666   3.713   2.767   8.056 -1.3284 -0.3900 -0.2430
 5369TIP3    H237667   3.806   2.746   7.938 -0.1922  2.7464 -0.0001
 5370TIP3   OH237668   4.908   3.122   8.722 -0.2417  0.0686 -0.7190
 5370TIP3    H137669   4.865   3.198   8.761  0.2518  0.8974 -1.7410
 5370TIP3    H237670   4.931   3.066   8.796 -1.2388  0.5753 -0.0073
 5371TIP3   OH237671   6.094   3.418   1.185  0.0977  0.2028  0.3603
 5371TIP3    H137672   6.042   3.353   1.138 -0.6714 -1.0201  2.7201
 5371TIP3    H237673   6.071   3.502   1.145 -2.1972 -0.5300  0.0399
 5372TIP3   OH237674   6.587   5.307   1.098 -0.4836  0.0093  0.2725
 5372TIP3    H137675   6.674   5.333   1.128 -0.5937  1.5195 -0.6178
 5372TIP3    H237676   6.580   5.214   1.121  0.7482  0.2434  1.7469
 5373TIP3   OH237677   3.456   4.062   7.539 -0.0743  0.2309 -0.2761
 5373TIP3    H137678   3.378   4.096   7.496 -0.5380  0.7158  0.9338
 5373TIP3    H237679   3.516   4.137   7.542  0.3818 -0.0845 -1.0096
 5374TIP3   OH237680   4.432   2.658   0.237  0.2252 -0.0668 -0.3991
 5374TIP3    H137681   4.362   2.721   0.255 -0.1287 -0.7398  0.7297
 5374TIP3    H237682   4.424   2.640   0.144 -2.5397 -1.6637 -0.0018
 5375TIP3   OH237683   1.463   5.385   0.721 -0.4830 -0.5519  0.5503
 5375TIP3    H137684   1.444   5.448   0.790  0.5227 -0.9211  1.1879
 5375TIP3    H237685   1.431   5.301   0.755 -1.7995 -0.4137 -0.2859
 5376TIP3   OH237686   6.324   1.782   6.529  0.2360  0.4173  0.3609
 5376TIP3    H137687   6.348   1.690   6.539  1.5662  0.6866 -0.1737
 5376TIP3    H237688   6.275   1.785   6.448 -2.8547 -0.3323  2.0350
 5377TIP3   OH237689   3.674   6.201   1.876  0.3040  0.1755 -0.2176
 5377TIP3    H137690   3.640   6.220   1.964  0.4452  0.6332 -0.2571
 5377TIP3    H237691   3.739   6.133   1.890 -2.2042 -2.4405 -0.4052
 5378TIP3   OH237692   5.403   3.707   8.866  0.4211 -0.2990  0.4375
 5378TIP3    H137693   5.347   3.747   8.932  0.1531  1.3306 -0.7102
 5378TIP3    H237694   5.375   3.746   8.783  1.3976 -1.5342 -0.5336
 5379TIP3   OH237695   1.411   5.663   1.243  0.4919  0.0229  0.1812
 5379TIP3    H137696   1.353   5.739   1.243  0.1607 -0.2196 -0.3972
 5379TIP3    H237697   1.361   5.594   1.286  0.7726  0.1119  0.6598
 5380TIP3   OH237698   5.805   6.694   8.560 -0.0796 -0.5270  0.4915
 5380TIP3    H137699   5.892   6.688   8.522 -0.5329 -2.0154 -0.4138
 5380TIP3    H237700   5.746   6.672   8.488 -1.1954  0.2049  1.1497
 5381TIP3   OH237701   2.390   5.144   0.155 -0.1438 -0.0666  0.4054
 5381TIP3    H137702   2.333   5.215   0.183 -0.5250 -0.5667  0.9386
 5381TIP3    H237703   2.331   5.080   0.114  0.1366 -0.2469  0.2734
 5382TIP3   OH237704   4.859   5.473   1.960 -0.1136  0.1550 -0.5895
 5382TIP3    H137705   4.814   5.455   1.877 -1.3772 -2.5446  0.5571
 5382TIP3    H237706   4.791   5.461   2.027  1.1563  1.1223  0.9370
 5383TIP3   OH237707   0.451   1.010   8.334 -0.4020  0.6091  0.4498
 5383TIP3    H137708   0.445   1.012   8.429 -3.4770  1.7445  0.3391
 5383TIP3    H237709   0.383   1.070   8.304 -0.3656 -0.6222 -2.4837
 5384TIP3   OH237710   2.503   4.422   0.488 -0.3127  0.1526 -0.0173
 5384TIP3    H137711   2.538   4.339   0.522  1.8262  0.2183 -1.8332
 5384TIP3    H237712   2.524   4.486   0.556 -1.9662 -0.7001  1.3995
 5385TIP3   OH237713   4.823   1.317   0.175 -0.3410 -0.4710  0.1150
 5385TIP3    H137714   4.837   1.321   0.269  2.3132  0.1298 -0.2098
 5385TIP3    H237715   4.827   1.223   0.154 -3.5064 -0.8560  0.8209
 5386TIP3   OH237716   0.012   5.691   8.176  1.0685 -0.1943  0.0563
 5386TIP3    H137717  -0.029   5.703   8.090  0.7227 -1.0554  0.0877
 5386TIP3    H237718   0.101   5.661   8.157  0.7079 -1.2833 -0.0243
 5387TIP3   OH237719   1.365   0.821   0.861  0.5172  0.4898  0.2684
 5387TIP3    H137720   1.321   0.906   0.853 -4.2752 -1.7767 -0.8904
 5387TIP3    H237721   1.305   0.767   0.912  1.8751 -3.0843 -1.5864
 5388TIP3   OH237722   1.763   1.133   2.501  0.0857 -0.6635 -0.1059
 5388TIP3    H137723   1.802   1.207   2.454  3.5066 -1.6591  0.8860
 5388TIP3    H237724   1.730   1.170   2.583 -0.0120  0.0421 -0.4575
 5389TIP3   OH237725   1.508   0.545   0.290  0.0400 -0.1446 -0.3711
 5389TIP3    H137726   1.572   0.492   0.244  2.1121  1.0238  0.9835
 5389TIP3    H237727   1.464   0.484   0.349 -0.7369 -1.1141 -1.8840
 5390TIP3   OH237728   5.032   0.115   0.731 -0.2210  0.3018 -0.1639
 5390TIP3    H137729   5.007   0.109   0.639 -1.0042 -2.0978  0.1374
 5390TIP3    H237730   5.020   0.208   0.752 -0.9232  0.7504 -2.2197
 5391TIP3   OH237731   2.277   1.435   6.782 -0.0406 -0.2499  0.0280
 5391TIP3    H137732   2.198   1.409   6.829 -1.0605 -1.5197 -2.2240
 5391TIP3    H237733   2.246   1.495   6.715  1.0636 -0.0580 -0.3228
 5392TIP3   OH237734   5.762   6.433   1.504 -0.4518  0.3502 -0.5688
 5392TIP3    H137735   5.758   6.422   1.599 -0.8752  0.5713 -0.5629
 5392TIP3    H237736   5.814   6.512   1.492 -1.4244  1.0148 -0.4843
 5393TIP3   OH237737   5.653   0.096   1.296  0.3702 -0.2512  0.1168
 5393TIP3    H137738   5.641   0.016   1.245 -1.2120  0.9116 -1.4615
 5393TIP3    H237739   5.689   0.159   1.233  0.8428  0.5033  1.1237
 5394TIP3   OH237740   6.353   0.941   8.585 -0.0282  0.0194  0.4332
 5394TIP3    H137741   6.367   0.991   8.505 -3.3917  0.0972 -0.2587
 5394TIP3    H237742   6.319   0.857   8.555  0.0323 -0.4922  1.7421
 5395TIP3   OH237743   0.817   6.362   2.326 -0.1883 -0.6711  0.5172
 5395TIP3    H137744   0.725   6.387   2.317 -0.2064 -0.5452  1.0315
 5395TIP3    H237745   0.866   6.438   2.297 -0.1894 -1.8288 -3.0238
 5396TIP3   OH237746   5.895   4.065   8.806  1.2984 -0.3857  0.3767
 5396TIP3    H137747   5.987   4.061   8.780  1.5399 -1.1024  1.2539
 5396TIP3    H237748   5.862   3.977   8.789  0.2455  0.3466 -1.6504
 5397TIP3   OH237749   0.905   1.116   6.841 -0.2572  0.1168 -0.6104
 5397TIP3    H137750   0.828   1.079   6.798  0.6619 -0.7288 -1.5865
 5397TIP3    H237751   0.928   1.192   6.788  0.4589 -0.5181 -1.2423
 5398TIP3   OH237752   0.561   5.393   7.823  0.7829  0.0628 -0.5029
 5398TIP3    H137753   0.504   5.378   7.748  0.3691  1.4992 -0.5168
 5398TIP3    H237754   0.543   5.320   7.882 -0.3016 -0.0708 -0.9732
 5399TIP3   OH237755   4.296   4.983   2.076 -0.5589 -0.0778  0.0402
 5399TIP3    H137756   4.321   5.009   2.165 -1.9443 -1.4848  0.8933
 5399TIP3    H237757   4.265   4.893   2.085 -0.7696 -0.2331 -1.8734
 5400TIP3   OH237758   3.682   3.132   6.811  0.0388  0.1297  0.9122
 5400TIP3    H137759   3.629   3.130   6.731  0.2008  0.3216  0.7992
 5400TIP3    H237760   3.698   3.225   6.827  0.4559  0.0688  0.8691
 5401TIP3   OH237761   0.201   0.468   8.669  0.2079 -0.0548 -0.1846
 5401TIP3    H137762   0.124   0.507   8.711  1.5759  1.5432  1.0013
 5401TIP3    H237763   0.232   0.403   8.732  1.3957  1.2846  0.6654
 5402TIP3   OH237764   5.423   2.411   6.974  0.1773  0.0271  0.1621
 5402TIP3    H137765   5.406   2.338   7.033  1.2881 -1.4021 -1.2214
 5402TIP3    H237766   5.427   2.372   6.887 -0.3850  1.9221 -0.7780
 5403TIP3   OH237767   1.437   2.324   1.249 -0.4082 -0.1141  0.5320
 5403TIP3    H137768   1.498   2.392   1.221 -0.8688  0.0283 -0.1677
 5403TIP3    H237769   1.478   2.242   1.223  0.0529 -0.1008  1.1918
 5404TIP3   OH237770   3.093   0.544   1.549 -0.8595 -0.0521 -0.6111
 5404TIP3    H137771   3.125   0.503   1.629 -0.1091  0.0315 -0.8645
 5404TIP3    H237772   3.002   0.515   1.542 -0.7090 -0.6554 -0.1284
 5405TIP3   OH237773   3.813   6.736   6.567 -0.8603 -0.1844 -0.2062
 5405TIP3    H137774   3.790   6.651   6.531  1.2414 -0.9631  0.1480
 5405TIP3    H237775   3.896   6.758   6.525  0.9971 -0.4937  3.0230
 5406TIP3   OH237776   4.251   1.736   7.638  0.0330 -0.1959  0.0545
 5406TIP3    H137777   4.290   1.779   7.714  1.0158  1.2387 -1.2108
 5406TIP3    H237778   4.214   1.807   7.586 -0.5515 -1.1388 -0.8677
 5407TIP3   OH237779   4.444   0.788   0.462  0.2823  0.2242  0.2115
 5407TIP3    H137780   4.416   0.810   0.551  2.1805 -2.6534  1.6785
 5407TIP3    H237781   4.378   0.726   0.430  0.8175 -0.5485  0.5785
 5408TIP3   OH237782   4.310   0.390   1.727  0.1296 -0.3920  0.3933
 5408TIP3    H137783   4.329   0.315   1.670  1.0974  0.9223 -1.1071
 5408TIP3    H237784   4.336   0.361   1.815  1.1622 -1.5660 -0.2764
 5409TIP3   OH237785   4.011   5.666   6.658  0.4937  0.1563 -0.2708
 5409TIP3    H137786   4.017   5.575   6.687 -0.9734  0.0424 -0.2843
 5409TIP3    H237787   4.094   5.682   6.613  1.2870 -0.7829  0.7982
 5410TIP3   OH237788   4.276   5.761   8.343 -0.6134  0.3652  0.1266
 5410TIP3    H137789   4.272   5.824   8.270  0.3761 -1.5608 -1.6824
 5410TIP3    H237790   4.193   5.713   8.337 -1.3360  1.3667  1.4646
 5411TIP3   OH237791   0.552   3.105   7.105 -0.2388  0.4075  0.5214
 5411TIP3    H137792   0.473   3.067   7.066  0.9358 -0.2096 -1.3670
 5411TIP3    H237793   0.595   3.151   7.032  2.3718 -1.3052  0.8579
 5412TIP3   OH237794   4.350   4.642   0.724 -0.0219  0.0639 -0.0232
 5412TIP3    H137795   4.363   4.601   0.809 -0.0104  1.0291  0.4559
 5412TIP3    H237796   4.315   4.729   0.744  1.0172  0.7225 -0.9569
 5413TIP3   OH237797   2.419   1.130   1.867 -0.1290 -0.1120  0.3557
 5413TIP3    H137798   2.505   1.147   1.903  0.4040 -1.7664 -0.0345
 5413TIP3    H237799   2.435   1.070   1.793 -1.7172 -1.8516  1.3154
 5414TIP3   OH237800   4.046   5.909   2.172  0.1206  0.1870  0.4181
 5414TIP3    H137801   4.087   5.993   2.152 -1.4101  1.1918  1.3310
 5414TIP3    H237802   4.110   5.864   2.228  0.1340  1.5979  1.5859
 5415TIP3   OH237803   1.709   5.906   7.887  0.6704 -0.0939 -0.1015
 5415TIP3    H137804   1.631   5.853   7.877  0.1977  0.2921  1.2819
 5415TIP3    H237805   1.738   5.924   7.798 -1.7257  1.0712 -0.7240
 5416TIP3   OH237806   5.964   6.341   1.982 -0.4801 -0.0311  0.3462
 5416TIP3    H137807   5.895   6.387   2.029 -1.4498 -0.3560 -0.7261
 5416TIP3    H237808   5.921   6.302   1.906  0.0194 -3.6953  1.7355
 5417TIP3   OH237809   0.561   0.140   8.525  0.0644  0.2747  0.6637
 5417TIP3    H137810   0.600   0.107   8.444  0.6529  2.1544  0.1294
 5417TIP3    H237811   0.467   0.128   8.512  0.2254 -0.7393  0.3175
 5418TIP3   OH237812   2.817   0.954   7.859 -0.1839 -0.5909  0.2427
 5418TIP3    H137813   2.820   0.869   7.903 -0.7968 -0.5664  0.3331
 5418TIP3    H237814   2.784   1.014   7.926 -1.5160 -0.6263 -0.3569
 5419TIP3   OH237815   1.794   3.740   1.258 -0.0998 -0.1867 -0.0014
 5419TIP3    H137816   1.753   3.739   1.172 -0.8850  0.9753  0.3422
 5419TIP3    H237817   1.887   3.757   1.240 -0.4380  1.2037 -0.5820
 5420TIP3   OH237818   3.614   1.014   7.671  0.6100  0.1708  0.4625
 5420TIP3    H137819   3.581   1.103   7.687  1.4807  0.6269 -0.1790
 5420TIP3    H237820   3.682   1.002   7.737  0.9640  0.2508  0.1172
 5421TIP3   OH237821   3.927   4.133   1.008 -0.2847 -0.3419  0.1119
 5421TIP3    H137822   3.921   4.228   1.013  0.7283 -0.2491 -0.1448
 5421TIP3    H237823   3.864   4.101   1.073 -0.9723  0.4884 -0.1416
 5422TIP3   OH237824   0.849   4.342   8.342 -0.1444 -0.0359  0.0689
 5422TIP3    H137825   0.926   4.380   8.299  1.1506 -2.2401  0.2684
 5422TIP3    H237826   0.808   4.289   8.273 -0.9851  0.3982  0.2223
 5423TIP3   OH237827   4.921   2.201   1.826 -0.4957  0.4232  0.2238
 5423TIP3    H137828   4.957   2.280   1.867  1.1500 -1.0191  1.7250
 5423TIP3    H237829   4.922   2.135   1.895 -2.3641 -0.8146 -0.8248
 5424TIP3   OH237830   1.768   3.146   8.550 -0.0673  0.0291 -0.1153
 5424TIP3    H137831   1.836   3.093   8.591 -0.3578 -2.2127 -2.2754
 5424TIP3    H237832   1.816   3.211   8.499  0.4309 -0.2993 -0.0723
 5425TIP3   OH237833   2.886   1.403   7.798 -0.8752 -0.7121  0.0907
 5425TIP3    H137834   2.933   1.348   7.861  1.6287  0.4568 -0.6237
 5425TIP3    H237835   2.842   1.468   7.852 -2.9698 -2.6589  0.8746
 5426TIP3   OH237836   0.137   2.028   1.516 -0.2464 -0.3693  0.1087
 5426TIP3    H137837   0.057   2.076   1.493 -0.5844 -1.0339 -0.1236
 5426TIP3    H237838   0.117   1.937   1.494  0.7319 -0.4805 -0.3618
 5427TIP3   OH237839   5.085   0.622   8.615  0.3333  0.6066  0.1128
 5427TIP3    H137840   5.129   0.551   8.568  1.1771  0.7944  0.6123
 5427TIP3    H237841   5.080   0.592   8.706  1.9281  1.7321  0.6164
 5428TIP3   OH237842   1.904   5.160   1.516  0.0775 -0.9184 -1.3548
 5428TIP3    H137843   1.906   5.204   1.431  3.4721 -1.2456 -1.5527
 5428TIP3    H237844   1.959   5.083   1.506 -2.5581 -3.2016  0.1216
 5429TIP3   OH237845   4.540   4.104   0.411  0.1634  0.1476 -0.0272
 5429TIP3    H137846   4.586   4.032   0.455 -0.4288  0.6292  1.4484
 5429TIP3    H237847   4.452   4.069   0.395  1.1992 -1.1685 -3.8360
 5430TIP3   OH237848   6.624   4.237   8.287  0.0289 -0.1008  0.6111
 5430TIP3    H137849   6.579   4.313   8.251  0.8405  0.1761  0.1574
 5430TIP3    H237850   6.590   4.163   8.237 -1.0500 -0.0960  1.3194
 5431TIP3   OH237851   1.412   6.321   6.685 -0.0887  0.1686 -0.7941
 5431TIP3    H137852   1.467   6.393   6.716  0.7035 -0.9134  0.4603
 5431TIP3    H237853   1.470   6.268   6.631 -0.8180  0.7384 -2.1834
 5432TIP3   OH237854   2.439   2.573   0.513  0.0952 -0.1911 -0.5284
 5432TIP3    H137855   2.514   2.599   0.459 -0.3474 -0.0299 -1.0660
 5432TIP3    H237856   2.451   2.622   0.594  0.4424  0.0250 -0.7063
 5433TIP3   OH237857   1.553   5.672   7.851  0.4019 -0.4528 -0.3148
 5433TIP3    H137858   1.491   5.735   7.816 -1.7942 -0.9745  2.3492
 5433TIP3    H237859   1.508   5.587   7.845  1.7559 -1.2083 -0.3392
 5434TIP3   OH237860   2.760   0.601   1.845  0.2947 -0.9637 -0.2024
 5434TIP3    H137861   2.743   0.601   1.939  1.7542  0.4628  0.1048
 5434TIP3    H237862   2.691   0.657   1.809  0.3669 -0.6368  0.1585
 5435TIP3   OH237863   3.010   1.377   1.827  0.0233 -0.6074  0.2293
 5435TIP3    H137864   3.024   1.403   1.736 -0.5402 -1.1160 -0.0111
 5435TIP3    H237865   3.036   1.284   1.830 -2.0630 -1.2591  0.0278
 5436TIP3   OH237866   1.244   5.643   1.759 -0.1807 -0.1747 -0.2200
 5436TIP3    H137867   1.188   5.696   1.703  1.8860 -0.4866 -2.7652
 5436TIP3    H237868   1.303   5.705   1.802  1.1045 -0.1677 -1.8767
 5437TIP3   OH237869   2.212   1.679   0.449  0.3696 -0.0790  0.1060
 5437TIP3    H137870   2.299   1.650   0.479  0.0722 -0.9366  0.1644
 5437TIP3    H237871   2.177   1.603   0.402  0.0014  0.5620 -0.6672
 5438TIP3   OH237872   2.919   5.290   7.019 -1.1316  0.1409  0.1882
 5438TIP3    H137873   2.970   5.233   6.961 -0.3550  0.3607  0.6391
 5438TIP3    H237874   2.831   5.253   7.017 -1.1724  0.2637 -1.2803
 5439TIP3   OH237875   6.290   3.022   1.657 -0.4616 -0.1710 -0.0253
 5439TIP3    H137876   6.306   3.110   1.693 -0.0730 -0.1366 -0.2782
 5439TIP3    H237877   6.332   3.023   1.571 -0.8564 -0.4569 -0.2234
 5440TIP3   OH237878   5.805   2.126   2.280  0.2683 -0.2762  0.4125
 5440TIP3    H137879   5.833   2.061   2.344 -1.1791 -1.2901  0.0550
 5440TIP3    H237880   5.729   2.168   2.319 -0.1104 -0.3096 -0.2781
 5441TIP3   OH237881   5.098   0.397   0.806  0.7403 -0.6866 -0.1010
 5441TIP3    H137882   5.040   0.453   0.859  1.1742 -0.5919  0.2898
 5441TIP3    H237883   5.178   0.449   0.798  1.0716 -1.1641  0.0860
 5442TIP3   OH237884   3.490   2.341   0.675  0.0239 -0.1745  0.4251
 5442TIP3    H137885   3.464   2.431   0.656  0.2189 -0.3494 -0.7807
 5442TIP3    H237886   3.436   2.315   0.749 -1.7854  0.1498 -0.7275
 5443TIP3   OH237887   1.841   0.596   8.221 -0.2044 -0.1552  0.8035
 5443TIP3    H137888   1.896   0.664   8.260  1.1502 -0.3060 -0.7264
 5443TIP3    H237889   1.773   0.645   8.174 -1.2456  0.0369  2.4340
 5444TIP3   OH237890   3.469   1.289   0.595  0.3360 -0.2897  0.7315
 5444TIP3    H137891   3.549   1.338   0.616  0.2366 -0.2930  1.1262
 5444TIP3    H237892   3.499   1.219   0.537  0.4117  0.4875 -0.1879
 5445TIP3   OH237893   6.667   0.706   8.076 -0.3424  0.3354  0.0302
 5445TIP3    H137894   6.745   0.664   8.111 -0.2219  0.2093 -0.3945
 5445TIP3    H237895   6.698   0.759   8.003 -0.6423  0.3424 -0.0951
 5446TIP3   OH237896   0.980   2.697   7.795 -0.2268  0.3966  0.4420
 5446TIP3    H137897   1.044   2.653   7.739  0.6672  1.9539  0.1896
 5446TIP3    H237898   0.895   2.670   7.759  0.2980 -0.3119 -0.3211
 5447TIP3   OH237899   5.276   4.236   1.327 -0.0197 -0.2135  0.0266
 5447TIP3    H137900   5.245   4.203   1.411 -0.3258 -0.6532 -0.2582
 5447TIP3    H237901   5.294   4.158   1.275  4.0104 -0.1715  0.9766
 5448TIP3   OH237902   6.668   4.391   2.380  0.3197  0.4248  0.1800
 5448TIP3    H137903   6.637   4.478   2.405 -0.1324  0.0028  1.1085
 5448TIP3    H237904   6.591   4.348   2.344  0.2749  0.0264  0.7452
 5449TIP3   OH237905   3.275   5.570   0.660 -0.1082  0.1102  0.1648
 5449TIP3    H137906   3.262   5.494   0.717 -1.6949 -0.9251 -1.4594
 5449TIP3    H237907   3.193   5.620   0.667  0.4339  0.9989  0.2571
 5450TIP3   OH237908   0.629   1.067   7.129  0.6281 -0.2507  0.4071
 5450TIP3    H137909   0.631   1.119   7.048  1.6118 -1.0294 -0.1087
 5450TIP3    H237910   0.620   0.977   7.098 -0.0323 -0.4765  1.2351
 5451TIP3   OH237911   6.060   4.497   7.435  0.7665  0.4168  0.1357
 5451TIP3    H137912   6.079   4.582   7.395  1.9647 -0.3107 -0.9240
 5451TIP3    H237913   6.135   4.479   7.491  0.5678  0.0040  0.2792
 5452TIP3   OH237914   0.643   5.502   0.976 -0.4311 -0.3788  0.1768
 5452TIP3    H137915   0.715   5.464   0.926 -2.0473 -2.2934 -0.8706
 5452TIP3    H237916   0.637   5.593   0.944  0.8229 -0.5096 -0.4913
 5453TIP3   OH237917   1.822   5.579   1.430 -0.5676 -0.7925  0.4182
 5453TIP3    H137918   1.840   5.622   1.347  0.8090 -3.9771 -1.1141
 5453TIP3    H237919   1.846   5.644   1.497  2.2558  0.5429 -1.6758
 5454TIP3   OH237920   6.455   0.302   0.800  0.0085  0.1744 -0.3696
 5454TIP3    H137921   6.451   0.232   0.865  1.3835  1.1065  0.7686
 5454TIP3    H237922   6.477   0.258   0.718  1.6183 -0.6788  0.4788
 5455TIP3   OH237923   0.279   0.173   0.318 -0.3063 -0.5006  0.7947
 5455TIP3    H137924   0.291   0.106   0.251  1.1735 -0.1832  0.7133
 5455TIP3    H237925   0.336   0.145   0.390  2.0033  1.6718 -0.0375
 5456TIP3   OH237926   4.337   2.366   1.995 -0.0724 -0.2136 -0.2918
 5456TIP3    H137927   4.359   2.404   1.910  2.8523 -0.4948  0.2335
 5456TIP3    H237928   4.370   2.430   2.059 -5.3900  1.8599  0.9340
 5457TIP3   OH237929   4.123   5.383   1.040 -0.0844 -0.0099 -0.1489
 5457TIP3    H137930   4.174   5.459   1.068 -0.4618  0.4804 -0.7676
 5457TIP3    H237931   4.184   5.329   0.990  0.2940 -0.3292  0.6406
 5458TIP3   OH237932   4.462   6.115   8.847 -0.3856 -0.8497  0.0081
 5458TIP3    H137933   4.549   6.076   8.854 -0.5391 -1.0174  1.1937
 5458TIP3    H237934   4.477   6.209   8.849 -0.2141 -0.8780  0.0892
 5459TIP3   OH237935   6.374   1.042   1.652 -0.4591 -0.1094  0.0745
 5459TIP3    H137936   6.291   1.085   1.672  0.7082  1.5099  1.8254
 5459TIP3    H237937   6.417   1.034   1.737  0.9691 -1.3691 -0.7250
 5460TIP3   OH237938   4.831   4.148   0.451 -0.3406 -0.1865 -0.1040
 5460TIP3    H137939   4.755   4.170   0.506 -1.3629 -2.0989 -0.6848
 5460TIP3    H237940   4.893   4.110   0.512 -0.2739  0.3818  0.1937
 5461TIP3   OH237941   1.897   3.259   7.964  0.3720 -0.2548 -0.1961
 5461TIP3    H137942   1.940   3.243   8.049 -0.2267  0.9976  0.3772
 5461TIP3    H237943   1.907   3.177   7.916  2.3023 -0.4141  0.3938
 5462TIP3   OH237944   6.304   0.314   1.436 -0.1369 -0.0535  0.1368
 5462TIP3    H137945   6.228   0.323   1.494 -1.9602 -1.2839 -1.8941
 5462TIP3    H237946   6.298   0.224   1.403  2.4728 -0.3136  0.1811
 5463TIP3   OH237947   1.034   5.186   0.214 -0.3723  0.0285  0.2860
 5463TIP3    H137948   1.011   5.212   0.303  0.2510 -0.2603  0.5411
 5463TIP3    H237949   1.130   5.186   0.214 -0.3559 -1.2648  0.0097
 5464TIP3   OH237950   6.484   0.926   1.443  0.0847 -0.7145 -0.2140
 5464TIP3    H137951   6.442   0.981   1.509 -0.1748 -1.7316  0.4952
 5464TIP3    H237952   6.477   0.976   1.362  2.0628  1.4392  0.7997
 5465TIP3   OH237953   3.476   0.974   8.186  0.2264  0.3717 -0.0427
 5465TIP3    H137954   3.533   0.938   8.117  0.6329 -0.0194  0.4857
 5465TIP3    H237955   3.535   0.987   8.260 -0.4025 -0.1935  0.5729
 5466TIP3   OH237956   0.607   3.136   0.809 -0.0535 -0.0652 -0.5785
 5466TIP3    H137957   0.532   3.148   0.867 -1.4334 -2.0767 -1.8252
 5466TIP3    H237958   0.671   3.089   0.863 -0.6956 -0.5573 -0.2291
 5467TIP3   OH237959   3.149   5.881   1.610 -0.0994  0.3219 -0.0359
 5467TIP3    H137960   3.067   5.879   1.559  0.8502  2.5415 -1.8405
 5467TIP3    H237961   3.122   5.912   1.697 -1.3388 -0.2678 -0.1861
 5468TIP3   OH237962   6.439   4.523   1.029  0.3018  0.2170  0.0394
 5468TIP3    H137963   6.419   4.506   1.120 -1.7864  2.1177  0.0216
 5468TIP3    H237964   6.394   4.455   0.980 -2.3847  1.7095  0.2697
 5469TIP3   OH237965   2.310   3.848   7.620  0.0406 -0.3410  0.4468
 5469TIP3    H137966   2.323   3.887   7.533  0.8114 -0.7921  0.3541
 5469TIP3    H237967   2.342   3.759   7.612  2.1731  0.2314  1.7461
 5470TIP3   OH237968   0.363   0.879   8.872  0.0974 -0.0045 -0.2417
 5470TIP3    H137969   0.393   0.864   8.962  0.4183  2.0572  0.0364
 5470TIP3    H237970   0.331   0.969   8.872  0.4413  0.1702 -2.2951
 5471TIP3   OH237971   4.562   6.627   8.409 -0.2964 -0.3361  0.2731
 5471TIP3    H137972   4.577   6.537   8.437 -0.1750 -1.1936 -2.2935
 5471TIP3    H237973   4.473   6.627   8.375 -0.1734  0.4303 -0.0701
 5472TIP3   OH237974   4.979   3.002   0.060  0.1874  0.0011 -0.5244
 5472TIP3    H137975   5.014   3.077   0.109  0.2970 -0.1734 -0.3323
 5472TIP3    H237976   4.961   2.936   0.127  1.9150 -0.8628 -0.8572
 5473TIP3   OH237977   3.798   3.372   7.658  0.1243  0.1439  0.3757
 5473TIP3    H137978   3.760   3.455   7.686 -1.4572  0.2093 -1.6583
 5473TIP3    H237979   3.838   3.392   7.573  0.4006 -0.9960  0.2233
 5474TIP3   OH237980   5.285   2.728   8.629 -0.0651 -0.0473 -0.8363
 5474TIP3    H137981   5.216   2.772   8.679  0.9674  0.7713 -0.0836
 5474TIP3    H237982   5.243   2.649   8.596 -1.9185  1.3472 -2.0283
 5475TIP3   OH237983   5.011   3.094   1.696 -0.1751 -0.0058 -0.5119
 5475TIP3    H137984   5.011   3.086   1.791 -1.9360 -1.8481 -0.5954
 5475TIP3    H237985   5.081   3.035   1.666 -0.1213 -0.0017 -0.3927
 5476TIP3   OH237986   3.190   3.670   8.293 -0.2534  0.1145 -0.3242
 5476TIP3    H137987   3.164   3.585   8.259  0.2480 -0.3391  0.4096
 5476TIP3    H237988   3.266   3.694   8.241 -0.7414  0.4021 -0.9312
 5477TIP3   OH237989   0.592   0.026   1.336  0.1029  0.5705 -0.0476
 5477TIP3    H137990   0.623  -0.006   1.252 -0.5980  1.8921 -0.8499
 5477TIP3    H237991   0.536  -0.043   1.369  0.8219 -0.1952 -0.3949
 5478TIP3   OH237992   5.198   5.394   0.669  0.2610  0.8937  0.3891
 5478TIP3    H137993   5.133   5.334   0.705 -0.9643  1.7462 -0.3176
 5478TIP3    H237994   5.265   5.337   0.633 -0.2611 -0.0290  0.8334
 5479TIP3   OH237995   6.209   1.493   8.386 -0.0894  0.1074  0.1046
 5479TIP3    H137996   6.124   1.452   8.369  0.7911 -2.2611  0.9933
 5479TIP3    H237997   6.189   1.566   8.444 -1.4679 -0.9652  1.0617
 5480TIP3   OH237998   2.048   6.429   2.473 -0.4369 -0.5790 -0.1261
 5480TIP3    H137999   2.091   6.392   2.549 -0.6080 -1.4435 -0.4417
 5480TIP3    H238000   1.974   6.371   2.455 -1.1494  0.3145 -0.2005
 5481TIP3   OH238001   2.347   0.968   7.761  0.0436  0.4073  0.5648
 5481TIP3    H138002   2.342   1.062   7.778 -0.8017  0.6705 -0.9223
 5481TIP3    H238003   2.378   0.962   7.671  1.0450 -0.7798  0.9609
 5482TIP3   OH238004   6.670   1.490   1.829 -0.2715  0.0769 -0.0340
 5482TIP3    H138005   6.670   1.397   1.806 -1.1218  0.1108 -0.2222
 5482TIP3    H238006   6.675   1.492   1.924 -0.1329 -0.1591 -0.0378
 5483TIP3   OH238007   4.501   2.259   7.495 -0.0165 -0.0288  0.4217
 5483TIP3    H138008   4.409   2.240   7.512 -0.5486  1.7230 -0.2643
 5483TIP3    H238009   4.500   2.323   7.424  1.8604 -2.2074 -1.7913
 5484TIP3   OH238010   0.818   4.352   1.299 -0.3496  0.4821 -0.2760
 5484TIP3    H138011   0.865   4.430   1.331 -0.6232  0.6017 -0.1672
 5484TIP3    H238012   0.728   4.382   1.286 -0.6536 -0.0323  0.5791
 5485TIP3   OH238013   1.086   6.328   7.527 -0.5521 -1.3710 -0.1748
 5485TIP3    H138014   1.085   6.361   7.616  0.0500 -2.7461  0.3759
 5485TIP3    H238015   1.143   6.251   7.530  1.4844 -0.0822 -2.2655
 5486TIP3   OH238016   4.557   6.103   6.400 -0.0014 -0.4650 -0.2820
 5486TIP3    H138017   4.480   6.088   6.454 -0.0110 -0.7188 -0.3634
 5486TIP3    H238018   4.610   6.165   6.450 -0.9257  0.8378 -0.8829
 5487TIP3   OH238019   2.235   5.256   0.379 -0.1403 -0.6401 -0.0503
 5487TIP3    H138020   2.197   5.341   0.404 -1.2888 -0.8176 -1.0671
 5487TIP3    H238021   2.295   5.235   0.451 -1.1310  0.2143  1.0900
 5488TIP3   OH238022   4.651   2.594   6.917  0.1474  0.2502  0.1506
 5488TIP3    H138023   4.586   2.650   6.959 -0.4828 -0.2861 -0.1069
 5488TIP3    H238024   4.735   2.631   6.945 -0.2480 -0.0340  1.8258
 5489TIP3   OH238025   6.616   1.019   0.642 -0.2687  0.2256  0.0430
 5489TIP3    H138026   6.616   0.957   0.569 -1.0796  2.5885 -2.1058
 5489TIP3    H238027   6.548   0.987   0.700 -0.6034 -0.9474 -0.9509
 5490TIP3   OH238028   3.985   1.141   0.577 -0.0174 -0.1481 -0.3869
 5490TIP3    H138029   3.911   1.103   0.624  0.9736 -2.8330 -0.8295
 5490TIP3    H238030   4.036   1.185   0.644 -0.4536 -0.9050  0.4601
 5491TIP3   OH238031   0.534   0.869   0.207 -0.4762 -0.1528  0.4206
 5491TIP3    H138032   0.575   0.782   0.206  1.4530  0.6901  0.9838
 5491TIP3    H238033   0.455   0.857   0.260 -0.7462 -1.7388 -0.2690
 5492TIP3   OH238034   1.822   0.886   8.615 -0.3465 -0.4269  0.3046
 5492TIP3    H138035   1.812   0.795   8.586 -1.7789 -0.0044 -0.6402
 5492TIP3    H238036   1.794   0.885   8.706  1.0337 -1.1686  0.7559
 5493TIP3   OH238037   6.306   0.200   2.794 -0.5215 -0.2992 -0.0983
 5493TIP3    H138038   6.231   0.217   2.737  1.1477  0.6859 -2.1630
 5493TIP3    H238039   6.360   0.138   2.744 -0.5107 -1.9700  1.8776
 5494TIP3   OH238040   5.512   1.007   2.525  0.3996 -0.2353 -0.0861
 5494TIP3    H138041   5.439   0.949   2.547  3.0303 -2.9513  2.5259
 5494TIP3    H238042   5.539   0.980   2.437 -2.6301  2.0812 -1.9218
 5495TIP3   OH238043   5.974   3.866   7.792  0.2761  0.6118 -0.0639
 5495TIP3    H138044   5.904   3.810   7.759  1.0999  0.0171 -0.8758
 5495TIP3    H238045   5.996   3.830   7.878 -0.5032  0.8991  0.2649
 5496TIP3   OH238046   5.499   0.897   0.789 -0.3935 -0.2901  0.4667
 5496TIP3    H138047   5.417   0.848   0.785 -0.9813  0.7254 -0.3098
 5496TIP3    H238048   5.483   0.967   0.851 -0.3909  0.3852 -0.2744
 5497TIP3   OH238049   1.449   4.829   1.582  0.1119 -0.0355 -0.2054
 5497TIP3    H138050   1.474   4.913   1.621 -0.2279 -0.0599  0.0759
 5497TIP3    H238051   1.478   4.764   1.646 -0.3926 -0.0803 -0.0191
 5498TIP3   OH238052   3.396   6.469   0.390 -0.7304 -0.4965  0.2933
 5498TIP3    H138053   3.366   6.451   0.479 -0.1683  1.2597  0.8880
 5498TIP3    H238054   3.488   6.493   0.400 -0.7650  0.1057 -0.7082
 5499TIP3   OH238055   3.768   1.010   6.846 -0.2630  0.1792  0.1409
 5499TIP3    H138056   3.695   0.987   6.789 -0.4351  0.3409  0.2965
 5499TIP3    H238057   3.802   1.092   6.811  1.4306 -1.1253 -1.4534
 5500TIP3   OH238058   2.782   5.787   0.484  0.4495 -0.1044  0.0206
 5500TIP3    H138059   2.777   5.721   0.415 -2.8019  0.3577 -0.3526
 5500TIP3    H238060   2.743   5.745   0.560 -0.5497  0.9554  0.1192
 5501TIP3   OH238061   2.599   3.453   7.492  0.3041  0.3930 -0.3436
 5501TIP3    H138062   2.640   3.367   7.490  0.1927  0.3495 -1.1396
 5501TIP3    H238063   2.672   3.515   7.496  0.3673  0.2554  1.1826
 5502TIP3   OH238064   3.555   5.991   7.695 -0.2308  0.4607  0.4600
 5502TIP3    H138065   3.536   5.934   7.769 -1.1009 -0.2934 -0.3330
 5502TIP3    H238066   3.650   5.999   7.695 -0.2860  1.9410  2.7345
 5503TIP3   OH238067   4.053   0.557   8.461  0.5257 -0.0987 -0.3559
 5503TIP3    H138068   4.067   0.465   8.481  0.2190  0.3014  2.0606
 5503TIP3    H238069   4.012   0.558   8.375  1.5169 -2.1346 -0.8947
 5504TIP3   OH238070   0.882   5.588   1.791  0.0425 -0.0773 -0.0180
 5504TIP3    H138071   0.835   5.505   1.800  1.6410 -1.2791 -1.7743
 5504TIP3    H238072   0.849   5.626   1.710 -2.5290  2.4095  2.0107
 5505TIP3   OH238073   5.942   2.415   8.190  0.2205  0.0887  0.3593
 5505TIP3    H138074   5.929   2.329   8.228 -0.1856 -0.7564 -1.5645
 5505TIP3    H238075   5.862   2.431   8.140  0.6649  1.1961 -0.0245
 5506TIP3   OH238076   2.169   3.650   8.209 -0.4381  0.1082 -0.5679
 5506TIP3    H138077   2.157   3.556   8.195  1.8491 -0.3995  0.3910
 5506TIP3    H238078   2.223   3.679   8.136  0.0054  0.3871 -0.1354
 5507TIP3   OH238079   3.180   5.479   1.561  0.0023 -0.1041  0.3888
 5507TIP3    H138080   3.114   5.508   1.624 -0.9817 -0.8976 -0.2351
 5507TIP3    H238081   3.254   5.539   1.573 -1.8197  2.5415 -0.6825
 5508TIP3   OH238082   1.304   6.465   8.773  0.0365  0.5222 -0.2605
 5508TIP3    H138083   1.364   6.541   8.774  1.2549 -0.3064  2.7434
 5508TIP3    H238084   1.358   6.393   8.805 -1.1629 -1.6353 -2.8336
 5509TIP3   OH238085   4.262   4.637   1.167 -0.2452  0.1193  0.2769
 5509TIP3    H138086   4.198   4.706   1.187  0.7138  1.3752 -0.7938
 5509TIP3    H238087   4.229   4.560   1.213 -1.8836  1.0332  0.7278
 5510TIP3   OH238088   1.053   0.785   0.756  0.6700  0.3599 -0.3520
 5510TIP3    H138089   0.975   0.729   0.762  1.3728 -0.6435 -0.2461
 5510TIP3    H238090   1.045   0.829   0.672 -0.1774  0.5167 -0.1942
 5511TIP3   OH238091   0.360   6.314   2.538  0.3125  0.6473 -0.4116
 5511TIP3    H138092   0.271   6.320   2.574  0.5407  0.2601  0.2439
 5511TIP3    H238093   0.352   6.252   2.466  0.3395 -0.6204  0.6444
 5512TIP3   OH238094   0.491   1.481   7.834 -0.5704 -0.2166  0.4537
 5512TIP3    H138095   0.575   1.524   7.850 -0.9164  0.4351  0.5331
 5512TIP3    H238096   0.434   1.513   7.904 -0.4052 -2.0181  1.4608
 5513TIP3   OH238097   3.656   6.585   0.515 -0.3051  0.6140  0.3102
 5513TIP3    H138098   3.636   6.564   0.606  0.7315  1.3508  0.7207
 5513TIP3    H238099   3.748   6.562   0.504 -1.0559 -2.0722 -1.3616
 5514TIP3   OH238100   0.138   4.835   8.625 -0.0627 -0.0250  0.7063
 5514TIP3    H138101   0.071   4.769   8.611  1.0095 -0.7446 -1.4099
 5514TIP3    H238102   0.153   4.874   8.539  2.2962 -0.0102  1.0434
 5515TIP3   OH238103   2.182   5.513   1.575  0.5442 -0.4504 -0.1308
 5515TIP3    H138104   2.092   5.515   1.543  0.3422  1.3270  0.4250
 5515TIP3    H238105   2.174   5.497   1.669  0.8635 -0.9218 -0.1787
 5516TIP3   OH238106   5.183   2.118   7.796  0.0880 -0.1902 -0.0688
 5516TIP3    H138107   5.257   2.153   7.747  0.3223 -1.5476 -0.7369
 5516TIP3    H238108   5.219   2.043   7.843 -0.3429  0.5277  1.4957
 5517TIP3   OH238109   1.187   1.351   7.428 -0.4335  0.3572 -0.2888
 5517TIP3    H138110   1.219   1.355   7.338 -0.3079 -0.4887 -0.2871
 5517TIP3    H238111   1.238   1.281   7.469 -2.3713 -1.2009 -0.3540
 5518TIP3   OH238112   1.508   5.896   7.681 -0.3144  0.3763  0.0856
 5518TIP3    H138113   1.424   5.902   7.635 -0.0856  1.0318 -0.2500
 5518TIP3    H238114   1.567   5.854   7.619 -0.6282 -1.0096  0.6708
 5519TIP3   OH238115   4.075   1.867   7.216 -0.1304  0.4438 -0.2694
 5519TIP3    H138116   4.152   1.866   7.159  1.0658 -0.1640  1.2694
 5519TIP3    H238117   4.035   1.781   7.204  0.4049  0.1276  0.1331
 5520TIP3   OH238118   5.987   0.551   2.039  0.2633  0.3450  0.2181
 5520TIP3    H138119   6.008   0.464   2.005 -2.1841 -0.4425  0.5197
 5520TIP3    H238120   6.001   0.545   2.133 -1.6704 -0.3650  0.5015
 5521TIP3   OH238121   5.838   0.365   6.978 -0.4464  0.0600 -0.0951
 5521TIP3    H138122   5.911   0.422   7.004 -0.9712  0.5568  0.3232
 5521TIP3    H238123   5.871   0.276   6.991 -0.1199  0.2850  0.6828
 5522TIP3   OH238124   6.409   5.112   1.554  0.4310  0.7121  0.1283
 5522TIP3    H138125   6.401   5.046   1.623 -1.1164  0.8073  0.0948
 5522TIP3    H238126   6.334   5.170   1.568  1.1063  1.7897 -0.5504
 5523TIP3   OH238127   0.097   1.883   0.850  0.0039 -0.0381  0.2256
 5523TIP3    H138128   0.026   1.838   0.896 -0.4910  2.3514  2.0013
 5523TIP3    H238129   0.052   1.945   0.792  0.6669 -0.5007 -0.8143
 5524TIP3   OH238130   4.117   1.630   7.386  0.4850 -0.7489 -0.6045
 5524TIP3    H138131   4.193   1.667   7.431 -0.3001 -0.0211  0.1519
 5524TIP3    H238132   4.153   1.591   7.307  1.7005 -0.7715 -0.0573
 5525TIP3   OH238133   4.637   0.458   0.149 -0.7796  0.1557 -0.2649
 5525TIP3    H138134   4.707   0.460   0.084  0.3276 -0.0623  0.8761
 5525TIP3    H238135   4.681   0.432   0.230 -2.0722  0.6767  0.6269
 5526TIP3   OH238136   4.417   1.160   2.409  0.1040  0.1819 -0.5917
 5526TIP3    H138137   4.419   1.065   2.421  0.6284  0.2679 -0.0073
 5526TIP3    H238138   4.345   1.189   2.465  0.1446  0.1674 -0.5323
 5527TIP3   OH238139   6.366   6.748   6.887 -0.4325  0.5405  0.3988
 5527TIP3    H138140   6.439   6.689   6.905 -1.8236 -0.9959  1.1484
 5527TIP3    H238141   6.288   6.694   6.895 -1.6624  2.0275 -0.8894
 5528TIP3   OH238142   2.688   2.082   8.550  0.3216  0.4580 -0.4930
 5528TIP3    H138143   2.723   1.993   8.565  1.3586  1.0484  0.8290
 5528TIP3    H238144   2.726   2.108   8.466  1.0962  0.1348 -0.2594
 5529TIP3   OH238145   1.450   3.914   1.229 -0.3434  0.1430 -0.2458
 5529TIP3    H138146   1.460   3.837   1.174  1.0880 -0.8213  1.2444
 5529TIP3    H238147   1.485   3.986   1.176 -0.1378 -0.5331 -1.0484
 5530TIP3   OH238148   5.866   4.714   1.457  0.0577 -0.3316 -0.0094
 5530TIP3    H138149   5.895   4.668   1.536 -0.6624 -1.5585 -0.4391
 5530TIP3    H238150   5.843   4.801   1.488 -0.0690 -0.7454  1.1163
 5531TIP3   OH238151   2.621   2.758   7.058  0.0128  0.7791  0.6217
 5531TIP3    H138152   2.649   2.670   7.083  0.0784  0.3513 -0.8600
 5531TIP3    H238153   2.684   2.785   6.991 -1.8098  0.6243 -1.2843
 5532TIP3   OH238154   5.275   6.304   0.969  0.1460 -0.6356 -0.3508
 5532TIP3    H138155   5.223   6.354   0.907 -0.7223 -0.4649  0.4883
 5532TIP3    H238156   5.366   6.321   0.944 -0.1670  0.1781 -0.9772
 5533TIP3   OH238157   5.529   1.343   1.819  0.0825  0.0328  0.5845
 5533TIP3    H138158   5.624   1.345   1.802  0.2079 -1.5151  0.9258
 5533TIP3    H238159   5.511   1.425   1.865  0.3053  2.8743 -3.8395
 5534TIP3   OH238160   1.800   0.073   7.342  0.4628  0.1954 -0.3140
 5534TIP3    H138161   1.886   0.088   7.303 -0.2823 -1.5199 -2.8261
 5534TIP3    H238162   1.782   0.153   7.392  3.8045  0.2998  0.9901
 5535TIP3   OH238163   5.353   5.092   0.014 -0.4028  0.3437  0.0116
 5535TIP3    H138164   5.411   5.158   0.051  0.6807 -0.7793  0.4201
 5535TIP3    H238165   5.277   5.091   0.071 -1.1478  2.2766 -0.8829
 5536TIP3   OH238166   0.737   2.685   1.962 -0.3439  0.0424 -0.1348
 5536TIP3    H138167   0.674   2.614   1.976 -1.9342  1.2634 -0.7152
 5536TIP3    H238168   0.715   2.720   1.876  0.1884  1.4358  0.2603
 5537TIP3   OH238169   0.041   1.426   2.070  0.0870  0.3155  0.3274
 5537TIP3    H138170   0.126   1.392   2.041 -0.0205  0.1726  0.1784
 5537TIP3    H238171   0.014   1.366   2.139 -0.6580 -0.6180 -0.7412
 5538TIP3   OH238172   2.839   0.351   2.053  0.3680 -0.1537  0.0509
 5538TIP3    H138173   2.753   0.369   2.014  1.0621  1.0127 -1.0386
 5538TIP3    H238174   2.846   0.256   2.053 -0.6586 -0.2414 -0.4654
 5539TIP3   OH238175   2.249   0.839   8.168 -0.0483  0.0565 -0.2613
 5539TIP3    H138176   2.289   0.801   8.090  0.0012  2.1449 -1.3279
 5539TIP3    H238177   2.322   0.876   8.217 -0.2931  0.8828 -0.4955
 5540TIP3   OH238178   5.061   1.283   1.607  0.0017 -0.1517  0.3220
 5540TIP3    H138179   5.142   1.332   1.619 -0.5527  0.9057 -0.1571
 5540TIP3    H238180   5.069   1.245   1.519 -0.3217  0.5718 -0.0333
 5541TIP3   OH238181   2.936   3.197   0.130 -0.1309  0.3679  0.2471
 5541TIP3    H138182   3.008   3.135   0.145  0.9392  1.5671  0.2707
 5541TIP3    H238183   2.914   3.229   0.217 -2.1457 -1.5009  0.4922
 5542TIP3   OH238184   3.066   2.546   2.369  0.6042 -0.1795  0.1980
 5542TIP3    H138185   3.077   2.575   2.279  2.7941  0.0881  0.4965
 5542TIP3    H238186   3.027   2.459   2.362 -1.5420  0.7689 -0.8661
 5543TIP3   OH238187   0.660   2.964   2.000 -0.0316  1.1742 -0.2610
 5543TIP3    H138188   0.690   2.873   2.002 -0.7252  0.9362 -0.3745
 5543TIP3    H238189   0.675   2.996   2.088  1.5102  1.3867 -0.5725
 5544TIP3   OH238190   1.377   3.358   8.604 -0.2570 -0.1465  0.2824
 5544TIP3    H138191   1.348   3.270   8.577 -1.1628  0.5080 -0.9802
 5544TIP3    H238192   1.456   3.374   8.551 -0.9746  0.3960 -0.6527
 5545TIP3   OH238193   1.441   4.932   0.640 -0.0484 -0.0677 -0.2892
 5545TIP3    H138194   1.402   4.951   0.555  1.4768  1.5516 -0.6937
 5545TIP3    H238195   1.529   4.970   0.635  0.2554 -0.3568  1.8461
 5546TIP3   OH238196   0.006   6.081   8.824 -0.1046 -0.4389  0.2631
 5546TIP3    H138197   0.093   6.078   8.864  0.7905 -2.0603 -1.5924
 5546TIP3    H238198   0.012   6.020   8.750 -2.6507 -0.1261 -0.2959
 5547TIP3   OH238199   6.099   3.050   1.013  0.4609 -0.5212 -0.6132
 5547TIP3    H138200   6.141   2.964   1.025 -1.1327 -1.3847 -0.9606
 5547TIP3    H238201   6.109   3.093   1.098  1.2980 -1.0268 -0.4365
 5548TIP3   OH238202   0.520   6.415   1.119 -0.3249  0.1115  1.1584
 5548TIP3    H138203   0.549   6.505   1.131  0.5442 -0.0088  0.1800
 5548TIP3    H238204   0.540   6.396   1.027  1.2522 -1.6560  1.8081
 5549TIP3   OH238205   5.866   4.513   1.664 -0.5162  0.0996 -0.1672
 5549TIP3    H138206   5.891   4.441   1.607  0.8144  0.0824  0.4081
 5549TIP3    H238207   5.834   4.471   1.744  0.3515  0.1330  0.2064
 5550TIP3   OH238208   4.461   0.041   1.349 -0.0183  0.4751 -0.0901
 5550TIP3    H138209   4.553   0.045   1.376  0.0694  0.9735 -0.4593
 5550TIP3    H238210   4.443  -0.053   1.343  0.1423  0.3589  1.0563
 5551TIP3   OH238211   2.973   2.425   2.133  0.2144 -0.4894 -0.2132
 5551TIP3    H138212   3.066   2.405   2.122  0.3528 -0.4080  0.7335
 5551TIP3    H238213   2.936   2.345   2.172 -0.1977 -0.6660 -0.9416
 5552TIP3   OH238214   0.580   6.122   7.040 -0.0050  0.8039 -0.0646
 5552TIP3    H138215   0.531   6.203   7.055 -2.3177 -0.0365 -2.4342
 5552TIP3    H238216   0.539   6.083   6.963  1.0129 -2.6423  0.9768
 5553TIP3   OH238217   6.578   3.746   7.493 -0.5491 -0.2894  0.7779
 5553TIP3    H138218   6.607   3.793   7.415 -1.2182 -2.5822 -0.9449
 5553TIP3    H238219   6.482   3.744   7.485 -0.8555  1.5274  2.9908
 5554TIP3   OH238220   5.367   1.621   1.474  0.0701  0.1202 -0.5305
 5554TIP3    H138221   5.346   1.563   1.401 -1.0349 -1.4206  0.9326
 5554TIP3    H238222   5.440   1.579   1.518  0.4590  0.8278 -0.4733
 5555TIP3   OH238223   0.217   0.465   7.145 -1.0271  0.2439 -0.1841
 5555TIP3    H138224   0.256   0.439   7.228  0.3032  0.7640 -0.6172
 5555TIP3    H238225   0.123   0.457   7.158 -0.8628  0.8508  1.5509
 5556TIP3   OH238226   1.120   1.726   1.889 -0.0148 -0.1976 -0.1627
 5556TIP3    H138227   1.163   1.648   1.924  1.4702  0.5892 -0.1451
 5556TIP3    H238228   1.177   1.755   1.818 -1.1247  0.2585 -0.8801
 5557TIP3   OH238229   4.428   3.540   6.992  0.7457  1.1012  0.4323
 5557TIP3    H138230   4.424   3.636   6.998  0.2529  1.0218  1.5754
 5557TIP3    H238231   4.489   3.524   6.920  1.4958  2.2758  0.7642
 5558TIP3   OH238232   6.198   5.081   0.789 -0.2323  0.0307  0.0257
 5558TIP3    H138233   6.229   5.027   0.716 -0.9065 -1.4733  0.7983
 5558TIP3    H238234   6.275   5.128   0.819  0.7365 -1.6792  0.2810
 5559TIP3   OH238235   4.487   2.187   1.383 -0.0006 -0.5166 -0.5812
 5559TIP3    H138236   4.496   2.117   1.448 -0.3167 -0.8805 -0.9234
 5559TIP3    H238237   4.565   2.241   1.395 -0.6950  0.1778  0.9868
 5560TIP3   OH238238   0.541   2.488   1.918  0.0434  0.9801  0.0211
 5560TIP3    H138239   0.450   2.460   1.908  1.0186 -2.5199 -0.4125
 5560TIP3    H238240   0.573   2.436   1.993  1.8799  1.4998 -0.3656
 5561TIP3   OH238241   3.336   0.196   1.259 -0.2635  0.3792  0.4269
 5561TIP3    H138242   3.349   0.124   1.320 -0.6311  0.0017  0.0674
 5561TIP3    H238243   3.327   0.274   1.315  1.4035  0.3602  0.7607
 5562TIP3   OH238244   2.693   1.666   2.049  0.1478 -0.3488  0.3719
 5562TIP3    H138245   2.765   1.728   2.049  0.2218 -0.4176  1.4532
 5562TIP3    H238246   2.670   1.655   2.141 -2.9238  1.5828 -0.0006
 5563TIP3   OH238247   3.255   5.493   7.994 -0.2291 -0.1105 -0.4594
 5563TIP3    H138248   3.326   5.546   8.031  0.0285 -0.5615 -0.3084
 5563TIP3    H238249   3.177   5.523   8.041 -0.1963  0.5919 -0.8313
 5564TIP3   OH238250   3.300   0.441   1.396 -0.5896 -0.0131 -0.1748
 5564TIP3    H138251   3.229   0.486   1.442 -0.5689 -0.7126  0.5575
 5564TIP3    H238252   3.309   0.489   1.314 -0.3665  1.4951  0.7055
 5565TIP3   OH238253   4.247   1.942   1.497  0.1450 -0.1031  0.1180
 5565TIP3    H138254   4.224   1.855   1.530 -1.7811 -0.8690 -2.8523
 5565TIP3    H238255   4.343   1.946   1.505  0.1421 -1.8779  1.6368
 5566TIP3   OH238256   3.296   2.042   0.591 -0.1588 -0.2434 -0.5902
 5566TIP3    H138257   3.358   2.074   0.526  2.5437 -0.8500  1.5431
 5566TIP3    H238258   3.321   1.951   0.608 -0.8077 -0.1461  1.2209
 5567TIP3   OH238259   4.122   0.296   2.012 -0.1638 -0.3343 -0.4297
 5567TIP3    H138260   4.135   0.283   1.918 -0.5297  1.0450 -0.6997
 5567TIP3    H238261   4.197   0.253   2.053  0.5531 -0.0669 -1.4264
 5568TIP3   OH238262   2.600   2.740   1.698 -0.0636  0.2334 -0.1994
 5568TIP3    H138263   2.505   2.744   1.709 -0.0285  0.2505  0.1218
 5568TIP3    H238264   2.619   2.647   1.683 -0.2642  0.4022 -1.6034
 5569TIP3   OH238265   0.841   1.317   1.124  0.6621  0.0180  0.1830
 5569TIP3    H138266   0.757   1.323   1.078  1.1596  2.7655 -0.5521
 5569TIP3    H238267   0.818   1.328   1.216  0.1474 -0.1334  0.0751
 5570TIP3   OH238268   3.228   0.786   1.528  0.1134 -0.6881 -0.5473
 5570TIP3    H138269   3.280   0.774   1.607 -1.7397 -1.9593  0.5684
 5570TIP3    H238270   3.166   0.713   1.528 -1.4937  0.5694 -1.9243
 5571TIP3   OH238271   3.870   6.462   8.654  0.0346  0.2703 -0.5408
 5571TIP3    H138272   3.799   6.516   8.620 -0.8018 -0.7050 -0.3588
 5571TIP3    H238273   3.828   6.382   8.685  1.4038 -1.1397 -2.1122
 5572TIP3   OH238274   2.802   6.450   1.642 -0.0940 -0.2066 -0.2681
 5572TIP3    H138275   2.813   6.537   1.680  1.6247 -0.6384  0.3128
 5572TIP3    H238276   2.826   6.390   1.712 -0.3215 -1.1234 -0.9553
 5573TIP3   OH238277   0.214   6.035   0.153 -0.1198 -0.2551 -0.2307
 5573TIP3    H138278   0.200   5.969   0.220  0.7348  1.2195  1.4872
 5573TIP3    H238279   0.272   5.992   0.089  0.6848 -1.0691  1.0058
 5574TIP3   OH238280   2.379   5.681   8.250 -0.2320 -0.3016  0.8193
 5574TIP3    H138281   2.325   5.756   8.225 -0.3389 -0.8804 -0.8281
 5574TIP3    H238282   2.318   5.616   8.282 -0.4691 -0.6548 -0.2873
 5575TIP3   OH238283   5.672   1.020   0.575 -0.1284 -0.0918 -0.3466
 5575TIP3    H138284   5.588   0.981   0.601 -0.8067  1.0540 -0.6914
 5575TIP3    H238285   5.732   0.996   0.645 -1.2584  0.7165  0.9712
 5576TIP3   OH238286   4.209   4.946   7.661  0.6330 -0.4669  0.1796
 5576TIP3    H138287   4.162   5.012   7.609 -1.4673 -0.5280  1.8507
 5576TIP3    H238288   4.147   4.874   7.671  1.4094 -0.9706  1.7161
 5577TIP3   OH238289   3.809   5.999   0.274  0.3242  0.2551 -0.1326
 5577TIP3    H138290   3.855   5.979   0.356 -1.5502  0.2987  0.9849
 5577TIP3    H238291   3.879   6.024   0.213  1.8337 -0.3641  1.2544
 5578TIP3   OH238292   0.361   2.303   0.384  0.0276 -0.0338  0.6278
 5578TIP3    H138293   0.457   2.302   0.375  0.1589  2.2899  1.1944
 5578TIP3    H238294   0.346   2.328   0.475 -1.0707  1.4913  0.0755
 5579TIP3   OH238295   3.002   3.724   2.251 -0.1118  0.4980 -0.3996
 5579TIP3    H138296   3.015   3.716   2.345  1.2585 -0.6082 -0.6477
 5579TIP3    H238297   2.930   3.664   2.231 -1.6746  2.0855  0.1428
 5580TIP3   OH238298   0.143   0.822   0.435  0.2083 -0.2692 -0.3770
 5580TIP3    H138299   0.132   0.767   0.513  1.1795 -0.8643 -0.6445
 5580TIP3    H238300   0.223   0.872   0.451  2.0775 -2.4701 -2.1315
 5581TIP3   OH238301   2.417   6.389   8.311  0.2140 -0.1217 -0.1673
 5581TIP3    H138302   2.434   6.302   8.347 -2.6836  0.0546  1.8965
 5581TIP3    H238303   2.329   6.383   8.275  0.6224  1.5343 -1.5548
 5582TIP3   OH238304   5.803   6.487   2.164  0.1383  0.7100  0.1813
 5582TIP3    H138305   5.722   6.531   2.192  0.6753  1.4979  0.5551
 5582TIP3    H238306   5.871   6.554   2.175  0.5846  0.6518 -1.8150
 5583TIP3   OH238307   5.645   4.904   7.473 -0.7302  0.3616  0.2691
 5583TIP3    H138308   5.678   4.981   7.428 -2.1467  0.1394 -1.2279
 5583TIP3    H238309   5.591   4.859   7.408  1.4074 -2.8433  0.4928
 5584TIP3   OH238310   6.310   1.385   7.835 -0.4285  0.8097 -0.6398
 5584TIP3    H138311   6.290   1.354   7.923  0.0669  3.2230  0.4091
 5584TIP3    H238312   6.233   1.437   7.810  0.9795  3.4700  0.1176
 5585TIP3   OH238313   6.674   1.884   1.692  0.1677 -0.5836 -0.1329
 5585TIP3    H138314   6.609   1.816   1.712  0.9769 -0.7572  2.0717
 5585TIP3    H238315   6.756   1.836   1.683  0.4021 -0.1021 -0.6050
 5586TIP3   OH238316   1.368   4.570   0.281  0.1614  0.0252  0.7864
 5586TIP3    H138317   1.317   4.651   0.283  0.5741  0.2936  0.5652
 5586TIP3    H238318   1.316   4.507   0.332 -0.2268  0.3877  0.8394
 5587TIP3   OH238319   3.211   6.427   0.212  0.2222  0.1795  0.3522
 5587TIP3    H138320   3.252   6.476   0.284  2.4067  0.0562 -0.7326
 5587TIP3    H238321   3.157   6.493   0.167 -0.6724  0.4061  1.6701
 5588TIP3   OH238322   5.207   2.796   7.593  0.0128 -0.6771  0.3563
 5588TIP3    H138323   5.229   2.837   7.677 -0.2035 -0.2241  0.1935
 5588TIP3    H238324   5.291   2.781   7.550  0.0365  0.6673 -0.0898
 5589TIP3   OH238325   5.479   2.485   7.878  0.5366  0.2684  0.0728
 5589TIP3    H138326   5.416   2.462   7.809  0.2759 -1.0939  0.7353
 5589TIP3    H238327   5.442   2.563   7.920 -0.7284 -0.5198  0.4565
 5590TIP3   OH238328   1.774   5.091   8.150 -0.2385 -0.2177  0.3951
 5590TIP3    H138329   1.851   5.149   8.146 -1.8685  2.0900  0.3224
 5590TIP3    H238330   1.730   5.105   8.066 -0.5290 -1.8753  0.2474
 5591TIP3   OH238331   3.572   5.436   7.635 -0.1130  0.0385  0.3944
 5591TIP3    H138332   3.589   5.529   7.645 -2.5595  0.3490  2.9759
 5591TIP3    H238333   3.632   5.408   7.566  1.6983  3.1902  0.4921
 5592TIP3   OH238334   5.986   2.651   1.516 -0.4731  0.1194 -0.0965
 5592TIP3    H138335   5.992   2.741   1.547 -0.9616  0.4167 -0.8248
 5592TIP3    H238336   6.074   2.631   1.483  0.0166 -0.1650  1.3350
 5593TIP3   OH238337   2.379   3.243   0.125  0.1547 -0.6467 -0.0568
 5593TIP3    H138338   2.457   3.246   0.069  0.9160 -0.5335  0.9838
 5593TIP3    H238339   2.332   3.324   0.104  2.3233  1.3025  2.0476
 5594TIP3   OH238340   0.965   6.166   1.069 -0.0109  0.0035  0.3770
 5594TIP3    H138341   0.908   6.134   1.139 -1.2890 -0.6518 -0.9009
 5594TIP3    H238342   0.906   6.214   1.011  1.0652  0.7387 -0.1314
 5595TIP3   OH238343   4.723   5.594   0.217  0.5708 -0.5240 -0.3462
 5595TIP3    H138344   4.723   5.648   0.295 -1.9672 -1.1267  0.1588
 5595TIP3    H238345   4.728   5.504   0.249 -0.4697 -0.7790 -0.8218
 5596TIP3   OH238346   1.664   1.665   0.647  0.9729  0.2186  0.1123
 5596TIP3    H138347   1.724   1.632   0.713  0.6984 -0.9597 -0.1957
 5596TIP3    H238348   1.702   1.635   0.564 -0.4505 -1.3144 -0.0416
 5597TIP3   OH238349   4.320   3.990   7.344  0.3207  0.2491 -0.0870
 5597TIP3    H138350   4.408   3.956   7.356 -0.2116 -0.9992  0.5006
 5597TIP3    H238351   4.263   3.915   7.362 -0.8533  0.9832 -0.6271
 5598TIP3   OH238352   0.645   6.536   7.270 -0.2261 -0.1149 -0.0425
 5598TIP3    H138353   0.616   6.468   7.209 -1.3592  1.2128 -1.0469
 5598TIP3    H238354   0.596   6.517   7.351 -1.4665  0.1660 -0.6937
 5599TIP3   OH238355   3.980   6.764   7.435  0.7216  0.4986  0.1386
 5599TIP3    H138356   3.951   6.844   7.392 -0.8875 -0.3029 -0.3419
 5599TIP3    H238357   4.053   6.792   7.491  0.5922  2.1686 -0.4720
 5600TIP3   OH238358   2.048   6.674   6.607  0.4325 -0.4757 -0.0801
 5600TIP3    H138359   2.074   6.757   6.647  1.4176 -0.9000  0.2102
 5600TIP3    H238360   1.971   6.647   6.656 -0.7832  0.9546 -1.1310
 5601TIP3   OH238361   2.281   1.596   1.591  0.2610 -0.0503  0.2611
 5601TIP3    H138362   2.258   1.591   1.684  0.4037  1.1078  0.3651
 5601TIP3    H238363   2.361   1.649   1.589 -0.8198  1.6220 -0.6759
 5602TIP3   OH238364   2.096   3.778   0.645  0.2030  1.0766  0.1707
 5602TIP3    H138365   2.042   3.774   0.724  1.2435  1.9171  0.9488
 5602TIP3    H238366   2.073   3.698   0.598 -3.7296  2.5811 -0.9323
 5603TIP3   OH238367   2.887   6.181   7.092  0.5410 -0.1945  0.3002
 5603TIP3    H138368   2.823   6.199   7.024 -0.7935  1.0372  1.8035
 5603TIP3    H238369   2.967   6.224   7.061  1.3743 -3.3247 -2.5064
 5604TIP3   OH238370   3.511   5.292   1.483  0.2247  0.3885  0.2492
 5604TIP3    H138371   3.587   5.247   1.447  0.6940  1.6536 -0.4092
 5604TIP3    H238372   3.527   5.295   1.578  0.1031 -0.9198  0.3326
 5605TIP3   OH238373   5.545   2.735   6.606 -0.0603 -0.0032 -0.0773
 5605TIP3    H138374   5.485   2.797   6.565 -1.8166 -1.4821  0.1505
 5605TIP3    H238375   5.630   2.755   6.567  0.0131  4.0601  1.6455
 5606TIP3   OH238376   5.240   1.162   1.257  0.4144  0.4253 -0.2440
 5606TIP3    H138377   5.153   1.192   1.282 -0.0685 -0.6621 -0.5571
 5606TIP3    H238378   5.225   1.103   1.183  1.3957  0.0256 -0.1464
 5607TIP3   OH238379   3.562   1.588   2.524 -0.0879 -0.0963 -0.2827
 5607TIP3    H138380   3.646   1.566   2.566 -0.3962  2.5041  1.9583
 5607TIP3    H238381   3.499   1.588   2.595 -1.3843  1.0189 -1.3795
 5608TIP3   OH238382   5.552   3.322   0.988  0.2780  0.5803  0.7022
 5608TIP3    H138383   5.642   3.292   0.995  0.3097  0.1547 -1.1016
 5608TIP3    H238384   5.534   3.324   0.894 -2.4951 -2.0861  1.0164
 5609TIP3   OH238385   3.714   2.377   7.826  0.2572 -0.9697 -0.1243
 5609TIP3    H138386   3.678   2.421   7.749  1.2406  3.1528  1.5396
 5609TIP3    H238387   3.703   2.440   7.897  0.9454 -3.8916  2.8097
 5610TIP3   OH238388   2.497   1.291   1.592  0.1362 -0.5728  0.2655
 5610TIP3    H138389   2.447   1.298   1.673 -1.0785  1.8955 -0.5753
 5610TIP3    H238390   2.586   1.318   1.616 -0.3653  0.7995  0.7137
 5611TIP3   OH238391   3.722   6.396   0.213 -0.5139 -0.7711 -0.5129
 5611TIP3    H138392   3.742   6.376   0.305  0.4831 -0.2658 -0.6014
 5611TIP3    H238393   3.791   6.352   0.164  1.1787  1.9222 -0.7712
 5612TIP3   OH238394   0.046   1.837   6.754 -0.2629 -0.0541  0.0614
 5612TIP3    H138395  -0.001   1.850   6.672  1.8859 -1.9962 -1.6103
 5612TIP3    H238396  -0.009   1.776   6.803 -0.9542  0.0744 -0.5392
 5613TIP3   OH238397   0.247   0.035   0.870 -0.2991 -0.4779  0.2734
 5613TIP3    H138398   0.246   0.108   0.931 -2.5226 -0.3899  0.1916
 5613TIP3    H238399   0.283   0.071   0.789 -1.4639  0.5841  0.1997
 5614TIP3   OH238400   6.091   0.284   1.569  0.3710  0.7738  0.5809
 5614TIP3    H138401   6.038   0.362   1.550  0.7783  0.6317 -1.2276
 5614TIP3    H238402   6.026   0.215   1.585 -0.0133  0.8705 -0.4767
 5615TIP3   OH238403   0.621   1.508   1.479  0.1490  0.1797 -0.1316
 5615TIP3    H138404   0.608   1.511   1.384 -2.7667 -2.0484  0.0340
 5615TIP3    H238405   0.533   1.522   1.515  1.2829  1.6923  2.3466
 5616TIP3   OH238406   0.608   4.328   8.466  0.4152 -0.1495 -0.2731
 5616TIP3    H138407   0.698   4.335   8.434  0.5505 -0.9958 -0.0891
 5616TIP3    H238408   0.568   4.413   8.444  0.7176 -0.4142 -1.9883
 5617TIP3   OH238409   1.133   2.082   8.084  0.4351  0.0093  0.2276
 5617TIP3    H138410   1.041   2.054   8.081 -0.3619  2.2687  1.5704
 5617TIP3    H238411   1.134   2.167   8.040  1.8823  0.0692  0.3255
 5618TIP3   OH238412   3.367   1.118   6.517  0.5762  0.4569  0.0949
 5618TIP3    H138413   3.332   1.108   6.428 -1.4882 -0.2265  0.9328
 5618TIP3    H238414   3.400   1.207   6.519  0.0669  0.7037 -1.1779
 5619TIP3   OH238415   6.311   4.006   8.307  0.2963  0.3337  0.1666
 5619TIP3    H138416   6.265   4.041   8.231 -0.5524 -0.3313  0.3609
 5619TIP3    H238417   6.384   3.957   8.269 -1.1151 -1.4819 -0.3627
 5620TIP3   OH238418   6.218   2.040   7.792  0.0692 -0.2468 -0.3120
 5620TIP3    H138419   6.142   2.055   7.847  0.2846 -1.8381  0.4575
 5620TIP3    H238420   6.280   1.994   7.848  2.2802  2.3085 -0.4226
 5621TIP3   OH238421   3.385   4.307   0.106 -0.2073  0.1931 -0.3520
 5621TIP3    H138422   3.386   4.211   0.102 -1.4431  0.1248  0.5186
 5621TIP3    H238423   3.294   4.329   0.125  0.0530  1.5525 -0.5838
 5622TIP3   OH238424   2.293   2.742   8.406 -0.3458  0.2697  0.1528
 5622TIP3    H138425   2.373   2.784   8.437 -0.7537  2.3575 -1.3387
 5622TIP3    H238426   2.261   2.801   8.337 -1.6002 -2.0270 -1.3353
 5623TIP3   OH238427   5.725   5.566   7.298 -0.8219  0.1698  1.2168
 5623TIP3    H138428   5.710   5.474   7.318  0.6806 -0.4788 -0.4269
 5623TIP3    H238429   5.684   5.579   7.213  1.0390  0.3444  0.2988
 5624TIP3   OH238430   4.498   0.052   7.870 -0.1952  0.1411  0.2442
 5624TIP3    H138431   4.541  -0.005   7.935 -1.0749 -2.6180 -1.4065
 5624TIP3    H238432   4.424   0.090   7.917  0.1078 -0.4906  1.2883
 5625TIP3   OH238433   1.922   5.503   8.694 -0.3814 -0.5326  0.8337
 5625TIP3    H138434   2.015   5.485   8.689  0.0333  1.0006  2.0136
 5625TIP3    H238435   1.912   5.555   8.775 -1.8842  1.2663 -0.4099
 5626TIP3   OH238436   1.662   1.340   1.015  0.1620 -0.4357  0.3742
 5626TIP3    H138437   1.707   1.339   0.931  0.4966  0.2403  0.5343
 5626TIP3    H238438   1.582   1.289   1.001 -0.1007  0.1996 -0.5375
 5627TIP3   OH238439   1.008   0.050   0.209 -0.3863  0.1850 -0.1964
 5627TIP3    H138440   0.998   0.028   0.116 -1.9301  0.2575 -0.0794
 5627TIP3    H238441   1.086   0.003   0.237  0.8804  1.1938 -1.8330
 5628TIP3   OH238442   2.790   3.746   1.471  0.3245  0.7933  0.4336
 5628TIP3    H138443   2.844   3.740   1.392  2.0490 -0.5006  1.6422
 5628TIP3    H238444   2.811   3.832   1.508 -2.2145  2.4334 -1.6032
 5629TIP3   OH238445   4.715   2.558   7.465  0.0751 -0.4439  0.0439
 5629TIP3    H138446   4.711   2.641   7.417 -0.0288  0.0204  0.8369
 5629TIP3    H238447   4.666   2.496   7.411  0.1897  0.0009 -0.5775
 5630TIP3   OH238448   2.561   6.264   7.752  0.2715 -0.1989 -0.3927
 5630TIP3    H138449   2.496   6.270   7.822 -0.0497 -0.1240 -0.6952
 5630TIP3    H238450   2.576   6.171   7.741 -0.4821 -0.2589 -0.9583
 5631TIP3   OH238451   3.205   4.567   7.224 -0.6905 -0.4298  0.9869
 5631TIP3    H138452   3.207   4.504   7.152  0.3715 -2.4127  2.6314
 5631TIP3    H238453   3.112   4.580   7.242 -1.1991  2.3697 -2.4417
 5632TIP3   OH238454   1.018   5.457   0.514  0.0626 -0.0090 -0.6295
 5632TIP3    H138455   0.944   5.468   0.455 -1.0578 -0.0899  0.6892
 5632TIP3    H238456   1.050   5.369   0.497  0.6614  0.4699 -2.0695
 5633TIP3   OH238457   6.434   4.595   1.556 -0.6075 -0.0634  0.1193
 5633TIP3    H138458   6.407   4.643   1.635 -0.2308 -0.1084  0.2773
 5633TIP3    H238459   6.351   4.567   1.516 -0.8083  0.0994  0.4100
 5634TIP3   OH238460   2.930   0.019   0.175 -0.3142  0.2410 -0.0628
 5634TIP3    H138461   2.886   0.103   0.157 -0.1751  0.5507  0.9521
 5634TIP3    H238462   2.878  -0.020   0.246  0.8723  0.4995  0.9856
 5635TIP3   OH238463   4.205   0.927   0.185 -0.0300 -0.4770 -0.3210
 5635TIP3    H138464   4.202   0.996   0.252 -2.1911 -0.5667 -0.2597
 5635TIP3    H238465   4.152   0.962   0.113  0.6958 -1.1805 -1.2199
 5636TIP3   OH238466   3.483   0.933   0.078 -0.1980  0.4367  0.0054
 5636TIP3    H138467   3.553   0.911   0.016 -1.5406  0.7250 -1.6958
 5636TIP3    H238468   3.494   1.026   0.094  1.0845  0.0789  1.4890
 5637TIP3   OH238469   4.403   2.290   0.146 -0.4283 -0.4999 -0.4073
 5637TIP3    H138470   4.356   2.215   0.111 -0.7956  0.6426 -2.4668
 5637TIP3    H238471   4.440   2.333   0.070 -0.5829  1.6602  0.6744
 5638TIP3   OH238472   2.995   6.376   8.124  0.1665  0.4667 -0.2034
 5638TIP3    H138473   3.049   6.314   8.075 -1.6170 -1.8450  0.5503
 5638TIP3    H238474   3.029   6.374   8.213 -0.7688 -0.6260  0.1603
 5639TIP3   OH238475   3.943   0.960   8.585 -0.2577 -0.1443 -0.2433
 5639TIP3    H138476   3.959   1.012   8.664 -1.6060 -0.6235  0.3858
 5639TIP3    H238477   3.937   0.870   8.616 -0.6503 -0.3557 -0.9101
 5640TIP3   OH238478   4.552   6.662   8.086 -0.0170 -0.2977  0.1011
 5640TIP3    H138479   4.631   6.612   8.109  1.5456  1.8658 -0.2147
 5640TIP3    H238480   4.489   6.640   8.154  1.0304 -1.7195  0.6611
 5641TIP3   OH238481   5.198   5.340   1.188 -0.8241 -0.8035 -0.4124
 5641TIP3    H138482   5.283   5.322   1.147  0.1671  1.2114  0.5950
 5641TIP3    H238483   5.221   5.370   1.276 -2.7081 -1.9166  0.5159
 5642TIP3   OH238484   5.308   1.179   8.060  0.1332 -0.2193 -0.3840
 5642TIP3    H138485   5.240   1.226   8.011  0.7764  1.5388  0.3536
 5642TIP3    H238486   5.390   1.213   8.026  0.6651 -1.7138 -0.6638
 5643TIP3   OH238487   5.641   0.844   8.430  0.1365 -0.6288 -0.1380
 5643TIP3    H138488   5.669   0.753   8.439 -1.8467 -1.0665  2.7316
 5643TIP3    H238489   5.564   0.840   8.373 -0.2551 -0.8092  0.4070
 5644TIP3   OH238490   1.289   2.095   1.350  0.3370  0.1484 -0.7692
 5644TIP3    H138491   1.354   2.049   1.404  0.1439  1.8395  1.0174
 5644TIP3    H238492   1.330   2.179   1.330 -1.0104  0.9530 -0.2335
 5645TIP3   OH238493   4.257   6.070   8.586  0.1772  0.0611 -0.3345
 5645TIP3    H138494   4.335   6.016   8.602 -0.3472 -1.5369 -2.6417
 5645TIP3    H238495   4.233   6.104   8.672  1.6207 -1.9272  0.9377
 5646TIP3   OH238496   6.740   5.975   7.368  0.1631  0.0838  0.2527
 5646TIP3    H138497   6.678   5.938   7.305  0.0710  0.4430  0.1303
 5646TIP3    H238498   6.688   5.996   7.445  0.7253 -2.9813  1.5823
 5647TIP3   OH238499   1.597   3.890   8.448  0.0574 -0.6004 -0.2341
 5647TIP3    H138500   1.529   3.951   8.478  0.5221 -0.3059  0.2154
 5647TIP3    H238501   1.620   3.923   8.361 -0.4349 -0.7550 -0.4300
 5648TIP3   OH238502   1.420   2.954   0.012  1.1949 -0.9045  0.0153
 5648TIP3    H138503   1.391   3.045   0.019  0.6557 -1.0304 -0.4227
 5648TIP3    H238504   1.357   2.905   0.064  0.8866 -1.1314 -0.5584
 5649TIP3   OH238505   1.406   1.118   7.262  0.0344 -0.4307 -0.1611
 5649TIP3    H138506   1.356   1.191   7.226  1.8781 -0.3593 -2.9285
 5649TIP3    H238507   1.350   1.042   7.251 -0.3597 -0.0199 -1.0819
 5650TIP3   OH238508   5.260   0.236   7.368  0.1006 -0.5518 -0.1693
 5650TIP3    H138509   5.273   0.141   7.377 -0.6062 -0.6212  0.2071
 5650TIP3    H238510   5.213   0.246   7.285  2.3108 -0.3126 -1.4589
 5651TIP3   OH238511   2.035   1.324   8.033  0.4732 -0.4550 -0.6358
 5651TIP3    H138512   2.069   1.289   8.116  0.0848 -1.9078 -1.0468
 5651TIP3    H238513   2.071   1.264   7.967 -2.2753 -1.6664 -1.1577
 5652TIP3   OH238514   4.247   2.911   7.937  0.2933  0.5115  0.3679
 5652TIP3    H138515   4.288   2.996   7.957  0.5988  0.9195 -1.7391
 5652TIP3    H238516   4.318   2.848   7.946  0.6919  0.8308 -0.4001
 5653TIP3   OH238517   0.189   6.599   2.751 -0.3133 -0.1452  0.0322
 5653TIP3    H138518   0.201   6.652   2.829 -0.3891 -2.3809  1.6506
 5653TIP3    H238519   0.277   6.593   2.713 -0.7834  4.0900 -2.4202
 5654TIP3   OH238520   5.909   0.623   8.222 -0.4487  0.0640  0.1673
 5654TIP3    H138521   5.959   0.573   8.287 -1.1480 -0.8475  0.0330
 5654TIP3    H238522   5.970   0.689   8.190  1.0511 -1.7215 -0.8312
 5655TIP3   OH238523   3.702   2.166   7.534 -0.3989  0.7577  0.1209
 5655TIP3    H138524   3.767   2.210   7.480 -0.3705  0.0192 -0.4604
 5655TIP3    H238525   3.626   2.225   7.533 -0.8251  0.2287 -1.6959
 5656TIP3   OH238526   5.918   2.523   1.995 -0.0557  0.1473 -0.2968
 5656TIP3    H138527   5.843   2.486   2.040  0.7994  0.2005  1.2387
 5656TIP3    H238528   5.970   2.447   1.968  0.6327  0.1439  0.9727
 5657TIP3   OH238529   0.550   5.913   1.192 -0.2940  0.2986  0.1615
 5657TIP3    H138530   0.588   5.871   1.268  0.7660  1.0881  0.0990
 5657TIP3    H238531   0.468   5.867   1.176  1.3200 -2.5440 -0.6264
 5658TIP3   OH238532   1.605   4.557   7.697  0.2000  0.0185 -0.0813
 5658TIP3    H138533   1.699   4.547   7.713  0.2706  0.6696 -0.0704
 5658TIP3    H238534   1.598   4.575   7.603  0.1157  0.3523 -0.0105
 5659TIP3   OH238535   3.209   4.645   8.439  0.0723 -0.0694  0.3135
 5659TIP3    H138536   3.291   4.609   8.405 -0.4948 -0.3959 -0.7444
 5659TIP3    H238537   3.231   4.675   8.527  1.1025 -1.0110  0.4048
 5660TIP3   OH238538   1.051   1.523   6.810 -0.0193  0.0731  0.1229
 5660TIP3    H138539   0.982   1.462   6.783  1.0433 -0.9731 -0.2962
 5660TIP3    H238540   1.053   1.589   6.740  1.9286 -1.9822 -1.9252
 5661TIP3   OH238541   5.614   5.729   1.344 -0.5178  0.3765  0.5232
 5661TIP3    H138542   5.591   5.637   1.331 -2.4421  1.0551 -1.5111
 5661TIP3    H238543   5.695   5.741   1.295  0.2173 -0.3888  1.5117
 5662TIP3   OH238544   2.171   4.597   0.277  0.2671  0.2952 -0.0798
 5662TIP3    H138545   2.090   4.564   0.315  0.4593 -2.6764 -1.9346
 5662TIP3    H238546   2.143   4.659   0.210 -0.4349 -0.0465 -0.1083
 5663TIP3   OH238547   5.865   2.156   8.677 -0.7498  0.2201 -0.7261
 5663TIP3    H138548   5.824   2.136   8.593 -1.3652  1.2992 -0.6963
 5663TIP3    H238549   5.919   2.233   8.661 -1.4013  0.8504  0.0029
 5664TIP3   OH238550   5.770   1.267   0.525 -0.8955  0.7144  0.0626
 5664TIP3    H138551   5.846   1.267   0.583 -1.4799  0.6024  0.8426
 5664TIP3    H238552   5.718   1.193   0.555  0.1445 -1.1959 -2.4263
 5665TIP3   OH238553   0.087   2.724   0.934 -0.6741 -0.1955  0.2030
 5665TIP3    H138554   0.132   2.759   0.857  1.5786  1.2921  2.0603
 5665TIP3    H238555   0.117   2.633   0.940 -0.8816 -0.3324 -0.6537
 5666TIP3   OH238556   4.582   5.989   1.540  0.4258 -0.3139 -0.5649
 5666TIP3    H138557   4.604   6.075   1.574  0.5877 -0.3708 -0.5224
 5666TIP3    H238558   4.635   5.980   1.461 -0.6759  0.2157 -1.3980
 5667TIP3   OH238559   3.363   4.603   0.092  0.5642  0.7881 -0.0346
 5667TIP3    H138560   3.390   4.623   0.181  1.7368 -0.7596  0.0009
 5667TIP3    H238561   3.395   4.514   0.076 -0.1806  0.7816 -1.7760
 5668TIP3   OH238562   0.878   6.521   7.550  0.6217 -0.0912  0.2077
 5668TIP3    H138563   0.799   6.476   7.579 -0.3093  1.4357  0.1849
 5668TIP3    H238564   0.935   6.452   7.517  0.0718 -1.4303  1.9452
 5669TIP3   OH238565   6.404   6.606   8.352  0.0490 -0.1570  0.1225
 5669TIP3    H138566   6.344   6.532   8.342  1.1527 -1.2628  1.2935
 5669TIP3    H238567   6.355   6.681   8.319 -2.2497 -0.8909  1.5900
 5670TIP3   OH238568   4.099   3.221   0.730 -0.7201  0.2419  0.1455
 5670TIP3    H138569   4.115   3.315   0.732 -0.7641  0.2564 -0.2451
 5670TIP3    H238570   4.008   3.212   0.760 -0.5606  0.2822  0.6671
 5671TIP3   OH238571   5.635   2.398   7.548  0.1459 -0.1098 -0.4883
 5671TIP3    H138572   5.719   2.442   7.547 -0.4149  1.0270 -1.6826
 5671TIP3    H238573   5.613   2.387   7.455 -0.6410 -1.1499 -0.2015
 5672TIP3   OH238574   2.335   2.319   8.343 -0.1272 -0.1707  0.3837
 5672TIP3    H138575   2.390   2.397   8.332  0.7795 -0.8777 -0.3027
 5672TIP3    H238576   2.313   2.292   8.253 -0.2298 -0.8377  0.6029
 5673TIP3   OH238577   0.309   3.071   6.420  0.0722  0.1994 -0.0929
 5673TIP3    H138578   0.227   3.120   6.411  0.4673  0.8295 -0.3670
 5673TIP3    H238579   0.322   3.065   6.515 -0.6617 -0.5597 -0.0268
 5674TIP3   OH238580   2.274   0.010   7.519  0.0752  0.0412  0.8674
 5674TIP3    H138581   2.345  -0.032   7.470  0.0764 -0.5747  1.3886
 5674TIP3    H238582   2.203  -0.054   7.517  0.6760 -0.7883  3.1785
 5675TIP3   OH238583   1.838   5.701   1.172  0.2882  0.0852 -0.1928
 5675TIP3    H138584   1.840   5.774   1.110  0.0626  0.4357  0.2042
 5675TIP3    H238585   1.804   5.627   1.121  1.8898 -0.1333 -0.9906
 5676TIP3   OH238586   2.010   0.988   8.037 -0.1281 -0.4177  0.1144
 5676TIP3    H138587   2.056   0.960   7.958  2.6550  3.9897 -0.1249
 5676TIP3    H238588   2.070   0.968   8.109 -0.1739  0.5314  0.4312
 5677TIP3   OH238589   3.817   4.279   1.590  0.0916  0.0084 -0.0814
 5677TIP3    H138590   3.824   4.242   1.678  2.4080 -0.6188 -0.4585
 5677TIP3    H238591   3.798   4.204   1.534 -0.8275  0.3238 -0.2098
 5678TIP3   OH238592   6.085   6.199   0.088  0.2422 -0.1474  0.1250
 5678TIP3    H138593   6.119   6.288   0.091  0.2213 -0.1240 -0.2928
 5678TIP3    H238594   5.994   6.208   0.059 -0.5639 -0.0932  2.4403
 5679TIP3   OH238595   6.497   3.150   8.465 -0.5741 -0.6389 -0.0959
 5679TIP3    H138596   6.446   3.135   8.545 -0.7381 -0.0036 -0.0758
 5679TIP3    H238597   6.490   3.068   8.416  0.1945 -1.3259  0.9069
 5680TIP3   OH238598   1.435   2.672   8.286  0.7279  0.3203 -0.1976
 5680TIP3    H138599   1.428   2.767   8.291  3.1229  0.4935  1.7375
 5680TIP3    H238600   1.503   2.657   8.219 -0.0240 -0.0906 -0.8894
 5681TIP3   OH238601   0.427   2.521   7.653 -0.8302  0.6570 -0.3864
 5681TIP3    H138602   0.347   2.556   7.612 -2.7468 -2.8738 -0.0915
 5681TIP3    H238603   0.453   2.450   7.595  0.4838 -0.0107  0.9760
 5682TIP3   OH238604   4.823   5.110   0.311  0.2194 -0.0920  0.2887
 5682TIP3    H138605   4.853   5.029   0.352  0.0484  0.8884  2.5078
 5682TIP3    H238606   4.727   5.104   0.313  0.1918  0.3920  1.0370
 5683TIP3   OH238607   0.279   5.637   7.534  0.0332  0.2052 -0.0928
 5683TIP3    H138608   0.205   5.582   7.560  0.8349 -1.5382 -1.2939
 5683TIP3    H238609   0.242   5.699   7.471 -0.9095  1.1862  1.3570
 5684TIP3   OH238610   6.717   5.140   7.931 -0.2145  0.2962 -0.4952
 5684TIP3    H138611   6.794   5.087   7.951  0.0009  0.4561 -0.8918
 5684TIP3    H238612   6.664   5.085   7.873 -0.2297  0.3234 -0.5073
 5685TIP3   OH238613   5.395   0.875   8.804 -0.2630 -0.4232  0.0892
 5685TIP3    H138614   5.452   0.911   8.736  1.6390 -0.3721  1.6066
 5685TIP3    H238615   5.400   0.780   8.792 -0.5458 -0.3908 -0.2982
 5686TIP3   OH238616   3.217   0.487   7.955  0.3377  0.1739 -1.0267
 5686TIP3    H138617   3.263   0.473   8.038 -1.1209  0.2589 -0.1650
 5686TIP3    H238618   3.203   0.399   7.920  0.1832  0.0841 -0.7421
 5687TIP3   OH238619   0.954   4.731   1.117  0.5060 -0.2286  0.1850
 5687TIP3    H138620   1.018   4.797   1.144  0.0883 -0.8215  2.8370
 5687TIP3    H238621   0.936   4.681   1.196 -3.1051 -0.2303 -0.4881
 5688TIP3   OH238622   3.160   0.116   0.757 -0.4387 -0.2544  0.5226
 5688TIP3    H138623   3.135   0.035   0.712  0.4978  0.7729 -1.9997
 5688TIP3    H238624   3.226   0.088   0.821  0.8393 -1.3810 -1.1843
 5689TIP3   OH238625   5.771   5.522   7.709  0.1931  0.4504  0.4175
 5689TIP3    H138626   5.705   5.518   7.778  0.6351 -0.3202  0.8098
 5689TIP3    H238627   5.817   5.605   7.725 -0.2507  0.6794  0.5289
 5690TIP3   OH238628   6.320   2.047   6.727  0.3447  0.1659 -0.7178
 5690TIP3    H138629   6.301   1.988   6.655  0.4757  0.4876 -1.0206
 5690TIP3    H238630   6.237   2.090   6.746  0.2897  0.0139 -0.6156
 5691TIP3   OH238631   0.087   2.653   0.450  0.0312 -0.3340  0.1950
 5691TIP3    H138632   0.094   2.741   0.488 -1.2819 -0.1042 -0.0634
 5691TIP3    H238633   0.142   2.599   0.506  0.5703  0.5815  0.5776
 5692TIP3   OH238634   4.465   0.526   7.406  0.2075 -0.1579  0.0658
 5692TIP3    H138635   4.543   0.576   7.380  1.4906 -1.5068  1.1168
 5692TIP3    H238636   4.485   0.496   7.495 -1.6301 -0.3624  0.4360
 5693TIP3   OH238637   0.251   3.189   2.249  0.5682 -0.2444 -0.3245
 5693TIP3    H138638   0.181   3.127   2.269 -1.1529  1.5342 -0.4860
 5693TIP3    H238639   0.262   3.239   2.330  0.8696  0.2031 -0.6343
 5694TIP3   OH238640   2.326   0.438   2.418  0.6412  0.2840 -0.0408
 5694TIP3    H138641   2.369   0.406   2.339 -1.4246  0.3224 -1.2241
 5694TIP3    H238642   2.325   0.533   2.408 -1.2316  0.2087 -0.8931
 5695TIP3   OH238643   4.759   5.352   7.283 -0.4021 -0.0304  0.9100
 5695TIP3    H138644   4.731   5.426   7.229 -0.7890  0.3698  1.6517
 5695TIP3    H238645   4.806   5.393   7.356  0.5966 -0.5982  0.5963
 5696TIP3   OH238646   1.029   0.963   0.550 -0.2404  0.3389  0.4028
 5696TIP3    H138647   0.955   0.951   0.491  0.8122 -0.2934 -0.8423
 5696TIP3    H238648   1.080   1.034   0.511 -0.5797  1.3252  1.6833
 5697TIP3   OH238649   2.399   4.569   0.793 -0.6345 -0.0137  0.0752
 5697TIP3    H138650   2.366   4.552   0.881 -1.2170 -0.2338 -0.1805
 5697TIP3    H238651   2.322   4.560   0.737 -0.3103  0.3376 -0.4311
 5698TIP3   OH238652   3.249   1.352   8.408 -0.2068  0.6524  0.4547
 5698TIP3    H138653   3.246   1.444   8.434  0.0451  0.4071  1.4079
 5698TIP3    H238654   3.333   1.343   8.362  0.0461  0.7773  0.8816
 5699TIP3   OH238655   6.436   6.478   2.693  1.0046  0.3218 -0.0464
 5699TIP3    H138656   6.443   6.436   2.607  1.6399  1.2011 -0.4468
 5699TIP3    H238657   6.422   6.406   2.754 -1.5237 -0.1802 -1.0941
 5700TIP3   OH238658   1.510   6.218   7.511  0.0813 -0.4067  0.3852
 5700TIP3    H138659   1.501   6.210   7.416 -1.0466 -0.7047  0.5039
 5700TIP3    H238660   1.586   6.164   7.533  0.1138 -0.6412 -0.2987
 5701TIP3   OH238661   6.126   6.477   7.759  0.1719 -0.5816  1.6179
 5701TIP3    H138662   6.174   6.396   7.775 -0.7829 -1.3525  0.7361
 5701TIP3    H238663   6.105   6.474   7.666  3.5369  2.6035  0.5289
 5702TIP3   OH238664   0.368   0.822   1.283 -0.2592  0.0839 -0.1585
 5702TIP3    H138665   0.332   0.817   1.194 -0.9318 -0.1167  0.1163
 5702TIP3    H238666   0.393   0.914   1.294  1.2405 -0.1849 -1.0811
 5703TIP3   OH238667   2.903   5.244   8.187  0.6013 -0.7992 -0.4945
 5703TIP3    H138668   2.879   5.336   8.197 -0.0286 -0.9209 -0.8143
 5703TIP3    H238669   2.860   5.199   8.260  1.1360 -0.8088 -0.1769
 5704TIP3   OH238670   5.055   4.529   8.517  0.1852 -0.2951  0.5514
 5704TIP3    H138671   4.969   4.490   8.531 -0.2672  0.0562 -1.0281
 5704TIP3    H238672   5.041   4.623   8.529  1.1093 -0.4646  3.6119
 5705TIP3   OH238673   3.889   3.320   1.589  0.5252 -0.4044  0.4582
 5705TIP3    H138674   3.860   3.302   1.499 -0.8737 -0.7485  0.9457
 5705TIP3    H238675   3.921   3.236   1.621  0.9589 -0.2977  0.3098
 5706TIP3   OH238676   0.220   3.292   7.533  0.4247  0.6550 -0.0397
 5706TIP3    H138677   0.293   3.284   7.472  0.2971 -1.6531  0.0248
 5706TIP3    H238678   0.151   3.237   7.495  0.6324 -1.5787  2.5324
 5707TIP3   OH238679   3.533   5.352   7.178  0.0633 -0.5650  0.4058
 5707TIP3    H138680   3.490   5.317   7.257 -0.6671 -0.2807  0.1435
 5707TIP3    H238681   3.468   5.410   7.140  1.7085  2.2209  1.5769
 5708TIP3   OH238682   4.715   0.834   0.388  0.5284 -0.6456  0.2398
 5708TIP3    H138683   4.620   0.826   0.383  0.5746 -0.4587 -1.5602
 5708TIP3    H238684   4.749   0.763   0.333  1.2359  2.2722 -3.5465
 5709TIP3   OH238685   0.385   5.157   1.514  0.1855  0.2425  0.4938
 5709TIP3    H138686   0.469   5.112   1.507  0.2743  0.6485 -2.8591
 5709TIP3    H238687   0.350   5.130   1.599  1.7780 -3.3562  0.1965
 5710TIP3   OH238688   2.983   4.992   8.823  0.1022  0.1939 -0.2668
 5710TIP3    H138689   3.010   4.928   8.758  1.6306  0.3670  0.1593
 5710TIP3    H238690   2.897   5.021   8.794  1.2206  1.1568 -2.8673
 5711TIP3   OH238691   5.153   1.536   8.375  0.2393  0.0047  0.1436
 5711TIP3    H138692   5.176   1.623   8.406 -0.9228  0.5542 -0.4793
 5711TIP3    H238693   5.106   1.551   8.293  0.5654 -1.2452 -0.3003
 5712TIP3   OH238694   1.804   1.017   7.332 -0.0510  0.0350  0.7062
 5712TIP3    H138695   1.788   0.927   7.363  0.5857 -0.8394 -1.3137
 5712TIP3    H238696   1.877   1.008   7.270 -0.7450  1.7394 -0.4361
 5713TIP3   OH238697   2.733   3.214   7.469  0.0476 -0.4458 -0.4619
 5713TIP3    H138698   2.762   3.213   7.378  1.7316 -0.9637  0.0512
 5713TIP3    H238699   2.791   3.153   7.514  0.1351  0.7832  1.2078
 5714TIP3   OH238700   6.096   0.734   6.404  0.6219 -0.2659  0.0802
 5714TIP3    H138701   6.154   0.745   6.479  0.7656  0.8929 -0.1860
 5714TIP3    H238702   6.072   0.823   6.378  0.8027 -0.6169 -1.4254
 5715TIP3   OH238703   2.538   4.979   1.253 -0.1920 -0.2888  0.4058
 5715TIP3    H138704   2.633   4.967   1.263 -0.2645 -0.8304  0.4323
 5715TIP3    H238705   2.515   4.927   1.176 -0.0233  1.9907 -1.3217
 5716TIP3   OH238706   2.742   0.710   1.396 -0.6415  0.1918  0.0438
 5716TIP3    H138707   2.662   0.702   1.449 -0.1232  0.2359  0.8522
 5716TIP3    H238708   2.795   0.773   1.443 -1.4966  2.8098 -2.2545
 5717TIP3   OH238709   4.989   5.310   7.478 -0.1194 -0.3544 -0.0177
 5717TIP3    H138710   4.987   5.380   7.414 -0.8397  0.1272  0.5119
 5717TIP3    H238711   5.082   5.286   7.485 -0.0734 -0.7025 -1.5165
 5718TIP3   OH238712   1.987   1.596   1.115 -0.3440 -0.2683  0.2401
 5718TIP3    H138713   2.078   1.575   1.096 -0.6944 -1.7364  0.0240
 5718TIP3    H238714   1.991   1.670   1.175  0.9209  1.1369 -1.4718
 5719TIP3   OH238715   4.900   4.882   7.991 -0.2052 -0.5652  0.3108
 5719TIP3    H138716   4.953   4.958   8.017 -0.2343 -0.4118 -0.0673
 5719TIP3    H238717   4.811   4.916   7.987  0.0678  0.0542 -2.3013
 5720TIP3   OH238718   5.294   4.077   2.380  0.6085 -0.1113  0.0565
 5720TIP3    H138719   5.366   4.098   2.321  0.9135  1.5619  0.9443
 5720TIP3    H238720   5.329   4.096   2.467 -0.4786 -0.5803  0.6121
 5721TIP3   OH238721   5.741   2.072   8.439 -0.1247 -0.0855  0.2627
 5721TIP3    H138722   5.761   1.979   8.429 -2.2266 -0.4524 -1.2332
 5721TIP3    H238723   5.723   2.102   8.350  2.1420  2.2206  0.4733
 5722TIP3   OH238724   1.678   6.470   0.993 -0.6224  0.4032 -0.0357
 5722TIP3    H138725   1.711   6.538   0.934  0.5653  2.3218  2.6469
 5722TIP3    H238726   1.595   6.506   1.026  0.1466  0.7453  1.6046
 5723TIP3   OH238727   0.260   2.919   0.226 -0.1172 -0.2225  0.1112
 5723TIP3    H138728   0.288   2.828   0.239 -0.0300 -0.4976 -1.7988
 5723TIP3    H238729   0.234   2.923   0.134 -1.9177  1.2333  0.6414
 5724TIP3   OH238730   2.172   2.625   0.333 -0.7650 -0.0920 -0.0953
 5724TIP3    H138731   2.257   2.606   0.371 -0.8004  3.1758  2.0384
 5724TIP3    H238732   2.113   2.560   0.371  0.1782 -0.1655  1.3176
 5725TIP3   OH238733   5.094   2.116   8.477 -0.2706  0.9133  0.2539
 5725TIP3    H138734   5.155   2.188   8.460  0.1641  0.4204 -0.3590
 5725TIP3    H238735   5.141   2.060   8.540 -0.2744  0.7636  0.1240
 5726TIP3   OH238736   0.437   4.845   7.362  0.4029  0.4786 -0.3179
 5726TIP3    H138737   0.496   4.770   7.363 -1.1793 -0.8291 -1.0976
 5726TIP3    H238738   0.466   4.897   7.287  0.3523 -0.3359 -0.9179
 5727TIP3   OH238739   1.762   1.177   7.530 -0.0102 -0.4162 -0.4479
 5727TIP3    H138740   1.746   1.115   7.601  0.8904  0.2095  0.3298
 5727TIP3    H238741   1.790   1.123   7.457  2.1235 -0.8629  0.6196
 5728TIP3   OH238742   1.721   4.550   7.384 -0.6935  0.2620 -0.0002
 5728TIP3    H138743   1.736   4.610   7.311  2.9790  0.7050  0.9080
 5728TIP3    H238744   1.808   4.513   7.403 -1.9780 -1.7992  2.4809
 5729TIP3   OH238745   4.113   5.574   8.205  0.4478 -0.1393  0.4642
 5729TIP3    H138746   4.081   5.599   8.118  0.2706 -1.4076  0.1462
 5729TIP3    H238747   4.048   5.512   8.238  1.1848 -0.6895  0.9283
 5730TIP3   OH238748   0.753   2.899   6.644 -0.9249  0.3526 -0.0459
 5730TIP3    H138749   0.690   2.856   6.586 -0.6750  2.4996 -2.0288
 5730TIP3    H238750   0.835   2.851   6.631 -0.2593  2.0894 -3.3372
 5731TIP3   OH238751   6.599   2.489   7.488 -0.1276  0.1884  0.2078
 5731TIP3    H138752   6.665   2.530   7.433  0.0341  0.1981  0.4058
 5731TIP3    H238753   6.540   2.560   7.513 -0.1465  0.2014  0.1250
 5732TIP3   OH238754   5.869   6.538   2.584 -0.0432 -0.3772 -0.2057
 5732TIP3    H138755   5.890   6.451   2.617 -1.7561 -0.7767 -0.0912
 5732TIP3    H238756   5.787   6.527   2.536 -0.1459  1.1211 -0.4357
 5733TIP3   OH238757   6.010   1.186   0.667 -0.3672  0.0038  0.0247
 5733TIP3    H138758   6.028   1.271   0.709  0.3892 -0.4626  0.6671
 5733TIP3    H238759   6.075   1.180   0.597  0.9627 -0.9499  1.2987
 5734TIP3   OH238760   3.921   4.892   8.591 -0.0657  0.2674 -0.6385
 5734TIP3    H138761   4.000   4.940   8.567  0.1450 -0.5721 -1.6913
 5734TIP3    H238762   3.862   4.904   8.516 -0.0655 -0.9629 -0.8584
 5735TIP3   OH238763   0.067   0.164   7.277 -0.4840 -0.2636  0.4046
 5735TIP3    H138764  -0.003   0.134   7.336 -0.2202 -0.7103  0.4953
 5735TIP3    H238765   0.078   0.256   7.298  0.4413 -0.6811  1.9331
 5736TIP3   OH238766   2.991   5.446   2.464  0.6234  0.1990  0.3384
 5736TIP3    H138767   3.066   5.401   2.503 -0.9857 -1.0041  2.2370
 5736TIP3    H238768   2.995   5.535   2.500 -0.2883 -0.6180  2.7113
 5737TIP3   OH238769   5.606   1.330   8.655 -0.2947 -0.0630  0.1439
 5737TIP3    H138770   5.588   1.239   8.680 -2.9930  0.7146  1.4075
 5737TIP3    H238771   5.536   1.352   8.594 -0.4324  1.5243  0.8260
 5738TIP3   OH238772   0.824   0.469   2.727  0.9844  0.1221  0.6211
 5738TIP3    H138773   0.732   0.461   2.751  0.7948 -1.5010 -0.4891
 5738TIP3    H238774   0.822   0.490   2.633  1.6768 -3.1767 -0.2574
 5739TIP3   OH238775   3.535   4.765   0.682 -0.0694 -0.5033 -0.3441
 5739TIP3    H138776   3.621   4.788   0.646 -0.3247 -0.5612 -0.9881
 5739TIP3    H238777   3.543   4.672   0.703  0.7151 -0.0580  1.5683
 5740TIP3   OH238778   0.317   1.370   1.369 -0.1152 -0.1910 -0.3512
 5740TIP3    H138779   0.352   1.281   1.365  1.5384  0.1422  2.7483
 5740TIP3    H238780   0.357   1.415   1.294  0.6541 -1.5628 -0.8034
 5741TIP3   OH238781   3.315   0.098   0.003  0.3524 -0.1800 -0.0899
 5741TIP3    H138782   3.309   0.034   0.074  2.6151  1.6428  1.9230
 5741TIP3    H238783   3.262   0.172   0.033 -0.0527 -0.0150 -1.1457
 5742TIP3   OH238784   1.741   3.044   1.572 -0.1972  0.1844  0.1148
 5742TIP3    H138785   1.836   3.043   1.577 -0.0368 -2.6892 -1.6145
 5742TIP3    H238786   1.712   3.033   1.663  0.9921  2.6151  0.8668
 5743TIP3   OH238787   3.218   6.119   6.881  0.3839  0.2949  0.3593
 5743TIP3    H138788   3.154   6.183   6.911 -0.4257 -1.5494  2.8932
 5743TIP3    H238789   3.302   6.150   6.915  0.4751  1.3795 -0.7859
 5744TIP3   OH238790   3.950   6.339   1.819 -0.2907  0.4174  0.0535
 5744TIP3    H138791   3.980   6.385   1.898 -0.2040  1.4026 -0.5276
 5744TIP3    H238792   4.031   6.309   1.778 -0.0909  2.2460 -1.0194
 5745TIP3   OH238793   2.333   6.266   0.520 -0.0728  0.4933 -0.3213
 5745TIP3    H138794   2.276   6.189   0.510  1.5538 -0.7770 -0.2277
 5745TIP3    H238795   2.363   6.285   0.431  0.0108  0.6410 -0.2615
 5746TIP3   OH238796   3.053   6.340   0.986  0.0138 -0.2514 -0.1709
 5746TIP3    H138797   2.985   6.387   1.034  0.3843  0.1959 -0.0845
 5746TIP3    H238798   3.025   6.248   0.991 -0.8846 -0.0205 -0.6289
 5747TIP3   OH238799   2.064   5.241   2.542 -0.4532 -0.0084 -0.4744
 5747TIP3    H138800   2.152   5.262   2.510  0.9722 -2.1923  1.6679
 5747TIP3    H238801   2.042   5.159   2.498 -2.3495  1.4472 -2.4533
 5748TIP3   OH238802   6.135   4.696   7.832  0.3482 -0.1448 -0.1833
 5748TIP3    H138803   6.149   4.790   7.834 -1.6653  0.1729  1.0797
 5748TIP3    H238804   6.138   4.668   7.923 -0.6574 -1.0270 -0.3925
 5749TIP3   OH238805   3.831   0.974   2.303  0.0852 -0.1031  0.3264
 5749TIP3    H138806   3.923   0.949   2.311  0.1106  0.3699  1.8772
 5749TIP3    H238807   3.834   1.067   2.280 -0.0096 -0.2191 -0.1586
 5750TIP3   OH238808   0.360   3.703   8.673  0.3107 -0.3084 -0.1577
 5750TIP3    H138809   0.332   3.612   8.664  0.3986 -0.4232  0.6131
 5750TIP3    H238810   0.408   3.705   8.756  0.2324  0.4617 -0.1219
 5751TIP3   OH238811   0.616   1.295   0.755 -0.0190  0.0648 -0.1377
 5751TIP3    H138812   0.616   1.314   0.661  0.4359  0.0657 -0.1367
 5751TIP3    H238813   0.682   1.227   0.766 -1.2778 -1.2009 -0.0686
 5752TIP3   OH238814   6.199   5.623   7.998  0.0319  0.7585 -0.7020
 5752TIP3    H138815   6.259   5.607   7.925 -0.6457  1.3786 -1.4100
 5752TIP3    H238816   6.217   5.713   8.024  0.3128  0.5188 -0.0561
 5753TIP3   OH238817   3.744   6.098   8.014  0.1940  0.6624  0.2793
 5753TIP3    H138818   3.730   6.022   7.957  1.0242  1.1405 -0.5886
 5753TIP3    H238819   3.825   6.137   7.982 -0.6589  2.4159  0.1562
 5754TIP3   OH238820   4.770   0.772   0.682 -0.5446 -0.1109  0.3658
 5754TIP3    H138821   4.839   0.821   0.727 -0.7671  0.5683 -0.0246
 5754TIP3    H238822   4.765   0.810   0.595 -0.4934 -1.0608 -0.0647
 5755TIP3   OH238823   0.007   0.605   2.222 -0.6483 -0.1868 -0.3233
 5755TIP3    H138824  -0.058   0.540   2.246 -0.5924 -0.5437 -1.1177
 5755TIP3    H238825   0.087   0.577   2.266 -1.2624  0.8654  1.5806
 5756TIP3   OH238826   5.793   4.508   7.474 -0.2368  0.0970 -0.2046
 5756TIP3    H138827   5.787   4.565   7.551  0.8698  1.0714 -0.8197
 5756TIP3    H238828   5.885   4.483   7.470 -0.4862 -0.7959 -0.6376
 5757TIP3   OH238829   2.600   6.120   7.243 -0.1779 -0.0333 -0.3774
 5757TIP3    H138830   2.676   6.167   7.209  1.1055 -1.1064  0.9259
 5757TIP3    H238831   2.592   6.043   7.186  1.9628 -1.8223  1.5814
 5758TIP3   OH238832   0.700   1.586   0.209  0.7054 -0.3350 -0.0402
 5758TIP3    H138833   0.740   1.673   0.211 -0.3145  0.1372  1.1286
 5758TIP3    H238834   0.773   1.526   0.193  1.3597  0.7549 -1.3510
 5759TIP3   OH238835   4.860   6.393   8.822 -0.1443 -0.4278  0.2778
 5759TIP3    H138836   4.852   6.454   8.895 -0.8326 -1.7008  1.3295
 5759TIP3    H238837   4.772   6.389   8.784  0.3467  0.7030 -1.0744
 5760TIP3   OH238838   3.093   2.510   7.740 -0.0011  0.4433 -0.1877
 5760TIP3    H138839   3.111   2.521   7.647 -1.2997 -0.8934 -0.6215
 5760TIP3    H238840   3.150   2.438   7.767  0.2312  0.7022  0.0266
 5761TIP3   OH238841   2.628   6.545   1.259 -0.3869  0.8053 -0.1315
 5761TIP3    H138842   2.630   6.609   1.330  1.9737  0.6762 -0.0055
 5761TIP3    H238843   2.621   6.460   1.304 -0.3751  0.8075 -0.1248
 5762TIP3   OH238844   1.890   1.582   6.665 -0.3059  0.1821 -0.6530
 5762TIP3    H138845   1.956   1.542   6.721 -1.8267 -3.6504 -1.2554
 5762TIP3    H238846   1.844   1.644   6.722  0.9058 -0.4131  1.0549
 5763TIP3   OH238847   6.085   6.714   2.556 -0.1981 -0.1582 -0.2064
 5763TIP3    H138848   6.016   6.648   2.566 -0.4243  0.2200  0.8933
 5763TIP3    H238849   6.119   6.700   2.468 -0.0814 -1.8927  0.0916
 5764TIP3   OH238850   6.336   1.125   7.740 -0.1323 -0.0167  0.0272
 5764TIP3    H138851   6.369   1.214   7.752  1.6869 -0.7314  0.6230
 5764TIP3    H238852   6.322   1.093   7.829  2.2455 -1.3600 -0.0142
 5765TIP3   OH238853   2.039   0.177   7.538  0.1696  0.5639  0.0955
 5765TIP3    H138854   2.029   0.249   7.474 -2.7150 -1.4438 -1.9818
 5765TIP3    H238855   2.116   0.129   7.508  0.3958  1.1251 -0.2509
 5766TIP3   OH238856   2.181   2.501   0.743 -0.0433 -0.1606 -0.8091
 5766TIP3    H138857   2.231   2.420   0.753 -0.1317 -0.3543 -1.7687
 5766TIP3    H238858   2.134   2.489   0.660 -0.6746  0.5513 -0.5655
 5767TIP3   OH238859   5.130   2.640   1.698  0.1830  0.2798  0.8120
 5767TIP3    H138860   5.078   2.711   1.737  0.4324  0.6914  0.4056
 5767TIP3    H238861   5.074   2.563   1.704 -0.5838  0.7723  0.1469
 5768TIP3   OH238862   0.335   4.326   2.066  0.1792 -0.2760 -0.0077
 5768TIP3    H138863   0.385   4.407   2.061 -0.0632 -0.1583 -0.8180
 5768TIP3    H238864   0.263   4.345   2.126  1.4931 -0.6889  1.7734
 5769TIP3   OH238865   4.960   4.101   6.802 -0.3758 -0.4110 -0.1938
 5769TIP3    H138866   5.016   4.063   6.735 -1.5658 -1.6435 -0.5452
 5769TIP3    H238867   4.995   4.067   6.885  0.3360  0.0997 -0.2833
 5770TIP3   OH238868   3.633   6.071   1.084 -0.6842 -0.1333 -0.7597
 5770TIP3    H138869   3.649   6.014   1.158 -0.8141  0.5804 -0.1661
 5770TIP3    H238870   3.553   6.036   1.043  0.6733 -1.9449 -2.0023
 5771TIP3   OH238871   2.694   2.478   8.456 -0.2805  0.3511  0.0469
 5771TIP3    H138872   2.615   2.488   8.510 -0.3911  1.0884 -0.2351
 5771TIP3    H238873   2.668   2.510   8.370 -0.9713 -3.3437 -1.3158
 5772TIP3   OH238874   1.992   6.631   0.148 -0.1170 -0.4423 -0.0128
 5772TIP3    H138875   1.933   6.605   0.219  0.2724 -0.0569  0.4596
 5772TIP3    H238876   1.950   6.706   0.108  0.7025  0.7172  1.2197
 5773TIP3   OH238877   1.592   1.562   8.292 -0.1007  0.2253  0.3051
 5773TIP3    H138878   1.585   1.623   8.366 -0.7675 -0.8135  1.1383
 5773TIP3    H238879   1.547   1.483   8.322  0.2081 -0.4689 -0.9736
 5774TIP3   OH238880   3.328   6.406   7.701 -0.3262 -0.1134 -0.9134
 5774TIP3    H138881   3.300   6.315   7.700 -1.4972  0.2191 -0.7525
 5774TIP3    H238882   3.410   6.406   7.749  0.1695 -1.1985 -1.7410
 5775TIP3   OH238883   4.609   2.884   7.546 -0.0218  0.4773  0.3341
 5775TIP3    H138884   4.621   2.850   7.458  0.3176  0.6954  0.2955
 5775TIP3    H238885   4.515   2.879   7.561 -0.0478  0.1507  0.0772
 5776TIP3   OH238886   1.458   3.411   0.066  0.1382 -0.2117  0.4659
 5776TIP3    H138887   1.456   3.496   0.022  3.1748 -1.3177 -2.1820
 5776TIP3    H238888   1.530   3.419   0.129  1.3201 -1.1306 -0.7147
 5777TIP3   OH238889   1.630   6.180   7.944 -0.3003  0.0009  0.3477
 5777TIP3    H138890   1.666   6.097   7.915 -0.6826 -0.4068  1.0152
 5777TIP3    H238891   1.680   6.246   7.896 -0.3747 -0.6236 -0.6193
 5778TIP3   OH238892   3.985   5.794   8.672 -0.2408  0.1854 -0.1857
 5778TIP3    H138893   3.893   5.768   8.680  0.0437 -1.1023 -0.7447
 5778TIP3    H238894   4.026   5.722   8.622  1.5372 -0.4601  2.0034
 5779TIP3   OH238895   1.124   3.217   7.078  0.7134 -0.3951  0.0468
 5779TIP3    H138896   1.162   3.196   6.993  1.2051  2.5803 -0.5711
 5779TIP3    H238897   1.034   3.186   7.072  1.0944 -1.3564 -1.0715
 5780TIP3   OH238898   2.157   1.433   0.354 -0.3653  0.3967 -0.3845
 5780TIP3    H138899   2.219   1.396   0.291 -0.9782 -0.9123 -0.2698
 5780TIP3    H238900   2.071   1.411   0.319 -0.7365  0.8645  0.2133
 5781TIP3   OH238901   0.441   5.889   0.054 -0.5960 -0.0765 -0.0690
 5781TIP3    H138902   0.421   5.798   0.075 -0.7178 -0.4665 -1.7267
 5781TIP3    H238903   0.537   5.894   0.054 -0.5097 -0.8059 -2.1428
 5782TIP3   OH238904   4.309   1.282   8.435 -0.3053 -0.2284 -0.1220
 5782TIP3    H138905   4.237   1.271   8.497 -0.9089 -1.1013 -0.9339
 5782TIP3    H238906   4.338   1.192   8.418 -0.2592 -0.0161 -1.2055
 5783TIP3   OH238907   2.682   4.077   6.818  0.1230  0.0747  0.0246
 5783TIP3    H138908   2.645   3.989   6.824 -1.0501  0.5256 -0.2875
 5783TIP3    H238909   2.681   4.110   6.907  1.5635 -0.6100  0.3077
 5784TIP3   OH238910   3.318   0.222   7.082 -0.3006  0.0183  1.0592
 5784TIP3    H138911   3.391   0.186   7.132 -0.6495 -2.0101  0.2126
 5784TIP3    H238912   3.350   0.306   7.049  1.0494 -0.0861  2.0318
 5785TIP3   OH238913   2.411   2.236   1.215 -0.7365  0.1473  0.7623
 5785TIP3    H138914   2.410   2.221   1.309  0.7389  1.1424  0.9736
 5785TIP3    H238915   2.425   2.331   1.206  0.8558 -0.1597 -0.4387
 5786TIP3   OH238916   5.246   1.214   8.335  0.1918 -0.4637  0.1007
 5786TIP3    H138917   5.272   1.203   8.244  3.0027  0.7021  0.6403
 5786TIP3    H238918   5.243   1.125   8.370  2.2066 -0.7983 -0.4365
 5787TIP3   OH238919   6.633   4.324   0.714  0.6007 -0.2705 -0.5600
 5787TIP3    H138920   6.666   4.237   0.694 -1.2792 -0.8762 -1.1840
 5787TIP3    H238921   6.546   4.309   0.751 -0.0459  1.3662 -1.3365
 5788TIP3   OH238922   5.275   3.032   1.909  0.2254  0.2352 -0.1185
 5788TIP3    H138923   5.325   2.960   1.949 -0.6539 -0.3152  0.0210
 5788TIP3    H238924   5.269   3.007   1.816  0.1056  0.2350 -0.1107
 5789TIP3   OH238925   2.189   4.931   0.978  0.2627  0.2764  0.3527
 5789TIP3    H138926   2.273   4.973   0.960  1.0679 -0.7300  1.5749
 5789TIP3    H238927   2.163   4.964   1.064  0.9442 -1.6788  1.3771
 5790TIP3   OH238928   2.467   4.847   0.617 -0.4672 -0.1743  0.1928
 5790TIP3    H138929   2.412   4.775   0.646  1.4811 -1.2129  1.5829
 5790TIP3    H238930   2.447   4.857   0.524 -2.3794 -0.9986  0.4768
 5791TIP3   OH238931   1.737   4.613   1.351 -0.7351  0.5908 -0.2886
 5791TIP3    H138932   1.734   4.650   1.439 -0.7488 -1.4822  0.6306
 5791TIP3    H238933   1.779   4.681   1.298 -0.1837  1.6430  1.4256
 5792TIP3   OH238934   4.401   4.075   8.641 -0.3610 -0.0509  0.1150
 5792TIP3    H138935   4.471   4.063   8.705 -0.8421  0.8990  0.8528
 5792TIP3    H238936   4.422   4.014   8.570  2.3952  1.7050 -0.7159
 5793TIP3   OH238937   2.219   1.806   7.225  0.2924  0.3370  0.0932
 5793TIP3    H138938   2.137   1.760   7.243 -0.7024  1.5533 -1.1319
 5793TIP3    H238939   2.263   1.751   7.159  0.0245  0.1662  0.0569
 5794TIP3   OH238940   3.853   5.279   7.985 -0.4857 -0.1196  0.4872
 5794TIP3    H138941   3.763   5.253   8.007 -0.9955  1.3463  0.2448
 5794TIP3    H238942   3.848   5.374   7.972  1.4582  0.3061  2.2769
 5795TIP3   OH238943   5.667   0.673   8.778 -0.4610 -0.1085 -0.2365
 5795TIP3    H138944   5.719   0.725   8.717 -2.7754  1.0437 -1.3798
 5795TIP3    H238945   5.687   0.582   8.757  0.8108  0.2982 -0.8313
 5796TIP3   OH238946   4.862   1.913   8.869 -0.5683 -1.0238  0.1597
 5796TIP3    H138947   4.955   1.928   8.885  0.4089 -1.9922 -3.5943
 5796TIP3    H238948   4.823   2.001   8.870  0.8597 -0.3503 -0.4511
 5797TIP3   OH238949   1.719   6.518   1.689  0.0207 -0.4560 -0.2095
 5797TIP3    H138950   1.668   6.551   1.763 -1.8508 -2.3228 -0.5667
 5797TIP3    H238951   1.757   6.596   1.649  0.7561  0.6467  2.4272
 5798TIP3   OH238952   0.854   5.954   8.684  0.3778 -0.2624  0.4507
 5798TIP3    H138953   0.795   5.897   8.734 -0.1068 -0.0152  0.1687
 5798TIP3    H238954   0.933   5.901   8.670 -1.5913 -2.6449 -3.5611
 5799TIP3   OH238955   3.599   6.273   7.739 -0.1137 -0.3081  0.4036
 5799TIP3    H138956   3.619   6.348   7.684 -2.1193  0.7227  0.9776
 5799TIP3    H238957   3.605   6.197   7.681  0.6926  0.4214 -0.4883
 5800TIP3   OH238958   0.576   5.184   0.976 -0.0147 -0.1365  0.4681
 5800TIP3    H138959   0.523   5.110   0.949 -0.1514  0.7098 -1.7987
 5800TIP3    H238960   0.514   5.246   1.014  0.0562 -0.9708  2.0570
 5801TIP3   OH238961   4.550   2.579   1.460  0.3954 -0.5393  0.1699
 5801TIP3    H138962   4.505   2.598   1.542 -0.7918 -2.7433  0.1105
 5801TIP3    H238963   4.484   2.596   1.392  0.9833  0.0994 -0.2621
 5802TIP3   OH238964   1.648   0.933   2.325 -0.8036  0.3835 -0.2022
 5802TIP3    H138965   1.602   1.009   2.288 -3.1510 -0.1057  1.5096
 5802TIP3    H238966   1.692   0.967   2.402  0.3926  0.4965 -0.9072
 5803TIP3   OH238967   6.090   5.047   8.808  0.0711 -0.8010 -0.2984
 5803TIP3    H138968   6.004   5.004   8.810 -0.1344 -0.3908 -0.0943
 5803TIP3    H238969   6.137   5.009   8.882 -0.1749 -0.5552 -0.0087
 5804TIP3   OH238970   5.361   5.222   2.023  0.1810  0.3687  0.3897
 5804TIP3    H138971   5.278   5.177   2.034  1.3468 -2.0460  0.0369
 5804TIP3    H238972   5.402   5.179   1.948  2.1938  0.7092  1.2134
 5805TIP3   OH238973   4.405   6.256   1.534  0.3326 -0.1797  0.3827
 5805TIP3    H138974   4.457   6.285   1.458  0.9624  2.2332  1.6285
 5805TIP3    H238975   4.451   6.292   1.609 -0.3602 -2.4073  1.9637
 5806TIP3   OH238976   6.094   1.649   8.711  0.3647  0.2836 -0.4512
 5806TIP3    H138977   6.185   1.624   8.698  0.4741  1.1287 -1.4266
 5806TIP3    H238978   6.059   1.583   8.771  0.8801 -1.6502 -2.1698
 5807TIP3   OH238979   0.657   1.984   1.930 -0.1010  0.7102 -0.0858
 5807TIP3    H138980   0.742   1.940   1.926 -1.0582 -1.2833  0.3681
 5807TIP3    H238981   0.678   2.073   1.957  1.8371  0.2325  0.1726
 5808TIP3   OH238982   0.086   0.227   1.638 -0.1784 -0.1652  0.3357
 5808TIP3    H138983  -0.002   0.262   1.621 -1.4951 -2.3349  2.1527
 5808TIP3    H238984   0.141   0.305   1.650 -1.6960  1.2475 -1.3714
 5809TIP3   OH238985   4.168   3.766   7.257  0.1428 -0.2359  0.2191
 5809TIP3    H138986   4.175   3.697   7.323 -2.2587 -0.1928  0.6102
 5809TIP3    H238987   4.166   3.720   7.174 -2.0268 -0.7695  0.5029
 5810TIP3   OH238988   2.520   5.151   7.674 -0.1296 -0.3824 -0.2725
 5810TIP3    H138989   2.453   5.180   7.736 -0.5492 -0.1941 -0.8089
 5810TIP3    H238990   2.528   5.057   7.690 -2.8032 -1.0707 -2.3229
 5811TIP3   OH238991   2.515   3.359   0.990 -0.3246 -0.2437 -0.1941
 5811TIP3    H138992   2.596   3.387   0.947  0.5004  1.4032  2.2296
 5811TIP3    H238993   2.449   3.364   0.920  0.8108  2.9014 -1.2530
 5812TIP3   OH238994   4.295   4.056   8.005  0.1875 -0.1837  0.2963
 5812TIP3    H138995   4.299   4.111   8.083 -0.1858 -0.7429  0.7129
 5812TIP3    H238996   4.382   4.015   8.000  0.5197  0.5431 -0.1021
 5813TIP3   OH238997   4.642   4.936   0.025 -0.2353  0.0961  0.4315
 5813TIP3    H138998   4.673   4.848   0.005 -2.6636 -0.4894 -1.1906
 5813TIP3    H238999   4.583   4.925   0.099 -0.6623  0.3079  0.1291
 5814TIP3   OH239000   5.043   5.166   0.497 -0.6981  0.3727  0.1131
 5814TIP3    H139001   4.964   5.215   0.518 -1.4275 -0.8681  0.3883
 5814TIP3    H239002   5.058   5.109   0.573 -0.7884 -0.9368 -0.8049
 5815TIP3   OH239003   3.178   1.041   0.140  0.0083 -0.2074  0.5201
 5815TIP3    H139004   3.116   0.972   0.118  1.7958 -1.1381 -2.1046
 5815TIP3    H239005   3.258   0.995   0.167  0.8147  0.8282 -0.0180
 5816TIP3   OH239006   4.654   4.947   2.199  0.1833  0.4799  0.1871
 5816TIP3    H139007   4.576   4.994   2.228  0.9130  1.6238  0.3537
 5816TIP3    H239008   4.716   4.958   2.270  0.7866  0.3123 -0.3101
 5817TIP3   OH239009   0.158   3.548   0.411 -0.3693  0.4147 -0.3564
 5817TIP3    H139010   0.137   3.487   0.340  0.5084  1.6913 -1.7561
 5817TIP3    H239011   0.201   3.621   0.368 -0.1142  1.3888  1.4724
 5818TIP3   OH239012   0.041   5.342   0.044  1.1558 -0.2496 -0.3138
 5818TIP3    H139013   0.034   5.430   0.008  0.7035 -0.1442  0.0303
 5818TIP3    H239014   0.037   5.284  -0.032 -1.0889 -0.0935 -0.3720
 5819TIP3   OH239015   5.671   2.060   0.021  0.3999  0.8750  0.7796
 5819TIP3    H139016   5.697   2.117  -0.052  0.5437  1.1562  1.0470
 5819TIP3    H239017   5.725   1.982   0.012 -1.9995 -0.6727 -1.4865
 5820TIP3   OH239018   0.045   5.216   8.664  0.4140  0.6453  0.4092
 5820TIP3    H139019   0.057   5.131   8.622 -0.8381  1.0241 -0.7725
 5820TIP3    H239020   0.117   5.270   8.632  0.3277  0.4825 -0.0555
 5821TIP3   OH239021   2.020   5.066   6.669 -0.0087 -0.0276  0.0687
 5821TIP3    H139022   2.085   5.101   6.608  0.3395 -1.1419 -0.2087
 5821TIP3    H239023   2.005   4.976   6.640 -0.6029 -0.2459  1.0154
 5822TIP3   OH239024   5.968   2.383   7.789  0.7751  0.7258  0.0138
 5822TIP3    H139025   5.886   2.430   7.775 -1.1023 -2.5354 -1.1408
 5822TIP3    H239026   5.942   2.301   7.830  3.3082 -0.9303 -1.3847
 5823TIP3   OH239027   4.868   5.366   0.223 -0.3083 -0.1844  0.6853
 5823TIP3    H139028   4.846   5.274   0.242  0.7863 -0.3656  1.1553
 5823TIP3    H239029   4.962   5.371   0.238 -0.8024  1.8393  4.0579
 5824TIP3   OH239030   4.498   4.645   8.487 -0.2834  0.5033  0.4153
 5824TIP3    H139031   4.427   4.705   8.461  1.5523  1.6749 -2.2959
 5824TIP3    H239032   4.463   4.558   8.470 -0.7349  1.1016 -2.1126
 5825TIP3   OH239033   6.060   6.017   1.671 -0.4142 -0.3653  0.6690
 5825TIP3    H139034   6.139   5.979   1.709 -0.4731 -0.4655  0.6922
 5825TIP3    H239035   6.009   6.048   1.746 -0.0174  0.4476  0.6038
 5826TIP3   OH239036   5.347   0.670   0.185  0.4358  0.6947 -0.1590
 5826TIP3    H139037   5.350   0.655   0.090 -0.3855  0.8661 -0.2155
 5826TIP3    H239038   5.429   0.716   0.204  1.1353 -0.3399 -0.5965
 5827TIP3   OH239039   3.022   4.345   1.852 -0.0076  0.1051 -0.0276
 5827TIP3    H139040   3.113   4.357   1.826 -0.1101  0.3557 -0.2792
 5827TIP3    H239041   3.026   4.325   1.945  0.3782 -1.0529 -0.2812
 5828TIP3   OH239042   5.073   5.963   1.852 -0.2031 -0.4005  0.3514
 5828TIP3    H139043   5.088   6.033   1.915  0.0305 -0.7127  0.6439
 5828TIP3    H239044   5.061   5.884   1.905 -2.8541 -0.2131  0.1898
 5829TIP3   OH239045   0.806   5.566   0.364  0.2799  0.3194 -0.1237
 5829TIP3    H139046   0.872   5.578   0.295  0.9652  0.3924  0.5378
 5829TIP3    H239047   0.741   5.507   0.324  1.3452 -0.7145 -0.3912
 5830TIP3   OH239048   5.167   1.331   0.230  0.0049  0.0877 -0.0904
 5830TIP3    H139049   5.201   1.364   0.147 -0.4422 -0.4296 -0.4930
 5830TIP3    H239050   5.120   1.405   0.268  2.6225  1.2510  1.1291
 5831TIP3   OH239051   4.960   3.097   8.457  0.2704  0.2339  0.2682
 5831TIP3    H139052   4.943   3.110   8.550  1.3921  1.1196  0.3692
 5831TIP3    H239053   4.876   3.068   8.421  0.0963 -1.1558  1.7189
 5832TIP3   OH239054   5.888   3.442   8.605 -0.6463 -0.0785 -0.2895
 5832TIP3    H139055   5.801   3.414   8.579  0.1771 -0.8264 -2.3829
 5832TIP3    H239056   5.931   3.363   8.637  0.4752 -0.5947 -2.8353
 5833TIP3   OH239057   5.796   0.537   1.299  0.1368  0.3266  0.5665
 5833TIP3    H139058   5.880   0.582   1.295 -1.1820  2.9226 -0.8983
 5833TIP3    H239059   5.744   0.590   1.359 -1.1334  0.0798 -0.2859
 5834TIP3   OH239060   6.627   0.463   7.463  0.0927  0.6106  0.2086
 5834TIP3    H139061   6.532   0.465   7.474 -0.0353  0.5209 -0.7494
 5834TIP3    H239062   6.661   0.454   7.552 -0.7740  1.1167  0.6100
 5835TIP3   OH239063   3.320   6.552   8.132  0.7696  0.3655 -0.2810
 5835TIP3    H139064   3.268   6.607   8.073  0.1724 -1.9207 -2.0367
 5835TIP3    H239065   3.389   6.516   8.076  1.7461  0.0747  1.0522
 5836TIP3   OH239066   3.868   0.805   8.132  0.1959  0.1616 -0.1268
 5836TIP3    H139067   3.909   0.890   8.117 -0.3417  0.2396 -1.2258
 5836TIP3    H239068   3.905   0.748   8.065 -0.6889 -0.0280 -0.4705
 5837TIP3   OH239069   2.992   0.565   0.311 -0.4804  0.2216 -0.3769
 5837TIP3    H139070   3.017   0.476   0.337 -1.0719  0.0625 -0.3464
 5837TIP3    H239071   2.955   0.555   0.224 -0.1104  0.5123 -0.5710
 5838TIP3   OH239072   3.381   4.891   8.380  1.1262 -0.6662  0.5185
 5838TIP3    H139073   3.404   4.883   8.472 -0.9205  0.7057  1.2270
 5838TIP3    H239074   3.331   4.812   8.360 -0.0178 -0.1367  1.1603
 5839TIP3   OH239075   5.074   1.056   0.129 -0.3496  0.2370 -0.1536
 5839TIP3    H139076   5.165   1.038   0.105 -0.0141  1.3144  0.2214
 5839TIP3    H239077   5.070   1.152   0.135 -1.8223  0.2959 -1.3665
 5840TIP3   OH239078   4.343   6.215   1.175 -0.1362 -0.2434  0.8313
 5840TIP3    H139079   4.434   6.216   1.206  0.1497 -1.5664  0.1143
 5840TIP3    H239080   4.296   6.272   1.237  1.1148  0.2353  1.3827
 5841TIP3   OH239081   2.479   4.847   7.693  0.2878  0.2696 -0.7758
 5841TIP3    H139082   2.391   4.865   7.661 -0.1626 -0.1645  0.1919
 5841TIP3    H239083   2.472   4.765   7.741  0.6563  1.3955  1.3725
 5842TIP3   OH239084   0.538   4.985   0.619 -0.2272 -0.2374  0.0157
 5842TIP3    H139085   0.486   4.906   0.634  0.1087 -0.2155  1.4678
 5842TIP3    H239086   0.480   5.057   0.644 -0.4410 -0.0249 -1.0489
 5843TIP3   OH239087   4.089   0.750   1.620 -0.2289  1.1170 -0.1001
 5843TIP3    H139088   4.109   0.683   1.685  0.2798 -0.3566 -1.6845
 5843TIP3    H239089   4.123   0.831   1.657  2.5599 -0.1297  0.3061
 5844TIP3   OH239090   2.765   3.366   0.624 -0.0288 -0.0590 -0.2597
 5844TIP3    H139091   2.769   3.460   0.612 -1.7701  0.2716  1.2539
 5844TIP3    H239092   2.792   3.352   0.715 -0.1481 -0.9687 -0.3514
 5845TIP3   OH239093   4.734   4.231   7.516 -0.0310 -0.8451  0.0089
 5845TIP3    H139094   4.804   4.239   7.581  1.7692 -0.4211 -1.8823
 5845TIP3    H239095   4.660   4.279   7.554  0.9642 -0.5463  1.6841
 5846TIP3   OH239096   2.512   4.001   1.292 -0.1361  0.3245 -0.0703
 5846TIP3    H139097   2.554   3.932   1.240 -0.0076 -0.1059  0.5881
 5846TIP3    H239098   2.543   4.083   1.253 -0.4587  0.0178 -0.9985
 5847TIP3   OH239099   4.333   6.283   8.419 -0.1763 -0.8557 -0.3344
 5847TIP3    H139100   4.259   6.328   8.459 -1.0530 -1.6229 -1.0416
 5847TIP3    H239101   4.327   6.193   8.451  0.1236 -1.0553 -0.8264
 5848TIP3   OH239102   3.460   1.788   6.510  0.2881  0.0451  0.3199
 5848TIP3    H139103   3.542   1.819   6.546  1.7617 -1.1636 -1.7665
 5848TIP3    H239104   3.431   1.719   6.571  0.8664  0.3981  1.0049
 5849TIP3   OH239105   3.834   0.653   1.607  0.0317  0.4025 -0.3857
 5849TIP3    H139106   3.918   0.700   1.613  0.8838 -1.1556  0.7909
 5849TIP3    H239107   3.851   0.569   1.649 -2.3243  0.2686  0.4461
 5850TIP3   OH239108   3.889   5.823   2.716 -0.6750  0.0988  0.2180
 5850TIP3    H139109   3.825   5.883   2.679 -0.2465  0.6117  0.2908
 5850TIP3    H239110   3.841   5.772   2.781 -1.7585 -1.6285 -1.7879
 5851TIP3   OH239111   5.465   5.864   8.030 -0.4683 -0.4423  0.0368
 5851TIP3    H139112   5.404   5.914   7.975 -1.5817 -0.3897  1.2944
 5851TIP3    H239113   5.421   5.855   8.114  0.8939 -1.1759  0.7079
 5852TIP3   OH239114   0.246   3.441   7.283 -0.4723  0.0635 -0.6910
 5852TIP3    H139115   0.246   3.382   7.207 -2.5049 -0.4326 -0.3808
 5852TIP3    H239116   0.166   3.493   7.272 -1.2783 -0.6186  1.5166
 5853TIP3   OH239117   4.932   1.788   8.610  0.4396  0.1783  0.5476
 5853TIP3    H139118   4.887   1.818   8.689 -0.0417  0.4346  0.1810
 5853TIP3    H239119   4.921   1.693   8.611  0.0889  0.2187  0.5828
 5854TIP3   OH239120   6.699   2.366   7.756  0.4890  0.1523  0.1437
 5854TIP3    H139121   6.640   2.415   7.698  1.4272  3.2931  1.6598
 5854TIP3    H239122   6.783   2.365   7.709  0.7496  1.0281  0.5631
 5855TIP3   OH239123   6.130   3.968   2.180  0.3262 -0.0343 -0.1215
 5855TIP3    H139124   6.112   3.930   2.266 -0.8142 -0.4476 -0.5086
 5855TIP3    H239125   6.134   4.062   2.195  1.7289 -0.1930  0.6256
 5856TIP3   OH239126   1.540   5.543   8.382 -0.3276 -0.3920  0.7853
 5856TIP3    H139127   1.530   5.535   8.287  0.7640  0.5549  0.5667
 5856TIP3    H239128   1.451   5.548   8.416 -0.7449 -1.3435 -0.1296
 5857TIP3   OH239129   0.772   6.619   8.008  0.2567  0.4800 -0.1765
 5857TIP3    H139130   0.833   6.605   7.935 -1.1618 -2.1433 -1.0014
 5857TIP3    H239131   0.691   6.645   7.965 -0.7344 -1.5577  0.3356
 5858TIP3   OH239132   5.541   0.913   7.272 -0.5535 -0.1858 -0.5461
 5858TIP3    H139133   5.527   1.007   7.266  0.3945  0.1476  1.4562
 5858TIP3    H239134   5.631   0.905   7.303 -0.5469 -1.7701 -0.9074
 5859TIP3   OH239135   5.349   1.625   7.622 -0.2144  0.6314  0.2380
 5859TIP3    H139136   5.359   1.640   7.716 -0.3918 -2.7116  0.8963
 5859TIP3    H239137   5.259   1.595   7.612  0.3479 -0.8385 -0.6849
 5860TIP3   OH239138   4.917   2.948   7.944  0.6728 -0.0332  0.7200
 5860TIP3    H139139   4.869   3.030   7.956  0.6801  0.1851 -0.5875
 5860TIP3    H239140   4.896   2.920   7.855  2.6534 -0.1264  0.2226
 5861TIP3   OH239141   6.452   4.418   1.296 -0.1916 -0.9179  0.0032
 5861TIP3    H139142   6.424   4.476   1.367 -0.3806  0.2857 -1.0096
 5861TIP3    H239143   6.376   4.363   1.278 -0.8261  0.1153 -0.5618
 5862TIP3   OH239144   4.755   0.399   2.091 -0.4321  0.2391  0.2037
 5862TIP3    H139145   4.790   0.315   2.120  1.6006  0.3145 -1.7728
 5862TIP3    H239146   4.758   0.454   2.169  1.6599 -0.5067  0.7099
 5863TIP3   OH239147   0.444   4.153   8.575 -0.4980 -0.0284 -0.4449
 5863TIP3    H139148   0.368   4.201   8.542 -0.9485  0.8476  1.7511
 5863TIP3    H239149   0.518   4.210   8.556 -0.4885 -0.4074 -1.6328
 5864TIP3   OH239150   1.361   1.429   8.175 -0.5348  0.3683 -0.7900
 5864TIP3    H139151   1.352   1.524   8.166 -0.0967  0.2980 -2.2065
 5864TIP3    H239152   1.300   1.393   8.111 -0.6900 -0.3184 -0.2677
 5865TIP3   OH239153   5.248   5.531   7.898 -0.3819  0.2468  0.0654
 5865TIP3    H139154   5.309   5.535   7.972  2.4153 -0.8087 -2.0002
 5865TIP3    H239155   5.298   5.491   7.827 -3.8954 -1.9212 -1.5044
 5866TIP3   OH239156   5.610   2.609   8.644 -0.0903 -0.1018 -0.3587
 5866TIP3    H139157   5.624   2.700   8.667  2.2238  0.0297 -1.9495
 5866TIP3    H239158   5.672   2.592   8.573 -0.8811 -2.7486 -0.5390
 5867TIP3   OH239159   0.983   1.340   2.148 -0.7117  0.0218 -0.1243
 5867TIP3    H139160   0.928   1.356   2.225 -2.6453 -0.5544 -1.3018
 5867TIP3    H239161   1.014   1.250   2.159  1.6599  0.9264  1.4523
 5868TIP3   OH239162   3.458   3.973   7.086 -0.1373 -0.2656 -0.1422
 5868TIP3    H139163   3.468   3.953   6.993 -0.8806  1.2121 -0.5737
 5868TIP3    H239164   3.458   4.069   7.090 -0.9064 -0.2946  1.2832
 5869TIP3   OH239165   1.485   2.515   0.037 -0.2834 -0.5462 -0.1163
 5869TIP3    H139166   1.472   2.504  -0.057  1.2956  2.0412 -0.7262
 5869TIP3    H239167   1.571   2.556   0.045 -1.2732  1.3102  2.2984
 5870TIP3   OH239168   3.355   3.344   6.800 -0.2867  0.5290 -0.3282
 5870TIP3    H139169   3.370   3.423   6.748  0.1225  0.1342 -0.8255
 5870TIP3    H239170   3.401   3.275   6.752  0.1409  0.1614  0.5944
 5871TIP3   OH239171   5.213   6.728   7.341 -0.3169 -0.0962  0.4462
 5871TIP3    H139172   5.301   6.703   7.367 -0.4539 -2.8738 -1.3866
 5871TIP3    H239173   5.156   6.688   7.407 -0.3190 -0.8347  0.0055
 5872TIP3   OH239174   0.400   4.758   8.276 -0.4577  0.4642  0.1194
 5872TIP3    H139175   0.339   4.689   8.250 -1.9641  1.7480  0.0607
 5872TIP3    H239176   0.415   4.809   8.196  0.7625  0.1206  0.1228
 5873TIP3   OH239177   0.081   5.457   0.763 -0.3653  0.1067 -0.7317
 5873TIP3    H139178   0.029   5.537   0.770  0.2110  0.4509 -0.3042
 5873TIP3    H239179   0.141   5.461   0.837 -0.2400 -0.6570 -0.7865
 5874TIP3   OH239180   5.125   4.512   8.799  0.5346  0.3982 -0.1659
 5874TIP3    H139181   5.142   4.604   8.778 -0.4242  0.7703  0.5969
 5874TIP3    H239182   5.107   4.471   8.715  0.0637  1.1090 -0.4191
 5875TIP3   OH239183   3.591   5.919   1.313 -0.1662  0.1128 -0.0312
 5875TIP3    H139184   3.611   5.828   1.337  0.3784  0.0972 -0.5260
 5875TIP3    H239185   3.517   5.942   1.369  1.3858  0.2547  2.1151
 5876TIP3   OH239186   5.735   1.797   7.018 -0.0527  0.2332  0.6483
 5876TIP3    H139187   5.746   1.891   7.032  0.8809  0.0405  1.2678
 5876TIP3    H239188   5.684   1.767   7.094  0.3877  0.1070  0.9027
 5877TIP3   OH239189   0.806   5.208   7.108 -0.6908  0.1353  0.5488
 5877TIP3    H139190   0.792   5.136   7.170 -1.3148  0.3265  0.6306
 5877TIP3    H239191   0.792   5.287   7.160  0.4985  0.3420  0.5904
 5878TIP3   OH239192   6.267   0.246   7.680  0.5536  0.1061  0.3144
 5878TIP3    H139193   6.189   0.286   7.642  0.2749 -1.3511 -0.7172
 5878TIP3    H239194   6.234   0.172   7.731  1.2269 -0.3276  0.1398
 5879TIP3   OH239195   2.634   2.484   1.450 -0.2828 -0.2178 -0.2683
 5879TIP3    H139196   2.690   2.559   1.472 -0.7033  0.2798 -0.8338
 5879TIP3    H239197   2.620   2.439   1.533  0.6583 -0.1442 -0.0586
 5880TIP3   OH239198   3.649   3.821   8.002  0.4475 -0.0658  0.7055
 5880TIP3    H139199   3.568   3.848   7.958  0.3706 -0.5938  0.5090
 5880TIP3    H239200   3.631   3.730   8.029 -0.2775  0.8347  3.6133
 5881TIP3   OH239201   6.662   0.183   7.974 -0.4123 -0.0850  0.3413
 5881TIP3    H139202   6.720   0.254   7.945  0.8289 -0.7994  1.0000
 5881TIP3    H239203   6.721   0.115   8.006 -1.6076 -1.1067  0.4515
 5882TIP3   OH239204   1.452   0.438   8.120 -0.2387 -0.0799  0.4432
 5882TIP3    H139205   1.516   0.389   8.172 -1.0479 -1.6018  0.0613
 5882TIP3    H239206   1.421   0.376   8.055 -0.9374  1.1156 -0.4118
 5883TIP3   OH239207   0.263   0.572   7.937 -0.5126  0.0808  0.9240
 5883TIP3    H139208   0.341   0.603   7.890 -0.3837  0.9140  1.6511
 5883TIP3    H239209   0.282   0.591   8.029 -2.1023  1.5297  0.9961
 5884TIP3   OH239210   1.834   0.247   0.829  0.5178 -0.2016  0.3883
 5884TIP3    H139211   1.861   0.237   0.920  0.6447  1.5556  0.5825
 5884TIP3    H239212   1.909   0.215   0.779  1.5546  1.2407  0.9348
 5885TIP3   OH239213   4.328   6.633   0.274 -0.0651 -0.4939 -0.5619
 5885TIP3    H139214   4.334   6.728   0.278 -2.9307 -0.2332  0.3011
 5885TIP3    H239215   4.357   6.603   0.360  1.5274 -0.4877 -1.0806
 5886TIP3   OH239216   0.182   5.376   0.496  0.1362 -0.0055  0.6895
 5886TIP3    H139217   0.175   5.379   0.591 -2.8969  0.9350  0.5449
 5886TIP3    H239218   0.104   5.329   0.467  1.1455 -0.5696 -1.3692
 5887TIP3   OH239219   5.856   5.703   1.225 -0.6746  0.0147  0.1593
 5887TIP3    H139220   5.889   5.637   1.286 -0.0442  0.4261  0.2684
 5887TIP3    H239221   5.897   5.680   1.141 -1.7296 -0.6979 -0.1921
 5888TIP3   OH239222   0.033   0.495   1.732  0.4840 -0.0502  0.1658
 5888TIP3    H139223   0.008   0.559   1.799  1.6489  2.1256 -1.3561
 5888TIP3    H239224  -0.049   0.463   1.696 -0.1218  0.8128  0.7521
 5889TIP3   OH239225   5.015   3.037   7.496  0.1112 -0.4230 -0.1867
 5889TIP3    H139226   5.078   2.982   7.450 -0.4122 -0.9098 -0.3351
 5889TIP3    H239227   4.952   3.063   7.428  0.1802  0.1051 -0.0530
 5890TIP3   OH239228   2.313   4.200   1.985  0.4360 -0.0227  0.4135
 5890TIP3    H139229   2.356   4.283   2.005 -0.7825  0.4448  1.1537
 5890TIP3    H239230   2.340   4.141   2.055 -0.5437  0.4283  1.1858
 5891TIP3   OH239231   6.688   2.777   0.276 -0.2672  0.0936 -0.3918
 5891TIP3    H139232   6.771   2.743   0.310 -0.3737 -0.9701 -1.1409
 5891TIP3    H239233   6.622   2.717   0.311 -0.8339  1.4430  0.9137
 5892TIP3   OH239234   5.996   2.200   8.410  0.2712  0.2029  0.4122
 5892TIP3    H139235   5.917   2.153   8.436  0.2291  0.2032  0.2837
 5892TIP3    H239236   6.068   2.148   8.445  0.2569 -0.3647 -0.3825
 5893TIP3   OH239237   5.960   1.747   1.090  0.1109  0.8110 -0.4816
 5893TIP3    H139238   6.014   1.813   1.134  0.5312 -0.0967  0.4065
 5893TIP3    H239239   6.010   1.666   1.098 -0.0726  0.4988 -2.1673
 5894TIP3   OH239240   3.624   6.481   7.558 -0.1398  1.1747 -0.2109
 5894TIP3    H139241   3.598   6.573   7.563  1.1024  1.5028  0.8851
 5894TIP3    H239242   3.711   6.484   7.519  1.0479  0.7434  2.2162
 5895TIP3   OH239243   2.459   3.287   1.805 -0.4476  0.4279 -0.2753
 5895TIP3    H139244   2.552   3.265   1.816 -0.5385  0.2499  0.1547
 5895TIP3    H239245   2.423   3.282   1.893 -1.0022 -0.1103 -0.5289
 5896TIP3   OH239246   4.747   0.345   1.166 -0.1175  0.2254 -0.5236
 5896TIP3    H139247   4.724   0.404   1.238  1.7670  0.6575 -0.2178
 5896TIP3    H239248   4.667   0.295   1.149 -0.6314  0.1757  1.8013
 5897TIP3   OH239249   3.793   0.057   6.825 -0.0182  0.9526 -0.0092
 5897TIP3    H139250   3.767   0.133   6.773 -0.1972  0.3346 -0.8496
 5897TIP3    H239251   3.854   0.009   6.768 -1.3698 -0.5300 -0.2902
 5898TIP3   OH239252   1.190   4.236   0.943  0.0930 -0.4463 -0.5577
 5898TIP3    H139253   1.192   4.141   0.929  2.0013 -0.4088 -0.8249
 5898TIP3    H239254   1.279   4.257   0.971 -0.0142  1.4206 -1.4952
 5899TIP3   OH239255   1.583   1.855   1.739  0.1337 -0.4093 -0.0183
 5899TIP3    H139256   1.651   1.801   1.699  1.0537  0.1733  0.6964
 5899TIP3    H239257   1.631   1.910   1.801 -0.7392  1.3427 -0.8336
 5900TIP3   OH239258   1.974   6.485   1.496 -0.3701 -0.3417 -0.6518
 5900TIP3    H139259   2.019   6.404   1.519  0.8136  0.2819 -0.6890
 5900TIP3    H239260   2.042   6.552   1.499 -1.3823  0.7058 -0.3359
 5901TIP3   OH239261   1.114   5.215   7.065 -0.1723 -0.2326  0.3138
 5901TIP3    H139262   1.074   5.191   6.981  1.4056 -1.2759 -0.1830
 5901TIP3    H239263   1.043   5.208   7.128 -1.1302 -0.5538 -0.7535
 5902TIP3   OH239264   1.406   2.633   7.388 -0.0476 -0.2289  0.4964
 5902TIP3    H139265   1.334   2.673   7.436  1.0701  0.0551  2.0285
 5902TIP3    H239266   1.483   2.650   7.442  0.9870 -1.5824 -0.4767
 5903TIP3   OH239267   3.861   4.849   8.293  0.3805  0.1675 -0.6746
 5903TIP3    H139268   3.925   4.920   8.292  1.7553 -1.0118 -0.2374
 5903TIP3    H239269   3.781   4.889   8.328  0.9174  1.6297 -1.0515
 5904TIP3   OH239270   0.988   5.815   0.077  0.4986  0.1051  0.4493
 5904TIP3    H139271   1.028   5.800   0.163  2.9751  0.3461 -0.5673
 5904TIP3    H239272   1.063   5.834   0.019 -1.1995  1.2937 -1.4793
 5905TIP3   OH239273   6.268   4.214   1.298  0.5704 -1.0608  0.3017
 5905TIP3    H139274   6.323   4.210   1.377  1.3528 -0.9254 -0.2249
 5905TIP3    H239275   6.189   4.165   1.322  0.0303  0.4461  1.7544
 5906TIP3   OH239276   0.327   1.498   7.590 -0.4832 -0.0169 -0.2364
 5906TIP3    H139277   0.248   1.543   7.620 -0.4684 -0.1683  0.0296
 5906TIP3    H239278   0.387   1.502   7.664 -0.9456 -1.6006  0.2659
 5907TIP3   OH239279   1.604   6.316   8.288 -0.1727 -0.2084 -0.0702
 5907TIP3    H139280   1.521   6.296   8.331  0.5616 -2.4279  0.4465
 5907TIP3    H239281   1.611   6.251   8.218  0.5990  0.6895 -0.8549
 5908TIP3   OH239282   2.050   2.491   7.486  0.1650 -0.0710  0.3107
 5908TIP3    H139283   2.097   2.521   7.408  0.7754 -0.0101  0.6968
 5908TIP3    H239284   2.076   2.399   7.495  0.5605  0.0794  0.7702
 5909TIP3   OH239285   5.628   4.742   8.848 -0.3122 -0.0503 -0.0694
 5909TIP3    H139286   5.550   4.796   8.835  0.0511  0.6675  0.6483
 5909TIP3    H239287   5.605   4.657   8.810 -1.1174  0.4193 -0.6665
 5910TIP3   OH239288   2.109   4.721   1.466 -0.0651  0.7813  0.0334
 5910TIP3    H139289   2.075   4.633   1.450  0.4143  0.5045  0.4892
 5910TIP3    H239290   2.149   4.746   1.383  1.0690 -0.0251  0.3121
 5911TIP3   OH239291   3.819   2.808   6.319 -0.2415 -0.6749 -0.3102
 5911TIP3    H139292   3.730   2.839   6.298 -0.1463  0.2580  0.6069
 5911TIP3    H239293   3.864   2.886   6.351  0.0347 -1.7165  2.0236
 5912TIP3   OH239294   4.837   6.235   6.926 -0.0491 -0.3974  0.2356
 5912TIP3    H139295   4.886   6.233   6.844 -0.8152 -0.1750 -0.2314
 5912TIP3    H239296   4.823   6.143   6.947 -3.3974 -0.5774 -2.0621
 5913TIP3   OH239297   2.436   4.221   7.541  0.0482 -0.0444  0.0434
 5913TIP3    H139298   2.517   4.204   7.494  0.5510  1.1173  0.4497
 5913TIP3    H239299   2.371   4.235   7.473  0.4033 -0.0291 -0.2950
 5914TIP3   OH239300   0.792   0.868   7.540 -0.0676 -0.1905 -0.4927
 5914TIP3    H139301   0.709   0.900   7.503  0.2487  1.1008 -0.1277
 5914TIP3    H239302   0.790   0.895   7.631  1.0013  0.3596 -0.6211
 5915TIP3   OH239303   4.933   5.493   1.547 -0.0622  0.4503  0.7385
 5915TIP3    H139304   4.911   5.535   1.464  3.6798  4.0004  1.1770
 5915TIP3    H239305   4.986   5.417   1.522  0.6735  1.2402 -0.2309
 5916TIP3   OH239306   2.464   4.134   0.047  0.3937  0.5935  0.6736
 5916TIP3    H139307   2.502   4.149   0.133  1.2062 -0.8103  0.5845
 5916TIP3    H239308   2.539   4.130  -0.012  0.2352 -2.5999  0.5412
 5917TIP3   OH239309   2.410   5.095   7.074  0.2655  0.6934  1.0090
 5917TIP3    H139310   2.426   5.021   7.132 -0.5049  1.0215  1.6525
 5917TIP3    H239311   2.316   5.092   7.056  0.7466 -0.7037 -2.0081
 5918TIP3   OH239312   1.098   3.603   7.263  0.2719 -0.2933  0.1336
 5918TIP3    H139313   1.157   3.563   7.199 -1.4354 -1.7473 -0.6310
 5918TIP3    H239314   1.025   3.636   7.210 -0.4111 -0.0857  1.1853
 5919TIP3   OH239315   4.717   1.483   7.886 -0.4685 -0.1126  0.2442
 5919TIP3    H139316   4.707   1.571   7.850  0.7653 -0.7437 -1.8119
 5919TIP3    H239317   4.650   1.478   7.955 -0.5890  2.3903  0.4239
 5920TIP3   OH239318   6.376   6.639   1.922  0.2706 -0.3743 -0.5372
 5920TIP3    H139319   6.435   6.647   1.997 -1.0398  0.3310  0.4501
 5920TIP3    H239320   6.299   6.594   1.957 -0.4137  0.0862 -1.4158
 5921TIP3   OH239321   1.246   6.179   1.013  0.1966  0.1329 -0.2010
 5921TIP3    H139322   1.286   6.188   1.100  1.5259 -0.1015 -0.7565
 5921TIP3    H239323   1.152   6.173   1.030  0.4171  0.2646  1.2040
 5922TIP3   OH239324   1.204   6.029   7.285 -0.2046 -0.0028  0.4779
 5922TIP3    H139325   1.144   5.974   7.336  0.1915  0.4851  1.5024
 5922TIP3    H239326   1.147   6.087   7.234 -0.6091  0.0058  0.9397
 5923TIP3   OH239327   3.946   6.682   1.823 -0.2229  0.0497 -0.2218
 5923TIP3    H139328   4.025   6.726   1.790  0.5278 -0.5634  0.6985
 5923TIP3    H239329   3.921   6.733   1.900  2.2933 -2.5294  2.5937
 5924TIP3   OH239330   2.566   1.368   7.044  0.3759  0.8451 -0.0787
 5924TIP3    H139331   2.592   1.414   7.124 -0.7103 -1.5414  1.7944
 5924TIP3    H239332   2.474   1.391   7.032 -0.7686 -1.9573  1.9682
 5925TIP3   OH239333   5.438   5.436   8.534  0.4797 -0.0833 -0.0685
 5925TIP3    H139334   5.346   5.433   8.560  0.7488  1.2666  1.1979
 5925TIP3    H239335   5.478   5.361   8.578 -0.0833 -0.9381 -0.9880
 5926TIP3   OH239336   6.150   0.818   0.552 -0.2102 -0.0243  0.8446
 5926TIP3    H139337   6.127   0.735   0.594 -0.1959  0.4491  1.8033
 5926TIP3    H239338   6.132   0.803   0.459 -2.2858 -0.4053  1.2590
 5927TIP3   OH239339   3.814   1.512   0.973  0.1736  0.4345  0.1146
 5927TIP3    H139340   3.813   1.601   0.938  1.3451 -0.2889 -1.8807
 5927TIP3    H239341   3.902   1.502   1.010  0.5579 -0.3619 -0.9879
 5928TIP3   OH239342   2.340   5.596   1.137  0.5937 -0.3863 -0.1604
 5928TIP3    H139343   2.323   5.507   1.169  1.1570 -0.6775 -0.6481
 5928TIP3    H239344   2.271   5.649   1.177  0.7651 -0.8847  0.8297
 5929TIP3   OH239345   2.128   6.531   1.769  0.3072 -0.3713  0.4298
 5929TIP3    H139346   2.124   6.467   1.840  1.0208  0.0525  0.8536
 5929TIP3    H239347   2.049   6.584   1.780 -1.6528 -2.6556 -1.3819
 5930TIP3   OH239348   1.896   2.888   0.033  0.5307  0.0203  0.2015
 5930TIP3    H139349   1.936   2.890  -0.055  1.7080 -2.0984  0.6046
 5930TIP3    H239350   1.802   2.896   0.016  0.5541 -2.1061 -1.4865
 5931TIP3   OH239351   6.292   4.985   7.535  0.3424  0.4598  0.0520
 5931TIP3    H139352   6.212   4.960   7.489  0.1658  0.2573  0.4642
 5931TIP3    H239353   6.269   5.065   7.581 -0.5801 -1.1882  2.6380
 5932TIP3   OH239354   0.778   0.267   6.472  0.3577  0.4612  0.6141
 5932TIP3    H139355   0.835   0.224   6.408 -1.6746 -0.2425 -0.8048
 5932TIP3    H239356   0.829   0.266   6.553  2.1590 -0.5734 -0.4566
 5933TIP3   OH239357   0.536   0.434   7.958 -0.3032 -0.0768  0.3325
 5933TIP3    H139358   0.613   0.385   7.932  0.1103 -0.1541  1.6391
 5933TIP3    H239359   0.568   0.522   7.977 -0.6821  0.1266  0.0494
 5934TIP3   OH239360   5.575   4.082   8.767 -0.1742  0.3002 -0.3043
 5934TIP3    H139361   5.658   4.033   8.768  0.0006  0.5968 -0.2828
 5934TIP3    H239362   5.521   4.039   8.833  0.1800  0.4814  0.1075
 5935TIP3   OH239363   2.880   1.201   8.031  0.1859 -0.5361 -0.7020
 5935TIP3    H139364   2.862   1.210   8.124 -0.7033 -1.7702 -0.7459
 5935TIP3    H239365   2.975   1.187   8.026  0.2686 -0.2438 -0.0170
 5936TIP3   OH239366   0.806   0.662   1.778  0.1762 -1.2636 -0.3380
 5936TIP3    H139367   0.878   0.611   1.741  1.3426  1.2500 -1.7985
 5936TIP3    H239368   0.781   0.723   1.708 -1.6231 -0.3028  1.0461
 5937TIP3   OH239369   6.358   5.574   7.778 -0.0000 -0.1968 -0.4989
 5937TIP3    H139370   6.325   5.619   7.701 -1.5310 -1.2726 -0.5323
 5937TIP3    H239371   6.425   5.515   7.745  0.4135  0.4112 -0.7695
 5938TIP3   OH239372   2.961   1.304   2.275 -0.0606  0.1501 -0.6801
 5938TIP3    H139373   2.901   1.252   2.329  0.8763 -0.3821 -0.1208
 5938TIP3    H239374   2.908   1.332   2.201 -1.5284  1.2932  0.7192
 5939TIP3   OH239375   3.535   1.315   8.333 -0.2895 -0.1485 -0.3273
 5939TIP3    H139376   3.533   1.306   8.237  0.6218 -1.5841 -0.2257
 5939TIP3    H239377   3.618   1.359   8.351 -0.3573 -0.0842 -0.1753
 5940TIP3   OH239378   3.248   2.438   1.042  0.1179  0.1609  0.1316
 5940TIP3    H139379   3.294   2.355   1.049 -0.7395 -0.2345  1.6888
 5940TIP3    H239380   3.172   2.428   1.099 -0.6032  1.6317 -0.5042
 5941TIP3   OH239381   5.803   1.344   1.599  0.1461 -0.0299  0.4516
 5941TIP3    H139382   5.778   1.254   1.623  1.6891 -0.9086 -1.0421
 5941TIP3    H239383   5.893   1.353   1.630  0.1984  0.8105  0.0666
 5942TIP3   OH239384   4.497   0.802   1.109 -0.0402 -0.1320 -0.3204
 5942TIP3    H139385   4.441   0.734   1.147 -1.1045  0.7711 -0.1886
 5942TIP3    H239386   4.522   0.768   1.024  1.6904 -1.8322  0.7701
 5943TIP3   OH239387   1.570   1.629   7.414 -0.5165 -0.2039 -0.0953
 5943TIP3    H139388   1.548   1.651   7.504 -0.6762 -1.1465  0.1037
 5943TIP3    H239389   1.581   1.534   7.414  1.3899 -0.0393 -0.6512
 5944TIP3   OH239390   0.806   5.258   1.126 -0.5610 -0.0720 -0.8032
 5944TIP3    H139391   0.812   5.184   1.186 -1.8369  0.5278  0.0969
 5944TIP3    H239392   0.732   5.237   1.069 -0.5618  0.2584 -0.9258
 5945TIP3   OH239393   0.627   1.709   7.542 -0.6124  0.0696 -0.3414
 5945TIP3    H139394   0.604   1.638   7.483  1.0142 -0.0041 -0.9434
 5945TIP3    H239395   0.702   1.676   7.592  0.0970  1.2876 -0.5433
 5946TIP3   OH239396   1.411   5.593   0.885  0.6132  0.1960 -0.2754
 5946TIP3    H139397   1.467   5.641   0.946  1.6358 -0.1221 -0.9222
 5946TIP3    H239398   1.380   5.659   0.823  0.9394  0.2535 -0.3826
 5947TIP3   OH239399   5.186   2.117   6.749  0.0269  0.1969 -0.3124
 5947TIP3    H139400   5.173   2.179   6.677 -0.1160  0.1297 -0.3451
 5947TIP3    H239401   5.156   2.033   6.713  0.2989  0.0934 -0.2978
 5948TIP3   OH239402   6.054   3.460   7.206  0.9423  0.5545 -0.4102
 5948TIP3    H139403   6.109   3.445   7.129 -0.0964  0.4417 -1.1405
 5948TIP3    H239404   6.075   3.550   7.232  1.8350  0.3486 -0.3634
 5949TIP3   OH239405   0.083   5.800   7.855 -0.4361  0.1743 -0.1095
 5949TIP3    H139406   0.005   5.760   7.815 -0.2853  0.2320 -0.4681
 5949TIP3    H239407   0.086   5.889   7.819 -0.8228  0.5547  0.7595
 5950TIP3   OH239408   1.734   4.216   2.138  0.0871 -0.0180 -0.2754
 5950TIP3    H139409   1.790   4.152   2.181  0.0309 -0.6339 -1.1029
 5950TIP3    H239410   1.774   4.230   2.053  0.2922  1.3203  0.0127
 5951TIP3   OH239411   6.387   1.354   1.315  0.3894  0.2085  0.3788
 5951TIP3    H139412   6.292   1.366   1.324  0.1639  0.8484 -2.0856
 5951TIP3    H239413   6.425   1.409   1.384 -1.0076  3.1551 -1.0268
 5952TIP3   OH239414   5.657   4.482   6.976 -0.2222 -0.3993 -0.1725
 5952TIP3    H139415   5.654   4.561   6.922  0.6291 -0.1279  0.1655
 5952TIP3    H239416   5.691   4.512   7.060 -0.2240 -1.0703  0.0721
 5953TIP3   OH239417   4.599   4.711   1.919 -0.0948  0.7886  0.0924
 5953TIP3    H139418   4.562   4.648   1.858 -0.0770  1.2854 -0.4352
 5953TIP3    H239419   4.546   4.701   1.999  0.8969 -0.9996  0.5858
 5954TIP3   OH239420   2.214   2.349   1.586 -0.4705  0.0273  0.0934
 5954TIP3    H139421   2.130   2.327   1.627  0.2908 -3.0477  0.2650
 5954TIP3    H239422   2.275   2.357   1.659 -0.1307 -0.3008 -0.1507
 5955TIP3   OH239423   1.284   3.556   7.613  0.0117  0.4656  0.4514
 5955TIP3    H139424   1.314   3.526   7.527 -1.6078  3.2052 -1.2248
 5955TIP3    H239425   1.304   3.483   7.672 -0.2002 -2.2247 -2.5002
 5956TIP3   OH239426   6.371   6.181   2.644 -0.2336  0.4089  0.3009
 5956TIP3    H139427   6.437   6.112   2.644  0.3333  0.9377  0.7800
 5956TIP3    H239428   6.312   6.157   2.716  0.7534  1.1392  1.3903
 5957TIP3   OH239429   5.365   3.581   0.907  0.0738  0.2089 -0.5571
 5957TIP3    H139430   5.283   3.604   0.950  0.3001 -0.5445  0.3084
 5957TIP3    H239431   5.367   3.485   0.909  0.5703  0.1925 -1.3430
 5958TIP3   OH239432   6.700   6.073   7.985 -0.5046  0.5700  0.4636
 5958TIP3    H139433   6.704   6.155   7.935 -0.9294 -0.0450 -0.6174
 5958TIP3    H239434   6.779   6.074   8.039  0.9548  0.4406 -1.5464
 5959TIP3   OH239435   0.890   3.260   2.489  0.5580 -0.2827  0.2557
 5959TIP3    H139436   0.978   3.284   2.459  0.7118 -0.8196  0.2575
 5959TIP3    H239437   0.886   3.165   2.477 -0.2166 -0.1938 -0.2374
 5960TIP3   OH239438   3.357   2.850   7.587 -1.0026 -0.0651 -0.1655
 5960TIP3    H139439   3.422   2.896   7.535 -0.8334  1.2095  1.0984
 5960TIP3    H239440   3.401   2.833   7.671 -2.4228  1.3083  0.9076
 5961TIP3   OH239441   3.818   3.569   6.698  0.5148 -0.2703 -0.0346
 5961TIP3    H139442   3.775   3.518   6.767 -0.4850  1.0534  0.3677
 5961TIP3    H239443   3.746   3.604   6.645  1.2436 -0.6005 -1.2782
 5962TIP3   OH239444   4.880   1.202   7.130 -0.0795 -0.8214 -0.7156
 5962TIP3    H139445   4.843   1.128   7.178  0.2513 -0.6230 -0.1497
 5962TIP3    H239446   4.822   1.213   7.055 -0.5370 -1.2086 -0.4227
 5963TIP3   OH239447   4.621   5.182   1.681 -0.4315 -0.0194  0.5668
 5963TIP3    H139448   4.609   5.131   1.762  1.4571 -0.1803  0.7772
 5963TIP3    H239449   4.605   5.119   1.611  0.2747 -0.5068  0.8298
 5964TIP3   OH239450   3.001   6.339   7.605 -0.5473  0.1324 -0.0236
 5964TIP3    H139451   2.989   6.256   7.651  1.8048  0.3276  1.0824
 5964TIP3    H239452   3.095   6.355   7.609 -0.8848  2.6255 -0.6244
 5965TIP3   OH239453   1.983   0.016   1.828  0.4362 -0.2652 -0.2829
 5965TIP3    H139454   1.909   0.023   1.888  1.7729  2.5156  1.2419
 5965TIP3    H239455   2.050  -0.030   1.878  0.5240 -0.7512 -0.8360
 5966TIP3   OH239456   3.258   3.212   0.963  0.6414  0.0777  0.7928
 5966TIP3    H139457   3.255   3.117   0.960 -1.3018  0.0525  1.8253
 5966TIP3    H239458   3.330   3.236   0.905  0.3574 -1.9515 -0.4932
 5967TIP3   OH239459   2.098   5.002   0.488 -0.0656 -0.8477 -0.3102
 5967TIP3    H139460   2.015   4.966   0.459 -0.3158 -1.0759  0.6479
 5967TIP3    H239461   2.084   5.025   0.580  1.3894 -2.4823  0.4017
 5968TIP3   OH239462   3.964   5.756   8.012  0.6177  0.2012  0.3774
 5968TIP3    H139463   3.944   5.781   8.102  1.8069  1.2925  0.3664
 5968TIP3    H239464   4.051   5.793   7.996  1.2996 -1.6828 -0.5603
 5969TIP3   OH239465   4.330   2.806   8.326 -0.7540 -0.1256 -0.1402
 5969TIP3    H139466   4.412   2.757   8.328  0.0976  1.2005 -0.8227
 5969TIP3    H239467   4.285   2.773   8.248  0.2868  0.8519 -1.1977
 5970TIP3   OH239468   1.250   0.929   2.314 -0.7331  0.0840  0.0672
 5970TIP3    H139469   1.252   0.921   2.410  0.6203  2.0499  0.2672
 5970TIP3    H239470   1.250   0.838   2.283  0.0988 -0.6235  1.9329
 5971TIP3   OH239471   0.473   3.059   7.584 -0.8623  0.1234 -0.5233
 5971TIP3    H139472   0.405   3.098   7.640 -1.1534 -0.6996 -0.2961
 5971TIP3    H239473   0.542   3.034   7.645 -0.9058 -0.1967 -0.6031
 5972TIP3   OH239474   5.269   5.184   8.345 -0.3343 -0.0521  0.0318
 5972TIP3    H139475   5.291   5.092   8.329  0.3176  0.3229 -1.4669
 5972TIP3    H239476   5.303   5.230   8.268 -1.9087  1.2667  0.0672
 5973TIP3   OH239477   1.067   0.337   8.019 -0.1726  0.5149 -0.0655
 5973TIP3    H139478   1.016   0.257   8.010 -1.4279  1.2521  0.1640
 5973TIP3    H239479   1.127   0.337   7.944 -0.5646 -0.3421 -0.3869
 5974TIP3   OH239480   3.551   1.338   7.681  0.4051  0.4483 -0.0409
 5974TIP3    H139481   3.630   1.381   7.713  0.3340  0.7073 -0.2123
 5974TIP3    H239482   3.569   1.321   7.588  1.0553 -1.3018  0.3633
 5975TIP3   OH239483   0.243   0.509   6.680  0.0007 -0.3989  0.6321
 5975TIP3    H139484   0.257   0.603   6.689 -0.5237 -0.2171 -0.3158
 5975TIP3    H239485   0.187   0.500   6.604  0.3458 -1.5119  0.4847
 5976TIP3   OH239486   4.416   1.818   7.354  0.0918 -0.2491  0.4128
 5976TIP3    H139487   4.437   1.894   7.301 -0.2268  0.0912  0.7732
 5976TIP3    H239488   4.341   1.844   7.407  0.9398 -0.2762  1.6795
 5977TIP3   OH239489   1.488   0.683   2.246 -0.3240  0.0032  0.0084
 5977TIP3    H139490   1.534   0.759   2.283 -1.4590 -0.0593  1.6329
 5977TIP3    H239491   1.551   0.611   2.252  0.4146  0.5789 -0.6369
 5978TIP3   OH239492   6.179   5.374   8.788  0.1249  0.0717 -0.5423
 5978TIP3    H139493   6.146   5.285   8.797  2.0896 -0.6252  0.2744
 5978TIP3    H239494   6.132   5.409   8.712 -1.9536 -1.0275  0.1414
 5979TIP3   OH239495   2.379   3.611   0.251  0.1069 -0.1386  0.0958
 5979TIP3    H139496   2.308   3.547   0.248  0.2265 -0.2494 -1.0327
 5979TIP3    H239497   2.349   3.683   0.194 -0.0737  0.8673  1.4245
 5980TIP3   OH239498   0.521   0.261   1.927  0.8687 -0.0786  0.2425
 5980TIP3    H139499   0.542   0.235   2.017  0.1739  0.2250  0.4997
 5980TIP3    H239500   0.426   0.277   1.928  0.5689 -1.5744 -0.9215
 5981TIP3   OH239501   5.162   0.965   1.037  0.7145  0.0599 -0.0303
 5981TIP3    H139502   5.216   0.951   0.960 -0.4344 -2.2464 -0.5116
 5981TIP3    H239503   5.155   0.879   1.078 -1.4498  0.5200  0.7492
 5982TIP3   OH239504   1.351   1.956   7.271  0.1199  0.4928  0.0028
 5982TIP3    H139505   1.297   1.991   7.342  0.4580  0.7980  0.1136
 5982TIP3    H239506   1.310   1.873   7.248  1.7347 -1.1817  2.6664
 5983TIP3   OH239507   0.089   1.172   1.925 -0.7080 -0.1365 -0.1124
 5983TIP3    H139508   0.016   1.215   1.881 -0.8209  0.1127  0.3146
 5983TIP3    H239509   0.151   1.152   1.855  0.1105  2.2186 -0.1180
 5984TIP3   OH239510   5.645   1.569   7.867 -0.4184  0.2352  0.0017
 5984TIP3    H139511   5.720   1.533   7.915  0.1523  1.1926 -0.1332
 5984TIP3    H239512   5.649   1.529   7.781  0.2733  0.6838 -0.1838
 5985TIP3   OH239513   4.283   5.357   8.636  0.5978 -0.3368  0.1832
 5985TIP3    H139514   4.295   5.341   8.542  0.1845  0.2754  0.0211
 5985TIP3    H239515   4.371   5.360   8.672  0.7907  0.2981 -0.3314
 5986TIP3   OH239516   1.920   4.596   6.864  0.1897 -0.3437  0.5986
 5986TIP3    H139517   2.011   4.598   6.893  0.7403 -0.8373 -1.0196
 5986TIP3    H239518   1.887   4.684   6.885  0.4475 -0.7091  2.8415
 5987TIP3   OH239519   3.167   3.524   0.922 -0.0179 -0.0610  0.5596
 5987TIP3    H139520   3.171   3.442   0.873  0.4169 -0.1770  0.7825
 5987TIP3    H239521   3.077   3.527   0.957 -0.3791  0.1018 -0.3577
 5988TIP3   OH239522   2.075   0.545   7.834 -0.7923 -0.3927 -0.7320
 5988TIP3    H139523   2.170   0.533   7.826 -0.4582 -0.9750  2.6513
 5988TIP3    H239524   2.062   0.639   7.824 -0.0883 -0.4348 -2.4491
 5989TIP3   OH239525   5.654   3.350   0.181  0.3298 -0.0520  0.1682
 5989TIP3    H139526   5.588   3.361   0.250 -1.0767 -0.5060 -1.0560
 5989TIP3    H239527   5.627   3.411   0.112  0.3485 -1.2516 -0.9415
 5990TIP3   OH239528   1.932   6.050   0.841 -0.3400 -0.6273  0.1074
 5990TIP3    H139529   1.885   6.134   0.850 -0.8720 -0.8747 -0.2841
 5990TIP3    H239530   1.921   6.008   0.926 -0.5386 -0.5283  0.1326
 5991TIP3   OH239531   1.844   2.619   0.262  0.2328 -0.2507 -0.3677
 5991TIP3    H139532   1.899   2.604   0.186  0.4122  0.0018 -0.2847
 5991TIP3    H239533   1.891   2.578   0.335  1.0572  1.2630 -0.0070
 5992TIP3   OH239534   3.733   6.653   0.092 -0.8539 -0.2199 -0.8970
 5992TIP3    H139535   3.745   6.570   0.138 -0.0657 -0.2334 -1.1227
 5992TIP3    H239536   3.817   6.671   0.051 -0.9662  0.7686 -0.7358
 5993TIP3   OH239537   4.873   5.511   1.279 -0.1842  0.0233  0.4115
 5993TIP3    H139538   4.905   5.443   1.220  0.2241 -0.8865  1.6437
 5993TIP3    H239539   4.873   5.591   1.226  1.9683 -0.3855 -0.2967
 5994TIP3   OH239540   2.761   4.625   7.548  0.1293 -0.0171  0.1480
 5994TIP3    H139541   2.801   4.604   7.632 -0.5996  0.0371  0.5127
 5994TIP3    H239542   2.667   4.621   7.564 -0.0516  1.7810 -0.1834
 5995TIP3   OH239543   5.845   6.703   1.401 -0.0020  0.2231  0.0425
 5995TIP3    H139544   5.902   6.697   1.325  2.7389  0.8570  1.8902
 5995TIP3    H239545   5.778   6.766   1.376  0.1839 -0.3721 -2.1600
 5996TIP3   OH239546   0.553   0.320   0.431  0.2132 -0.2388 -0.7427
 5996TIP3    H139547   0.490   0.294   0.498  0.4105  0.4899 -0.2621
 5996TIP3    H239548   0.558   0.245   0.372 -1.6124 -0.0576 -1.1729
 5997TIP3   OH239549   6.637   2.906   1.263  0.3718  0.3764 -0.0901
 5997TIP3    H139550   6.600   2.821   1.237  0.1422  1.0030 -1.9270
 5997TIP3    H239551   6.576   2.970   1.227  0.7681  1.3480  0.9264
 5998TIP3   OH239552   0.748   6.439   0.192 -0.7476 -0.4247  0.1460
 5998TIP3    H139553   0.801   6.498   0.139  2.7906 -1.7305  1.8548
 5998TIP3    H239554   0.658   6.471   0.182  0.1191  1.3327 -3.8497
 5999TIP3   OH239555   5.843   0.674   7.077 -0.2844 -0.3217  0.1417
 5999TIP3    H139556   5.933   0.707   7.076 -0.1549 -0.6575 -0.6866
 5999TIP3    H239557   5.812   0.688   7.166  0.1282  1.0459  0.0805
 6000TIP3   OH239558   5.047   6.626   0.545 -0.2535 -0.0968  0.4610
 6000TIP3    H139559   5.140   6.633   0.526 -0.4087 -1.8570 -1.2592
 6000TIP3    H239560   5.004   6.679   0.477 -0.5640 -0.5260  0.3193
 6001TIP3   OH239561   6.473   5.859   0.242 -0.5994 -0.0530  0.0115
 6001TIP3    H139562   6.405   5.900   0.297  0.4822  0.0061  1.3522
 6001TIP3    H239563   6.472   5.767   0.268 -2.0368 -0.6676 -1.9778
 6002TIP3   OH239564   1.397   1.673   1.820  0.5444  1.0976  0.1232
 6002TIP3    H139565   1.464   1.722   1.771 -0.5491  3.0546  0.4532
 6002TIP3    H239566   1.422   1.684   1.912  0.5366  0.6250  0.1830
 6003TIP3   OH239567   1.822   4.772   7.238 -0.7505 -0.2011 -0.1921
 6003TIP3    H139568   1.759   4.808   7.175 -0.7008  1.1338  0.4935
 6003TIP3    H239569   1.907   4.778   7.193 -0.7287  0.6605 -0.0508
 6004TIP3   OH239570   0.425   3.324   0.541 -0.0613 -0.1021  0.0605
 6004TIP3    H139571   0.406   3.267   0.467 -1.4102  0.6658 -0.2139
 6004TIP3    H239572   0.393   3.276   0.618 -0.3827 -0.1032 -0.0718
 6005TIP3   OH239573   0.123   5.745   7.336  0.1997 -0.4951  0.3594
 6005TIP3    H139574   0.089   5.665   7.295  1.7472 -0.7085 -0.5889
 6005TIP3    H239575   0.064   5.814   7.307 -0.8082 -1.1950  0.6956
 6006TIP3   OH239576   1.171   6.726   1.707 -0.0391 -0.0221  0.4454
 6006TIP3    H139577   1.134   6.814   1.704  0.5489  0.2148 -0.5238
 6006TIP3    H239578   1.124   6.677   1.639 -0.6905 -0.6015  1.2977
 6007TIP3   OH239579   3.638   1.186   1.313 -0.3025  0.2472 -0.0843
 6007TIP3    H139580   3.631   1.221   1.402  1.3076  0.6236 -0.0814
 6007TIP3    H239581   3.647   1.263   1.257  0.2230 -0.0417 -0.4085
 6008TIP3   OH239582   1.385   4.240   8.573  0.0553 -0.1111  0.3070
 6008TIP3    H139583   1.292   4.216   8.564  0.4718 -1.9750  0.4462
 6008TIP3    H239584   1.416   4.188   8.647  0.6612  2.4024  1.9398
 6009TIP3   OH239585   2.364   0.531   7.748  0.8106 -0.6486 -0.2084
 6009TIP3    H139586   2.417   0.492   7.818  0.1087  0.5341  1.0452
 6009TIP3    H239587   2.420   0.601   7.713  0.8259 -0.6712 -0.2293
 6010TIP3   OH239588   2.752   5.920   1.301 -0.3560  0.0217 -0.3201
 6010TIP3    H139589   2.724   5.829   1.290  1.2484 -0.3744 -1.4930
 6010TIP3    H239590   2.813   5.917   1.375 -0.8409  0.2973  0.1032
 6011TIP3   OH239591   4.601   1.328   1.734  0.1512  0.2563 -0.2345
 6011TIP3    H139592   4.567   1.300   1.649 -0.3093  1.5097 -0.4731
 6011TIP3    H239593   4.627   1.246   1.777 -1.7808 -0.6106 -0.6371
 6012TIP3   OH239594   3.929   5.852   1.126 -0.0069 -0.3702  0.4671
 6012TIP3    H139595   3.967   5.937   1.104  0.6293 -0.7023  0.2579
 6012TIP3    H239596   3.903   5.860   1.218 -0.1648  0.1236  0.3809
 6013TIP3   OH239597   5.689   0.269   7.379  0.0355 -0.4833  0.2708
 6013TIP3    H139598   5.646   0.251   7.296 -0.2267 -0.2547  0.3552
 6013TIP3    H239599   5.776   0.231   7.370  1.0623  2.0209 -1.1746
 6014TIP3   OH239600   5.033   4.841   7.132 -0.1031  0.0371 -0.2518
 6014TIP3    H139601   5.093   4.901   7.088 -0.4650  0.3623 -0.3108
 6014TIP3    H239602   5.019   4.881   7.218 -1.8858  1.1112 -0.9814
 6015TIP3   OH239603   1.039   4.492   8.570 -0.1119  0.4061  0.0308
 6015TIP3    H139604   0.995   4.442   8.501 -1.1427  2.6149 -1.0082
 6015TIP3    H239605   1.060   4.427   8.637 -1.2651 -1.4214 -1.2895
 6016TIP3   OH239606   4.755   1.344   0.435  0.1139  0.2153 -1.1867
 6016TIP3    H139607   4.683   1.280   0.432  0.1731  0.1214 -0.6935
 6016TIP3    H239608   4.713   1.428   0.420 -0.4706  0.4432  1.2828
 6017TIP3   OH239609   3.701   5.537   7.375  0.1647  0.4348 -0.1085
 6017TIP3    H139610   3.683   5.443   7.380  2.3448 -0.0319 -0.1794
 6017TIP3    H239611   3.712   5.554   7.281 -0.1419  0.7482 -0.0894
 6018TIP3   OH239612   1.347   0.515   0.051 -0.3713  0.6819 -0.8744
 6018TIP3    H139613   1.343   0.420   0.049  2.0255  0.5398 -0.7292
 6018TIP3    H239614   1.386   0.536   0.135 -0.4217  1.7773 -1.1075
 6019TIP3   OH239615   4.598   4.626   8.193 -0.0646  0.6249  0.0768
 6019TIP3    H139616   4.519   4.616   8.139  0.8999  0.1486 -1.3109
 6019TIP3    H239617   4.670   4.625   8.130  1.0621  1.0636  1.3090
 6020TIP3   OH239618   6.607   5.831   1.936  0.0379 -0.0803 -0.1323
 6020TIP3    H139619   6.586   5.922   1.914 -1.0679 -1.1509 -4.3799
 6020TIP3    H239620   6.702   5.831   1.946 -0.0256  1.6625  1.0926
 6021TIP3   OH239621   2.971   4.440   0.102  0.4240  0.2478 -0.0082
 6021TIP3    H139622   3.040   4.398   0.155  0.5466 -0.1044 -0.4416
 6021TIP3    H239623   2.893   4.437   0.158  0.7347  0.5701  0.4536
 6022TIP3   OH239624   4.640   3.966   1.705 -0.2690  0.3199 -0.2726
 6022TIP3    H139625   4.588   4.045   1.692 -0.2029  0.5763  0.9300
 6022TIP3    H239626   4.594   3.916   1.773 -0.3395 -0.7122 -1.0522
 6023TIP3   OH239627   2.166   5.164   8.618 -0.0160  0.5254 -0.1877
 6023TIP3    H139628   2.251   5.149   8.577 -0.5203 -0.3578 -0.9451
 6023TIP3    H239629   2.173   5.252   8.657  0.1460  1.9519 -3.1352
 6024TIP3   OH239630   5.158   5.676   1.989  0.2435 -0.4602  0.1201
 6024TIP3    H139631   5.163   5.591   2.032  2.0393  0.1230  1.1505
 6024TIP3    H239632   5.102   5.729   2.046 -0.1818 -0.6975 -0.0753
 6025TIP3   OH239633   6.208   3.892   7.620  0.2672  0.7075  0.0943
 6025TIP3    H139634   6.160   3.917   7.541  0.8873 -1.1191 -0.9113
 6025TIP3    H239635   6.142   3.890   7.689 -0.5247  1.1319 -0.6304
 6026TIP3   OH239636   2.736   2.392   1.170 -0.1641 -0.1960  0.4228
 6026TIP3    H139637   2.678   2.406   1.245 -1.7720 -1.9081 -0.4251
 6026TIP3    H239638   2.726   2.471   1.117 -2.3526 -0.7279 -0.0496
 6027TIP3   OH239639   1.936   0.335   6.800  0.1141  0.1664  0.2671
 6027TIP3    H139640   1.900   0.332   6.711 -0.4822 -0.2807  0.5108
 6027TIP3    H239641   1.858   0.337   6.856  0.4382 -1.3933  0.8348
 6028TIP3   OH239642   3.464   5.507   1.302  0.6649 -0.4588  0.0575
 6028TIP3    H139643   3.482   5.425   1.349 -0.7682 -1.1661 -0.5702
 6028TIP3    H239644   3.498   5.492   1.214  1.7134  0.1949  0.3262
 6029TIP3   OH239645   2.840   1.094   0.125 -0.5468 -0.0951 -0.6961
 6029TIP3    H139646   2.828   1.170   0.067 -2.3726  0.4550  0.3150
 6029TIP3    H239647   2.752   1.077   0.160  0.1466 -1.6355  0.4062
 6030TIP3   OH239648   3.101   0.650   6.795  0.0313  0.1699  0.1238
 6030TIP3    H139649   3.010   0.679   6.811  0.4471  1.7874 -0.2323
 6030TIP3    H239650   3.146   0.669   6.877 -0.1485 -1.6366  0.6797
 6031TIP3   OH239651   3.543   1.196   8.589 -0.0463  0.0822 -0.5760
 6031TIP3    H139652   3.460   1.164   8.624  0.6452 -0.4698  0.6359
 6031TIP3    H239653   3.522   1.227   8.501 -2.1982  2.9800  0.8205
 6032TIP3   OH239654   2.973   5.296   7.913 -0.0631 -0.3446  0.0559
 6032TIP3    H139655   2.941   5.263   7.997  0.1906 -2.5348 -0.6415
 6032TIP3    H239656   2.894   5.320   7.864 -0.3459 -1.1818  0.0975
 6033TIP3   OH239657   1.769   1.435   7.693  0.0201 -0.2408 -0.1910
 6033TIP3    H139658   1.741   1.374   7.761 -0.1154 -0.8456 -0.7767
 6033TIP3    H239659   1.761   1.386   7.611 -0.3574  0.6572 -0.7127
 6034TIP3   OH239660   0.161   3.461   0.024  0.3659 -0.5165 -0.0972
 6034TIP3    H139661   0.141   3.553   0.005  0.1638 -0.7442 -1.0197
 6034TIP3    H239662   0.236   3.464   0.083  0.8442  0.2267 -0.7285
 6035TIP3   OH239663   4.447   5.410   7.970 -0.8775  0.1366  0.0211
 6035TIP3    H139664   4.417   5.425   8.059  1.1116 -1.5147  1.0565
 6035TIP3    H239665   4.537   5.442   7.969 -0.9233  0.3232 -1.4712
 6036TIP3   OH239666   2.406   6.511   6.551  0.3793  0.0148 -0.0366
 6036TIP3    H139667   2.383   6.577   6.617 -1.8631  0.0554 -0.7915
 6036TIP3    H239668   2.355   6.534   6.474  0.9864 -1.5327 -0.9542
 6037TIP3   OH239669   5.755   4.331   0.358  0.0935  0.0244 -0.1265
 6037TIP3    H139670   5.780   4.272   0.429  1.6631  0.0945 -0.5787
 6037TIP3    H239671   5.700   4.277   0.301  1.4952 -1.0298 -0.5295
 6038TIP3   OH239672   5.494   5.525   7.559 -0.2351  0.7658  0.2542
 6038TIP3    H139673   5.435   5.470   7.610 -0.1799  1.1767  0.7613
 6038TIP3    H239674   5.578   5.481   7.563 -0.3217  0.5942  0.1924
 6039TIP3   OH239675   1.375   5.004   8.874  0.0795  0.2598 -0.1406
 6039TIP3    H139676   1.409   4.917   8.895  2.3886  1.1432  0.0545
 6039TIP3    H239677   1.366   5.005   8.779 -3.3968 -1.2835 -0.0027
 6040TIP3   OH239678   0.711   2.491   1.348  0.5999  0.3459 -0.2563
 6040TIP3    H139679   0.762   2.425   1.396 -1.5743 -0.7314  0.6834
 6040TIP3    H239680   0.646   2.441   1.299  1.0014  1.6260 -2.2361
 6041TIP3   OH239681   0.240   6.563   6.606 -0.0849 -0.0681  0.1444
 6041TIP3    H139682   0.319   6.605   6.639  0.0001  0.6445 -0.8919
 6041TIP3    H239683   0.271   6.500   6.541 -0.2713 -1.0719  1.0150
 6042TIP3   OH239684   0.108   6.611   8.797  0.0849 -0.0773  0.1516
 6042TIP3    H139685   0.109   6.516   8.807  0.3219 -0.1463 -0.4537
 6042TIP3    H239686   0.060   6.643   8.873  3.2681 -0.4175  2.4821
 6043TIP3   OH239687   2.228   4.996   8.825  0.2073 -0.4681 -0.2733
 6043TIP3    H139688   2.189   5.033   8.746  0.3018 -0.3237 -0.2528
 6043TIP3    H239689   2.156   4.991   8.888  0.2250 -0.1894 -0.2307
 6044TIP3   OH239690   4.193   5.747   2.336  0.1968  0.3102 -0.1437
 6044TIP3    H139691   4.289   5.750   2.326  0.4304 -1.3575  1.1483
 6044TIP3    H239692   4.179   5.724   2.427 -1.4613  0.4209 -0.3393
 6045TIP3   OH239693   5.211   6.425   7.948 -0.1497  0.0756 -0.0123
 6045TIP3    H139694   5.158   6.451   8.024  0.0116 -1.5796  0.7107
 6045TIP3    H239695   5.229   6.332   7.963  1.0570  0.0644 -1.3989
 6046TIP3   OH239696   0.512   3.070   1.342  0.4896  0.1307  0.1621
 6046TIP3    H139697   0.434   3.121   1.364  0.7358  1.1375 -1.1310
 6046TIP3    H239698   0.584   3.132   1.354  1.3354 -1.1826  2.7833
 6047TIP3   OH239699   0.963   6.442   0.712 -0.4815 -0.1272 -0.0405
 6047TIP3    H139700   1.027   6.380   0.677  1.4246  4.1565 -5.7762
 6047TIP3    H239701   0.881   6.419   0.667 -0.9451 -0.9014  1.1595
 6048TIP3   OH239702   4.663   1.001   2.503 -0.3699  0.1251  0.2011
 6048TIP3    H139703   4.645   1.092   2.479 -1.2824 -0.6380 -2.3759
 6048TIP3    H239704   4.731   1.007   2.570 -0.9637  2.7139  0.6779
 6049TIP3   OH239705   5.849   6.545   1.767  0.8186  0.1620  0.7299
 6049TIP3    H139706   5.773   6.563   1.822 -0.7916  0.9249 -1.5773
 6049TIP3    H239707   5.862   6.451   1.773  0.4300  0.1760  2.0479
 6050TIP3   OH239708   6.504   1.475   8.135  0.1440  0.1100 -0.0068
 6050TIP3    H139709   6.504   1.565   8.168 -0.6247  0.7310 -1.5352
 6050TIP3    H239710   6.561   1.478   8.058  0.3126 -0.7743  0.0769
 6051TIP3   OH239711   3.977   3.152   2.232  0.2352  0.3677  0.5626
 6051TIP3    H139712   4.070   3.131   2.240 -0.3551 -2.5043  1.4400
 6051TIP3    H239713   3.934   3.085   2.286 -2.4210  0.5355 -1.1700
 6052TIP3   OH239714   6.505   1.630   1.662 -0.3470  0.6518 -0.2639
 6052TIP3    H139715   6.578   1.586   1.706 -0.5482  0.6660  0.0797
 6052TIP3    H239716   6.479   1.700   1.721 -1.9640 -0.5949  0.5682
 6053TIP3   OH239717   2.704   5.003   7.988  0.1271 -0.2934 -0.1046
 6053TIP3    H139718   2.667   4.952   8.059  0.3706 -0.6677 -0.2436
 6053TIP3    H239719   2.662   5.089   7.995 -0.8612 -0.7493 -0.3384
 6054TIP3   OH239720   6.172   2.978   0.705 -0.1687  0.0226 -0.4889
 6054TIP3    H139721   6.227   3.009   0.634  0.4358 -2.0515 -1.0059
 6054TIP3    H239722   6.218   2.901   0.739 -0.6014  0.7429  1.9515
 6055TIP3   OH239723   0.050   0.178   8.785  0.2239  0.2868 -0.2450
 6055TIP3    H139724  -0.045   0.190   8.779  0.1747  0.0140 -0.0389
 6055TIP3    H239725   0.060   0.097   8.836  0.5836  0.8959  0.6715
 6056TIP3   OH239726   1.448   0.562   1.879  0.3125 -0.2936 -0.2893
 6056TIP3    H139727   1.397   0.630   1.922 -0.1406 -0.3357 -0.7476
 6056TIP3    H239728   1.392   0.484   1.883  0.8323 -0.6498  0.2492
 6057TIP3   OH239729   3.391   2.306   1.332 -0.2512  0.2242  0.9131
 6057TIP3    H139730   3.369   2.217   1.305  0.0988  0.5390 -0.5025
 6057TIP3    H239731   3.319   2.333   1.388 -0.6969 -0.7022  0.8000
 6058TIP3   OH239732   1.851   2.114   7.235  0.4027  0.2055  0.0511
 6058TIP3    H139733   1.928   2.110   7.292  0.5621 -0.7381 -0.2216
 6058TIP3    H239734   1.871   2.055   7.163 -0.7557 -0.4056  0.2065
 6059TIP3   OH239735   2.051   2.281   8.439 -0.5400 -0.0996 -0.2583
 6059TIP3    H139736   2.120   2.233   8.394  0.0674  0.2025  0.3430
 6059TIP3    H239737   1.981   2.217   8.451  0.1381 -0.7537  0.2520
 6060TIP3   OH239738   0.452   6.601   2.661  0.8608  0.2062  0.0837
 6060TIP3    H139739   0.486   6.666   2.600  0.1866  1.3086  0.8548
 6060TIP3    H239740   0.506   6.611   2.740  0.7535 -0.1738  0.2099
 6061TIP3   OH239741   4.533   1.875   0.672 -0.2352 -0.0098 -0.3800
 6061TIP3    H139742   4.513   1.880   0.765 -0.1463 -2.5294 -0.1487
 6061TIP3    H239743   4.447   1.879   0.628 -0.3532  0.2770 -0.1184
 6062TIP3   OH239744   6.554   6.018   1.295  0.1462  0.0842  0.2651
 6062TIP3    H139745   6.519   6.107   1.307  0.3288  0.2367 -0.2965
 6062TIP3    H239746   6.504   5.964   1.356  2.7975  1.2142  3.7732
 6063TIP3   OH239747   6.715   3.293   1.346 -0.3121 -0.4064 -0.2972
 6063TIP3    H139748   6.655   3.265   1.414  1.9505 -4.0385  0.4951
 6063TIP3    H239749   6.688   3.245   1.268 -0.2651  0.3233 -0.7763
 6064TIP3   OH239750   3.040   2.429   0.498  0.6337  0.1449 -0.1608
 6064TIP3    H139751   3.110   2.423   0.433  1.5259  0.3843  0.7611
 6064TIP3    H239752   3.081   2.404   0.581 -0.4124  0.1331  0.3689
 6065TIP3   OH239753   3.100   0.465   7.079  0.1831 -0.3115  0.7398
 6065TIP3    H139754   3.114   0.373   7.098  0.1894 -1.1893 -2.8757
 6065TIP3    H239755   3.175   0.491   7.026 -1.6190  0.5929 -1.5733
 6066TIP3   OH239756   0.782   0.620   2.505  0.7805 -0.2287  0.6377
 6066TIP3    H139757   0.730   0.551   2.463  2.0865 -0.6671 -0.3476
 6066TIP3    H239758   0.723   0.695   2.509  0.1862 -0.5728 -0.8433
 6067TIP3   OH239759   1.007   2.880   7.057  0.0894  0.7714  0.3016
 6067TIP3    H139760   0.993   2.957   7.003 -0.4726  0.5707  0.1590
 6067TIP3    H239761   0.973   2.905   7.143 -1.1036  0.3188 -0.0192
 6068TIP3   OH239762   4.832   3.767   1.245 -0.1544 -0.3524 -0.3623
 6068TIP3    H139763   4.835   3.802   1.334  0.5317  0.0328 -0.5339
 6068TIP3    H239764   4.746   3.794   1.212 -0.5430 -0.7645  0.2822
 6069TIP3   OH239765   0.157   3.905   7.815  0.5896  0.0761 -0.7734
 6069TIP3    H139766   0.240   3.903   7.863  0.1507 -0.8735 -0.0106
 6069TIP3    H239767   0.093   3.873   7.878 -0.6830  2.3578 -0.7903
 6070TIP3   OH239768   6.155   5.193   1.637 -0.3851  0.1698  0.5596
 6070TIP3    H139769   6.138   5.178   1.730  0.5841 -1.3808  0.5365
 6070TIP3    H239770   6.096   5.133   1.592 -1.4186  1.4871  0.1158
 6071TIP3   OH239771   3.411   4.410   7.345  0.1075 -0.1795  0.0158
 6071TIP3    H139772   3.347   4.350   7.383 -1.4850 -0.1131 -2.3351
 6071TIP3    H239773   3.359   4.484   7.314  1.8878  1.9362  1.7538
 6072TIP3   OH239774   3.835   1.585   8.218  0.0633 -0.2553 -0.6570
 6072TIP3    H139775   3.821   1.491   8.218  2.5421 -0.6895 -0.9005
 6072TIP3    H239776   3.919   1.597   8.263  1.3056  1.5196 -3.1833
 6073TIP3   OH239777   3.890   3.037   7.898 -0.2705  0.1540 -0.1376
 6073TIP3    H139778   3.822   3.029   7.964 -1.2603 -0.8520 -1.2394
 6073TIP3    H239779   3.847   3.016   7.815  1.6423 -1.9303 -0.7232
 6074TIP3   OH239780   4.648   1.692   8.261 -0.6173 -0.2044  0.3266
 6074TIP3    H139781   4.721   1.685   8.199 -0.8053  0.3704  0.0282
 6074TIP3    H239782   4.659   1.618   8.320  0.6768  0.3207  0.7829
 6075TIP3   OH239783   5.828   2.033   1.149 -0.0851  0.1209  0.0584
 6075TIP3    H139784   5.873   2.033   1.065 -2.2608 -0.3350 -1.1641
 6075TIP3    H239785   5.736   2.016   1.128 -0.5288 -1.1234  2.6179
 6076TIP3   OH239786   4.021   5.690   2.525  0.3826  0.0383 -0.5409
 6076TIP3    H139787   3.992   5.747   2.597 -3.0531 -2.0618 -0.0413
 6076TIP3    H239788   3.953   5.699   2.459 -0.2614 -3.2603 -0.4754
 6077TIP3   OH239789   6.456   2.239   7.437 -0.5041  0.0687 -0.3978
 6077TIP3    H139790   6.381   2.249   7.495  0.7702  1.7954  1.0643
 6077TIP3    H239791   6.509   2.317   7.453  0.1320  0.4189 -3.6068
 6078TIP3   OH239792   3.114   2.791   1.920 -0.6408 -0.1169 -0.6310
 6078TIP3    H139793   3.202   2.771   1.951 -0.6475  0.4865 -0.1853
 6078TIP3    H239794   3.108   2.887   1.926 -1.3527 -0.1579 -0.5690
 6079TIP3   OH239795   2.865   6.566   7.581  0.3909 -0.5744 -0.3969
 6079TIP3    H139796   2.896   6.508   7.650 -1.6549 -2.1019 -0.6675
 6079TIP3    H239797   2.829   6.642   7.628  0.6504 -0.7616  0.1119
 6080TIP3   OH239798   2.558   4.789   6.935 -0.1996 -0.3349 -0.0983
 6080TIP3    H139799   2.569   4.716   6.874  1.4420 -0.1548 -0.0442
 6080TIP3    H239800   2.642   4.834   6.936 -1.3015  1.9011 -0.5285
 6081TIP3   OH239801   4.279   1.474   7.827 -0.2555  0.1234  0.0401
 6081TIP3    H139802   4.360   1.502   7.785  0.0466  0.1611  0.6412
 6081TIP3    H239803   4.244   1.553   7.869 -0.0222 -0.1292  0.7239
 6082TIP3   OH239804   3.584   1.871   1.675  0.1758 -0.2006  0.3409
 6082TIP3    H139805   3.525   1.938   1.709 -0.4485 -0.1076 -0.8733
 6082TIP3    H239806   3.659   1.872   1.735 -1.0781 -0.3955  1.9756
 6083TIP3   OH239807   5.310   3.832   1.885 -0.3612 -0.6327 -0.1226
 6083TIP3    H139808   5.290   3.815   1.793  1.1834 -0.4710 -0.5169
 6083TIP3    H239809   5.252   3.773   1.934 -0.1825 -1.7630 -1.2379
 6084TIP3   OH239810   0.981   6.399   6.898 -0.1134 -0.0505 -0.6458
 6084TIP3    H139811   1.058   6.343   6.903  0.9016  1.2107 -1.4696
 6084TIP3    H239812   0.921   6.351   6.840 -0.6358 -1.7417  1.1761
 6085TIP3   OH239813   2.056   2.123   8.753 -0.4606 -0.5173 -0.0627
 6085TIP3    H139814   2.130   2.062   8.754  0.0313  0.0089  2.3209
 6085TIP3    H239815   2.008   2.100   8.674  0.7224 -2.7363 -0.2411
 6086TIP3   OH239816   6.229   1.049   2.359  0.0385  0.0548  0.8779
 6086TIP3    H139817   6.159   1.110   2.384 -1.3757 -0.8758 -0.5767
 6086TIP3    H239818   6.305   1.078   2.409 -0.6608  2.7505  0.5463
 6087TIP3   OH239819   1.424   0.596   1.596  0.6524 -1.0264  0.0548
 6087TIP3    H139820   1.435   0.604   1.691 -1.5082 -0.4600  0.3133
 6087TIP3    H239821   1.381   0.511   1.584  0.2771 -0.7835 -0.3353
 6088TIP3   OH239822   5.043   3.459   8.816  0.2452 -0.2843 -0.0645
 6088TIP3    H139823   5.007   3.407   8.744 -0.0530 -1.9753  1.2608
 6088TIP3    H239824   5.135   3.434   8.819  0.7819  1.3674 -1.1508
 6089TIP3   OH239825   4.906   4.642   7.866 -0.4563  0.2512 -0.1059
 6089TIP3    H139826   4.886   4.731   7.894  0.5047  0.6505 -0.6583
 6089TIP3    H239827   4.992   4.623   7.905 -0.5931 -0.3923 -0.0994
 6090TIP3   OH239828   3.940   3.595   7.504 -0.0513  0.0831  0.1673
 6090TIP3    H139829   3.984   3.654   7.565  0.0397 -0.7465  0.9124
 6090TIP3    H239830   4.009   3.569   7.442  0.0460  0.3059  0.1813
 6091TIP3   OH239831   4.671   4.733   7.065  0.2694  0.0186 -0.1498
 6091TIP3    H139832   4.629   4.697   6.987 -1.2790 -0.6547  0.9504
 6091TIP3    H239833   4.665   4.664   7.130  0.0618  1.1366  1.0636
 6092TIP3   OH239834   3.219   6.264   7.947  0.1767  0.3135  0.2052
 6092TIP3    H139835   3.312   6.277   7.968  0.2674 -1.9588  1.5163
 6092TIP3    H239836   3.213   6.172   7.922 -1.4375  0.8983 -1.8081
 6093TIP3   OH239837   5.792   1.036   1.657  0.1803 -0.3319 -0.2727
 6093TIP3    H139838   5.712   0.984   1.657  0.2927 -0.5607 -1.9516
 6093TIP3    H239839   5.824   1.031   1.748 -0.4276 -2.2371 -0.1115
 6094TIP3   OH239840   2.599   5.593   8.140  0.2575  0.0404 -0.7709
 6094TIP3    H139841   2.514   5.601   8.183  0.6013 -1.4466  0.2567
 6094TIP3    H239842   2.616   5.681   8.106 -1.1699  0.6526 -0.0345
 6095TIP3   OH239843   2.032   1.332   1.682  0.4426 -0.3796  0.1858
 6095TIP3    H139844   2.091   1.276   1.733  0.2244 -1.6951 -0.9329
 6095TIP3    H239845   1.995   1.273   1.616  1.0386  1.3047 -1.7640
 6096TIP3   OH239846   6.652   1.756   0.923  0.2540  0.3550 -0.4241
 6096TIP3    H139847   6.623   1.681   0.975  1.6181  0.0641 -0.0374
 6096TIP3    H239848   6.588   1.763   0.852 -1.1220  0.1711  0.7305
 6097TIP3   OH239849   3.097   3.393   1.750  0.0387  0.1764 -0.2886
 6097TIP3    H139850   3.189   3.418   1.745  0.0726 -0.0971 -1.4242
 6097TIP3    H239851   3.093   3.309   1.704 -0.8393  0.3805 -0.6002
 6098TIP3   OH239852   2.266   6.168   6.391 -0.3592  0.8775 -0.1820
 6098TIP3    H139853   2.209   6.244   6.380 -0.1209  0.8437 -1.8990
 6098TIP3    H239854   2.355   6.203   6.384 -0.2520  0.3697 -1.8365
 6099TIP3   OH239855   1.961   3.924   1.085  0.4578  0.5904 -0.2472
 6099TIP3    H139856   2.034   3.983   1.068  0.7593  0.7511  1.4815
 6099TIP3    H239857   1.959   3.913   1.180 -1.1504 -0.2101 -0.3244
 6100TIP3   OH239858   5.784   2.031   1.429  0.9409 -0.2073 -0.4000
 6100TIP3    H139859   5.824   2.011   1.345  0.6050 -0.2099 -0.5603
 6100TIP3    H239860   5.718   1.963   1.441 -0.1155  0.7001 -0.8779
 6101TIP3   OH239861   1.370   4.298   7.663  0.5277  0.0559  0.9118
 6101TIP3    H139862   1.431   4.343   7.604 -0.2524  1.7729  1.3440
 6101TIP3    H239863   1.340   4.222   7.614  1.6760  0.1482  0.0239
 6102TIP3   OH239864   4.735   5.446   1.717 -0.0752  0.7202  0.4437
 6102TIP3    H139865   4.807   5.469   1.658 -0.8670  2.6468  0.1669
 6102TIP3    H239866   4.664   5.417   1.659  0.3365 -0.9343  0.7025
 6103TIP3   OH239867   6.426   2.659   0.059  0.1554  0.3795  0.2393
 6103TIP3    H139868   6.437   2.660   0.154 -0.2301 -3.6093  0.4905
 6103TIP3    H239869   6.507   2.697   0.025  0.0909  2.3572  2.0913
 6104TIP3   OH239870   4.301   0.858   8.724 -0.0862 -0.2878 -0.1665
 6104TIP3    H139871   4.261   0.810   8.652 -0.1394  0.2990 -0.5371
 6104TIP3    H239872   4.395   0.852   8.709 -0.0241 -1.4399  0.5555
 6105TIP3   OH239873   4.366   3.373   1.153 -0.6980 -0.3614 -0.1823
 6105TIP3    H139874   4.362   3.372   1.057 -0.7513 -0.4343 -0.1789
 6105TIP3    H239875   4.430   3.441   1.173 -0.0567 -0.9277 -0.2867
 6106TIP3   OH239876   4.052   4.028   0.255 -0.1491  0.5604 -0.0117
 6106TIP3    H139877   4.121   3.977   0.212 -0.7975 -0.1936 -0.1885
 6106TIP3    H239878   3.979   4.026   0.194 -0.6220  0.6234  0.5381
 6107TIP3   OH239879   2.919   3.351   7.260  0.5060 -0.0098  0.0678
 6107TIP3    H139880   2.941   3.262   7.234  0.1853 -0.6323  1.8003
 6107TIP3    H239881   2.834   3.367   7.219  1.0048 -0.1243 -1.0407
 6108TIP3   OH239882   2.893   1.808   7.926  0.1494 -0.0986 -0.0154
 6108TIP3    H139883   2.856   1.722   7.945 -1.7593  0.4086 -1.1356
 6108TIP3    H239884   2.881   1.818   7.831  0.3146  1.4157  0.1077
 6109TIP3   OH239885   3.661   2.152   6.896 -0.2785 -0.3597 -0.2288
 6109TIP3    H139886   3.664   2.071   6.949 -1.9915 -0.4134 -0.1333
 6109TIP3    H239887   3.567   2.170   6.888  0.0602  2.3498  0.8600
 6110TIP3   OH239888   4.894   4.755   6.896 -0.7304 -0.2343  0.0595
 6110TIP3    H139889   4.819   4.763   6.954 -1.8162 -2.1135 -0.9759
 6110TIP3    H239890   4.962   4.713   6.949  0.3064  2.9554  1.5038
 6111TIP3   OH239891   3.090   3.748   1.121 -0.0430  0.2307 -0.1056
 6111TIP3    H139892   3.119   3.678   1.181  1.8528  1.0995  0.0643
 6111TIP3    H239893   3.058   3.817   1.179 -0.4322  0.1499 -0.2173
 6112TIP3   OH239894   1.189   5.117   7.356 -0.4425  0.3531  0.9069
 6112TIP3    H139895   1.275   5.140   7.319 -0.3682 -0.0499  0.8260
 6112TIP3    H239896   1.161   5.196   7.402  0.0006  0.4646  0.9873
 6113TIP3   OH239897   6.403   2.908   8.370  0.3224 -0.2896 -0.0259
 6113TIP3    H139898   6.471   2.842   8.360 -0.1642 -0.6168 -1.3610
 6113TIP3    H239899   6.322   2.858   8.374  0.0617  0.1612  0.3727
 6114TIP3   OH239900   1.051   0.521   8.304 -0.0116  0.0379 -0.1573
 6114TIP3    H139901   0.977   0.463   8.322 -0.1233 -0.0043 -0.7235
 6114TIP3    H239902   1.055   0.579   8.380 -1.5723  1.0346 -0.7816
 6115TIP3   OH239903   1.486   5.122   1.286  1.3846  0.2164 -0.2730
 6115TIP3    H139904   1.541   5.114   1.208  0.3871  1.4914 -1.1562
 6115TIP3    H239905   1.529   5.190   1.338  0.0268  2.2164 -1.6072
 6116TIP3   OH239906   1.902   6.295   0.436  0.1011  0.6518  0.2535
 6116TIP3    H139907   1.896   6.202   0.456  3.1136 -0.2165 -2.0988
 6116TIP3    H239908   1.927   6.337   0.518 -2.3222 -0.3552  1.6016
 6117TIP3   OH239909   6.227   6.326   0.807  0.7339  0.4407  0.1470
 6117TIP3    H139910   6.147   6.365   0.842 -0.1524  0.5735 -1.8937
 6117TIP3    H239911   6.198   6.248   0.761  2.0835 -0.7729  1.2706
 6118TIP3   OH239912   3.170   4.779   7.961  0.1933 -0.2968 -0.1896
 6118TIP3    H139913   3.149   4.868   7.989  0.3099 -0.7022  1.2322
 6118TIP3    H239914   3.089   4.729   7.976  0.3865 -0.6162 -0.1987
 6119TIP3   OH239915   0.379   3.948   7.189  0.0035 -0.4851 -0.0092
 6119TIP3    H139916   0.287   3.970   7.202  0.2183 -0.3799  1.5241
 6119TIP3    H239917   0.419   4.030   7.157 -0.1889 -0.1329  0.6332
 6120TIP3   OH239918   1.171   1.771   8.269  0.1217  0.0653  0.0159
 6120TIP3    H139919   1.187   1.768   8.175  0.7781 -1.1736  0.1502
 6120TIP3    H239920   1.258   1.777   8.308 -0.1239  0.1317  0.5652
 6121TIP3   OH239921   3.298   0.405   7.375 -0.0504 -0.2693  0.4486
 6121TIP3    H139922   3.332   0.316   7.380  1.3325  0.1690 -0.4806
 6121TIP3    H239923   3.305   0.439   7.464  2.3046 -0.1041  0.2465
 6122TIP3   OH239924   4.131   5.456   2.623 -0.6607  0.0225 -0.5947
 6122TIP3    H139925   4.096   5.542   2.602  0.8767  0.4708 -1.4846
 6122TIP3    H239926   4.222   5.460   2.594 -0.3252 -1.6173  0.1459
 6123TIP3   OH239927   1.716   0.243   7.532 -0.0107  0.6226  0.1918
 6123TIP3    H139928   1.748   0.331   7.549 -0.1166  0.5176  0.9823
 6123TIP3    H239929   1.778   0.185   7.577 -1.0016  0.4012  1.3463
 6124TIP3   OH239930   1.363   3.313   7.738 -0.0599  0.1376 -0.2812
 6124TIP3    H139931   1.438   3.331   7.795 -1.0288  0.8962  0.8114
 6124TIP3    H239932   1.319   3.238   7.779 -0.0686 -0.1257 -0.7585
 6125TIP3   OH239933   4.489   0.101   0.893  0.0141  0.5897  0.1749
 6125TIP3    H139934   4.464   0.014   0.923  0.8290 -1.2643 -3.7908
 6125TIP3    H239935   4.418   0.128   0.834  0.9492  1.4491 -0.6047
 6126TIP3   OH239936   6.773   0.293   0.687 -0.2338  0.6721 -0.0566
 6126TIP3    H139937   6.742   0.205   0.666  0.3574  0.3399  0.4159
 6126TIP3    H239938   6.745   0.347   0.613 -0.7098  0.1151 -0.2922
 6127TIP3   OH239939   2.293   5.567   0.176 -0.1908 -0.2452  0.4937
 6127TIP3    H139940   2.322   5.498   0.235  1.9067 -0.1082 -0.2679
 6127TIP3    H239941   2.370   5.586   0.123 -1.0321  1.9149 -0.0595
 6128TIP3   OH239942   3.129   4.968   0.799 -0.1571  0.6026 -0.4663
 6128TIP3    H139943   3.139   4.933   0.710 -0.6505  1.2332 -0.7797
 6128TIP3    H239944   3.215   4.953   0.840 -0.1625 -0.3966 -0.7811
 6129TIP3   OH239945   1.567   3.520   7.820  0.3233  0.1631 -0.0392
 6129TIP3    H139946   1.658   3.549   7.830  0.4287 -0.4685  0.9282
 6129TIP3    H239947   1.534   3.571   7.746  1.3888  0.5788 -0.2494
 6130TIP3   OH239948   0.796   2.595   0.592  0.1898 -0.3177 -0.1332
 6130TIP3    H139949   0.792   2.605   0.687 -0.2269 -0.0278 -0.1834
 6130TIP3    H239950   0.876   2.544   0.577  0.6923  0.3217  0.3171
 6131TIP3   OH239951   5.463   1.709   0.492  0.2793  0.3425  0.0258
 6131TIP3    H139952   5.402   1.707   0.565  0.0247  0.1153 -0.1887
 6131TIP3    H239953   5.545   1.741   0.529  0.5935 -1.2359  0.7633
 6132TIP3   OH239954   0.881   4.631   1.366 -0.3709 -0.2941 -0.4222
 6132TIP3    H139955   0.798   4.616   1.411  0.6412 -1.6481  1.1268
 6132TIP3    H239956   0.908   4.718   1.394 -0.7541 -0.2802 -0.0821
 6133TIP3   OH239957   3.163   5.504   6.991  0.4135  0.3349 -0.1463
 6133TIP3    H139958   3.248   5.466   6.968  1.1039  1.2190  0.8618
 6133TIP3    H239959   3.118   5.516   6.907  1.6354  0.6724 -0.7652
 6134TIP3   OH239960   5.522   0.152   7.583 -0.0623 -0.0033  0.0480
 6134TIP3    H139961   5.491   0.229   7.631 -1.3669 -0.2720 -0.3139
 6134TIP3    H239962   5.563   0.188   7.505 -1.7294  0.3411 -0.7241
 6135TIP3   OH239963   3.460   4.610   7.832 -0.1384  0.1616  0.1689
 6135TIP3    H139964   3.495   4.524   7.805  1.5015  0.8063  0.1435
 6135TIP3    H239965   3.528   4.672   7.808 -1.9861  1.7214 -1.3328
 6136TIP3   OH239966   6.442   0.904   2.218 -0.3347 -0.2122 -0.4679
 6136TIP3    H139967   6.532   0.880   2.242 -0.2721 -0.3485 -0.8300
 6136TIP3    H239968   6.420   0.976   2.276 -0.2723 -0.6909  0.1644
 6137TIP3   OH239969   2.261   0.361   1.587  1.0937  0.2658  0.2212
 6137TIP3    H139970   2.288   0.384   1.676 -0.2929  0.7615  0.5347
 6137TIP3    H239971   2.197   0.428   1.564  0.6752 -0.4631 -0.7652
 6138TIP3   OH239972   0.007   0.392   1.343  0.2813 -0.6163  0.3190
 6138TIP3    H139973   0.001   0.369   1.250 -1.6710 -0.3468  0.3434
 6138TIP3    H239974   0.058   0.473   1.344  1.5204 -1.3493 -0.3653
 6139TIP3   OH239975   0.425   0.788   8.128  0.5376 -0.0962  0.0632
 6139TIP3    H139976   0.440   0.847   8.202  0.3644  0.0936 -0.0518
 6139TIP3    H239977   0.421   0.845   8.052  1.1777 -0.3325 -0.1562
 6140TIP3   OH239978   4.573   3.749   8.875 -0.1352 -0.4083  0.2082
 6140TIP3    H139979   4.562   3.822   8.935 -2.0906 -0.5101  0.0407
 6140TIP3    H239980   4.645   3.775   8.818 -2.0255  2.3737 -1.1657
 6141TIP3   OH239981   1.170   2.034   7.480 -0.0641 -0.3610 -0.3450
 6141TIP3    H139982   1.121   2.103   7.525 -0.3758 -0.8041 -0.0029
 6141TIP3    H239983   1.247   2.019   7.534 -0.5589 -1.0621  0.1826
 6142TIP3   OH239984   2.721   1.903   0.862 -0.8177 -0.2417  0.2796
 6142TIP3    H139985   2.631   1.906   0.830 -0.4793  0.9096 -0.6427
 6142TIP3    H239986   2.766   1.971   0.813  0.4455 -0.4518  1.0973
 6143TIP3   OH239987   1.447   0.669   1.213  0.2833  0.3638 -0.0936
 6143TIP3    H139988   1.356   0.697   1.222  0.2784 -0.1012  1.9961
 6143TIP3    H239989   1.442   0.574   1.203  0.5314  0.1415  1.5394
 6144TIP3   OH239990   0.888   6.525   8.242 -0.7704  0.0180  0.1361
 6144TIP3    H139991   0.836   6.529   8.161  0.1974 -3.5342 -0.8435
 6144TIP3    H239992   0.873   6.436   8.275  3.2399 -0.6060  0.7392
 6145TIP3   OH239993   2.403   4.598   1.723  0.2783 -0.0645  0.4719
 6145TIP3    H139994   2.411   4.603   1.627  1.1415  0.8826  0.5720
 6145TIP3    H239995   2.486   4.559   1.752  0.6124  0.9364  0.9120
 6146TIP3   OH239996   6.399   0.715   0.689  0.8481 -0.2980  0.0897
 6146TIP3    H139997   6.311   0.751   0.700  0.6037 -0.2886 -1.6679
 6146TIP3    H239998   6.393   0.626   0.724 -0.2048 -0.7176 -1.0838
 6147TIP3   OH239999   1.101   2.760   8.345 -0.0141 -0.4479 -0.4205
 6147TIP3    H140000   1.164   2.820   8.303  1.7643 -0.9938  1.3243
 6147TIP3    H240001   1.118   2.675   8.304 -0.2833 -0.4115 -0.6109
 6148TIP3   OH240002   0.581   5.481   8.787  0.0536 -0.9404  0.0277
 6148TIP3    H140003   0.587   5.386   8.779 -1.2753 -1.0186 -0.2882
 6148TIP3    H240004   0.624   5.515   8.708  1.7770 -1.2126  0.8136
 6149TIP3   OH240005   5.652   0.421   8.724  0.4424  0.2620 -0.3742
 6149TIP3    H140006   5.579   0.388   8.777  2.1040  1.0126  2.6028
 6149TIP3    H240007   5.701   0.342   8.700  1.5865  0.0311  2.3494
 6150TIP3   OH240008   5.287   3.314   0.019  0.0209 -0.5876 -0.5964
 6150TIP3    H140009   5.286   3.242  -0.043 -1.2952  0.3821 -1.7540
 6150TIP3    H240010   5.370   3.359   0.002 -1.1084  0.7678 -3.0567
 6151TIP3   OH240011   5.699   0.328   1.163 -0.4738  0.0258 -0.7657
 6151TIP3    H140012   5.697   0.362   1.074  1.5450  0.6179 -0.6373
 6151TIP3    H240013   5.733   0.400   1.216 -0.1447 -0.8195  0.2111
 6152TIP3   OH240014   1.906   5.632   7.543 -0.4521 -0.7059  0.5293
 6152TIP3    H140015   1.891   5.629   7.638 -1.6539 -0.1227  0.3805
 6152TIP3    H240016   1.975   5.697   7.532 -1.0360 -0.0011  0.9395
 6153TIP3   OH240017   6.408   3.634   0.135 -0.1577  0.0381 -0.3982
 6153TIP3    H140018   6.322   3.627   0.177  0.3945  0.4137  0.8381
 6153TIP3    H240019   6.421   3.549   0.092 -1.9716  0.6453 -2.3069
 6154TIP3   OH240020   3.214   1.663   7.955  0.1128 -0.3584 -0.5549
 6154TIP3    H140021   3.302   1.671   7.920  0.9593 -1.1209  1.2516
 6154TIP3    H240022   3.202   1.569   7.969  0.8433 -0.0291  3.3756
 6155TIP3   OH240023   6.015   4.469   0.013  0.4592  0.3464  0.4106
 6155TIP3    H140024   5.945   4.512   0.062  0.4011  0.8863 -0.1400
 6155TIP3    H240025   6.090   4.470   0.072  0.2969  0.6963  0.6135
 6156TIP3   OH240026   1.499   2.789   0.527 -0.1214  0.2263 -0.1328
 6156TIP3    H140027   1.515   2.878   0.496  2.0537 -0.3751 -0.9216
 6156TIP3    H240028   1.565   2.774   0.595 -0.7624 -0.6301  0.3267
 6157TIP3   OH240029   3.513   2.692   6.914 -0.3056  0.0370  0.3167
 6157TIP3    H140030   3.589   2.750   6.912 -0.1379 -0.1926 -1.1355
 6157TIP3    H240031   3.438   2.750   6.928 -0.2936  0.8541 -2.3996
 6158TIP3   OH240032   5.990   2.139   0.053 -0.1551  0.2280 -0.0492
 6158TIP3    H140033   5.952   2.146  -0.035 -1.1197 -0.3368  0.3047
 6158TIP3    H240034   6.060   2.205   0.054  1.0921 -0.9903 -1.8291
 6159TIP3   OH240035   2.363   5.162   0.624 -0.6301  0.1221  0.4010
 6159TIP3    H140036   2.279   5.134   0.661 -0.6731  0.6417  0.7172
 6159TIP3    H240037   2.404   5.213   0.695  0.2501 -0.6800  0.4906
 6160TIP3   OH240038   5.422   3.908   7.240  0.4216  0.0816  0.1053
 6160TIP3    H140039   5.483   3.953   7.181 -0.0274 -0.5116 -0.8364
 6160TIP3    H240040   5.416   3.966   7.316  2.0344  0.2261  0.1557
 6161TIP3   OH240041   2.901   1.413   0.821  0.0030 -0.0370  0.0382
 6161TIP3    H140042   2.913   1.459   0.738  0.1681  0.3535  0.2769
 6161TIP3    H240043   2.831   1.350   0.804 -0.3361  0.4076 -0.2519
 6162TIP3   OH240044   3.791   2.508   1.545  0.0365  0.1770  0.3444
 6162TIP3    H140045   3.829   2.512   1.633 -0.3400  0.5014  0.4939
 6162TIP3    H240046   3.714   2.452   1.554  1.5920 -2.2450 -0.3864
 6163TIP3   OH240047   4.023   0.972   2.008 -0.2915 -0.5284 -0.3548
 6163TIP3    H140048   4.049   0.883   1.984 -3.3132 -2.1604  1.6559
 6163TIP3    H240049   4.052   0.982   2.099 -0.3115  0.4034 -0.4374
 6164TIP3   OH240050   4.037   6.594   1.166  0.2295 -0.4348  0.2330
 6164TIP3    H140051   4.011   6.633   1.249 -1.8364  0.0404 -0.5626
 6164TIP3    H240052   4.074   6.667   1.116  2.1396 -0.8659  0.9355
 6165TIP3   OH240053   0.253   5.572   1.396 -0.2980  0.2187  0.1098
 6165TIP3    H140054   0.216   5.528   1.473  0.4233  1.0369  0.9523
 6165TIP3    H240055   0.176   5.593   1.342 -0.7833 -0.6761  0.4371
 6166TIP3   OH240056   4.537   2.128   8.601  0.0942 -0.0435 -0.3008
 6166TIP3    H140057   4.532   2.096   8.512  3.0195  0.7060 -0.8359
 6166TIP3    H240058   4.609   2.192   8.600 -0.0268  0.2772  2.4910
 6167TIP3   OH240059   2.981   3.508   0.427  0.7360 -0.3753 -0.7777
 6167TIP3    H140060   2.942   3.535   0.510 -0.6419  0.3448 -1.6131
 6167TIP3    H240061   3.067   3.550   0.427  1.8211 -2.3888  1.3224
 6168TIP3   OH240062   3.234   4.879   1.640  0.0324  0.5165 -0.7068
 6168TIP3    H140063   3.300   4.923   1.693 -1.2057  0.6800  0.7673
 6168TIP3    H240064   3.283   4.819   1.584  1.6574  2.7163 -1.7875
 6169TIP3   OH240065   0.261   6.097   0.511 -0.0750 -0.1778 -0.2694
 6169TIP3    H140066   0.248   6.008   0.480  1.9505 -1.3534  1.9273
 6169TIP3    H240067   0.341   6.127   0.467  0.1289 -0.0571  0.1734
 6170TIP3   OH240068   0.887   5.802   0.608  0.0677  0.6267  0.1074
 6170TIP3    H140069   0.976   5.833   0.625  0.4357 -0.1711 -0.3039
 6170TIP3    H240070   0.899   5.719   0.563 -0.8855 -0.1317  1.1861
 6171TIP3   OH240071   1.430   6.184   7.265  0.0305  0.3784  0.2953
 6171TIP3    H140072   1.374   6.106   7.260 -0.7075  0.7999  1.5425
 6171TIP3    H240073   1.392   6.246   7.203 -0.3855  0.3561  0.5295
 6172TIP3   OH240074   2.788   0.264   0.098  0.4534 -0.3355  0.3366
 6172TIP3    H140075   2.794   0.359   0.107  1.5927 -0.3514 -0.1383
 6172TIP3    H240076   2.738   0.251   0.017  1.2373 -0.1163 -0.1991
 6173TIP3   OH240077   4.176   4.093   7.632 -0.2437  0.3816 -0.5384
 6173TIP3    H140078   4.127   4.128   7.558 -1.6488  0.9281  0.6074
 6173TIP3    H240079   4.265   4.078   7.598 -1.0767 -0.2275 -2.5528
 6174TIP3   OH240080   2.607   1.092   1.336  0.2068 -0.0951  0.6732
 6174TIP3    H140081   2.687   1.062   1.293 -0.5447  0.4199 -1.1854
 6174TIP3    H240082   2.624   1.079   1.429  3.2241  1.8002  0.5360
 6175TIP3   OH240083   0.810   1.942   0.642 -0.1172  0.0226  0.2270
 6175TIP3    H140084   0.731   1.964   0.594  0.1848  1.3049  0.2886
 6175TIP3    H240085   0.781   1.927   0.732 -0.1750  1.4447  0.4596
 6176TIP3   OH240086   0.099   4.956   0.512  0.2362 -0.5486  0.2600
 6176TIP3    H140087   0.137   5.032   0.554  0.5301 -1.3292  1.4478
 6176TIP3    H240088   0.010   4.951   0.546  0.1403 -0.5957  0.0031
 6177TIP3   OH240089   0.773   0.916   1.608  0.2086 -0.5906  0.0601
 6177TIP3    H140090   0.727   0.971   1.672  0.0800 -2.3499  1.5824
 6177TIP3    H240091   0.855   0.962   1.592  0.0533  0.1300  1.1738
 6178TIP3   OH240092   5.093   5.407   8.416 -0.9624 -0.0682 -0.0715
 6178TIP3    H140093   5.143   5.338   8.374  0.0753  1.4196 -1.4222
 6178TIP3    H240094   5.083   5.378   8.506  1.0897 -1.1124 -0.1185
 6179TIP3   OH240095   0.273   5.208   7.944  0.0056 -0.0477 -0.7277
 6179TIP3    H140096   0.203   5.200   8.007 -0.4469 -0.8985 -1.3164
 6179TIP3    H240097   0.342   5.256   7.990  0.4910 -2.3454  1.0958
 6180TIP3   OH240098   4.555   0.822   6.896 -0.2217  0.5769  0.5022
 6180TIP3    H140099   4.544   0.909   6.857  0.5498 -0.1130 -1.3741
 6180TIP3    H240100   4.473   0.777   6.878  0.4838 -0.0712 -1.3346
 6181TIP3   OH240101   0.528   2.333   7.841 -0.0286 -0.0244  0.1627
 6181TIP3    H140102   0.455   2.303   7.894 -0.2635 -1.8399 -1.0673
 6181TIP3    H240103   0.488   2.380   7.768  0.1825  0.9379  0.6580
 6182TIP3   OH240104   0.258   5.679   8.045  0.2843 -0.0846  0.4869
 6182TIP3    H140105   0.208   5.735   7.986 -0.5335  0.1073  1.3326
 6182TIP3    H240106   0.309   5.739   8.099  1.2152 -0.2701 -0.1819
 6183TIP3   OH240107   2.926   2.731   0.782 -0.2677  0.4006 -0.3247
 6183TIP3    H140108   3.014   2.697   0.797  0.2596  1.7646 -0.1337
 6183TIP3    H240109   2.919   2.739   0.686 -0.5447 -0.5913 -0.3916
 6184TIP3   OH240110   0.347   5.271   8.718 -0.3420  0.2697 -0.0486
 6184TIP3    H140111   0.309   5.199   8.768  0.0404 -2.0869 -2.9046
 6184TIP3    H240112   0.441   5.254   8.717 -0.2027  0.9871 -0.4846
 6185TIP3   OH240113   6.517   0.681   7.812  0.4200  0.0785  0.2299
 6185TIP3    H140114   6.607   0.651   7.822  0.2711 -0.9208 -1.2143
 6185TIP3    H240115   6.464   0.601   7.812 -0.1709  0.4124 -1.7561
 6186TIP3   OH240116   5.408   6.062   1.248  0.1391  0.1185  0.5492
 6186TIP3    H140117   5.419   6.012   1.167  2.1943  1.8283 -0.3301
 6186TIP3    H240118   5.344   6.129   1.226  0.6005  0.5020  0.3477
 6187TIP3   OH240119   3.500   2.672   1.559 -0.3094 -0.1132 -0.1051
 6187TIP3    H140120   3.563   2.671   1.631 -1.0673 -0.0420  0.5752
 6187TIP3    H240121   3.415   2.660   1.601 -0.7607 -0.1882 -1.0031
 6188TIP3   OH240122   5.596   0.022   2.970 -0.4593 -0.4246 -0.0998
 6188TIP3    H140123   5.530   0.022   3.039 -0.3263 -0.8859  0.0331
 6188TIP3    H240124   5.548  -0.004   2.891 -0.8012  0.9762 -0.3880
 6189TIP3   OH240125   3.024   3.155   1.327  0.2926 -0.1308  0.0434
 6189TIP3    H140126   2.947   3.100   1.314  0.4360 -0.7713  1.7280
 6189TIP3    H240127   2.991   3.233   1.371  0.5199 -0.1365  0.2268
 6190TIP3   OH240128   4.327   0.181   0.661 -0.6480  0.5069  0.4598
 6190TIP3    H140129   4.290   0.157   0.576 -0.5877 -1.6156  0.9895
 6190TIP3    H240130   4.369   0.266   0.645 -1.8000  0.8096 -1.2690
 6191TIP3   OH240131   5.897   3.420   0.412 -0.9085 -0.5649 -0.2815
 6191TIP3    H140132   5.863   3.472   0.339  0.1115 -0.7920 -0.9494
 6191TIP3    H240133   5.952   3.481   0.462 -0.5418 -0.7342 -0.4728
 6192TIP3   OH240134   5.813   1.352   7.548 -0.4516 -0.0858 -0.0965
 6192TIP3    H140135   5.778   1.439   7.528  0.3565  0.4534  0.7648
 6192TIP3    H240136   5.890   1.343   7.492  0.3417  0.3849  0.9005
 6193TIP3   OH240137   1.793   5.337   0.205 -0.1357 -0.4813 -0.0780
 6193TIP3    H140138   1.847   5.327   0.284 -1.1301 -1.5755  0.5069
 6193TIP3    H240139   1.703   5.329   0.237 -0.5994  0.0958 -1.1958
 6194TIP3   OH240140   2.756   4.835   1.561 -0.1446 -0.4077 -0.9589
 6194TIP3    H140141   2.705   4.878   1.629  2.1862  0.3074  0.4606
 6194TIP3    H240142   2.775   4.748   1.596 -0.8490 -0.8890 -1.7353
 6195TIP3   OH240143   0.845   0.341   1.525  0.1128 -0.1906 -0.4326
 6195TIP3    H140144   0.785   0.308   1.592 -1.9777  1.3042 -1.4722
 6195TIP3    H240145   0.828   0.286   1.449  0.2493  0.0997 -0.6725
 6196TIP3   OH240146   5.115   6.562   8.600  0.1055 -0.2461  0.1885
 6196TIP3    H140147   5.206   6.577   8.628  1.1976 -1.0965 -2.5541
 6196TIP3    H240148   5.106   6.467   8.596 -1.3606 -0.2125  1.5470
 6197TIP3   OH240149   4.926   3.368   0.335 -0.5360  0.1711  0.1239
 6197TIP3    H140150   4.885   3.287   0.366 -0.3359 -0.3172 -0.8467
 6197TIP3    H240151   4.972   3.402   0.412 -0.1432 -0.9411  0.4075
 6198TIP3   OH240152   5.191   3.324   7.424 -0.0813 -0.2112 -0.0931
 6198TIP3    H140153   5.226   3.284   7.503  1.3747 -0.2864 -0.7404
 6198TIP3    H240154   5.109   3.366   7.452 -0.7175 -2.0485  0.9846
 6199TIP3   OH240155   3.249   0.531   6.529 -0.0724  0.0491 -0.6721
 6199TIP3    H140156   3.280   0.619   6.550  0.7937 -0.1806 -0.9246
 6199TIP3    H240157   3.172   0.545   6.474 -0.4404  0.6439 -0.0289
 6200TIP3   OH240158   4.840   6.198   7.456  0.6672 -0.1036  0.1456
 6200TIP3    H140159   4.773   6.130   7.456  1.4402 -0.8720 -0.0104
 6200TIP3    H240160   4.869   6.203   7.547  1.2731 -0.6458 -0.0150
 6201TIP3   OH240161   2.664   3.182   0.039  0.3701 -0.2602  0.4147
 6201TIP3    H140162   2.749   3.181   0.083  0.9473 -1.2947 -0.6681
 6201TIP3    H240163   2.640   3.275   0.036  1.5311  0.0631  0.6118
 6202TIP3   OH240164   5.618   2.441   1.777  0.5459 -0.0055  0.6110
 6202TIP3    H140165   5.638   2.434   1.870  1.3628 -0.2873  0.4218
 6202TIP3    H240166   5.525   2.465   1.774  0.2798 -0.8780  1.4713
 6203TIP3   OH240167   2.861   2.381   8.148 -0.9775 -0.0639  0.3554
 6203TIP3    H140168   2.879   2.468   8.111  0.2519 -0.7995 -0.8881
 6203TIP3    H240169   2.933   2.365   8.208 -0.9604 -0.3894  0.2511
 6204TIP3   OH240170   1.623   6.695   1.296  0.4215  0.5570  0.5739
 6204TIP3    H140171   1.588   6.653   1.375 -0.1616 -0.2656 -0.1058
 6204TIP3    H240172   1.559   6.676   1.228  0.9648  1.1702 -0.1267
 6205TIP3   OH240173   5.940   5.475   1.363  0.2727 -0.0892  0.0977
 6205TIP3    H140174   5.925   5.503   1.453  2.1662  1.9403 -0.1501
 6205TIP3    H240175   6.030   5.442   1.362  0.0905 -0.6357 -0.9535
 6206TIP3   OH240176   4.381   3.659   6.683  0.0168 -0.0451 -0.3725
 6206TIP3    H140177   4.444   3.598   6.721 -0.3201 -0.5167 -0.5736
 6206TIP3    H240178   4.419   3.745   6.699 -0.2064 -0.2112  1.2326
 6207TIP3   OH240179   3.528   3.612   0.420  0.0555  0.5988 -0.0788
 6207TIP3    H140180   3.586   3.638   0.349  2.1718  0.4040  1.4895
 6207TIP3    H240181   3.560   3.660   0.496  0.5235 -2.2812  1.6619
 6208TIP3   OH240182   3.625   3.614   6.463 -0.5543  0.4847  0.3779
 6208TIP3    H140183   3.681   3.583   6.392  1.4966  1.1775  1.6074
 6208TIP3    H240184   3.570   3.681   6.421 -1.9069 -1.5360 -1.2792
 6209TIP3   OH240185   4.390   4.895   8.721  0.2741  0.0940 -0.2623
 6209TIP3    H140186   4.372   4.801   8.723 -0.0295  0.1587  0.3452
 6209TIP3    H240187   4.485   4.902   8.729  0.1949 -0.1302  1.0539
 6210TIP3   OH240188   3.162   5.224   6.239 -0.6782  0.1410  0.3989
 6210TIP3    H140189   3.159   5.267   6.154 -0.6337  0.8977  0.7663
 6210TIP3    H240190   3.077   5.243   6.279  0.2468  2.1005  1.5904
 6211TIP3   OH240191   2.899   6.459   1.191  0.5998  0.0912  0.4404
 6211TIP3    H140192   2.813   6.496   1.174  0.7094 -0.2681 -0.9953
 6211TIP3    H240193   2.882   6.373   1.229  0.3025 -0.3513 -0.6652
 6212TIP3   OH240194   6.390   5.027   8.835 -0.3139 -0.5596 -0.6857
 6212TIP3    H140195   6.350   5.077   8.764  0.3955  0.2789 -0.5063
 6212TIP3    H240196   6.450   4.966   8.791  1.6959  1.3525 -0.7732
 6213TIP3   OH240197   1.138   1.381   8.572  0.1900 -0.5928 -0.5138
 6213TIP3    H140198   1.121   1.475   8.569 -0.3317 -0.4194  2.9334
 6213TIP3    H240199   1.228   1.372   8.541  0.3429  1.1003 -0.6739
 6214TIP3   OH240200   2.864   4.133   1.154 -0.0271 -0.1579  0.6441
 6214TIP3    H140201   2.869   4.218   1.196 -0.1105  0.3862 -0.4181
 6214TIP3    H240202   2.809   4.147   1.077  0.8340 -0.9239 -0.1285
 6215TIP3   OH240203   0.249   1.033   6.838 -0.8011  0.4421 -0.0840
 6215TIP3    H140204   0.322   0.991   6.791 -0.7341 -0.2262  0.5922
 6215TIP3    H240205   0.257   1.126   6.818 -0.3111  0.2602 -0.7619
 6216TIP3   OH240206   0.128   4.839   8.301  0.0687 -0.0225 -0.0814
 6216TIP3    H140207   0.222   4.820   8.301  0.4864  1.8205 -0.5014
 6216TIP3    H240208   0.087   4.758   8.269  1.8347  0.2450 -3.4544
 6217TIP3   OH240209   0.517   3.568   0.131 -0.2709  0.0434  0.1598
 6217TIP3    H140210   0.606   3.535   0.116 -0.6932 -0.7643 -0.6810
 6217TIP3    H240211   0.521   3.659   0.103  0.5786  0.3515  1.2198
 6218TIP3   OH240212   0.476   5.064   1.978  0.3038 -0.0777 -0.3630
 6218TIP3    H140213   0.423   4.986   1.997  1.5642 -0.8317  0.1527
 6218TIP3    H240214   0.472   5.073   1.883 -0.6509 -0.1775 -0.3471
 6219TIP3   OH240215   6.649   5.737   7.602 -0.6288  0.2156 -0.2141
 6219TIP3    H140216   6.597   5.657   7.602 -0.0971 -0.1526 -1.1702
 6219TIP3    H240217   6.699   5.733   7.520  1.7087 -0.0020  1.1131
 6220TIP3   OH240218   3.549   2.636   8.189  0.1196 -0.1321 -0.3880
 6220TIP3    H140219   3.556   2.547   8.153  0.8974 -0.1990 -0.0892
 6220TIP3    H240220   3.520   2.689   8.115  0.2549 -0.5249 -0.7280
 6221TIP3   OH240221   2.854   5.093   2.362 -0.1706 -0.3065 -0.2211
 6221TIP3    H140222   2.898   5.141   2.433  0.9672  0.0428 -1.1261
 6221TIP3    H240223   2.845   5.004   2.397  4.0397 -1.2724 -0.9411
 6222TIP3   OH240224   4.237   6.273   0.426 -0.1683 -0.0676 -0.5089
 6222TIP3    H140225   4.308   6.256   0.364  0.7577 -5.1839  1.4811
 6222TIP3    H240226   4.282   6.283   0.511 -1.5428 -3.0729  0.7328
 6223TIP3   OH240227   1.786   6.346   1.340  0.2528 -0.4910  0.2855
 6223TIP3    H140228   1.844   6.397   1.396 -2.4075  1.9879  1.0234
 6223TIP3    H240229   1.698   6.378   1.360 -1.1695 -1.9891 -2.7998
 6224TIP3   OH240230   0.072   4.351   6.969 -0.6013 -0.1851  0.0679
 6224TIP3    H140231   0.027   4.336   7.053  0.6931  0.6471  0.9492
 6224TIP3    H240232   0.006   4.330   6.903 -1.4079 -1.6908  1.2641
 6225TIP3   OH240233   5.173   2.714   8.266  0.2170  0.0739  0.8018
 6225TIP3    H140234   5.110   2.642   8.274 -1.3276  1.1905 -0.7903
 6225TIP3    H240235   5.193   2.719   8.173 -0.0977  2.0140  0.7933
 6226TIP3   OH240236   3.829   0.423   7.812  0.8294 -0.5164 -0.0619
 6226TIP3    H140237   3.831   0.329   7.796  0.3435 -0.4713 -0.3937
 6226TIP3    H240238   3.769   0.458   7.746  0.1753 -0.1132  0.7180
 6227TIP3   OH240239   5.423   0.112   8.655  0.3615  0.0903 -0.1923
 6227TIP3    H140240   5.453   0.176   8.720  1.5830 -1.3925  0.7882
 6227TIP3    H240241   5.403   0.034   8.707 -2.7814  0.1680 -1.1379
 6228TIP3   OH240242   1.122   5.204   0.535 -0.6534  0.6583 -0.0457
 6228TIP3    H140243   1.192   5.156   0.490 -0.7399  0.8825 -0.4186
 6228TIP3    H240244   1.122   5.168   0.624  0.2374  0.9600  0.0884
 6229TIP3   OH240245   0.163   4.405   1.108  0.2421  0.4084 -0.5299
 6229TIP3    H140246   0.188   4.313   1.094 -1.0675  0.2135 -1.8570
 6229TIP3    H240247   0.088   4.400   1.167  0.6846  0.6863  0.0563
 6230TIP3   OH240248   1.974   2.556   0.015 -0.1416 -0.0890  0.1293
 6230TIP3    H140249   2.014   2.494  -0.046  0.4160 -0.4235  0.8267
 6230TIP3    H240250   2.037   2.628   0.021 -0.9987  0.8146 -1.0515
 6231TIP3   OH240251   1.488   5.674   2.213  0.2168  0.3728  0.6478
 6231TIP3    H140252   1.545   5.750   2.227  1.0730 -0.5890  2.8611
 6231TIP3    H240253   1.411   5.709   2.170  0.6644  2.4653  1.4457
 6232TIP3   OH240254   0.547   3.657   0.470  0.3098 -0.0001  0.1534
 6232TIP3    H140255   0.543   3.753   0.463  0.9766  0.0396  0.2027
 6232TIP3    H240256   0.556   3.627   0.379 -2.8418 -0.2163 -0.1776
 6233TIP3   OH240257   5.733   3.803   0.001 -0.0446  0.1871  0.4352
 6233TIP3    H140258   5.731   3.710  -0.022  1.5319  0.6536 -1.9441
 6233TIP3    H240259   5.642   3.825   0.020 -0.2840 -2.0710  2.3377
 6234TIP3   OH240260   1.082   6.694   0.624  0.0281 -0.1548  0.0535
 6234TIP3    H140261   1.068   6.607   0.661  0.1946  0.1446  0.8386
 6234TIP3    H240262   1.109   6.678   0.534  3.6130 -1.0989  1.1307
 6235TIP3   OH240263   6.752   3.790   7.959  0.5368  0.0927  0.3932
 6235TIP3    H140264   6.755   3.739   7.879  0.3023 -0.5640  0.7975
 6235TIP3    H240265   6.737   3.726   8.028 -0.7632  0.8009  0.8123
 6236TIP3   OH240266   4.164   4.091   6.344 -0.0719  0.0437 -0.6393
 6236TIP3    H140267   4.202   4.007   6.370 -0.2187  0.1697  0.0193
 6236TIP3    H240268   4.173   4.146   6.422 -0.3721  0.5010 -0.9220
 6237TIP3   OH240269   3.707   4.704   0.145  0.2505  0.1213 -0.2405
 6237TIP3    H140270   3.671   4.635   0.090 -1.7579  1.6025 -0.9100
 6237TIP3    H240271   3.769   4.751   0.088  2.3905 -1.6109  0.5092
 6238TIP3   OH240272   2.239   1.572   1.863  0.1107  0.2883  0.2600
 6238TIP3    H140273   2.178   1.623   1.916  0.6104  0.3632  0.7688
 6238TIP3    H240274   2.318   1.626   1.857 -0.4522  0.9887 -1.8710
 6239TIP3   OH240275   2.347   4.602   7.797 -0.2707  0.1316  0.3812
 6239TIP3    H140276   2.370   4.552   7.875 -0.9805  0.1633  0.6247
 6239TIP3    H240277   2.295   4.542   7.744  0.2838  0.0841 -0.1090
 6240TIP3   OH240278   2.677   3.815   6.798  0.0813 -0.3126 -0.3063
 6240TIP3    H140279   2.756   3.795   6.748 -0.7942 -1.0368 -1.4818
 6240TIP3    H240280   2.642   3.729   6.822 -0.3245 -0.0020  0.2380
 6241TIP3   OH240281   0.428   4.473   1.070  0.3302 -0.3188  0.4704
 6241TIP3    H140282   0.334   4.470   1.088  0.4329  1.1791  1.4871
 6241TIP3    H240283   0.469   4.468   1.156  1.0834  1.1170  0.2278
 6242TIP3   OH240284   2.868   0.636   7.959 -0.1660  0.1821 -0.4687
 6242TIP3    H140285   2.807   0.677   8.019 -2.0107  0.4052 -2.3564
 6242TIP3    H240286   2.952   0.676   7.978 -1.0917  1.7295  0.5724
 6243TIP3   OH240287   1.895   3.397   6.870 -0.2223  0.3446  0.0225
 6243TIP3    H140288   1.869   3.397   6.778  1.6146 -1.4674 -0.5792
 6243TIP3    H240289   1.891   3.488   6.896 -0.0722  1.0122 -2.0935
 6244TIP3   OH240290   5.321   2.011   1.390 -0.1530 -0.7490  0.8023
 6244TIP3    H140291   5.389   1.953   1.357 -0.4887 -0.3280 -0.6815
 6244TIP3    H240292   5.368   2.092   1.413 -0.1472 -0.4268 -0.3034
 6245TIP3   OH240293   6.178   5.151   8.327 -0.1069  0.1679 -0.8930
 6245TIP3    H140294   6.090   5.131   8.294 -0.5710 -0.0595  0.4399
 6245TIP3    H240295   6.210   5.218   8.267 -1.5791  0.9815 -0.8249
 6246TIP3   OH240296   2.140   1.215   0.667 -0.1847 -0.3048  0.0833
 6246TIP3    H140297   2.049   1.237   0.690 -0.3097 -1.5541  0.8933
 6246TIP3    H240298   2.192   1.270   0.725 -0.4256  0.2004 -0.1719
 6247TIP3   OH240299   0.836   5.670   8.769 -0.5312 -0.3786 -0.2029
 6247TIP3    H140300   0.883   5.712   8.841  0.5678  0.8705 -1.5765
 6247TIP3    H240301   0.905   5.644   8.708 -1.4889 -0.6952 -1.1802
 6248TIP3   OH240302   4.404   2.571   0.728 -0.4818 -0.1639 -0.1727
 6248TIP3    H140303   4.388   2.549   0.637 -0.3114  0.2882 -0.3148
 6248TIP3    H240304   4.367   2.659   0.739 -0.9596 -0.4184  0.3257
 6249TIP3   OH240305   3.644   1.882   7.922  0.1136  0.3463 -0.2181
 6249TIP3    H140306   3.682   1.943   7.985 -0.9739  1.1743 -0.3231
 6249TIP3    H240307   3.609   1.939   7.853  0.8909 -0.5160 -1.3610
 6250TIP3   OH240308   4.790   4.836   7.602  0.2672  0.0930  0.4370
 6250TIP3    H140309   4.883   4.821   7.618 -0.0434 -1.2115  1.2618
 6250TIP3    H240310   4.781   4.931   7.598  1.6660  0.2386  0.0920
 6251TIP3   OH240311   3.219   4.131   7.818 -0.1554  0.1475 -0.4895
 6251TIP3    H140312   3.191   4.210   7.772 -0.4128  0.2220 -0.2098
 6251TIP3    H240313   3.299   4.156   7.863  0.0602  0.0942 -0.8409
 6252TIP3   OH240314   3.495   0.294   0.750  0.1308 -0.1456 -0.3337
 6252TIP3    H140315   3.462   0.341   0.674 -0.5421 -0.0996 -0.0245
 6252TIP3    H240316   3.472   0.351   0.824  2.3992  0.7075 -0.2183
 6253TIP3   OH240317   0.434   4.173   1.280  0.1223  0.9618  0.7026
 6253TIP3    H140318   0.480   4.206   1.203 -1.4120  1.2503 -0.1281
 6253TIP3    H240319   0.482   4.210   1.354  1.1653  1.3065 -0.1167
 6254TIP3   OH240320   1.160   0.542   0.903  0.0809 -0.2975 -0.3229
 6254TIP3    H140321   1.090   0.507   0.959  0.8968  0.5221  1.2609
 6254TIP3    H240322   1.130   0.629   0.879  0.9321  0.4215  1.1250
 6255TIP3   OH240323   4.364   4.515   0.002 -0.0238  0.0365 -0.1954
 6255TIP3    H140324   4.354   4.420   0.005  0.5523  0.0006  0.8423
 6255TIP3    H240325   4.452   4.529  -0.035 -0.3532  0.1889 -0.9459
 6256TIP3   OH240326   0.738   0.605   7.724 -0.1201  0.0130 -0.0738
 6256TIP3    H140327   0.760   0.513   7.740  0.6613  0.1577 -0.2576
 6256TIP3    H240328   0.794   0.630   7.651 -0.2552  0.6671  0.0419
 6257TIP3   OH240329   0.798   3.390   7.138  0.0491 -0.2380  0.4769
 6257TIP3    H140330   0.765   3.480   7.139  2.2375  0.6575 -0.7348
 6257TIP3    H240331   0.752   3.349   7.065  0.8535  0.7119 -0.6111
 6258TIP3   OH240332   0.467   2.795   7.785  0.2220 -0.1611  0.0429
 6258TIP3    H140333   0.384   2.827   7.821  0.3859 -0.6975  0.9297
 6258TIP3    H240334   0.445   2.713   7.742  0.4344 -0.8254  1.1501
 6259TIP3   OH240335   1.647   2.504   1.166  0.2167  0.1164 -0.3222
 6259TIP3    H140336   1.682   2.467   1.085 -0.9310 -0.4382 -0.5907
 6259TIP3    H240337   1.723   2.519   1.221  0.9847  0.2144 -1.3918
 6260TIP3   OH240338   1.096   4.201   7.978 -0.3090 -0.4171 -0.4732
 6260TIP3    H140339   1.049   4.145   8.040 -0.0207 -0.8179 -0.6143
 6260TIP3    H240340   1.035   4.212   7.904 -0.2482 -0.7938 -0.5795
 6261TIP3   OH240341   6.481   1.207   8.856  0.2392  0.1158  0.1309
 6261TIP3    H140342   6.471   1.123   8.902 -2.2299  0.4107  0.2567
 6261TIP3    H240343   6.426   1.268   8.906  1.3180  1.6172 -0.4548
 6262TIP3   OH240344   4.994   1.359   2.342 -0.5138  0.2297 -0.1868
 6262TIP3    H140345   4.981   1.450   2.314  0.2554 -0.0780 -1.6319
 6262TIP3    H240346   5.089   1.350   2.349 -0.3245 -1.2800 -3.1535
 6263TIP3   OH240347   1.077   3.269   8.456 -0.0656 -0.4017 -0.0882
 6263TIP3    H140348   1.088   3.193   8.514 -1.8584 -0.8729 -0.3188
 6263TIP3    H240349   1.028   3.333   8.508 -0.0946 -0.1013 -0.4785
 6264TIP3   OH240350   4.846   0.257   0.205  0.1851 -0.2421 -0.1665
 6264TIP3    H140351   4.929   0.220   0.173  0.3861 -0.2954  0.3997
 6264TIP3    H240352   4.872   0.314   0.278 -0.1033  1.1336 -1.0930
 6265TIP3   OH240353   3.296   6.290   6.612  0.2388  0.0199 -0.5853
 6265TIP3    H140354   3.354   6.315   6.684  2.3136 -0.2684 -2.0932
 6265TIP3    H240355   3.354   6.262   6.542 -1.7740 -2.6906 -1.3408
 6266TIP3   OH240356   1.931   2.378   1.648  0.2697  0.8850 -0.3196
 6266TIP3    H140357   1.869   2.357   1.718  0.3068  2.0051  0.0707
 6266TIP3    H240358   1.876   2.385   1.570 -0.1161  1.8291  0.0148
 6267TIP3   OH240359   3.010   0.252   1.749 -0.0496  0.5513 -0.2870
 6267TIP3    H140360   3.039   0.327   1.801 -2.7418  0.9588  0.8279
 6267TIP3    H240361   2.931   0.221   1.794 -0.7149 -1.0792 -2.3969
 6268TIP3   OH240362   1.938   0.641   8.591 -0.6013 -0.2455 -0.1627
 6268TIP3    H140363   1.982   0.559   8.570  0.3184  0.3746 -0.7561
 6268TIP3    H240364   1.868   0.617   8.652  0.1011 -1.3573  0.2159
 6269TIP3   OH240365   3.578   4.937   7.262 -0.0306  0.5169 -0.2574
 6269TIP3    H140366   3.576   4.854   7.215  1.5160 -0.8771  1.9611
 6269TIP3    H240367   3.493   4.977   7.243 -1.9103 -2.7444  0.5399
 6270TIP3   OH240368   4.373   2.414   1.731 -0.3766  0.2744 -0.2551
 6270TIP3    H140369   4.345   2.322   1.733  1.8278 -0.4642 -0.8147
 6270TIP3    H240370   4.455   2.413   1.681  1.4817  1.9931  2.4931
 6271TIP3   OH240371   6.257   0.167   7.028 -0.2841 -0.4227 -0.2876
 6271TIP3    H140372   6.300   0.241   6.984 -1.8503  0.7240  0.0329
 6271TIP3    H240373   6.300   0.089   6.991  1.6591  0.6356 -0.3604
 6272TIP3   OH240374   1.669   2.341   1.756 -0.0147 -0.0975 -0.5025
 6272TIP3    H140375   1.638   2.423   1.716 -1.6242 -0.7021 -0.5712
 6272TIP3    H240376   1.644   2.349   1.849 -2.1354 -1.3310 -0.8915
 6273TIP3   OH240377   4.330   1.132   0.337 -0.6273 -0.5125 -0.2690
 6273TIP3    H140378   4.381   1.206   0.305  0.4138 -0.6057  1.0763
 6273TIP3    H240379   4.393   1.078   0.385 -1.7023 -1.3818  0.2213
 6274TIP3   OH240380   6.781   3.235   0.154  0.2871  0.6552  0.4274
 6274TIP3    H140381   6.847   3.213   0.088  1.1051  1.6611  0.8803
 6274TIP3    H240382   6.806   3.322   0.185 -0.3763  0.4127  1.7123
 6275TIP3   OH240383   0.685   3.533   1.677  0.2502 -0.0870  0.0489
 6275TIP3    H140384   0.753   3.478   1.639  0.7131  0.7203 -0.3056
 6275TIP3    H240385   0.724   3.620   1.682 -0.6527  0.3273  0.1026
 6276TIP3   OH240386   2.515   1.286   1.102 -0.1901 -0.2204  0.0591
 6276TIP3    H140387   2.560   1.234   1.035  0.0886 -1.5334  1.2053
 6276TIP3    H240388   2.422   1.278   1.080 -0.0763 -0.2743 -0.4115
 6277TIP3   OH240389   2.723   6.037   8.613 -0.3188 -0.0470 -0.2501
 6277TIP3    H140390   2.650   6.020   8.673  0.8504 -1.0302  0.9657
 6277TIP3    H240391   2.731   5.956   8.562  0.0227 -0.0049 -0.2636
 6278TIP3   OH240392   0.446   4.395   0.309  0.4357  0.0983  0.1627
 6278TIP3    H140393   0.516   4.445   0.267  1.3247 -0.7442  0.6071
 6278TIP3    H240394   0.441   4.431   0.398  1.9745 -1.4173  0.9138
 6279TIP3   OH240395   0.712   3.463   7.631 -0.1165  0.2657 -0.1714
 6279TIP3    H140396   0.768   3.499   7.700 -0.0777  0.6557 -0.4029
 6279TIP3    H240397   0.769   3.459   7.554  0.2318 -1.4247  0.1346
 6280TIP3   OH240398   4.661   4.692   7.426  0.3783 -0.3207 -0.2302
 6280TIP3    H140399   4.738   4.741   7.455  0.5658 -0.8104  0.1075
 6280TIP3    H240400   4.595   4.710   7.492  0.2619 -0.0639 -0.4130
 6281TIP3   OH240401   6.667   0.744   1.489  0.2834  0.6668 -0.0660
 6281TIP3    H140402   6.632   0.672   1.438  1.5579  0.8000 -1.1861
 6281TIP3    H240403   6.601   0.813   1.483  0.4010  0.6778 -1.5647
 6282TIP3   OH240404   5.014   6.172   7.708 -0.1596  0.6467  0.5411
 6282TIP3    H140405   5.081   6.239   7.694 -0.8427  1.3680  0.6416
 6282TIP3    H240406   5.016   6.119   7.628  1.1400  0.0876  0.9072
 6283TIP3   OH240407   2.904   2.267   1.642 -0.5405  0.0226 -0.1701
 6283TIP3    H140408   2.882   2.318   1.720 -0.2053  0.3136 -0.2587
 6283TIP3    H240409   2.821   2.252   1.598 -0.8537 -0.9852  0.7458
 6284TIP3   OH240410   6.001   2.299   1.788  0.5673  0.4558 -0.3493
 6284TIP3    H140411   5.965   2.331   1.705  0.8379 -0.4369 -0.8322
 6284TIP3    H240412   5.938   2.232   1.816  0.8792  0.2008 -0.2478
 6285TIP3   OH240413   6.136   1.910   8.134  0.1655 -0.2846  0.5349
 6285TIP3    H140414   6.174   1.823   8.146 -0.1300 -0.1670  3.0220
 6285TIP3    H240415   6.203   1.970   8.166 -1.0590  0.0796  2.6184
 6286TIP3   OH240416   6.304   3.130   7.113  0.2888  0.0632  0.2602
 6286TIP3    H140417   6.317   3.052   7.059 -0.6265 -0.9110  1.3928
 6286TIP3    H240418   6.299   3.097   7.203 -0.3207  1.4023  0.7481
 6287TIP3   OH240419   2.285   2.071   7.218 -0.1387 -0.1440  0.5183
 6287TIP3    H140420   2.263   1.978   7.218  0.1348 -0.2139 -0.0295
 6287TIP3    H240421   2.243   2.106   7.139  0.3483  0.0489  0.3375
 6288TIP3   OH240422   1.280   1.176   1.286  0.3283  0.9843 -0.0849
 6288TIP3    H140423   1.291   1.168   1.192 -1.4745  0.0623 -0.2626
 6288TIP3    H240424   1.249   1.090   1.315 -0.8917  1.7530  1.0498
 6289TIP3   OH240425   5.518   4.776   7.260  0.2479  0.0976  0.4107
 6289TIP3    H140426   5.428   4.783   7.293 -0.5500 -0.2896 -1.5220
 6289TIP3    H240427   5.523   4.843   7.191  1.5574  0.3256  0.7024
 6290TIP3   OH240428   3.686   5.819   8.468  0.6828  0.2495 -0.2140
 6290TIP3    H140429   3.599   5.818   8.430  0.5635  1.8073 -0.0367
 6290TIP3    H240430   3.675   5.785   8.557 -0.1571  2.3112  0.5401
 6291TIP3   OH240431   4.260   3.477   1.523  0.4469 -0.2905 -0.2743
 6291TIP3    H140432   4.323   3.531   1.475  1.0921 -0.8979 -0.1277
 6291TIP3    H240433   4.314   3.423   1.580 -0.2127 -0.8301 -0.1561
 6292TIP3   OH240434   0.789   6.228   0.888 -0.1094  0.1454  0.3682
 6292TIP3    H140435   0.714   6.281   0.861  1.2092  1.3087 -1.1908
 6292TIP3    H240436   0.840   6.215   0.807  2.4160  1.1421  1.6837
 6293TIP3   OH240437   5.989   6.390   8.716  0.3270 -0.0799  0.4928
 6293TIP3    H140438   5.939   6.359   8.640  0.0951 -0.2888  0.7315
 6293TIP3    H240439   6.068   6.429   8.678 -0.2334  0.6792  0.0776
 6294TIP3   OH240440   3.291   2.147   7.280 -0.0233 -0.1202  0.0808
 6294TIP3    H140441   3.371   2.123   7.233 -0.2732 -0.7507 -0.0183
 6294TIP3    H240442   3.318   2.221   7.335  1.1510 -1.5582  1.5611
 6295TIP3   OH240443   3.952   1.056   1.435 -0.1332 -0.1628 -0.3366
 6295TIP3    H140444   3.861   1.072   1.407 -0.1505 -0.7745 -0.6615
 6295TIP3    H240445   3.947   1.051   1.530 -0.1471  1.5261 -0.2243
 6296TIP3   OH240446   6.422   4.229   0.980  0.2401  0.0194  0.1846
 6296TIP3    H140447   6.435   4.184   1.064  1.6795  1.4136  0.7589
 6296TIP3    H240448   6.329   4.250   0.979  0.4958  1.5731  2.3243
 6297TIP3   OH240449   5.529   2.924   1.059 -0.3054 -0.3966  0.3138
 6297TIP3    H140450   5.530   2.865   1.135  1.3153  0.2908  0.8592
 6297TIP3    H240451   5.504   3.009   1.095 -0.0533 -0.1780 -0.0307
 6298TIP3   OH240452   5.695   0.036   0.105 -0.3491  0.3385  0.1756
 6298TIP3    H140453   5.636   0.012   0.177  0.5897  0.6337  1.0746
 6298TIP3    H240454   5.754  -0.039   0.097  0.0079  0.6096  0.2215
 6299TIP3   OH240455   4.969   0.939   0.802 -0.7528  0.1848 -0.1510
 6299TIP3    H140456   5.064   0.937   0.799 -0.6543  0.2210  1.7854
 6299TIP3    H240457   4.947   1.031   0.821 -1.0630 -0.1302  1.1244
 6300TIP3   OH240458   2.570   2.507   8.215  0.1605 -0.0780  0.3024
 6300TIP3    H140459   2.649   2.550   8.184  1.1725 -2.4525 -0.6448
 6300TIP3    H240460   2.500   2.542   8.161  0.8500  0.7222 -0.0808
 6301TIP3   OH240461   6.442   0.262   8.125  0.1330 -0.1472 -0.3121
 6301TIP3    H140462   6.413   0.345   8.088  0.3409  0.0440 -0.0421
 6301TIP3    H240463   6.501   0.226   8.058 -1.1526 -0.8184 -1.1388
 6302TIP3   OH240464   3.580   0.199   0.067 -0.3036  0.3641  0.8666
 6302TIP3    H140465   3.509   0.135   0.074  0.0022 -0.3041 -1.2985
 6302TIP3    H240466   3.567   0.238  -0.020  2.2913 -0.2160  0.1470
 6303TIP3   OH240467   3.317   5.568   0.373 -0.0391  0.6512  0.1607
 6303TIP3    H140468   3.303   5.551   0.466 -0.4901  0.7521  0.1128
 6303TIP3    H240469   3.315   5.481   0.333 -1.5966  0.7403  0.0163
 6304TIP3   OH240470   4.422   0.046   7.256 -0.2914  0.0665 -0.0410
 6304TIP3    H140471   4.414   0.055   7.351 -0.1460  0.5431 -0.0752
 6304TIP3    H240472   4.402   0.133   7.221 -1.0931 -0.2881 -0.4942
 6305TIP3   OH240473   1.498   3.550   1.861 -0.4852  0.2270  0.0423
 6305TIP3    H140474   1.535   3.549   1.949 -1.3632  1.1136  0.4387
 6305TIP3    H240475   1.414   3.595   1.870 -0.2883  0.9405 -1.3652
 6306TIP3   OH240476   0.374   6.537   7.423 -0.1586 -0.2310  0.2633
 6306TIP3    H140477   0.370   6.449   7.384  0.0502  0.5569 -1.6672
 6306TIP3    H240478   0.284   6.556   7.448 -0.3553 -0.6840 -0.0787
 6307TIP3   OH240479   4.890   6.373   0.313 -0.1385  0.1631 -0.2208
 6307TIP3    H140480   4.873   6.441   0.249 -0.1215 -0.0076 -0.4102
 6307TIP3    H240481   4.835   6.395   0.388  0.1041  0.5571 -0.1560
 6308TIP3   OH240482   1.232   5.597   8.795 -0.1410  0.5165 -0.5534
 6308TIP3    H140483   1.283   5.517   8.787 -0.7541 -0.1132  1.2856
 6308TIP3    H240484   1.294   5.660   8.832 -0.4598 -0.0486  1.0153
 6309TIP3   OH240485   0.112   1.420   1.552  0.3729 -0.3128 -0.7259
 6309TIP3    H140486   0.171   1.393   1.481  1.0350 -0.0396 -0.2928
 6309TIP3    H240487   0.029   1.378   1.532  0.2986  0.4291 -2.1273
 6310TIP3   OH240488   3.977   2.691   6.520 -0.0031  0.2083 -0.4342
 6310TIP3    H140489   3.906   2.706   6.457 -0.2170  1.0388 -0.0110
 6310TIP3    H240490   3.991   2.776   6.560 -0.7125 -0.5433  1.5164
 6311TIP3   OH240491   3.692   3.935   0.085  0.0266 -0.1230  0.2444
 6311TIP3    H140492   3.782   3.904   0.075 -0.5022 -1.7744  0.2777
 6311TIP3    H240493   3.642   3.883   0.023 -0.7570  1.6300 -0.6641
 6312TIP3   OH240494   5.990   2.793   0.856  0.1976 -0.4136  0.3345
 6312TIP3    H140495   5.987   2.886   0.832 -0.2875 -0.7976 -1.1461
 6312TIP3    H240496   5.931   2.787   0.932  1.9118  0.8447  1.8772
 6313TIP3   OH240497   3.987   4.761   2.254  0.0176  0.9007  0.1374
 6313TIP3    H140498   3.950   4.760   2.166  0.3963 -0.4743 -0.0245
 6313TIP3    H240499   3.939   4.694   2.302 -0.0198  1.4693  0.9250
 6314TIP3   OH240500   3.063   1.511   2.450 -0.8893 -0.3255  0.4102
 6314TIP3    H140501   3.140   1.480   2.497 -0.9990 -0.6555  0.3713
 6314TIP3    H240502   3.047   1.446   2.382 -1.1744 -0.2351  0.3858
 6315TIP3   OH240503   4.452   6.006   2.102 -0.4036  0.6572  0.1342
 6315TIP3    H140504   4.474   6.014   2.195  1.2469 -0.9253 -0.0677
 6315TIP3    H240505   4.356   6.006   2.100 -0.4822  1.6574  1.7137
 6316TIP3   OH240506   3.550   0.071   7.492  0.0156  0.2089  0.1838
 6316TIP3    H140507   3.541   0.102   7.402 -0.8121  1.0764  0.5445
 6316TIP3    H240508   3.469   0.099   7.535  0.8832  0.8253  1.4790
 6317TIP3   OH240509   4.615   1.087   0.424 -1.0111  0.1480  0.2749
 6317TIP3    H140510   4.624   1.086   0.520  3.6199  1.3700  0.1264
 6317TIP3    H240511   4.684   1.028   0.394 -0.3031  2.1142 -2.2847
 6318TIP3   OH240512   0.079   2.556   8.284 -0.1905  0.4103  0.2807
 6318TIP3    H140513   0.160   2.567   8.335 -0.2718  0.4137  0.4090
 6318TIP3    H240514   0.085   2.467   8.250  1.5896  1.5266 -2.6801
 6319TIP3   OH240515   4.328   4.525   7.505 -0.1950  0.7207  0.2374
 6319TIP3    H140516   4.341   4.619   7.489 -0.5172  0.6375 -0.5136
 6319TIP3    H240517   4.239   4.507   7.475 -0.2464  0.2303  0.6623
 6320TIP3   OH240518   4.611   1.623   7.354 -0.9793 -0.3926  0.4428
 6320TIP3    H140519   4.532   1.665   7.321 -0.3640 -0.4998 -1.2818
 6320TIP3    H240520   4.657   1.691   7.403 -2.1070 -0.3336  1.4550
 6321TIP3   OH240521   0.325   2.528   6.954  0.0461 -0.0683 -0.2808
 6321TIP3    H140522   0.321   2.477   7.034  1.4288 -0.3827 -0.3967
 6321TIP3    H240523   0.369   2.472   6.891 -1.5345 -0.0503 -1.4674
 6322TIP3   OH240524   3.125   0.723   7.334  0.1878  0.3237 -0.2070
 6322TIP3    H140525   3.113   0.755   7.424 -0.0105 -1.4403  0.4269
 6322TIP3    H240526   3.063   0.775   7.282 -0.3693  0.7339  0.8307
 6323TIP3   OH240527   2.020   0.560   1.112 -0.6723 -0.2982  0.2806
 6323TIP3    H140528   2.073   0.484   1.090 -0.7121  0.1071 -1.3053
 6323TIP3    H240529   1.941   0.523   1.151 -0.4196 -1.0403  0.1042
 6324TIP3   OH240530   2.992   0.968   0.522  0.3195  0.3865  0.4285
 6324TIP3    H140531   2.952   1.053   0.504 -1.5192 -0.4968  0.0834
 6324TIP3    H240532   2.938   0.906   0.473  1.3586 -1.0270  1.0237
 6325TIP3   OH240533   4.712   3.254   7.594  0.4289  0.2575  0.0193
 6325TIP3    H140534   4.666   3.192   7.651  0.8505  0.7250  0.8888
 6325TIP3    H240535   4.798   3.263   7.633  1.1178 -0.2228 -1.3161
 6326TIP3   OH240536   3.171   5.310   7.215 -0.4520  0.3138  0.9167
 6326TIP3    H140537   3.184   5.278   7.304 -1.5553 -1.9934  0.3208
 6326TIP3    H240538   3.236   5.263   7.163 -0.3200  1.0823  0.3717
 6327TIP3   OH240539   6.200   4.358   6.614 -0.4127  0.6838 -0.4920
 6327TIP3    H140540   6.161   4.327   6.696 -1.9903  0.3282 -1.3418
 6327TIP3    H240541   6.293   4.337   6.623 -0.8388 -1.0300  0.4802
 6328TIP3   OH240542   4.684   0.156   6.875  0.9460 -0.2763  0.2977
 6328TIP3    H140543   4.705   0.073   6.918  0.5236 -0.9807 -0.8191
 6328TIP3    H240544   4.715   0.145   6.785  2.0921  1.2880  0.4660
 6329TIP3   OH240545   6.233   1.492   6.617 -0.1255 -0.1226  0.1666
 6329TIP3    H140546   6.276   1.406   6.615 -0.9247 -0.5193 -1.5012
 6329TIP3    H240547   6.142   1.472   6.637 -0.1463  0.4403  0.6586
 6330TIP3   OH240548   0.042   5.096   6.628  0.2496 -0.2840  0.3494
 6330TIP3    H140549   0.041   5.128   6.538  3.7858  0.3892  0.3986
 6330TIP3    H240550   0.120   5.040   6.633 -0.1047 -0.6748  2.8587
 6331TIP3   OH240551   5.215   1.281   8.620  0.0122 -0.7949  0.0866
 6331TIP3    H140552   5.293   1.286   8.565  1.2125  1.6882  1.8522
 6331TIP3    H240553   5.206   1.188   8.640  1.9147 -1.2509 -0.9490
 6332TIP3   OH240554   6.528   1.443   0.973  0.3182  0.5698 -0.2790
 6332TIP3    H140555   6.534   1.348   0.984  3.8056  0.3253 -2.7515
 6332TIP3    H240556   6.450   1.457   0.920 -0.7904 -0.7262  0.9257
 6333TIP3   OH240557   3.898   1.315   8.753  0.7161 -0.1082 -0.6254
 6333TIP3    H140558   3.911   1.399   8.797  0.1757  0.5849 -1.7308
 6333TIP3    H240559   3.821   1.277   8.795  0.4064  0.3886 -0.7357
 6334TIP3   OH240560   1.202   2.321   8.702  0.5016  0.5544 -0.5286
 6334TIP3    H140561   1.265   2.388   8.675 -0.0695  2.0926  1.7107
 6334TIP3    H240562   1.120   2.346   8.658  0.9681 -0.3871 -1.9825
 6335TIP3   OH240563   2.919   2.053   7.677 -0.1368  0.1207  0.0193
 6335TIP3    H140564   2.905   2.139   7.717  0.0297  0.4851 -0.6977
 6335TIP3    H240565   2.976   2.007   7.739 -0.5240  0.3887  0.5813
 6336TIP3   OH240566   1.013   2.341   7.332  0.1022  0.4059 -0.2631
 6336TIP3    H140567   0.927   2.322   7.369  0.9396 -2.3344  0.4827
 6336TIP3    H240568   1.054   2.399   7.396 -1.2611  2.0727 -0.8182
 6337TIP3   OH240569   1.839   6.014   7.080  0.2396  0.1881  0.7298
 6337TIP3    H140570   1.827   6.108   7.066  1.7758  0.2118 -0.6376
 6337TIP3    H240571   1.864   5.979   6.995 -3.3572 -2.0532  0.3750
 6338TIP3   OH240572   5.462   0.761   1.214  0.5567  0.3438  0.3518
 6338TIP3    H140573   5.446   0.855   1.204 -1.2324  0.1807  1.2575
 6338TIP3    H240574   5.512   0.754   1.295 -1.1290  0.4155  1.4411
 6339TIP3   OH240575   5.963   2.250   1.438  0.3738  0.1517  0.0637
 6339TIP3    H140576   5.927   2.332   1.474  0.1348  0.4503 -0.8240
 6339TIP3    H240577   5.886   2.195   1.423  0.2230  0.8504 -1.9903
 6340TIP3   OH240578   2.364   2.156   1.494  0.3521 -0.0339 -0.3321
 6340TIP3    H140579   2.300   2.225   1.510  1.6024  0.5413  2.8697
 6340TIP3    H240580   2.322   2.076   1.528  0.9103  0.1627  0.8533
 6341TIP3   OH240581   4.295   6.621   7.805 -0.1361  0.1556 -0.4152
 6341TIP3    H140582   4.351   6.567   7.749 -1.7055  0.3849 -2.3034
 6341TIP3    H240583   4.352   6.692   7.834  0.8171 -0.1055 -1.5493
 6342TIP3   OH240584   3.064   4.051   8.160  0.3554 -0.4304 -0.2722
 6342TIP3    H140585   2.973   4.075   8.144  0.2621  0.0300  0.8770
 6342TIP3    H240586   3.098   4.026   8.074  0.3466  3.4350 -1.5869
 6343TIP3   OH240587   0.909   1.125   2.329 -0.0762  0.1966  0.2501
 6343TIP3    H140588   0.926   1.036   2.361 -0.7474 -0.2438 -0.5670
 6343TIP3    H240589   0.962   1.181   2.385  1.8370 -0.8725 -0.4171
 6344TIP3   OH240590   4.873   6.194   1.822  0.6671 -0.5358 -0.7240
 6344TIP3    H140591   4.925   6.249   1.880 -1.3520 -0.5166  1.2139
 6344TIP3    H240592   4.832   6.130   1.881 -0.4566 -1.3615 -2.3326
 6345TIP3   OH240593   3.607   0.475   8.709  0.1454 -0.0572  0.0162
 6345TIP3    H140594   3.519   0.438   8.704 -0.1608  0.7716 -1.4062
 6345TIP3    H240595   3.595   0.569   8.693  1.2880  0.0577 -0.2979
 6346TIP3   OH240596   5.827   6.226   7.260 -0.4356  0.1716 -0.2064
 6346TIP3    H140597   5.739   6.191   7.274  0.1184 -0.8657  0.8523
 6346TIP3    H240598   5.856   6.255   7.346 -0.3856  2.1534 -0.8429
 6347TIP3   OH240599   4.222   2.567   8.593  0.0970  0.0668  0.0180
 6347TIP3    H140600   4.277   2.507   8.643 -0.6569  0.6308  1.5978
 6347TIP3    H240601   4.255   2.561   8.504  3.3562  1.0508  1.0150
 6348TIP3   OH240602   0.074   5.888   8.661  0.6223  0.6756 -0.5685
 6348TIP3    H140603   0.028   5.804   8.663  0.3638  0.8309 -0.0189
 6348TIP3    H240604   0.164   5.865   8.635 -0.3188  0.6482 -4.3428
 6349TIP3   OH240605   4.479   0.119   0.002  0.7389 -0.0534 -0.1568
 6349TIP3    H140606   4.482   0.197  -0.052  0.8901  0.3803  0.4701
 6349TIP3    H240607   4.388   0.090  -0.003  0.8530 -0.2854 -1.0061
 6350TIP3   OH240608   4.991   2.851   6.547 -0.5918 -0.0267 -0.4985
 6350TIP3    H140609   4.918   2.829   6.605 -0.8118 -0.1614 -0.8167
 6350TIP3    H240610   5.022   2.936   6.577  0.7103 -1.0517  1.1960
 6351TIP3   OH240611   6.582   4.387   1.659 -0.6563 -0.4568  0.0716
 6351TIP3    H140612   6.545   4.467   1.622 -1.8537 -0.5619  0.9721
 6351TIP3    H240613   6.512   4.351   1.714  0.7331 -0.7516  1.7571
 6352TIP3   OH240614   1.799   3.616   7.935 -0.0122 -0.4928  0.1711
 6352TIP3    H140615   1.885   3.655   7.924  0.3988 -1.1691  0.8513
 6352TIP3    H240616   1.809   3.557   8.010 -1.4268  0.4638  1.1792
 6353TIP3   OH240617   1.394   2.048   8.059  0.6316  0.1727 -0.7647
 6353TIP3    H140618   1.419   2.132   8.020  0.8197  0.1488 -0.6971
 6353TIP3    H240619   1.301   2.059   8.081  1.1549  1.1958  1.2920
 6354TIP3   OH240620   2.032   0.981   7.592 -0.1609 -1.0135  0.0182
 6354TIP3    H140621   2.045   0.923   7.516  1.7361 -0.3263 -0.2519
 6354TIP3    H240622   2.047   1.069   7.557  2.4065 -0.7853  1.4453
 6355TIP3   OH240623   6.024   1.379   1.033 -0.2295 -0.4684  0.3904
 6355TIP3    H140624   5.979   1.297   1.053 -1.4146  0.2245  0.6292
 6355TIP3    H240625   6.036   1.422   1.117  1.3303 -0.8488  0.3895
 6356TIP3   OH240626   1.112   5.673   6.846  0.5820  0.0238  0.5619
 6356TIP3    H140627   1.115   5.713   6.759  1.6326 -1.3003 -0.0610
 6356TIP3    H240628   1.068   5.737   6.901 -1.8901  0.1431 -1.3404
 6357TIP3   OH240629   2.304   1.183   1.379 -0.3068  0.5538  0.0236
 6357TIP3    H140630   2.228   1.149   1.331  0.1476 -0.6490  0.1100
 6357TIP3    H240631   2.279   1.174   1.471 -0.2761  0.6891  0.0447
 6358TIP3   OH240632   1.312   5.206   0.166 -0.0168 -0.0921  0.0584
 6358TIP3    H140633   1.349   5.291   0.142  2.7652 -1.1420  0.3253
 6358TIP3    H240634   1.345   5.146   0.099  0.0739 -1.3764  1.2074
 6359TIP3   OH240635   5.856   1.836   8.363  0.4139  0.8736 -0.6744
 6359TIP3    H140636   5.838   1.764   8.423  0.0997  2.1766  0.8397
 6359TIP3    H240637   5.950   1.850   8.371  0.6259  0.1111 -1.6146
 6360TIP3   OH240638   0.556   0.468   1.487  0.9426 -0.6314  0.5044
 6360TIP3    H140639   0.520   0.555   1.469 -0.0557 -1.2355 -0.5870
 6360TIP3    H240640   0.619   0.482   1.558  1.4254  1.1063 -0.2147
 6361TIP3   OH240641   0.419   6.638   1.861 -0.5861 -0.0087 -0.2291
 6361TIP3    H140642   0.427   6.726   1.825 -0.0517  0.5820  1.2546
 6361TIP3    H240643   0.508   6.603   1.858 -0.8177 -0.5513 -0.9208
 6362TIP3   OH240644   4.855   6.733   6.980 -0.4785 -0.1778  0.3440
 6362TIP3    H140645   4.912   6.682   7.037 -1.4607  1.7436  3.2615
 6362TIP3    H240646   4.904   6.814   6.963 -0.5775 -0.3458 -0.8645
 6363TIP3   OH240647   4.097   5.795   1.795  0.1741  0.2061 -0.3165
 6363TIP3    H140648   4.067   5.776   1.884 -0.9860 -0.9199 -0.9223
 6363TIP3    H240649   4.016   5.805   1.744  0.7911 -1.2573 -1.6580
 6364TIP3   OH240650   2.946   5.077   0.285  0.1006  0.0338 -0.2724
 6364TIP3    H140651   2.868   5.073   0.230 -1.1556 -2.5084  1.4969
 6364TIP3    H240652   2.947   5.167   0.319 -1.3209  0.4655 -1.2910
 6365TIP3   OH240653   5.916   5.050   1.925  0.2503  0.3177  0.0783
 6365TIP3    H140654   5.920   4.979   1.989 -1.9956 -0.6438 -0.7466
 6365TIP3    H240655   5.876   5.123   1.973 -0.1456  0.0450  0.1753
 6366TIP3   OH240656   4.957   2.255   7.535  0.8184  0.0973 -0.0227
 6366TIP3    H140657   4.991   2.299   7.613 -0.2452 -0.1861  0.6163
 6366TIP3    H240658   4.987   2.309   7.462 -0.1494  1.6833  0.7177
 6367TIP3   OH240659   1.463   2.225   1.618  0.0196  0.6598 -0.6093
 6367TIP3    H140660   1.475   2.132   1.598 -0.8030  0.3579  0.1941
 6367TIP3    H240661   1.523   2.242   1.690  1.4206  1.2063 -1.8561
 6368TIP3   OH240662   3.016   2.312   1.172 -0.5814  0.4402  0.0604
 6368TIP3    H140663   3.020   2.218   1.187 -1.0160  0.7418  2.4051
 6368TIP3    H240664   2.923   2.331   1.158 -0.7228  0.7054  1.2475
 6369TIP3   OH240665   5.244   3.233   7.684 -0.3104  0.3681  0.1184
 6369TIP3    H140666   5.256   3.283   7.765  0.3883 -0.1211  0.3276
 6369TIP3    H240667   5.282   3.147   7.703 -0.5724  0.0903 -0.5730
 6370TIP3   OH240668   2.917   5.533   7.725  0.5543 -0.2545  0.1269
 6370TIP3    H140669   3.012   5.536   7.725  0.5668 -0.6193  0.3171
 6370TIP3    H240670   2.894   5.509   7.635  0.6926 -1.4961  0.4123
 6371TIP3   OH240671   4.208   1.860   8.625 -1.2104  0.1878 -0.1073
 6371TIP3    H140672   4.248   1.840   8.540  1.2360  0.7595  0.8504
 6371TIP3    H240673   4.181   1.952   8.618 -2.2257 -0.1352 -0.6755
 6372TIP3   OH240674   6.766   0.665   1.931  0.1163 -0.2175  0.2512
 6372TIP3    H140675   6.824   0.613   1.987  0.3993  0.2467  0.3907
 6372TIP3    H240676   6.774   0.755   1.964 -0.7374 -0.1538  0.3223
 6373TIP3   OH240677   6.148   3.745   0.794  0.5724  0.0293 -0.5877
 6373TIP3    H140678   6.127   3.652   0.809 -3.1665 -0.0876 -4.5246
 6373TIP3    H240679   6.238   3.744   0.760  0.5983 -2.1539 -0.5955
 6374TIP3   OH240680   1.018   5.380   6.803  0.2879  0.1360 -0.0475
 6374TIP3    H140681   0.996   5.463   6.844  1.0619 -0.0603  0.8192
 6374TIP3    H240682   1.063   5.403   6.722  0.1961  0.5604  0.0244
 6375TIP3   OH240683   3.352   1.044   8.721  0.2825 -0.1422 -0.2712
 6375TIP3    H140684   3.259   1.056   8.741  0.3138  0.5832 -0.5526
 6375TIP3    H240685   3.389   1.013   8.804 -0.1071  0.0986  0.0004
 6376TIP3   OH240686   2.160   4.209   0.465  0.1087  0.7791  0.1714
 6376TIP3    H140687   2.117   4.129   0.436  1.5530 -0.5421  1.4953
 6376TIP3    H240688   2.205   4.242   0.387 -0.1347  0.0656 -0.2811
 6377TIP3   OH240689   5.961   0.494   6.419 -0.0499 -0.2220 -0.5564
 6377TIP3    H140690   5.888   0.510   6.479  0.5055 -0.8934  0.3266
 6377TIP3    H240691   6.018   0.570   6.430  0.0731 -0.3661 -0.1964
 6378TIP3   OH240692   4.177   1.501   0.573 -0.2066 -0.1689 -0.2104
 6378TIP3    H140693   4.114   1.572   0.561  0.0418  0.2016  0.5800
 6378TIP3    H240694   4.203   1.476   0.484  0.4215  1.3855 -0.5081
 6379TIP3   OH240695   4.909   4.093   8.200  0.3365 -0.0061  0.1520
 6379TIP3    H140696   4.924   4.013   8.149 -0.5335  0.7766 -1.4048
 6379TIP3    H240697   4.815   4.110   8.191  0.5207  1.2273  0.4011
 6380TIP3   OH240698   1.974   0.947   7.149 -0.1260  0.0262 -0.4537
 6380TIP3    H140699   2.031   0.872   7.165 -0.0093 -0.1256 -1.4963
 6380TIP3    H240700   1.917   0.919   7.078 -2.0462 -0.0984  1.0514
 6381TIP3   OH240701   1.035   5.551   8.604 -0.7720 -0.0292 -0.3350
 6381TIP3    H140702   1.086   5.482   8.562 -1.2559 -0.0828 -0.8508
 6381TIP3    H240703   1.087   5.576   8.680 -0.2265 -0.4336 -0.5637
 6382TIP3   OH240704   5.226   2.572   7.157 -0.1343 -0.0033  0.1194
 6382TIP3    H140705   5.204   2.648   7.104 -1.8277 -1.5435 -1.4755
 6382TIP3    H240706   5.289   2.523   7.104  2.3950  1.0538  1.8965
 6383TIP3   OH240707   5.997   0.267   1.057  0.1049 -0.4127  0.3113
 6383TIP3    H140708   5.935   0.250   1.129  1.1436  0.8031  1.5457
 6383TIP3    H240709   5.942   0.284   0.981 -1.0709 -0.1996  1.1872
 6384TIP3   OH240710   6.746   2.359   0.130  0.0747  0.3266 -0.6933
 6384TIP3    H140711   6.656   2.368   0.161  0.1979  0.5084 -0.3868
 6384TIP3    H240712   6.767   2.444   0.092  0.0805  0.2493 -0.8638
 6385TIP3   OH240713   5.380   3.766   6.144  0.1556 -0.5099 -0.4534
 6385TIP3    H140714   5.425   3.821   6.079  2.2785 -0.8924  0.5805
 6385TIP3    H240715   5.450   3.712   6.182 -0.9942 -0.4440  2.0006
 6386TIP3   OH240716   5.801   3.222   6.634  0.0275  0.5532 -0.3478
 6386TIP3    H140717   5.862   3.295   6.647  0.9576  0.4164 -3.2201
 6386TIP3    H240718   5.724   3.246   6.686  0.3864  3.4823 -0.9961
 6387TIP3   OH240719   1.705   3.996   7.730 -0.3190 -0.3538 -1.0306
 6387TIP3    H140720   1.640   3.977   7.662 -1.0256  0.8045 -0.7077
 6387TIP3    H240721   1.730   4.086   7.713  0.1300 -0.3330 -0.2597
 6388TIP3   OH240722   1.089   1.416   1.205 -0.3740 -0.2939 -0.2505
 6388TIP3    H140723   1.096   1.335   1.255  0.8804  1.6555  3.0597
 6388TIP3    H240724   1.000   1.414   1.168  0.2552 -3.9146 -1.9685
 6389TIP3   OH240725   1.374   5.337   8.162  0.1196  0.3988 -0.6398
 6389TIP3    H140726   1.333   5.253   8.143  0.0323 -0.0773  1.4588
 6389TIP3    H240727   1.301   5.399   8.169  0.1513  0.5811 -1.6701
 6390TIP3   OH240728   2.582   0.510   7.462  0.9890 -0.3954  0.0396
 6390TIP3    H140729   2.526   0.562   7.519  0.6217  0.7191 -1.2840
 6390TIP3    H240730   2.608   0.435   7.515  0.8184  0.6882  1.7196
 6391TIP3   OH240731   2.214   6.571   8.738 -0.2259 -0.3936 -0.2588
 6391TIP3    H140732   2.126   6.552   8.770 -1.0154 -0.5030 -2.3252
 6391TIP3    H240733   2.213   6.665   8.721  0.5643 -0.1219  1.0373
 6392TIP3   OH240734   4.906   0.119   0.473 -0.1652 -0.2527 -0.0323
 6392TIP3    H140735   4.936   0.058   0.406 -0.1971  0.3853 -0.6372
 6392TIP3    H240736   4.858   0.186   0.425  0.0447  0.3657  0.5994
 6393TIP3   OH240737   1.814   5.315   7.203  0.1280 -0.7722  0.4968
 6393TIP3    H140738   1.879   5.371   7.161  1.3865 -0.4599  2.7014
 6393TIP3    H240739   1.744   5.307   7.139  1.6138  0.1962 -1.3528
 6394TIP3   OH240740   2.721   5.507   1.003 -0.1426 -0.4855  1.0302
 6394TIP3    H140741   2.697   5.422   1.040 -0.9943 -1.4049 -1.4235
 6394TIP3    H240742   2.766   5.486   0.922  0.2792  1.4246  0.7252
 6395TIP3   OH240743   4.675   6.612   0.965 -0.5747  0.6492  0.5121
 6395TIP3    H140744   4.650   6.659   1.045  2.1536  2.9798  0.1524
 6395TIP3    H240745   4.735   6.671   0.920  2.3904 -2.7558 -0.5186
 6396TIP3   OH240746   4.425   3.179   0.013  0.9688 -0.3028 -0.0423
 6396TIP3    H140747   4.456   3.132  -0.064 -0.5461 -0.1332 -0.8083
 6396TIP3    H240748   4.408   3.268  -0.019 -1.1550 -0.6234  0.0342
 6397TIP3   OH240749   0.878   2.696   1.543 -0.3473 -0.6798  0.0088
 6397TIP3    H140750   0.968   2.680   1.513 -0.1756 -0.7867  0.5673
 6397TIP3    H240751   0.889   2.738   1.628 -0.8008  1.0527 -0.7466
 6398TIP3   OH240752   5.251   3.553   8.083 -0.2657 -0.0852 -0.1529
 6398TIP3    H140753   5.247   3.627   8.022  0.2023  0.4209  0.4267
 6398TIP3    H240754   5.331   3.567   8.133 -1.1537  0.0813  1.2910
 6399TIP3   OH240755   2.637   0.751   7.262 -0.2581  0.1424 -0.0319
 6399TIP3    H140756   2.632   0.790   7.175 -0.3895 -0.9423 -0.5327
 6399TIP3    H240757   2.549   0.761   7.297 -0.5547 -0.5475 -0.5483
 6400TIP3   OH240758   3.524   2.028   1.976  0.2376 -0.1432  0.1363
 6400TIP3    H140759   3.591   1.960   1.982 -0.3444 -0.7302  0.1456
 6400TIP3    H240760   3.454   1.997   2.035 -1.4004 -1.1323 -2.1723
 6401TIP3   OH240761   4.172   5.049   8.619 -0.3211 -0.7318  0.0979
 6401TIP3    H140762   4.256   5.038   8.663  0.2122 -0.9828 -0.9482
 6401TIP3    H240763   4.143   5.137   8.644 -0.4991 -1.2016  1.6785
 6402TIP3   OH240764   5.166   4.615   8.256  0.1548  0.0955  0.4441
 6402TIP3    H140765   5.129   4.567   8.329 -0.2782 -0.8276 -0.3538
 6402TIP3    H240766   5.229   4.676   8.295 -1.5338  1.0745  1.7585
 6403TIP3   OH240767   0.303   2.987   7.009 -0.3850  0.0444 -0.1533
 6403TIP3    H140768   0.273   2.903   7.042  0.6469 -0.2586  0.0189
 6403TIP3    H240769   0.344   2.967   6.925 -1.1810  0.5384 -0.6750
 6404TIP3   OH240770   3.290   0.620   1.168 -0.0553 -0.6290 -0.1681
 6404TIP3    H140771   3.341   0.701   1.162  0.6386 -1.1328 -1.4407
 6404TIP3    H240772   3.199   0.648   1.155  0.0159  0.1197  0.8708
 6405TIP3   OH240773   5.037   5.278   8.665  0.2812  0.3743 -0.0559
 6405TIP3    H140774   4.979   5.204   8.681  1.6545 -1.3990 -2.6775
 6405TIP3    H240775   4.986   5.354   8.694 -3.3166 -1.0631 -1.9970
 6406TIP3   OH240776   1.275   5.180   7.852  0.3690 -0.3225  0.1720
 6406TIP3    H140777   1.251   5.134   7.933  0.3199  0.9793  0.9183
 6406TIP3    H240778   1.315   5.112   7.798 -0.5542 -1.4529  0.8596
 6407TIP3   OH240779   0.731   0.671   8.366 -0.0242 -0.5182  0.7683
 6407TIP3    H140780   0.810   0.723   8.377  1.1482 -2.1299  0.4145
 6407TIP3    H240781   0.691   0.669   8.453 -0.0188  0.8168  0.8116
 6408TIP3   OH240782   5.942   4.126   6.632 -0.0432  0.0544 -0.4108
 6408TIP3    H140783   5.899   4.200   6.588 -1.6043 -0.5969 -0.0375
 6408TIP3    H240784   5.927   4.051   6.574  0.5965 -0.1972 -0.2632
 6409TIP3   OH240785   2.381   0.052   8.269  0.1304 -0.0662  0.1718
 6409TIP3    H140786   2.379   0.119   8.200  0.1987 -0.3491 -0.1070
 6409TIP3    H240787   2.291   0.048   8.302  0.4507  1.3797  1.3792
 6410TIP3   OH240788   1.450   1.923   8.333 -0.9903  0.2130 -0.1772
 6410TIP3    H140789   1.400   1.992   8.375 -1.9157 -0.0490 -0.8069
 6410TIP3    H240790   1.443   1.941   8.240 -0.1544 -0.0076 -0.2926
 6411TIP3   OH240791   4.483   0.220   1.139  0.0836 -0.2859 -0.1317
 6411TIP3    H140792   4.470   0.139   1.188 -0.6167  0.2878  0.6813
 6411TIP3    H240793   4.456   0.199   1.050 -2.2281 -0.4057  0.5253
 6412TIP3   OH240794   5.520   5.297   0.095  0.3044 -0.0135  0.3564
 6412TIP3    H140795   5.609   5.304   0.128  0.3883  0.4981  0.0405
 6412TIP3    H240796   5.528   5.307   0.000 -0.1272  0.4673  0.3639
 6413TIP3   OH240797   4.431   2.642   8.827  0.5426  0.4590 -0.3795
 6413TIP3    H140798   4.342   2.678   8.825  0.7923  1.0857 -0.6381
 6413TIP3    H240799   4.484   2.709   8.783  1.4966  1.1180  1.6743
 6414TIP3   OH240800   4.432   2.745   1.059 -0.1014 -0.2751  0.3450
 6414TIP3    H140801   4.466   2.772   0.973  0.3383 -1.2313  0.2117
 6414TIP3    H240802   4.431   2.826   1.110 -2.2264  0.7603 -1.1273
 6415TIP3   OH240803   1.991   5.860   1.900 -0.7714 -0.1747  0.0647
 6415TIP3    H140804   2.063   5.907   1.858 -1.2470  0.2370 -0.2980
 6415TIP3    H240805   2.034   5.789   1.947 -0.1212  0.0881 -0.1115
 6416TIP3   OH240806   2.177   3.234   0.848  0.1792 -0.1466 -0.3460
 6416TIP3    H140807   2.209   3.185   0.772  2.1190  0.1307  0.2334
 6416TIP3    H240808   2.140   3.313   0.811 -2.2295 -1.5860 -1.2333
 6417TIP3   OH240809   5.489   3.357   0.402  0.0415  0.3585 -0.2167
 6417TIP3    H140810   5.562   3.390   0.455  1.0558  0.1914 -1.4652
 6417TIP3    H240811   5.417   3.349   0.464  1.0512  0.6090  1.0451
 6418TIP3   OH240812   2.248   0.465   0.360  0.7476 -0.1589  0.3712
 6418TIP3    H140813   2.255   0.419   0.443 -0.2986  0.3717  0.7661
 6418TIP3    H240814   2.235   0.557   0.384 -0.5667 -0.1338 -0.3535
 6419TIP3   OH240815   4.011   0.909   7.804 -0.6463 -0.3008 -0.3595
 6419TIP3    H140816   3.967   0.909   7.719 -0.9019  1.1472 -0.2613
 6419TIP3    H240817   3.967   0.978   7.854  2.5814  2.3700 -0.7753
 6420TIP3   OH240818   1.038   2.631   2.278 -0.1411  0.0506 -0.6022
 6420TIP3    H140819   1.109   2.663   2.335 -0.4006  1.5505 -1.0953
 6420TIP3    H240820   1.027   2.699   2.213 -1.1093 -0.8179 -1.3744
 6421TIP3   OH240821   3.834   5.065   7.356 -0.2770  0.0095  0.6115
 6421TIP3    H140822   3.918   5.044   7.314  0.2938  1.9241  0.6881
 6421TIP3    H240823   3.772   5.003   7.317  1.1465 -1.4638  0.5586
 6422TIP3   OH240824   2.355   0.305   8.431 -0.0503 -0.7568  0.1861
 6422TIP3    H140825   2.448   0.289   8.444  0.3155 -0.3484 -1.6413
 6422TIP3    H240826   2.315   0.218   8.428  0.1204 -0.9157  1.7244
 6423TIP3   OH240827   5.129   0.970   7.949 -0.1194  0.4812 -0.0246
 6423TIP3    H140828   5.205   1.024   7.971 -0.4304  1.3009 -0.8722
 6423TIP3    H240829   5.167   0.894   7.903  0.2434  0.4894  0.2545
 6424TIP3   OH240830   0.133   4.359   2.270 -0.5293 -0.3305 -0.2822
 6424TIP3    H140831   0.053   4.338   2.319 -0.0574  0.1726  0.7206
 6424TIP3    H240832   0.204   4.334   2.329  0.0529  0.3185 -0.6997
 6425TIP3   OH240833   3.519   5.236   8.612  0.1929  0.0348 -0.3292
 6425TIP3    H140834   3.584   5.214   8.679  0.0473 -1.9329 -0.7698
 6425TIP3    H240835   3.435   5.218   8.654  0.0875 -0.8095 -0.8650
 6426TIP3   OH240836   4.894   4.271   7.746  1.1378 -0.2960 -0.1782
 6426TIP3    H140837   4.969   4.270   7.805  1.4423  1.0617 -0.5042
 6426TIP3    H240838   4.818   4.281   7.804  1.3930  0.5169  0.0320
 6427TIP3   OH240839   4.130   4.213   7.382  0.0243  0.1445 -0.0017
 6427TIP3    H140840   4.220   4.204   7.414 -0.5146 -0.2558  1.4757
 6427TIP3    H240841   4.112   4.307   7.387  0.2926  0.2018 -0.1075
 6428TIP3   OH240842   3.813   1.087   7.861 -0.4880 -0.0684 -0.3259
 6428TIP3    H140843   3.750   1.061   7.929  1.0207 -1.3725  0.6227
 6428TIP3    H240844   3.850   1.169   7.892 -1.2014  0.3480 -0.5524
 6429TIP3   OH240845   0.403   0.631   6.991  0.4150 -0.5885  0.0557
 6429TIP3    H140846   0.323   0.587   7.022 -0.4559 -0.2974 -1.6694
 6429TIP3    H240847   0.462   0.559   6.967 -1.0019 -0.9706 -2.7494
 6430TIP3   OH240848   1.918   6.409   7.564  0.0614 -0.1085 -0.1762
 6430TIP3    H140849   1.835   6.388   7.521 -0.5627 -0.9440  1.3521
 6430TIP3    H240850   1.919   6.355   7.643  1.8290  0.2753  0.1235
 6431TIP3   OH240851   4.007   5.123   7.570 -0.4680 -0.3316 -0.2763
 6431TIP3    H140852   4.012   5.199   7.628  0.6931 -1.7559  1.5634
 6431TIP3    H240853   3.932   5.073   7.602 -1.0048 -0.1830 -1.2555
 6432TIP3   OH240854   4.762   2.245   2.115 -0.6351  0.0368 -0.0327
 6432TIP3    H140855   4.829   2.231   2.182  0.6510  0.1481 -1.2432
 6432TIP3    H240856   4.791   2.191   2.041 -2.4616 -0.7316 -0.2305
 6433TIP3   OH240857   4.358   6.652   1.046  0.4630  0.2016 -0.3521
 6433TIP3    H140858   4.295   6.595   1.001  1.4118 -0.5945 -0.7076
 6433TIP3    H240859   4.379   6.604   1.127 -0.0874  0.9110  0.2261
 6434TIP3   OH240860   4.426   6.701   1.636  0.3310 -0.1788  0.7168
 6434TIP3    H140861   4.436   6.750   1.717  2.4554  0.4782  0.1217
 6434TIP3    H240862   4.477   6.622   1.649 -0.9144 -1.0142  0.6953
 6435TIP3   OH240863   0.182   4.950   2.654  0.7369  0.1717  0.5186
 6435TIP3    H140864   0.086   4.949   2.654  0.7362 -0.1757  1.5084
 6435TIP3    H240865   0.205   5.022   2.596 -0.1441  1.2518  1.4714
 6436TIP3   OH240866   0.457   3.328   8.144 -0.1094  0.2703  0.0966
 6436TIP3    H140867   0.467   3.365   8.232  0.1882 -1.9306  1.0464
 6436TIP3    H240868   0.531   3.268   8.135  0.1930  0.8793 -1.9260
 6437TIP3   OH240869   0.303   4.739   7.590 -0.4684 -0.2831 -0.1559
 6437TIP3    H140870   0.331   4.786   7.511  0.8579 -0.9002 -0.0807
 6437TIP3    H240871   0.309   4.804   7.660 -1.3254  0.1730 -0.4770
 6438TIP3   OH240872   5.339   6.198   1.934 -0.5809 -0.0775 -0.0042
 6438TIP3    H140873   5.306   6.142   2.003  3.2490 -2.7838 -0.0827
 6438TIP3    H240874   5.401   6.257   1.977 -1.0364  0.9165 -0.6462
 6439TIP3   OH240875   4.779   1.278   6.890 -0.0323  0.2077  0.5020
 6439TIP3    H140876   4.784   1.369   6.862 -1.0375 -0.1169 -0.8939
 6439TIP3    H240877   4.795   1.228   6.810  1.4467 -0.8729  1.4270
 6440TIP3   OH240878   4.133   6.717   8.468 -0.1785 -0.6030  0.6456
 6440TIP3    H140879   4.043   6.742   8.448  0.1222 -0.3335 -0.4043
 6440TIP3    H240880   4.161   6.780   8.535  0.6870  2.2834 -2.1895
 6441TIP3   OH240881   1.424   4.653   0.694 -0.1357 -0.3334  0.6275
 6441TIP3    H140882   1.444   4.745   0.714  2.2130 -0.5834 -0.2695
 6441TIP3    H240883   1.339   4.656   0.650 -0.8764  1.2079  2.0624
 6442TIP3   OH240884   6.167   0.819   7.803  0.2097  0.6132  0.5012
 6442TIP3    H140885   6.073   0.806   7.791  0.6351  0.3489 -4.7514
 6442TIP3    H240886   6.207   0.741   7.764  2.6816  1.1181  1.7978
 6443TIP3   OH240887   0.009   2.723   8.057 -0.2133  0.0068  0.0728
 6443TIP3    H140888   0.044   2.649   8.107 -2.0244  0.2036  1.7081
 6443TIP3    H240889   0.024   2.799   8.113 -1.4476  0.3693 -0.0649
 6444TIP3   OH240890   6.542   3.103   0.239  0.3624  0.2161 -0.0457
 6444TIP3    H140891   6.548   3.013   0.208 -2.7111  0.6463 -2.4320
 6444TIP3    H240892   6.623   3.145   0.211  0.2308 -0.9512 -2.3395
 6445TIP3   OH240893   5.448   6.590   1.445 -0.0896 -0.2432 -0.6352
 6445TIP3    H140894   5.434   6.682   1.468  2.1911  0.8200 -3.0084
 6445TIP3    H240895   5.521   6.562   1.499  0.0378 -0.2701 -0.8211
 6446TIP3   OH240896   4.271   5.196   7.076  0.0065 -0.3127 -0.2610
 6446TIP3    H140897   4.230   5.198   6.990  0.0477 -0.8038 -0.2985
 6446TIP3    H240898   4.249   5.280   7.115 -1.1691 -0.6120 -0.2258
 6447TIP3   OH240899   1.634   3.011   7.375  0.1447 -0.2045  0.0376
 6447TIP3    H140900   1.599   3.062   7.448 -2.2117 -2.4328  0.6210
 6447TIP3    H240901   1.661   2.928   7.415  0.6413 -0.7282 -1.3414
 6448TIP3   OH240902   3.632   0.140   1.990 -0.6451 -0.0369 -0.0577
 6448TIP3    H140903   3.591   0.166   2.072  1.1623 -0.1243  0.9300
 6448TIP3    H240904   3.724   0.126   2.013 -0.2039 -0.5864 -1.9944
 6449TIP3   OH240905   0.294   6.036   8.033  0.7912  0.2541  0.0455
 6449TIP3    H140906   0.332   5.974   7.970 -0.1469  0.7097 -1.0136
 6449TIP3    H240907   0.219   5.989   8.069  0.9558  0.2275  0.3524
 6450TIP3   OH240908   0.713   2.463   8.157 -0.3743 -0.2551 -0.0210
 6450TIP3    H140909   0.672   2.542   8.121 -1.2591 -0.2577  0.9413
 6450TIP3    H240910   0.641   2.414   8.197  0.0929 -1.7347 -0.8781
 6451TIP3   OH240911   6.487   5.967   0.554  0.6156  0.4437 -0.5866
 6451TIP3    H140912   6.456   6.050   0.589  1.2068  0.1704  0.6444
 6451TIP3    H240913   6.556   5.939   0.615 -0.5274 -1.6326 -0.1599
 6452TIP3   OH240914   0.356   1.043   0.369  0.0036  0.2082  0.0455
 6452TIP3    H140915   0.386   1.086   0.448  0.9122 -2.0899  1.0523
 6452TIP3    H240916   0.436   1.028   0.318 -0.2156 -0.6122 -0.0726
 6453TIP3   OH240917   2.711   3.075   6.990  0.4507  0.3197 -0.2374
 6453TIP3    H140918   2.673   3.118   6.912 -2.6794 -0.4334  0.7070
 6453TIP3    H240919   2.726   2.984   6.962  1.9696  0.6795 -0.6897
 6454TIP3   OH240920   4.314   3.050   1.608 -0.1415 -0.2828  0.6971
 6454TIP3    H140921   4.247   3.023   1.545 -0.1357  0.2833  0.4444
 6454TIP3    H240922   4.269   3.045   1.693 -1.6240  3.2680  0.2932
 6455TIP3   OH240923   0.492   3.829   0.028 -0.7707  0.2349  0.4532
 6455TIP3    H140924   0.579   3.857  -0.002 -0.4924 -0.6186  0.4280
 6455TIP3    H240925   0.432   3.892  -0.009 -0.0658  1.4873  1.3522
 6456TIP3   OH240926   2.552   5.139   6.437  0.0110  0.0609  0.4510
 6456TIP3    H140927   2.481   5.114   6.378  0.4873  0.9301 -0.5123
 6456TIP3    H240928   2.593   5.215   6.395  0.3661  0.7019  1.8882
 6457TIP3   OH240929   0.939   3.011   1.467 -0.2502 -0.5800 -0.0631
 6457TIP3    H140930   1.006   3.061   1.514  0.1825  0.1745 -1.4506
 6457TIP3    H240931   0.903   2.952   1.534  2.2799 -1.5423  0.5547
 6458TIP3   OH240932   1.577   4.049   0.309 -0.1739 -0.1941  0.6561
 6458TIP3    H140933   1.560   4.081   0.398 -0.1152 -1.3732  1.1179
 6458TIP3    H240934   1.566   3.954   0.316 -1.9961 -0.1604 -1.0125
 6459TIP3   OH240935   0.961   6.580   2.275  0.2486  0.2129 -0.7163
 6459TIP3    H140936   0.918   6.653   2.319  0.2488  0.7158 -1.5345
 6459TIP3    H240937   1.047   6.573   2.316 -0.7036 -1.0628  1.2333
 6460TIP3   OH240938   3.928   3.989   6.280  0.1782  0.0870  0.1025
 6460TIP3    H140939   4.009   4.040   6.277  1.5135 -1.9253 -2.1555
 6460TIP3    H240940   3.948   3.917   6.341  0.2507 -0.6200 -0.7429
 6461TIP3   OH240941   2.219   5.299   2.047 -0.5695 -0.4366 -0.1723
 6461TIP3    H140942   2.235   5.380   2.095  0.4456 -0.0578 -1.1135
 6461TIP3    H240943   2.301   5.251   2.053  1.0049  1.1948 -4.4335
 6462TIP3   OH240944   0.201   2.485   0.987  0.2312 -0.1959 -0.2545
 6462TIP3    H140945   0.193   2.390   0.985 -1.9491 -0.1314  1.5618
 6462TIP3    H240946   0.259   2.503   1.061 -0.9185 -0.0943  0.6423
 6463TIP3   OH240947   0.321   0.212   1.082 -0.2570  0.0417  0.6261
 6463TIP3    H140948   0.358   0.297   1.105  1.4498 -0.5456  0.2153
 6463TIP3    H240949   0.268   0.187   1.157 -1.3118  1.7346  0.4844
 6464TIP3   OH240950   2.299   4.006   2.474  0.9041 -0.5327 -0.1075
 6464TIP3    H140951   2.241   4.022   2.548  0.4664 -2.4875  0.0342
 6464TIP3    H240952   2.255   3.938   2.424  2.0111 -0.4405 -1.2425
 6465TIP3   OH240953   3.993   4.382   0.726  0.7062  0.0500  0.1309
 6465TIP3    H140954   4.037   4.405   0.644 -0.6074 -0.9456 -0.8786
 6465TIP3    H240955   3.955   4.296   0.710 -0.8863  0.5096  1.2487
 6466TIP3   OH240956   3.996   2.787   8.004 -0.4281 -0.0316 -0.9127
 6466TIP3    H140957   3.975   2.880   8.010  0.8830  0.2084  0.5473
 6466TIP3    H240958   4.080   2.784   7.959  0.2979 -0.3744  0.4226
 6467TIP3   OH240959   3.114   1.649   8.689 -0.0109  0.3241 -0.7038
 6467TIP3    H140960   3.126   1.633   8.595 -0.2050  0.9313 -0.8352
 6467TIP3    H240961   3.196   1.690   8.716  1.1538 -2.2274 -0.0285
 6468TIP3   OH240962   5.985   5.789   0.550 -0.1187  0.1848 -0.4089
 6468TIP3    H140963   6.058   5.828   0.501 -0.9111  1.6425 -0.4835
 6468TIP3    H240964   6.015   5.700   0.570  1.4980  0.6004 -0.8096
 6469TIP3   OH240965   1.036   3.231   0.279 -0.2254 -0.4433 -0.1637
 6469TIP3    H140966   1.046   3.282   0.359 -0.0992 -0.9754  0.1655
 6469TIP3    H240967   0.945   3.204   0.279 -0.4918  0.3957 -0.7231
 6470TIP3   OH240968   6.507   5.185   8.274 -0.1074  0.1282  0.2035
 6470TIP3    H140969   6.461   5.241   8.335  0.1467 -0.0709  0.5791
 6470TIP3    H240970   6.576   5.240   8.238  0.7039 -0.1926  1.2329
 6471TIP3   OH240971   2.058   4.287   1.629 -0.6330  0.1792  0.0973
 6471TIP3    H140972   2.056   4.275   1.534  0.6098 -0.4117  0.1310
 6471TIP3    H240973   2.011   4.370   1.643  0.5083  1.0978 -1.1904
 6472TIP3   OH240974   1.244   3.270   0.498  0.0096 -0.1030 -0.0565
 6472TIP3    H140975   1.156   3.238   0.517 -0.2610  0.3491 -0.5154
 6472TIP3    H240976   1.274   3.309   0.580 -0.6518  0.7053 -0.1778
 6473TIP3   OH240977   2.082   0.807   7.816  0.4415 -0.3338 -0.2263
 6473TIP3    H140978   2.175   0.827   7.831  0.8556 -1.0253 -1.6077
 6473TIP3    H240979   2.051   0.879   7.761 -0.3106  0.7511  1.5436
 6474TIP3   OH240980   0.109   3.980   7.536  0.7883 -0.0518 -0.8262
 6474TIP3    H140981   0.017   4.004   7.534  0.7028 -0.3194 -0.3332
 6474TIP3    H240982   0.125   3.954   7.627  1.8692  2.0548 -0.3403
 6475TIP3   OH240983   3.951   1.489   0.305  0.9266 -0.1742 -0.6841
 6475TIP3    H140984   3.978   1.566   0.355 -1.9347 -0.1532  1.0593
 6475TIP3    H240985   4.008   1.419   0.337  2.1008  0.7402 -0.6894
 6476TIP3   OH240986   4.148   2.097   7.662 -0.1326 -0.1002 -0.3076
 6476TIP3    H140987   4.195   2.157   7.720 -0.7921  1.1235 -1.0208
 6476TIP3    H240988   4.056   2.118   7.674 -0.3645 -0.8011 -0.7748
 6477TIP3   OH240989   3.715   4.023   1.152  0.2428  0.0122 -0.0689
 6477TIP3    H140990   3.676   3.937   1.164 -0.1159  0.2127  0.2126
 6477TIP3    H240991   3.650   4.084   1.185  1.5498  0.2660  2.2378
 6478TIP3   OH240992   2.059   2.549   7.019  0.4238  0.3443 -0.4025
 6478TIP3    H140993   1.988   2.612   7.024 -0.2682 -0.4090 -0.5723
 6478TIP3    H240994   2.022   2.468   7.054  0.9417 -0.2746 -1.2476
 6479TIP3   OH240995   5.569   5.803   0.611  0.2276 -0.0856 -0.0990
 6479TIP3    H140996   5.482   5.765   0.621 -0.9736  2.0393 -1.6067
 6479TIP3    H240997   5.553   5.892   0.580  2.9417  0.6211  0.2394
 6480TIP3   OH240998   2.892   1.854   2.120 -0.3926  0.1067  0.2998
 6480TIP3    H140999   2.971   1.823   2.164  0.5543 -0.3978 -1.6347
 6480TIP3    H241000   2.919   1.935   2.075 -0.2628 -1.2342 -2.2299
 6481TIP3   OH241001   3.773   3.689   7.305  0.4142 -0.0999  0.7483
 6481TIP3    H141002   3.821   3.682   7.387 -0.9494  0.9937  1.6754
 6481TIP3    H241003   3.733   3.776   7.306 -1.9225 -1.0749  0.2488
 6482TIP3   OH241004   4.874   4.097   1.726 -0.1825  0.5270 -0.6279
 6482TIP3    H141005   4.855   4.156   1.654  0.7411  0.6333 -0.7840
 6482TIP3    H241006   4.796   4.041   1.732 -0.7602  1.2831 -0.9303
 6483TIP3   OH241007   3.327   5.039   7.173  0.0333 -0.1788 -0.5552
 6483TIP3    H141008   3.236   5.014   7.158 -0.4741  1.5539 -0.5781
 6483TIP3    H241009   3.328   5.073   7.262  1.0716 -1.7906  0.1027
 6484TIP3   OH241010   3.135   3.497   1.286 -0.1737  0.3290  0.0897
 6484TIP3    H141011   3.053   3.448   1.287  0.0733 -0.0939  1.5509
 6484TIP3    H241012   3.202   3.430   1.271  0.2068  0.0665  2.5266
 6485TIP3   OH241013   1.380   2.810   6.599  0.1169  0.4168  0.0112
 6485TIP3    H141014   1.364   2.754   6.675  0.8098 -0.1127 -0.2133
 6485TIP3    H241015   1.295   2.822   6.559 -0.2976  0.8885  0.9896
 6486TIP3   OH241016   6.409   3.403   2.414  0.1403 -0.0611  0.0011
 6486TIP3    H141017   6.369   3.489   2.426  0.6648 -0.0965  2.4014
 6486TIP3    H241018   6.502   3.421   2.401 -0.0452 -0.1942 -1.8550
 6487TIP3   OH241019   0.836   1.633   8.168 -0.3686 -0.1479  0.2454
 6487TIP3    H141020   0.889   1.630   8.089 -0.9018 -0.1769 -0.1166
 6487TIP3    H241021   0.861   1.554   8.217 -0.4850 -0.4595 -0.1895
 6488TIP3   OH241022   2.518   0.637   1.497 -0.2953 -0.5564 -0.5091
 6488TIP3    H141023   2.445   0.692   1.469 -0.8760 -1.0060  0.1094
 6488TIP3    H241024   2.536   0.665   1.587 -1.2936 -2.0707  0.2046
 6489TIP3   OH241025   6.338   0.120   7.432  0.1284 -0.4534  0.1538
 6489TIP3    H141026   6.292   0.037   7.419  0.1823 -0.3925 -0.4642
 6489TIP3    H241027   6.315   0.146   7.521 -0.3625 -0.8413  0.1494
 6490TIP3   OH241028   5.314   0.638   1.938  0.0715  0.0243  0.5751
 6490TIP3    H141029   5.270   0.624   2.022  2.8132 -0.4481  2.0256
 6490TIP3    H241030   5.400   0.672   1.961  0.7544  0.3400 -2.0948
 6491TIP3   OH241031   3.669   3.900   7.639 -0.1324  0.3959  0.2455
 6491TIP3    H141032   3.611   3.944   7.576 -1.6553  0.2327  1.4599
 6491TIP3    H241033   3.643   3.808   7.635 -0.8357  0.5019  1.6508
 6492TIP3   OH241034   3.842   2.503   0.174  0.5796 -0.1003  0.0780
 6492TIP3    H141035   3.904   2.575   0.168  0.3756  0.0096 -0.7569
 6492TIP3    H241036   3.895   2.424   0.167  0.5260 -0.0059 -1.9952
 6493TIP3   OH241037   4.867   5.218   2.118  0.0278 -0.4406  0.9165
 6493TIP3    H141038   4.813   5.263   2.182 -0.5464  0.5940 -0.2591
 6493TIP3    H241039   4.943   5.188   2.168 -1.1963 -1.1947  2.4247
 6494TIP3   OH241040   6.248   4.528   8.602 -0.4164  0.1951 -0.0313
 6494TIP3    H141041   6.225   4.557   8.691 -1.7751 -1.5393  0.2357
 6494TIP3    H241042   6.171   4.550   8.549 -1.1398 -1.9924  0.0091
 6495TIP3   OH241043   3.180   5.982   8.513 -0.6610  0.2199 -0.2136
 6495TIP3    H141044   3.274   5.987   8.532 -0.5089 -0.6910 -0.6661
 6495TIP3    H241045   3.170   6.030   8.431 -0.6621  0.6654  0.0426
 6496TIP3   OH241046   6.274   1.117   7.026  0.5762 -0.6860 -0.6649
 6496TIP3    H141047   6.318   1.073   7.099 -1.9711 -2.1452  0.0894
 6496TIP3    H241048   6.250   1.046   6.966  0.8611  0.2857 -1.9767
 6497TIP3   OH241049   3.928   6.560   1.435  0.0551 -0.3149 -0.2335
 6497TIP3    H141050   3.905   6.469   1.453 -0.3807  0.1681  1.9502
 6497TIP3    H241051   3.887   6.610   1.506  0.8518  1.5080 -0.9860
 6498TIP3   OH241052   2.346   6.731   7.871  0.1125  0.5396 -0.5355
 6498TIP3    H141053   2.258   6.692   7.875 -0.1393  0.7294 -2.8678
 6498TIP3    H241054   2.330   6.824   7.856  0.7131  0.5543 -1.1178
 6499TIP3   OH241055   4.283   3.753   8.781 -0.0948 -0.4375  0.0602
 6499TIP3    H141056   4.243   3.775   8.696 -1.6208  1.5433  1.2069
 6499TIP3    H241057   4.377   3.766   8.767 -0.4465  1.3420 -0.9591
 6500TIP3   OH241058   0.555   4.203   0.479 -0.4949 -0.1675  0.2110
 6500TIP3    H141059   0.576   4.205   0.572  0.1431 -0.8836  0.0908
 6500TIP3    H241060   0.480   4.261   0.470  0.6742  1.4856  0.8359
 6501TIP3   OH241061   4.402   0.458   0.639 -0.7769  0.0837  0.0858
 6501TIP3    H141062   4.482   0.502   0.609 -1.6678  2.3772  0.8956
 6501TIP3    H241063   4.336   0.482   0.574 -1.4391  0.5359  0.9088
 6502TIP3   OH241064   3.356   1.241   1.336 -0.4063 -1.0323 -0.0312
 6502TIP3    H141065   3.339   1.147   1.348  1.7553 -1.3575  0.8428
 6502TIP3    H241066   3.409   1.245   1.257  0.3149 -0.6468  0.4666
 6503TIP3   OH241067   3.413   2.742   7.243 -0.9021 -0.2900 -0.7826
 6503TIP3    H141068   3.506   2.743   7.263 -1.2693 -0.1832  1.1734
 6503TIP3    H241069   3.398   2.825   7.196 -0.0388 -0.2943 -1.0870
 6504TIP3   OH241070   4.268   0.937   8.013 -0.7203 -0.6957  0.1930
 6504TIP3    H141071   4.279   0.940   7.917 -0.8901  0.5148  0.1901
 6504TIP3    H241072   4.322   1.009   8.045 -1.5892 -0.3423  0.9096
 6505TIP3   OH241073   0.783   3.798   8.789 -0.4283 -0.1586 -0.5650
 6505TIP3    H141074   0.834   3.871   8.754  0.5664 -0.7321 -0.3349
 6505TIP3    H241075   0.822   3.780   8.874 -1.8365  0.2103  0.1892
 6506TIP3   OH241076   6.666   3.569   1.366  0.3335  0.1696 -0.3115
 6506TIP3    H141077   6.672   3.474   1.364 -0.0376  0.1331  0.2119
 6506TIP3    H241078   6.676   3.593   1.458  2.8963  0.8240 -0.6703
 6507TIP3   OH241079   1.608   3.290   7.965 -0.0663  0.1590 -0.0281
 6507TIP3    H141080   1.600   3.371   7.914  0.7609  0.5551  0.4619
 6507TIP3    H241081   1.700   3.286   7.990  0.0419 -1.2578 -0.5681
 6508TIP3   OH241082   4.829   5.130   7.595 -0.2808 -0.0688  0.0106
 6508TIP3    H141083   4.877   5.201   7.553 -0.5459  0.5674  0.7622
 6508TIP3    H241084   4.747   5.170   7.624  0.3417 -0.1767  2.1107
 6509TIP3   OH241085   0.509   2.116   0.712  0.6664  0.3715 -0.0836
 6509TIP3    H141086   0.499   2.056   0.638  3.6792 -0.9463  0.4299
 6509TIP3    H241087   0.548   2.195   0.674  0.9945  0.2093 -0.0816
 6510TIP3   OH241088   0.960   5.931   7.454 -0.3323 -0.3268 -0.0079
 6510TIP3    H141089   0.884   5.941   7.511 -1.2778 -2.1620 -0.8559
 6510TIP3    H241090   0.926   5.889   7.375  0.9425  2.0302 -1.9510
 6511TIP3   OH241091   2.800   2.504   7.446  0.4415 -0.1852  0.1691
 6511TIP3    H141092   2.743   2.449   7.500 -0.1436  0.6001  0.3760
 6511TIP3    H241093   2.876   2.449   7.428  0.0920 -0.8907  0.7714
 6512TIP3   OH241094   4.107   5.612   7.774 -0.1565  0.0700 -0.4538
 6512TIP3    H141095   4.146   5.672   7.838 -0.9696 -0.3424  0.4455
 6512TIP3    H241096   4.055   5.669   7.717 -0.4636  0.2941  0.0442
 6513TIP3   OH241097   1.626   4.960   0.955  0.4620 -0.2136 -0.2515
 6513TIP3    H141098   1.629   5.019   1.030 -2.3490  0.1280 -0.2701
 6513TIP3    H241099   1.649   5.015   0.880 -1.2802  0.7351 -0.1581
 6514TIP3   OH241100   4.943   1.145   8.523 -0.2220 -0.5404 -0.1990
 6514TIP3    H141101   5.003   1.075   8.549  2.1620  1.5223  0.2636
 6514TIP3    H241102   4.865   1.132   8.578  0.2760 -2.5992  0.0830
 6515TIP3   OH241103   0.234   6.321   6.797 -0.3187  0.6107  0.0007
 6515TIP3    H141104   0.302   6.388   6.809 -0.4362  1.3162 -2.5925
 6515TIP3    H241105   0.160   6.369   6.759 -1.2604 -0.6321  0.1998
 6516TIP3   OH241106   4.566   5.374   1.026 -0.5100  0.6804  0.5048
 6516TIP3    H141107   4.549   5.282   1.010 -0.8862  0.9401 -0.7132
 6516TIP3    H241108   4.543   5.417   0.943 -0.5359  1.8825  1.1165
 6517TIP3   OH241109   4.406   4.323   0.672  0.6171  0.3607  1.4115
 6517TIP3    H141110   4.359   4.402   0.698  1.7298  1.6674 -0.3025
 6517TIP3    H241111   4.349   4.280   0.609  0.1049 -0.1433  2.1889
 6518TIP3   OH241112   0.084   4.345   8.211 -0.0104  0.2440 -0.0086
 6518TIP3    H141113   0.108   4.285   8.140 -0.5101  0.1201 -0.0745
 6518TIP3    H241114   0.015   4.299   8.258  0.3057  0.3356  0.5461
 6519TIP3   OH241115   6.598   3.625   8.121 -0.4676 -0.0871 -0.2943
 6519TIP3    H141116   6.626   3.536   8.142 -0.8199 -0.1157  0.0548
 6519TIP3    H241117   6.542   3.615   8.044 -1.6217 -0.3353  0.5529
 6520TIP3   OH241118   2.205   1.922   1.530 -0.3910  0.4195  0.3585
 6520TIP3    H141119   2.186   1.876   1.611  0.8602  1.6650  1.3957
 6520TIP3    H241120   2.119   1.952   1.499 -0.7570  1.2295  2.0349
 6521TIP3   OH241121   0.742   2.811   8.004 -0.2923 -0.4011 -0.3241
 6521TIP3    H141122   0.789   2.848   8.078  0.7324  0.4826 -1.3759
 6521TIP3    H241123   0.698   2.733   8.039 -0.2129  0.2604  1.2890
 6522TIP3   OH241124   3.675   4.413   7.711  0.1647 -0.2051 -0.2952
 6522TIP3    H141125   3.756   4.432   7.758  0.9129 -1.0650 -1.2196
 6522TIP3    H241126   3.660   4.320   7.724 -0.8620  0.0020  0.1283
 6523TIP3   OH241127   5.357   1.648   7.884 -0.0320 -0.0342  0.3039
 6523TIP3    H141128   5.445   1.613   7.878 -0.0515 -0.0583  0.1543
 6523TIP3    H241129   5.326   1.622   7.971  0.5589  1.0176  0.8520
 6524TIP3   OH241130   6.737   5.030   8.391 -0.0516  0.0961  0.2480
 6524TIP3    H141131   6.816   4.981   8.370  0.1991  0.2953  0.7061
 6524TIP3    H241132   6.719   5.082   8.312  2.3514  2.8197  1.2921
 6525TIP3   OH241133   3.611   2.552   0.982  0.5046  0.0892  0.4956
 6525TIP3    H141134   3.658   2.542   0.900  0.1226  0.4320  0.2325
 6525TIP3    H241135   3.605   2.647   0.995 -1.4980  0.1175 -0.2894
 6526TIP3   OH241136   0.354   6.381   7.696 -0.0937  0.5446  0.3240
 6526TIP3    H141137   0.388   6.319   7.761  0.0199 -1.9227 -1.9152
 6526TIP3    H241138   0.267   6.405   7.728 -1.0315 -2.4617  0.3290
 6527TIP3   OH241139   2.535   6.368   6.763 -0.1291  0.0752  0.2580
 6527TIP3    H141140   2.447   6.385   6.730 -0.0657 -0.0010  0.0494
 6527TIP3    H241141   2.592   6.381   6.687  0.3768  3.1656  1.0588
 6528TIP3   OH241142   4.670   2.146   8.060  0.0878 -0.1300 -0.0859
 6528TIP3    H141143   4.594   2.106   8.019  0.6356 -0.0775 -1.1893
 6528TIP3    H241144   4.709   2.201   7.991  0.6305  0.5178  0.7173
 6529TIP3   OH241145   6.417   4.887   1.703  0.1208  0.2769 -0.2301
 6529TIP3    H141146   6.477   4.941   1.754  0.4025  0.7743 -1.0532
 6529TIP3    H241147   6.402   4.809   1.756  1.6594  0.0535 -0.0844
 6530TIP3   OH241148   5.694   3.967   0.276 -0.2820 -0.7190 -0.0380
 6530TIP3    H141149   5.774   3.947   0.325 -0.1517  0.8569  0.4855
 6530TIP3    H241150   5.722   4.026   0.207 -1.1738  1.3361  1.2428
 6531TIP3   OH241151   3.300   2.631   2.618  0.2739 -0.3156 -0.2878
 6531TIP3    H141152   3.303   2.633   2.522 -0.7843 -1.2195 -0.3538
 6531TIP3    H241153   3.316   2.721   2.644  1.5774 -0.2247 -1.2743
 6532TIP3   OH241154   3.676   4.362   8.020  0.0629 -0.3078  0.3264
 6532TIP3    H141155   3.753   4.351   7.964  0.9897 -0.3176  1.5428
 6532TIP3    H241156   3.675   4.456   8.040  0.4116 -0.4642  1.1575
 6533TIP3   OH241157   3.134   2.122   8.766  0.1491 -0.1278 -0.2479
 6533TIP3    H141158   3.057   2.124   8.824  0.7542 -1.1067  0.6203
 6533TIP3    H241159   3.101   2.085   8.684 -0.6622  1.0239 -0.4741
 6534TIP3   OH241160   6.513   4.642   0.026 -0.5796 -0.2258 -0.1135
 6534TIP3    H141161   6.555   4.558   0.040 -0.5322  0.1141  2.1807
 6534TIP3    H241162   6.561   4.682  -0.046  2.1637 -0.4470  1.4720
 6535TIP3   OH241163   6.780   5.342   7.096 -0.2228 -0.1700 -0.3344
 6535TIP3    H141164   6.707   5.289   7.126  1.2888 -2.5106 -0.4797
 6535TIP3    H241165   6.812   5.297   7.017  1.3952  0.6978 -0.2299
 6536TIP3   OH241166   3.925   0.299   8.034 -0.8250 -0.2857  0.1481
 6536TIP3    H141167   3.931   0.232   7.966  0.0151  0.4181 -0.4945
 6536TIP3    H241168   3.899   0.378   7.987  1.2967  0.6019  0.3227
 6537TIP3   OH241169   1.728   3.631   0.020 -0.2957 -0.3919  0.6539
 6537TIP3    H141170   1.661   3.699   0.010 -0.6780 -0.8403  0.1297
 6537TIP3    H241171   1.809   3.681   0.032 -0.2384  0.2375 -1.8168
 6538TIP3   OH241172   6.408   3.719   1.009 -0.0033 -0.2210  0.0209
 6538TIP3    H141173   6.486   3.766   0.980  0.0456 -0.2715  0.0706
 6538TIP3    H241174   6.410   3.637   0.959  0.6721 -0.7991  0.9567
 6539TIP3   OH241175   3.714   2.383   6.726 -0.2206 -0.1811 -0.2397
 6539TIP3    H141176   3.751   2.310   6.775  0.1762  0.7915  0.9643
 6539TIP3    H241177   3.776   2.454   6.738 -1.3079  0.7842 -0.1600
 6540TIP3   OH241178   6.137   5.562   0.610 -0.0686  0.4907 -0.1528
 6540TIP3    H141179   6.144   5.468   0.594  2.1574  0.7469 -1.1073
 6540TIP3    H241180   6.221   5.585   0.651  0.5289  2.4229 -2.2312
 6541TIP3   OH241181   1.240   0.743   8.423  0.3496  0.6860  0.0454
 6541TIP3    H141182   1.280   0.674   8.475  1.5853  1.3640  0.0433
 6541TIP3    H241183   1.247   0.712   8.332 -2.9705 -1.0893  0.2509
 6542TIP3   OH241184   1.693   1.288   8.544 -0.3468  0.1455  0.0600
 6542TIP3    H141185   1.772   1.282   8.597  0.2788  0.7257 -0.7909
 6542TIP3    H241186   1.722   1.321   8.460 -1.4686  0.1751 -0.3405
 6543TIP3   OH241187   3.637   1.667   8.608 -0.4411 -0.3202 -0.1311
 6543TIP3    H141188   3.730   1.682   8.622 -0.3214 -1.7857  0.8501
 6543TIP3    H241189   3.614   1.725   8.535  1.5784 -1.0642 -1.4387
 6544TIP3   OH241190   4.358   5.723   0.995 -0.1016  0.3354  0.4231
 6544TIP3    H141191   4.384   5.641   0.953  0.3284  0.3943  0.5690
 6544TIP3    H241192   4.310   5.771   0.927 -0.9616 -0.3231  0.5445
 6545TIP3   OH241193   5.545   6.212   1.699 -0.1061  0.4511  0.1154
 6545TIP3    H141194   5.452   6.235   1.698 -0.0234  0.8840  1.0162
 6545TIP3    H241195   5.552   6.137   1.641 -1.1082  0.0811  0.4535
 6546TIP3   OH241196   2.097   2.133   6.976  0.2163  0.1810 -0.0466
 6546TIP3    H141197   2.035   2.065   7.002  0.3983 -0.0001 -0.0899
 6546TIP3    H241198   2.058   2.172   6.898  0.6909 -0.6652 -0.7191
 6547TIP3   OH241199   3.754   2.263   0.718 -0.5292 -0.4479  0.3031
 6547TIP3    H141200   3.661   2.287   0.722 -0.8052 -0.5656 -2.7957
 6547TIP3    H241201   3.754   2.173   0.685  0.6645 -0.2282 -0.3545
 6548TIP3   OH241202   6.598   6.614   8.692 -0.0764 -0.2002  0.4786
 6548TIP3    H141203   6.692   6.625   8.679 -0.3898  0.4893 -1.3840
 6548TIP3    H241204   6.589   6.523   8.722  1.2152 -0.0602  1.3984
 6549TIP3   OH241205   1.682   3.043   2.792  0.1565  0.0504  0.2436
 6549TIP3    H141206   1.696   3.016   2.701  2.0006 -2.7501  1.2460
 6549TIP3    H241207   1.700   3.138   2.791 -0.6325  0.2526 -2.4013
 6550TIP3   OH241208   0.591   0.240   2.694 -0.8891 -0.6042  0.1996
 6550TIP3    H141209   0.561   0.331   2.688  2.1585  0.4414 -1.6226
 6550TIP3    H241210   0.608   0.215   2.603  2.1265 -1.5149  0.9025
 6551TIP3   OH241211   2.775   6.533   7.243  0.3289  0.5033  0.1744
 6551TIP3    H141212   2.714   6.529   7.169  0.5261  3.2646 -0.2316
 6551TIP3    H241213   2.860   6.553   7.204  1.0573 -0.9659  0.9370
 6552TIP3   OH241214   2.964   6.188   7.350  0.1693  0.3651 -0.0016
 6552TIP3    H141215   3.018   6.113   7.376  0.1391  1.0156  2.1600
 6552TIP3    H241216   2.916   6.158   7.273  0.7534 -1.5523  0.3223
 6553TIP3   OH241217   1.684   3.235   6.865  0.9883  0.2179  0.0750
 6553TIP3    H141218   1.647   3.273   6.944  0.7379  1.6263 -0.6911
 6553TIP3    H241219   1.768   3.279   6.854  1.3356 -0.4659 -0.0775
 6554TIP3   OH241220   5.874   5.094   7.019  0.2267 -0.5375 -0.0922
 6554TIP3    H141221   5.884   5.189   7.031 -1.9436 -0.3133  0.3989
 6554TIP3    H241222   5.883   5.081   6.924  0.1011  0.2280 -0.2171
 6555TIP3   OH241223   5.292   1.533   2.500  0.7684  0.6281  0.3295
 6555TIP3    H141224   5.200   1.558   2.499  0.2484 -1.1368 -0.9952
 6555TIP3    H241225   5.340   1.616   2.497 -0.7549  1.5565  0.7928
 6556TIP3   OH241226   4.782   4.445   6.369 -0.4177 -0.1252 -0.1540
 6556TIP3    H141227   4.688   4.437   6.356 -0.4509  1.2316 -0.8899
 6556TIP3    H241228   4.800   4.538   6.361  0.7433 -0.1285  1.7396
 6557TIP3   OH241229   5.160   6.208   1.200  0.5231 -0.0594 -0.0637
 6557TIP3    H141230   5.189   6.258   1.123 -0.3217 -0.4920 -0.6826
 6557TIP3    H241231   5.099   6.266   1.245 -1.1307 -0.7601 -1.2456
 6558TIP3   OH241232   0.388   4.871   6.887  0.4147 -0.5220  0.2275
 6558TIP3    H141233   0.364   4.782   6.910 -1.5753  0.3809  2.0526
 6558TIP3    H241234   0.475   4.883   6.925  1.5568 -2.1634 -1.6502
 6559TIP3   OH241235   4.203   5.179   0.336 -0.1703 -0.2828  0.1596
 6559TIP3    H141236   4.211   5.119   0.411 -0.3522 -1.1686 -0.5230
 6559TIP3    H241237   4.149   5.251   0.369  0.8102 -0.0071  1.2752
 6560TIP3   OH241238   3.414   3.853   1.356 -0.1497 -0.4979  0.5538
 6560TIP3    H141239   3.483   3.807   1.308 -2.2562 -1.9140 -1.3158
 6560TIP3    H241240   3.354   3.784   1.383 -1.4790  0.7960  1.0135
 6561TIP3   OH241241   2.712   1.429   1.373 -0.0981  0.0537 -0.2275
 6561TIP3    H141242   2.712   1.525   1.367  0.8845  0.1092  0.3007
 6561TIP3    H241243   2.723   1.399   1.283  1.7965  0.5117 -0.1911
 6562TIP3   OH241244   5.251   0.774   0.805 -0.1311 -0.0429 -0.1797
 6562TIP3    H141245   5.281   0.685   0.825 -1.9006 -0.7249 -0.4062
 6562TIP3    H241246   5.209   0.767   0.719 -2.0867  0.5337  0.6706
 6563TIP3   OH241247   2.320   6.650   0.903 -0.0281 -0.2997  0.0573
 6563TIP3    H141248   2.399   6.600   0.924  0.7387  0.9528  0.2543
 6563TIP3    H241249   2.319   6.721   0.968 -0.8823  0.1557 -0.4420
 6564TIP3   OH241250   4.783   3.819   1.513 -0.4668  0.0794 -0.0346
 6564TIP3    H141251   4.718   3.859   1.571  0.4711  2.2212 -0.3430
 6564TIP3    H241252   4.867   3.852   1.545  0.2002 -0.0142 -1.5786
 6565TIP3   OH241253   1.241   5.882   1.205  0.7067 -0.2375  0.3728
 6565TIP3    H141254   1.247   5.920   1.118  2.0054 -0.4375  0.3621
 6565TIP3    H241255   1.172   5.816   1.198 -0.9671  1.4275  0.1596
 6566TIP3   OH241256   1.741   1.243   7.924 -0.5879  0.1961 -0.3943
 6566TIP3    H141257   1.754   1.149   7.925  0.3298  0.2643 -2.1787
 6566TIP3    H241258   1.808   1.277   7.984 -0.4014 -0.2368 -0.3569
 6567TIP3   OH241259   1.805   1.519   6.380  1.0810 -0.5594  0.6303
 6567TIP3    H141260   1.867   1.572   6.329  1.5651 -0.1217  1.6387
 6567TIP3    H241261   1.850   1.504   6.463 -0.6621  0.9191  1.9328
 6568TIP3   OH241262   3.352   3.977   8.201  0.1896  0.1814 -0.0142
 6568TIP3    H141263   3.271   4.025   8.186  1.0696  1.5589 -0.4839
 6568TIP3    H241264   3.381   4.005   8.288  0.5566  0.2875 -0.1685
 6569TIP3   OH241265   5.329   3.919   1.390  0.2995  0.6958  0.6578
 6569TIP3    H141266   5.275   3.840   1.389 -0.8848  1.4378  1.9588
 6569TIP3    H241267   5.361   3.927   1.300  0.5327 -1.2862  0.5186
 6570TIP3   OH241268   0.646   0.523   6.915 -0.3544  0.4209 -0.0712
 6570TIP3    H141269   0.631   0.617   6.914 -1.3128  0.2714 -0.9511
 6570TIP3    H241270   0.742   0.514   6.912 -0.2744  1.3576 -0.5490
 6571TIP3   OH241271   5.676   0.552   0.443  0.1549  0.2261 -0.4924
 6571TIP3    H141272   5.742   0.616   0.414 -0.3394  0.9486 -0.0393
 6571TIP3    H241273   5.592   0.596   0.429 -0.1372  0.3937  1.4952
 6572TIP3   OH241274   5.397   6.442   7.263 -0.1627  0.1570 -0.0007
 6572TIP3    H141275   5.389   6.458   7.357  0.6315 -1.8659  0.4636
 6572TIP3    H241276   5.319   6.484   7.225  0.0969  2.0117  1.3766
 6573TIP3   OH241277   4.207   2.737   7.010 -0.1867  0.3854 -0.2626
 6573TIP3    H141278   4.148   2.662   6.995  0.2153  0.4380 -2.3256
 6573TIP3    H241279   4.204   2.787   6.929  0.4824  1.9995  0.6563
 6574TIP3   OH241280   1.990   0.197   7.915  0.7972 -0.0873 -0.7255
 6574TIP3    H141281   2.023   0.287   7.925  2.2240 -0.7032  0.7470
 6574TIP3    H241282   2.068   0.146   7.894  0.5336 -1.3545  1.1269
 6575TIP3   OH241283   0.342   5.576   0.832 -0.0706  0.2368  0.1296
 6575TIP3    H141284   0.433   5.605   0.828  0.5230 -1.1038  2.1691
 6575TIP3    H241285   0.340   5.515   0.906 -2.6839  0.3961  0.2624
 6576TIP3   OH241286   0.649   0.660   0.007 -0.1135  0.1249  0.3082
 6576TIP3    H141287   0.607   0.575  -0.005 -1.1208  0.7140 -0.5347
 6576TIP3    H241288   0.743   0.640   0.013 -0.1819 -0.9152 -1.4751
 6577TIP3   OH241289   5.728   2.473   7.997  0.5002 -0.5169 -0.2719
 6577TIP3    H141290   5.645   2.486   7.951  0.8000 -2.5231 -1.4945
 6577TIP3    H241291   5.774   2.556   7.985 -1.6938  1.0894  1.4242
 6578TIP3   OH241292   2.715   5.404   0.631 -0.3707  0.0306  0.3281
 6578TIP3    H141293   2.741   5.444   0.548  0.0133 -0.3071  0.2831
 6578TIP3    H241294   2.720   5.310   0.614  0.0748 -0.0394  0.8440
 6579TIP3   OH241295   2.936   0.793   1.806  0.3526 -0.0894  0.3240
 6579TIP3    H141296   2.882   0.714   1.802  1.3940 -0.9127  1.5960
 6579TIP3    H241297   3.013   0.767   1.858  1.5003  1.3108 -0.5983
 6580TIP3   OH241298   0.826   1.668   8.651 -0.5784 -0.5556 -0.0746
 6580TIP3    H141299   0.893   1.649   8.585 -0.6426 -1.1854  0.0376
 6580TIP3    H241300   0.763   1.596   8.643 -2.0958  0.8221 -1.2661
 6581TIP3   OH241301   4.977   1.190   1.351  0.2223  0.3375  0.4853
 6581TIP3    H141302   4.887   1.222   1.355 -0.3946 -1.3938  1.4592
 6581TIP3    H241303   4.969   1.099   1.324  1.9163  0.8811 -2.2297
 6582TIP3   OH241304   0.077   2.225   0.993  0.4914 -0.5498 -0.2456
 6582TIP3    H141305   0.156   2.179   0.963  1.9624  0.8462  1.2619
 6582TIP3    H241306   0.012   2.156   1.005  1.9601 -1.9664 -0.0664
 6583TIP3   OH241307   5.017   2.546   0.264  0.0570 -0.3910  0.1831
 6583TIP3    H141308   4.946   2.514   0.320 -0.3944 -2.0012 -1.2143
 6583TIP3    H241309   5.015   2.641   0.274 -1.2163 -0.5203  1.4360
 6584TIP3   OH241310   2.786   3.300   2.221 -0.0664 -0.0235  0.8993
 6584TIP3    H141311   2.806   3.394   2.228 -1.4551  0.4818 -0.9004
 6584TIP3    H241312   2.836   3.271   2.144  0.9488 -0.9682  1.8894
 6585TIP3   OH241313   4.636   2.767   8.486  0.3690  0.0791  0.6578
 6585TIP3    H141314   4.728   2.756   8.509  1.0149 -0.8983 -1.9462
 6585TIP3    H241315   4.600   2.678   8.490  0.4543 -0.1069 -1.4721
 6586TIP3   OH241316   3.427   1.316   1.730  0.0690 -0.0151 -0.2237
 6586TIP3    H141317   3.403   1.223   1.726 -0.9908  0.1851  1.0284
 6586TIP3    H241318   3.386   1.355   1.653  0.2251 -0.5126 -0.5654
 6587TIP3   OH241319   4.565   1.049   2.114 -0.4663  0.0891 -0.2256
 6587TIP3    H141320   4.519   1.023   2.194 -0.8625 -1.0643 -0.8031
 6587TIP3    H241321   4.622   1.121   2.141 -2.1767  1.1919  0.6510
 6588TIP3   OH241322   6.058   1.799   7.262  0.4713 -0.0609  0.4011
 6588TIP3    H141323   6.151   1.793   7.243  0.3479 -4.3640  0.1631
 6588TIP3    H241324   6.042   1.732   7.328 -2.2297  1.7905  1.8382
 6589TIP3   OH241325   5.686   5.338   1.631  0.1258  0.0602  0.2153
 6589TIP3    H141326   5.748   5.302   1.568  0.1479 -0.5931  0.6059
 6589TIP3    H241327   5.739   5.364   1.706 -0.2098 -2.0991  1.2866
 6590TIP3   OH241328   3.113   3.087   6.882  0.6162 -0.2040 -0.5822
 6590TIP3    H141329   3.040   3.044   6.837 -0.7555  1.3000  0.1318
 6590TIP3    H241330   3.177   3.104   6.812 -1.7667  2.7695 -2.3037
 6591TIP3   OH241331   4.686   1.091   8.314  0.2052  0.3089 -0.0237
 6591TIP3    H141332   4.648   1.007   8.340 -0.8462  0.5144 -0.8334
 6591TIP3    H241333   4.766   1.097   8.365  0.1892 -1.0879  0.2229
 6592TIP3   OH241334   6.308   2.642   0.532 -0.1984 -0.5529 -0.4164
 6592TIP3    H141335   6.233   2.609   0.581 -0.5820  0.2046 -0.4865
 6592TIP3    H241336   6.361   2.687   0.598 -1.2760  1.4510 -0.8515
 6593TIP3   OH241337   5.137   4.197   8.575 -0.1881 -0.4536  0.1714
 6593TIP3    H141338   5.059   4.253   8.579  0.5904  0.9762 -2.3997
 6593TIP3    H241339   5.112   4.125   8.518  0.9529  1.3147 -2.8029
 6594TIP3   OH241340   0.013   6.734   8.073 -0.1353  0.1391 -0.1500
 6594TIP3    H141341   0.020   6.750   8.167  1.1643 -0.4928 -0.1248
 6594TIP3    H241342  -0.056   6.667   8.065 -0.9129  0.8730  0.2571
 6595TIP3   OH241343   6.519   6.161   8.219 -0.6421 -0.2401 -0.2093
 6595TIP3    H141344   6.471   6.085   8.252  0.1484 -0.6283  0.0586
 6595TIP3    H241345   6.566   6.129   8.142  0.1125 -0.1665  0.2136
 6596TIP3   OH241346   4.033   5.372   0.401  0.3185  0.0298  0.4576
 6596TIP3    H141347   4.081   5.451   0.377  0.2152 -0.1684 -0.4207
 6596TIP3    H241348   3.954   5.375   0.348 -0.0620 -0.2679  1.0030
 6597TIP3   OH241349   6.357   6.010   2.266  0.4043 -0.3217  0.2409
 6597TIP3    H141350   6.453   6.016   2.269  0.3781  0.3034 -0.0734
 6597TIP3    H241351   6.334   5.958   2.344  1.0641 -1.5095 -0.3226
 6598TIP3   OH241352   3.934   1.557   8.851  0.2760 -0.5864 -0.3166
 6598TIP3    H141353   3.917   1.612   8.775  1.7964 -0.0043 -0.2740
 6598TIP3    H241354   3.966   1.618   8.918  3.4534 -1.6042 -0.7268
 6599TIP3   OH241355   3.498   1.652   7.869  0.0376 -0.0003  0.7066
 6599TIP3    H141356   3.536   1.571   7.904 -0.5781  0.3848  2.3466
 6599TIP3    H241357   3.547   1.722   7.912 -0.9996  0.4878  1.1424
 6600TIP3   OH241358   0.326   1.630   8.012  0.1992  0.8494 -0.0732
 6600TIP3    H141359   0.391   1.674   8.067  0.5088  0.0124  0.2480
 6600TIP3    H241360   0.256   1.605   8.073 -0.5613  1.9475 -0.4540
 6601TIP3   OH241361   0.587   2.377   0.650 -0.4007 -0.1752 -0.0668
 6601TIP3    H141362   0.507   2.428   0.660  1.4039  2.8105  0.3795
 6601TIP3    H241363   0.650   2.419   0.709  1.4732 -2.5033 -0.2464
 6602TIP3   OH241364   4.221   6.414   0.995 -0.6507 -0.0857  0.1925
 6602TIP3    H141365   4.258   6.326   1.006  0.6871  0.4740  0.3205
 6602TIP3    H241366   4.127   6.399   0.985 -0.2809 -1.6685 -1.3669
 6603TIP3   OH241367   5.655   5.208   7.174  0.3734  0.6363 -0.0477
 6603TIP3    H141368   5.598   5.156   7.117  1.4609 -0.6490  0.0077
 6603TIP3    H241369   5.689   5.277   7.117  0.0542  0.4364 -0.4868
 6604TIP3   OH241370   6.296   1.673   6.807  0.1042 -0.0936 -1.0158
 6604TIP3    H141371   6.311   1.730   6.732 -1.3418  0.4721 -0.9105
 6604TIP3    H241372   6.248   1.598   6.770  0.3216 -0.3263 -0.8281
 6605TIP3   OH241373   3.533   0.222   7.264  0.1293 -0.1314  0.2040
 6605TIP3    H141374   3.595   0.176   7.206 -1.8883 -0.8100 -1.5521
 6605TIP3    H241375   3.532   0.312   7.232  0.7226  0.0596  0.7069
 6606TIP3   OH241376   1.270   2.884   1.714  0.6326 -0.0965  0.0961
 6606TIP3    H141377   1.323   2.939   1.772  1.9878  2.8234 -3.5533
 6606TIP3    H241378   1.334   2.835   1.662 -0.2063  1.2889 -2.3971
 6607TIP3   OH241379   1.951   3.447   2.655 -0.0796  0.3099 -0.4018
 6607TIP3    H141380   2.046   3.453   2.640  0.0240 -0.2920 -0.0310
 6607TIP3    H241381   1.912   3.471   2.572  0.4488 -1.4344 -1.2113
 6608TIP3   OH241382   2.036   2.434   8.655 -0.2778  1.1010 -0.1936
 6608TIP3    H141383   2.016   2.392   8.572 -1.2028  1.6055 -0.2334
 6608TIP3    H241384   2.108   2.382   8.691 -0.0238  0.7374 -1.1907
 6609TIP3   OH241385   4.221   2.778   7.268  0.1225 -0.0465  0.7423
 6609TIP3    H141386   4.230   2.757   7.175  0.1764 -0.0670  0.7519
 6609TIP3    H241387   4.153   2.845   7.271  0.2183  0.0549  0.6735
 6610TIP3   OH241388   5.211   2.569   1.033  0.0962 -0.2660 -0.2013
 6610TIP3    H141389   5.249   2.553   0.947 -0.6544  0.5190 -0.6916
 6610TIP3    H241390   5.215   2.664   1.044  0.0059 -0.3396  0.5503
 6611TIP3   OH241391   2.368   6.325   1.076  0.2762  0.3963  0.3607
 6611TIP3    H141392   2.430   6.391   1.048  1.1991 -0.4791  0.2791
 6611TIP3    H241393   2.390   6.309   1.168  0.1443  0.1107  0.3449
 6612TIP3   OH241394   4.715   3.199   8.094  0.4783 -0.0707 -0.1601
 6612TIP3    H141395   4.679   3.174   8.009 -0.2101 -0.3630  0.2071
 6612TIP3    H241396   4.649   3.256   8.133  1.1263  0.6657 -0.1305
 6613TIP3   OH241397   5.404   3.085   1.481  0.4417  0.0821  0.3374
 6613TIP3    H141398   5.459   3.144   1.430 -0.1558 -0.3810 -0.8721
 6613TIP3    H241399   5.464   3.045   1.544  1.8636 -1.5064 -1.8810
 6614TIP3   OH241400   5.975   2.886   7.140  0.2813  0.0564  0.3469
 6614TIP3    H141401   5.982   2.980   7.156 -2.2067  0.8527 -2.3747
 6614TIP3    H241402   6.059   2.862   7.101  0.8925  1.1558  0.9247
 6615TIP3   OH241403   2.801   3.227   6.384 -0.3989 -0.4730  0.0443
 6615TIP3    H141404   2.736   3.178   6.333 -0.7332  0.4321 -0.4296
 6615TIP3    H241405   2.878   3.171   6.384  0.1361  0.1133 -2.7969
 6616TIP3   OH241406   3.516   3.773   8.808 -0.0650 -0.5796  0.2184
 6616TIP3    H141407   3.458   3.743   8.737  0.8984 -0.0855 -0.8138
 6616TIP3    H241408   3.457   3.807   8.874 -1.0169 -1.4524 -0.1548
 6617TIP3   OH241409   5.444   2.248   7.688  0.0951 -0.3543 -0.4765
 6617TIP3    H141410   5.500   2.319   7.656 -1.2466  1.1717  0.4323
 6617TIP3    H241411   5.504   2.173   7.695  2.4473  1.5351  1.8051
 6618TIP3   OH241412   6.232   4.957   0.170  0.5349  0.5860 -0.8107
 6618TIP3    H141413   6.234   4.879   0.225 -1.1181 -0.6071 -2.3282
 6618TIP3    H241414   6.314   4.955   0.121  1.3138  0.8237  0.4293
 6619TIP3   OH241415   3.556   0.419   1.553 -0.2783 -0.0514  0.1872
 6619TIP3    H141416   3.505   0.463   1.621  1.4201  1.4778  0.5569
 6619TIP3    H241417   3.493   0.398   1.484 -1.4636  1.3220  0.8139
 6620TIP3   OH241418   6.775   6.370   8.383 -0.6337 -0.4262 -0.1072
 6620TIP3    H141419   6.708   6.302   8.395 -2.0120  0.5306 -1.9247
 6620TIP3    H241420   6.732   6.451   8.408  0.2757  0.0495 -0.0512
 6621TIP3   OH241421   2.593   0.059   1.041  0.1816 -0.6951 -0.3871
 6621TIP3    H141422   2.578   0.146   1.079  0.7049 -0.3545 -0.9427
 6621TIP3    H241423   2.540   0.000   1.094  0.1994 -0.1027  0.3023
 6622TIP3   OH241424   3.593   1.326   7.420 -0.7754 -0.6875 -0.5205
 6622TIP3    H141425   3.657   1.290   7.358 -0.7773  2.3490 -2.5286
 6622TIP3    H241426   3.508   1.315   7.376 -0.7881  1.4150 -1.1355
 6623TIP3   OH241427   4.421   0.473   1.104 -0.2293 -0.5987 -0.5382
 6623TIP3    H141428   4.433   0.382   1.129 -1.9399  0.0493  3.3869
 6623TIP3    H241429   4.489   0.521   1.152 -1.1106  0.4331 -0.2776
 6624TIP3   OH241430   5.816   2.568   8.431 -0.0984 -0.0426  0.2022
 6624TIP3    H141431   5.907   2.539   8.440 -0.4972 -1.4687 -0.1482
 6624TIP3    H241432   5.823   2.656   8.395  1.1767  0.5836  1.8142
 6625TIP3   OH241433   0.244   6.670   0.559 -0.0540  0.0933  0.5455
 6625TIP3    H141434   0.313   6.733   0.580 -0.5912  0.3640  1.5792
 6625TIP3    H241435   0.165   6.708   0.597 -0.5600 -0.7610  0.3660
 6626TIP3   OH241436   0.791   1.846   0.235  0.1066  0.2297  0.0490
 6626TIP3    H141437   0.744   1.929   0.232 -0.3782  0.0389  1.3494
 6626TIP3    H241438   0.834   1.839   0.150  0.3782  1.9363  0.0066
 6627TIP3   OH241439   4.703   2.865   2.566 -0.4882  0.2386  0.0957
 6627TIP3    H141440   4.609   2.882   2.555 -1.0309 -0.9940  2.1748
 6627TIP3    H241441   4.714   2.773   2.540  0.2265  0.4881 -0.5044
 6628TIP3   OH241442   0.073   0.921   1.425 -0.1775  0.2239 -0.2432
 6628TIP3    H141443   0.030   0.835   1.428 -0.3779  0.3418  0.3908
 6628TIP3    H241444   0.063   0.955   1.514 -2.9519  2.2921 -1.2054
 6629TIP3   OH241445   6.026   0.170   0.421 -0.1596 -0.0811 -0.1783
 6629TIP3    H141446   6.032   0.078   0.397  0.8089 -0.3445  0.9770
 6629TIP3    H241447   5.939   0.179   0.459 -1.2549  0.0854 -2.5265
 6630TIP3   OH241448   6.536   0.002   7.768  0.5307 -0.7173  0.5280
 6630TIP3    H141449   6.559   0.085   7.810  0.7289 -0.4898 -0.0195
 6630TIP3    H241450   6.486  -0.045   7.834 -2.6588  1.2618 -0.2485
 6631TIP3   OH241451   4.565   1.132   0.064  0.2635 -0.7265 -0.5406
 6631TIP3    H141452   4.619   1.114   0.141  0.1597 -1.1738 -0.5674
 6631TIP3    H241453   4.542   1.224   0.072  0.5043 -0.6933 -0.1938
 6632TIP3   OH241454   1.711   4.284   0.229 -0.3728 -0.2767 -0.0990
 6632TIP3    H141455   1.677   4.206   0.273 -0.7005 -1.3709 -2.1747
 6632TIP3    H241456   1.635   4.320   0.183  0.0010  0.7163  0.0411
 6633TIP3   OH241457   0.409   4.081   1.982  0.4332 -0.2569 -0.0649
 6633TIP3    H141458   0.328   4.040   1.953  1.5990 -1.2246 -2.2628
 6633TIP3    H241459   0.385   4.170   2.006 -1.0743 -0.0843 -1.9986
 6634TIP3   OH241460   1.170   3.672   6.879 -0.5192 -0.1760  0.4987
 6634TIP3    H141461   1.123   3.733   6.823 -0.3118  0.0837  0.6034
 6634TIP3    H241462   1.102   3.621   6.922 -0.7455  0.7503  1.2794
 6635TIP3   OH241463   5.552   2.353   2.354 -0.8211  0.3190 -0.0649
 6635TIP3    H141464   5.502   2.272   2.350 -0.9632  0.2970  1.4753
 6635TIP3    H241465   5.486   2.422   2.356 -0.7661  0.3551  0.7159
 6636TIP3   OH241466   1.152   3.970   0.929  0.1374 -0.3683 -0.5639
 6636TIP3    H141467   1.072   3.930   0.896 -0.4243 -0.3023  0.6620
 6636TIP3    H241468   1.151   3.952   1.023  0.8571  0.8257 -0.3012
 6637TIP3   OH241469   5.437   2.135   2.255  0.1658  0.2008 -0.3695
 6637TIP3    H141470   5.494   2.061   2.237 -1.2585 -0.9186 -0.4826
 6637TIP3    H241471   5.351   2.108   2.221 -0.6222  1.4839  0.4946
 6638TIP3   OH241472   1.056   3.373   0.766 -0.2419  0.3763 -0.1568
 6638TIP3    H141473   1.001   3.404   0.838  1.2356  1.6060  0.4907
 6638TIP3    H241474   1.075   3.282   0.788 -0.4817  0.4968  0.5815
 6639TIP3   OH241475   5.363   0.515   0.779 -0.2084  0.0296  0.0444
 6639TIP3    H141476   5.418   0.512   0.701 -0.7851  0.3133 -0.3805
 6639TIP3    H241477   5.424   0.503   0.852  0.5538  1.2457 -0.3651
 6640TIP3   OH241478   1.638   1.773   1.140  0.4292 -0.3486 -0.1888
 6640TIP3    H141479   1.614   1.759   1.048  0.4801 -0.7021 -0.1505
 6640TIP3    H241480   1.716   1.828   1.136  0.1133  0.0962 -0.3397
 6641TIP3   OH241481   5.836   3.405   0.860  0.4582  0.1564 -0.0004
 6641TIP3    H141482   5.764   3.408   0.797  0.9067 -1.5238 -0.6580
 6641TIP3    H241483   5.903   3.351   0.818  0.7008 -1.2127  1.9794
 6642TIP3   OH241484   1.166   1.641   1.343 -0.5364  0.0896  0.0357
 6642TIP3    H141485   1.160   1.555   1.301 -0.0835  0.7159 -1.3551
 6642TIP3    H241486   1.240   1.632   1.404  0.1138 -0.2351 -0.7810
 6643TIP3   OH241487   2.330   2.692   1.789 -0.5038  0.5222  0.0401
 6643TIP3    H141488   2.235   2.677   1.788 -0.5647  0.8250  0.6433
 6643TIP3    H241489   2.340   2.779   1.829 -0.0206  0.9249 -0.9336
 6644TIP3   OH241490   5.423   2.962   8.846 -0.1165 -0.4251  0.2867
 6644TIP3    H141491   5.493   3.027   8.840  0.7863 -1.4012 -0.0739
 6644TIP3    H241492   5.346   3.006   8.809  0.7903  0.0098 -1.1468
 6645TIP3   OH241493   2.681   5.462   7.083 -0.0351 -0.0332 -0.1114
 6645TIP3    H141494   2.631   5.488   7.161  1.4286  0.7560  0.6071
 6645TIP3    H241495   2.748   5.529   7.075  0.7536 -0.9261 -1.1965
 6646TIP3   OH241496   6.494   1.889   8.494  0.1379 -0.1880  0.4220
 6646TIP3    H141497   6.557   1.959   8.474 -2.2310  2.4430  1.4732
 6646TIP3    H241498   6.525   1.852   8.577  0.7146  0.4983  0.5263
 6647TIP3   OH241499   0.173   3.204   0.933  0.4604 -0.2030 -0.2433
 6647TIP3    H141500   0.159   3.298   0.936 -0.0566 -0.2439 -1.0237
 6647TIP3    H241501   0.085   3.167   0.925  0.6190 -0.7786  0.5692
 6648TIP3   OH241502   6.111   4.621   8.081 -0.1461 -0.1607 -0.3840
 6648TIP3    H141503   6.082   4.697   8.132  0.9874  0.3167 -0.4185
 6648TIP3    H241504   6.133   4.555   8.147  1.6342  0.5689 -0.1923
 6649TIP3   OH241505   6.569   6.116   1.629  0.0339  0.5721  0.3290
 6649TIP3    H141506   6.543   6.131   1.719  1.6678 -1.3164  1.1957
 6649TIP3    H241507   6.514   6.043   1.600  1.1440 -0.4238  0.6524
 6650TIP3   OH241508   4.107   5.771   0.827  0.1411 -0.3642 -0.2348
 6650TIP3    H141509   4.031   5.714   0.819  0.1612 -0.3020 -0.9737
 6650TIP3    H241510   4.073   5.851   0.867 -0.0689 -0.5407 -0.0562
 6651TIP3   OH241511   4.966   3.383   7.109  0.3065  0.1857  0.4534
 6651TIP3    H141512   5.022   3.309   7.085  0.0331  0.3002 -0.5466
 6651TIP3    H241513   5.020   3.460   7.093  0.8989  0.2155  2.2956
 6652TIP3   OH241514   3.184   2.730   7.419  0.2911 -0.0121 -0.5934
 6652TIP3    H141515   3.232   2.764   7.494  1.1603  1.6150 -1.8233
 6652TIP3    H241516   3.245   2.739   7.345 -1.0808 -0.0932 -1.7791
 6653TIP3   OH241517   5.132   4.548   7.978  0.2148 -0.1574 -0.4267
 6653TIP3    H141518   5.146   4.581   8.067 -0.4658  1.6305 -0.9282
 6653TIP3    H241519   5.182   4.467   7.974  1.8006  0.6878  1.0132
 6654TIP3   OH241520   0.464   0.685   7.786  0.0480 -0.5664  0.0690
 6654TIP3    H141521   0.548   0.639   7.789 -0.1184 -1.2130 -2.3637
 6654TIP3    H241522   0.484   0.767   7.741 -0.3381  0.1055  1.0878
 6655TIP3   OH241523   4.711   4.799   8.431  0.4085  0.3240  0.6271
 6655TIP3    H141524   4.758   4.764   8.355  0.2022  1.9040 -0.2716
 6655TIP3    H241525   4.634   4.743   8.439 -0.0867  0.7301 -0.9701
 6656TIP3   OH241526   0.135   0.363   6.908 -0.1439  0.2701  0.1131
 6656TIP3    H141527   0.183   0.390   6.987  1.5056 -2.5455  0.2175
 6656TIP3    H241528   0.188   0.395   6.835 -0.7241  1.3280  0.1381
 6657TIP3   OH241529   1.380   4.671   7.381 -0.6301 -0.3190  0.1108
 6657TIP3    H141530   1.339   4.606   7.437 -1.0163  0.4329  0.7221
 6657TIP3    H241531   1.310   4.733   7.360 -0.7047 -0.9952 -1.8804
 6658TIP3   OH241532   5.712   6.583   0.313 -0.4382 -0.0922  0.3269
 6658TIP3    H141533   5.645   6.542   0.368 -0.2738 -1.1886 -0.2673
 6658TIP3    H241534   5.779   6.516   0.302  0.7930  0.9956  0.9236
 6659TIP3   OH241535   4.766   0.351   7.111 -0.1862  0.7307 -0.0742
 6659TIP3    H141536   4.767   0.411   7.185 -0.0230  1.4569 -0.6455
 6659TIP3    H241537   4.824   0.280   7.137  0.4473  1.3386  0.2072
 6660TIP3   OH241538   0.452   5.203   8.375 -0.5223  0.2670  0.9372
 6660TIP3    H141539   0.456   5.110   8.396  0.5354  0.1688  0.3912
 6660TIP3    H241540   0.473   5.207   8.281  1.4063  1.1793  1.3418
 6661TIP3   OH241541   3.467   6.166   8.060  0.5048 -0.2961 -0.1890
 6661TIP3    H141542   3.478   6.257   8.089 -1.0724 -0.8760  2.5976
 6661TIP3    H241543   3.553   6.142   8.024  1.6123  1.6481  0.9558
 6662TIP3   OH241544   4.978   3.061   0.887 -0.3972  0.4748 -0.5087
 6662TIP3    H141545   4.943   3.139   0.930 -0.9363  0.3319 -0.6879
 6662TIP3    H241546   5.064   3.089   0.854 -0.4639  0.9069 -0.3212
 6663TIP3   OH241547   6.246   0.148   1.737  0.2296 -0.0460  0.3259
 6663TIP3    H141548   6.210   0.209   1.673  1.1825  0.0599 -0.1117
 6663TIP3    H241549   6.278   0.075   1.685  0.2829 -0.3252  0.7493
 6664TIP3   OH241550   3.450   4.561   8.346 -0.1160  0.1535  0.3109
 6664TIP3    H141551   3.411   4.579   8.260 -0.2096  1.3450  0.5905
 6664TIP3    H241552   3.543   4.583   8.336  0.0118 -0.3518  0.3357
 6665TIP3   OH241553   4.811   5.925   1.688  0.3821 -0.4941 -0.2006
 6665TIP3    H141554   4.721   5.939   1.656  0.2151 -0.0426  0.4265
 6665TIP3    H241555   4.799   5.891   1.776  0.8173  0.2368  0.1524
 6666TIP3   OH241556   4.752   1.144   1.866 -0.0497  0.2748 -0.4122
 6666TIP3    H141557   4.739   1.123   1.958 -0.1706  0.2864 -0.4255
 6666TIP3    H241558   4.843   1.174   1.860  0.7353 -2.0175 -0.7231
 6667TIP3   OH241559   2.049   2.112   7.392  0.2620  0.1559 -0.4861
 6667TIP3    H141560   2.063   2.123   7.486  0.9085  0.6752 -0.6360
 6667TIP3    H241561   2.137   2.101   7.355 -0.0975 -2.0380 -0.8093
 6668TIP3   OH241562   5.462   6.591   0.913 -0.0719  0.2504  0.2005
 6668TIP3    H141563   5.391   6.619   0.855 -0.9687 -1.8983  0.1639
 6668TIP3    H241564   5.422   6.586   0.999  0.1048 -0.6620  0.2408
 6669TIP3   OH241565   1.685   2.728   1.704  0.1095  0.5082  0.3966
 6669TIP3    H141566   1.762   2.729   1.647  0.6866  0.3148  1.1504
 6669TIP3    H241567   1.679   2.818   1.737 -1.9740  1.4400 -2.2022
 6670TIP3   OH241568   2.290   1.379   0.828  0.1415  0.5334 -0.3241
 6670TIP3    H141569   2.349   1.422   0.891 -0.8529  2.1587 -0.4291
 6670TIP3    H241570   2.267   1.449   0.766 -2.1733  0.0887 -0.0620
 6671TIP3   OH241571   5.146   0.209   8.712 -0.7634 -0.3157  0.3623
 6671TIP3    H141572   5.115   0.231   8.624  0.3100 -0.1350  0.0067
 6671TIP3    H241573   5.210   0.138   8.697 -0.3243 -0.0511  0.9579
 6672TIP3   OH241574   4.744   2.626   1.281  0.0919 -0.7529 -0.0578
 6672TIP3    H141575   4.666   2.613   1.335 -0.3399  0.0753 -0.4538
 6672TIP3    H241576   4.812   2.651   1.344  0.1945 -1.9915  0.3515
 6673TIP3   OH241577   2.727   2.135   8.204 -0.3199 -0.1667  0.4215
 6673TIP3    H141578   2.633   2.119   8.217 -0.2504 -1.0545 -0.1222
 6673TIP3    H241579   2.733   2.230   8.194 -0.7489  0.2989  3.6065
 6674TIP3   OH241580   4.595   3.001   1.875  0.0003  0.4578 -0.4969
 6674TIP3    H141581   4.633   3.000   1.787  0.1053 -0.6735 -0.4636
 6674TIP3    H241582   4.663   2.962   1.931 -0.3903  0.3870 -0.0602
 6675TIP3   OH241583   4.488   6.663   8.725  0.4289  0.1921  0.0498
 6675TIP3    H141584   4.469   6.749   8.688  0.3808  0.0963 -0.1523
 6675TIP3    H241585   4.460   6.668   8.816  1.4786  0.7620  0.3625
 6676TIP3   OH241586   5.371   6.587   1.176  0.0405  0.3552  0.4699
 6676TIP3    H141587   5.317   6.508   1.181 -1.1102  1.0625 -0.4409
 6676TIP3    H241588   5.434   6.577   1.247 -0.5724 -1.0215  0.8507
 6677TIP3   OH241589   1.930   6.118   1.972  0.1063 -0.4056 -0.5178
 6677TIP3    H141590   1.896   6.128   2.061  0.8816 -0.1070 -0.2458
 6677TIP3    H241591   1.952   6.025   1.965  0.8590 -0.2703 -0.0854
 6678TIP3   OH241592   3.808   5.575   0.215 -0.0227 -0.2842  0.6061
 6678TIP3    H141593   3.730   5.616   0.180  0.1983  0.3914  0.8834
 6678TIP3    H241594   3.829   5.626   0.294  1.0807 -0.0179  0.1651
 6679TIP3   OH241595   0.952   2.391   2.160  0.1493  0.4250  0.0875
 6679TIP3    H141596   0.983   2.472   2.200  0.2233 -0.5384  2.1368
 6679TIP3    H241597   0.987   2.322   2.216 -1.5419 -0.9257 -0.4184
 6680TIP3   OH241598   4.635   4.514   7.236  0.7163 -0.3749 -0.6397
 6680TIP3    H141599   4.583   4.440   7.266  1.5207 -0.6498  0.1257
 6680TIP3    H241600   4.643   4.570   7.314 -0.0138  0.6093 -1.2415
 6681TIP3   OH241601   5.352   2.677   0.379 -0.1447 -0.1642 -0.2794
 6681TIP3    H141602   5.363   2.582   0.384 -3.1592 -0.6481 -0.9715
 6681TIP3    H241603   5.370   2.698   0.288  0.3421 -0.0951 -0.1683
 6682TIP3   OH241604   4.964   0.832   7.725 -0.8460  0.3067  0.0280
 6682TIP3    H141605   4.998   0.857   7.812  1.5432  0.0014 -0.7351
 6682TIP3    H241606   4.971   0.737   7.724 -2.1617  0.2057 -0.0266
 6683TIP3   OH241607   3.352   4.884   1.178 -0.1248 -0.3572 -0.4084
 6683TIP3    H141608   3.359   4.862   1.085  0.1751  0.4007 -0.5743
 6683TIP3    H241609   3.260   4.908   1.189  0.2571  1.5501 -0.9955
 6684TIP3   OH241610   3.856   6.365   1.182  0.0542  0.1386 -0.1968
 6684TIP3    H141611   3.831   6.318   1.261 -0.1725  2.4305  1.1817
 6684TIP3    H241612   3.922   6.429   1.211 -1.0443  1.9922 -1.5241
 6685TIP3   OH241613   0.679   2.625   8.828 -0.8372  0.0062 -0.0311
 6685TIP3    H141614   0.759   2.608   8.779 -0.5869  0.0524  0.3561
 6685TIP3    H241615   0.625   2.548   8.812 -0.2300 -0.5802  0.6699
 6686TIP3   OH241616   5.470   0.507   8.316  0.0799 -0.4258 -0.3560
 6686TIP3    H141617   5.497   0.444   8.249  1.3440  0.1179 -0.3949
 6686TIP3    H241618   5.553   0.541   8.351 -0.5742  1.3404 -0.4482
 6687TIP3   OH241619   5.992   4.029   1.024  0.1701 -0.1837 -0.6125
 6687TIP3    H141620   6.035   3.954   1.064 -0.3861  1.2340  3.0829
 6687TIP3    H241621   6.062   4.095   1.016 -0.4106  0.8224  1.8066
 6688TIP3   OH241622   1.324   1.551   1.571 -0.2519  0.1462  0.5675
 6688TIP3    H141623   1.255   1.490   1.595 -0.9322  0.4006 -0.6615
 6688TIP3    H241624   1.374   1.564   1.651 -0.3306 -1.7163  0.9612
 6689TIP3   OH241625   1.655   0.150   0.347  0.0075 -0.2165 -0.1447
 6689TIP3    H141626   1.749   0.145   0.332 -0.0332 -1.4353 -0.0628
 6689TIP3    H241627   1.644   0.223   0.408  0.9302 -0.3058  0.1301
 6690TIP3   OH241628   3.110   1.207   8.211 -0.1680 -0.4672 -0.1591
 6690TIP3    H141629   3.028   1.184   8.254 -0.4003  0.9649  0.2089
 6690TIP3    H241630   3.163   1.248   8.280  0.7876 -1.1736 -0.4405
 6691TIP3   OH241631   6.379   0.616   0.314  0.3383  0.2193 -0.3341
 6691TIP3    H141632   6.428   0.603   0.233 -0.6500 -0.7175 -0.8017
 6691TIP3    H241633   6.355   0.528   0.343 -1.6998  0.6488 -0.5368
 6692TIP3   OH241634   0.072   6.200   7.239  0.3817  0.9194  0.1206
 6692TIP3    H141635   0.133   6.173   7.170  2.1595 -0.9143  2.2470
 6692TIP3    H241636   0.043   6.118   7.279 -1.4753  1.8873  0.8568
 6693TIP3   OH241637   1.924   4.831   0.707  0.1378 -0.5707  0.1463
 6693TIP3    H141638   1.887   4.759   0.657  0.1450 -0.3087 -0.2374
 6693TIP3    H241639   2.017   4.832   0.684  0.0185 -0.0464 -0.3326
 6694TIP3   OH241640   2.353   1.658   8.750  0.2054 -0.3097 -0.0521
 6694TIP3    H141641   2.289   1.694   8.811 -1.3967  0.6234 -2.1565
 6694TIP3    H241642   2.432   1.711   8.765  0.0845 -0.5496  1.6121
 6695TIP3   OH241643   1.944   0.237   2.123 -0.9502  0.2482  0.0721
 6695TIP3    H141644   2.005   0.166   2.142 -0.6757  0.4715  0.0410
 6695TIP3    H241645   1.991   0.316   2.151 -1.3734  0.3884  0.3907
 6696TIP3   OH241646   4.657   1.193   0.908 -0.1995 -0.4735  0.4056
 6696TIP3    H141647   4.727   1.209   0.845 -1.3940 -0.4415 -0.9569
 6696TIP3    H241648   4.623   1.280   0.930  0.2485 -0.4795  1.1590
 6697TIP3   OH241649   1.656   4.780   6.499  0.2583 -0.0009 -0.6619
 6697TIP3    H141650   1.596   4.713   6.531 -0.4693 -0.1399 -2.2173
 6697TIP3    H241651   1.599   4.853   6.474  1.1464  2.9622  4.4539
 6698TIP3   OH241652   6.550   1.117   8.030  0.5671  0.0987 -0.0255
 6698TIP3    H141653   6.470   1.068   8.050  0.7443  0.1504  0.8249
 6698TIP3    H241654   6.609   1.052   7.991 -0.1621  0.2296 -1.4241
 6699TIP3   OH241655   1.402   1.031   1.655 -0.5265  0.3739  0.3514
 6699TIP3    H141656   1.386   1.031   1.560 -0.0854  1.6437  0.2605
 6699TIP3    H241657   1.464   1.102   1.669  0.6524 -0.8085  1.4239
 6700TIP3   OH241658   4.084   3.010   1.305 -0.4409 -0.0202  0.0101
 6700TIP3    H141659   4.099   3.104   1.296  0.5551 -0.1851 -0.0862
 6700TIP3    H241660   4.107   2.973   1.220 -1.4984 -0.2831 -0.1792
 6701TIP3   OH241661   2.674   0.761   6.665  0.0039  0.0703  0.1822
 6701TIP3    H141662   2.637   0.847   6.684 -1.4705 -0.9041  2.1452
 6701TIP3    H241663   2.615   0.700   6.708  1.9514 -1.8261  0.3322
 6702TIP3   OH241664   1.648   3.972   7.056  0.8533  0.0684  0.0451
 6702TIP3    H141665   1.630   4.038   6.989  0.1326 -0.9231 -0.7774
 6702TIP3    H241666   1.589   3.993   7.128  0.5386  0.2362 -0.2612
 6703TIP3   OH241667   6.414   1.834   1.827  0.0898 -0.0349 -0.0451
 6703TIP3    H141668   6.322   1.811   1.811  0.4226 -1.1632 -0.4404
 6703TIP3    H241669   6.417   1.861   1.919 -0.5934 -0.1713  0.0219
 6704TIP3   OH241670   5.687   2.952   6.479  0.2587  0.4984 -0.5757
 6704TIP3    H141671   5.744   2.915   6.546 -0.2271  0.8919  0.0728
 6704TIP3    H241672   5.743   3.010   6.428  0.5251  0.5793 -0.1937
 6705TIP3   OH241673   3.329   0.906   8.452 -0.2584 -0.3901  0.8029
 6705TIP3    H141674   3.362   0.961   8.523 -1.3022 -1.2631  2.0176
 6705TIP3    H241675   3.283   0.835   8.497 -2.4809 -0.0376 -0.7326
 6706TIP3   OH241676   1.339   3.548   0.333 -0.2871  0.0002  0.0427
 6706TIP3    H141677   1.347   3.492   0.256 -1.6601  0.4154 -0.4276
 6706TIP3    H241678   1.317   3.488   0.404  1.5892 -0.4703  0.2969
 6707TIP3   OH241679   6.775   2.572   8.815 -0.4548  0.4635  0.1565
 6707TIP3    H141680   6.726   2.653   8.805 -2.0335 -0.6668 -2.4269
 6707TIP3    H241681   6.727   2.508   8.762  2.1510 -1.5085 -0.0492
 6708TIP3   OH241682   0.290   2.906   1.582  0.0068  0.2167 -0.1507
 6708TIP3    H141683   0.243   2.932   1.503  1.0639 -1.6535 -1.4911
 6708TIP3    H241684   0.245   2.827   1.612 -0.7365  1.2180  1.5073
 6709TIP3   OH241685   2.226   6.208   0.128 -0.3215  0.4605 -0.2700
 6709TIP3    H141686   2.207   6.300   0.147  1.0820  0.8388 -0.5924
 6709TIP3    H241687   2.247   6.170   0.213 -2.4087  0.0181  0.1061
 6710TIP3   OH241688   3.590   1.731   8.174 -0.2805  0.4084  0.4734
 6710TIP3    H141689   3.643   1.777   8.109 -2.1684  1.1579 -0.6162
 6710TIP3    H241690   3.647   1.662   8.207  0.8115  0.0376 -1.9432
 6711TIP3   OH241691   6.624   4.027   7.860  0.6867 -0.0508 -0.5300
 6711TIP3    H141692   6.709   4.052   7.823  1.4148  1.4842  1.9609
 6711TIP3    H241693   6.645   3.956   7.921  0.2218  0.4070  0.1750
 6712TIP3   OH241694   1.613   3.938   0.034  0.7223 -0.5322  0.4168
 6712TIP3    H141695   1.655   3.959   0.117  2.9288  0.1019 -0.7985
 6712TIP3    H241696   1.653   3.996  -0.029  2.6674 -4.0877 -1.9820
 6713TIP3   OH241697   2.247   6.427   6.811  0.0095  0.0835 -0.7557
 6713TIP3    H141698   2.297   6.506   6.788  0.0188  0.8911  1.7015
 6713TIP3    H241699   2.159   6.459   6.829 -0.4230 -0.7470 -1.3264
 6714TIP3   OH241700   0.782   5.373   8.452 -0.1761  0.0847  0.0624
 6714TIP3    H141701   0.868   5.354   8.416 -0.3687 -0.5375 -0.0712
 6714TIP3    H241702   0.765   5.302   8.514 -1.2643 -0.6622 -1.0688
 6715TIP3   OH241703   4.318   3.457   0.330 -0.1166 -0.2948 -0.4302
 6715TIP3    H141704   4.349   3.533   0.281  0.9894 -0.3827  0.0874
 6715TIP3    H241705   4.248   3.491   0.385 -2.7059 -0.5603 -3.3239
 6716TIP3   OH241706   1.817   0.724   7.452 -0.2123 -0.0354  0.4474
 6716TIP3    H141707   1.779   0.660   7.392 -1.0212  0.0400  0.8506
 6716TIP3    H241708   1.836   0.674   7.531 -1.7838  0.3658  1.1345
 6717TIP3   OH241709   5.544   3.101   8.413  0.0700 -0.6705  0.1718
 6717TIP3    H141710   5.515   3.037   8.477 -0.5880  0.0471  0.6039
 6717TIP3    H241711   5.604   3.053   8.356  1.9655 -0.9547  2.2883
 6718TIP3   OH241712   2.452   0.385   1.387  0.4256  0.2614 -0.5960
 6718TIP3    H141713   2.373   0.362   1.437  1.1228  0.4385  0.6284
 6718TIP3    H241714   2.466   0.478   1.407  1.7522 -0.1226  0.3896
 6719TIP3   OH241715   2.490   4.579   7.396  0.2504  0.5193 -0.2717
 6719TIP3    H141716   2.528   4.626   7.321  0.4868  0.9790  0.1315
 6719TIP3    H241717   2.472   4.491   7.362 -0.1112  0.8663 -1.0169
 6720TIP3   OH241718   5.332   2.315   1.457  0.7060 -0.1411  0.5763
 6720TIP3    H141719   5.347   2.317   1.363  0.4818  2.4183  0.5154
 6720TIP3    H241720   5.419   2.299   1.495  1.1230  0.5425 -0.0617
 6721TIP3   OH241721   2.685   5.921   6.812 -0.0270 -0.1060 -0.2240
 6721TIP3    H141722   2.766   5.967   6.791 -0.7512  0.4524 -1.9066
 6721TIP3    H241723   2.663   5.873   6.732 -1.6982  0.2709 -0.0165
 6722TIP3   OH241724   2.640   6.409   8.761 -0.0535 -0.2616 -0.4936
 6722TIP3    H141725   2.607   6.340   8.819  1.5289 -1.3225 -0.8003
 6722TIP3    H241726   2.567   6.427   8.702 -0.9107 -0.7864  0.3772
 6723TIP3   OH241727   2.084   0.317   1.222  0.1979 -0.1199 -0.1816
 6723TIP3    H141728   2.144   0.270   1.281  1.2522 -0.7324 -1.6830
 6723TIP3    H241729   2.026   0.248   1.188 -0.9874  0.3728  0.7801
 6724TIP3   OH241730   0.257   2.688   1.355 -0.0866 -0.5281 -0.1528
 6724TIP3    H141731   0.165   2.663   1.347  0.2561 -1.7880 -0.3795
 6724TIP3    H241732   0.274   2.743   1.279 -0.3821 -1.1832 -0.7014
 6725TIP3   OH241733   1.469   5.900   0.795  0.3284 -0.2193 -0.1642
 6725TIP3    H141734   1.468   5.956   0.717 -1.4604 -1.2239 -0.9374
 6725TIP3    H241735   1.377   5.897   0.823  0.8779 -0.1533  1.8113
 6726TIP3   OH241736   5.394   6.214   7.994  0.1084 -0.3895  0.0406
 6726TIP3    H141737   5.312   6.189   8.037 -0.3317  2.0493  0.7485
 6726TIP3    H241738   5.447   6.253   8.063  0.9468  0.1026 -0.8575
 6727TIP3   OH241739   5.327   6.718   8.821 -0.5652  0.4277 -0.1619
 6727TIP3    H141740   5.231   6.714   8.831 -0.6686  1.7103 -0.4184
 6727TIP3    H241741   5.361   6.664   8.891 -1.4733  0.4412  0.3069
 6728TIP3   OH241742   0.611   5.660   0.524  0.1201  0.2117 -0.5634
 6728TIP3    H141743   0.602   5.566   0.543  0.3697  0.1820 -0.5859
 6728TIP3    H241744   0.686   5.665   0.465  0.0533  0.4183 -0.6318
 6729TIP3   OH241745   0.293   2.644   1.746 -0.5040  0.2772  0.0883
 6729TIP3    H141746   0.284   2.561   1.793 -1.8292  0.6191  0.4861
 6729TIP3    H241747   0.315   2.707   1.813 -1.1837  0.5430  0.0726
 6730TIP3   OH241748   5.863   3.737   1.818  0.3946 -0.1074  0.6727
 6730TIP3    H141749   5.814   3.668   1.775  0.4946 -0.8935  1.7639
 6730TIP3    H241750   5.816   3.818   1.797  0.4644 -0.4472 -0.8838
 6731TIP3   OH241751   0.788   4.027   7.400 -0.2188  0.1655  0.5640
 6731TIP3    H141752   0.860   4.016   7.463  1.4026  1.4383 -0.9554
 6731TIP3    H241753   0.712   4.049   7.454  0.5236 -1.1290  2.2243
 6732TIP3   OH241754   2.323   4.339   0.263 -0.0034  0.1871 -0.3157
 6732TIP3    H141755   2.402   4.342   0.317  1.0692 -0.5555 -1.7656
 6732TIP3    H241756   2.304   4.431   0.242  1.9395  0.2945 -1.9140
 6733TIP3   OH241757   5.532   3.607   0.204 -0.0041 -0.3239  0.0931
 6733TIP3    H141758   5.488   3.660   0.138  1.1600  0.4166 -0.1099
 6733TIP3    H241759   5.462   3.553   0.242 -1.1364  1.0535  0.0354
 6734TIP3   OH241760   1.888   1.964   0.039  0.4082  0.2901 -0.2303
 6734TIP3    H141761   1.955   1.923   0.094 -0.1406 -1.7950 -1.0257
 6734TIP3    H241762   1.923   2.051   0.019  1.7165  0.1940  1.4036
 6735TIP3   OH241763   0.326   6.293   7.333 -0.1586  0.4896  0.6093
 6735TIP3    H141764   0.235   6.291   7.362  0.2107 -1.4795  1.8233
 6735TIP3    H241765   0.351   6.200   7.324  0.8080  0.9624 -2.8042
 6736TIP3   OH241766   5.214   2.167   0.849  0.0608 -0.5538  0.3250
 6736TIP3    H141767   5.276   2.168   0.922 -0.4409 -0.5094  0.7575
 6736TIP3    H241768   5.136   2.212   0.883  0.0505  0.0289 -0.4414
 6737TIP3   OH241769   2.069   0.080   6.815 -0.3656 -0.1608  0.0269
 6737TIP3    H141770   2.038   0.171   6.822  0.3664  0.0510  0.6466
 6737TIP3    H241771   2.146   0.077   6.871 -1.0143 -1.4483  0.9093
 6738TIP3   OH241772   0.298   5.807   1.025 -0.2667  0.0046  0.7208
 6738TIP3    H141773   0.206   5.831   1.014 -0.5278 -1.0063  0.5643
 6738TIP3    H241774   0.328   5.791   0.935  0.8839  3.0863  0.4538
 6739TIP3   OH241775   6.473   6.268   1.411 -0.2078  0.6343  0.7878
 6739TIP3    H141776   6.429   6.352   1.393  1.2760  1.2631 -0.0477
 6739TIP3    H241777   6.530   6.287   1.486 -0.5780  0.0997  1.2097
 6740TIP3   OH241778   6.213   3.720   6.432 -0.2795  1.0624 -0.3503
 6740TIP3    H141779   6.139   3.772   6.401 -0.1453  1.1965 -0.4472
 6740TIP3    H241780   6.290   3.762   6.393  0.0549  2.2027  1.4055
 6741TIP3   OH241781   2.496   5.377   8.785 -0.0187  0.3008 -0.3026
 6741TIP3    H141782   2.511   5.409   8.875 -2.2015  1.9836 -0.4526
 6741TIP3    H241783   2.547   5.296   8.780  0.5097  0.3690  2.3195
 6742TIP3   OH241784   5.509   1.152   1.348  0.2627 -0.1375  0.2129
 6742TIP3    H141785   5.414   1.164   1.348  0.3639  0.7783  0.3892
 6742TIP3    H241786   5.525   1.090   1.419 -0.2508 -0.8223 -0.2534
 6743TIP3   OH241787   1.373   6.174   2.113  0.4427  0.2335  0.3447
 6743TIP3    H141788   1.341   6.261   2.135 -1.5511  0.1577 -1.7728
 6743TIP3    H241789   1.424   6.187   2.033 -2.4564 -0.7497 -1.8649
 6744TIP3   OH241790   0.242   0.356   0.626 -0.5474  0.0227 -0.2165
 6744TIP3    H141791   0.168   0.321   0.676 -0.5544  0.0332 -0.2195
 6744TIP3    H241792   0.301   0.281   0.616 -0.8511 -0.1545 -0.7639
 6745TIP3   OH241793   1.303   6.775   8.300 -0.0044 -0.0378 -0.1645
 6745TIP3    H141794   1.251   6.698   8.323  0.4690 -0.3302 -0.0530
 6745TIP3    H241795   1.238   6.842   8.279 -0.4401 -0.9426 -1.9078
 6746TIP3   OH241796   3.420   0.856   2.211 -0.1513  0.1834  0.3687
 6746TIP3    H141797   3.420   0.774   2.162 -0.2392 -0.5093  1.4927
 6746TIP3    H241798   3.464   0.835   2.293  1.8006  1.8052 -0.1583
 6747TIP3   OH241799   1.774   4.374   1.218 -0.0492 -0.1681 -0.3327
 6747TIP3    H141800   1.860   4.404   1.189  0.1392 -0.9868 -0.6241
 6747TIP3    H241801   1.726   4.455   1.237  0.9167  0.2933  0.2295
 6748TIP3   OH241802   2.277   4.571   2.168  0.2108 -0.0088 -0.1296
 6748TIP3    H141803   2.231   4.615   2.240  1.1576  1.0191 -0.1261
 6748TIP3    H241804   2.300   4.642   2.108 -1.6349 -0.9666 -2.1190
 6749TIP3   OH241805   3.323   2.353   2.467 -0.0124  0.1150 -0.0741
 6749TIP3    H141806   3.320   2.300   2.546  0.7817 -0.6373 -0.5437
 6749TIP3    H241807   3.248   2.412   2.476 -0.7648 -0.9049  0.5700
 6750TIP3   OH241808   3.377   5.788   0.249 -0.0043  0.0409  0.1534
 6750TIP3    H141809   3.345   5.841   0.322 -1.5039 -1.3617  0.5863
 6750TIP3    H241810   3.344   5.700   0.267  1.3932 -0.8047 -1.1463
 6751TIP3   OH241811   5.793   5.134   1.428  0.3887 -0.8197  0.1673
 6751TIP3    H141812   5.770   5.064   1.488  0.5739  1.4326  3.0717
 6751TIP3    H241813   5.878   5.108   1.392  1.1269 -1.4651  2.2596
 6752TIP3   OH241814   4.187   4.182   2.333  0.1145 -0.5097 -0.5493
 6752TIP3    H141815   4.194   4.149   2.423  0.8360  0.4165 -0.2500
 6752TIP3    H241816   4.171   4.276   2.343  2.2124 -0.0123 -1.3561
 6753TIP3   OH241817   1.084   5.084   8.835 -0.2730  0.0388 -0.1234
 6753TIP3    H141818   1.060   5.129   8.916 -0.6002  2.4204 -1.4579
 6753TIP3    H241819   1.178   5.066   8.844  0.2582  2.4806 -0.1458
 6754TIP3   OH241820   6.737   1.889   0.084 -0.1589  0.2667  0.1624
 6754TIP3    H141821   6.714   1.853  -0.002  1.0472  0.1239 -0.1108
 6754TIP3    H241822   6.828   1.917   0.076  0.1239 -0.1450  1.5118
 6755TIP3   OH241823   3.460   3.502   8.024 -0.0652 -0.3997 -0.4842
 6755TIP3    H141824   3.450   3.553   8.104  0.4540  0.4805 -0.9574
 6755TIP3    H241825   3.377   3.513   7.978  0.3154  0.6828 -0.9412
 6756TIP3   OH241826   5.674   4.913   1.559  0.3328 -0.0941 -0.0300
 6756TIP3    H141827   5.670   4.861   1.640  1.1812  0.1702  0.1876
 6756TIP3    H241828   5.599   4.882   1.508 -1.6889  1.3754  1.8277
 6757TIP3   OH241829   1.170   3.253   8.184  0.1714 -0.3225 -0.4565
 6757TIP3    H141830   1.245   3.310   8.165 -0.3858  0.7770  0.4716
 6757TIP3    H241831   1.141   3.281   8.271 -0.4893 -1.6623 -0.2199
 6758TIP3   OH241832   3.611   4.664   7.175  0.1919 -0.0954  0.4855
 6758TIP3    H141833   3.676   4.716   7.127 -0.2584  0.3415  0.3325
 6758TIP3    H241834   3.647   4.576   7.176  2.1728  0.6146  2.8409
 6759TIP3   OH241835   6.260   1.732   0.421 -0.2978 -0.1370  0.0783
 6759TIP3    H141836   6.287   1.646   0.389  1.4684 -0.2643  1.7162
 6759TIP3    H241837   6.257   1.787   0.342  0.2020 -1.2996 -0.7737
 6760TIP3   OH241838   1.346   1.587   2.238  0.7632 -0.2873 -0.6240
 6760TIP3    H141839   1.306   1.642   2.306 -1.2332 -0.5694 -1.4861
 6760TIP3    H241840   1.339   1.498   2.273 -0.7064 -0.4859 -1.3397
 6761TIP3   OH241841   5.920   5.978   1.913  0.1720  0.1994 -0.2292
 6761TIP3    H141842   5.865   5.900   1.925  0.1879 -0.1489 -2.0159
 6761TIP3    H241843   5.963   5.990   1.997  0.2165 -1.7898  0.0974
 6762TIP3   OH241844   3.848   4.470   6.980  0.3385 -0.0274  0.1199
 6762TIP3    H141845   3.791   4.484   6.905  1.9729  0.1733 -1.1186
 6762TIP3    H241846   3.798   4.411   7.037 -1.1287  0.2223 -0.8699
 6763TIP3   OH241847   5.632   4.436   2.706  0.1609  0.4975  0.1697
 6763TIP3    H141848   5.675   4.482   2.634 -0.3760  1.5191  0.4877
 6763TIP3    H241849   5.657   4.344   2.693  1.5968  0.9059 -0.2466
 6764TIP3   OH241850   3.744   4.714   2.094  0.2162  0.2941  0.4214
 6764TIP3    H141851   3.767   4.638   2.147  0.3491  0.8397  1.1764
 6764TIP3    H241852   3.657   4.740   2.126 -1.2463 -1.3521 -1.9479
 6765TIP3   OH241853   2.805   4.747   7.832  0.0340 -0.2511 -0.2322
 6765TIP3    H141854   2.836   4.770   7.919 -0.8743  0.6711 -0.1292
 6765TIP3    H241855   2.795   4.832   7.787 -2.3736 -0.4604 -0.2259
 6766TIP3   OH241856   1.208   2.577   0.071 -0.6586 -0.2092 -0.0337
 6766TIP3    H141857   1.189   2.576  -0.023 -0.2011  0.3727 -0.1432
 6766TIP3    H241858   1.304   2.575   0.075 -0.6890 -1.1706  0.4492
 6767TIP3   OH241859   3.027   6.113   8.244  0.3628 -0.0603  0.3382
 6767TIP3    H141860   3.117   6.123   8.275  0.0096  0.5096  1.1910
 6767TIP3    H241861   3.026   6.025   8.205  1.0365 -0.4664  1.1826
 6768TIP3   OH241862   1.888   6.704   1.271  0.0526 -0.3911 -0.3794
 6768TIP3    H141863   1.906   6.653   1.350  0.1716  0.6038  0.2475
 6768TIP3    H241864   1.794   6.719   1.272  0.0060 -0.6562 -0.6057
 6769TIP3   OH241865   2.288   1.538   8.130  0.2496 -0.4863  0.3732
 6769TIP3    H141866   2.209   1.484   8.131 -1.0456  1.1159 -2.4703
 6769TIP3    H241867   2.354   1.483   8.087 -0.2265 -0.7875  0.0158
 6770TIP3   OH241868   1.490   3.718   8.173  0.4731 -0.2397 -0.5739
 6770TIP3    H141869   1.532   3.742   8.091  0.6869  1.4073 -0.0190
 6770TIP3    H241870   1.562   3.686   8.228  0.6030  0.1741 -0.4963
 6771TIP3   OH241871   5.143   5.974   7.141 -0.7537 -1.0081 -0.2949
 6771TIP3    H141872   5.223   5.930   7.168 -1.1502 -0.3413  2.3106
 6771TIP3    H241873   5.147   5.977   7.046  2.5067 -0.6025 -0.2580
 6772TIP3   OH241874   0.072   6.566   7.366  0.7941  0.7643  0.0152
 6772TIP3    H141875  -0.003   6.619   7.340 -0.5769 -0.9175  0.3966
 6772TIP3    H241876   0.103   6.526   7.285 -1.8084 -2.3426  0.3530
 6773TIP3   OH241877   5.812   6.011   1.321 -0.1175 -0.1151 -0.1447
 6773TIP3    H141878   5.754   6.052   1.256  0.4956 -0.6255 -1.0284
 6773TIP3    H241879   5.827   5.923   1.288  1.8478  0.2711 -0.3938
 6774TIP3   OH241880   0.636   1.065   0.054  0.9737 -0.1363  0.5823
 6774TIP3    H141881   0.561   1.120   0.029  2.0890  0.1572 -2.6579
 6774TIP3    H241882   0.596   0.987   0.092 -0.9752  0.3244 -0.3587
 6775TIP3   OH241883   1.848   0.579   7.675 -0.3682 -0.1950  0.0020
 6775TIP3    H141884   1.772   0.564   7.731  0.4747  0.1081  1.2553
 6775TIP3    H241885   1.923   0.549   7.727  0.6735  2.1133 -0.0536
 6776TIP3   OH241886   6.355   6.737   2.652 -0.4083 -0.3759  0.3454
 6776TIP3    H141887   6.262   6.720   2.637 -0.2085 -2.3293  1.0250
 6776TIP3    H241888   6.391   6.652   2.675  1.7644  0.1514 -0.8627
 6777TIP3   OH241889   3.073   3.915   7.897 -0.0284 -1.0957 -0.1772
 6777TIP3    H141890   2.995   3.919   7.840  1.8641  0.1903 -2.8915
 6777TIP3    H241891   3.128   3.986   7.866  0.9339  0.1468  3.8229
 6778TIP3   OH241892   0.300   1.692   7.272  0.3653 -0.1183  0.0074
 6778TIP3    H141893   0.318   1.784   7.292  0.7157  0.1089 -1.2555
 6778TIP3    H241894   0.214   1.694   7.229  1.0838 -0.1409 -1.5117
 6779TIP3   OH241895   2.263   3.232   7.869 -0.0509  0.2060  0.0137
 6779TIP3    H141896   2.228   3.320   7.883  1.8123  1.1355 -0.6939
 6779TIP3    H241897   2.321   3.217   7.944 -2.2136 -1.5135  1.4464
 6780TIP3   OH241898   4.535   4.011   0.141 -0.4240  0.2530  0.1291
 6780TIP3    H141899   4.609   3.975   0.190  0.5253 -0.8648 -1.9941
 6780TIP3    H241900   4.530   4.103   0.168  1.7901  0.3687  0.2746
 6781TIP3   OH241901   4.930   1.301   8.267  0.3201  0.1428  0.0395
 6781TIP3    H141902   4.944   1.222   8.215  3.0324  0.1794  0.5779
 6781TIP3    H241903   4.953   1.373   8.208  1.9202  0.2584  0.7545
 6782TIP3   OH241904   4.407   3.510   2.430 -0.2043  0.0398 -0.2867
 6782TIP3    H141905   4.461   3.433   2.413 -1.7350 -1.4129  1.0399
 6782TIP3    H241906   4.376   3.538   2.343 -1.0178 -1.9429 -0.6947
 6783TIP3   OH241907   5.908   1.634   7.412  0.3682 -0.0217  0.2164
 6783TIP3    H141908   5.881   1.625   7.320  0.6321  1.5833 -0.0472
 6783TIP3    H241909   5.833   1.603   7.462 -0.4737  0.7651 -0.5306
 6784TIP3   OH241910   5.037   4.655   0.543 -0.0844  0.1343 -0.0608
 6784TIP3    H141911   5.063   4.723   0.605  0.0456 -1.0629  1.2395
 6784TIP3    H241912   5.114   4.642   0.487  0.4246  0.0027  0.6658
 6785TIP3   OH241913   4.501   4.638   0.508  0.0055 -0.9324 -0.1183
 6785TIP3    H141914   4.451   4.643   0.589  0.5133 -0.3221  0.1674
 6785TIP3    H241915   4.576   4.582   0.529 -1.1964 -2.9297 -0.9085
 6786TIP3   OH241916   0.152   4.497   0.193 -0.3265  0.5311 -0.4080
 6786TIP3    H141917   0.230   4.476   0.245 -0.6730 -0.8417 -0.3795
 6786TIP3    H241918   0.168   4.585   0.159  2.6183 -0.7584 -2.8639
 6787TIP3   OH241919   5.543   6.054   8.379  0.0179 -0.2254 -0.0165
 6787TIP3    H141920   5.457   6.011   8.386 -0.4653  0.5589 -0.8745
 6787TIP3    H241921   5.537   6.128   8.440  0.2903 -0.4918  0.3343
 6788TIP3   OH241922   6.743   4.793   7.534 -0.0628  0.7986 -0.3507
 6788TIP3    H141923   6.794   4.873   7.519  0.5080  0.4021 -0.5541
 6788TIP3    H241924   6.654   4.816   7.506 -0.3676  1.9814  1.3996
 6789TIP3   OH241925   3.719   4.879   0.401  0.1677  0.4475 -0.4651
 6789TIP3    H141926   3.806   4.915   0.387  0.6496  0.1322  1.4780
 6789TIP3    H241927   3.734   4.785   0.417 -0.5027  0.4151  0.0027
 6790TIP3   OH241928   3.806   5.785   2.194  0.3707  0.3475 -0.3788
 6790TIP3    H141929   3.883   5.841   2.183  0.9685 -0.2366  0.5904
 6790TIP3    H241930   3.791   5.783   2.288 -0.0647 -0.5371 -0.4497
 6791TIP3   OH241931   0.935   6.305   2.614 -0.0503  0.2317  0.0021
 6791TIP3    H141932   0.929   6.387   2.565 -0.4808 -0.3445 -0.9597
 6791TIP3    H241933   0.882   6.320   2.692 -0.7343  0.6331 -0.5262
 6792TIP3   OH241934   1.474   4.404   7.435 -0.5950 -0.0964  0.2035
 6792TIP3    H141935   1.428   4.366   7.361  0.4435  0.3845 -0.7198
 6792TIP3    H241936   1.529   4.473   7.397  0.3135 -0.1426  1.3503
 6793TIP3   OH241937   4.020   0.953   7.365 -0.3382  0.7724 -0.0470
 6793TIP3    H141938   4.086   1.022   7.369  1.4547 -0.6107 -2.7239
 6793TIP3    H241939   3.991   0.952   7.274 -2.1490 -0.4127  0.4762
 6794TIP3   OH241940   4.678   6.528   7.056 -0.2100  0.5231  0.6426
 6794TIP3    H141941   4.739   6.480   7.112 -0.4845 -0.1353  0.3965
 6794TIP3    H241942   4.726   6.607   7.031  0.1620  0.5042  1.2616
 6795TIP3   OH241943   4.484   3.561   1.416  0.0860  0.2759 -1.0564
 6795TIP3    H141944   4.525   3.541   1.332 -3.1467  0.0386 -2.7338
 6795TIP3    H241945   4.479   3.657   1.418  1.0911  0.3352 -0.5878
 6796TIP3   OH241946   5.981   2.484   0.983  0.0240 -0.4758  0.2136
 6796TIP3    H141947   5.932   2.537   0.919 -0.5623 -1.0360  0.1864
 6796TIP3    H241948   6.064   2.466   0.940 -0.4895 -1.1242 -0.5547
 6797TIP3   OH241949   3.159   6.690   0.583 -0.0839 -0.1395 -0.3722
 6797TIP3    H141950   3.080   6.728   0.545  0.3021  0.0875 -0.9607
 6797TIP3    H241951   3.129   6.610   0.626 -0.3567 -1.0698 -2.2000
 6798TIP3   OH241952   5.802   6.119   8.409  0.3819 -0.3758 -0.1860
 6798TIP3    H141953   5.766   6.066   8.337  0.5957 -0.5168 -0.1891
 6798TIP3    H241954   5.728   6.130   8.469  0.2915 -0.5403 -0.2654
 6799TIP3   OH241955   0.455   2.543   1.514 -0.1941  0.0246 -0.4158
 6799TIP3    H141956   0.417   2.564   1.599  0.0284  0.1192 -0.3393
 6799TIP3    H241957   0.384   2.556   1.452  0.0348  1.4227 -0.4250
 6800TIP3   OH241958   0.767   1.492   7.887 -0.0776  0.0179 -0.2012
 6800TIP3    H141959   0.852   1.527   7.915  0.6176 -1.0919 -0.8587
 6800TIP3    H241960   0.785   1.452   7.802 -1.7886  1.9428 -1.5778
 6801TIP3   OH241961   5.432   4.381   0.080  0.6380 -0.2332  0.0116
 6801TIP3    H141962   5.380   4.329   0.018 -1.4325  0.9984  0.6363
 6801TIP3    H241963   5.445   4.465   0.036  1.5621 -0.3094  0.1319
 6802TIP3   OH241964   6.360   3.682   7.989 -0.2975 -0.0570  0.3521
 6802TIP3    H141965   6.374   3.759   7.934 -0.2764  0.3564  0.9271
 6802TIP3    H241966   6.282   3.640   7.952  0.7911 -0.8431 -1.1568
 6803TIP3   OH241967   4.856   1.280   7.798 -0.7123  0.0954 -0.1313
 6803TIP3    H141968   4.817   1.197   7.825 -2.8062  0.4287 -1.7819
 6803TIP3    H241969   4.818   1.345   7.857  0.8000 -0.0513  1.0549
 6804TIP3   OH241970   4.174   0.466   7.330  0.2001  0.8895  0.3126
 6804TIP3    H141971   4.211   0.549   7.360 -0.5818  1.4126 -0.1541
 6804TIP3    H241972   4.250   0.408   7.321  0.6416  1.2385  1.6000
 6805TIP3   OH241973   1.639   3.584   2.101 -0.1845 -0.6562 -0.2946
 6805TIP3    H141974   1.712   3.646   2.104 -0.5701 -0.2200  0.9107
 6805TIP3    H241975   1.660   3.520   2.169 -0.4904 -1.0271 -0.5480
 6806TIP3   OH241976   4.670   0.336   1.635 -0.2052  0.4534 -0.0801
 6806TIP3    H141977   4.659   0.247   1.668 -1.7123  0.5835 -0.1734
 6806TIP3    H241978   4.759   0.360   1.661 -0.1868 -0.6494  0.9733
 6807TIP3   OH241979   5.711   5.540   8.251  0.4107 -0.2773 -0.3213
 6807TIP3    H141980   5.632   5.563   8.299  0.3650  0.5405 -0.7642
 6807TIP3    H241981   5.760   5.622   8.245  0.8800 -0.5858 -0.7992
 6808TIP3   OH241982   2.103   4.055   7.264  0.2662  0.6547  0.7660
 6808TIP3    H141983   2.091   4.043   7.170  1.9539 -1.4390  0.7537
 6808TIP3    H241984   2.027   4.013   7.304  0.7803 -0.6916  0.3701
 6809TIP3   OH241985   3.237   5.323   8.293 -0.5444  0.2545 -0.3274
 6809TIP3    H141986   3.289   5.287   8.221 -0.2749  2.7552 -1.5130
 6809TIP3    H241987   3.175   5.382   8.250 -1.6690  0.3626  1.3661
 6810TIP3   OH241988   6.526   2.080   6.895  0.0423 -0.5860 -0.4673
 6810TIP3    H141989   6.470   2.062   6.820  0.2956 -0.5491 -0.6666
 6810TIP3    H241990   6.488   2.029   6.966 -1.0626  0.5057 -0.2452
 6811TIP3   OH241991   5.877   6.632   7.527  0.2397 -0.2608  0.2712
 6811TIP3    H141992   5.943   6.700   7.535  0.7110 -0.6747 -0.0784
 6811TIP3    H241993   5.923   6.557   7.489 -0.4583 -0.5044 -0.1169
 6812TIP3   OH241994   5.827   2.528   0.097  0.2222 -0.2423 -0.5547
 6812TIP3    H141995   5.893   2.589   0.131 -0.4097 -0.2956  0.8270
 6812TIP3    H241996   5.744   2.560   0.133 -0.7474  0.5750 -3.2739
 6813TIP3   OH241997   1.333   2.136   7.060  0.0559 -0.1259  0.1280
 6813TIP3    H141998   1.308   2.067   7.121  0.7321 -0.3688  0.1332
 6813TIP3    H241999   1.428   2.137   7.062  0.0636  0.4844 -0.2364
 6814TIP3   OH242000   0.294   2.403   6.408  1.0245  0.0117  0.3109
 6814TIP3    H142001   0.265   2.429   6.496  1.6998  1.0340  0.2479
 6814TIP3    H242002   0.296   2.308   6.411  1.1726  0.0292  1.4622
 6815TIP3   OH242003   2.307   5.090   7.453 -0.4062 -0.1263 -0.0817
 6815TIP3    H142004   2.385   5.130   7.492  0.2577 -3.2992  2.2996
 6815TIP3    H242005   2.243   5.161   7.449  0.5889  1.2973  3.9550
 6816TIP3   OH242006   5.808   0.410   0.624 -0.2876 -0.6497 -0.0819
 6816TIP3    H142007   5.744   0.466   0.580  0.6523 -0.7465 -1.6364
 6816TIP3    H242008   5.795   0.323   0.586  0.9990 -0.5918 -0.7153
 6817TIP3   OH242009   3.921   4.395   7.837 -0.6703 -0.4097  0.2813
 6817TIP3    H142010   3.956   4.310   7.863  0.2482  0.5735  2.4796
 6817TIP3    H242011   3.950   4.455   7.905 -3.4996  1.2125  0.1899
 6818TIP3   OH242012   0.947   1.786   0.462 -0.1338  0.3447 -0.4515
 6818TIP3    H142013   0.919   1.818   0.376 -1.8160  0.7972  0.2155
 6818TIP3    H242014   0.889   1.830   0.523  1.9406  1.1297  1.0694
 6819TIP3   OH242015   3.996   0.118   0.535  0.0413  0.6090  0.4483
 6819TIP3    H142016   3.998   0.173   0.613  0.0446  1.3815 -0.0859
 6819TIP3    H242017   4.060   0.157   0.476  1.0513 -0.7712  0.5742
 6820TIP3   OH242018   4.166   1.392   0.134 -0.4707  0.3033  0.5196
 6820TIP3    H142019   4.134   1.375   0.223 -1.1299  1.2958  0.4814
 6820TIP3    H242020   4.090   1.426   0.087 -0.5748 -1.7022 -0.8991
 6821TIP3   OH242021   1.445   5.173   6.501 -0.1532 -0.0435 -0.1715
 6821TIP3    H142022   1.389   5.164   6.578  1.7394  0.1567  1.2973
 6821TIP3    H242023   1.428   5.093   6.450 -1.1871 -0.3489  0.6190
 6822TIP3   OH242024   4.181   3.480   0.807 -0.4228 -0.5576 -0.1628
 6822TIP3    H142025   4.112   3.538   0.840  0.8192  0.9147 -0.0175
 6822TIP3    H242026   4.256   3.538   0.791  1.7306 -2.4344  2.2460
 6823TIP3   OH242027   0.501   0.912   7.632 -0.4889 -0.1082 -0.0713
 6823TIP3    H142028   0.454   0.968   7.570  0.7296 -0.3555 -1.2701
 6823TIP3    H242029   0.543   0.972   7.693 -1.2436  0.1600  0.1946
 6824TIP3   OH242030   6.312   1.507   8.767  0.1653 -0.0343  0.3513
 6824TIP3    H142031   6.378   1.485   8.833 -0.3506  0.1412  0.9380
 6824TIP3    H242032   6.281   1.422   8.736  0.4044 -0.1185  0.3337
 6825TIP3   OH242033   6.299   6.731   1.548  0.1190 -0.0914 -1.0042
 6825TIP3    H142034   6.318   6.640   1.524 -3.3175 -1.2099 -0.1907
 6825TIP3    H242035   6.218   6.725   1.600  2.2097  2.9919  3.1913
 6826TIP3   OH242036   2.988   6.061   0.925 -0.2172 -0.8279 -0.2102
 6826TIP3    H142037   3.015   6.041   0.836 -0.6762 -1.4718 -0.2070
 6826TIP3    H242038   2.997   5.978   0.972 -1.4398 -0.8632 -0.0219
 6827TIP3   OH242039   0.795   2.936   1.251 -0.0689 -0.3377  0.1658
 6827TIP3    H142040   0.793   2.842   1.231 -0.6804 -0.4903  0.9237
 6827TIP3    H242041   0.847   2.942   1.331 -0.4040 -0.0796  0.3663
 6828TIP3   OH242042   2.991   0.310   0.686 -0.3859  0.3373  0.3243
 6828TIP3    H142043   3.012   0.396   0.722 -1.0238  0.1475  1.1856
 6828TIP3    H242044   3.057   0.252   0.722  0.5842  0.6053 -0.9687
 6829TIP3   OH242045   4.002   5.537   1.913  0.5124 -0.4000  0.1870
 6829TIP3    H142046   4.011   5.447   1.881  1.0065 -0.2480 -0.1003
 6829TIP3    H242047   3.910   5.544   1.939  0.6589 -1.2536  0.9929
 6830TIP3   OH242048   3.271   1.481   0.059  0.4888  0.3818 -0.5710
 6830TIP3    H142049   3.184   1.485   0.099  0.2720  1.8091 -1.1071
 6830TIP3    H242050   3.257   1.515  -0.030  1.7596  1.6383 -0.3171
 6831TIP3   OH242051   0.334   6.145   2.329 -0.2173 -0.3281  0.2362
 6831TIP3    H142052   0.248   6.122   2.295  0.7035 -1.3905 -1.5047
 6831TIP3    H242053   0.380   6.062   2.337  1.1070  0.3307 -0.1853
 6832TIP3   OH242054   5.307   1.630   0.281 -0.8145 -0.4585  0.8315
 6832TIP3    H142055   5.225   1.587   0.302 -0.4212 -0.7509  1.8235
 6832TIP3    H242056   5.360   1.621   0.360 -0.1669  0.5329  0.5285
 6833TIP3   OH242057   5.794   6.257   0.020 -0.0381  0.0692  0.6630
 6833TIP3    H142058   5.803   6.316  -0.054  1.8790 -0.8175  0.1087
 6833TIP3    H242059   5.723   6.197  -0.005  0.2472  0.0946 -0.2411
 6834TIP3   OH242060   3.210   2.260   0.775  0.2091  0.2120  0.2594
 6834TIP3    H142061   3.208   2.196   0.704 -2.6706 -0.4397  0.8295
 6834TIP3    H242062   3.233   2.209   0.853  2.1639  0.7190  0.0788
 6835TIP3   OH242063   1.718   4.267   0.556 -0.2103 -0.1712  0.0086
 6835TIP3    H142064   1.731   4.325   0.481  0.4015  0.4933  0.6107
 6835TIP3    H242065   1.698   4.325   0.629 -0.7035 -0.8014  0.3949
 6836TIP3   OH242066   4.845   5.967   6.980  0.0268 -0.6939 -0.2066
 6836TIP3    H142067   4.782   5.896   6.969 -0.6608  0.1014 -1.7811
 6836TIP3    H242068   4.898   5.965   6.900  0.3253  0.2358 -0.0480
 6837TIP3   OH242069   0.019   3.784   7.037 -0.4854  0.1648  0.1010
 6837TIP3    H142070  -0.010   3.701   6.999  0.1380 -0.0512  0.0865
 6837TIP3    H242071   0.015   3.847   6.965  0.1453 -0.1155 -0.1867
 6838TIP3   OH242072   1.046   0.106   7.614  0.0117 -0.5041 -0.4897
 6838TIP3    H142073   1.140   0.123   7.612  0.1494 -0.8449  1.2594
 6838TIP3    H242074   1.005   0.192   7.602  0.5375 -0.3251 -1.0391
 6839TIP3   OH242075   0.444   5.428   8.504  0.0739  0.1710 -0.0855
 6839TIP3    H142076   0.386   5.405   8.576 -1.5728  0.6359 -1.2140
 6839TIP3    H242077   0.474   5.344   8.470 -2.1718 -0.2446 -1.2145
 6840TIP3   OH242078   2.324   3.077   2.360  0.5628  0.9559 -0.0764
 6840TIP3    H142079   2.373   2.997   2.338  1.3411  1.2580  0.5082
 6840TIP3    H242080   2.322   3.078   2.456 -2.0993  0.0673 -0.0522
 6841TIP3   OH242081   3.723   0.513   7.315 -0.2483  0.7322  0.1717
 6841TIP3    H142082   3.652   0.485   7.257 -1.6140  2.0744  1.0959
 6841TIP3    H242083   3.697   0.478   7.401 -0.3685  2.1116  0.7185
 6842TIP3   OH242084   1.537   6.271   6.943  0.1581  0.3670  0.0531
 6842TIP3    H142085   1.576   6.285   6.857  0.5809  0.5256  0.2732
 6842TIP3    H242086   1.608   6.286   7.005  0.1262 -0.7625  0.3861
 6843TIP3   OH242087   5.412   1.787   6.916 -0.2615  0.3424  0.2814
 6843TIP3    H142088   5.506   1.790   6.896 -0.4286 -0.2297 -0.6355
 6843TIP3    H242089   5.371   1.759   6.834 -1.1900  0.1132  0.8153
 6844TIP3   OH242090   4.209   4.924   0.074  0.0910  0.1692  0.4435
 6844TIP3    H142091   4.232   5.012   0.103 -0.5571  0.6276 -0.3620
 6844TIP3    H242092   4.244   4.919  -0.015  1.1628 -0.8332  0.9070
 6845TIP3   OH242093   6.158   4.007   0.744 -0.9720 -0.0854  0.6443
 6845TIP3    H142094   6.177   3.932   0.800  1.2702 -0.4285 -0.4765
 6845TIP3    H242095   6.099   3.973   0.677 -0.9082 -0.5453  0.8171
 6846TIP3   OH242096   1.289   2.864   0.872  0.5826  0.1342  0.3295
 6846TIP3    H142097   1.330   2.878   0.958  1.2301 -1.3140  0.2735
 6846TIP3    H242098   1.267   2.771   0.871 -0.6375  0.4166 -0.5668
 6847TIP3   OH242099   2.560   3.417   7.821  0.2772  0.4171 -0.2273
 6847TIP3    H142100   2.531   3.337   7.777 -0.9559  1.6021 -1.6769
 6847TIP3    H242101   2.654   3.404   7.835  0.6671 -0.1542 -2.9658
 6848TIP3   OH242102   4.809   1.042   0.211  0.6333  0.3470  0.3120
 6848TIP3    H142103   4.769   0.959   0.238 -0.9077  0.2838 -1.8835
 6848TIP3    H242104   4.903   1.025   0.209  0.2776 -1.8915 -1.5361
 6849TIP3   OH242105   3.879   5.902   1.673  0.0028 -0.2941  1.1431
 6849TIP3    H142106   3.832   5.952   1.606 -0.4155 -2.2891 -0.1617
 6849TIP3    H242107   3.809   5.860   1.724  0.2707 -2.1470  0.0895
 6850TIP3   OH242108   4.680   0.084   1.721 -0.4443 -0.3844 -0.0644
 6850TIP3    H142109   4.754   0.024   1.716  0.0214  0.0845  0.8112
 6850TIP3    H242110   4.623   0.046   1.788  0.0781  0.3457  0.8339
 6851TIP3   OH242111   4.842   4.688   0.191  0.0099  0.4333  0.7671
 6851TIP3    H142112   4.752   4.659   0.178  0.0762 -0.0339  1.3145
 6851TIP3    H242113   4.895   4.611   0.172  0.1949  0.2061  2.1170
 6852TIP3   OH242114   3.417   6.771   0.624  0.0454 -0.6013 -0.5585
 6852TIP3    H142115   3.415   6.772   0.720 -2.4705 -1.0581 -0.5305
 6852TIP3    H242116   3.335   6.728   0.599  0.2853  0.1759 -2.9347
 6853TIP3   OH242117   4.825   3.299   1.827  0.8237  0.1583 -0.0693
 6853TIP3    H142118   4.906   3.336   1.793  0.3236  0.0416 -1.4210
 6853TIP3    H242119   4.850   3.213   1.861  0.8012 -1.2249 -3.2492
 6854TIP3   OH242120   4.132   0.042   1.338 -0.2270 -0.1764 -0.0468
 6854TIP3    H142121   4.073   0.019   1.410 -0.0657 -2.6387 -0.6127
 6854TIP3    H242122   4.188   0.111   1.374 -1.5630  0.1867  1.4449
 6855TIP3   OH242123   5.347   1.167   7.633 -0.4143  0.2988 -0.3043
 6855TIP3    H142124   5.256   1.137   7.634 -0.1665 -0.5518 -1.1684
 6855TIP3    H242125   5.364   1.194   7.723 -0.6635 -2.2918  0.6043
 6856TIP3   OH242126   1.890   6.426   8.202 -0.7339  0.4003  0.3292
 6856TIP3    H142127   1.929   6.479   8.272 -0.7067  0.3447  0.3568
 6856TIP3    H242128   1.846   6.354   8.248 -0.8733  0.4660  0.2977
 6857TIP3   OH242129   1.552   6.220   0.600  0.3336  0.2722  0.0723
 6857TIP3    H142130   1.513   6.303   0.628  0.8856 -0.2499  2.6626
 6857TIP3    H242131   1.477   6.166   0.574 -0.0514  1.4356 -1.3965
 6858TIP3   OH242132   3.993   6.235   0.338  0.7887 -0.1609  0.2608
 6858TIP3    H142133   3.998   6.227   0.243  0.1215 -0.4159  0.2399
 6858TIP3    H242134   4.081   6.216   0.369  0.8466 -0.7564 -0.2614
 6859TIP3   OH242135   6.692   1.461   0.307 -0.2442  0.4175 -0.5963
 6859TIP3    H142136   6.731   1.405   0.374  1.3663  0.7159 -1.2383
 6859TIP3    H242137   6.757   1.463   0.237 -1.9906 -0.0860 -2.2963
 6860TIP3   OH242138   6.026   2.280   2.248 -0.2277 -0.2170  0.6530
 6860TIP3    H142139   6.016   2.361   2.298 -0.3680 -1.2646  2.3753
 6860TIP3    H242140   5.946   2.231   2.265  0.6876 -1.5512  1.2155
 6861TIP3   OH242141   1.850   0.958   0.747 -0.0655  0.0404  0.2907
 6861TIP3    H142142   1.755   0.964   0.739 -0.1862  0.2875  1.6999
 6861TIP3    H242143   1.878   1.048   0.766  0.3671 -0.1532  0.5754
 6862TIP3   OH242144   2.597   4.692   8.048 -0.2464  0.7305 -0.2855
 6862TIP3    H142145   2.640   4.699   8.134  0.4669  1.8692 -0.7110
 6862TIP3    H242146   2.669   4.684   7.986 -0.6917  1.3664 -0.9021
 6863TIP3   OH242147   6.559   2.110   0.689 -0.3252  0.1520 -0.1648
 6863TIP3    H142148   6.538   2.078   0.601  0.4414 -0.9165  0.0337
 6863TIP3    H242149   6.652   2.130   0.686 -0.4267  0.7059  0.2333
 6864TIP3   OH242150   3.499   3.019   7.423 -0.2802 -0.5234  0.2727
 6864TIP3    H142151   3.426   3.071   7.457  0.6256  0.5776  0.6050
 6864TIP3    H242152   3.545   3.079   7.364  0.7900 -0.9423  0.6617
 6865TIP3   OH242153   4.095   1.037   0.852  0.3721 -0.1588 -0.4254
 6865TIP3    H142154   4.156   1.076   0.789  1.0543 -1.1941 -0.4292
 6865TIP3    H242155   4.129   1.064   0.937 -2.2591  3.8530 -0.3924
 6866TIP3   OH242156   3.374   2.759   1.092  0.3761 -0.4027 -0.0197
 6866TIP3    H142157   3.468   2.778   1.086  0.1097  0.4510 -2.1779
 6866TIP3    H242158   3.366   2.670   1.058  0.4268 -0.6856  0.6727
 6867TIP3   OH242159   4.577   0.500   7.667  0.1401  0.0572  0.2318
 6867TIP3    H142160   4.603   0.432   7.730  1.5783  1.6994  1.4988
 6867TIP3    H242161   4.649   0.504   7.605 -0.2779 -0.0561 -0.2673
 6868TIP3   OH242162   6.242   3.434   6.470  0.5736  0.3780 -0.5911
 6868TIP3    H142163   6.300   3.509   6.479  1.1434 -0.2280  1.1736
 6868TIP3    H242164   6.181   3.459   6.400  1.9887  1.6418 -1.4266
 6869TIP3   OH242165   6.246   2.116   8.536  0.1803  0.1428  0.0166
 6869TIP3    H142166   6.221   2.095   8.626  0.1390 -1.4197 -0.3332
 6869TIP3    H242167   6.282   2.205   8.541 -0.5459  0.3867  1.4242
 6870TIP3   OH242168   6.635   1.351   7.438  0.3362  0.6264 -0.3874
 6870TIP3    H142169   6.580   1.376   7.512  2.6625 -0.1895  1.7739
 6870TIP3    H242170   6.711   1.409   7.444  2.2078 -1.7289  0.0903
 6871TIP3   OH242171   4.465   5.176   7.831  0.2147  0.2101  0.4531
 6871TIP3    H142172   4.490   5.176   7.739 -0.2562  0.8658  0.3151
 6871TIP3    H242173   4.447   5.268   7.851  0.2864  0.0731  1.1940
 6872TIP3   OH242174   3.615   5.271   1.187 -0.0157 -0.1262  0.1666
 6872TIP3    H142175   3.652   5.317   1.112  0.5802 -1.5372 -0.4355
 6872TIP3    H242176   3.690   5.252   1.243 -0.2518 -0.3518  0.4113
 6873TIP3   OH242177   3.664   2.983   8.747 -0.1150 -1.0078  0.3097
 6873TIP3    H142178   3.627   3.067   8.720 -0.5447 -1.0371  0.7753
 6873TIP3    H242179   3.655   2.926   8.670  1.0022 -0.3774 -0.3003
 6874TIP3   OH242180   1.824   4.840   7.524 -0.2975 -0.3040 -0.3473
 6874TIP3    H142181   1.905   4.800   7.557  0.0993  0.2733 -0.6121
 6874TIP3    H242182   1.805   4.792   7.443 -0.2941 -0.5245 -0.2200
 6875TIP3   OH242183   6.385   5.475   0.963 -0.1982  0.7392 -0.3965
 6875TIP3    H142184   6.460   5.448   1.017  0.5186 -0.3984 -1.8923
 6875TIP3    H242185   6.311   5.472   1.023  0.7341  0.6029  0.8022
 6876TIP3   OH242186   4.076   3.324   2.566 -0.6039 -0.1900 -0.0083
 6876TIP3    H142187   4.140   3.385   2.600 -1.4984  0.6447  0.2319
 6876TIP3    H242188   4.104   3.307   2.476 -0.7510  1.1902 -0.3372
 6877TIP3   OH242189   0.105   1.018   2.265 -0.4413 -0.0913 -0.3684
 6877TIP3    H142190   0.145   1.070   2.334  0.4750 -0.5734 -0.5272
 6877TIP3    H242191   0.172   1.011   2.197 -0.8422 -0.7828 -0.7126
 6878TIP3   OH242192   5.565   0.381   7.863 -0.3995  0.1877 -0.2611
 6878TIP3    H142193   5.543   0.373   7.956  1.0576  2.1662  0.3218
 6878TIP3    H242194   5.524   0.464   7.836 -0.0201  0.1039 -1.1398
 6879TIP3   OH242195   2.877   2.750   7.523 -0.1699  1.0538  0.7253
 6879TIP3    H142196   2.965   2.718   7.505  0.0454 -0.1083  3.3767
 6879TIP3    H242197   2.820   2.674   7.507 -0.4387  1.1795  1.0815
 6880TIP3   OH242198   0.791   4.565   0.962  0.0060 -0.2455 -0.6713
 6880TIP3    H142199   0.850   4.616   1.017 -0.2057 -1.3872  0.6722
 6880TIP3    H242200   0.847   4.495   0.927  0.0795  0.3256 -1.7313
 6881TIP3   OH242201   4.789   3.541   6.365 -0.3682  0.2957  0.2610
 6881TIP3    H142202   4.760   3.451   6.349  0.9353 -0.4891  1.9683
 6881TIP3    H242203   4.784   3.583   6.279 -2.7217 -0.8554 -0.2586
 6882TIP3   OH242204   1.930   2.731   1.559  0.5286  0.0503 -0.4508
 6882TIP3    H142205   2.006   2.781   1.528 -0.5652  1.4007 -1.0838
 6882TIP3    H242206   1.933   2.650   1.509 -0.2816  1.5027 -2.9864
 6883TIP3   OH242207   3.393   1.556   7.576  0.6104 -0.0879 -0.6710
 6883TIP3    H142208   3.302   1.564   7.604  1.3021  0.5227  1.6388
 6883TIP3    H242209   3.411   1.462   7.580  0.0109 -0.2503 -1.5006
 6884TIP3   OH242210   5.303   5.416   1.454 -0.3913 -0.1931  0.5654
 6884TIP3    H142211   5.265   5.504   1.455 -0.2578 -0.1129 -0.3147
 6884TIP3    H242212   5.395   5.430   1.435 -0.2945 -0.5051  0.7988
 6885TIP3   OH242213   5.025   6.698   8.821 -0.9548 -0.1907 -0.0775
 6885TIP3    H142214   4.933   6.725   8.818 -1.2980 -1.1253  1.0050
 6885TIP3    H242215   5.040   6.655   8.737 -1.6130 -0.2996 -0.1487
 6886TIP3   OH242216   6.576   4.753   1.020  0.1697  0.1031 -0.1644
 6886TIP3    H142217   6.555   4.667   1.055 -0.0796 -0.5259 -1.7774
 6886TIP3    H242218   6.498   4.806   1.038 -0.9006 -0.8409 -1.6879
 6887TIP3   OH242219   2.140   5.102   6.983 -0.1413 -0.0854  0.6469
 6887TIP3    H142220   2.167   5.034   6.922 -0.1691  1.1488 -0.8046
 6887TIP3    H242221   2.077   5.155   6.934  1.4839  2.2788  0.8937
 6888TIP3   OH242222   2.617   5.740   8.440 -0.1868  0.3960  0.3770
 6888TIP3    H142223   2.557   5.733   8.365  0.0097 -1.2181  0.3188
 6888TIP3    H242224   2.696   5.778   8.403 -0.0078 -0.6081 -0.3175
 6889TIP3   OH242225   0.132   4.043   7.257 -0.4629 -0.3921 -0.2220
 6889TIP3    H142226   0.155   4.133   7.280 -1.6603 -0.2256  0.4157
 6889TIP3    H242227   0.045   4.030   7.295 -2.1991 -0.4236 -3.7926
 6890TIP3   OH242228   4.976   4.850   8.525  0.2875 -0.5531 -0.3478
 6890TIP3    H142229   5.027   4.914   8.475  0.1078  0.2873  0.5216
 6890TIP3    H242230   4.886   4.864   8.498 -0.2567  2.0547  2.3764
 6891TIP3   OH242231   0.386   0.696   0.380 -0.0714  0.4289 -0.2074
 6891TIP3    H142232   0.339   0.683   0.462  0.3054  1.6148  0.2172
 6891TIP3    H242233   0.438   0.617   0.370 -0.7314 -0.0803  0.2740
 6892TIP3   OH242234   4.372   3.472   6.494  0.4210 -0.8081  0.1218
 6892TIP3    H142235   4.377   3.555   6.542 -0.0482 -0.3380 -0.6204
 6892TIP3    H242236   4.397   3.405   6.558  2.5000  0.0526  0.2668
 6893TIP3   OH242237   6.052   0.830   2.255  0.3600  0.0467 -0.2012
 6893TIP3    H142238   6.114   0.870   2.316  0.5733 -0.4048 -0.1197
 6893TIP3    H242239   6.042   0.740   2.286 -0.8617  0.2902  0.1977
 6894TIP3   OH242240   3.596   3.812   0.576 -0.1105  0.8489 -0.9368
 6894TIP3    H142241   3.617   3.903   0.555 -0.2520  0.7311 -1.6008
 6894TIP3    H242242   3.619   3.803   0.669 -0.0961  1.5589 -0.8662
 6895TIP3   OH242243   6.158   3.977   8.678 -0.1029 -0.2382  0.6274
 6895TIP3    H142244   6.238   3.961   8.729 -0.0142  0.7551  0.8075
 6895TIP3    H242245   6.116   3.891   8.673  0.3029 -0.5147  1.6673
 6896TIP3   OH242246   5.295   4.712   6.767 -0.3169 -0.2516  0.4721
 6896TIP3    H142247   5.347   4.678   6.694 -0.5032 -0.6329  0.5119
 6896TIP3    H242248   5.319   4.656   6.841  1.6969  1.6208  1.3479
 6897TIP3   OH242249   4.303   1.903   7.086 -0.6545  0.4592  0.2630
 6897TIP3    H142250   4.322   1.997   7.080  0.3456  0.1939 -1.2586
 6897TIP3    H242251   4.301   1.873   6.995  1.7282 -1.4980  0.7583
 6898TIP3   OH242252   2.731   4.447   6.973 -0.1380 -0.4885 -0.4127
 6898TIP3    H142253   2.679   4.494   6.908  0.0471  0.8595  0.3835
 6898TIP3    H242254   2.821   4.479   6.958 -0.0068 -0.6025  0.1176
 6899TIP3   OH242255   4.181   1.911   7.460 -0.0653 -0.1613  0.1852
 6899TIP3    H142256   4.160   2.000   7.488 -1.5314 -0.3808 -0.1082
 6899TIP3    H242257   4.130   1.900   7.379  2.0817 -0.4045 -1.2179
 6900TIP3   OH242258   2.194   6.083   0.813 -0.0495 -0.1419  0.9084
 6900TIP3    H142259   2.110   6.044   0.836  0.3283 -0.6319  1.4988
 6900TIP3    H242260   2.190   6.171   0.851  0.0277 -0.4622  1.6857
 6901TIP3   OH242261   4.445   0.995   0.910 -0.0817 -0.0759  0.0410
 6901TIP3    H142262   4.490   1.078   0.895  0.5219 -0.3298  0.4165
 6901TIP3    H242263   4.504   0.946   0.968  0.9772 -1.8956 -2.3762
 6902TIP3   OH242264   0.608   1.893   1.657  0.4316  0.2408 -0.2515
 6902TIP3    H142265   0.654   1.931   1.732  1.6118  0.1630 -0.9132
 6902TIP3    H242266   0.676   1.848   1.607 -0.6324 -1.2665 -0.4278
 6903TIP3   OH242267   0.220   3.464   0.905  0.1450 -0.4293 -0.3225
 6903TIP3    H142268   0.277   3.473   0.981 -1.7246  0.1080  1.1136
 6903TIP3    H242269   0.258   3.522   0.839  1.2727 -0.1394  0.5448
 6904TIP3   OH242270   0.527   5.702   8.541  0.0056 -0.0359  0.1986
 6904TIP3    H142271   0.621   5.702   8.523  0.7483 -1.3858  3.3249
 6904TIP3    H242272   0.502   5.610   8.537 -0.4419 -0.0548  2.2977
 6905TIP3   OH242273   5.910   5.613   0.963 -0.2132  0.3909  0.7275
 6905TIP3    H142274   5.998   5.651   0.963 -0.5279  1.1464  0.1194
 6905TIP3    H242275   5.869   5.646   0.882 -0.7320 -0.7132  0.5146
 6906TIP3   OH242276   3.746   2.156   8.648 -0.2693  0.6228 -0.6044
 6906TIP3    H142277   3.829   2.126   8.613 -0.2887  2.7541 -2.7023
 6906TIP3    H242278   3.766   2.238   8.692 -0.8035 -0.4303  1.8296
 6907TIP3   OH242279   5.867   2.602   2.509 -0.4653  0.1653 -0.0962
 6907TIP3    H142280   5.774   2.622   2.522 -0.1978  0.7788  0.9535
 6907TIP3    H242281   5.911   2.687   2.516  0.6568 -0.5654  3.9648
 6908TIP3   OH242282   4.789   6.751   8.700  0.0809  0.2017  0.2856
 6908TIP3    H142283   4.775   6.837   8.661 -1.2707 -1.4906 -3.4237
 6908TIP3    H242284   4.701   6.723   8.729  0.1426 -0.6568 -0.3141
 6909TIP3   OH242285   2.694   5.065   0.142  0.4661  0.3595 -0.4366
 6909TIP3    H142286   2.700   5.065   0.047  0.8621 -1.0600 -0.4351
 6909TIP3    H242287   2.602   5.047   0.161  0.0618  2.1399 -0.5169
 6910TIP3   OH242288   2.133   0.859   8.577  0.1306 -0.0661  0.9457
 6910TIP3    H142289   2.190   0.783   8.568 -0.0825 -0.2670  1.2587
 6910TIP3    H242290   2.045   0.825   8.567  0.0797  0.3321 -0.0725
 6911TIP3   OH242291   5.240   3.585   8.526  0.1950  0.2446  0.1324
 6911TIP3    H142292   5.160   3.538   8.504 -0.1866  1.1907 -0.5747
 6911TIP3    H242293   5.210   3.671   8.555  0.9358  0.4949  0.1761
 6912TIP3   OH242294   2.180   3.531   7.907 -0.2003  0.2992  0.2720
 6912TIP3    H142295   2.274   3.527   7.926 -0.4897  0.6284  1.8868
 6912TIP3    H242296   2.176   3.563   7.816  1.2354  0.3797  0.2075
 6913TIP3   OH242297   1.034   0.450   8.622 -0.0593  0.3464  0.3147
 6913TIP3    H142298   0.965   0.400   8.579  0.4437 -0.8535  0.8476
 6913TIP3    H242299   1.000   0.467   8.710 -0.6899  1.9544 -0.2083
 6914TIP3   OH242300   3.904   2.389   0.964  0.0956 -0.0114 -0.1216
 6914TIP3    H142301   3.883   2.376   0.871 -0.2523  0.5573 -0.1266
 6914TIP3    H242302   3.838   2.338   1.010 -0.1801  0.2972 -0.1738
 6915TIP3   OH242303   6.198   2.111   1.498 -0.5960  0.2614  0.0356
 6915TIP3    H142304   6.128   2.176   1.489 -0.6068  0.3047  0.4142
 6915TIP3    H242305   6.232   2.125   1.587  0.0054  0.3607 -0.2051
 6916TIP3   OH242306   0.246   4.724   1.135 -0.5056 -0.6117 -0.0501
 6916TIP3    H142307   0.183   4.652   1.130  0.2357 -1.3551  0.9633
 6916TIP3    H242308   0.281   4.732   1.046  2.3273 -4.2185  0.5085
 6917TIP3   OH242309   6.322   3.650   7.525  0.1560 -0.0074  0.3889
 6917TIP3    H142310   6.283   3.730   7.560  1.5084  2.5754 -3.2504
 6917TIP3    H242311   6.248   3.591   7.510 -1.2920  1.6519  0.6826
 6918TIP3   OH242312   4.590   0.747   8.402 -0.0193  0.0937  0.1638
 6918TIP3    H142313   4.508   0.749   8.354 -0.2258 -0.6196  0.4731
 6918TIP3    H242314   4.621   0.657   8.394  0.3976  0.1916  0.6001
 6919TIP3   OH242315   3.820   5.999   6.978  0.2165 -0.5977  0.3514
 6919TIP3    H142316   3.812   5.918   6.928 -1.1518 -1.7301  2.2337
 6919TIP3    H242317   3.759   6.060   6.936  0.7289 -0.7731 -0.6536
 6920TIP3   OH242318   3.435   0.792   7.689  0.3364 -0.0372  0.1185
 6920TIP3    H142319   3.340   0.798   7.677  0.1508  0.5881  1.6037
 6920TIP3    H242320   3.465   0.883   7.684  0.4532  0.0980  2.2255
 6921TIP3   OH242321   6.249   1.486   0.896 -0.7563 -0.3241  0.0150
 6921TIP3    H142322   6.210   1.571   0.879 -0.5757 -0.0789  0.7672
 6921TIP3    H242323   6.189   1.445   0.959  0.3423  0.1996  1.4660
 6922TIP3   OH242324   2.884   5.657   7.033 -0.2851  0.1277  0.0965
 6922TIP3    H142325   2.889   5.619   6.946 -0.4240 -0.1307  0.2005
 6922TIP3    H242326   2.907   5.749   7.021 -0.6546  0.1747 -0.2699
 6923TIP3   OH242327   5.533   2.210   8.618 -0.1178  0.3916  0.5681
 6923TIP3    H142328   5.596   2.196   8.548 -0.1461 -1.0737  0.7967
 6923TIP3    H242329   5.584   2.251   8.688 -0.1347  2.0346 -0.3402
 6924TIP3   OH242330   6.077   4.268   0.636 -0.2151  0.7057 -0.0407
 6924TIP3    H142331   6.152   4.287   0.580 -0.2686  1.6835  0.1995
 6924TIP3    H242332   6.106   4.198   0.694 -0.2214 -0.4636 -1.4051
 6925TIP3   OH242333   3.832   4.610   1.371 -0.3315 -0.0340  0.0189
 6925TIP3    H142334   3.913   4.627   1.419 -1.5869 -0.0420  2.2701
 6925TIP3    H242335   3.782   4.690   1.380 -1.1004 -0.4761 -0.2678
 6926TIP3   OH242336   3.699   4.390   7.200 -0.0020 -0.1803 -0.0785
 6926TIP3    H142337   3.630   4.376   7.265  1.1651 -3.3497  0.6906
 6926TIP3    H242338   3.775   4.343   7.235  1.9757  1.5247 -1.8096
 6927TIP3   OH242339   6.002   4.678   6.972 -0.1513 -0.2131 -0.1929
 6927TIP3    H142340   5.934   4.717   7.027  1.4769 -0.2634  1.9940
 6927TIP3    H242341   6.083   4.723   6.998  0.9148 -1.2205 -1.5994
 6928TIP3   OH242342   1.605   1.454   1.551 -0.3262  0.2494  0.5111
 6928TIP3    H142343   1.639   1.434   1.464 -0.4783 -0.5372  0.6198
 6928TIP3    H242344   1.518   1.491   1.535 -0.2347  0.3802  0.3168
 6929TIP3   OH242345   6.326   6.698   0.453 -0.7186  0.4400 -0.0780
 6929TIP3    H142346   6.290   6.767   0.396 -3.2551 -0.9608 -0.3174
 6929TIP3    H242347   6.298   6.724   0.541 -1.6046 -0.1997 -0.1596
 6930TIP3   OH242348   6.334   4.316   7.908 -0.0045  0.1051  0.0524
 6930TIP3    H142349   6.346   4.371   7.831 -0.5669 -0.1621 -0.2348
 6930TIP3    H242350   6.420   4.315   7.951  1.1476 -2.0383 -2.0945
 6931TIP3   OH242351   0.360   6.359   1.474 -0.3896  0.6194 -0.3089
 6931TIP3    H142352   0.333   6.321   1.557 -1.8606  1.3895 -0.4025
 6931TIP3    H242353   0.384   6.284   1.419  1.9566  0.1600  1.2015
 6932TIP3   OH242354   6.587   6.523   8.110 -0.0408 -0.6306 -0.1055
 6932TIP3    H142355   6.557   6.433   8.127 -1.7040 -0.1533 -0.3244
 6932TIP3    H242356   6.589   6.563   8.197  0.2632 -0.7379 -0.0601
 6933TIP3   OH242357   3.567   0.144   1.052 -0.4222 -0.6375 -0.1676
 6933TIP3    H142358   3.556   0.177   0.962 -0.3909 -0.5615 -0.1438
 6933TIP3    H242359   3.487   0.171   1.097  0.5063  1.3035  0.4272
 6934TIP3   OH242360   6.466   1.743   8.216 -0.1941 -0.8321  0.1487
 6934TIP3    H142361   6.479   1.821   8.161  0.0832 -2.0523 -1.6127
 6934TIP3    H242362   6.484   1.773   8.305 -0.3035  1.1626 -0.4450
 6935TIP3   OH242363   4.739   5.680   7.324  0.3196  0.3809  0.0920
 6935TIP3    H142364   4.649   5.705   7.345 -0.0069  0.9512 -1.7648
 6935TIP3    H242365   4.786   5.763   7.318  1.2541  0.0496  2.0084
 6936TIP3   OH242366   1.271   6.323   7.094 -0.3027  0.4836 -0.4559
 6936TIP3    H142367   1.182   6.292   7.109 -0.3409  1.0391  0.5604
 6936TIP3    H242368   1.305   6.266   7.025 -1.4617  0.3092 -0.8976
 6937TIP3   OH242369   4.043   3.519   8.358 -0.2757  0.0859  0.1364
 6937TIP3    H142370   4.002   3.583   8.415 -2.2775 -1.7536  0.8982
 6937TIP3    H242371   4.112   3.479   8.411 -0.7174 -0.1369  0.5492
 6938TIP3   OH242372   1.283   0.556   8.607 -0.3887 -0.1595  0.0087
 6938TIP3    H142373   1.342   0.496   8.562 -1.4778 -0.4788 -1.0621
 6938TIP3    H242374   1.206   0.503   8.629 -1.0049  0.6253 -0.1776
 6939TIP3   OH242375   2.936   5.318   1.881  0.2205 -0.2868 -0.1685
 6939TIP3    H142376   2.907   5.331   1.971  1.9916  1.0538  0.2643
 6939TIP3    H242377   2.862   5.344   1.827 -1.1756 -1.8997  0.8561
 6940TIP3   OH242378   3.690   5.694   8.718  0.0835  0.0961  0.3485
 6940TIP3    H142379   3.651   5.711   8.804  0.0296 -0.6383  0.4771
 6940TIP3    H242380   3.729   5.607   8.727  0.3242  0.1410 -0.2847
 6941TIP3   OH242381   2.867   1.806   0.384  0.3307 -0.1344  0.3419
 6941TIP3    H142382   2.924   1.863   0.435 -0.1585 -0.0949  0.8543
 6941TIP3    H242383   2.872   1.721   0.429  0.2156 -0.2125  0.2094
 6942TIP3   OH242384   0.715   4.886   1.126 -0.3413  0.2791 -0.3066
 6942TIP3    H142385   0.642   4.868   1.067 -0.2879 -1.8916  0.1904
 6942TIP3    H242386   0.792   4.850   1.082  0.0276  0.3955  0.2185
 6943TIP3   OH242387   4.354   6.646   0.559 -0.1634  0.2791 -0.0119
 6943TIP3    H142388   4.321   6.722   0.606 -0.9281 -0.6542  0.9970
 6943TIP3    H242389   4.346   6.573   0.621 -1.8268 -1.1256 -1.7654
 6944TIP3   OH242390   6.310   2.958   7.342 -0.0975 -0.2235  0.4278
 6944TIP3    H142391   6.401   2.936   7.361 -0.1291 -0.4465  0.3216
 6944TIP3    H242392   6.270   2.875   7.317 -0.2572 -0.0724  0.1810
 6945TIP3   OH242393   3.855   5.930   7.327  0.5941  0.3562  0.1615
 6945TIP3    H142394   3.826   5.904   7.239  0.8167 -0.4398  0.3145
 6945TIP3    H242395   3.859   6.026   7.324 -2.0626  0.5515  0.1316
 6946TIP3   OH242396   2.535   1.935   1.346  0.5449  0.2380  0.6453
 6946TIP3    H142397   2.584   2.016   1.336  0.3445  0.2239 -0.5605
 6946TIP3    H242398   2.443   1.962   1.350  0.5619  0.1808  1.8400
 6947TIP3   OH242399   1.141   5.104   6.592 -0.3551  0.0327  0.3003
 6947TIP3    H142400   1.048   5.124   6.600 -0.6598 -1.3590  0.4574
 6947TIP3    H242401   1.147   5.009   6.608  1.2355  0.2978  1.5334
 6948TIP3   OH242402   4.265   2.426   6.856  0.1749 -0.1243 -0.5639
 6948TIP3    H142403   4.190   2.370   6.872 -0.8631  0.8170 -1.9234
 6948TIP3    H242404   4.233   2.494   6.797  1.9433  0.6488 -0.7156
 6949TIP3   OH242405   2.918   0.085   7.781 -0.1974  0.2816  0.0737
 6949TIP3    H142406   2.891   0.177   7.775 -1.3582 -0.1322 -1.6883
 6949TIP3    H242407   2.845   0.042   7.825 -1.0530 -0.2787 -1.7931
 6950TIP3   OH242408   3.935   3.965   7.169 -0.0714  0.0980  0.1076
 6950TIP3    H142409   3.875   3.922   7.109 -0.5142 -0.7282  1.1042
 6950TIP3    H242410   3.910   3.932   7.256  3.0330 -1.8006  0.4379
 6951TIP3   OH242411   1.380   0.221   0.051 -0.8995  0.2001 -0.1465
 6951TIP3    H142412   1.362   0.175   0.133  0.7401 -2.0963 -0.9542
 6951TIP3    H242413   1.346   0.163  -0.017  0.3456  0.6372 -1.1865
 6952TIP3   OH242414   4.274   4.219   8.829 -0.1014  0.8458  0.8669
 6952TIP3    H142415   4.186   4.190   8.852 -0.6074  1.9828  0.4422
 6952TIP3    H242416   4.301   4.161   8.759  0.4680 -1.0520  2.5665
 6953TIP3   OH242417   5.965   3.263   8.135 -0.1420  0.4462 -0.2356
 6953TIP3    H142418   6.022   3.208   8.188  0.2894  0.2165 -0.9129
 6953TIP3    H242419   5.977   3.351   8.170  0.4745  0.3671 -0.2317
 6954TIP3   OH242420   1.697   0.208   8.530 -0.1966 -0.4707 -0.3512
 6954TIP3    H142421   1.678   0.235   8.440 -0.4922 -2.0304 -0.7924
 6954TIP3    H242422   1.625   0.149   8.553 -0.3510  0.2359  1.0715
 6955TIP3   OH242423   2.635   3.014   1.872  0.5813 -0.6032 -0.0886
 6955TIP3    H142424   2.578   3.010   1.949  2.0407 -1.7906  0.9759
 6955TIP3    H242425   2.593   2.956   1.808  0.2375 -0.9466  0.4394
 6956TIP3   OH242426   4.880   2.301   6.401  0.4519  0.0032  0.2607
 6956TIP3    H142427   4.811   2.248   6.362  0.2248  0.5514 -0.0919
 6956TIP3    H242428   4.834   2.372   6.446  0.6955 -0.7271  1.7234
 6957TIP3   OH242429   0.668   4.298   0.985 -0.5242 -0.9672  0.4594
 6957TIP3    H142430   0.744   4.296   1.043 -0.7778 -0.3129  0.8209
 6957TIP3    H242431   0.647   4.390   0.976  1.2180 -0.7414 -2.9709
 6958TIP3   OH242432   3.660   2.920   2.219 -0.4896  0.3171 -0.2973
 6958TIP3    H142433   3.688   2.829   2.219  1.0475  0.7570  0.0132
 6958TIP3    H242434   3.726   2.965   2.272 -1.5784  1.5096  0.1044
 6959TIP3   OH242435   3.167   0.215   7.921  0.0443  0.3346 -0.3974
 6959TIP3    H142436   3.211   0.174   7.995  1.7797  0.7329 -1.1582
 6959TIP3    H242437   3.138   0.143   7.866 -0.3363  0.0606  0.1621
 6960TIP3   OH242438   6.782   5.839   1.056 -0.1003  0.0375 -0.2452
 6960TIP3    H142439   6.771   5.932   1.035 -3.7829 -0.7447 -2.9728
 6960TIP3    H242440   6.732   5.793   0.987 -0.1606 -3.8776  2.0892
 6961TIP3   OH242441   0.397   4.123   8.229 -0.3543 -0.2652 -0.1381
 6961TIP3    H142442   0.370   4.181   8.300  0.5608  0.5670 -0.4486
 6961TIP3    H242443   0.358   4.162   8.150  1.1662  0.6194 -0.5070
 6962TIP3   OH242444   4.377   0.769   8.240 -0.2495 -0.1339 -0.9181
 6962TIP3    H142445   4.311   0.725   8.293  1.0592  0.1448  1.0301
 6962TIP3    H242446   4.327   0.812   8.170 -2.3927  1.5860  1.4872
 6963TIP3   OH242447   3.910   0.871   1.032  0.3202  0.2225  0.5420
 6963TIP3    H142448   3.967   0.937   1.072  1.1300  2.7100 -3.9835
 6963TIP3    H242449   3.823   0.890   1.067  0.9984  1.8945  1.4484
 6964TIP3   OH242450   4.121   5.026   7.321  0.5395  0.3402 -0.4204
 6964TIP3    H142451   4.215   5.038   7.311  0.8597  0.9060  2.4306
 6964TIP3    H242452   4.085   5.114   7.327  0.0269  0.1069  0.0125
 6965TIP3   OH242453   4.388   1.795   2.231  0.2243 -0.0114 -0.2901
 6965TIP3    H142454   4.297   1.820   2.220 -0.1790 -1.4148 -0.4035
 6965TIP3    H242455   4.429   1.815   2.146 -0.5337 -1.4490 -1.0418
 6966TIP3   OH242456   4.124   3.829   1.683 -0.1791  0.1984 -0.2299
 6966TIP3    H142457   4.054   3.883   1.720  0.0705  0.4475 -0.1263
 6966TIP3    H242458   4.080   3.747   1.660 -0.7801  0.8209 -1.3689
 6967TIP3   OH242459   4.627   3.693   8.158  0.0494 -0.0477  0.1664
 6967TIP3    H142460   4.619   3.786   8.138 -3.3189  0.3335  2.2771
 6967TIP3    H242461   4.632   3.650   8.073  0.2836  1.9828 -0.9079
 6968TIP3   OH242462   3.718   5.004   0.999  0.2351  0.2356  0.1145
 6968TIP3    H142463   3.763   4.955   0.931  0.1740  0.7092 -0.2741
 6968TIP3    H242464   3.728   5.096   0.973  2.1088  0.6096  1.8733
 6969TIP3   OH242465   3.415   4.213   7.997 -0.0447  0.4477 -0.3590
 6969TIP3    H142466   3.362   4.240   8.072  0.3018 -2.6745  1.1481
 6969TIP3    H242467   3.501   4.251   8.014  0.1980 -0.6875  1.2231
 6970TIP3   OH242468   4.943   5.874   8.820 -0.1655  0.2081 -0.0070
 6970TIP3    H142469   4.990   5.931   8.759  0.4228 -1.4311 -1.1450
 6970TIP3    H242470   4.960   5.786   8.788 -0.5942 -0.6616  2.0275
 6971TIP3   OH242471   6.230   5.260   7.629 -0.4281  0.3798  0.1662
 6971TIP3    H142472   6.280   5.341   7.614 -0.3300  0.6902  1.9405
 6971TIP3    H242473   6.138   5.288   7.628 -0.4111  0.4451  0.3654
 6972TIP3   OH242474   4.452   5.817   8.566 -0.4050  0.0337 -0.0231
 6972TIP3    H142475   4.393   5.803   8.492 -0.2870 -1.8969  0.1725
 6972TIP3    H242476   4.421   5.754   8.633  1.4871 -0.6271  0.2946
 6973TIP3   OH242477   3.154   4.404   1.430  0.1170 -0.5173 -0.3955
 6973TIP3    H142478   3.092   4.381   1.499 -0.8473 -1.6491 -1.5976
 6973TIP3    H242479   3.138   4.498   1.414  1.9478  0.3883  2.4191
 6974TIP3   OH242480   4.345   0.186   2.176 -0.3148 -0.3059 -0.2701
 6974TIP3    H142481   4.432   0.148   2.191 -0.2912  0.1219  0.7898
 6974TIP3    H242482   4.287   0.111   2.171  0.1670 -0.6160 -1.3929
 6975TIP3   OH242483   5.623   6.053   8.848 -0.1369 -0.2314  0.1720
 6975TIP3    H142484   5.690   5.990   8.820 -0.7654 -1.1490  0.6681
 6975TIP3    H242485   5.567   6.003   8.909  0.6603  1.4305  2.3813
 6976TIP3   OH242486   1.694   4.938   1.268  0.2704  0.1667  0.2805
 6976TIP3    H142487   1.656   4.896   1.345 -1.2861  0.9382 -0.0084
 6976TIP3    H242488   1.744   4.869   1.225  0.6448 -0.4409  1.6296
 6977TIP3   OH242489   1.487   0.893   1.898  0.1441  0.3335  0.5175
 6977TIP3    H142490   1.425   0.847   1.955  0.3888  1.4507  1.7242
 6977TIP3    H242491   1.431   0.945   1.840 -0.0909  0.6943  1.0509
 6978TIP3   OH242492   2.442   6.529   8.604 -0.2948 -0.3154 -0.2082
 6978TIP3    H142493   2.372   6.549   8.666  0.1508 -1.9161  0.8554
 6978TIP3    H242494   2.398   6.524   8.519 -1.4108 -0.8686  0.3845
 6979TIP3   OH242495   5.647   4.489   1.196  0.6124  0.4428 -0.6696
 6979TIP3    H142496   5.617   4.432   1.267 -1.1874 -0.4624 -2.0825
 6979TIP3    H242497   5.741   4.470   1.189  0.7184  0.1487  1.0752
 6980TIP3   OH242498   1.034   0.882   7.675 -0.3664 -0.4678  0.1093
 6980TIP3    H142499   0.961   0.908   7.731 -1.0977  0.9059 -1.4108
 6980TIP3    H242500   0.994   0.860   7.591  0.9354  0.1455 -0.7038
 6981TIP3   OH242501   5.527   3.450   7.022 -0.3118  0.1333  0.1094
 6981TIP3    H142502   5.588   3.510   7.065  0.0712 -0.3407  0.2300
 6981TIP3    H242503   5.489   3.399   7.093  1.7008 -1.9652 -0.1853
 6982TIP3   OH242504   3.305   0.102   1.762 -0.7402  0.1554 -0.2876
 6982TIP3    H142505   3.215   0.136   1.758 -0.3132  1.3751  0.2281
 6982TIP3    H242506   3.308   0.038   1.691 -1.8588  0.4873 -0.6703
 6983TIP3   OH242507   1.516   0.687   7.039  0.0037  0.4857 -0.2316
 6983TIP3    H142508   1.512   0.747   7.113  2.1611  1.8846 -1.1477
 6983TIP3    H242509   1.608   0.661   7.034 -0.7804 -2.7957 -0.0283
 6984TIP3   OH242510   3.215   5.142   0.198 -0.0825  0.3649 -0.4718
 6984TIP3    H142511   3.288   5.163   0.139  0.6014 -0.2247  0.1365
 6984TIP3    H242512   3.249   5.164   0.285  0.2174 -1.9860  0.0701
 6985TIP3   OH242513   6.138   3.025   0.192  0.8643 -0.1625 -0.0568
 6985TIP3    H142514   6.138   3.096   0.255  0.4771 -0.9821  0.8967
 6985TIP3    H242515   6.046   3.006   0.175  0.9596 -0.4391 -0.3001
 6986TIP3   OH242516   6.576   2.139   8.302 -0.2142 -0.3746  0.1050
 6986TIP3    H142517   6.592   2.157   8.395 -0.0124 -1.0518  0.2081
 6986TIP3    H242518   6.655   2.170   8.258 -0.8858  1.2679 -0.0264
 6987TIP3   OH242519   3.778   4.460   1.144 -0.3339 -0.5668  0.1560
 6987TIP3    H142520   3.693   4.425   1.169 -0.8136  0.3338 -0.1546
 6987TIP3    H242521   3.798   4.525   1.211  0.2488 -0.9666  0.3792
 6988TIP3   OH242522   3.573   2.112   7.828 -0.2037  0.5271  0.3153
 6988TIP3    H142523   3.630   2.187   7.812  0.6348 -0.2525 -0.4672
 6988TIP3    H242524   3.498   2.126   7.770 -0.6134  1.3151  1.0014
 6989TIP3   OH242525   6.248   1.964   0.731  0.3632 -0.0610  0.2046
 6989TIP3    H142526   6.326   1.914   0.707  0.2956 -0.0653 -0.0097
 6989TIP3    H242527   6.277   2.023   0.800  0.9856  1.1636 -1.0392
 6990TIP3   OH242528   0.677   3.712   8.393 -0.5192  0.6164 -0.0939
 6990TIP3    H142529   0.601   3.762   8.423 -2.2420 -1.6698 -0.3658
 6990TIP3    H242530   0.702   3.660   8.469  0.9287  1.4652  0.0386
 6991TIP3   OH242531   2.092   0.135   0.839 -0.4460  0.3186 -0.4710
 6991TIP3    H142532   2.095   0.039   0.838 -0.8030  0.3106 -0.6367
 6991TIP3    H242533   2.171   0.160   0.888 -0.5474 -0.0669 -0.0969
 6992TIP3   OH242534   5.503   1.183   7.194  0.2361 -0.0701 -0.0439
 6992TIP3    H142535   5.434   1.212   7.255 -0.3993 -2.0346  0.2327
 6992TIP3    H242536   5.459   1.179   7.109  0.5940  0.6833 -0.2806
 6993TIP3   OH242537   0.507   2.915   1.119 -0.5643 -0.0034  0.0083
 6993TIP3    H142538   0.599   2.889   1.114  0.4631  3.3461 -0.8279
 6993TIP3    H242539   0.501   2.971   1.196 -2.2060 -0.9424  0.6352
 6994TIP3   OH242540   1.310   2.169   0.747 -0.3088  0.2365  0.7661
 6994TIP3    H142541   1.216   2.185   0.738 -0.1955  1.5126  1.6478
 6994TIP3    H242542   1.318   2.112   0.824 -0.4821 -1.6602 -0.5543
 6995TIP3   OH242543   3.143   2.570   0.799  0.0581 -0.1092  0.3743
 6995TIP3    H142544   3.177   2.519   0.873 -0.7167  1.5410  1.9438
 6995TIP3    H242545   3.220   2.586   0.744  0.3260 -2.8715 -0.1900
 6996TIP3   OH242546   5.383   5.160   0.607  0.0252  0.1157  0.0368
 6996TIP3    H142547   5.447   5.171   0.536 -1.9720 -0.0111 -1.8895
 6996TIP3    H242548   5.367   5.065   0.610 -0.2078  0.1655  0.3739
 6997TIP3   OH242549   4.621   0.320   0.430  0.1211 -0.1686 -0.2475
 6997TIP3    H142550   4.663   0.386   0.485 -1.0626 -0.5128  1.1371
 6997TIP3    H242551   4.612   0.243   0.486 -1.5364 -0.3796 -0.7268
 6998TIP3   OH242552   5.865   1.654   8.576 -0.5299 -0.1160 -0.4822
 6998TIP3    H142553   5.787   1.638   8.629 -0.4469  3.2664  0.9089
 6998TIP3    H242554   5.938   1.623   8.630 -0.6237  1.0632  0.3500
 6999TIP3   OH242555   4.830   1.220   2.146 -0.4276  0.2022 -0.6498
 6999TIP3    H142556   4.759   1.282   2.160  0.0923  0.6854 -0.0755
 6999TIP3    H242557   4.900   1.251   2.204 -0.1017 -0.8248 -0.4775
 7000TIP3   OH242558   0.596   6.106   8.452  0.2115  0.0161  0.5434
 7000TIP3    H142559   0.671   6.089   8.394  0.5467 -0.1049  1.0046
 7000TIP3    H242560   0.634   6.148   8.529 -0.1437 -0.3732  0.9390
 7001TIP3   OH242561   2.162   0.729   1.606  0.6850 -0.4695  0.0238
 7001TIP3    H142562   2.219   0.768   1.540  0.7203  0.0260  0.3447
 7001TIP3    H242563   2.099   0.677   1.556  0.4513  0.2397 -0.4209
 7002TIP3   OH242564   1.820   2.357   1.391 -0.5198 -0.2498 -0.7809
 7002TIP3    H142565   1.808   2.264   1.371  3.4324 -0.9240 -0.7709
 7002TIP3    H242566   1.880   2.389   1.323  2.1245  0.9523  1.9027
 7003TIP3   OH242567   5.101   5.242   1.531  0.2609  0.7454 -0.2831
 7003TIP3    H142568   5.172   5.286   1.484  0.6162  0.3077 -0.1557
 7003TIP3    H242569   5.133   5.232   1.620 -0.3928  1.5229  0.0581
 7004TIP3   OH242570   4.460   6.052   2.361 -0.5821 -0.0393 -0.4984
 7004TIP3    H142571   4.377   6.074   2.404  0.0507  0.6240  0.4319
 7004TIP3    H242572   4.518   6.028   2.433 -0.1844 -1.3084 -1.2029
 7005TIP3   OH242573   3.599   0.609   8.015  0.1015  0.2930  0.1916
 7005TIP3    H142574   3.630   0.521   8.038 -0.3892 -0.0740 -0.5269
 7005TIP3    H242575   3.525   0.624   8.075 -0.1186  0.0158 -0.0068
 7006TIP3   OH242576   4.405   5.524   8.207 -0.0516  0.0076 -0.3421
 7006TIP3    H142577   4.318   5.536   8.244 -0.4880 -1.7402 -0.6713
 7006TIP3    H242578   4.425   5.607   8.163 -1.1662  0.7318  0.4852
 7007TIP3   OH242579   4.957   0.221   7.849 -0.4686 -0.0719 -0.2385
 7007TIP3    H142580   5.047   0.242   7.824 -0.7886  0.2420 -1.1527
 7007TIP3    H242581   4.941   0.135   7.810 -0.2233 -0.6238  0.8282
 7008TIP3   OH242582   6.611   4.728   8.077 -0.4880 -0.4640  0.0710
 7008TIP3    H142583   6.674   4.703   8.145 -2.7973 -0.8443  2.2340
 7008TIP3    H242584   6.616   4.659   8.012  1.6773 -0.1821 -0.1328
 7009TIP3   OH242585   1.758   4.782   1.563 -0.0691  0.0134 -0.5645
 7009TIP3    H142586   1.682   4.796   1.619 -0.4163  1.8422 -1.4382
 7009TIP3    H242587   1.803   4.866   1.562  1.7384 -0.8986 -0.4430
 7010TIP3   OH242588   3.333   2.795   8.666  0.2884 -0.0625  0.3984
 7010TIP3    H142589   3.387   2.801   8.587  0.7551  0.7272  0.7620
 7010TIP3    H242590   3.276   2.720   8.651  0.2703  0.1655 -0.7485
 7011TIP3   OH242591   6.603   3.268   1.610  0.0703 -0.0976 -0.1071
 7011TIP3    H142592   6.658   3.317   1.671  1.8177 -0.9917 -0.8966
 7011TIP3    H242593   6.625   3.176   1.626 -3.5795 -0.8385  1.7745
 7012TIP3   OH242594   3.480   4.525   1.163  0.1333 -0.2003  0.0260
 7012TIP3    H142595   3.470   4.606   1.212  0.2487  2.2250 -3.6069
 7012TIP3    H242596   3.393   4.484   1.167 -0.5833  1.2535  0.0838
 7013TIP3   OH242597   0.890   1.424   0.114 -0.1673 -0.4818  0.6105
 7013TIP3    H142598   0.857   1.368   0.044 -2.2898 -0.5045  1.5649
 7013TIP3    H242599   0.966   1.468   0.076 -0.3119 -1.6850 -1.1634
 7014TIP3   OH242600   6.142   0.543   7.735 -0.2011  0.0876  0.6484
 7014TIP3    H142601   6.196   0.557   7.813 -1.4090 -1.8252  1.9176
 7014TIP3    H242602   6.059   0.509   7.769 -0.8790 -0.5129 -1.4601
 7015TIP3   OH242603   3.004   2.800   7.068 -0.2402 -0.0971  0.2703
 7015TIP3    H142604   2.933   2.812   7.005 -0.1116 -0.0238  0.1384
 7015TIP3    H242605   2.961   2.793   7.153 -0.2465  2.8709  0.5904
 7016TIP3   OH242606   6.587   5.089   1.820  0.0693 -0.1894  0.3758
 7016TIP3    H142607   6.582   5.051   1.907 -1.0337  1.0856  0.8929
 7016TIP3    H242608   6.651   5.160   1.827 -0.1611  0.0387  0.1944
 7017TIP3   OH242609   1.575   0.787   8.319 -0.7536  0.3514 -0.3584
 7017TIP3    H142610   1.602   0.877   8.336  1.8764 -0.3085 -0.6871
 7017TIP3    H242611   1.537   0.757   8.401  0.6835  0.9970  0.5830
 7018TIP3   OH242612   5.982   4.341   1.365 -0.0145 -0.2727  0.7262
 7018TIP3    H142613   5.955   4.361   1.276  1.3349 -0.1005  0.3360
 7018TIP3    H242614   5.989   4.246   1.369  1.2357 -0.2141  0.2332
 7019TIP3   OH242615   2.194   1.041   0.224  0.1025 -0.2187  0.4605
 7019TIP3    H142616   2.154   0.990   0.153 -0.4078  1.4503 -0.5073
 7019TIP3    H242617   2.256   1.099   0.179  2.6253 -1.7142  1.7865
 7020TIP3   OH242618   5.062   4.444   6.913 -0.3541  0.1126  0.5072
 7020TIP3    H142619   5.148   4.485   6.904  1.2477 -2.7264  1.6673
 7020TIP3    H242620   5.051   4.433   7.007 -1.6588 -0.2436  0.3264
 7021TIP3   OH242621   2.714   6.664   1.785 -0.1505 -0.0420  0.1472
 7021TIP3    H142622   2.627   6.697   1.763  0.2746  0.6721 -0.5153
 7021TIP3    H242623   2.764   6.742   1.807  0.2759 -0.4673  0.7007
 7022TIP3   OH242624   2.346   5.835   0.176  0.0927 -0.7151 -0.1104
 7022TIP3    H142625   2.426   5.822   0.125  0.7326 -0.5099  0.8197
 7022TIP3    H242626   2.333   5.752   0.222 -0.3057 -0.7917 -0.3587
 7023TIP3   OH242627   4.638   2.368   1.635 -0.1744  0.1426  0.0543
 7023TIP3    H142628   4.696   2.304   1.595 -1.3111 -2.0141  1.6266
 7023TIP3    H242629   4.635   2.441   1.573  4.8665  0.8973  0.2741
 7024TIP3   OH242630   0.832   5.558   7.067  0.3571 -0.0596 -0.0055
 7024TIP3    H142631   0.742   5.528   7.077  0.5877 -1.5533 -1.8301
 7024TIP3    H242632   0.840   5.583   6.975  1.3190  1.9497  0.5428
 7025TIP3   OH242633   5.069   4.240   2.408  0.3217 -0.2566  0.0339
 7025TIP3    H142634   5.135   4.172   2.393  1.2142  0.7707 -0.9142
 7025TIP3    H242635   5.047   4.272   2.321 -1.4876 -0.5869  0.3279
 7026TIP3   OH242636   6.739   3.717   1.148  0.1323  0.2570  0.1947
 7026TIP3    H142637   6.762   3.807   1.170 -1.0271  0.7814 -0.6457
 7026TIP3    H242638   6.712   3.678   1.231 -1.0245  1.2175  0.2934
 7027TIP3   OH242639   2.190   0.311   0.596  0.1005 -0.3091 -0.0126
 7027TIP3    H142640   2.138   0.372   0.649 -1.2698 -0.0448 -1.5543
 7027TIP3    H242641   2.186   0.228   0.644 -2.5529 -0.5308 -0.4514
 7028TIP3   OH242642   2.414   2.295   7.878 -0.3530 -0.1684 -0.7861
 7028TIP3    H142643   2.496   2.250   7.895 -1.3691 -1.4843  0.9886
 7028TIP3    H242644   2.362   2.282   7.958 -2.8196 -0.6374 -2.3458
 7029TIP3   OH242645   3.458   3.209   8.008 -0.5193  0.4921 -0.8516
 7029TIP3    H142646   3.542   3.188   8.049  0.5269  1.6828 -2.2623
 7029TIP3    H242647   3.434   3.294   8.044 -1.7034 -0.3385  0.3705
 7030TIP3   OH242648   3.408   3.730   8.562  0.0594  0.3014  0.2408
 7030TIP3    H142649   3.345   3.800   8.542 -1.9925 -1.4180  0.3656
 7030TIP3    H242650   3.381   3.657   8.507  0.4014 -1.3008  2.1174
 7031TIP3   OH242651   3.175   2.851   0.471 -0.3401  0.2072  0.1165
 7031TIP3    H142652   3.100   2.792   0.479 -0.9993  1.0766  0.6662
 7031TIP3    H242653   3.212   2.832   0.385 -1.0497 -0.4156 -0.0609
 7032TIP3   OH242654   1.385   1.946   7.653  0.0846 -1.0601 -0.1072
 7032TIP3    H142655   1.453   1.878   7.654  1.5057  0.2702 -1.1206
 7032TIP3    H242656   1.424   2.021   7.698 -0.3647  0.0018 -1.3947
 7033TIP3   OH242657   6.504   0.046   7.234  0.1534  0.1762  0.2304
 7033TIP3    H142658   6.480   0.051   7.326  1.4282  0.6864  0.5691
 7033TIP3    H242659   6.449   0.112   7.191 -1.2501 -0.8474  0.4158
 7034TIP3   OH242660   5.948   3.043   0.588  0.3988  0.5268 -0.0432
 7034TIP3    H142661   6.022   2.996   0.626  0.2462  0.8368  0.6600
 7034TIP3    H242662   5.924   2.992   0.511  0.2898 -0.5004  0.6465
 7035TIP3   OH242663   3.835   1.049   0.358 -0.4660 -0.1064  0.3499
 7035TIP3    H142664   3.881   1.102   0.423  0.2362 -1.5286  1.0608
 7035TIP3    H242665   3.825   0.963   0.400 -3.3814 -0.0054  0.0524
 7036TIP3   OH242666   5.115   5.030   0.216  0.2175 -0.1507 -0.4907
 7036TIP3    H142667   5.084   5.100   0.274 -0.6181  0.1520 -1.2760
 7036TIP3    H242668   5.037   5.002   0.168  1.0139  0.1118 -1.9937
 7037TIP3   OH242669   5.775   6.721   8.292 -0.5211  0.1162  0.0146
 7037TIP3    H142670   5.809   6.752   8.208  2.8999 -0.2751  1.1098
 7037TIP3    H242671   5.719   6.647   8.269  2.8612 -2.1144 -1.9116
 7038TIP3   OH242672   1.340   0.214   7.935  0.3815  0.4197 -0.1580
 7038TIP3    H142673   1.288   0.272   7.880  0.2239 -0.4488 -0.9504
 7038TIP3    H242674   1.397   0.167   7.874 -0.0501 -0.8176  0.3411
 7039TIP3   OH242675   4.720   1.634   2.217 -0.2686 -0.3996  0.0058
 7039TIP3    H142676   4.686   1.714   2.178 -1.5965 -1.4208 -1.0217
 7039TIP3    H242677   4.643   1.588   2.250  0.0742 -2.4928 -1.8468
 7040TIP3   OH242678   1.772   0.839   6.999  0.2966  0.3256 -0.0914
 7040TIP3    H142679   1.684   0.867   7.026  0.4681 -0.7243  1.6857
 7040TIP3    H242680   1.766   0.743   6.995  0.9677  0.3176 -1.5037
 7041TIP3   OH242681   1.990   4.468   1.090  0.0629 -0.7878  0.2469
 7041TIP3    H142682   2.082   4.446   1.104  0.1172 -0.4587  0.4170
 7041TIP3    H242683   1.992   4.530   1.017  0.2727  1.6360  2.2125
 7042TIP3   OH242684   4.452   2.822   0.480  0.1184  0.4901  0.1888
 7042TIP3    H142685   4.438   2.759   0.410  0.9158  0.9332 -0.3990
 7042TIP3    H242686   4.445   2.772   0.561  1.7256 -0.5637 -0.2921
 7043TIP3   OH242687   6.172   5.920   1.208  0.3642  0.1274 -0.7210
 7043TIP3    H142688   6.142   5.973   1.283 -0.3930  1.0209 -1.6169
 7043TIP3    H242689   6.224   5.850   1.247 -1.7306 -0.6763  0.8359
 7044TIP3   OH242690   0.229   1.609   8.612 -0.2268  0.5045  0.3023
 7044TIP3    H142691   0.269   1.590   8.527 -0.8492  1.2837 -0.1788
 7044TIP3    H242692   0.135   1.597   8.598 -0.6398  3.3525  0.0722
 7045TIP3   OH242693   1.904   3.779   0.182 -0.3061 -0.0691  0.9309
 7045TIP3    H142694   1.886   3.864   0.222 -2.5165  0.0852 -0.2300
 7045TIP3    H242695   1.974   3.741   0.236 -0.0269  2.0078  2.1230
 7046TIP3   OH242696   1.478   5.217   8.443  0.1582  0.4469 -0.0311
 7046TIP3    H142697   1.566   5.252   8.457  0.0843  0.2825  0.9259
 7046TIP3    H242698   1.461   5.232   8.350  2.7046 -2.9674 -1.2235
 7047TIP3   OH242699   4.626   5.011   0.531  0.6290 -0.3548  0.3529
 7047TIP3    H142700   4.591   5.068   0.463 -0.6195 -1.6447 -0.1630
 7047TIP3    H242701   4.702   4.969   0.491  0.8630  0.0808  0.3355
 7048TIP3   OH242702   3.655   5.698   7.679  0.1094  0.0862  0.0279
 7048TIP3    H142703   3.693   5.766   7.735  1.3796 -0.0038 -0.6888
 7048TIP3    H242704   3.696   5.712   7.593 -1.5756  0.0313 -0.8241
 7049TIP3   OH242705   2.058   4.360   2.007 -0.2476  0.3921 -0.4270
 7049TIP3    H142706   2.092   4.444   1.976 -1.8178  1.1199 -0.2941
 7049TIP3    H242707   2.135   4.304   2.013  0.6451  1.3649 -1.9702
 7050TIP3   OH242708   2.708   2.667   1.147  0.3523  0.1054  0.0919
 7050TIP3    H142709   2.691   2.726   1.220 -0.1655  0.1829 -0.0904
 7050TIP3    H242710   2.659   2.704   1.073 -0.9864 -1.2050  0.2780
 7051TIP3   OH242711   0.595   5.148   8.151  0.8771 -0.2058  0.2820
 7051TIP3    H142712   0.600   5.139   8.056 -1.2097 -0.5140  0.1436
 7051TIP3    H242713   0.600   5.242   8.167  1.6651 -0.1802 -0.0858
 7052TIP3   OH242714   6.383   6.407   2.223  0.1599  0.1548 -0.1843
 7052TIP3    H142715   6.301   6.369   2.193  0.8415 -0.6814 -1.0628
 7052TIP3    H242716   6.373   6.415   2.318 -0.6346 -0.6500 -0.1893
 7053TIP3   OH242717   2.925   3.993   7.567  0.3332 -0.0019  0.2709
 7053TIP3    H142718   2.993   3.992   7.500 -0.2114  1.8735 -0.3712
 7053TIP3    H242719   2.853   3.942   7.530  0.1800  0.7069 -0.4370
 7054TIP3   OH242720   6.771   1.706   7.988 -0.1682 -0.2239  0.1707
 7054TIP3    H142721   6.806   1.784   8.030 -1.4516  0.6734 -0.3585
 7054TIP3    H242722   6.685   1.733   7.955 -2.0386 -2.6199  2.5373
 7055TIP3   OH242723   5.041   4.032   7.920 -0.2151 -0.7343 -0.0936
 7055TIP3    H142724   5.044   4.013   7.826 -0.8305  0.1480 -0.3012
 7055TIP3    H242725   4.975   3.972   7.955 -0.7344 -0.3575 -0.4097
 7056TIP3   OH242726   3.433   5.089   7.599  0.1505  0.2613 -0.2559
 7056TIP3    H142727   3.414   5.079   7.692  1.8150  1.5307  0.2608
 7056TIP3    H242728   3.485   5.011   7.577  0.5875  0.4312  0.1428
 7057TIP3   OH242729   2.938   5.817   8.063 -0.3999  0.3402  0.2443
 7057TIP3    H142730   3.014   5.855   8.018  1.5470 -1.8627  1.4311
 7057TIP3    H242731   2.882   5.785   7.993  2.7132 -3.3757 -0.9111
 7058TIP3   OH242732   3.785   2.607   7.627 -0.0200  0.4435 -0.4557
 7058TIP3    H142733   3.851   2.675   7.615 -0.8609  1.6484  1.2717
 7058TIP3    H242734   3.835   2.528   7.647  0.9836  0.4660 -2.6096
 7059TIP3   OH242735   2.902   3.818   8.245  0.3709  0.2215 -0.2072
 7059TIP3    H142736   2.948   3.819   8.161  0.5705  1.7283 -0.1091
 7059TIP3    H242737   2.915   3.906   8.281 -3.2835  1.0747 -0.5764
 7060TIP3   OH242738   1.797   4.311   1.877  0.5234  0.5462 -0.4698
 7060TIP3    H142739   1.885   4.349   1.877  0.2727  1.1322 -0.6392
 7060TIP3    H242740   1.739   4.384   1.898  0.0653  0.1776 -0.4263
 7061TIP3   OH242741   0.604   5.216   8.745 -0.8320  0.1865  0.2354
 7061TIP3    H142742   0.693   5.206   8.710 -0.7140  0.3730  0.4819
 7061TIP3    H242743   0.609   5.180   8.834 -0.9886  0.2546  0.2721
 7062TIP3   OH242744   3.715   5.164   8.796 -0.1026  0.1862 -0.2280
 7062TIP3    H142745   3.768   5.153   8.875 -0.4713 -0.9588 -0.1166
 7062TIP3    H242746   3.675   5.078   8.783 -1.9379  1.0191 -0.3049
 7063TIP3   OH242747   3.776   4.371   1.986  0.1721  0.2713  0.1199
 7063TIP3    H142748   3.681   4.357   1.983 -0.0089  0.6912  2.5310
 7063TIP3    H242749   3.814   4.286   1.964 -0.7613 -0.1427  0.0710
 7064TIP3   OH242750   1.568   2.121   7.787  0.0262 -0.5145 -0.0347
 7064TIP3    H142751   1.610   2.096   7.869 -0.9718 -0.7838  0.4084
 7064TIP3    H242752   1.638   2.162   7.736  0.3410  0.9449  1.4895
 7065TIP3   OH242753   5.114   5.027   1.955  0.2060 -0.3587 -0.3984
 7065TIP3    H142754   5.020   5.030   1.940  0.4098  0.7015 -1.6849
 7065TIP3    H242755   5.128   5.079   2.034 -0.3908 -1.6208  0.5695
 7066TIP3   OH242756   2.330   0.257   8.104  0.1111 -0.2555  0.8275
 7066TIP3    H142757   2.239   0.287   8.107 -0.7588 -2.3284 -1.1322
 7066TIP3    H242758   2.366   0.299   8.026  0.3969 -0.4961  0.8288
 7067TIP3   OH242759   4.570   1.967   1.530 -0.1973 -0.1821 -0.6169
 7067TIP3    H142760   4.588   1.882   1.570  1.8069 -0.0269 -1.1162
 7067TIP3    H242761   4.630   2.027   1.572  0.8063  0.3092 -2.6131
 7068TIP3   OH242762   5.239   0.647   8.221 -0.7257 -0.9571 -0.3771
 7068TIP3    H142763   5.282   0.577   8.269 -0.5668 -0.4539  0.2338
 7068TIP3    H242764   5.147   0.621   8.217 -1.1542 -0.0843  2.0064
 7069TIP3   OH242765   3.079   5.985   1.877 -0.1436 -0.1910 -0.5362
 7069TIP3    H142766   3.126   6.061   1.841  1.8140 -1.0293  0.1051
 7069TIP3    H242767   3.061   6.009   1.968  0.7081 -0.5688 -0.2584
 7070TIP3   OH242768   5.547   3.740   0.435  0.5664 -0.2218  0.1360
 7070TIP3    H142769   5.632   3.784   0.432  0.8288 -0.7831 -0.7662
 7070TIP3    H242770   5.546   3.684   0.358 -0.4829 -0.4881  0.3350
 7071TIP3   OH242771   4.622   0.280   6.442  0.1680  0.0908  0.3226
 7071TIP3    H142772   4.685   0.269   6.371  1.9985  0.2837  1.8349
 7071TIP3    H242773   4.540   0.243   6.407  1.4457 -1.4658 -1.2386
 7072TIP3   OH242774   3.763   0.540   1.089 -0.2870  0.4556  0.4578
 7072TIP3    H142775   3.792   0.527   1.179 -0.9729  0.3622  0.6712
 7072TIP3    H242776   3.843   0.538   1.037 -0.0420 -1.5046  0.8408
 7073LIG     C142777   2.481   1.642   4.105 -0.1475  0.4768 -0.2263
 7073LIG     C242778   2.623   1.672   4.044  1.0319  0.7424 -0.1868
 7073LIG     C342779   2.617   1.690   3.893  0.1342  0.4801  0.4619
 7073LIG      O42780   2.708   1.566   4.082  0.6219  0.1673 -0.0245
 7073LIG     H142781   2.469   1.685   4.207  0.1028  0.6048 -0.2502
 7073LIG     H242782   2.467   1.532   4.105 -0.6873  0.5218 -1.8280
 7073LIG     H342783   2.412   1.685   4.029  0.3079  1.8158  0.0986
 7073LIG     H442784   2.656   1.772   4.079  1.3357  0.8886 -0.8696
 7073LIG     H542785   2.718   1.724   3.863 -0.3182  2.7857  1.3652
 7073LIG     H642786   2.535   1.754   3.852 -0.6490  0.0332  1.2924
 7073LIG     H742787   2.606   1.588   3.849 -1.6736  0.7561  0.1745
 7073LIG     H842788   2.799   1.597   4.087  0.3386  0.8752  2.7515
   6.78511   6.78511   8.87623
