Title
42785
    1SAPS     N    1   3.548   3.729   7.350  0.2361  0.7440 -0.1305
    1SAPS   HN1    2   3.473   3.718   7.279 -0.9837  0.0371  1.2348
    1SAPS   HN2    3   3.595   3.639   7.371  0.3060  1.2952  2.3145
    1SAPS   HN3    4   3.508   3.755   7.442  1.0470  0.5843  0.2731
    1SAPS   C12    5   3.633   3.843   7.299  0.4052  0.2031  0.2150
    1SAPS  H12A    6   3.570   3.931   7.298  0.2058  0.0588  0.1451
    1SAPS   C13    7   3.748   3.873   7.389 -0.4132  0.4185 -0.6505
    1SAPS  O13A    8   3.764   3.815   7.495  0.3163  0.1771  0.0084
    1SAPS  O13B    9   3.828   3.967   7.357 -0.3712  0.0861  0.4411
    1SAPS   C11   10   3.683   3.804   7.159  0.3630 -0.7965 -0.5225
    1SAPS  H11A   11   3.756   3.720   7.165  1.4823 -0.1578 -3.4490
    1SAPS  H11B   12   3.741   3.890   7.121 -0.1748 -1.8442 -4.0993
    1SAPS     P   13   3.598   3.681   6.949 -0.0328  0.2287  0.0910
    1SAPS   O13   14   3.634   3.541   6.987  0.4163  0.1364  0.6250
    1SAPS   O14   15   3.478   3.692   6.870  0.5307 -0.1656  0.5890
    1SAPS   O12   16   3.580   3.762   7.071  0.2658 -0.2163 -0.1773
    1SAPS   O11   17   3.714   3.745   6.870 -0.4814  0.0816 -0.7174
    1SAPS    C1   18   3.721   3.882   6.829  0.4023 -0.2093 -0.2909
    1SAPS    HA   19   3.652   3.953   6.879  1.4093 -0.0873  0.9823
    1SAPS    HB   20   3.826   3.918   6.840 -0.4225  2.2694  0.1338
    1SAPS    C2   21   3.702   3.891   6.676  0.7325  0.2983  0.0540
    1SAPS    HS   22   3.598   3.864   6.650  0.0082  2.6339  0.3021
    1SAPS   O21   23   3.800   3.806   6.616  0.2062  0.1325 -0.1716
    1SAPS   C21   24   3.752   3.730   6.511  0.0601 -0.2290 -0.4455
    1SAPS   O22   25   3.634   3.723   6.482 -0.4479  0.2549 -0.6280
    1SAPS   C22   26   3.869   3.659   6.434  0.6174 -0.2697 -0.5279
    1SAPS   H2R   27   3.925   3.732   6.372  2.1146 -0.1061  0.9418
    1SAPS   H2S   28   3.937   3.630   6.517  0.4822  1.0388  0.0647
    1SAPS    C3   29   3.724   4.039   6.628  0.1551  0.1701 -0.2006
    1SAPS    HX   30   3.821   4.069   6.673 -0.8626  2.7773  0.4689
    1SAPS    HY   31   3.644   4.101   6.674 -0.3787  0.1694 -1.1095
    1SAPS   O31   32   3.713   4.060   6.482 -0.2147  0.7143 -0.6472
    1SAPS   C31   33   3.590   4.062   6.432 -0.4216 -0.0430 -0.4217
    1SAPS   O32   34   3.488   4.080   6.499  0.7771  0.1117 -0.7575
    1SAPS   C32   35   3.606   4.044   6.281 -0.2790 -0.2253  0.2008
    1SAPS   H2X   36   3.694   3.977   6.266 -0.8796 -0.8232 -0.7847
    1SAPS   H2Y   37   3.630   4.142   6.234 -0.7644  1.3021  2.9130
    1SAPS   C23   38   3.840   3.526   6.362  0.0802  0.5542 -0.2633
    1SAPS   H3R   39   3.751   3.468   6.395 -0.8417  2.9730  1.8301
    1SAPS   H3S   40   3.927   3.457   6.360 -0.0670  0.2422  1.7312
    1SAPS   C24   41   3.822   3.552   6.212 -0.6133  0.0280  0.1390
    1SAPS   H4R   42   3.845   3.460   6.153  2.3983  0.1999  0.8581
    1SAPS   H4S   43   3.903   3.624   6.187 -0.4491 -0.7372 -1.6679
    1SAPS   C25   44   3.688   3.606   6.178 -0.0524  0.2114  0.4179
    1SAPS   H5R   45   3.625   3.628   6.265  0.5807  1.3532  0.6070
    1SAPS   C26   46   3.658   3.650   6.057  0.4221 -0.0080  0.0578
    1SAPS   H6R   47   3.559   3.692   6.034 -1.6318 -2.5002  3.3541
    1SAPS   C27   48   3.751   3.648   5.936  0.0083  0.8152  0.2066
    1SAPS   H7R   49   3.732   3.560   5.871 -1.7221  2.5717 -1.8023
    1SAPS   H7S   50   3.858   3.652   5.966  0.5389 -0.3986 -1.4253
    1SAPS   C28   51   3.739   3.763   5.835 -0.0645  0.0028 -0.8471
    1SAPS   H8R   52   3.767   3.856   5.886  1.1718 -1.6187  1.6368
    1SAPS   C29   53   3.722   3.761   5.705  0.3251 -0.4429 -0.1343
    1SAPS   H9R   54   3.716   3.855   5.648 -0.7118 -0.7823 -0.6162
    1SAPS  C210   55   3.676   3.644   5.625  0.1012 -0.0792  0.0194
    1SAPS  H10R   56   3.622   3.679   5.535  0.8127 -1.7957 -1.1232
    1SAPS  H10S   57   3.601   3.593   5.689 -0.2573  0.9148  0.4104
    1SAPS  C211   58   3.771   3.535   5.580  0.4580  0.0791  0.2970
    1SAPS  H11R   59   3.864   3.536   5.639 -0.5107 -0.1183  1.9068
    1SAPS  C212   60   3.753   3.459   5.474  0.5315  0.1650  0.4724
    1SAPS  H12R   61   3.821   3.377   5.450 -1.8860 -1.5539 -1.0298
    1SAPS  C213   62   3.638   3.462   5.378  0.6078  0.2240 -0.4991
    1SAPS  H13R   63   3.647   3.563   5.334 -1.5752  1.2654  1.2923
    1SAPS  H13S   64   3.538   3.460   5.424  0.5142  3.8135 -0.3096
    1SAPS  C214   65   3.647   3.345   5.279 -0.2005  0.5806  0.6793
    1SAPS  H14R   66   3.622   3.249   5.326  0.9103  0.6902  1.5351
    1SAPS  C215   67   3.682   3.357   5.148 -0.1345 -0.4817  1.0563
    1SAPS  H15R   68   3.678   3.262   5.092  0.5508  0.2555 -0.2998
    1SAPS  C216   69   3.726   3.486   5.070  1.1186 -0.2354  0.3746
    1SAPS  H16R   70   3.799   3.453   4.993  0.9818  0.0890  0.1019
    1SAPS  H16S   71   3.772   3.567   5.130  0.2981  0.3597  0.2236
    1SAPS  C217   72   3.596   3.548   5.002  0.5355 -0.7868 -0.0351
    1SAPS  H17R   73   3.632   3.630   4.936  1.8450  0.0365  1.6491
    1SAPS  H17S   74   3.543   3.602   5.083  0.7805 -1.3529  0.5093
    1SAPS  C218   75   3.496   3.463   4.932  0.0350  1.0300  0.6921
    1SAPS  H18R   76   3.420   3.515   4.870 -0.9566 -0.3434  0.7262
    1SAPS  H18S   77   3.454   3.388   5.001  0.2193  0.2865  0.0082
    1SAPS  C219   78   3.570   3.371   4.821  0.1377  0.1012  0.7566
    1SAPS  H19R   79   3.647   3.300   4.857  0.7604 -0.2077 -1.1276
    1SAPS  H19S   80   3.622   3.447   4.760 -1.3670  2.0836  1.8085
    1SAPS  C220   81   3.468   3.289   4.739  0.0008 -0.2738 -0.5082
    1SAPS  H20R   82   3.428   3.213   4.810 -0.0119  1.7335  1.7581
    1SAPS  H20S   83   3.516   3.236   4.654  0.7058 -0.1573 -0.1908
    1SAPS  H20T   84   3.391   3.351   4.689  0.0839 -0.2922 -0.6613
    1SAPS   C33   85   3.483   3.980   6.225 -0.1431  0.1443  0.0126
    1SAPS   H3X   86   3.389   4.001   6.281 -0.0897 -2.3039  1.1262
    1SAPS   H3Y   87   3.481   3.871   6.207 -2.3746  0.3780 -1.6226
    1SAPS   C34   88   3.461   4.041   6.089 -0.1922  0.1973 -0.0702
    1SAPS   H4X   89   3.544   4.008   6.023 -1.8873 -0.3491 -2.0523
    1SAPS   H4Y   90   3.456   4.152   6.083  2.3837  0.4006  0.4956
    1SAPS   C35   91   3.330   3.989   6.020 -0.4298 -0.4969 -0.1035
    1SAPS   H5X   92   3.238   3.988   6.081 -0.1075 -1.1716  0.3782
    1SAPS   H5Y   93   3.349   3.880   6.006  2.9520 -0.1156  0.6064
    1SAPS   C36   94   3.298   4.048   5.886  0.6400 -0.0864 -0.3910
    1SAPS   H6X   95   3.289   4.158   5.877 -1.9780 -0.2062  0.0739
    1SAPS   H6Y   96   3.200   4.009   5.850 -0.3146  0.7632  1.1851
    1SAPS   C37   97   3.392   4.009   5.772  0.5237 -0.4001  0.6789
    1SAPS   H7X   98   3.434   3.909   5.792  1.5919 -0.3244 -0.9708
    1SAPS   H7Y   99   3.477   4.080   5.765  0.4221 -0.3256  0.1166
    1SAPS   C38  100   3.319   4.002   5.633 -0.2178  0.3357 -0.3255
    1SAPS   H8X  101   3.285   4.104   5.607 -2.6016 -0.3182 -0.0069
    1SAPS   H8Y  102   3.229   3.938   5.644 -0.7610  1.1652  0.0872
    1SAPS   C39  103   3.401   3.945   5.514  0.0099  0.3071 -0.0596
    1SAPS   H9X  104   3.330   3.954   5.429 -1.7199  1.8362  1.4429
    1SAPS   H9Y  105   3.417   3.836   5.521 -0.2643  0.0109 -3.0430
    1SAPS  C310  106   3.530   4.016   5.496 -0.8111  0.0251 -0.0869
    1SAPS  H10X  107   3.592   4.015   5.588  1.1488  2.7027 -1.2512
    1SAPS  H10Y  108   3.518   4.125   5.479  2.8112  0.9512  2.1780
    1SAPS  C311  109   3.610   3.961   5.379 -0.1669  0.2354 -0.4640
    1SAPS  H11X  110   3.668   3.869   5.403 -1.5458 -0.1790  1.6290
    1SAPS  H11Y  111   3.688   4.037   5.360 -1.4828  1.7988  0.1981
    1SAPS  C312  112   3.529   3.936   5.252 -0.7718 -0.2669  0.1924
    1SAPS  H12X  113   3.465   3.848   5.267 -1.4613 -0.3715 -2.7485
    1SAPS  H12Y  114   3.601   3.899   5.175 -0.8757  1.6341 -0.8870
    1SAPS  C313  115   3.468   4.065   5.197 -0.4531  0.7381  0.9029
    1SAPS  H13X  116   3.550   4.135   5.170  2.6100 -2.6617  0.6284
    1SAPS  H13Y  117   3.411   4.112   5.280  0.2943 -0.6941  2.2760
    1SAPS  C314  118   3.377   4.047   5.078  0.0612  0.2019  0.5183
    1SAPS  H14X  119   3.333   4.144   5.047  0.6871  0.1125 -0.7390
    1SAPS  H14Y  120   3.298   3.973   5.106  0.3521  0.0991  1.0889
    1SAPS  C315  121   3.441   3.978   4.961  0.0614 -0.8378 -0.1178
    1SAPS  H15X  122   3.478   3.876   4.986  4.4652  0.7944  1.0625
    1SAPS  H15Y  123   3.531   4.039   4.937 -0.1461 -0.3616  0.2994
    1SAPS  C316  124   3.343   3.973   4.840  0.4158 -0.1478  0.6518
    1SAPS  H16X  125   3.314   4.079   4.823  0.7547 -0.3272 -1.2658
    1SAPS  H16Y  126   3.256   3.907   4.859  0.5383  0.0503  2.0446
    1SAPS  C317  127   3.425   3.925   4.716 -0.8945 -0.1335 -0.1975
    1SAPS  H17X  128   3.518   3.986   4.717 -0.6877 -0.4498  1.0071
    1SAPS  H17Y  129   3.363   3.943   4.626 -0.9912 -2.8008 -0.7590
    1SAPS  C318  130   3.471   3.781   4.712  0.0545 -0.9850 -0.1942
    1SAPS  H18X  131   3.554   3.757   4.781 -0.4226  0.1301  0.8022
    1SAPS  H18Y  132   3.508   3.758   4.610  0.4308 -0.3017 -0.2161
    1SAPS  H18Z  133   3.388   3.711   4.735 -0.8272 -0.6716 -2.1848
    2SAPS     N  134   4.372   5.943   6.698  0.4441 -0.8753  0.3146
    2SAPS   HN1  135   4.339   5.848   6.724 -1.3256 -1.0755 -2.3056
    2SAPS   HN2  136   4.335   5.967   6.604 -2.0870  1.6311  1.7878
    2SAPS   HN3  137   4.476   5.951   6.699  0.3131  1.6937  1.4104
    2SAPS   C12  138   4.315   6.039   6.799 -0.3364 -0.2258  0.1339
    2SAPS  H12A  139   4.209   6.017   6.803  0.0488 -2.2469  0.1253
    2SAPS   C13  140   4.391   6.032   6.937  0.1657 -0.2807 -0.2015
    2SAPS  O13A  141   4.501   5.969   6.955  0.1477 -0.6768 -0.4744
    2SAPS  O13B  142   4.340   6.114   7.024  0.4211 -0.0446  0.2156
    2SAPS   C11  143   4.327   6.179   6.744  0.3862  0.0914 -0.0823
    2SAPS  H11A  144   4.432   6.213   6.733  0.3014  0.1046 -0.9148
    2SAPS  H11B  145   4.292   6.247   6.825 -0.1817 -0.3903  0.0797
    2SAPS     P  146   4.121   6.284   6.633 -0.2819 -0.1050 -0.2267
    2SAPS   O13  147   4.032   6.223   6.733  0.5527  0.1755 -0.2163
    2SAPS   O14  148   4.168   6.427   6.646  0.2219 -0.0702  0.4149
    2SAPS   O12  149   4.253   6.199   6.626  0.5362 -0.3046 -0.2235
    2SAPS   O11  150   4.049   6.256   6.491 -0.1354 -0.3276  0.5932
    2SAPS    C1  151   4.035   6.131   6.426  0.2704 -0.1926  0.0690
    2SAPS    HA  152   4.071   6.045   6.487 -1.6394 -0.9411  0.2118
    2SAPS    HB  153   3.928   6.113   6.401  0.8609 -0.0620 -2.9310
    2SAPS    C2  154   4.117   6.117   6.296  0.2264 -0.5535  0.0722
    2SAPS    HS  155   4.125   6.009   6.270 -0.4128 -0.1646 -1.8567
    2SAPS   O21  156   4.252   6.173   6.319 -0.0995  0.2127  0.4118
    2SAPS   C21  157   4.329   6.086   6.381  0.0149  0.1941 -0.2188
    2SAPS   O22  158   4.296   5.977   6.423  0.1367  0.3697  0.2673
    2SAPS   C22  159   4.471   6.140   6.383 -0.1167  0.1352  0.3003
    2SAPS   H2R  160   4.470   6.245   6.346  0.0545 -0.0609 -0.2790
    2SAPS   H2S  161   4.502   6.132   6.489 -1.5611  0.5217  0.7690
    2SAPS    C3  162   4.051   6.185   6.171 -0.1093  0.2101 -0.1196
    2SAPS    HX  163   4.066   6.291   6.200  1.9454 -0.2207  0.5623
    2SAPS    HY  164   3.941   6.171   6.181 -0.3951  2.2079 -0.2131
    2SAPS   O31  165   4.107   6.157   6.039 -0.1850  0.9105 -0.0049
    2SAPS   C31  166   4.053   6.067   5.963 -0.1683  0.2080  0.1552
    2SAPS   O32  167   3.955   5.994   5.992  0.5550  0.3756  0.3163
    2SAPS   C32  168   4.127   6.070   5.829 -0.6186  0.1892 -0.6644
    2SAPS   H2X  169   4.235   6.067   5.856 -0.4947  0.0162 -1.1657
    2SAPS   H2Y  170   4.104   6.171   5.790 -1.5934  0.5858  0.8609
    2SAPS   C23  171   4.564   6.049   6.294 -0.1739 -0.4204  0.0245
    2SAPS   H3R  172   4.597   5.961   6.354 -0.3686  0.4281  1.4285
    2SAPS   H3S  173   4.655   6.112   6.295 -0.5826  0.2867  3.2369
    2SAPS   C24  174   4.509   6.009   6.157  0.5209  0.2981 -0.9439
    2SAPS   H4R  175   4.415   5.953   6.178  0.8509  0.3183  0.7663
    2SAPS   H4S  176   4.572   5.930   6.109 -0.9347 -0.9272 -0.9193
    2SAPS   C25  177   4.463   6.112   6.061 -0.2623 -0.0481 -0.3565
    2SAPS   H5R  178   4.371   6.162   6.094  0.0912  0.8548 -0.7047
    2SAPS   C26  179   4.526   6.129   5.940  0.2709 -0.5224 -0.5411
    2SAPS   H6R  180   4.481   6.202   5.871 -0.2432 -0.1902  0.1377
    2SAPS   C27  181   4.650   6.064   5.888  0.0053  1.0782 -0.1499
    2SAPS   H7R  182   4.623   5.969   5.838  0.5153 -1.0630  3.3187
    2SAPS   H7S  183   4.700   6.025   5.979 -2.0551 -0.2987  0.4557
    2SAPS   C28  184   4.750   6.142   5.807  0.3728  0.1375 -0.1612
    2SAPS   H8R  185   4.819   6.202   5.867 -1.6165  1.4539  0.9413
    2SAPS   C29  186   4.744   6.150   5.674  0.0483 -0.7137 -0.3623
    2SAPS   H9R  187   4.830   6.194   5.622 -0.2353 -0.9945 -1.0823
    2SAPS  C210  188   4.642   6.091   5.577 -0.3126  0.4809 -0.1458
    2SAPS  H10R  189   4.609   6.163   5.498  2.3788  1.6463 -0.3166
    2SAPS  H10S  190   4.548   6.082   5.636  0.4820  0.4121  1.1513
    2SAPS  C211  191   4.695   5.959   5.530  0.1565  0.4040 -0.1037
    2SAPS  H11R  192   4.710   5.893   5.616  1.1575  1.9108  0.9197
    2SAPS  C212  193   4.705   5.915   5.406  0.1989 -0.0980 -0.0616
    2SAPS  H12R  194   4.754   5.817   5.404 -0.1545 -0.2945  0.6579
    2SAPS  C213  195   4.663   5.989   5.282  0.3543 -0.3177  1.0152
    2SAPS  H13R  196   4.554   6.002   5.299  0.3940 -0.3005  1.2752
    2SAPS  H13S  197   4.673   5.910   5.205  0.0390  0.0664  0.5735
    2SAPS  C214  198   4.749   6.116   5.255 -0.5856  0.2540  0.0170
    2SAPS  H14R  199   4.748   6.180   5.345 -2.2238 -0.5913  0.6313
    2SAPS  C215  200   4.842   6.134   5.159  0.2795 -0.3435  0.5217
    2SAPS  H15R  201   4.896   6.229   5.150 -0.7865  0.2293 -0.1496
    2SAPS  C216  202   4.849   6.053   5.032 -0.3072 -0.0163  0.5582
    2SAPS  H16R  203   4.772   5.975   5.013  0.0440  0.2860 -2.7952
    2SAPS  H16S  204   4.948   6.004   5.022  0.4423  1.7157 -1.1831
    2SAPS  C217  205   4.822   6.147   4.911  0.3511 -0.3357  0.4149
    2SAPS  H17R  206   4.900   6.226   4.911 -0.6199  0.6609  1.7482
    2SAPS  H17S  207   4.724   6.199   4.912  0.3771 -0.2380 -0.7206
    2SAPS  C218  208   4.845   6.068   4.788  0.2858  0.4821  0.2852
    2SAPS  H18R  209   4.756   6.002   4.781  0.1439  0.8094 -1.7318
    2SAPS  H18S  210   4.937   6.006   4.786  1.0289  1.5452 -2.2694
    2SAPS  C219  211   4.858   6.160   4.668  0.2352 -0.4610  0.6836
    2SAPS  H19R  212   4.930   6.242   4.690  1.2996 -1.5528  1.3981
    2SAPS  H19S  213   4.763   6.215   4.655  0.4278 -0.1659  0.5116
    2SAPS  C220  214   4.905   6.094   4.537  0.2374  0.0406  0.4646
    2SAPS  H20R  215   4.835   6.009   4.519 -0.2594  0.9355 -2.2711
    2SAPS  H20S  216   5.012   6.065   4.539  0.3236  0.1752 -1.1037
    2SAPS  H20T  217   4.896   6.170   4.457  1.0641 -0.0389  0.2926
    2SAPS   C33  218   4.087   5.957   5.733 -0.0216  0.2698 -0.3201
    2SAPS   H3X  219   3.977   5.948   5.724 -0.3061  0.7020  2.1352
    2SAPS   H3Y  220   4.140   5.862   5.757  0.0376 -0.0028 -1.4396
    2SAPS   C34  221   4.140   6.003   5.595 -0.6586  0.8969 -0.2605
    2SAPS   H4X  222   4.234   6.060   5.608  1.1329 -1.6777 -1.0011
    2SAPS   H4Y  223   4.063   6.071   5.551 -2.6336 -0.8275  0.3183
    2SAPS   C35  224   4.157   5.878   5.499  0.0696 -0.4661 -0.2949
    2SAPS   H5X  225   4.051   5.858   5.475 -0.2760  1.9206 -1.0107
    2SAPS   H5Y  226   4.200   5.789   5.549  0.8463  0.3215  0.4817
    2SAPS   C36  227   4.241   5.924   5.377 -0.4386 -0.0027 -0.2943
    2SAPS   H6X  228   4.344   5.948   5.409 -0.3534 -0.8785  0.1163
    2SAPS   H6Y  229   4.197   6.016   5.333  0.0135 -0.2722 -1.3431
    2SAPS   C37  230   4.257   5.824   5.266 -0.1106  0.0832  0.1123
    2SAPS   H7X  231   4.177   5.747   5.269 -1.6185  1.4496 -2.0443
    2SAPS   H7Y  232   4.352   5.770   5.282  0.2286  0.5207 -0.3891
    2SAPS   C38  233   4.263   5.887   5.122 -0.9505 -0.2774 -0.4479
    2SAPS   H8X  234   4.171   5.945   5.098 -1.6707 -1.2491 -0.1127
    2SAPS   H8Y  235   4.271   5.797   5.057  0.9869 -1.0506  0.7513
    2SAPS   C39  236   4.375   5.989   5.091 -0.4738  0.2232 -0.4781
    2SAPS   H9X  237   4.468   5.927   5.087 -1.1578 -0.7776 -1.5123
    2SAPS   H9Y  238   4.380   6.073   5.163 -0.2147  1.7440 -2.2225
    2SAPS  C310  239   4.360   6.068   4.954  0.8631  0.2071 -0.3555
    2SAPS  H10X  240   4.443   6.141   4.946 -0.3892  1.7283 -0.0216
    2SAPS  H10Y  241   4.264   6.124   4.957 -0.2121 -1.5923  0.1503
    2SAPS  C311  242   4.368   5.970   4.842 -0.4889 -0.4217 -0.4877
    2SAPS  H11X  243   4.269   5.920   4.838 -0.4930 -0.5322  0.7918
    2SAPS  H11Y  244   4.442   5.890   4.864 -0.7475 -0.5876 -0.2190
    2SAPS  C312  245   4.408   6.032   4.709 -0.0601 -1.1553  0.3238
    2SAPS  H12X  246   4.506   6.085   4.715 -0.2719 -0.8798  1.4418
    2SAPS  H12Y  247   4.327   6.101   4.677 -0.5171 -1.5773  0.5654
    2SAPS  C313  248   4.425   5.932   4.599  0.0755  0.0755  0.1565
    2SAPS  H13X  249   4.330   5.874   4.593  1.2481 -1.7822 -1.5813
    2SAPS  H13Y  250   4.509   5.867   4.630 -0.0159 -1.2201 -2.0558
    2SAPS  C314  251   4.464   5.998   4.467  0.3999  0.0509 -0.0723
    2SAPS  H14X  252   4.531   5.935   4.406  1.7507 -0.4261  1.8287
    2SAPS  H14Y  253   4.513   6.095   4.488  1.3561  0.4523 -3.5601
    2SAPS  C315  254   4.340   6.022   4.380  0.1999 -0.3450 -0.3320
    2SAPS  H15X  255   4.266   6.087   4.432 -0.0490  0.3943 -1.5641
    2SAPS  H15Y  256   4.291   5.926   4.357 -0.8326 -0.3356  1.5982
    2SAPS  C316  257   4.382   6.109   4.256 -0.3963 -0.5497 -0.1531
    2SAPS  H16X  258   4.442   6.038   4.196  0.3920 -0.0639  0.0340
    2SAPS  H16Y  259   4.452   6.193   4.278 -0.9436 -0.2825  0.5938
    2SAPS  C317  260   4.253   6.161   4.180  0.0282  1.2544 -0.2039
    2SAPS  H17X  261   4.176   6.218   4.236  0.5952  1.0175  0.8365
    2SAPS  H17Y  262   4.202   6.067   4.150  2.6894 -0.0038 -1.1432
    2SAPS  C318  263   4.294   6.241   4.055  0.3946  0.7434 -0.7391
    2SAPS  H18X  264   4.322   6.344   4.088  3.5363 -0.6460  1.3276
    2SAPS  H18Y  265   4.213   6.260   3.981  0.2628 -0.4164 -0.9036
    2SAPS  H18Z  266   4.380   6.190   4.007  1.5932  0.7492  1.2856
    3SAPS     N  267   4.469   4.402   7.310 -0.0162  0.5597  0.6942
    3SAPS   HN1  268   4.429   4.348   7.389 -0.4036 -0.8693 -0.4262
    3SAPS   HN2  269   4.514   4.488   7.347 -1.2750  1.0460  1.1663
    3SAPS   HN3  270   4.399   4.442   7.243 -1.5104 -0.7854  1.3740
    3SAPS   C12  271   4.560   4.314   7.234 -0.2030 -0.1433  0.3723
    3SAPS  H12A  272   4.648   4.368   7.202  0.0627 -1.4112 -1.1204
    3SAPS   C13  273   4.607   4.180   7.296 -0.5375 -0.0547  0.2903
    3SAPS  O13A  274   4.567   4.144   7.410 -0.1570  0.3151  0.6093
    3SAPS  O13B  275   4.692   4.116   7.235 -0.1932 -0.6209  0.4188
    3SAPS   C11  276   4.488   4.281   7.099 -0.8016 -0.4725 -0.3939
    3SAPS  H11A  277   4.407   4.206   7.115 -0.2754 -1.5500 -2.4252
    3SAPS  H11B  278   4.548   4.224   7.025 -1.1441  2.6442 -3.3427
    3SAPS     P  279   4.357   4.389   6.900  0.1433  0.0479 -0.3932
    3SAPS   O13  280   4.261   4.278   6.916  0.0626 -0.2916  0.4037
    3SAPS   O14  281   4.306   4.525   6.887 -0.2639 -1.0205 -0.1835
    3SAPS   O12  282   4.443   4.395   7.034  0.0716  0.8656 -0.0343
    3SAPS   O11  283   4.476   4.356   6.798 -0.3353  0.1085  0.2073
    3SAPS    C1  284   4.586   4.440   6.767 -0.1376 -1.0933  0.7866
    3SAPS    HA  285   4.560   4.543   6.797 -1.5271 -1.1628 -0.1019
    3SAPS    HB  286   4.677   4.405   6.821  0.9508  0.1265 -0.1945
    3SAPS    C2  287   4.628   4.444   6.615  0.0193  0.7939 -0.0416
    3SAPS    HS  288   4.548   4.493   6.556  0.2374  1.5971  0.3267
    3SAPS   O21  289   4.637   4.307   6.570  0.0492  0.1738  0.1904
    3SAPS   C21  290   4.540   4.269   6.497 -0.4333  0.4798 -0.2066
    3SAPS   O22  291   4.439   4.322   6.459  0.0746 -0.4931 -0.2293
    3SAPS   C22  292   4.573   4.124   6.451 -0.2661 -0.5693  0.3853
    3SAPS   H2R  293   4.614   4.059   6.531  0.4657 -0.6134 -0.0131
    3SAPS   H2S  294   4.475   4.080   6.425 -0.9664  0.4735  1.1712
    3SAPS    C3  295   4.759   4.518   6.588  0.4214  0.1917 -0.1134
    3SAPS    HX  296   4.844   4.459   6.629  0.0920 -1.0766 -1.1680
    3SAPS    HY  297   4.763   4.619   6.634 -3.2082  0.5684 -0.3509
    3SAPS   O31  298   4.784   4.529   6.443 -0.4164  0.3174 -0.4341
    3SAPS   C31  299   4.750   4.639   6.381 -0.8333 -0.6015  0.3199
    3SAPS   O32  300   4.708   4.737   6.439  0.2466 -0.1745 -0.5192
    3SAPS   C32  301   4.781   4.632   6.230 -0.0292 -0.4011 -0.6260
    3SAPS   H2X  302   4.717   4.553   6.185 -2.8928  0.2695  1.9723
    3SAPS   H2Y  303   4.890   4.615   6.214  0.3068  1.8617 -1.1940
    3SAPS   C23  304   4.663   4.119   6.325  0.0251  0.3500  0.4250
    3SAPS   H3R  305   4.654   4.012   6.300  1.3335  0.0466  1.1519
    3SAPS   H3S  306   4.769   4.147   6.346  0.6322  0.4877 -2.3966
    3SAPS   C24  307   4.621   4.209   6.208  0.1088  0.1832  0.4135
    3SAPS   H4R  308   4.698   4.197   6.129  0.3932  1.2094  0.5100
    3SAPS   H4S  309   4.629   4.311   6.253 -2.4700 -0.0049  1.4425
    3SAPS   C25  310   4.477   4.193   6.160 -0.1862  0.0593  0.1809
    3SAPS   H5R  311   4.401   4.239   6.224 -0.6102 -0.6961  0.2333
    3SAPS   C26  312   4.432   4.168   6.034  0.0774 -0.2719  0.4762
    3SAPS   H6R  313   4.325   4.158   6.014  0.2967  0.6683 -1.4502
    3SAPS   C27  314   4.512   4.105   5.920  0.0025  0.3232  0.2695
    3SAPS   H7R  315   4.606   4.163   5.929  0.6544 -0.8449  1.1104
    3SAPS   H7S  316   4.476   4.134   5.819  1.5666 -0.7080 -0.6089
    3SAPS   C28  317   4.549   3.960   5.914  0.0254 -0.3588  0.2309
    3SAPS   H8R  318   4.591   3.925   6.009  4.0487  0.4437 -1.0676
    3SAPS   C29  319   4.534   3.876   5.811 -0.5064  0.2961  1.3920
    3SAPS   H9R  320   4.561   3.769   5.810  0.0850  0.3013 -2.7811
    3SAPS  C210  321   4.469   3.914   5.685 -0.4110 -0.6313  0.7329
    3SAPS  H10R  322   4.377   3.975   5.700  0.2818  1.6994 -3.2074
    3SAPS  H10S  323   4.439   3.825   5.626 -2.2049 -0.0917  0.7437
    3SAPS  C211  324   4.556   4.000   5.595 -0.3147 -0.2266  0.3884
    3SAPS  H11R  325   4.660   4.012   5.630  0.2975 -0.5252 -1.2749
    3SAPS  C212  326   4.516   4.055   5.478 -0.6127 -0.0449 -0.1494
    3SAPS  H12R  327   4.592   4.115   5.426 -1.6787 -0.2253 -2.0359
    3SAPS  C213  328   4.371   4.055   5.421 -0.6687 -0.2666 -0.0536
    3SAPS  H13R  329   4.298   4.086   5.499  0.5240 -1.9854  1.8599
    3SAPS  H13S  330   4.345   3.949   5.400 -0.3500  0.0576 -2.2359
    3SAPS  C214  331   4.356   4.137   5.291  0.3018 -0.3371 -1.0315
    3SAPS  H14R  332   4.307   4.233   5.310 -1.2258 -1.6517  2.6775
    3SAPS  C215  333   4.388   4.102   5.168  0.6698 -0.6907  0.6206
    3SAPS  H15R  334   4.352   4.167   5.086 -1.1087 -0.9316  1.1722
    3SAPS  C216  335   4.457   3.968   5.128  0.0063  0.3379 -1.0327
    3SAPS  H16R  336   4.402   3.900   5.059 -0.9771  1.8579 -1.8097
    3SAPS  H16S  337   4.471   3.901   5.216  1.3225  1.8745 -0.0128
    3SAPS  C217  338   4.594   3.994   5.052  0.7717  0.0293  0.1213
    3SAPS  H17R  339   4.671   3.919   5.078  2.6510  1.6152 -0.6018
    3SAPS  H17S  340   4.641   4.090   5.081  0.4007  1.2662 -2.9398
    3SAPS  C218  341   4.564   3.985   4.903 -0.6147 -0.3300  0.9660
    3SAPS  H18R  342   4.480   4.053   4.876  0.0643  0.0620 -0.1816
    3SAPS  H18S  343   4.534   3.882   4.875 -0.3743 -0.4910  1.2860
    3SAPS  C219  344   4.687   3.999   4.814  0.1536  0.2103 -0.2935
    3SAPS  H19R  345   4.748   3.911   4.842  0.9293  1.0917  0.8724
    3SAPS  H19S  346   4.659   3.976   4.709  0.9352  2.8444 -1.1776
    3SAPS  C220  347   4.756   4.134   4.823 -0.1257 -0.3258  0.3503
    3SAPS  H20R  348   4.835   4.125   4.900 -1.0854 -1.2050  1.2581
    3SAPS  H20S  349   4.686   4.217   4.846 -1.0442 -0.6129 -1.2450
    3SAPS  H20T  350   4.806   4.158   4.727 -1.6782  0.5221 -0.2823
    3SAPS   C33  351   4.738   4.767   6.161 -0.5464  0.7531 -0.3968
    3SAPS   H3X  352   4.784   4.853   6.215 -0.2967  0.8261 -0.7231
    3SAPS   H3Y  353   4.628   4.766   6.180 -0.4944 -2.4387  0.4174
    3SAPS   C34  354   4.768   4.783   6.010  0.1870 -0.3018  0.1279
    3SAPS   H4X  355   4.701   4.857   5.961 -0.2386  0.1842  1.3999
    3SAPS   H4Y  356   4.746   4.688   5.957  2.0566 -1.6283  1.6146
    3SAPS   C35  357   4.907   4.832   5.971  0.2265 -0.1927  0.2921
    3SAPS   H5X  358   4.900   4.937   6.005  0.6724  0.5885 -1.8697
    3SAPS   H5Y  359   4.981   4.772   6.027  1.2029  1.0680  0.4017
    3SAPS   C36  360   4.942   4.831   5.820  0.0123  0.5883  0.3023
    3SAPS   H6X  361   4.953   4.728   5.779 -2.5868 -0.3852  1.8143
    3SAPS   H6Y  362   5.040   4.881   5.803 -1.5832  3.4226 -1.4794
    3SAPS   C37  363   4.842   4.893   5.721  0.5877 -0.3915 -1.0072
    3SAPS   H7X  364   4.818   5.001   5.734  2.7669  0.4710 -3.3349
    3SAPS   H7Y  365   4.759   4.825   5.747  1.9829 -1.8486 -0.1433
    3SAPS   C38  366   4.879   4.891   5.572  0.7064 -0.0290  0.5690
    3SAPS   H8X  367   4.928   4.798   5.537 -0.9741 -1.4825  1.8705
    3SAPS   H8Y  368   4.960   4.967   5.572  0.1520  0.5803 -0.1487
    3SAPS   C39  369   4.752   4.928   5.494  0.3300 -0.1439  0.8366
    3SAPS   H9X  370   4.702   5.014   5.543  2.4205  1.2251  0.6661
    3SAPS   H9Y  371   4.688   4.837   5.489  0.7781 -0.4033 -0.6355
    3SAPS  C310  372   4.774   4.979   5.356 -0.2445 -0.4108  0.8954
    3SAPS  H10X  373   4.830   4.899   5.303  1.2559  1.0422  0.2048
    3SAPS  H10Y  374   4.829   5.075   5.359  0.6736 -0.9345  3.7161
    3SAPS  C311  375   4.641   4.999   5.289 -0.0351  0.6517  1.0522
    3SAPS  H11X  376   4.590   5.088   5.330 -0.8955 -0.2402  1.9766
    3SAPS  H11Y  377   4.567   4.922   5.319  0.5767 -0.1954  0.4337
    3SAPS  C312  378   4.650   5.010   5.136  0.7046 -0.7799 -0.4739
    3SAPS  H12X  379   4.562   5.067   5.099  1.4904  1.0916  0.3978
    3SAPS  H12Y  380   4.659   4.911   5.086  1.4371 -0.0042 -1.9166
    3SAPS  C313  381   4.768   5.099   5.092  0.7568  0.5647  0.1598
    3SAPS  H13X  382   4.865   5.056   5.125  0.2444  0.0675  1.0760
    3SAPS  H13Y  383   4.759   5.193   5.151  1.2968 -1.5033  3.8079
    3SAPS  C314  384   4.777   5.124   4.941  0.8320 -0.3727  0.0161
    3SAPS  H14X  385   4.858   5.192   4.909 -1.5949  2.5227 -0.4797
    3SAPS  H14Y  386   4.687   5.175   4.901  0.6101 -0.6295  0.1813
    3SAPS  C315  387   4.769   5.003   4.849  0.6244 -0.0147 -0.2828
    3SAPS  H15X  388   4.674   4.950   4.873 -0.1628  2.0003  1.4627
    3SAPS  H15Y  389   4.853   4.939   4.882  0.6026  0.4825  0.8030
    3SAPS  C316  390   4.774   5.036   4.700  0.1530  0.2763 -0.7069
    3SAPS  H16X  391   4.787   4.945   4.638  0.2670  1.3761 -2.3546
    3SAPS  H16Y  392   4.857   5.109   4.689 -0.9664  1.7671  0.3612
    3SAPS  C317  393   4.650   5.092   4.639  0.2690  0.8633 -0.2410
    3SAPS  H17X  394   4.640   5.202   4.654 -1.9479  0.4380  2.0453
    3SAPS  H17Y  395   4.560   5.050   4.688 -0.7145  1.2938 -1.6274
    3SAPS  C318  396   4.629   5.066   4.491 -0.1908 -0.1184  0.3372
    3SAPS  H18X  397   4.717   5.077   4.424  0.3341 -3.2849  0.3497
    3SAPS  H18Y  398   4.547   5.133   4.459 -0.4626 -1.1761 -1.3377
    3SAPS  H18Z  399   4.599   4.959   4.484 -1.9340  0.2643  1.4409
    4SAPS     N  400   1.596   2.423   6.770 -0.0145  0.0700  0.1794
    4SAPS   HN1  401   1.592   2.516   6.723  0.8613 -0.4783 -1.0373
    4SAPS   HN2  402   1.649   2.420   6.859 -3.4491 -1.3914  2.3671
    4SAPS   HN3  403   1.639   2.368   6.693 -0.9664  0.6180 -0.7894
    4SAPS   C12  404   1.463   2.369   6.815 -0.7227  0.5664  0.3089
    4SAPS  H12A  405   1.408   2.329   6.731  1.1730  1.2461 -1.3441
    4SAPS   C13  406   1.488   2.254   6.915 -0.3433 -0.2518 -0.0607
    4SAPS  O13A  407   1.602   2.207   6.929  0.3304  0.0655 -0.3647
    4SAPS  O13B  408   1.388   2.198   6.972 -0.2324  0.7919 -0.2370
    4SAPS   C11  409   1.366   2.483   6.864  0.1002  0.8025 -0.3946
    4SAPS  H11A  410   1.407   2.533   6.954 -0.4520  0.4744  0.0462
    4SAPS  H11B  411   1.265   2.442   6.888 -1.4685  4.4967 -0.0764
    4SAPS     P  412   1.280   2.714   6.805  0.0388 -0.5236  0.2451
    4SAPS   O13  413   1.220   2.707   6.936 -0.1012  0.2822  0.0823
    4SAPS   O14  414   1.354   2.834   6.766  0.2265 -0.3201 -0.1723
    4SAPS   O12  415   1.352   2.582   6.769 -0.3076  0.1966  0.2296
    4SAPS   O11  416   1.151   2.720   6.717 -0.4018 -0.1758 -0.0912
    4SAPS    C1  417   1.075   2.599   6.684 -0.5927  0.3527 -0.2842
    4SAPS    HA  418   1.097   2.517   6.756  1.8123 -0.5880 -1.9551
    4SAPS    HB  419   0.967   2.606   6.710 -0.4014 -1.2295  1.1065
    4SAPS    C2  420   1.099   2.547   6.541 -0.0175  0.4706  0.1902
    4SAPS    HS  421   1.198   2.498   6.535 -1.1724 -2.0625  0.7532
    4SAPS   O21  422   1.084   2.654   6.446 -0.5084 -0.5801  0.0847
    4SAPS   C21  423   1.136   2.653   6.323 -0.1656 -0.0763  0.6720
    4SAPS   O22  424   1.211   2.567   6.276  0.1405 -0.2779 -0.0662
    4SAPS   C22  425   1.078   2.779   6.248  0.4114 -0.2472 -0.9133
    4SAPS   H2R  426   0.973   2.790   6.283  0.8723 -0.9096  0.7763
    4SAPS   H2S  427   1.132   2.872   6.275  0.7816 -0.1005 -2.0866
    4SAPS    C3  428   1.000   2.430   6.519 -0.2629 -0.2672  0.7958
    4SAPS    HX  429   0.902   2.461   6.562 -0.9082 -0.9821 -0.1349
    4SAPS    HY  430   1.040   2.341   6.572  2.4687  0.0344 -0.5928
    4SAPS   O31  431   0.979   2.385   6.385  0.3326 -0.3182 -0.0901
    4SAPS   C31  432   1.080   2.309   6.337  0.4059  0.8742  0.8264
    4SAPS   O32  433   1.183   2.280   6.398 -0.1571  0.7275  0.3473
    4SAPS   C32  434   1.053   2.271   6.193 -0.1439  0.4306  0.2988
    4SAPS   H2X  435   0.949   2.238   6.173  0.8891 -1.1062 -3.6109
    4SAPS   H2Y  436   1.123   2.192   6.158 -2.2386 -0.5139 -2.1174
    4SAPS   C23  437   1.060   2.748   6.105 -0.1565  0.4113 -0.1043
    4SAPS   H3R  438   0.970   2.684   6.087 -0.2170  0.9036 -1.8000
    4SAPS   H3S  439   1.149   2.709   6.051 -0.1294 -0.4452  0.5497
    4SAPS   C24  440   1.018   2.872   6.035  0.4719  0.1506 -0.0973
    4SAPS   H4R  441   1.096   2.951   6.028  0.7215 -0.1955 -1.3222
    4SAPS   H4S  442   0.932   2.923   6.084  0.9302  0.0733  0.8060
    4SAPS   C25  443   0.967   2.851   5.892  0.0114  0.0033  0.8186
    4SAPS   H5R  444   0.859   2.832   5.876  0.3579  0.1516 -2.2935
    4SAPS   C26  445   1.035   2.876   5.773 -0.9100 -0.2904 -0.0147
    4SAPS   H6R  446   0.989   2.857   5.675  2.0932  2.2277 -2.1031
    4SAPS   C27  447   1.182   2.915   5.772 -0.1514 -0.0467  0.0378
    4SAPS   H7R  448   1.230   2.889   5.868 -1.2972 -2.4632  0.0228
    4SAPS   H7S  449   1.187   3.026   5.773 -1.3089  0.0135  1.5745
    4SAPS   C28  450   1.272   2.865   5.660 -0.4961  0.3677  0.6230
    4SAPS   H8R  451   1.350   2.791   5.687 -0.4735 -0.2572 -1.0832
    4SAPS   C29  452   1.267   2.912   5.534  0.3266  0.5077  0.0008
    4SAPS   H9R  453   1.347   2.868   5.472  0.3386  0.0199  0.3535
    4SAPS  C210  454   1.178   3.024   5.479 -0.3747 -0.2342  0.3029
    4SAPS  H10R  455   1.243   3.105   5.439 -0.1194 -1.0588 -1.0149
    4SAPS  H10S  456   1.126   3.083   5.558 -0.1748 -1.6751  1.5617
    4SAPS  C211  457   1.077   2.971   5.386  1.2857 -0.3924  0.3689
    4SAPS  H11R  458   0.984   2.934   5.432  0.7451  1.4568  0.8647
    4SAPS  C212  459   1.077   2.984   5.254  0.5687  0.6300  0.2426
    4SAPS  H12R  460   0.986   2.954   5.200 -0.8751 -1.3525  3.4167
    4SAPS  C213  461   1.183   3.057   5.179  0.6269  0.2756 -1.0220
    4SAPS  H13R  462   1.219   3.145   5.236  0.5804 -0.3653  0.0170
    4SAPS  H13S  463   1.127   3.114   5.101 -4.5119 -2.0906  0.4982
    4SAPS  C214  464   1.306   2.977   5.124  0.2837  0.3881 -0.1288
    4SAPS  H14R  465   1.337   2.901   5.198 -1.5468  0.5993  0.9067
    4SAPS  C215  466   1.354   2.990   4.999  0.3363  0.1947 -0.5355
    4SAPS  H15R  467   1.440   2.928   4.971  2.2191  3.0492 -1.5209
    4SAPS  C216  468   1.317   3.100   4.903  0.7525  0.2135 -0.1031
    4SAPS  H16R  469   1.265   3.189   4.945 -1.6951 -0.1897 -2.0446
    4SAPS  H16S  470   1.249   3.049   4.831  0.7007 -3.5003  2.3238
    4SAPS  C217  471   1.435   3.148   4.827  0.1603  0.8572 -0.0419
    4SAPS  H17R  472   1.483   3.059   4.781 -1.2261  0.2332 -0.3140
    4SAPS  H17S  473   1.508   3.200   4.892 -2.9152  3.5478  1.5320
    4SAPS  C218  474   1.402   3.244   4.717 -0.8628 -0.3729  0.9930
    4SAPS  H18R  475   1.375   3.340   4.765 -1.1083 -0.0911  0.3121
    4SAPS  H18S  476   1.316   3.210   4.655  0.2001 -1.4912  0.0715
    4SAPS  C219  477   1.514   3.262   4.610  0.1793 -0.5021  0.1979
    4SAPS  H19R  478   1.607   3.301   4.657  1.2768  3.2789 -4.3114
    4SAPS  H19S  479   1.473   3.344   4.547  1.7895  0.2859  0.1102
    4SAPS  C220  480   1.565   3.135   4.537 -0.2819 -0.2726  0.9388
    4SAPS  H20R  481   1.476   3.076   4.505  0.3016 -1.3187  1.2051
    4SAPS  H20S  482   1.631   3.079   4.606  2.1195 -0.7970 -1.6097
    4SAPS  H20T  483   1.616   3.161   4.442 -1.0150  0.3054  0.6851
    4SAPS   C33  484   1.073   2.399   6.097 -0.0923  0.4524 -0.0927
    4SAPS   H3X  485   1.184   2.404   6.091  0.0144 -1.7791 -1.1405
    4SAPS   H3Y  486   1.018   2.489   6.131  0.6935  0.7998  0.3095
    4SAPS   C34  487   1.022   2.356   5.960 -0.1570  0.0761  0.0275
    4SAPS   H4X  488   0.912   2.338   5.955 -0.4046  0.1612  3.2297
    4SAPS   H4Y  489   1.075   2.260   5.940 -2.0886 -0.7508 -1.5291
    4SAPS   C35  490   1.072   2.456   5.845  0.5802  0.4175 -0.7057
    4SAPS   H5X  491   1.183   2.462   5.848  0.5899 -0.3214  0.9082
    4SAPS   H5Y  492   1.029   2.553   5.878  1.9228  0.4666  0.9967
    4SAPS   C36  493   1.028   2.410   5.707 -0.3014 -0.2630  0.4766
    4SAPS   H6X  494   0.918   2.396   5.699 -0.4772  0.9530  0.5888
    4SAPS   H6Y  495   1.083   2.314   5.702  1.8629  0.9780 -1.4564
    4SAPS   C37  496   1.085   2.503   5.603 -0.0780  0.1190  0.1040
    4SAPS   H7X  497   1.185   2.546   5.624 -0.7109  2.8310 -1.8479
    4SAPS   H7Y  498   1.031   2.601   5.609 -0.4424  0.1401 -2.3295
    4SAPS   C38  499   1.082   2.452   5.462 -1.1953 -0.5604  0.7020
    4SAPS   H8X  500   0.978   2.421   5.436 -1.2476 -0.3518  0.6618
    4SAPS   H8Y  501   1.145   2.363   5.441 -1.8690 -0.6830 -0.9794
    4SAPS   C39  502   1.113   2.560   5.350 -0.5384 -0.1620  1.2333
    4SAPS   H9X  503   1.219   2.591   5.365 -0.5687 -0.9780  3.7118
    4SAPS   H9Y  504   1.053   2.652   5.365  0.3406  0.5116  0.6927
    4SAPS  C310  505   1.100   2.507   5.207 -0.0816  0.0080  0.2435
    4SAPS  H10X  506   0.990   2.499   5.210 -0.1188  0.8503  2.3669
    4SAPS  H10Y  507   1.157   2.413   5.188  0.8400  0.9390 -2.0187
    4SAPS  C311  508   1.160   2.615   5.117 -0.2411 -0.5230 -0.3364
    4SAPS  H11X  509   1.268   2.628   5.140  0.2415 -1.0120 -2.1839
    4SAPS  H11Y  510   1.118   2.715   5.144  1.3448 -0.4480  2.2277
    4SAPS  C312  511   1.143   2.599   4.971 -0.0977 -0.7808  0.0074
    4SAPS  H12X  512   1.042   2.607   4.925 -0.5842 -0.4967  1.0737
    4SAPS  H12Y  513   1.184   2.498   4.948  1.4846 -0.2565  0.4136
    4SAPS  C313  514   1.232   2.697   4.901  0.5299  0.5664 -0.4578
    4SAPS  H13X  515   1.326   2.711   4.959 -1.9148  2.5890  3.4597
    4SAPS  H13Y  516   1.184   2.797   4.900  0.4344  0.5283  0.1214
    4SAPS  C314  517   1.256   2.661   4.756  0.1516  0.9782  0.0684
    4SAPS  H14X  518   1.164   2.661   4.694  2.0036 -1.3777 -2.9856
    4SAPS  H14Y  519   1.288   2.554   4.760 -0.3723  0.8569  1.5178
    4SAPS  C315  520   1.378   2.733   4.695  0.2766 -0.2541 -0.2825
    4SAPS  H15X  521   1.461   2.722   4.768  0.6222 -1.8898 -0.8579
    4SAPS  H15Y  522   1.362   2.842   4.687  2.0224  0.2103  1.7025
    4SAPS  C316  523   1.413   2.671   4.567 -0.5393 -0.0589 -0.3882
    4SAPS  H16X  524   1.317   2.664   4.511 -0.5716  2.1021 -0.6702
    4SAPS  H16Y  525   1.443   2.564   4.580 -3.2605 -0.7345  1.1937
    4SAPS  C317  526   1.511   2.750   4.485 -0.2378 -0.0495  0.1080
    4SAPS  H17X  527   1.609   2.755   4.537  0.7905 -1.1506 -1.5947
    4SAPS  H17Y  528   1.483   2.857   4.472 -0.1944  0.0015  0.4408
    4SAPS  C318  529   1.541   2.677   4.350  0.2466  0.0695 -0.0128
    4SAPS  H18X  530   1.588   2.754   4.284  0.1608  0.1256 -0.0083
    4SAPS  H18Y  531   1.445   2.644   4.304 -1.2473  2.4104  1.1794
    4SAPS  H18Z  532   1.603   2.587   4.366  0.7996  0.7195  1.7359
    5SAPS     N  533   4.368   4.786   6.868  0.6751 -0.7382  0.2878
    5SAPS   HN1  534   4.340   4.687   6.882 -0.5272 -0.0209  4.0379
    5SAPS   HN2  535   4.282   4.843   6.856  1.5441  0.8378  1.1430
    5SAPS   HN3  536   4.424   4.799   6.781  1.2711  0.8491  0.8642
    5SAPS   C12  537   4.428   4.831   6.995  0.2602 -0.1842  0.1414
    5SAPS  H12A  538   4.453   4.935   6.979 -0.1711 -0.1187 -0.1047
    5SAPS   C13  539   4.328   4.834   7.118  0.5809  0.5755  0.0993
    5SAPS  O13A  540   4.208   4.808   7.109 -0.6845 -0.8232  0.4004
    5SAPS  O13B  541   4.369   4.891   7.224  0.3792  0.0990  0.0981
    5SAPS   C11  542   4.569   4.763   7.014  0.4578  0.3516 -0.0628
    5SAPS  H11A  543   4.570   4.653   6.994  1.5343  0.2699  0.3917
    5SAPS  H11B  544   4.602   4.792   7.116 -0.4117  1.2819 -0.0290
    5SAPS     P  545   4.745   4.934   6.930  0.2854 -0.1808 -0.0636
    5SAPS   O13  546   4.713   5.030   6.832 -0.4663 -0.2614 -1.0860
    5SAPS   O14  547   4.749   4.976   7.073 -0.2576  0.0930  0.5478
    5SAPS   O12  548   4.644   4.812   6.907  0.1246 -0.3968  0.5513
    5SAPS   O11  549   4.890   4.876   6.884  0.2814 -0.4679 -0.0722
    5SAPS    C1  550   4.904   4.737   6.915  0.3482  0.2508  0.2221
    5SAPS    HA  551   4.909   4.717   7.024  0.3374 -1.3693 -0.0457
    5SAPS    HB  552   4.821   4.676   6.875 -0.1114  0.3194  1.0646
    5SAPS    C2  553   5.034   4.676   6.855  0.8134 -0.0005 -0.0221
    5SAPS    HS  554   5.117   4.742   6.888  0.1941 -0.1979  2.0154
    5SAPS   O21  555   5.019   4.676   6.711  0.7388 -0.2497 -0.1103
    5SAPS   C21  556   5.136   4.678   6.647 -0.2273  0.1293 -0.4068
    5SAPS   O22  557   5.245   4.701   6.695  0.4223 -0.2678  0.2297
    5SAPS   C22  558   5.112   4.651   6.498 -0.0212  0.7049  0.1171
    5SAPS   H2R  559   5.200   4.589   6.470  0.4749  1.2707  0.4097
    5SAPS   H2S  560   5.022   4.585   6.487  0.2207  0.7678 -4.2588
    5SAPS    C3  561   5.052   4.527   6.908  0.0348 -0.7866 -0.4742
    5SAPS    HX  562   4.953   4.476   6.903 -0.3652 -0.0816  0.0761
    5SAPS    HY  563   5.094   4.530   7.011  1.3877  1.2736 -1.0195
    5SAPS   O31  564   5.140   4.455   6.831 -0.2926  0.3024 -0.2860
    5SAPS   C31  565   5.136   4.321   6.839 -0.0774 -0.1412 -0.4569
    5SAPS   O32  566   5.066   4.259   6.920 -0.0725  0.1898  0.6097
    5SAPS   C32  567   5.236   4.263   6.738  0.5033 -0.1605  0.5760
    5SAPS   H2X  568   5.289   4.180   6.789 -0.4617 -1.5608 -0.6364
    5SAPS   H2Y  569   5.305   4.341   6.700 -0.2168  0.7326  1.0362
    5SAPS   C23  570   5.114   4.782   6.409  0.6299 -0.0637 -0.0786
    5SAPS   H3R  571   5.069   4.873   6.456 -1.2321  0.5971 -2.8807
    5SAPS   H3S  572   5.042   4.761   6.327 -0.5564  0.5839  0.7657
    5SAPS   C24  573   5.252   4.833   6.362 -0.0565  0.0307  0.6540
    5SAPS   H4R  574   5.330   4.798   6.433 -0.8379 -3.2213  0.0853
    5SAPS   H4S  575   5.249   4.942   6.385 -0.4629 -0.1898  1.7472
    5SAPS   C25  576   5.293   4.791   6.223 -0.5951 -0.1541 -0.1919
    5SAPS   H5R  577   5.309   4.683   6.206  1.7852  0.0855  0.1766
    5SAPS   C26  578   5.293   4.870   6.115 -0.7179  1.2574  0.0093
    5SAPS   H6R  579   5.315   4.820   6.019 -0.3900 -0.0920  0.7627
    5SAPS   C27  580   5.247   5.011   6.114 -0.2463  0.7980  0.3220
    5SAPS   H7R  581   5.309   5.081   6.174 -1.2884  1.0184  1.1732
    5SAPS   H7S  582   5.150   5.023   6.167  0.4794  0.3758  1.8043
    5SAPS   C28  583   5.231   5.071   5.978 -0.3691  0.1645 -0.3109
    5SAPS   H8R  584   5.129   5.089   5.939 -0.7920  1.8430  1.4084
    5SAPS   C29  585   5.334   5.100   5.897  0.1518  0.5971  0.2110
    5SAPS   H9R  586   5.305   5.148   5.802 -1.8567 -0.8778  0.0045
    5SAPS  C210  587   5.479   5.100   5.916 -0.6864 -0.2647  0.2105
    5SAPS  H10R  588   5.511   4.995   5.902 -2.1761 -0.5955 -1.0020
    5SAPS  H10S  589   5.501   5.129   6.021 -1.4383 -0.1324  0.3401
    5SAPS  C211  590   5.555   5.193   5.818 -0.4140 -0.2344 -0.1262
    5SAPS  H11R  591   5.575   5.294   5.857 -0.9196  0.0921 -0.6922
    5SAPS  C212  592   5.584   5.169   5.693  0.6033 -0.3362  0.0165
    5SAPS  H12R  593   5.644   5.247   5.644 -0.0219  0.1049 -0.0672
    5SAPS  C213  594   5.558   5.047   5.614 -0.5305  0.8614  0.2046
    5SAPS  H13R  595   5.490   4.976   5.666  0.1628  0.8842  1.1695
    5SAPS  H13S  596   5.655   4.993   5.608 -0.9730  0.1609 -1.0763
    5SAPS  C214  597   5.513   5.074   5.470  0.3970  0.0716  0.2624
    5SAPS  H14R  598   5.583   5.122   5.401  0.2938  0.5787  0.5113
    5SAPS  C215  599   5.384   5.065   5.428  0.0931  0.3763 -0.3383
    5SAPS  H15R  600   5.368   5.108   5.328  1.1581  3.2882  0.6408
    5SAPS  C216  601   5.266   5.020   5.506  0.1547  0.2018 -0.4218
    5SAPS  H16R  602   5.170   5.044   5.456 -0.8558 -0.5479  1.0914
    5SAPS  H16S  603   5.262   5.059   5.610 -0.1167 -2.1298  0.5009
    5SAPS  C217  604   5.246   4.865   5.535 -0.4913 -0.4527 -0.6255
    5SAPS  H17R  605   5.160   4.860   5.606  0.0823 -0.6940  0.0550
    5SAPS  H17S  606   5.339   4.836   5.588 -1.8804  2.3713  4.0474
    5SAPS  C218  607   5.218   4.786   5.410  0.0665  0.2373 -0.2988
    5SAPS  H18R  608   5.289   4.801   5.327 -0.7498 -0.0214 -1.0596
    5SAPS  H18S  609   5.109   4.802   5.396 -0.1777 -1.5122 -0.6172
    5SAPS  C219  610   5.227   4.636   5.433  0.1674  0.0052 -1.0296
    5SAPS  H19R  611   5.167   4.607   5.522  0.1967 -0.2960 -1.1065
    5SAPS  H19S  612   5.336   4.624   5.449  0.0066 -0.4030 -0.1713
    5SAPS  C220  613   5.179   4.563   5.315 -0.5141 -0.2254 -0.3463
    5SAPS  H20R  614   5.072   4.569   5.285  0.2074  0.3432 -3.1736
    5SAPS  H20S  615   5.196   4.453   5.319 -4.2819 -1.1311 -3.0697
    5SAPS  H20T  616   5.220   4.607   5.221 -0.5242  2.0464  0.6545
    5SAPS   C33  617   5.159   4.186   6.630 -0.0371  0.9090  0.0467
    5SAPS   H3X  618   5.096   4.106   6.674 -0.4313  0.8787 -0.5679
    5SAPS   H3Y  619   5.238   4.144   6.565 -1.6661 -0.3424 -1.2049
    5SAPS   C34  620   5.064   4.268   6.548  0.4267  0.0076 -0.1301
    5SAPS   H4X  621   5.112   4.365   6.523  0.4656 -0.2958 -1.3086
    5SAPS   H4Y  622   4.968   4.281   6.601 -1.5618 -2.7851 -2.6834
    5SAPS   C35  623   5.028   4.206   6.408 -0.9968 -0.6363  0.6312
    5SAPS   H5X  624   4.939   4.143   6.427 -1.7609  0.6299  1.3776
    5SAPS   H5Y  625   5.110   4.139   6.374  1.2680  0.9877  2.5572
    5SAPS   C36  626   5.014   4.304   6.293  0.0356 -0.2696 -0.1102
    5SAPS   H6X  627   5.096   4.377   6.280 -0.8720  0.3061 -3.4010
    5SAPS   H6Y  628   4.922   4.360   6.320 -0.7536 -2.3724  1.9140
    5SAPS   C37  629   5.001   4.233   6.154 -0.1224 -0.1945 -0.0199
    5SAPS   H7X  630   4.910   4.170   6.165 -0.2535 -0.1287 -0.6892
    5SAPS   H7Y  631   5.092   4.178   6.121 -0.4659 -0.2806 -0.8510
    5SAPS   C38  632   4.955   4.314   6.035 -0.4845 -0.2939 -0.6996
    5SAPS   H8X  633   5.034   4.391   6.022 -1.0737  0.4264 -0.1306
    5SAPS   H8Y  634   4.859   4.365   6.060 -0.7160 -0.9517 -0.2391
    5SAPS   C39  635   4.930   4.230   5.912  0.0719 -0.2742  0.3216
    5SAPS   H9X  636   4.873   4.142   5.948 -2.7596  0.6424 -1.5878
    5SAPS   H9Y  637   5.032   4.199   5.877  0.7933  1.2613  0.9930
    5SAPS  C310  638   4.858   4.302   5.802 -0.0760 -0.5630 -0.2066
    5SAPS  H10X  639   4.914   4.394   5.774  3.1295 -2.1065  0.6827
    5SAPS  H10Y  640   4.755   4.336   5.828  0.4217  1.1445 -0.3050
    5SAPS  C311  641   4.846   4.235   5.663 -0.3140 -0.0238 -0.8180
    5SAPS  H11X  642   4.813   4.130   5.677  1.7177 -0.9955 -2.5915
    5SAPS  H11Y  643   4.946   4.227   5.614  0.2291  1.1991  0.0450
    5SAPS  C312  644   4.749   4.318   5.581 -0.3765 -0.0822 -0.2601
    5SAPS  H12X  645   4.652   4.319   5.635 -1.0453 -2.2985 -1.2779
    5SAPS  H12Y  646   4.733   4.258   5.489 -0.2498 -1.9630  0.8729
    5SAPS  C313  647   4.792   4.458   5.544 -0.3239 -1.0171  0.0208
    5SAPS  H13X  648   4.899   4.467   5.518 -0.6513  1.8475 -0.6476
    5SAPS  H13Y  649   4.774   4.520   5.635 -3.6158 -0.4501 -0.8781
    5SAPS  C314  650   4.725   4.527   5.433 -0.0438 -0.3009  0.2281
    5SAPS  H14X  651   4.743   4.636   5.441 -2.1427  0.1802 -1.0059
    5SAPS  H14Y  652   4.615   4.511   5.435 -0.3611  1.7368  1.6699
    5SAPS  C315  653   4.786   4.483   5.301  0.2923  0.0182 -0.1608
    5SAPS  H15X  654   4.735   4.391   5.266 -1.6347  0.7494  0.5748
    5SAPS  H15Y  655   4.896   4.466   5.301  0.4931  1.1222 -1.6723
    5SAPS  C316  656   4.764   4.562   5.165  0.9271  0.0572 -0.5402
    5SAPS  H16X  657   4.821   4.656   5.180 -0.6224  0.7683  1.3509
    5SAPS  H16Y  658   4.657   4.590   5.156  0.4696 -1.0398  1.0253
    5SAPS  C317  659   4.805   4.498   5.034 -0.2235  0.6549  0.0717
    5SAPS  H17X  660   4.728   4.420   5.019 -0.0236  0.0313  2.0160
    5SAPS  H17Y  661   4.901   4.446   5.055 -0.8355  0.1052  1.5694
    5SAPS  C318  662   4.817   4.580   4.904  0.6245 -0.1830 -0.0820
    5SAPS  H18X  663   4.869   4.530   4.820 -1.7202  0.4118 -1.9753
    5SAPS  H18Y  664   4.860   4.681   4.920  1.5666 -0.4839 -0.6447
    5SAPS  H18Z  665   4.714   4.599   4.868  0.6964 -0.6894 -0.5748
    6SAPS     N  666   3.232   3.793   6.951 -0.1150  0.0016 -0.1394
    6SAPS   HN1  667   3.204   3.852   6.870 -0.8895 -1.0192 -0.6363
    6SAPS   HN2  668   3.328   3.757   6.934 -0.2787 -0.6256  0.2428
    6SAPS   HN3  669   3.158   3.720   6.958 -1.0706  0.8424 -1.1340
    6SAPS   C12  670   3.236   3.879   7.074  0.4921  0.0916 -0.0066
    6SAPS  H12A  671   3.136   3.903   7.105  0.6877  1.2557 -0.2303
    6SAPS   C13  672   3.281   3.801   7.193 -0.3592  0.9551 -0.6306
    6SAPS  O13A  673   3.338   3.688   7.180  0.8394  0.5439  0.1817
    6SAPS  O13B  674   3.287   3.857   7.308 -0.1943 -0.1775 -0.3226
    6SAPS   C11  675   3.325   4.003   7.054  0.4647  0.1440  0.0416
    6SAPS  H11A  676   3.429   3.970   7.035  0.4448 -0.1087  0.3562
    6SAPS  H11B  677   3.335   4.066   7.145 -0.0801  2.5915 -1.4945
    6SAPS     P  678   3.161   4.193   6.987 -0.4331  0.1202 -0.1459
    6SAPS   O13  679   3.081   4.130   7.093 -0.3686  0.1073  0.4759
    6SAPS   O14  680   3.222   4.322   7.012 -0.6273  0.1186 -0.5003
    6SAPS   O12  681   3.275   4.090   6.952 -0.5804  0.5116 -0.1696
    6SAPS   O11  682   3.083   4.203   6.849 -0.5276 -0.0746 -0.8134
    6SAPS    C1  683   3.105   4.322   6.768 -0.0664 -0.1705  1.0283
    6SAPS    HA  684   3.090   4.419   6.820 -0.0358  2.6608 -3.6682
    6SAPS    HB  685   3.213   4.323   6.742 -0.3110 -2.3691 -0.2751
    6SAPS    C2  686   3.025   4.328   6.636 -0.2940 -0.0649 -0.1953
    6SAPS    HS  687   3.060   4.417   6.579 -0.2569  0.1212  0.1136
    6SAPS   O21  688   2.883   4.318   6.659  0.3598  0.7099 -0.2342
    6SAPS   C21  689   2.830   4.421   6.728  0.7622 -0.5376 -0.4417
    6SAPS   O22  690   2.886   4.526   6.755 -0.3239 -0.2965 -0.1236
    6SAPS   C22  691   2.684   4.396   6.745  0.5999  0.5662  0.0020
    6SAPS   H2R  692   2.671   4.299   6.798 -2.5662  1.3487  0.8184
    6SAPS   H2S  693   2.634   4.474   6.805  0.4733  2.0005 -1.8977
    6SAPS    C3  694   3.072   4.211   6.533  0.2869  0.0603  0.3763
    6SAPS    HX  695   3.048   4.112   6.578  0.2611 -0.4228 -0.6842
    6SAPS    HY  696   3.182   4.228   6.534  0.2574  0.2578  1.2511
    6SAPS   O31  697   3.008   4.225   6.404  0.1162  0.3552  0.0169
    6SAPS   C31  698   3.033   4.134   6.311 -0.1925 -0.5691  0.1005
    6SAPS   O32  699   3.082   4.023   6.319  0.2653  0.1245  0.5630
    6SAPS   C32  700   2.980   4.196   6.184 -0.7700  0.8432 -0.0969
    6SAPS   H2X  701   3.054   4.186   6.102 -0.5814  0.8875  0.0689
    6SAPS   H2Y  702   2.957   4.304   6.193  0.9617  1.2740 -0.4761
    6SAPS   C23  703   2.607   4.383   6.618  0.5227  0.4052  0.3231
    6SAPS   H3R  704   2.509   4.347   6.655 -0.1211  1.0114 -0.7484
    6SAPS   H3S  705   2.653   4.308   6.549 -2.6517 -1.3683 -0.0669
    6SAPS   C24  706   2.587   4.505   6.529 -0.5254 -0.0365 -0.7492
    6SAPS   H4R  707   2.533   4.590   6.577 -1.6032 -0.9946 -0.1999
    6SAPS   H4S  708   2.518   4.488   6.444  0.8290 -2.3765 -1.4754
    6SAPS   C25  709   2.718   4.554   6.469  0.3663  0.4914  0.0959
    6SAPS   H5R  710   2.798   4.479   6.468 -1.4094 -1.5217 -2.1721
    6SAPS   C26  711   2.738   4.688   6.439  0.2587  0.4617  0.0206
    6SAPS   H6R  712   2.836   4.720   6.401 -0.4931  1.8359 -0.8153
    6SAPS   C27  713   2.636   4.793   6.438  0.9269  0.1368 -0.4567
    6SAPS   H7R  714   2.589   4.803   6.539  0.2424 -2.9025 -0.3824
    6SAPS   H7S  715   2.545   4.765   6.381  0.3286  0.6145  0.2282
    6SAPS   C28  716   2.688   4.918   6.382  0.1995  0.2207 -0.5841
    6SAPS   H8R  717   2.743   4.988   6.447  0.1863  0.9168 -1.3162
    6SAPS   C29  718   2.687   4.958   6.255  0.3751  0.6095 -0.7915
    6SAPS   H9R  719   2.704   5.064   6.230  0.9022  1.4874  2.8156
    6SAPS  C210  720   2.639   4.884   6.132  0.0569 -0.0089 -0.4605
    6SAPS  H10R  721   2.557   4.946   6.092  1.3586  2.5632  0.6530
    6SAPS  H10S  722   2.595   4.786   6.161 -0.7034 -0.5220 -3.1244
    6SAPS  C211  723   2.738   4.855   6.024 -0.0761 -0.0958 -0.3115
    6SAPS  H11R  724   2.830   4.818   6.071 -1.0734 -1.1761  0.8948
    6SAPS  C212  725   2.721   4.856   5.888  0.3699  0.5947  0.1514
    6SAPS  H12R  726   2.803   4.813   5.829  1.3546 -1.8306  3.0261
    6SAPS  C213  727   2.596   4.897   5.809  0.2686  0.1171  0.2164
    6SAPS  H13R  728   2.508   4.846   5.852  0.6204  0.0234  0.8473
    6SAPS  H13S  729   2.613   4.873   5.702 -2.3680 -1.2047  0.0236
    6SAPS  C214  730   2.574   5.052   5.821  0.2805  0.0433 -0.2232
    6SAPS  H14R  731   2.669   5.108   5.829  0.6508 -0.7165  0.9851
    6SAPS  C215  732   2.459   5.113   5.818  0.4193 -0.0619  0.2154
    6SAPS  H15R  733   2.454   5.222   5.814  1.4539  0.0045  0.5045
    6SAPS  C216  734   2.323   5.061   5.796  0.0322 -0.0642 -0.5040
    6SAPS  H16R  735   2.247   5.132   5.835  0.6278  0.8235 -0.9184
    6SAPS  H16S  736   2.299   4.965   5.846 -1.3833  0.7902  0.5056
    6SAPS  C217  737   2.290   5.035   5.648  0.1733 -0.4136 -0.2002
    6SAPS  H17R  738   2.189   4.988   5.648 -0.1063  0.1771 -0.0059
    6SAPS  H17S  739   2.373   4.978   5.603  1.9690  2.5196 -0.8656
    6SAPS  C218  740   2.292   5.172   5.567 -0.0360  0.0886  0.0723
    6SAPS  H18R  741   2.400   5.198   5.560  0.9486 -3.2240  1.1846
    6SAPS  H18S  742   2.224   5.243   5.618 -1.0343 -1.7457  1.4306
    6SAPS  C219  743   2.249   5.147   5.417 -0.4289 -0.0468 -0.0579
    6SAPS  H19R  744   2.143   5.120   5.400 -0.7510  2.2007 -2.3110
    6SAPS  H19S  745   2.318   5.067   5.381 -1.5054 -2.0324  2.0143
    6SAPS  C220  746   2.268   5.275   5.335 -0.0127  0.0635 -0.5830
    6SAPS  H20R  747   2.368   5.319   5.351  0.3779 -0.8246 -0.5111
    6SAPS  H20S  748   2.192   5.353   5.356  0.1239  0.3708 -1.1857
    6SAPS  H20T  749   2.267   5.258   5.225 -0.4511  0.6697 -0.6815
    6SAPS   C33  750   2.847   4.122   6.147  0.0296  0.1106  0.1042
    6SAPS   H3X  751   2.774   4.100   6.228 -1.0717 -1.2843 -1.1990
    6SAPS   H3Y  752   2.878   4.016   6.132  0.3601  0.4287 -1.7090
    6SAPS   C34  753   2.781   4.191   6.028  0.5211  0.1550 -0.3876
    6SAPS   H4X  754   2.753   4.291   6.067 -1.4464 -0.3916 -0.2620
    6SAPS   H4Y  755   2.690   4.131   6.005  0.0126  0.8074 -0.1276
    6SAPS   C35  756   2.873   4.191   5.903 -0.9211 -0.4607 -0.3974
    6SAPS   H5X  757   2.938   4.101   5.893 -1.2269 -0.7095 -0.1606
    6SAPS   H5Y  758   2.936   4.282   5.912 -2.9896  0.9206  0.9049
    6SAPS   C36  759   2.800   4.218   5.771  0.4561 -0.3818  0.3211
    6SAPS   H6X  760   2.750   4.316   5.789 -0.4986 -0.9256  0.6920
    6SAPS   H6Y  761   2.726   4.142   5.739  0.6408 -0.0676 -0.8799
    6SAPS   C37  762   2.907   4.242   5.666  0.0649  0.1309 -0.2572
    6SAPS   H7X  763   2.974   4.154   5.672 -0.0971 -0.2653 -3.0425
    6SAPS   H7Y  764   2.963   4.335   5.688  0.9083  0.0650 -1.9908
    6SAPS   C38  765   2.851   4.260   5.528 -0.1515  0.4171  0.5454
    6SAPS   H8X  766   2.772   4.338   5.529 -2.5199 -1.7327 -1.8776
    6SAPS   H8Y  767   2.799   4.164   5.508 -0.0769  0.4595  0.1369
    6SAPS   C39  768   2.960   4.281   5.422 -0.4574  0.4709  0.4485
    6SAPS   H9X  769   3.017   4.186   5.415 -0.6316  0.4729 -4.3316
    6SAPS   H9Y  770   3.023   4.368   5.448 -0.1404  1.0455 -1.9438
    6SAPS  C310  771   2.917   4.307   5.280  0.9948  0.8373  0.4222
    6SAPS  H10X  772   2.861   4.403   5.287  1.2926  1.1050 -0.7103
    6SAPS  H10Y  773   2.846   4.225   5.252  2.4756  0.0600 -1.2597
    6SAPS  C311  774   3.038   4.301   5.187  0.9942 -0.2873  0.4545
    6SAPS  H11X  775   3.099   4.207   5.187  0.2695 -0.7619  0.5263
    6SAPS  H11Y  776   3.108   4.383   5.213 -0.4740  0.8165  1.0063
    6SAPS  C312  777   3.006   4.346   5.041 -0.2587  0.4214 -0.4659
    6SAPS  H12X  778   2.976   4.258   4.979  1.3931 -0.1295 -0.5227
    6SAPS  H12Y  779   3.096   4.394   4.998 -0.2283  1.2079  0.4508
    6SAPS  C313  780   2.890   4.445   5.026  0.0696 -0.0169 -0.6504
    6SAPS  H13X  781   2.889   4.524   5.103  1.6856 -1.0444  0.4851
    6SAPS  H13Y  782   2.799   4.382   5.036  0.9338 -2.1670 -4.0938
    6SAPS  C314  783   2.881   4.496   4.878  0.8241 -0.1460  0.2930
    6SAPS  H14X  784   2.979   4.540   4.852 -0.4386  3.3570  0.8566
    6SAPS  H14Y  785   2.808   4.580   4.883 -2.3224 -2.7363  2.0621
    6SAPS  C315  786   2.822   4.391   4.785  0.3977 -0.7002 -0.3365
    6SAPS  H15X  787   2.729   4.351   4.830 -0.3578  1.5254  0.1957
    6SAPS  H15Y  788   2.889   4.302   4.778 -1.5227 -2.5538  2.5763
    6SAPS  C316  789   2.790   4.448   4.647  0.4189 -0.3910  0.1689
    6SAPS  H16X  790   2.772   4.557   4.655  1.5173 -0.0038 -1.9519
    6SAPS  H16Y  791   2.701   4.397   4.605 -0.2505 -0.2012  1.3182
    6SAPS  C317  792   2.913   4.427   4.555 -0.6639 -0.3711 -0.3453
    6SAPS  H17X  793   2.955   4.324   4.561  2.6214  0.7552 -1.9894
    6SAPS  H17Y  794   2.995   4.495   4.586 -0.3363 -1.6464  1.7692
    6SAPS  C318  795   2.903   4.451   4.406  0.0727 -0.5708 -0.0266
    6SAPS  H18X  796   2.852   4.548   4.387 -0.5994 -0.6221  1.4350
    6SAPS  H18Y  797   2.829   4.381   4.361 -2.9051  1.0152  2.0511
    6SAPS  H18Z  798   2.999   4.448   4.350  1.1382  1.8014  1.5203
    7SAPS     N  799   1.548   0.311   6.555 -0.3908 -0.2810 -0.1043
    7SAPS   HN1  800   1.467   0.255   6.585  0.5620 -1.3182  0.6173
    7SAPS   HN2  801   1.561   0.287   6.454 -4.4597 -1.1193 -0.5697
    7SAPS   HN3  802   1.641   0.297   6.600 -0.4442 -1.0053 -0.2037
    7SAPS   C12  803   1.510   0.450   6.571  0.3110 -0.4633 -0.5599
    7SAPS  H12A  804   1.509   0.495   6.473 -3.4751 -0.9453 -0.9111
    7SAPS   C13  805   1.372   0.467   6.642  0.2166 -0.4380 -0.4433
    7SAPS  O13A  806   1.295   0.370   6.648  0.9772  0.5817 -0.7955
    7SAPS  O13B  807   1.329   0.588   6.662  0.0888  0.1018  0.2416
    7SAPS   C11  808   1.613   0.520   6.675  0.2319  0.5672 -0.3731
    7SAPS  H11A  809   1.605   0.471   6.775 -3.0547  2.4965  0.4464
    7SAPS  H11B  810   1.585   0.627   6.687 -0.5361  0.2074  1.2889
    7SAPS     P  811   1.821   0.590   6.518 -0.3417 -0.1947  0.1502
    7SAPS   O13  812   1.771   0.729   6.516  0.3370 -0.4009  0.0286
    7SAPS   O14  813   1.968   0.568   6.539  0.0407 -0.1328 -0.3720
    7SAPS   O12  814   1.749   0.500   6.627 -0.0570 -0.2626 -0.3885
    7SAPS   O11  815   1.773   0.516   6.386 -0.2539 -0.1710  0.3509
    7SAPS    C1  816   1.690   0.581   6.283  0.0429  0.5578 -0.9297
    7SAPS    HA  817   1.629   0.504   6.231  1.0081  0.5584 -2.1238
    7SAPS    HB  818   1.635   0.664   6.331 -0.7829 -0.3568 -0.2582
    7SAPS    C2  819   1.763   0.634   6.157  0.2624 -0.5376  0.2511
    7SAPS    HS  820   1.684   0.685   6.099  0.8153 -1.9201 -1.8110
    7SAPS   O21  821   1.800   0.526   6.082  0.1227 -0.5702 -0.0924
    7SAPS   C21  822   1.801   0.548   5.952  0.4569  0.1176 -0.7635
    7SAPS   O22  823   1.759   0.648   5.893  0.5394  0.4057 -0.0153
    7SAPS   C22  824   1.858   0.427   5.880  0.1508  0.2432 -0.6510
    7SAPS   H2R  825   1.911   0.371   5.960 -1.4403 -0.4244 -0.0254
    7SAPS   H2S  826   1.779   0.362   5.835  1.7192 -2.3734  0.1647
    7SAPS    C3  827   1.875   0.733   6.187 -0.4996 -0.0823 -0.3586
    7SAPS    HX  828   1.948   0.672   6.245 -0.4273 -1.1958 -1.5520
    7SAPS    HY  829   1.844   0.813   6.256 -2.3518  0.7855 -2.0801
    7SAPS   O31  830   1.954   0.777   6.070  0.5266  0.3393 -0.4176
    7SAPS   C31  831   1.960   0.905   6.045  0.3768  0.5392  0.1710
    7SAPS   O32  832   1.914   0.992   6.118 -0.0759 -0.2965  0.5768
    7SAPS   C32  833   2.035   0.937   5.912  0.3774  1.1605  0.9211
    7SAPS   H2X  834   2.141   0.908   5.928  1.3886  2.8990 -1.9485
    7SAPS   H2Y  835   2.040   1.047   5.897 -1.6689  1.0914 -0.7429
    7SAPS   C23  836   1.962   0.465   5.769  0.2962 -0.2590  0.1029
    7SAPS   H3R  837   2.050   0.514   5.817 -2.0075  3.3354  1.0460
    7SAPS   H3S  838   1.913   0.553   5.723  0.5424  0.4707  1.2027
    7SAPS   C24  839   2.012   0.358   5.671 -0.3429 -0.1145  0.8793
    7SAPS   H4R  840   2.044   0.274   5.736 -1.2341 -0.4192  0.9328
    7SAPS   H4S  841   2.101   0.394   5.615 -2.3813  0.7188 -2.0059
    7SAPS   C25  842   1.910   0.295   5.580  0.3296 -0.2872 -0.0013
    7SAPS   H5R  843   1.859   0.214   5.634  0.1254 -0.5122 -0.5208
    7SAPS   C26  844   1.884   0.323   5.453  0.5023  0.0246 -0.0351
    7SAPS   H6R  845   1.805   0.268   5.399 -0.9249  0.5808  1.4142
    7SAPS   C27  846   1.947   0.431   5.373  0.4118  0.1154  0.3177
    7SAPS   H7R  847   1.984   0.507   5.445  0.6603  1.4267 -1.1426
    7SAPS   H7S  848   1.865   0.481   5.316 -1.8174 -0.2104  3.0425
    7SAPS   C28  849   2.046   0.365   5.279 -0.1680 -0.7877  0.0721
    7SAPS   H8R  850   2.008   0.274   5.230  0.2735 -0.0077 -1.8334
    7SAPS   C29  851   2.172   0.417   5.244  0.5641  0.5749  0.0926
    7SAPS   H9R  852   2.234   0.369   5.167  0.6093  2.7769 -1.3434
    7SAPS  C210  853   2.225   0.549   5.294 -0.7273 -1.2376 -0.1421
    7SAPS  H10R  854   2.145   0.621   5.267  1.4273  0.6407 -1.9468
    7SAPS  H10S  855   2.316   0.569   5.233 -0.8758 -0.0951 -0.0101
    7SAPS  C211  856   2.259   0.573   5.439  0.6478  0.5411  0.3097
    7SAPS  H11R  857   2.196   0.657   5.473  0.4611  2.1281 -3.4889
    7SAPS  C212  858   2.348   0.506   5.519 -0.1564 -0.1300  0.0850
    7SAPS  H12R  859   2.354   0.534   5.625  1.1819  2.8785 -0.6877
    7SAPS  C213  860   2.433   0.387   5.478  0.1094  0.2712  0.0344
    7SAPS  H13R  861   2.486   0.414   5.385 -0.2418 -0.9228 -0.5263
    7SAPS  H13S  862   2.372   0.299   5.449 -1.2297  0.5565  1.7959
    7SAPS  C214  863   2.533   0.334   5.574 -0.0189 -0.2983 -0.5073
    7SAPS  H14R  864   2.522   0.368   5.678  1.0902  0.4557 -0.6206
    7SAPS  C215  865   2.647   0.259   5.553  1.0469  0.0835 -0.0766
    7SAPS  H15R  866   2.684   0.228   5.652 -1.8983 -0.9387  0.8158
    7SAPS  C216  867   2.694   0.190   5.425  0.4266 -0.2900  0.4393
    7SAPS  H16R  868   2.687   0.273   5.352  0.8102  0.1349  0.8838
    7SAPS  H16S  869   2.614   0.115   5.403 -1.1993  1.3290  0.5984
    7SAPS  C217  870   2.834   0.128   5.441 -0.1443 -0.2158  0.3447
    7SAPS  H17R  871   2.834   0.035   5.503  1.7313 -0.6970 -0.3218
    7SAPS  H17S  872   2.911   0.192   5.489  1.3907 -1.3588 -0.4938
    7SAPS  C218  873   2.894   0.104   5.301 -0.6916  0.5146 -0.6554
    7SAPS  H18R  874   2.921   0.201   5.254 -0.5608  1.9726  2.1747
    7SAPS  H18S  875   2.813   0.073   5.232 -1.7615  3.4999 -0.9113
    7SAPS  C219  876   3.005  -0.002   5.303 -0.6610  0.1290  0.4140
    7SAPS  H19R  877   2.951  -0.094   5.334 -2.9206 -0.0323 -3.3035
    7SAPS  H19S  878   3.087   0.010   5.376 -1.7114 -2.8857  2.2650
    7SAPS  C220  879   3.053  -0.043   5.167 -0.1924  0.2035  1.0801
    7SAPS  H20R  880   3.091  -0.147   5.158 -0.8998  0.0920 -1.6746
    7SAPS  H20S  881   3.132   0.030   5.140  0.5887 -0.5179  1.3542
    7SAPS  H20T  882   2.977  -0.032   5.087  1.1361  2.6902  0.0621
    7SAPS   C33  883   1.964   0.860   5.790 -0.5186  0.3362 -0.2908
    7SAPS   H3X  884   1.856   0.883   5.777 -0.4426 -0.1326 -1.9328
    7SAPS   H3Y  885   1.978   0.750   5.799  0.4475  0.3834 -1.0778
    7SAPS   C34  886   2.037   0.888   5.654  0.1150  0.4250  0.7522
    7SAPS   H4X  887   2.140   0.847   5.666  0.5310  0.6007 -1.7605
    7SAPS   H4Y  888   2.044   0.999   5.652 -2.1367  0.6264  1.9135
    7SAPS   C35  889   1.966   0.835   5.526  0.5002 -0.6257 -0.4006
    7SAPS   H5X  890   1.857   0.860   5.525  0.4672 -0.4543  2.0922
    7SAPS   H5Y  891   1.974   0.725   5.520 -0.0267 -0.6753 -0.2882
    7SAPS   C36  892   2.021   0.892   5.396 -0.0507 -0.3957 -0.1807
    7SAPS   H6X  893   2.129   0.863   5.395 -0.4119 -1.8067 -1.2936
    7SAPS   H6Y  894   2.014   1.003   5.392  1.3416 -0.3127 -0.9485
    7SAPS   C37  895   1.958   0.834   5.276  0.6034  0.9934  0.0002
    7SAPS   H7X  896   1.855   0.872   5.256  0.0138  0.7650  2.2392
    7SAPS   H7Y  897   1.935   0.725   5.286 -0.9921  1.3398  0.4173
    7SAPS   C38  898   2.039   0.865   5.147 -0.1113  1.1917  0.3594
    7SAPS   H8X  899   2.140   0.820   5.157 -0.7224 -0.2492  0.3103
    7SAPS   H8Y  900   2.051   0.975   5.132  0.8778  1.0120 -0.2913
    7SAPS   C39  901   1.978   0.804   5.024 -0.1843 -0.1730  0.3389
    7SAPS   H9X  902   1.880   0.856   5.008 -1.1254 -1.5110  1.4710
    7SAPS   H9Y  903   1.942   0.701   5.045  0.2909 -0.2791  0.6417
    7SAPS  C310  904   2.067   0.827   4.904 -0.2694 -0.5048 -0.3065
    7SAPS  H10X  905   2.166   0.786   4.934 -1.0631 -2.3704 -0.1653
    7SAPS  H10Y  906   2.066   0.932   4.867 -2.1347 -0.8910 -1.4523
    7SAPS  C311  907   2.024   0.742   4.782  0.1719  0.7353 -0.7060
    7SAPS  H11X  908   2.024   0.636   4.815 -2.0054  0.4715 -1.3461
    7SAPS  H11Y  909   2.094   0.742   4.695 -0.3747 -1.1683 -1.1975
    7SAPS  C312  910   1.874   0.747   4.737 -0.3251  0.2121 -0.1005
    7SAPS  H12X  911   1.864   0.851   4.698 -2.5213 -0.3968 -1.3240
    7SAPS  H12Y  912   1.802   0.745   4.822  1.6505 -2.0781  1.6535
    7SAPS  C313  913   1.832   0.637   4.639  0.2672  0.4974 -0.5762
    7SAPS  H13X  914   1.857   0.538   4.685  0.6654  0.6385 -0.4857
    7SAPS  H13Y  915   1.896   0.644   4.548 -0.1435 -0.2505 -0.9342
    7SAPS  C314  916   1.687   0.641   4.600  0.1517 -0.5406 -0.0493
    7SAPS  H14X  917   1.659   0.749   4.596  0.5470 -0.4584 -1.0304
    7SAPS  H14Y  918   1.627   0.571   4.661  1.0815 -1.4337 -0.1333
    7SAPS  C315  919   1.671   0.580   4.452  0.3120 -0.9709 -0.8138
    7SAPS  H15X  920   1.695   0.667   4.386 -0.4296  0.7608  1.0799
    7SAPS  H15Y  921   1.560   0.572   4.447  0.0143  0.0785  2.2561
    7SAPS  C316  922   1.747   0.447   4.434 -0.0677  0.0559  0.3148
    7SAPS  H16X  923   1.708   0.378   4.512 -0.4714  1.2531  1.2026
    7SAPS  H16Y  924   1.858   0.458   4.439  0.1256 -1.5533 -0.0356
    7SAPS  C317  925   1.736   0.401   4.287 -0.6507 -0.2083  0.7583
    7SAPS  H17X  926   1.815   0.458   4.233  1.3853 -1.7714  1.9476
    7SAPS  H17Y  927   1.632   0.412   4.248 -0.2522 -3.4602 -1.7631
    7SAPS  C318  928   1.759   0.253   4.279 -0.1226  0.4803  0.8148
    7SAPS  H18X  929   1.705   0.218   4.188 -0.8143  1.6210  0.7611
    7SAPS  H18Y  930   1.717   0.200   4.367  0.4819 -0.5377  0.5109
    7SAPS  H18Z  931   1.864   0.218   4.272 -0.1202  0.2898  1.7211
    8SAPS     N  932   1.649   1.370   6.697  0.5225 -0.1849 -0.4358
    8SAPS   HN1  933   1.561   1.423   6.707  0.6071  0.0275 -0.7923
    8SAPS   HN2  934   1.672   1.368   6.595  0.8983  2.1144 -0.4359
    8SAPS   HN3  935   1.646   1.269   6.724 -1.0401 -0.5880 -1.9535
    8SAPS   C12  936   1.749   1.439   6.780  0.3847 -0.2196  0.2732
    8SAPS  H12A  937   1.767   1.536   6.738 -1.7586 -0.0675 -0.4294
    8SAPS   C13  938   1.704   1.459   6.924  0.4532  0.7219 -0.0388
    8SAPS  O13A  939   1.594   1.419   6.964  0.2187 -0.0232 -0.1972
    8SAPS  O13B  940   1.777   1.532   6.996 -0.6058  0.0111 -0.4814
    8SAPS   C11  941   1.883   1.360   6.775  0.7029 -0.0534  0.2289
    8SAPS  H11A  942   1.868   1.255   6.808 -0.8327  0.1673  0.3178
    8SAPS  H11B  943   1.948   1.400   6.856  0.3527 -1.0840  1.0457
    8SAPS     P  944   2.072   1.455   6.630  0.3297 -0.1869 -0.3124
    8SAPS   O13  945   2.019   1.593   6.661  0.8305 -0.3627  0.2199
    8SAPS   O14  946   2.186   1.406   6.705  0.0566  0.1691 -0.4297
    8SAPS   O12  947   1.946   1.359   6.648  0.0773  0.4861 -0.3273
    8SAPS   O11  948   2.109   1.446   6.481 -0.3178 -0.7800 -0.1527
    8SAPS    C1  949   2.009   1.484   6.382  0.0798  0.3208  0.5584
    8SAPS    HA  950   1.983   1.393   6.324 -0.3911 -0.0780  1.3779
    8SAPS    HB  951   1.912   1.519   6.423  1.1561  2.7206  1.2419
    8SAPS    C2  952   2.061   1.590   6.280  0.3871 -0.1654  0.6004
    8SAPS    HS  953   1.983   1.608   6.203 -0.6252 -0.2119  1.5892
    8SAPS   O21  954   2.183   1.550   6.214 -0.4608 -0.1327 -0.0403
    8SAPS   C21  955   2.179   1.453   6.129  0.2872 -1.4285 -0.5527
    8SAPS   O22  956   2.081   1.387   6.099 -0.2731 -0.4362 -0.5546
    8SAPS   C22  957   2.328   1.446   6.070 -0.0721 -0.1504 -0.3564
    8SAPS   H2R  958   2.384   1.540   6.088  0.9095 -1.1740  2.6993
    8SAPS   H2S  959   2.386   1.376   6.134  1.8246  1.6136 -0.0487
    8SAPS    C3  960   2.102   1.717   6.356  0.6119  0.0287 -0.0575
    8SAPS    HX  961   2.163   1.700   6.448  1.3682  1.9936 -0.1467
    8SAPS    HY  962   2.011   1.765   6.396  0.1482  0.9136 -2.0395
    8SAPS   O31  963   2.180   1.816   6.287 -0.1072  0.3411 -0.8806
    8SAPS   C31  964   2.109   1.877   6.197 -0.7554 -0.5905 -0.0762
    8SAPS   O32  965   1.994   1.881   6.193  0.0527 -0.4427 -0.1078
    8SAPS   C32  966   2.205   1.949   6.100 -0.4066  0.0633 -0.6546
    8SAPS   H2X  967   2.298   1.888   6.093 -1.4414 -1.9641  1.6560
    8SAPS   H2Y  968   2.230   2.047   6.148  1.2002  0.6794 -2.6017
    8SAPS   C23  969   2.312   1.417   5.921 -0.6288  0.2444 -0.6509
    8SAPS   H3R  970   2.256   1.500   5.872  1.4134  0.1699 -3.3523
    8SAPS   H3S  971   2.265   1.317   5.903 -1.1705  0.8065 -2.6901
    8SAPS   C24  972   2.453   1.405   5.849  0.3770 -0.2657 -0.6542
    8SAPS   H4R  973   2.433   1.352   5.754  0.1899 -1.5656  0.0966
    8SAPS   H4S  974   2.525   1.342   5.906  0.8225 -1.5730 -2.5702
    8SAPS   C25  975   2.500   1.543   5.822 -0.0210  0.3500 -0.6062
    8SAPS   H5R  976   2.474   1.616   5.900 -0.1591 -0.8832  0.5441
    8SAPS   C26  977   2.528   1.602   5.703  0.3329  0.7084 -0.8468
    8SAPS   H6R  978   2.554   1.709   5.701 -2.4883  1.4857 -1.1659
    8SAPS   C27  979   2.526   1.539   5.571 -0.0116  0.3179 -0.3238
    8SAPS   H7R  980   2.456   1.599   5.509 -0.6605  0.8138  0.8579
    8SAPS   H7S  981   2.486   1.435   5.573  1.0748 -0.1777 -2.1585
    8SAPS   C28  982   2.669   1.532   5.520  0.4952  0.2586 -0.0485
    8SAPS   H8R  983   2.748   1.562   5.591  0.1599 -1.6263  1.2000
    8SAPS   C29  984   2.694   1.529   5.389  0.3398  0.5570 -1.2397
    8SAPS   H9R  985   2.799   1.527   5.357  0.5241 -1.5333 -0.6491
    8SAPS  C210  986   2.584   1.514   5.285 -0.2091  0.6792  0.6972
    8SAPS  H10R  987   2.542   1.614   5.260 -0.7007  0.2233 -0.3340
    8SAPS  H10S  988   2.502   1.449   5.324 -1.5040  2.0939  0.4401
    8SAPS  C211  989   2.634   1.451   5.154  0.1414 -0.2329 -0.4157
    8SAPS  H11R  990   2.736   1.477   5.124  0.2779 -2.1688 -1.8335
    8SAPS  C212  991   2.568   1.379   5.059 -0.3166  0.5490 -0.1859
    8SAPS  H12R  992   2.629   1.344   4.975  1.6144 -1.7243  1.9909
    8SAPS  C213  993   2.428   1.330   5.057  0.6299  0.0142  0.0183
    8SAPS  H13R  994   2.398   1.339   4.951  2.9713 -0.1830 -0.6972
    8SAPS  H13S  995   2.358   1.400   5.109  0.7848  1.2149 -1.3424
    8SAPS  C214  996   2.436   1.191   5.111 -0.2647  0.4035 -0.3695
    8SAPS  H14R  997   2.511   1.132   5.058  0.4672  2.1430 -1.3444
    8SAPS  C215  998   2.363   1.136   5.211  0.9048  0.7182  0.5941
    8SAPS  H15R  999   2.388   1.035   5.249  1.3111  0.4850 -0.2593
    8SAPS  C216 1000   2.261   1.210   5.294 -0.2295 -0.4899 -0.1991
    8SAPS  H16R 1001   2.164   1.156   5.286 -0.3358 -0.5691  1.3359
    8SAPS  H16S 1002   2.225   1.310   5.263 -0.5426 -0.7877 -0.8317
    8SAPS  C217 1003   2.300   1.226   5.433  0.1975 -0.1632  0.0006
    8SAPS  H17R 1004   2.378   1.306   5.440 -0.1666  0.1773  0.2184
    8SAPS  H17S 1005   2.354   1.134   5.467 -1.8478 -1.6443 -0.5957
    8SAPS  C218 1006   2.196   1.248   5.537  0.7324 -0.0797 -0.6210
    8SAPS  H18R 1007   2.226   1.223   5.641 -0.3385  0.0360 -0.2747
    8SAPS  H18S 1008   2.117   1.176   5.509  2.1205 -1.0105 -2.3091
    8SAPS  C219 1009   2.141   1.392   5.528 -0.1180  0.2704  0.6166
    8SAPS  H19R 1010   2.089   1.417   5.433 -1.2359  0.6614  1.3089
    8SAPS  H19S 1011   2.217   1.473   5.530  0.1520  0.0394 -0.0223
    8SAPS  C220 1012   2.046   1.419   5.646  0.0819 -0.0339 -0.8622
    8SAPS  H20R 1013   2.027   1.528   5.635 -0.2958  0.0125  0.1160
    8SAPS  H20S 1014   2.097   1.405   5.743  0.7045 -0.8816 -1.2985
    8SAPS  H20T 1015   1.951   1.362   5.638 -0.7674  1.2350 -0.1503
    8SAPS   C33 1016   2.145   1.964   5.955 -0.0392 -0.0625  0.1912
    8SAPS   H3X 1017   2.197   2.041   5.895 -0.8487  0.0978 -0.3239
    8SAPS   H3Y 1018   2.034   1.976   5.964  0.1574  2.1526  0.2895
    8SAPS   C34 1019   2.165   1.830   5.878  0.2261  0.0185  0.5521
    8SAPS   H4X 1020   2.156   1.747   5.951 -2.2774 -0.1895  0.1208
    8SAPS   H4Y 1021   2.262   1.834   5.824 -0.4839  1.5268 -0.6883
    8SAPS   C35 1022   2.059   1.816   5.762  0.8120  0.3126 -0.6604
    8SAPS   H5X 1023   1.952   1.822   5.794  1.7974  1.6864  2.9422
    8SAPS   H5Y 1024   2.089   1.715   5.726  0.1110 -0.1138 -0.0923
    8SAPS   C36 1025   2.080   1.896   5.637  0.1017  0.3184 -0.2617
    8SAPS   H6X 1026   2.186   1.892   5.604  0.0561  0.3407 -0.4132
    8SAPS   H6Y 1027   2.060   2.002   5.663  0.1243  0.4103 -0.6113
    8SAPS   C37 1028   1.994   1.844   5.519  1.0259 -1.3877  0.1004
    8SAPS   H7X 1029   1.886   1.867   5.536  1.5536  1.8955 -0.1771
    8SAPS   H7Y 1030   2.006   1.735   5.506 -0.9739 -1.3820 -2.5657
    8SAPS   C38 1031   2.024   1.911   5.387  0.0879  0.1350  0.3073
    8SAPS   H8X 1032   2.117   1.872   5.341  2.3341  1.8072  3.0906
    8SAPS   H8Y 1033   2.045   2.020   5.391  2.7826 -0.0700 -3.3421
    8SAPS   C39 1034   1.916   1.880   5.285 -0.1714  0.2248 -0.0089
    8SAPS   H9X 1035   1.819   1.920   5.321 -0.3757 -0.4464  0.1834
    8SAPS   H9Y 1036   1.895   1.771   5.281  0.3066  0.1376 -0.1820
    8SAPS  C310 1037   1.948   1.940   5.144  0.2873  0.2377 -0.4242
    8SAPS  H10X 1038   2.043   1.900   5.103 -0.6952 -1.9477 -0.7319
    8SAPS  H10Y 1039   1.955   2.050   5.142 -1.4701  0.3844 -1.2359
    8SAPS  C311 1040   1.842   1.898   5.047  0.7079 -0.5510 -0.0942
    8SAPS  H11X 1041   1.759   1.952   5.097  1.2107 -0.6843  0.9023
    8SAPS  H11Y 1042   1.836   1.787   5.052  1.7943 -0.6320 -0.4099
    8SAPS  C312 1043   1.872   1.941   4.900  0.2143 -0.2956  0.1425
    8SAPS  H12X 1044   1.961   1.879   4.875 -0.2607 -1.0912  0.3793
    8SAPS  H12Y 1045   1.905   2.047   4.907 -1.5110  0.1732  3.4820
    8SAPS  C313 1046   1.752   1.926   4.808  0.2644  0.1175 -0.0833
    8SAPS  H13X 1047   1.672   1.971   4.870  2.5179 -0.2785  3.4146
    8SAPS  H13Y 1048   1.718   1.820   4.801  0.1156  0.0328  1.5302
    8SAPS  C314 1049   1.785   1.989   4.675 -0.3895  0.3917  0.2874
    8SAPS  H14X 1050   1.817   2.094   4.689  0.6963  0.0659  0.3506
    8SAPS  H14Y 1051   1.689   1.980   4.619  1.0086  0.8438 -2.3283
    8SAPS  C315 1052   1.899   1.937   4.586  1.1044 -0.5166 -0.4817
    8SAPS  H15X 1053   1.871   1.832   4.560 -0.8985 -0.4128  0.9714
    8SAPS  H15Y 1054   1.984   1.952   4.656 -2.5571  1.6245  4.0257
    8SAPS  C316 1055   1.908   2.005   4.450  0.1745  0.3329 -0.8283
    8SAPS  H16X 1056   1.918   2.114   4.469  0.3529  0.4679 -1.6622
    8SAPS  H16Y 1057   1.815   1.988   4.392 -0.5705 -0.6560  0.5913
    8SAPS  C317 1058   2.023   1.949   4.369  0.2079 -0.7217  0.5024
    8SAPS  H17X 1059   2.000   1.854   4.316 -2.1988 -0.9098  1.7600
    8SAPS  H17Y 1060   2.098   1.928   4.448  0.1672  0.4737  0.8674
    8SAPS  C318 1061   2.075   2.063   4.290 -0.3168  0.0411  0.0828
    8SAPS  H18X 1062   2.110   2.147   4.355  2.5143 -0.2017 -0.9755
    8SAPS  H18Y 1063   2.001   2.100   4.217 -0.8108  3.0498  1.9206
    8SAPS  H18Z 1064   2.163   2.036   4.228  0.5534  1.0142  0.8358
    9SAPS     N 1065   1.331   4.781   7.076 -0.5237  0.1945 -0.0653
    9SAPS   HN1 1066   1.409   4.832   7.124  0.4963 -1.0012 -0.3983
    9SAPS   HN2 1067   1.375   4.694   7.040  0.1561  1.2325 -1.8737
    9SAPS   HN3 1068   1.288   4.826   6.993  0.0906  0.4454 -0.2542
    9SAPS   C12 1069   1.220   4.739   7.168 -0.2502  0.4938 -0.0119
    9SAPS  H12A 1070   1.264   4.675   7.243  2.0248  0.4197 -1.3162
    9SAPS   C13 1071   1.156   4.857   7.242  0.3071 -0.0191  0.3642
    9SAPS  O13A 1072   1.203   4.972   7.229 -0.7145  0.7183  0.6588
    9SAPS  O13B 1073   1.076   4.829   7.333  0.3870  0.1677 -0.5841
    9SAPS   C11 1074   1.103   4.674   7.076 -0.7331  0.4555 -0.9288
    9SAPS  H11A 1075   1.075   4.756   7.006 -0.5570  2.1459  0.8781
    9SAPS  H11B 1076   1.016   4.650   7.140  0.5735  0.7372  1.0135
    9SAPS     P 1077   1.042   4.473   6.928 -0.1652 -0.1813  0.3857
    9SAPS   O13 1078   1.021   4.353   7.013 -0.1094 -0.0758 -0.4667
    9SAPS   O14 1079   0.919   4.541   6.892  0.3478 -0.5125  0.7050
    9SAPS   O12 1080   1.151   4.567   7.002  0.7189 -0.7346  0.4060
    9SAPS   O11 1081   1.113   4.431   6.791  0.7870 -0.1373 -0.6519
    9SAPS    C1 1082   1.229   4.486   6.739 -0.5509 -0.1406 -0.3719
    9SAPS    HA 1083   1.260   4.581   6.788 -0.2418  0.4751 -1.6858
    9SAPS    HB 1084   1.317   4.422   6.762 -1.4771 -1.3951 -0.2659
    9SAPS    C2 1085   1.212   4.517   6.582  0.0406 -0.4127 -0.3242
    9SAPS    HS 1086   1.285   4.588   6.539 -0.2538  0.3719  0.4442
    9SAPS   O21 1087   1.078   4.572   6.561 -0.4703 -0.0792 -0.0968
    9SAPS   C21 1088   1.062   4.703   6.580  0.2940  0.5134  0.0352
    9SAPS   O22 1089   1.153   4.776   6.615 -0.9656 -0.2129  0.1135
    9SAPS   C22 1090   0.915   4.739   6.547 -0.0249  0.1014  0.4874
    9SAPS   H2R 1091   0.870   4.680   6.464 -3.7043 -0.2442  2.5133
    9SAPS   H2S 1092   0.848   4.724   6.634 -1.3247  1.7482 -0.1710
    9SAPS    C3 1093   1.229   4.375   6.506  0.5513 -0.8324  0.3606
    9SAPS    HX 1094   1.157   4.306   6.553  0.9561 -0.9856  0.7635
    9SAPS    HY 1095   1.323   4.323   6.531  0.3857 -1.8917 -1.0720
    9SAPS   O31 1096   1.200   4.379   6.363 -0.0997  0.4733  0.0032
    9SAPS   C31 1097   1.303   4.425   6.289  0.4689  0.3748 -0.1772
    9SAPS   O32 1098   1.402   4.469   6.332 -0.3114 -0.1964 -0.2868
    9SAPS   C32 1099   1.273   4.426   6.146 -0.4865  0.5051  1.0019
    9SAPS   H2X 1100   1.330   4.508   6.097 -0.8069  0.9156  1.2969
    9SAPS   H2Y 1101   1.164   4.445   6.137 -0.7493 -0.1643  2.4819
    9SAPS   C23 1102   0.913   4.885   6.508  0.2606  0.0070 -0.4274
    9SAPS   H3R 1103   0.973   4.894   6.415  1.5669 -4.3548 -0.2406
    9SAPS   H3S 1104   0.955   4.949   6.589  0.5556  1.1130 -1.4203
    9SAPS   C24 1105   0.771   4.937   6.488  0.1433  1.0959  0.2679
    9SAPS   H4R 1106   0.717   4.899   6.578 -0.2174 -0.0603 -0.4192
    9SAPS   H4S 1107   0.731   4.887   6.398 -2.5807  0.6886  1.5828
    9SAPS   C25 1108   0.760   5.087   6.471 -0.3505  0.3337 -0.1023
    9SAPS   H5R 1109   0.754   5.149   6.562  2.0154  2.6709 -1.4375
    9SAPS   C26 1110   0.763   5.152   6.353 -0.1097  0.6135 -0.3317
    9SAPS   H6R 1111   0.763   5.262   6.362 -0.8907  0.5637  0.3365
    9SAPS   C27 1112   0.776   5.096   6.218 -0.2764  0.1004 -0.6040
    9SAPS   H7R 1113   0.753   4.987   6.222 -4.2415  0.6755 -2.4034
    9SAPS   H7S 1114   0.878   5.111   6.177  0.8497 -1.8748  1.2839
    9SAPS   C28 1115   0.676   5.137   6.115  0.5057 -1.1531  0.3652
    9SAPS   H8R 1116   0.574   5.148   6.154  0.6676  1.5144  0.2315
    9SAPS   C29 1117   0.696   5.194   5.989 -0.5250  0.2403 -0.7674
    9SAPS   H9R 1118   0.613   5.221   5.922  0.1374  0.3319 -1.5588
    9SAPS  C210 1119   0.827   5.212   5.915 -0.2416  0.0633  0.3389
    9SAPS  H10R 1120   0.815   5.171   5.812 -1.1653  0.9442  0.0794
    9SAPS  H10S 1121   0.905   5.152   5.966 -0.1263  0.4985  0.6852
    9SAPS  C211 1122   0.864   5.356   5.918 -0.1834 -0.6227 -0.3374
    9SAPS  H11R 1123   0.875   5.396   6.020 -1.6827 -1.5258  0.2235
    9SAPS  C212 1124   0.895   5.439   5.811  0.7917  0.3313 -0.1250
    9SAPS  H12R 1125   0.911   5.548   5.816 -2.0584  0.8009  1.0633
    9SAPS  C213 1126   0.858   5.394   5.672 -0.1752  0.0476 -0.0059
    9SAPS  H13R 1127   0.761   5.339   5.665 -0.8540  0.8770  2.0161
    9SAPS  H13S 1128   0.921   5.310   5.638 -2.0946 -2.3248  1.9261
    9SAPS  C214 1129   0.848   5.508   5.564 -0.9624  0.3138  0.2962
    9SAPS  H14R 1130   0.769   5.583   5.577 -0.4836  0.4873  2.5635
    9SAPS  C215 1131   0.914   5.519   5.448  0.5159  0.3183 -0.0758
    9SAPS  H15R 1132   0.891   5.609   5.389 -0.5598  0.5559  0.6792
    9SAPS  C216 1133   1.011   5.416   5.390 -0.9182 -0.0972  0.3365
    9SAPS  H16R 1134   1.007   5.320   5.447  1.6611  1.3475  3.2133
    9SAPS  H16S 1135   1.115   5.455   5.389 -1.2563  0.8245  0.2298
    9SAPS  C217 1136   1.001   5.380   5.242  0.2235  0.6027 -0.6306
    9SAPS  H17R 1137   0.898   5.339   5.231 -0.7741  2.8661 -0.2184
    9SAPS  H17S 1138   1.065   5.295   5.211  0.7377 -0.5624  3.0388
    9SAPS  C218 1139   1.015   5.488   5.137  0.5853  0.1494 -0.2759
    9SAPS  H18R 1140   1.114   5.539   5.146  1.5328 -1.7720  0.8278
    9SAPS  H18S 1141   0.933   5.562   5.150 -2.5237 -2.9605 -0.6430
    9SAPS  C219 1142   0.997   5.424   4.999  0.2113 -0.2472 -0.2077
    9SAPS  H19R 1143   0.899   5.372   5.004 -0.1115  0.3077 -0.6603
    9SAPS  H19S 1144   1.068   5.342   4.973  0.6520  0.2341 -0.5445
    9SAPS  C220 1145   0.990   5.534   4.886 -0.3353  0.6901  0.5326
    9SAPS  H20R 1146   1.084   5.592   4.893  0.8980 -1.1966  0.5226
    9SAPS  H20S 1147   0.899   5.598   4.894 -2.5144 -1.7958 -2.0599
    9SAPS  H20T 1148   0.986   5.488   4.785  0.2507 -0.0004  0.8195
    9SAPS   C33 1149   1.315   4.292   6.084  0.2572 -0.2564  0.1630
    9SAPS   H3X 1150   1.252   4.210   6.123  0.9645 -1.2439 -0.7022
    9SAPS   H3Y 1151   1.421   4.270   6.109  0.1496  0.9330  1.8090
    9SAPS   C34 1152   1.307   4.278   5.931 -0.2778  0.5740 -0.8428
    9SAPS   H4X 1153   1.334   4.173   5.907  0.8252  0.5245  0.4603
    9SAPS   H4Y 1154   1.384   4.346   5.890  2.2721 -1.2563  0.6711
    9SAPS   C35 1155   1.163   4.295   5.876 -0.2947 -0.1885  0.1510
    9SAPS   H5X 1156   1.124   4.398   5.894 -0.3304 -0.1471 -0.1570
    9SAPS   H5Y 1157   1.090   4.228   5.926  1.2872 -0.9130  1.5792
    9SAPS   C36 1158   1.144   4.266   5.728 -0.4012 -0.4382 -0.1670
    9SAPS   H6X 1159   1.168   4.161   5.702  2.3658 -0.1113  0.6702
    9SAPS   H6Y 1160   1.222   4.330   5.681  2.4786 -1.9127  2.2425
    9SAPS   C37 1161   0.999   4.307   5.679  0.5752 -0.5085 -0.8471
    9SAPS   H7X 1162   0.989   4.417   5.695 -1.9778 -0.7797 -0.0067
    9SAPS   H7Y 1163   0.924   4.267   5.751 -2.0036  3.1627 -1.1803
    9SAPS   C38 1164   0.978   4.267   5.531  0.0794 -0.0388 -0.9016
    9SAPS   H8X 1165   0.881   4.313   5.503 -0.6202 -1.3665 -0.7210
    9SAPS   H8Y 1166   0.962   4.157   5.527 -1.5834  0.1618 -0.6834
    9SAPS   C39 1167   1.085   4.319   5.442 -0.9445  0.3937 -0.4170
    9SAPS   H9X 1168   1.179   4.261   5.453 -1.2337 -0.0290 -0.1160
    9SAPS   H9Y 1169   1.111   4.425   5.462 -0.0007 -0.0027  0.5549
    9SAPS  C310 1170   1.044   4.319   5.291 -0.5712 -0.6324 -0.4620
    9SAPS  H10X 1171   0.993   4.408   5.248  1.3670 -0.5639 -2.8448
    9SAPS  H10Y 1172   0.979   4.230   5.275  0.9477 -2.2816  1.9427
    9SAPS  C311 1173   1.171   4.316   5.197  0.2224 -0.9757  0.0892
    9SAPS  H11X 1174   1.224   4.225   5.233  0.0239 -1.2034 -0.1946
    9SAPS  H11Y 1175   1.244   4.395   5.224 -0.2331  0.2505 -2.0880
    9SAPS  C312 1176   1.131   4.292   5.050 -0.0137  0.3887 -0.4717
    9SAPS  H12X 1177   1.029   4.251   5.042 -1.3815  3.3362  0.4297
    9SAPS  H12Y 1178   1.210   4.232   4.999 -0.7515 -0.2751 -0.8472
    9SAPS  C313 1179   1.132   4.422   4.967 -0.2111  0.9962 -0.0831
    9SAPS  H13X 1180   1.225   4.478   4.991 -0.1353  1.1028 -0.6141
    9SAPS  H13Y 1181   1.071   4.507   5.004  0.7220  1.6596 -0.0499
    9SAPS  C314 1182   1.106   4.397   4.816  0.4287 -0.1395 -0.0782
    9SAPS  H14X 1183   1.002   4.361   4.806  0.0462  0.4108  1.5378
    9SAPS  H14Y 1184   1.184   4.324   4.785 -0.7699 -1.6602  0.3623
    9SAPS  C315 1185   1.118   4.528   4.737 -0.3746  0.4810  0.1383
    9SAPS  H15X 1186   1.221   4.568   4.748 -0.2203  0.0528  0.2770
    9SAPS  H15Y 1187   1.046   4.599   4.784  0.0916  0.5987  0.6933
    9SAPS  C316 1188   1.069   4.518   4.593  0.4367 -0.5099 -0.0323
    9SAPS  H16X 1189   0.967   4.474   4.588 -0.4185  1.4683 -1.0216
    9SAPS  H16Y 1190   1.141   4.451   4.541  1.8899  0.7272  0.3207
    9SAPS  C317 1191   1.062   4.651   4.517 -0.1041 -0.1867 -0.0178
    9SAPS  H17X 1192   1.158   4.700   4.489 -0.0470 -1.5400 -2.5112
    9SAPS  H17Y 1193   1.000   4.712   4.587 -2.1438 -1.5235 -0.5740
    9SAPS  C318 1194   0.979   4.651   4.379  0.8300  0.0468 -0.6434
    9SAPS  H18X 1195   0.872   4.629   4.400  0.6025  2.8032  1.5521
    9SAPS  H18Y 1196   1.017   4.567   4.316 -0.6296 -0.7377 -0.5360
    9SAPS  H18Z 1197   0.988   4.748   4.327  1.1481  0.5700  0.3739
   10SAPS     N 1198   2.090   4.812   7.225 -0.0587  0.0449  0.4497
   10SAPS   HN1 1199   2.095   4.803   7.121 -0.7687  2.5586  0.1454
   10SAPS   HN2 1200   2.167   4.877   7.251  2.0126 -0.5979 -3.2526
   10SAPS   HN3 1201   2.117   4.719   7.265  3.0389 -0.2614 -1.9455
   10SAPS   C12 1202   1.954   4.857   7.257  0.5325  0.1276 -0.2677
   10SAPS  H12A 1203   1.909   4.765   7.291 -0.9286  1.1150  0.5520
   10SAPS   C13 1204   1.948   4.959   7.373 -0.2143 -0.1982  0.1191
   10SAPS  O13A 1205   2.049   4.987   7.443 -0.5128 -0.0064 -0.4990
   10SAPS  O13B 1206   1.840   5.019   7.386  0.4775 -0.3846  0.0838
   10SAPS   C11 1207   1.885   4.903   7.129  0.2802  0.2100 -0.4828
   10SAPS  H11A 1208   1.935   4.999   7.105  1.0310 -0.4499 -1.6251
   10SAPS  H11B 1209   1.779   4.936   7.144 -0.0169 -1.0468  0.3981
   10SAPS     P 1210   1.788   4.733   6.956 -0.2967  0.0927 -0.4300
   10SAPS   O13 1211   1.833   4.643   6.851  0.5129  0.2202 -0.4393
   10SAPS   O14 1212   1.720   4.673   7.078  0.5107  0.0670  0.4841
   10SAPS   O12 1213   1.918   4.815   7.022  0.7502  0.0513  0.1717
   10SAPS   O11 1214   1.692   4.846   6.902  0.6598 -0.2501 -0.0492
   10SAPS    C1 1215   1.735   4.938   6.807  0.3571 -0.4309 -0.0279
   10SAPS    HA 1216   1.682   5.035   6.799  0.1695 -0.4317  0.9926
   10SAPS    HB 1217   1.845   4.953   6.798  0.1503 -0.0715 -2.8619
   10SAPS    C2 1218   1.699   4.873   6.670  0.3687 -0.4350  0.1983
   10SAPS    HS 1219   1.752   4.775   6.676  0.4716 -0.3131  1.4954
   10SAPS   O21 1220   1.744   4.949   6.555 -0.3488 -0.4691 -0.0297
   10SAPS   C21 1221   1.774   4.872   6.449 -0.0422 -0.2401 -0.9302
   10SAPS   O22 1222   1.770   4.752   6.447  0.1366 -0.2037 -0.0783
   10SAPS   C22 1223   1.811   4.959   6.327 -0.1806  0.5962 -0.2225
   10SAPS   H2R 1224   1.717   5.016   6.312 -1.5797 -1.7202 -0.8818
   10SAPS   H2S 1225   1.892   5.028   6.358  0.6403 -1.0063  1.4237
   10SAPS    C3 1226   1.547   4.840   6.666  0.7139  0.8712  0.9185
   10SAPS    HX 1227   1.483   4.916   6.716  1.5830  2.1523  0.1435
   10SAPS    HY 1228   1.526   4.763   6.744 -0.2633  1.5347  1.3358
   10SAPS   O31 1229   1.494   4.799   6.534 -0.0437 -0.0978 -0.0480
   10SAPS   C31 1230   1.427   4.890   6.461  0.0717  0.2918 -0.1749
   10SAPS   O32 1231   1.409   5.005   6.491 -0.9310 -0.0778  0.2483
   10SAPS   C32 1232   1.373   4.828   6.339 -0.1877  0.0158 -0.1417
   10SAPS   H2X 1233   1.290   4.762   6.372 -0.7884  1.2026  0.7838
   10SAPS   H2Y 1234   1.454   4.764   6.297 -0.9894 -0.9792 -0.1975
   10SAPS   C23 1235   1.856   4.883   6.204  0.3385  0.1930  0.5605
   10SAPS   H3R 1236   1.784   4.812   6.159 -0.2713  1.8264 -1.1429
   10SAPS   H3S 1237   1.941   4.821   6.240  1.2362  0.0450 -1.6538
   10SAPS   C24 1238   1.896   4.990   6.103  0.4257  0.4375  0.8225
   10SAPS   H4R 1239   1.969   5.056   6.155  2.3315  0.4046 -1.5882
   10SAPS   H4S 1240   1.816   5.063   6.079 -0.0437  0.0029  1.0598
   10SAPS   C25 1241   1.975   4.941   5.977  0.5353 -0.7100  0.0244
   10SAPS   H5R 1242   2.085   4.948   5.984  0.4340 -0.0359  1.3250
   10SAPS   C26 1243   1.918   4.918   5.856  0.5808  0.2614  0.3131
   10SAPS   H6R 1244   1.969   4.882   5.766 -0.0894 -1.3756  0.5458
   10SAPS   C27 1245   1.763   4.926   5.843  0.5438  0.3938  0.0447
   10SAPS   H7R 1246   1.714   4.910   5.942 -1.9290 -0.3127 -1.2082
   10SAPS   H7S 1247   1.725   4.835   5.793  0.4927 -0.3244  1.3446
   10SAPS   C28 1248   1.726   5.051   5.768  0.4857 -0.6451  0.8417
   10SAPS   H8R 1249   1.729   5.147   5.822  1.5360 -0.1031 -0.1305
   10SAPS   C29 1250   1.682   5.045   5.639  0.4032 -0.2308  0.1345
   10SAPS   H9R 1251   1.656   5.140   5.589  2.2279 -1.5005 -3.5416
   10SAPS  C210 1252   1.660   4.929   5.542 -0.3463  0.0114  0.4780
   10SAPS  H10R 1253   1.617   4.972   5.449 -0.2139  1.0007  0.8569
   10SAPS  H10S 1254   1.579   4.863   5.580  0.7050 -1.5429  0.0773
   10SAPS  C211 1255   1.788   4.851   5.516  0.7550  1.0078  0.0117
   10SAPS  H11R 1256   1.819   4.782   5.595 -1.0428  0.8952  0.6579
   10SAPS  C212 1257   1.833   4.851   5.388 -0.2465 -1.0330  0.1106
   10SAPS  H12R 1258   1.914   4.780   5.364 -1.0976 -1.2098 -2.5705
   10SAPS  C213 1259   1.790   4.937   5.266  0.0063  0.9246  0.2493
   10SAPS  H13R 1260   1.764   5.035   5.312 -0.3137  0.9480  0.0238
   10SAPS  H13S 1261   1.696   4.889   5.230  0.9446 -1.8391  1.2751
   10SAPS  C214 1262   1.890   4.951   5.159  0.3428  0.6741 -0.1457
   10SAPS  H14R 1263   1.991   4.985   5.185  1.1349  0.5591 -2.7724
   10SAPS  C215 1264   1.877   4.933   5.032  0.2660  0.5621 -0.3691
   10SAPS  H15R 1265   1.965   4.960   4.972  0.4043  0.4369 -0.2257
   10SAPS  C216 1266   1.752   4.904   4.950 -0.1839 -0.4406 -0.4082
   10SAPS  H16R 1267   1.725   4.990   4.885 -0.6768  2.2115  3.0196
   10SAPS  H16S 1268   1.669   4.880   5.020 -0.1962 -0.0250 -0.2738
   10SAPS  C217 1269   1.770   4.787   4.852 -0.1490 -0.2706 -0.0951
   10SAPS  H17R 1270   1.787   4.692   4.906  1.7687 -0.2471 -0.5849
   10SAPS  H17S 1271   1.859   4.805   4.788 -1.3340 -0.1838 -1.7812
   10SAPS  C218 1272   1.645   4.771   4.771 -0.1527  0.3519  0.0387
   10SAPS  H18R 1273   1.591   4.867   4.755 -0.2890  0.0181 -1.6855
   10SAPS  H18S 1274   1.572   4.708   4.827  0.3437 -3.0905 -2.8522
   10SAPS  C219 1275   1.664   4.711   4.635 -0.3982  0.1252  0.5686
   10SAPS  H19R 1276   1.716   4.613   4.648  1.8426  1.3200  1.0201
   10SAPS  H19S 1277   1.746   4.758   4.576  2.0975 -2.1707  1.9406
   10SAPS  C220 1278   1.536   4.698   4.558  0.1946 -0.4151 -0.6099
   10SAPS  H20R 1279   1.468   4.621   4.599 -1.5132  2.1625  1.6998
   10SAPS  H20S 1280   1.544   4.682   4.448  0.6881 -0.7048 -0.5367
   10SAPS  H20T 1281   1.483   4.795   4.567 -1.6754 -1.5109  0.9668
   10SAPS   C33 1282   1.333   4.932   6.235 -0.4096  0.1110  0.1733
   10SAPS   H3X 1283   1.415   5.000   6.203  0.3043 -0.6300  0.4131
   10SAPS   H3Y 1284   1.251   4.998   6.272  0.0811  1.9664 -1.8121
   10SAPS   C34 1285   1.276   4.867   6.108 -0.0615  0.3901  0.0389
   10SAPS   H4X 1286   1.229   4.952   6.053 -0.1862 -0.7600 -1.7185
   10SAPS   H4Y 1287   1.195   4.793   6.128 -0.3789  0.8926  0.6389
   10SAPS   C35 1288   1.368   4.788   6.015  0.3209 -0.4147  0.0430
   10SAPS   H5X 1289   1.392   4.690   6.060  0.6673 -0.1860  0.3579
   10SAPS   H5Y 1290   1.465   4.841   6.010 -0.6812  1.4779 -0.6752
   10SAPS   C36 1291   1.314   4.768   5.877 -0.3554  1.0383  0.6276
   10SAPS   H6X 1292   1.295   4.863   5.823  1.7820  1.3640  0.3374
   10SAPS   H6Y 1293   1.221   4.708   5.876 -0.4101  1.1159 -0.6929
   10SAPS   C37 1294   1.416   4.699   5.788  0.4898  0.1469 -0.4045
   10SAPS   H7X 1295   1.436   4.601   5.836 -3.5285 -1.5607 -1.7819
   10SAPS   H7Y 1296   1.506   4.762   5.777  0.0005  1.3246  1.6508
   10SAPS   C38 1297   1.358   4.658   5.655  0.0361  0.1512  0.1382
   10SAPS   H8X 1298   1.332   4.745   5.590 -0.7274 -1.6046 -2.0079
   10SAPS   H8Y 1299   1.266   4.597   5.664  0.7131 -0.9184 -0.0915
   10SAPS   C39 1300   1.460   4.583   5.566  0.0408  0.7740 -0.7692
   10SAPS   H9X 1301   1.499   4.501   5.630  1.4412  3.4242  1.9999
   10SAPS   H9Y 1302   1.549   4.648   5.557  1.7362 -0.4715  3.9145
   10SAPS  C310 1303   1.394   4.532   5.431 -0.4752 -0.8528 -0.6790
   10SAPS  H10X 1304   1.300   4.481   5.462 -0.6634  0.8698  1.9149
   10SAPS  H10Y 1305   1.463   4.453   5.394  0.6914 -1.1349  1.8560
   10SAPS  C311 1306   1.383   4.645   5.327  0.2465 -0.2666 -0.2623
   10SAPS  H11X 1307   1.343   4.735   5.379  0.2850 -0.2447 -0.2696
   10SAPS  H11Y 1308   1.310   4.609   5.250 -1.3701 -0.4532  1.2892
   10SAPS  C312 1309   1.511   4.680   5.258 -0.3184  0.1280  0.6833
   10SAPS  H12X 1310   1.580   4.716   5.337 -1.3894  3.3725  0.2656
   10SAPS  H12Y 1311   1.501   4.769   5.192 -0.7539 -0.7847 -0.5254
   10SAPS  C313 1312   1.582   4.559   5.187  1.0561 -0.8467  0.0830
   10SAPS  H13X 1313   1.611   4.483   5.263  0.9127 -0.1798  0.8108
   10SAPS  H13Y 1314   1.681   4.600   5.159  1.9032 -1.5966  1.7845
   10SAPS  C314 1315   1.515   4.518   5.058  0.9394  0.0674  0.0049
   10SAPS  H14X 1316   1.494   4.608   4.997  0.4967 -0.1063 -0.1032
   10SAPS  H14Y 1317   1.424   4.460   5.084  0.6400 -0.3084 -1.7777
   10SAPS  C315 1318   1.592   4.410   4.979  0.6521 -0.2912 -0.1047
   10SAPS  H15X 1319   1.613   4.326   5.048  0.5747 -0.2480 -0.0297
   10SAPS  H15Y 1320   1.693   4.440   4.942  0.6071 -0.0746 -0.0567
   10SAPS  C316 1321   1.514   4.370   4.852 -0.5847  0.6714 -0.6057
   10SAPS  H16X 1322   1.535   4.446   4.774  2.5754  0.4536 -0.1138
   10SAPS  H16Y 1323   1.409   4.372   4.888 -0.9948  0.5169 -1.7381
   10SAPS  C317 1324   1.540   4.228   4.798 -0.3323  0.4895 -0.1051
   10SAPS  H17X 1325   1.542   4.154   4.880 -0.0095  0.6354  0.0218
   10SAPS  H17Y 1326   1.642   4.209   4.757  1.3113 -1.0732  4.1839
   10SAPS  C318 1327   1.447   4.192   4.686  0.1718 -0.5446 -0.7705
   10SAPS  H18X 1328   1.342   4.194   4.721  1.0099 -0.8803  1.9802
   10SAPS  H18Y 1329   1.477   4.090   4.653  2.3810 -0.5434  0.9898
   10SAPS  H18Z 1330   1.470   4.263   4.604  2.7333 -0.9999 -0.5360
   11SAPS     N 1331   2.920   2.781   2.139 -0.1449 -0.5563 -0.1200
   11SAPS   HN1 1332   2.975   2.867   2.159  0.7344 -1.0586 -0.2985
   11SAPS   HN2 1333   2.965   2.727   2.062  2.3284  0.3412  0.5979
   11SAPS   HN3 1334   2.823   2.813   2.122 -0.5635  0.5990  3.5886
   11SAPS   C12 1335   2.920   2.694   2.260 -0.3483 -0.3077 -0.2952
   11SAPS  H12A 1336   2.858   2.741   2.335  0.1864 -1.5217  0.9468
   11SAPS   C13 1337   2.850   2.558   2.256  0.1883  0.4079  0.2919
   11SAPS  O13A 1338   2.799   2.529   2.144 -0.0588 -0.4834 -0.6761
   11SAPS  O13B 1339   2.830   2.487   2.360  0.5755 -0.2748  0.5850
   11SAPS   C11 1340   3.061   2.683   2.322  0.2658  0.0034  0.2545
   11SAPS  H11A 1341   3.127   2.649   2.239  1.7837  1.8064  0.6436
   11SAPS  H11B 1342   3.057   2.608   2.404 -0.4171  1.1001  1.2594
   11SAPS     P 1343   3.074   2.837   2.525 -0.0271 -0.0115 -0.0380
   11SAPS   O13 1344   3.043   2.982   2.540  0.0480 -0.1886 -0.2021
   11SAPS   O14 1345   2.966   2.747   2.575  0.1807  0.1925  0.2869
   11SAPS   O12 1346   3.108   2.806   2.375 -0.0247  0.8143  0.3403
   11SAPS   O11 1347   3.210   2.782   2.593  0.7413 -0.5356  0.5386
   11SAPS    C1 1348   3.205   2.744   2.735 -0.1839 -0.3643  0.4199
   11SAPS    HA 1349   3.136   2.658   2.745 -2.6195  1.1281 -1.9399
   11SAPS    HB 1350   3.304   2.710   2.771  0.4700  1.7880  0.7700
   11SAPS    C2 1351   3.168   2.858   2.835  0.7051  0.1157  0.4203
   11SAPS    HS 1352   3.058   2.868   2.824  0.9642  2.9716 -0.4448
   11SAPS   O21 1353   3.224   2.980   2.797 -0.1031 -0.2581 -0.1223
   11SAPS   C21 1354   3.183   3.092   2.852 -0.4961 -0.2358 -0.0943
   11SAPS   O22 1355   3.115   3.096   2.955 -0.1083 -0.7854  0.0147
   11SAPS   C22 1356   3.214   3.213   2.760  0.2364  0.3766  0.3679
   11SAPS   H2R 1357   3.295   3.185   2.689  0.5003  0.5724  0.5883
   11SAPS   H2S 1358   3.126   3.227   2.694 -0.1713 -0.6535  0.6670
   11SAPS    C3 1359   3.216   2.809   2.970 -0.2774  0.1061 -0.4907
   11SAPS    HX 1360   3.186   2.886   3.045 -0.9921  0.7528 -1.4212
   11SAPS    HY 1361   3.325   2.827   2.970 -0.4135  1.0015  0.1197
   11SAPS   O31 1362   3.185   2.672   3.000  0.0307  0.0333  0.5610
   11SAPS   C31 1363   3.077   2.645   3.072 -0.5739 -0.1970  0.3415
   11SAPS   O32 1364   2.990   2.732   3.103 -0.4476 -0.0289  0.6516
   11SAPS   C32 1365   3.082   2.493   3.120  0.1187  0.5667  0.6967
   11SAPS   H2X 1366   3.185   2.486   3.162  0.7919  0.0984 -0.9412
   11SAPS   H2Y 1367   3.075   2.429   3.029  1.9814 -1.1818  1.6904
   11SAPS   C23 1368   3.239   3.334   2.839  0.0419 -0.5386  0.4943
   11SAPS   H3R 1369   3.273   3.321   2.944 -0.4995  2.5803  1.1437
   11SAPS   H3S 1370   3.144   3.386   2.865 -0.5751 -0.8445 -1.0582
   11SAPS   C24 1371   3.341   3.438   2.779  0.8050 -0.0985 -0.1846
   11SAPS   H4R 1372   3.298   3.535   2.812 -1.7764 -2.1335  3.1681
   11SAPS   H4S 1373   3.323   3.436   2.670 -0.6017 -2.1765  0.0187
   11SAPS   C25 1374   3.490   3.419   2.803  0.1774 -0.0485  0.5760
   11SAPS   H5R 1375   3.533   3.323   2.769 -1.2709 -0.4739 -0.1374
   11SAPS   C26 1376   3.563   3.501   2.879 -0.2103  0.2377 -0.2354
   11SAPS   H6R 1377   3.672   3.491   2.881 -0.3615 -1.4807  0.5972
   11SAPS   C27 1378   3.511   3.627   2.945 -0.0713  0.2656  0.9547
   11SAPS   H7R 1379   3.425   3.601   3.011 -1.0211 -0.0208 -0.3598
   11SAPS   H7S 1380   3.447   3.683   2.873 -0.4745  0.2924  1.3238
   11SAPS   C28 1381   3.616   3.737   2.982  0.4560  0.4049 -0.1718
   11SAPS   H8R 1382   3.627   3.817   2.907  0.7061  0.3849 -0.1567
   11SAPS   C29 1383   3.667   3.754   3.105 -0.0656  0.5066 -0.0731
   11SAPS   H9R 1384   3.748   3.827   3.122  1.4512 -0.9618 -0.6475
   11SAPS  C210 1385   3.657   3.651   3.213  0.1173  0.6383 -0.4612
   11SAPS  H10R 1386   3.574   3.579   3.198  0.3438 -0.2664  2.1335
   11SAPS  H10S 1387   3.619   3.715   3.296  1.0111  0.6187 -0.0254
   11SAPS  C211 1388   3.773   3.554   3.236 -0.3306 -0.2397  0.7826
   11SAPS  H11R 1389   3.805   3.494   3.150  0.4325  0.3685  0.6244
   11SAPS  C212 1390   3.847   3.549   3.354  0.4170  0.6043  0.2676
   11SAPS  H12R 1391   3.925   3.473   3.346 -2.2291 -2.1112 -2.1262
   11SAPS  C213 1392   3.840   3.644   3.469 -0.2489  0.8584  0.4724
   11SAPS  H13R 1393   3.735   3.661   3.503 -0.7806 -0.6229 -0.3415
   11SAPS  H13S 1394   3.879   3.739   3.428 -0.4260 -0.1535 -2.2165
   11SAPS  C214 1395   3.927   3.613   3.591  0.8296 -0.4462  0.3417
   11SAPS  H14R 1396   4.033   3.585   3.576  1.5033  1.8811  0.3721
   11SAPS  C215 1397   3.887   3.605   3.718  0.5191 -1.1825 -0.1065
   11SAPS  H15R 1398   3.951   3.572   3.801  1.0506 -0.0959 -0.0674
   11SAPS  C216 1399   3.751   3.638   3.770  0.8638  0.0410 -0.1775
   11SAPS  H16R 1400   3.683   3.550   3.776  1.7984 -0.6079  1.7757
   11SAPS  H16S 1401   3.712   3.715   3.700  0.8338 -2.8206 -3.5927
   11SAPS  C217 1402   3.760   3.689   3.917 -0.2590 -0.2669  0.0656
   11SAPS  H17R 1403   3.812   3.787   3.924 -1.6397  0.5589 -0.8648
   11SAPS  H17S 1404   3.817   3.606   3.963  1.7932 -0.2500 -2.2457
   11SAPS  C218 1405   3.630   3.685   4.005  0.2225  0.1812 -0.5576
   11SAPS  H18R 1406   3.583   3.587   3.982 -3.3648  1.3958  1.0179
   11SAPS  H18S 1407   3.570   3.771   3.968 -0.6924  0.6590  1.8696
   11SAPS  C219 1408   3.652   3.684   4.158  0.1120 -1.0933 -0.2786
   11SAPS  H19R 1409   3.720   3.604   4.192 -0.8659 -1.3997  1.0403
   11SAPS  H19S 1410   3.555   3.649   4.199  0.3602 -0.7215  0.6635
   11SAPS  C220 1411   3.686   3.823   4.223  0.5567 -0.2290  0.1035
   11SAPS  H20R 1412   3.594   3.884   4.227  1.0363  0.5794 -0.6601
   11SAPS  H20S 1413   3.758   3.870   4.152 -0.0679  0.9429  0.2121
   11SAPS  H20T 1414   3.737   3.805   4.320 -1.4193 -0.0279  1.2169
   11SAPS   C33 1415   2.974   2.462   3.223  0.1115  0.5949 -0.2876
   11SAPS   H3X 1416   2.968   2.351   3.213 -0.3057  0.5885 -0.0003
   11SAPS   H3Y 1417   2.869   2.490   3.200 -0.6524 -0.8029  1.2733
   11SAPS   C34 1418   3.004   2.512   3.363 -0.2662  0.0341 -0.0522
   11SAPS   H4X 1419   3.031   2.620   3.364 -2.8513  0.9880 -4.5314
   11SAPS   H4Y 1420   3.095   2.458   3.397  0.3082  0.6861 -0.5401
   11SAPS   C35 1421   2.891   2.484   3.466  0.0453  0.2743  0.0823
   11SAPS   H5X 1422   2.857   2.380   3.453  2.6006 -0.7743  1.0938
   11SAPS   H5Y 1423   2.814   2.563   3.449  1.1125  1.7412  1.6583
   11SAPS   C36 1424   2.946   2.506   3.610  0.2320 -0.0249 -0.3729
   11SAPS   H6X 1425   2.978   2.612   3.600 -0.7405  0.0656 -3.6321
   11SAPS   H6Y 1426   3.033   2.443   3.638  0.0997  0.6652  1.7522
   11SAPS   C37 1427   2.848   2.488   3.718 -0.2105 -0.3735 -0.4062
   11SAPS   H7X 1428   2.806   2.386   3.701 -0.8901  0.0636 -1.4275
   11SAPS   H7Y 1429   2.764   2.558   3.701 -1.0083 -1.5946 -1.7408
   11SAPS   C38 1430   2.914   2.504   3.856  0.1376 -0.2215  0.3536
   11SAPS   H8X 1431   2.969   2.600   3.854  0.3161 -0.3272 -0.6869
   11SAPS   H8Y 1432   2.988   2.421   3.854 -1.1628 -1.4243 -0.1901
   11SAPS   C39 1433   2.817   2.487   3.972  0.1322 -0.0150 -0.0240
   11SAPS   H9X 1434   2.741   2.414   3.935 -1.0575  0.7803  0.7965
   11SAPS   H9Y 1435   2.755   2.577   3.988  1.3951  0.5874  1.7612
   11SAPS  C310 1436   2.885   2.448   4.100  0.6971  0.3732 -0.0169
   11SAPS  H10X 1437   2.818   2.458   4.188  1.7008 -0.1679  0.8384
   11SAPS  H10Y 1438   2.969   2.518   4.117  1.7548 -0.6124 -0.9666
   11SAPS  C311 1439   2.937   2.301   4.118 -0.1311 -0.6346 -0.0915
   11SAPS  H11X 1440   3.032   2.290   4.061 -0.0681  1.3070 -0.4096
   11SAPS  H11Y 1441   2.863   2.236   4.067 -0.8796  0.8696 -0.9812
   11SAPS  C312 1442   2.976   2.262   4.262  0.1906  0.5466 -0.3409
   11SAPS  H12X 1443   2.896   2.269   4.339  2.9687  2.0067  2.6699
   11SAPS  H12Y 1444   3.049   2.337   4.299 -0.1167  1.1985 -1.0338
   11SAPS  C313 1445   3.040   2.123   4.249 -0.4902  0.2455 -0.9620
   11SAPS  H13X 1446   3.133   2.133   4.189  0.4245  3.6413  0.8049
   11SAPS  H13Y 1447   2.969   2.042   4.221 -0.4163 -0.1566 -0.0170
   11SAPS  C314 1448   3.099   2.085   4.394 -0.2145 -0.7477 -0.3268
   11SAPS  H14X 1449   3.011   2.036   4.441 -0.8577  1.6074  1.0907
   11SAPS  H14Y 1450   3.130   2.174   4.453 -1.6679 -1.2226  1.2219
   11SAPS  C315 1451   3.207   1.979   4.391 -0.3251  0.1053 -0.5313
   11SAPS  H15X 1452   3.298   2.005   4.333  1.5712  0.2959  2.3364
   11SAPS  H15Y 1453   3.166   1.885   4.349  1.5778  0.2435 -2.9271
   11SAPS  C316 1454   3.269   1.945   4.524  0.4294  0.2310 -0.4322
   11SAPS  H16X 1455   3.194   1.947   4.606  0.5672  1.8664 -0.3060
   11SAPS  H16Y 1456   3.349   2.022   4.534 -0.2670  0.9373 -0.2137
   11SAPS  C317 1457   3.355   1.816   4.518 -0.7286 -0.6790  0.1132
   11SAPS  H17X 1458   3.283   1.740   4.481 -0.4638 -0.9718  0.1954
   11SAPS  H17Y 1459   3.394   1.783   4.617  1.6298  0.1841 -0.4676
   11SAPS  C318 1460   3.475   1.822   4.426  0.4574 -0.6836 -1.0603
   11SAPS  H18X 1461   3.547   1.890   4.476 -2.3586  1.5652  0.2166
   11SAPS  H18Y 1462   3.443   1.855   4.325 -1.8504 -1.3706 -0.6055
   11SAPS  H18Z 1463   3.522   1.721   4.423  2.9920  0.3391  0.8803
   12SAPS     N 1464   2.010   2.801   2.124  0.4435  0.8749  0.0411
   12SAPS   HN1 1465   1.986   2.769   2.220 -2.1248 -0.1206 -0.8330
   12SAPS   HN2 1466   2.100   2.852   2.132 -0.1498  2.3503 -1.8769
   12SAPS   HN3 1467   1.940   2.871   2.091  2.2964  2.5498 -0.4981
   12SAPS   C12 1468   2.026   2.681   2.036 -0.0238  0.0602  0.3219
   12SAPS  H12A 1469   1.940   2.615   2.026  1.4867 -2.0553  0.5731
   12SAPS   C13 1470   2.069   2.709   1.892  0.5128 -0.3023  0.6994
   12SAPS  O13A 1471   2.119   2.824   1.866 -0.1583 -0.2120  0.3336
   12SAPS  O13B 1472   2.089   2.608   1.817 -0.4482 -0.2141  0.2085
   12SAPS   C11 1473   2.146   2.588   2.097 -0.4822  0.6054 -0.3940
   12SAPS  H11A 1474   2.240   2.647   2.098 -0.2205  0.1803  0.7717
   12SAPS  H11B 1475   2.174   2.505   2.028  1.5658  0.0056  1.0727
   12SAPS     P 1476   2.085   2.389   2.265 -0.2374 -0.5396  0.2170
   12SAPS   O13 1477   2.053   2.324   2.134 -0.9275  0.4111  0.2937
   12SAPS   O14 1478   2.194   2.328   2.349 -0.3553 -0.3648 -0.2417
   12SAPS   O12 1479   2.117   2.542   2.229 -0.5065 -0.3666  0.2816
   12SAPS   O11 1480   1.949   2.390   2.348 -0.5223 -0.0931 -0.8151
   12SAPS    C1 1481   1.914   2.512   2.424 -0.0233  0.0511 -0.3171
   12SAPS    HA 1482   1.933   2.610   2.376  1.4332  0.1447  0.3834
   12SAPS    HB 1483   1.808   2.492   2.454  0.3819 -1.5784  0.1211
   12SAPS    C2 1484   1.997   2.505   2.561  0.1639  0.4000  0.0081
   12SAPS    HS 1485   2.106   2.488   2.543 -0.0565 -0.6933 -0.3461
   12SAPS   O21 1486   1.951   2.396   2.637  0.8218 -0.3086  1.0914
   12SAPS   C21 1487   2.041   2.341   2.726 -0.1117 -0.6117  0.1391
   12SAPS   O22 1488   2.145   2.395   2.752  0.3639  0.0235  0.2241
   12SAPS   C22 1489   1.976   2.219   2.794  0.5247  0.3701  0.4597
   12SAPS   H2R 1490   1.882   2.248   2.847 -0.9963 -3.1092 -0.0619
   12SAPS   H2S 1491   1.944   2.143   2.719 -0.5371  0.5236  0.7346
   12SAPS    C3 1492   1.966   2.636   2.634 -0.5014  0.0930 -1.0469
   12SAPS    HX 1493   1.858   2.643   2.658 -0.6138  0.2428 -1.5937
   12SAPS    HY 1494   1.984   2.720   2.563  0.2341  0.6868 -0.1965
   12SAPS   O31 1495   2.046   2.664   2.755 -0.6284  0.3922  0.2541
   12SAPS   C31 1496   1.990   2.639   2.868 -0.3231 -0.0682  0.5805
   12SAPS   O32 1497   1.886   2.580   2.880 -0.0196  0.4023  0.0853
   12SAPS   C32 1498   2.072   2.676   2.992 -0.3105  0.2990 -0.2001
   12SAPS   H2X 1499   2.131   2.769   2.980  1.6852 -0.5286  2.1564
   12SAPS   H2Y 1500   2.134   2.587   3.015 -0.4227  0.2945  0.0977
   12SAPS   C23 1501   2.075   2.160   2.892  0.3246 -0.1117  0.6849
   12SAPS   H3R 1502   2.172   2.158   2.838 -0.2913 -3.1560 -0.4916
   12SAPS   H3S 1503   2.061   2.053   2.917  3.1373 -0.4376  1.2066
   12SAPS   C24 1504   2.081   2.249   3.023 -0.3170 -0.5499  0.0542
   12SAPS   H4R 1505   1.981   2.232   3.067  0.6718 -0.9619  2.2802
   12SAPS   H4S 1506   2.079   2.357   2.998  1.9752  0.6446  4.1193
   12SAPS   C25 1507   2.190   2.223   3.128 -0.8655  0.6558 -0.1656
   12SAPS   H5R 1508   2.296   2.227   3.098 -0.3396 -0.8657  1.3312
   12SAPS   C26 1509   2.174   2.209   3.256 -0.0361  0.4669 -0.9188
   12SAPS   H6R 1510   2.265   2.196   3.316 -1.3842 -0.5253  1.0421
   12SAPS   C27 1511   2.039   2.220   3.336 -1.4325 -0.3418 -0.1724
   12SAPS   H7R 1512   1.965   2.274   3.273  0.0600 -0.0273 -1.7668
   12SAPS   H7S 1513   2.066   2.276   3.429 -2.6756  0.9799 -0.5717
   12SAPS   C28 1514   1.989   2.083   3.364  0.0625 -0.2264  0.5911
   12SAPS   H8R 1515   2.005   2.005   3.288 -0.8651 -1.7760  1.9040
   12SAPS   C29 1516   1.928   2.056   3.482 -0.1301 -0.2448 -0.1328
   12SAPS   H9R 1517   1.895   1.953   3.502  1.9712 -0.6514  1.5654
   12SAPS  C210 1518   1.907   2.156   3.591 -0.4592 -0.0293  0.4117
   12SAPS  H10R 1519   1.838   2.235   3.553  0.6878  0.1849 -1.3525
   12SAPS  H10S 1520   1.999   2.208   3.625  0.2687 -0.8366 -0.2678
   12SAPS  C211 1521   1.828   2.082   3.698 -0.5651  0.3665  0.7313
   12SAPS  H11R 1522   1.722   2.073   3.673  0.0848  3.4814 -4.9422
   12SAPS  C212 1523   1.884   2.033   3.811 -0.6594 -0.0481  0.4359
   12SAPS  H12R 1524   1.824   1.970   3.878  0.5637 -0.3490  1.2832
   12SAPS  C213 1525   2.031   2.037   3.842 -0.2008  0.0423 -0.1173
   12SAPS  H13R 1526   2.051   2.044   3.951  0.0564  2.2467 -0.2566
   12SAPS  H13S 1527   2.074   2.131   3.802  1.9255 -0.6636  0.3944
   12SAPS  C214 1528   2.094   1.913   3.783 -0.2639  0.6520 -0.5503
   12SAPS  H14R 1529   2.088   1.916   3.673 -1.6075  1.0184 -0.4773
   12SAPS  C215 1530   2.157   1.806   3.841 -0.0945 -1.1773  0.4213
   12SAPS  H15R 1531   2.199   1.724   3.781  0.5040  0.5239 -1.6005
   12SAPS  C216 1532   2.162   1.790   3.991 -0.7247 -0.0407  1.1683
   12SAPS  H16R 1533   2.118   1.693   4.023  0.0861 -0.8953 -0.2093
   12SAPS  H16S 1534   2.118   1.873   4.049  0.0982  0.7905  0.6287
   12SAPS  C217 1535   2.311   1.787   4.047  0.6797  0.8849 -0.5496
   12SAPS  H17R 1536   2.366   1.882   4.065  2.2226 -0.4907  2.9220
   12SAPS  H17S 1537   2.378   1.729   3.981 -1.9777 -1.4706 -1.3561
   12SAPS  C218 1538   2.304   1.712   4.181  0.1947  0.0458 -0.4066
   12SAPS  H18R 1539   2.253   1.616   4.161 -0.5892  0.7462 -1.8870
   12SAPS  H18S 1540   2.240   1.772   4.249  0.0397 -0.1131 -0.4150
   12SAPS  C219 1541   2.445   1.695   4.252 -0.5321  0.2411 -0.2125
   12SAPS  H19R 1542   2.531   1.700   4.182  0.3986 -0.0578  0.8726
   12SAPS  H19S 1543   2.444   1.590   4.287  3.2100 -0.1576 -0.9110
   12SAPS  C220 1544   2.455   1.789   4.367  0.3924 -0.3493 -0.1554
   12SAPS  H20R 1545   2.430   1.742   4.465 -2.1561  0.0085 -0.5582
   12SAPS  H20S 1546   2.394   1.880   4.347 -0.7976 -1.4079 -1.5311
   12SAPS  H20T 1547   2.557   1.832   4.370 -0.2318  1.2829  3.8132
   12SAPS   C33 1548   1.989   2.705   3.118  0.1602 -0.3308 -0.5314
   12SAPS   H3X 1549   1.905   2.772   3.093 -0.0545 -0.6542 -0.6899
   12SAPS   H3Y 1550   2.062   2.764   3.178  0.4058 -0.3399 -0.8184
   12SAPS   C34 1551   1.945   2.579   3.203  0.3661  0.1061 -0.3720
   12SAPS   H4X 1552   2.026   2.507   3.226 -1.4903 -1.5841  1.3704
   12SAPS   H4Y 1553   1.887   2.514   3.133  0.5985  0.1338 -0.5908
   12SAPS   C35 1554   1.862   2.609   3.327  0.6074 -0.0266 -0.6123
   12SAPS   H5X 1555   1.772   2.669   3.302  1.3537  1.7295  0.6400
   12SAPS   H5Y 1556   1.931   2.663   3.395 -1.9674  2.2283  0.4265
   12SAPS   C36 1557   1.815   2.482   3.407 -0.0842  0.0905 -0.4744
   12SAPS   H6X 1558   1.911   2.442   3.444  0.0432  0.1641 -0.7193
   12SAPS   H6Y 1559   1.761   2.413   3.337  0.3690  0.2497 -0.9864
   12SAPS   C37 1560   1.720   2.518   3.524 -0.2015  0.0760  0.5365
   12SAPS   H7X 1561   1.664   2.426   3.549 -0.3985 -0.6435 -2.2426
   12SAPS   H7Y 1562   1.636   2.582   3.490 -0.5865  0.8463  2.7621
   12SAPS   C38 1563   1.792   2.574   3.649  0.0268  0.7411  0.7451
   12SAPS   H8X 1564   1.810   2.681   3.627  0.9174  0.7212  1.3291
   12SAPS   H8Y 1565   1.889   2.523   3.666  0.4059  1.0805 -0.2866
   12SAPS   C39 1566   1.700   2.577   3.771  0.1082  0.1589  0.4389
   12SAPS   H9X 1567   1.607   2.626   3.737 -0.2550 -0.9112 -0.1578
   12SAPS   H9Y 1568   1.746   2.654   3.836  3.8027  1.8167 -3.6422
   12SAPS  C310 1569   1.676   2.436   3.822  0.1517 -0.0394 -0.8062
   12SAPS  H10X 1570   1.767   2.372   3.815 -0.4183 -1.1975  1.3508
   12SAPS  H10Y 1571   1.594   2.392   3.762 -0.7082 -0.0846  0.3739
   12SAPS  C311 1572   1.643   2.455   3.970  0.5501  0.2340 -0.2497
   12SAPS  H11X 1573   1.549   2.513   3.975  0.8180  0.7020 -0.5638
   12SAPS  H11Y 1574   1.728   2.493   4.031  0.9621 -2.1148  0.7607
   12SAPS  C312 1575   1.618   2.312   4.039  0.0143 -0.3151  0.1128
   12SAPS  H12X 1576   1.692   2.235   4.008  0.5195  0.2977 -0.2291
   12SAPS  H12Y 1577   1.517   2.274   4.011 -0.1800 -1.7168  2.4615
   12SAPS  C313 1578   1.609   2.312   4.195  0.4644 -0.0276  0.2226
   12SAPS  H13X 1579   1.556   2.401   4.234  1.1114  0.5550 -0.2110
   12SAPS  H13Y 1580   1.706   2.311   4.248  0.1127  1.0911  0.9160
   12SAPS  C314 1581   1.546   2.185   4.256  0.1824 -0.0453  0.1406
   12SAPS  H14X 1582   1.607   2.099   4.221  0.5414  0.1075  0.3886
   12SAPS  H14Y 1583   1.440   2.176   4.224  0.4994 -2.1988 -0.4703
   12SAPS  C315 1584   1.550   2.172   4.408 -0.0018 -0.0340  0.2795
   12SAPS  H15X 1585   1.655   2.180   4.444  0.4613  3.5302 -1.3785
   12SAPS  H15Y 1586   1.515   2.074   4.446  1.2241  0.1015  1.8620
   12SAPS  C316 1587   1.465   2.280   4.485  0.2541  0.8775 -0.3209
   12SAPS  H16X 1588   1.359   2.252   4.464 -0.3635  1.6663  1.5021
   12SAPS  H16Y 1589   1.479   2.376   4.431 -1.6675  0.7138 -1.1906
   12SAPS  C317 1590   1.492   2.292   4.629 -0.0227 -0.2015 -0.2349
   12SAPS  H17X 1591   1.443   2.383   4.670  2.6161  0.8517  0.8107
   12SAPS  H17Y 1592   1.601   2.299   4.649 -0.2940 -1.7788  2.3874
   12SAPS  C318 1593   1.456   2.174   4.712 -0.1149  0.3044 -0.3627
   12SAPS  H18X 1594   1.489   2.084   4.656 -1.9453  0.3085 -1.5348
   12SAPS  H18Y 1595   1.348   2.172   4.736 -0.3046 -1.2641 -1.2008
   12SAPS  H18Z 1596   1.511   2.160   4.808 -3.6708  0.0033  1.8200
   13SAPS     N 1597   4.668   1.333   2.385 -0.3234  0.1634 -0.0418
   13SAPS   HN1 1598   4.716   1.425   2.377 -1.2462  0.7403  0.7338
   13SAPS   HN2 1599   4.666   1.293   2.481  0.2001 -0.9179 -0.4639
   13SAPS   HN3 1600   4.714   1.263   2.324 -1.6502  0.1984 -1.1274
   13SAPS   C12 1601   4.519   1.326   2.338  0.3563 -0.3568 -0.1099
   13SAPS  H12A 1602   4.466   1.401   2.394  0.8237 -1.0179  1.2721
   13SAPS   C13 1603   4.491   1.355   2.191  1.0959 -0.7688  0.3472
   13SAPS  O13A 1604   4.574   1.431   2.129 -0.3190 -0.6819  0.3626
   13SAPS  O13B 1605   4.374   1.327   2.146  0.5991 -0.3423 -0.4545
   13SAPS   C11 1606   4.458   1.184   2.360 -0.1471  0.1311 -0.1229
   13SAPS  H11A 1607   4.509   1.112   2.292 -1.0559 -2.9336  2.1795
   13SAPS  H11B 1608   4.351   1.172   2.331 -1.6574  2.5689  3.6423
   13SAPS     P 1609   4.391   1.200   2.603 -0.6269  0.2954 -0.4356
   13SAPS   O13 1610   4.463   1.322   2.643 -0.0577 -0.1980  0.1789
   13SAPS   O14 1611   4.252   1.205   2.553 -0.0824  0.0642 -0.0474
   13SAPS   O12 1612   4.475   1.142   2.490 -0.4579 -0.0450 -0.2412
   13SAPS   O11 1613   4.397   1.104   2.723 -0.7242  0.0825 -0.2016
   13SAPS    C1 1614   4.519   1.031   2.749  0.0722  0.2323 -0.5499
   13SAPS    HA 1615   4.503   0.922   2.739 -0.3248  0.2664 -0.2961
   13SAPS    HB 1616   4.601   1.052   2.677 -0.2685  0.2012 -0.9464
   13SAPS    C2 1617   4.579   1.055   2.897  0.1657 -0.1869  0.4537
   13SAPS    HS 1618   4.665   0.986   2.908 -0.7358 -1.3147  0.5978
   13SAPS   O21 1619   4.485   1.024   3.000 -0.7091 -0.3399 -0.5138
   13SAPS   C21 1620   4.479   0.895   3.025 -0.5010  1.0137  0.1330
   13SAPS   O22 1621   4.545   0.809   2.967 -0.9520 -0.0002 -0.4445
   13SAPS   C22 1622   4.368   0.870   3.124 -0.2049 -0.1659  0.0951
   13SAPS   H2R 1623   4.308   0.961   3.140 -1.8079 -0.9301 -1.2282
   13SAPS   H2S 1624   4.302   0.795   3.074  0.4423 -0.7752  0.1385
   13SAPS    C3 1625   4.627   1.202   2.906 -0.8500  0.3372 -0.3479
   13SAPS    HX 1626   4.535   1.264   2.898 -2.0614 -1.0462  1.8943
   13SAPS    HY 1627   4.694   1.227   2.821 -1.0531 -0.6172 -0.8032
   13SAPS   O31 1628   4.683   1.222   3.036 -1.0112 -0.6110  0.3257
   13SAPS   C31 1629   4.616   1.307   3.122  0.1212 -0.1397 -0.7532
   13SAPS   O32 1630   4.523   1.380   3.096  0.1560 -0.0528  0.2661
   13SAPS   C32 1631   4.690   1.300   3.257  0.0809  0.0962 -1.0368
   13SAPS   H2X 1632   4.796   1.333   3.250  0.3251 -0.2388  0.6954
   13SAPS   H2Y 1633   4.703   1.195   3.290  0.3654  0.7481  1.1074
   13SAPS   C23 1634   4.433   0.800   3.246  0.1980 -0.1975  0.1858
   13SAPS   H3R 1635   4.482   0.713   3.197  1.7234  0.9080 -0.3310
   13SAPS   H3S 1636   4.354   0.759   3.312 -1.5472  1.1799 -0.9532
   13SAPS   C24 1637   4.533   0.894   3.325  0.2503  0.0451 -0.7313
   13SAPS   H4R 1638   4.597   0.951   3.254 -0.2125 -1.1093 -2.1378
   13SAPS   H4S 1639   4.600   0.824   3.380 -0.5973  0.1283  0.4447
   13SAPS   C25 1640   4.456   0.989   3.411  0.7605 -0.2524  0.2259
   13SAPS   H5R 1641   4.408   1.066   3.350 -0.0630 -1.1791 -0.3281
   13SAPS   C26 1642   4.420   0.975   3.540 -0.4389 -0.0329 -0.4706
   13SAPS   H6R 1643   4.351   1.053   3.573  0.9237  1.2349 -0.5050
   13SAPS   C27 1644   4.447   0.862   3.635  0.4231  0.3165  0.3012
   13SAPS   H7R 1645   4.501   0.775   3.592 -0.6352 -0.6686  0.8949
   13SAPS   H7S 1646   4.349   0.827   3.675 -0.0578  0.3945 -0.7851
   13SAPS   C28 1647   4.528   0.920   3.741 -0.9181  0.5307  0.0468
   13SAPS   H8R 1648   4.636   0.910   3.721 -1.1528  0.6538 -1.3744
   13SAPS   C29 1649   4.493   0.995   3.849 -0.0224  0.6070 -0.1259
   13SAPS   H9R 1650   4.571   1.030   3.919  0.4144  0.2838 -0.4455
   13SAPS  C210 1651   4.346   1.023   3.890 -0.4249 -0.2061  0.4618
   13SAPS  H10R 1652   4.283   1.000   3.801  0.9683  0.4934 -0.7620
   13SAPS  H10S 1653   4.334   1.133   3.896 -0.4269 -0.0725 -1.2639
   13SAPS  C211 1654   4.317   0.946   4.014 -0.1558  0.0069  0.3007
   13SAPS  H11R 1655   4.335   0.838   4.004  1.6921  0.0700  2.1574
   13SAPS  C212 1656   4.249   1.000   4.116 -0.1344 -0.0328  0.3361
   13SAPS  H12R 1657   4.224   0.929   4.196  0.9980 -0.1714  0.5770
   13SAPS  C213 1658   4.217   1.148   4.138  0.6103 -0.0021  0.7040
   13SAPS  H13R 1659   4.301   1.213   4.105 -0.1124  2.9203  3.9992
   13SAPS  H13S 1660   4.207   1.170   4.246 -0.6788 -1.7336  0.9858
   13SAPS  C214 1661   4.093   1.199   4.070 -0.0256  0.2617 -0.4018
   13SAPS  H14R 1662   4.105   1.217   3.962 -0.2012  3.7310  0.0422
   13SAPS  C215 1663   3.963   1.193   4.113  0.3206 -0.0290  0.2836
   13SAPS  H15R 1664   3.897   1.238   4.038  0.1011  1.1659  1.1533
   13SAPS  C216 1665   3.910   1.121   4.231  0.3605  0.1441 -0.0039
   13SAPS  H16R 1666   3.965   1.026   4.245 -4.7104 -3.4466 -1.4475
   13SAPS  H16S 1667   3.814   1.067   4.217  0.3712  0.3291 -0.8061
   13SAPS  C217 1668   3.896   1.202   4.367 -0.7127  0.1583  0.3220
   13SAPS  H17R 1669   3.795   1.246   4.358 -0.9497 -0.7109 -1.7169
   13SAPS  H17S 1670   3.968   1.286   4.370  0.0584 -0.3699 -1.7995
   13SAPS  C218 1671   3.910   1.103   4.479 -0.1503 -0.7405  0.2348
   13SAPS  H18R 1672   3.960   1.157   4.563  0.0930  0.4179 -0.6423
   13SAPS  H18S 1673   3.987   1.026   4.454  1.1280  0.4444  0.3892
   13SAPS  C219 1674   3.779   1.046   4.521  0.1148 -0.7486  0.5456
   13SAPS  H19R 1675   3.778   0.935   4.508  0.6385 -0.4867 -2.3805
   13SAPS  H19S 1676   3.703   1.085   4.451  1.2180  2.2781  0.8952
   13SAPS  C220 1677   3.728   1.096   4.662 -0.4915 -0.6363  0.6717
   13SAPS  H20R 1678   3.619   1.075   4.667 -0.4603 -1.0780 -0.2000
   13SAPS  H20S 1679   3.758   1.203   4.669 -0.2235 -0.7565  1.4857
   13SAPS  H20T 1680   3.777   1.041   4.745 -1.1902  0.6350  1.9634
   13SAPS   C33 1681   4.604   1.387   3.356  0.4858  0.0659  0.3973
   13SAPS   H3X 1682   4.495   1.379   3.339  0.3879  2.0745 -0.1462
   13SAPS   H3Y 1683   4.622   1.496   3.346  1.2483 -0.2131 -1.6981
   13SAPS   C34 1684   4.638   1.332   3.494 -0.3250  0.0949 -0.5588
   13SAPS   H4X 1685   4.748   1.348   3.500 -0.6243  3.0675 -1.4974
   13SAPS   H4Y 1686   4.621   1.223   3.500  4.2110 -0.7319  2.6189
   13SAPS   C35 1687   4.564   1.393   3.609  0.2433  0.4981  0.9172
   13SAPS   H5X 1688   4.459   1.357   3.617  0.1095  0.2877 -1.3301
   13SAPS   H5Y 1689   4.573   1.501   3.582  2.2362 -0.4299 -2.7543
   13SAPS   C36 1690   4.632   1.376   3.746 -1.1221 -0.4114  0.3621
   13SAPS   H6X 1691   4.741   1.400   3.744 -1.1099 -0.4257  0.8494
   13SAPS   H6Y 1692   4.613   1.268   3.763 -0.1120 -0.7513 -0.4898
   13SAPS   C37 1693   4.579   1.454   3.865  0.1851 -0.9790  0.1362
   13SAPS   H7X 1694   4.469   1.458   3.850 -0.2134 -2.3316  2.1815
   13SAPS   H7Y 1695   4.628   1.553   3.874 -0.3445 -0.5912 -1.0557
   13SAPS   C38 1696   4.611   1.365   3.992  1.1659  0.4269  0.0189
   13SAPS   H8X 1697   4.713   1.323   4.005  0.4336 -0.8579  1.9775
   13SAPS   H8Y 1698   4.548   1.274   3.980 -4.3087  3.6074  0.9424
   13SAPS   C39 1699   4.566   1.426   4.124 -0.2099 -0.5114  0.0171
   13SAPS   H9X 1700   4.458   1.451   4.125 -0.0331  0.2993 -0.2921
   13SAPS   H9Y 1701   4.604   1.530   4.136 -1.8070  0.2313 -1.0309
   13SAPS  C310 1702   4.631   1.361   4.255 -0.2125  0.3244  0.4217
   13SAPS  H10X 1703   4.741   1.367   4.242  0.1200  1.5210  3.0970
   13SAPS  H10Y 1704   4.606   1.253   4.253  0.4724  0.1650 -1.8919
   13SAPS  C311 1705   4.583   1.432   4.384 -0.2030 -0.3172 -0.9071
   13SAPS  H11X 1706   4.473   1.422   4.390 -0.3721  1.9351  1.8585
   13SAPS  H11Y 1707   4.609   1.540   4.372 -2.1790  0.0849 -2.1655
   13SAPS  C312 1708   4.622   1.375   4.524  0.2994  0.5012  1.2263
   13SAPS  H12X 1709   4.724   1.410   4.553  1.7846 -1.9924 -0.5379
   13SAPS  H12Y 1710   4.629   1.264   4.521 -0.1617  0.4915  0.3322
   13SAPS  C313 1711   4.528   1.403   4.639  0.0023  0.2509  0.3866
   13SAPS  H13X 1712   4.579   1.389   4.737 -3.4263 -3.5003  1.9222
   13SAPS  H13Y 1713   4.459   1.317   4.654 -1.7168  1.7892  2.0415
   13SAPS  C314 1714   4.457   1.540   4.629 -0.4308 -0.0350  0.4772
   13SAPS  H14X 1715   4.406   1.557   4.532 -2.1253 -1.3215  1.1043
   13SAPS  H14Y 1716   4.534   1.620   4.632 -0.3739 -0.1093  1.1041
   13SAPS  C315 1717   4.359   1.555   4.740  0.0319 -0.2296  0.7435
   13SAPS  H15X 1718   4.417   1.548   4.835 -0.5898 -0.8106  1.0903
   13SAPS  H15Y 1719   4.283   1.474   4.740  1.8979 -2.0495  0.8991
   13SAPS  C316 1720   4.294   1.698   4.748 -0.5974  0.2861  0.4586
   13SAPS  H16X 1721   4.229   1.695   4.658 -0.4654  0.2168  0.3653
   13SAPS  H16Y 1722   4.370   1.777   4.734  0.6661 -0.9570  0.0370
   13SAPS  C317 1723   4.219   1.743   4.872 -0.5028  0.0289  0.0861
   13SAPS  H17X 1724   4.194   1.852   4.870 -0.7777 -0.0385 -0.2980
   13SAPS  H17Y 1725   4.284   1.732   4.961 -0.3448  0.2122 -0.0062
   13SAPS  C318 1726   4.087   1.678   4.902 -0.4578  0.0409  1.0499
   13SAPS  H18X 1727   4.088   1.566   4.899 -2.1694 -0.0023  1.2690
   13SAPS  H18Y 1728   4.007   1.705   4.830 -0.7739 -0.3085  1.2654
   13SAPS  H18Z 1729   4.040   1.714   4.996 -3.0414  0.7280 -0.4072
   14SAPS     N 1730   4.363   3.191   2.207  0.3048  0.1646  0.4941
   14SAPS   HN1 1731   4.437   3.232   2.268  1.7432  0.6877 -1.5171
   14SAPS   HN2 1732   4.270   3.232   2.229 -1.3453 -2.8921 -0.2021
   14SAPS   HN3 1733   4.371   3.088   2.222  0.6804  0.0011 -0.7657
   14SAPS   C12 1734   4.393   3.217   2.066 -0.4167  0.9882  0.4245
   14SAPS  H12A 1735   4.493   3.183   2.046 -0.3418  0.8738  0.9771
   14SAPS   C13 1736   4.296   3.151   1.966  0.9097  0.6632 -0.6250
   14SAPS  O13A 1737   4.186   3.105   2.007  0.4715  0.6087  0.2074
   14SAPS  O13B 1738   4.323   3.161   1.842 -0.2485 -0.3126 -0.0926
   14SAPS   C11 1739   4.385   3.372   2.043  1.1629  0.0227 -0.0865
   14SAPS  H11A 1740   4.278   3.400   2.054  1.3942  0.8727  0.0298
   14SAPS  H11B 1741   4.406   3.418   1.944 -1.8468  2.3924  0.2412
   14SAPS     P 1742   4.599   3.504   2.094 -0.4182 -0.3974 -0.2097
   14SAPS   O13 1743   4.668   3.418   1.993  0.1243 -0.0191 -0.2008
   14SAPS   O14 1744   4.564   3.637   2.036 -0.2716  0.1154 -0.1590
   14SAPS   O12 1745   4.466   3.431   2.148 -0.1841  0.1463 -0.3375
   14SAPS   O11 1746   4.682   3.533   2.227  0.4364 -0.1589  0.0864
   14SAPS    C1 1747   4.613   3.567   2.349  0.1091  0.2904 -0.1959
   14SAPS    HA 1748   4.551   3.659   2.354  1.8591  1.4480  2.2773
   14SAPS    HB 1749   4.548   3.483   2.381  0.1497  0.5057  0.4651
   14SAPS    C2 1750   4.703   3.577   2.473 -0.7892 -0.6642 -0.3165
   14SAPS    HS 1751   4.765   3.486   2.483  1.9671  0.8614 -2.1067
   14SAPS   O21 1752   4.626   3.607   2.589 -0.3443  0.3465  0.1812
   14SAPS   C21 1753   4.570   3.490   2.631  0.6119  0.2344  0.5950
   14SAPS   O22 1754   4.587   3.380   2.581  0.5074 -0.7293 -0.1058
   14SAPS   C22 1755   4.481   3.527   2.739  0.2073 -0.7086 -0.4088
   14SAPS   H2R 1756   4.438   3.629   2.728 -0.9685 -1.0211  0.9021
   14SAPS   H2S 1757   4.397   3.455   2.728 -1.4207  0.9730  0.3435
   14SAPS    C3 1758   4.811   3.688   2.440  0.0491  0.2668  0.2905
   14SAPS    HX 1759   4.749   3.778   2.422  1.2031  1.0040 -0.0953
   14SAPS    HY 1760   4.857   3.676   2.340  0.3920  1.9146  0.2314
   14SAPS   O31 1761   4.902   3.705   2.546 -0.5353 -0.4704 -0.0215
   14SAPS   C31 1762   4.880   3.811   2.624 -0.6329  0.2572 -0.4852
   14SAPS   O32 1763   4.782   3.878   2.619  0.3950  0.0761 -0.4468
   14SAPS   C32 1764   5.008   3.839   2.709 -0.3444  1.3180  0.3513
   14SAPS   H2X 1765   4.991   3.905   2.797  0.8096  1.0569  0.7983
   14SAPS   H2Y 1766   5.071   3.887   2.630 -0.9622  1.3463 -0.1306
   14SAPS   C23 1767   4.547   3.509   2.882 -0.1982  0.0477  0.1269
   14SAPS   H3R 1768   4.577   3.402   2.890 -0.5432 -0.2733 -2.0800
   14SAPS   H3S 1769   4.476   3.538   2.962 -0.5071 -0.8245  0.1738
   14SAPS   C24 1770   4.658   3.607   2.910  0.0352  0.4628 -0.5569
   14SAPS   H4R 1771   4.608   3.705   2.893 -1.2696  0.0173  0.5108
   14SAPS   H4S 1772   4.739   3.592   2.836  0.3616  1.8303 -0.4999
   14SAPS   C25 1773   4.715   3.583   3.050  0.6373 -0.1429  0.2393
   14SAPS   H5R 1774   4.738   3.478   3.070  1.7441  0.2080  0.8948
   14SAPS   C26 1775   4.739   3.670   3.149 -0.3251  0.7173  0.2510
   14SAPS   H6R 1776   4.786   3.638   3.243  0.0196 -1.5188 -0.6125
   14SAPS   C27 1777   4.727   3.820   3.142 -0.4063  0.1833 -0.0743
   14SAPS   H7R 1778   4.651   3.858   3.213 -0.4787  1.8676 -1.0108
   14SAPS   H7S 1779   4.698   3.867   3.045  2.1675  1.1765 -0.4599
   14SAPS   C28 1780   4.856   3.886   3.187  0.6323  0.1301  0.3066
   14SAPS   H8R 1781   4.915   3.909   3.098 -1.3869 -1.8247 -1.6681
   14SAPS   C29 1782   4.888   3.910   3.315 -0.9086 -0.4479  0.2306
   14SAPS   H9R 1783   4.982   3.964   3.331 -0.1992 -1.9546  1.4003
   14SAPS  C210 1784   4.820   3.882   3.446 -0.4133 -0.3677 -0.5989
   14SAPS  H10R 1785   4.714   3.852   3.430 -0.8114 -1.6934  3.3565
   14SAPS  H10S 1786   4.826   3.976   3.505 -0.8470  0.0109 -1.1456
   14SAPS  C211 1787   4.891   3.765   3.510 -0.2592 -0.5281  0.2492
   14SAPS  H11R 1788   4.915   3.684   3.439 -3.4662 -2.2416  0.9116
   14SAPS  C212 1789   4.913   3.750   3.639  0.2904  0.8065 -0.3129
   14SAPS  H12R 1790   4.950   3.652   3.674 -1.6490 -0.1915 -0.8833
   14SAPS  C213 1791   4.882   3.835   3.764  0.3072 -0.2202  0.2531
   14SAPS  H13R 1792   4.823   3.779   3.840 -0.4660 -1.6164 -1.2998
   14SAPS  H13S 1793   4.816   3.917   3.730  0.5198  0.5145  1.5804
   14SAPS  C214 1794   5.016   3.879   3.831  0.2198  0.0610 -0.0415
   14SAPS  H14R 1795   5.107   3.850   3.776  0.3596  1.5821 -0.6702
   14SAPS  C215 1796   5.030   3.944   3.947 -0.6636 -0.3447  0.4155
   14SAPS  H15R 1797   5.132   3.966   3.981 -1.4551  2.9027  1.0556
   14SAPS  C216 1798   4.918   3.987   4.036 -0.3156  0.1741 -0.8855
   14SAPS  H16R 1799   4.824   3.962   3.982  0.9590 -1.2282 -2.5610
   14SAPS  H16S 1800   4.906   4.093   4.068 -2.3587 -0.3716  0.3346
   14SAPS  C217 1801   4.909   3.907   4.169  0.3585  0.9125  0.0799
   14SAPS  H17R 1802   4.902   3.801   4.138  0.4752  1.2877 -1.3073
   14SAPS  H17S 1803   4.810   3.929   4.214  0.4458  0.3423  0.5593
   14SAPS  C218 1804   5.019   3.932   4.268 -0.2957  0.6168  0.1117
   14SAPS  H18R 1805   5.118   3.916   4.219 -1.5145 -2.5882 -1.6464
   14SAPS  H18S 1806   5.018   3.849   4.342 -0.9044  0.8844  0.4042
   14SAPS  C219 1807   5.020   4.064   4.345 -0.8318 -0.5041 -0.9098
   14SAPS  H19R 1808   4.938   4.062   4.419 -1.0858  2.0770 -1.0268
   14SAPS  H19S 1809   5.002   4.146   4.272 -1.2221 -0.3317 -0.6190
   14SAPS  C220 1810   5.152   4.102   4.426  0.1986  0.3195  0.4513
   14SAPS  H20R 1811   5.186   4.022   4.496 -0.6448  1.5792  2.3678
   14SAPS  H20S 1812   5.130   4.187   4.494  0.9217 -0.5492  1.8083
   14SAPS  H20T 1813   5.229   4.141   4.355  0.7234  0.3244  1.0165
   14SAPS   C33 1814   5.068   3.704   2.770  0.0712  0.4008 -0.4196
   14SAPS   H3X 1815   5.052   3.622   2.697  1.4006  2.2559 -2.9376
   14SAPS   H3Y 1816   5.008   3.669   2.857  0.5806  0.1820 -0.1545
   14SAPS   C34 1817   5.213   3.718   2.812  0.5793  0.5469 -0.4963
   14SAPS   H4X 1818   5.223   3.790   2.896 -1.0809  1.3652 -0.9562
   14SAPS   H4Y 1819   5.270   3.761   2.726  2.1681 -1.8488 -0.7169
   14SAPS   C35 1820   5.278   3.582   2.856  0.4373  0.0432  0.4344
   14SAPS   H5X 1821   5.387   3.599   2.869  0.4834  0.0702  0.0354
   14SAPS   H5Y 1822   5.269   3.503   2.778 -1.6849 -0.2898  0.9629
   14SAPS   C36 1823   5.217   3.516   2.987  0.4022  0.6563  0.0235
   14SAPS   H6X 1824   5.231   3.407   2.972 -0.8936  0.4525  0.1946
   14SAPS   H6Y 1825   5.107   3.525   2.982  0.4924  1.1020 -2.0505
   14SAPS   C37 1826   5.274   3.580   3.108 -0.2046 -0.2066  0.5960
   14SAPS   H7X 1827   5.242   3.686   3.115  0.6246  0.0002  1.4942
   14SAPS   H7Y 1828   5.384   3.592   3.109  0.1188 -2.5103  0.0224
   14SAPS   C38 1829   5.239   3.507   3.238  0.3459 -0.2258 -0.3150
   14SAPS   H8X 1830   5.281   3.404   3.231 -0.2020 -0.4774  0.0401
   14SAPS   H8Y 1831   5.128   3.499   3.244 -0.0056  0.3857 -3.7957
   14SAPS   C39 1832   5.294   3.582   3.367  0.4734  0.5569 -0.4985
   14SAPS   H9X 1833   5.263   3.687   3.353  0.1096  0.5885  0.4837
   14SAPS   H9Y 1834   5.405   3.587   3.357  0.2752  2.8167 -2.5092
   14SAPS  C310 1835   5.249   3.523   3.499  0.1466  0.2303  0.3163
   14SAPS  H10X 1836   5.258   3.412   3.498 -1.5208  0.0682 -0.5009
   14SAPS  H10Y 1837   5.139   3.530   3.517  0.2688 -0.1404  1.2930
   14SAPS  C311 1838   5.319   3.592   3.614 -0.7891  0.2268  0.4089
   14SAPS  H11X 1839   5.324   3.701   3.596  0.3381 -0.0310 -1.0541
   14SAPS  H11Y 1840   5.427   3.571   3.627 -0.7738 -0.0883 -0.1976
   14SAPS  C312 1841   5.253   3.560   3.744  0.1508 -0.5025  0.0698
   14SAPS  H12X 1842   5.286   3.459   3.775 -1.8856 -1.6229 -1.1682
   14SAPS  H12Y 1843   5.142   3.573   3.740  0.0266 -1.0155  1.4455
   14SAPS  C313 1844   5.323   3.649   3.850  0.7574 -0.0566 -0.2586
   14SAPS  H13X 1845   5.324   3.754   3.815  1.3000 -0.9902 -3.3527
   14SAPS  H13Y 1846   5.427   3.611   3.845  0.6957 -0.0480 -3.1161
   14SAPS  C314 1847   5.270   3.635   3.991  0.1980  0.4666 -0.3404
   14SAPS  H14X 1848   5.239   3.535   4.028  0.8039  0.7978  1.1336
   14SAPS  H14Y 1849   5.180   3.698   4.008  0.0265  0.3028 -0.6308
   14SAPS  C315 1850   5.373   3.686   4.098 -0.0408  0.1305 -0.8570
   14SAPS  H15X 1851   5.396   3.792   4.075 -1.2020  0.9779  1.5680
   14SAPS  H15Y 1852   5.465   3.632   4.067 -0.2631 -0.2321 -0.9000
   14SAPS  C316 1853   5.333   3.663   4.243 -0.1141 -0.1670  0.0378
   14SAPS  H16X 1854   5.322   3.553   4.260 -1.2827 -0.4228 -1.9964
   14SAPS  H16Y 1855   5.230   3.698   4.264  0.4247  0.5768  1.5528
   14SAPS  C317 1856   5.425   3.735   4.350  0.8195  0.2429 -0.2546
   14SAPS  H17X 1857   5.444   3.841   4.322  2.0967  0.5359  1.5624
   14SAPS  H17Y 1858   5.522   3.679   4.350  0.5184 -0.2940  0.5474
   14SAPS  C318 1859   5.370   3.730   4.497 -0.3479  0.1611 -0.6462
   14SAPS  H18X 1860   5.292   3.808   4.499  1.2077  1.7706 -0.0936
   14SAPS  H18Y 1861   5.453   3.769   4.560 -1.7506  0.3192  1.1578
   14SAPS  H18Z 1862   5.330   3.634   4.537 -1.0267  0.6093 -0.2480
   15SAPS     N 1863   4.123   3.768   2.313  0.1544  0.2232  0.3404
   15SAPS   HN1 1864   4.194   3.701   2.350  0.5063 -0.0732 -0.8557
   15SAPS   HN2 1865   4.156   3.865   2.293  0.2355  0.0727 -0.2644
   15SAPS   HN3 1866   4.038   3.775   2.373 -1.3132  2.5894 -1.8055
   15SAPS   C12 1867   4.091   3.695   2.181  0.1472 -1.4261 -0.3654
   15SAPS  H12A 1868   3.993   3.733   2.155  0.6034 -0.0794 -0.2112
   15SAPS   C13 1869   4.183   3.756   2.063  0.4287 -0.3239  1.1771
   15SAPS  O13A 1870   4.265   3.850   2.085  0.0663  0.1145  0.3528
   15SAPS  O13B 1871   4.165   3.702   1.947 -0.4943 -0.5150  0.8602
   15SAPS   C11 1872   4.118   3.544   2.190  1.2180  0.8265  0.4399
   15SAPS  H11A 1873   4.225   3.520   2.206  1.6269  0.7270 -2.0997
   15SAPS  H11B 1874   4.082   3.500   2.095  1.8795 -0.5179  0.7882
   15SAPS     P 1875   4.003   3.343   2.321 -0.3772 -0.5129 -0.1483
   15SAPS   O13 1876   3.895   3.320   2.222  0.6678 -0.4080  0.3587
   15SAPS   O14 1877   4.130   3.271   2.303 -0.0677 -0.5128 -0.0804
   15SAPS   O12 1878   4.038   3.494   2.311  0.7033 -0.3231  0.3676
   15SAPS   O11 1879   3.949   3.317   2.466  0.1025  0.2040  0.3433
   15SAPS    C1 1880   3.833   3.388   2.503 -0.4489  0.4279 -0.1060
   15SAPS    HA 1881   3.758   3.397   2.422  0.5758  0.0968 -1.1135
   15SAPS    HB 1882   3.780   3.316   2.569 -1.3166 -0.7028 -1.9349
   15SAPS    C2 1883   3.864   3.518   2.572 -0.5453  0.1999 -0.2929
   15SAPS    HS 1884   3.940   3.575   2.513 -0.7497  1.0348  0.2395
   15SAPS   O21 1885   3.905   3.498   2.711 -0.1197  0.0902  0.0605
   15SAPS   C21 1886   4.031   3.526   2.732  0.7822  0.0399 -0.0714
   15SAPS   O22 1887   4.095   3.603   2.662 -0.8278  0.0507  0.2502
   15SAPS   C22 1888   4.072   3.458   2.864 -0.4803 -0.5642 -0.0810
   15SAPS   H2R 1889   4.014   3.364   2.872 -1.0588 -0.1782  0.4084
   15SAPS   H2S 1890   4.181   3.437   2.866 -0.7250 -2.0573 -1.2077
   15SAPS    C3 1891   3.747   3.617   2.573  0.2013 -0.3742  0.1302
   15SAPS    HX 1892   3.667   3.562   2.626 -1.0217  2.0722  1.0087
   15SAPS    HY 1893   3.735   3.646   2.466  1.8732  1.1776  0.3089
   15SAPS   O31 1894   3.778   3.739   2.647 -0.6707 -0.0698  0.0026
   15SAPS   C31 1895   3.847   3.831   2.582 -0.1035 -0.2783  0.9016
   15SAPS   O32 1896   3.894   3.819   2.470 -0.7665  0.0776  0.3260
   15SAPS   C32 1897   3.870   3.956   2.669 -0.6524 -0.0840 -0.3401
   15SAPS   H2X 1898   3.777   4.015   2.682 -1.3566 -1.1496 -0.4142
   15SAPS   H2Y 1899   3.954   4.017   2.630 -0.0941 -0.2185  0.6066
   15SAPS   C23 1900   4.047   3.546   2.991 -0.3392  0.1339 -0.0858
   15SAPS   H3R 1901   4.032   3.480   3.079 -0.5176  0.8221  0.4047
   15SAPS   H3S 1902   3.951   3.602   2.987 -0.9710 -0.9538 -3.1972
   15SAPS   C24 1903   4.169   3.631   3.030 -0.0507  1.4115  0.1403
   15SAPS   H4R 1904   4.211   3.686   2.944  2.6865 -2.4722 -1.2449
   15SAPS   H4S 1905   4.254   3.560   3.037 -1.2752 -0.0363  1.0365
   15SAPS   C25 1906   4.129   3.712   3.144 -0.7280 -0.8248  0.4586
   15SAPS   H5R 1907   4.048   3.784   3.125 -0.0351 -0.4717 -1.3968
   15SAPS   C26 1908   4.180   3.704   3.268  0.3298  0.1688 -0.0402
   15SAPS   H6R 1909   4.147   3.774   3.347  1.1826  0.9910 -0.3956
   15SAPS   C27 1910   4.292   3.616   3.319 -0.2378 -0.5133 -1.0623
   15SAPS   H7R 1911   4.331   3.546   3.242  1.9374 -0.5913  0.0297
   15SAPS   H7S 1912   4.256   3.549   3.400 -3.2848  1.9934 -0.1330
   15SAPS   C28 1913   4.413   3.702   3.359  0.7738 -0.0353 -0.6021
   15SAPS   H8R 1914   4.463   3.752   3.275 -0.2083 -0.7252 -1.6346
   15SAPS   C29 1915   4.450   3.721   3.486 -0.4402  0.3398 -0.4059
   15SAPS   H9R 1916   4.534   3.790   3.505 -0.3564  0.0815  0.1950
   15SAPS  C210 1917   4.401   3.673   3.617  0.5153  0.4384 -0.2529
   15SAPS  H10R 1918   4.490   3.661   3.683  0.1567  0.8103  0.3041
   15SAPS  H10S 1919   4.374   3.565   3.607 -0.7366  0.2715  3.3593
   15SAPS  C211 1920   4.296   3.749   3.683 -0.0676  0.0497  0.4574
   15SAPS  H11R 1921   4.237   3.812   3.615 -0.6739  1.6683  2.3784
   15SAPS  C212 1922   4.263   3.759   3.813 -0.3426 -0.4608  0.1036
   15SAPS  H12R 1923   4.210   3.855   3.827  3.1270  1.6044  0.2709
   15SAPS  C213 1924   4.331   3.681   3.925 -0.3191 -0.1969 -0.0434
   15SAPS  H13R 1925   4.358   3.580   3.889  1.1222  0.6677 -1.5218
   15SAPS  H13S 1926   4.259   3.689   4.009  1.1155  3.4796  1.0018
   15SAPS  C214 1927   4.459   3.745   3.970  0.1789 -0.4508 -0.3292
   15SAPS  H14R 1928   4.541   3.748   3.898 -0.9276 -3.3043 -1.8434
   15SAPS  C215 1929   4.494   3.786   4.096  0.5640  0.8779 -0.1105
   15SAPS  H15R 1930   4.597   3.815   4.121  0.3545  0.3169  1.4989
   15SAPS  C216 1931   4.407   3.782   4.222  0.5027  0.6189  0.5715
   15SAPS  H16R 1932   4.464   3.763   4.316  0.9582 -1.1342 -0.0107
   15SAPS  H16S 1933   4.331   3.701   4.224 -0.2277  1.1983 -1.6976
   15SAPS  C217 1934   4.308   3.909   4.238 -0.2787 -0.0706 -0.3310
   15SAPS  H17R 1935   4.242   3.930   4.151 -0.0847 -1.1018 -0.7426
   15SAPS  H17S 1936   4.376   3.998   4.238 -0.4636  0.0752 -0.9905
   15SAPS  C218 1937   4.219   3.898   4.357  0.0883 -0.0835 -0.6135
   15SAPS  H18R 1938   4.282   3.867   4.443 -0.5807  0.9532  0.2896
   15SAPS  H18S 1939   4.154   3.808   4.349  2.8730 -2.4852  1.5446
   15SAPS  C219 1940   4.168   4.038   4.384 -0.3016 -0.3135  0.2328
   15SAPS  H19R 1941   4.137   4.098   4.295  0.4029  0.2037  0.3301
   15SAPS  H19S 1942   4.255   4.098   4.419 -0.3744  1.2528 -1.9866
   15SAPS  C220 1943   4.074   4.049   4.501  0.0323  0.6121 -0.3788
   15SAPS  H20R 1944   3.978   3.999   4.475  0.2578  0.6536 -1.3162
   15SAPS  H20S 1945   4.054   4.157   4.519 -1.1696  0.2151  0.8759
   15SAPS  H20T 1946   4.121   4.017   4.596 -0.1489  0.1258 -0.4495
   15SAPS   C33 1947   3.934   3.921   2.806  0.1463 -0.0305 -0.5338
   15SAPS   H3X 1948   4.045   3.924   2.814  0.5261 -0.2749 -4.0321
   15SAPS   H3Y 1949   3.895   3.827   2.850 -1.4415  1.1420  0.7112
   15SAPS   C34 1950   3.872   4.033   2.901  0.2753  0.0402  0.2722
   15SAPS   H4X 1951   3.764   4.010   2.908  0.6360 -2.7207 -1.4772
   15SAPS   H4Y 1952   3.883   4.132   2.853  3.8580 -0.1309  0.4958
   15SAPS   C35 1953   3.934   4.047   3.039  1.2282  0.3536  0.4772
   15SAPS   H5X 1954   4.045   4.050   3.035  1.2765 -0.1720  1.0891
   15SAPS   H5Y 1955   3.917   3.950   3.092  2.2285 -0.1965 -0.1684
   15SAPS   C36 1956   3.871   4.159   3.119  0.0029 -0.1138 -0.3697
   15SAPS   H6X 1957   3.760   4.155   3.122 -0.0136  0.6804  2.4666
   15SAPS   H6Y 1958   3.894   4.258   3.075  1.8994 -0.0478  0.6748
   15SAPS   C37 1959   3.917   4.162   3.269 -0.1908  0.3665 -0.7077
   15SAPS   H7X 1960   3.853   4.241   3.314  0.3854  0.7167 -0.5046
   15SAPS   H7Y 1961   4.024   4.191   3.272 -0.5361  1.9173 -1.7869
   15SAPS   C38 1962   3.909   4.028   3.339  0.3079  0.8464 -0.9094
   15SAPS   H8X 1963   4.000   3.969   3.313 -1.0001 -0.4650 -2.8990
   15SAPS   H8Y 1964   3.822   3.977   3.291 -1.2162  0.3327  2.1843
   15SAPS   C39 1965   3.874   4.040   3.486 -0.5806  0.3953 -1.0279
   15SAPS   H9X 1966   3.805   3.956   3.508  0.9956 -1.2061 -1.9476
   15SAPS   H9Y 1967   3.825   4.133   3.523 -4.2194 -2.4642  2.1707
   15SAPS  C310 1968   4.006   4.028   3.570  0.0972 -0.2175  1.1610
   15SAPS  H10X 1969   4.083   4.104   3.544  1.2664 -1.5663  0.5179
   15SAPS  H10Y 1970   4.048   3.931   3.534 -0.0170  0.5860 -1.3734
   15SAPS  C311 1971   3.961   4.020   3.716  0.1564  0.1524 -1.0504
   15SAPS  H11X 1972   4.016   3.957   3.789 -0.9184  1.1063  0.6587
   15SAPS  H11Y 1973   3.864   3.969   3.731 -0.7655  1.8333 -1.0370
   15SAPS  C312 1974   3.965   4.151   3.792 -0.7262  0.7997 -0.1256
   15SAPS  H12X 1975   3.892   4.223   3.749 -0.0344  0.5310 -1.8238
   15SAPS  H12Y 1976   4.068   4.192   3.795 -0.1384 -0.5489 -0.9705
   15SAPS  C313 1977   3.934   4.129   3.944 -0.8072 -0.6610 -0.5046
   15SAPS  H13X 1978   4.006   4.060   3.993 -1.2846 -1.4905 -0.9453
   15SAPS  H13Y 1979   3.832   4.084   3.951 -1.1911  0.0593 -1.2562
   15SAPS  C314 1980   3.926   4.257   4.016  0.0908 -0.0810  0.3688
   15SAPS  H14X 1981   3.874   4.344   3.971  2.8669  0.2697 -2.5877
   15SAPS  H14Y 1982   4.030   4.296   4.025 -0.4523  1.3259  0.7597
   15SAPS  C315 1983   3.887   4.223   4.156  0.6043  0.1766 -0.0675
   15SAPS  H15X 1984   3.912   4.309   4.222  0.9120  0.0240  0.0177
   15SAPS  H15Y 1985   3.936   4.127   4.183 -1.7780 -1.8904 -2.3856
   15SAPS  C316 1986   3.733   4.209   4.165 -0.5127  1.1360 -0.3687
   15SAPS  H16X 1987   3.698   4.115   4.117 -1.9307  1.8572 -0.8000
   15SAPS  H16Y 1988   3.691   4.292   4.105  1.4705  3.6882  1.5160
   15SAPS  C317 1989   3.693   4.214   4.311  0.4360  0.3478  0.2172
   15SAPS  H17X 1990   3.745   4.296   4.366  0.6824 -0.1874  0.7921
   15SAPS  H17Y 1991   3.733   4.120   4.354  0.2082  0.0747 -0.1700
   15SAPS  C318 1992   3.544   4.226   4.325  0.6877  0.0140  0.1336
   15SAPS  H18X 1993   3.529   4.224   4.435  2.5523 -1.2096  0.4175
   15SAPS  H18Y 1994   3.488   4.145   4.274  0.8380  0.3880 -0.6580
   15SAPS  H18Z 1995   3.511   4.322   4.278 -0.1879  0.3825  1.4423
   16SAPS     N 1996   5.346   3.836   2.213  0.4312 -0.4871  0.2791
   16SAPS   HN1 1997   5.325   3.736   2.234  0.1983 -0.6568 -0.7140
   16SAPS   HN2 1998   5.425   3.863   2.274  0.6928  2.7230 -1.2748
   16SAPS   HN3 1999   5.258   3.886   2.239  0.5109  0.2099 -0.7456
   16SAPS   C12 2000   5.384   3.879   2.075 -0.4123 -0.4790 -0.0964
   16SAPS  H12A 2001   5.461   3.814   2.037  0.0346  0.2609 -0.4884
   16SAPS   C13 2002   5.265   3.893   1.967 -0.9799 -0.0141 -0.5227
   16SAPS  O13A 2003   5.159   3.849   2.011 -0.5090  0.4243  0.5691
   16SAPS  O13B 2004   5.273   3.977   1.875 -0.2014  0.6397 -0.2470
   16SAPS   C11 2005   5.444   4.020   2.092  0.0098  0.5669  0.1151
   16SAPS  H11A 2006   5.363   4.086   2.130 -0.2207 -0.0314  0.6894
   16SAPS  H11B 2007   5.469   4.056   1.990  0.8868 -2.0300 -0.6471
   16SAPS     P 2008   5.638   4.167   2.177 -0.3745 -0.1793  0.3236
   16SAPS   O13 2009   5.763   4.154   2.255  0.2328 -0.0112  0.8191
   16SAPS   O14 2010   5.666   4.202   2.035  0.3308 -0.2666 -0.0745
   16SAPS   O12 2011   5.557   4.031   2.175  0.3103  0.2968 -0.1929
   16SAPS   O11 2012   5.538   4.264   2.253 -0.2234  0.1846 -0.5930
   16SAPS    C1 2013   5.502   4.235   2.390 -0.9477 -0.1440 -0.4123
   16SAPS    HA 2014   5.404   4.283   2.411  0.0418  0.6290  3.1718
   16SAPS    HB 2015   5.485   4.126   2.405  0.1965 -0.1536  0.9831
   16SAPS    C2 2016   5.607   4.301   2.490 -0.5034  0.3551  0.3817
   16SAPS    HS 2017   5.704   4.258   2.455 -0.2192  0.5942  0.8670
   16SAPS   O21 2018   5.580   4.284   2.633 -0.3631  0.4226  0.5231
   16SAPS   C21 2019   5.607   4.158   2.656  0.7861 -0.5257 -0.1546
   16SAPS   O22 2020   5.666   4.085   2.579  0.1452  0.2746 -0.5094
   16SAPS   C22 2021   5.571   4.131   2.807  0.5716 -0.2939 -0.9482
   16SAPS   H2R 2022   5.634   4.200   2.867  0.3668 -0.5061 -0.4825
   16SAPS   H2S 2023   5.468   4.168   2.824  1.3017  0.9178  1.2087
   16SAPS    C3 2024   5.609   4.451   2.454 -0.3579  0.1632  0.0055
   16SAPS    HX 2025   5.502   4.480   2.457  0.1140  1.9845  1.5234
   16SAPS    HY 2026   5.654   4.477   2.356 -0.2953  0.0261 -0.0020
   16SAPS   O31 2027   5.681   4.529   2.558 -0.2963 -0.3679 -0.3780
   16SAPS   C31 2028   5.813   4.512   2.577  0.9049 -0.0716 -0.2077
   16SAPS   O32 2029   5.873   4.426   2.519  0.1432 -0.0451 -0.0773
   16SAPS   C32 2030   5.864   4.603   2.681 -0.4464  0.6677 -0.2739
   16SAPS   H2X 2031   5.850   4.707   2.645 -2.9547  0.1174 -1.0834
   16SAPS   H2Y 2032   5.972   4.581   2.686 -0.8643 -1.3792  0.8818
   16SAPS   C23 2033   5.595   3.986   2.862 -0.0817 -0.7181  0.9263
   16SAPS   H3R 2034   5.704   3.965   2.853 -0.1056 -0.3492 -0.4273
   16SAPS   H3S 2035   5.546   3.913   2.794 -0.1207  1.1488 -1.1516
   16SAPS   C24 2036   5.551   3.981   3.012  0.0445  0.1861 -0.0615
   16SAPS   H4R 2037   5.586   4.074   3.062 -0.2400  0.7423 -0.8698
   16SAPS   H4S 2038   5.598   3.893   3.061 -1.3766 -1.0246 -0.8018
   16SAPS   C25 2039   5.402   3.968   3.018  0.3868  0.0473  0.5258
   16SAPS   H5R 2040   5.362   3.935   2.921  2.3742 -0.0838 -0.2839
   16SAPS   C26 2041   5.314   3.980   3.121  0.5937  0.0204  0.0307
   16SAPS   H6R 2042   5.208   3.971   3.095  0.6985 -0.1836 -0.3347
   16SAPS   C27 2043   5.361   4.019   3.260 -0.4464  0.3504  0.3731
   16SAPS   H7R 2044   5.265   4.035   3.314 -0.5756 -0.0348  0.2630
   16SAPS   H7S 2045   5.420   4.113   3.262  1.3209 -0.7074  3.0613
   16SAPS   C28 2046   5.442   3.918   3.336  0.2975  0.2881 -0.1085
   16SAPS   H8R 2047   5.456   3.815   3.299  1.1450  0.2834  0.1978
   16SAPS   C29 2048   5.504   3.943   3.458 -0.5418 -0.0506  0.6497
   16SAPS   H9R 2049   5.568   3.857   3.482 -1.2967 -1.6858 -2.6205
   16SAPS  C210 2050   5.507   4.071   3.536 -0.3357 -0.3014 -0.3343
   16SAPS  H10R 2051   5.508   4.156   3.463 -1.4439 -0.5286 -0.6418
   16SAPS  H10S 2052   5.595   4.083   3.602 -0.3409 -1.1716 -0.1670
   16SAPS  C211 2053   5.381   4.077   3.616  0.7993 -0.5040 -0.0661
   16SAPS  H11R 2054   5.292   4.031   3.571  0.9420 -1.1453  0.2968
   16SAPS  C212 2055   5.365   4.112   3.745 -0.2989 -0.1377 -0.0013
   16SAPS  H12R 2056   5.266   4.113   3.793 -0.4405 -0.0105 -0.2976
   16SAPS  C213 2057   5.475   4.170   3.830 -0.3457  0.3254 -0.0868
   16SAPS  H13R 2058   5.443   4.252   3.897 -2.1963  0.1637 -0.7302
   16SAPS  H13S 2059   5.545   4.222   3.761 -1.8253  1.8803 -0.4773
   16SAPS  C214 2060   5.550   4.068   3.905 -0.0920  0.1590  0.2374
   16SAPS  H14R 2061   5.617   4.003   3.847 -1.1007  0.9467 -1.9260
   16SAPS  C215 2062   5.548   4.044   4.035  0.0553 -0.0854 -0.5478
   16SAPS  H15R 2063   5.607   3.957   4.067 -0.3388  0.6847  2.6599
   16SAPS  C216 2064   5.476   4.113   4.144  0.0049 -0.2733  0.2363
   16SAPS  H16R 2065   5.417   4.047   4.211  0.6884 -1.7825 -0.6068
   16SAPS  H16S 2066   5.400   4.181   4.099 -0.8561 -0.5693  1.1841
   16SAPS  C217 2067   5.568   4.212   4.223  0.4258 -0.0172  0.1200
   16SAPS  H17R 2068   5.498   4.274   4.282 -0.6859 -0.9360 -0.2125
   16SAPS  H17S 2069   5.632   4.279   4.162 -1.6052 -0.2476 -2.3972
   16SAPS  C218 2070   5.676   4.133   4.291  0.6821 -0.8441 -0.2127
   16SAPS  H18R 2071   5.737   4.076   4.218 -1.3862 -1.3645 -1.6193
   16SAPS  H18S 2072   5.634   4.045   4.346  0.7042 -1.0710 -0.5583
   16SAPS  C219 2073   5.763   4.208   4.387 -0.6192 -0.2525 -0.3862
   16SAPS  H19R 2074   5.721   4.308   4.408  0.3439  0.0317  0.2516
   16SAPS  H19S 2075   5.853   4.232   4.327 -0.6711  0.7668 -0.0772
   16SAPS  C220 2076   5.779   4.130   4.519  0.3668 -0.4423 -0.1863
   16SAPS  H20R 2077   5.823   4.200   4.593 -2.4030  2.8275 -1.3700
   16SAPS  H20S 2078   5.850   4.045   4.509 -0.8255 -1.8562  2.3487
   16SAPS  H20T 2079   5.676   4.111   4.556  0.1430  0.2333 -0.4437
   16SAPS   C33 2080   5.789   4.574   2.814  0.5825 -0.4668 -0.6502
   16SAPS   H3X 2081   5.681   4.599   2.802  0.5604  0.1282  0.6776
   16SAPS   H3Y 2082   5.825   4.634   2.900 -1.0970 -1.8379  1.0958
   16SAPS   C34 2083   5.810   4.433   2.867  0.6167  0.0750 -0.7187
   16SAPS   H4X 2084   5.765   4.355   2.802  0.5035 -0.5287  0.0699
   16SAPS   H4Y 2085   5.749   4.423   2.959 -0.8263  0.4490 -1.6049
   16SAPS   C35 2086   5.955   4.389   2.894  0.1228  0.8081 -0.4749
   16SAPS   H5X 2087   5.995   4.437   2.986 -0.8936  1.7405 -0.5065
   16SAPS   H5Y 2088   6.004   4.415   2.798 -1.8570  1.9536 -1.2234
   16SAPS   C36 2089   5.955   4.232   2.919 -0.3172 -0.8181  0.7824
   16SAPS   H6X 2090   6.065   4.216   2.931  0.3857  2.0945 -0.8597
   16SAPS   H6Y 2091   5.920   4.173   2.832  1.9125 -0.6459 -0.2935
   16SAPS   C37 2092   5.870   4.176   3.039 -0.1338 -0.5052  0.6617
   16SAPS   H7X 2093   5.884   4.067   3.027  2.2730 -0.1358 -0.5058
   16SAPS   H7Y 2094   5.769   4.217   3.021 -0.8409 -0.2362  4.4250
   16SAPS   C38 2095   5.921   4.227   3.177 -0.0432  0.3701 -0.5412
   16SAPS   H8X 2096   6.022   4.268   3.159  0.8639 -0.5060  2.0099
   16SAPS   H8Y 2097   5.922   4.137   3.243  0.6816  1.4415  0.9833
   16SAPS   C39 2098   5.831   4.332   3.245 -0.1262  0.5040  0.1378
   16SAPS   H9X 2099   5.734   4.279   3.256 -0.0619  0.3671  0.0570
   16SAPS   H9Y 2100   5.823   4.416   3.173  4.4277  0.2544 -0.9467
   16SAPS  C310 2101   5.898   4.364   3.374  0.0437 -0.1028  0.4034
   16SAPS  H10X 2102   5.995   4.416   3.358 -0.1258 -0.0677 -0.5391
   16SAPS  H10Y 2103   5.908   4.271   3.435 -0.1934 -0.7667 -0.5471
   16SAPS  C311 2104   5.808   4.458   3.466  0.0777 -0.6850 -0.2508
   16SAPS  H11X 2105   5.710   4.408   3.477  0.0995 -0.6042  0.3415
   16SAPS  H11Y 2106   5.806   4.559   3.422  1.3006  0.4805  2.1347
   16SAPS  C312 2107   5.875   4.482   3.607 -0.0764 -0.6713 -0.2659
   16SAPS  H12X 2108   5.814   4.562   3.653 -1.9883  0.8041 -4.7717
   16SAPS  H12Y 2109   5.978   4.519   3.591 -0.2415 -0.4026 -0.7553
   16SAPS  C313 2110   5.871   4.366   3.705 -0.3330  1.0716  0.3974
   16SAPS  H13X 2111   5.915   4.273   3.663 -1.9041  1.9526 -3.8046
   16SAPS  H13Y 2112   5.766   4.343   3.734  0.0455 -0.5209  0.5811
   16SAPS  C314 2113   5.939   4.389   3.838 -0.1135 -0.0375 -0.0039
   16SAPS  H14X 2114   5.897   4.472   3.898 -0.3314  0.1891 -0.4669
   16SAPS  H14Y 2115   6.044   4.415   3.812  0.8926 -1.1852  2.5428
   16SAPS  C315 2116   5.946   4.258   3.919  0.5306  0.2155 -0.4268
   16SAPS  H15X 2117   5.986   4.184   3.847  1.8317  0.2002  0.2815
   16SAPS  H15Y 2118   5.843   4.225   3.946  1.5809 -1.9948  1.2807
   16SAPS  C316 2119   6.037   4.253   4.049  0.6102  0.2220  0.5393
   16SAPS  H16X 2120   6.006   4.162   4.105 -0.8345  1.7539  2.3076
   16SAPS  H16Y 2121   6.007   4.337   4.114 -0.3932 -0.6642  1.2512
   16SAPS  C317 2122   6.187   4.246   4.029 -0.5074 -0.1380  0.0316
   16SAPS  H17X 2123   6.226   4.322   3.958 -1.3702  0.0871 -0.2112
   16SAPS  H17Y 2124   6.213   4.146   3.989 -0.5480  0.7455 -2.3234
   16SAPS  C318 2125   6.263   4.266   4.164  0.6194 -0.3012  0.6021
   16SAPS  H18X 2126   6.370   4.254   4.139  1.3701  1.0809  2.8219
   16SAPS  H18Y 2127   6.240   4.192   4.244  0.4809 -2.0910 -1.0311
   16SAPS  H18Z 2128   6.248   4.370   4.199  0.6437 -0.9175  2.6016
   17SAPS     N 2129   1.078   1.307   1.976 -0.1594  0.5309  0.2638
   17SAPS   HN1 2130   0.994   1.351   2.019 -2.0086 -0.6602 -1.9554
   17SAPS   HN2 2131   1.046   1.210   1.961 -0.8043  0.8827 -0.7020
   17SAPS   HN3 2132   1.165   1.315   2.032 -1.5755  0.0242  2.7014
   17SAPS   C12 2133   1.100   1.360   1.832 -0.6693  0.0879 -0.5742
   17SAPS  H12A 2134   1.169   1.292   1.783 -0.8584 -0.4599 -0.0961
   17SAPS   C13 2135   0.981   1.354   1.736 -0.1419 -0.0467  0.3132
   17SAPS  O13A 2136   0.869   1.318   1.772  0.1306  0.0429  0.5536
   17SAPS  O13B 2137   0.999   1.397   1.617 -0.3297 -0.3169 -0.4442
   17SAPS   C11 2138   1.137   1.513   1.834 -0.3136  0.8595  0.2764
   17SAPS  H11A 2139   1.051   1.568   1.878 -1.1813 -1.3832  1.5597
   17SAPS  H11B 2140   1.145   1.537   1.726  1.1091  0.9890  0.3800
   17SAPS     P 2141   1.312   1.683   1.921 -0.2336  0.1541 -0.2152
   17SAPS   O13 2142   1.423   1.689   1.816  0.0156  0.1204  0.0647
   17SAPS   O14 2143   1.210   1.790   1.913  0.0153  0.2337  0.2488
   17SAPS   O12 2144   1.259   1.535   1.914  0.3762 -0.5103 -0.3939
   17SAPS   O11 2145   1.372   1.671   2.064 -0.1605  0.5939  0.1266
   17SAPS    C1 2146   1.441   1.786   2.106 -0.0569 -0.1792 -1.2292
   17SAPS    HA 2147   1.542   1.756   2.141 -0.4458  0.5906  0.7072
   17SAPS    HB 2148   1.441   1.872   2.037 -1.6490 -0.7006 -1.9284
   17SAPS    C2 2149   1.375   1.837   2.237 -0.7563  0.0433 -0.0167
   17SAPS    HS 2150   1.412   1.938   2.264 -0.4262 -0.3615  1.0850
   17SAPS   O21 2151   1.399   1.743   2.337 -0.2794 -0.1420 -0.4026
   17SAPS   C21 2152   1.511   1.756   2.403 -0.0761 -0.5240  0.0082
   17SAPS   O22 2153   1.599   1.841   2.380  0.0237  1.0799  0.2166
   17SAPS   C22 2154   1.513   1.651   2.515  0.3222 -0.0207  0.1823
   17SAPS   H2R 2155   1.424   1.585   2.515  1.0568 -1.0817 -1.8691
   17SAPS   H2S 2156   1.599   1.582   2.503 -0.9318 -1.4774 -0.7654
   17SAPS    C3 2157   1.219   1.855   2.235 -0.4952 -0.0280  1.0106
   17SAPS    HX 2158   1.178   1.756   2.204 -0.3734 -0.2750  1.6291
   17SAPS    HY 2159   1.190   1.924   2.153  0.7341 -2.4670 -1.6908
   17SAPS   O31 2160   1.156   1.886   2.362 -0.1801  0.1392 -0.0195
   17SAPS   C31 2161   1.100   2.008   2.369  0.4676 -0.5477 -0.1579
   17SAPS   O32 2162   1.091   2.089   2.278 -0.1822 -0.2255  0.6636
   17SAPS   C32 2163   1.020   2.027   2.499 -0.1333 -0.7972 -0.5243
   17SAPS   H2X 2164   1.037   1.946   2.574  0.8708  0.9034  1.1659
   17SAPS   H2Y 2165   0.912   2.018   2.473 -0.0320 -0.5435 -1.0441
   17SAPS   C23 2166   1.525   1.724   2.647 -0.4216  0.2451  0.0824
   17SAPS   H3R 2167   1.608   1.797   2.643 -0.5947  0.4266 -0.2337
   17SAPS   H3S 2168   1.544   1.649   2.727  0.7700  0.3114 -0.1219
   17SAPS   C24 2169   1.399   1.805   2.695  0.1083 -0.0237  0.0382
   17SAPS   H4R 2170   1.361   1.868   2.612  2.3566 -0.0945 -1.1233
   17SAPS   H4S 2171   1.413   1.869   2.785  1.1109 -1.3728  0.8792
   17SAPS   C25 2172   1.295   1.706   2.730 -0.0486  0.2345 -0.2431
   17SAPS   H5R 2173   1.272   1.627   2.658 -0.3562 -1.8043  1.9663
   17SAPS   C26 2174   1.235   1.701   2.852 -0.5800 -0.4975  0.4477
   17SAPS   H6R 2175   1.165   1.619   2.870 -0.6659 -0.1151  1.9806
   17SAPS   C27 2176   1.275   1.786   2.972  0.1457 -0.0383 -0.4708
   17SAPS   H7R 2177   1.385   1.793   2.982  0.1514 -1.3410  0.7021
   17SAPS   H7S 2178   1.237   1.734   3.063  2.6666 -1.7704 -0.3267
   17SAPS   C28 2179   1.226   1.933   2.963  0.6371  0.3715 -0.1344
   17SAPS   H8R 2180   1.226   1.982   2.864 -2.0448 -1.4012 -1.1218
   17SAPS   C29 2181   1.190   2.003   3.069  0.1664  0.0278 -0.4338
   17SAPS   H9R 2182   1.177   2.112   3.065  1.8402  0.2987  0.5954
   17SAPS  C210 2183   1.173   1.954   3.210  0.6079 -0.0231  0.2127
   17SAPS  H10R 2184   1.110   1.863   3.205  2.0407 -0.9870 -1.2899
   17SAPS  H10S 2185   1.119   2.033   3.267  0.3478  1.8495 -2.4680
   17SAPS  C211 2186   1.290   1.921   3.298  0.3086  0.7437  0.6186
   17SAPS  H11R 2187   1.391   1.930   3.256  0.3015 -0.3921  0.3256
   17SAPS  C212 2188   1.291   1.886   3.428  0.8379 -0.4740 -0.8775
   17SAPS  H12R 2189   1.379   1.858   3.487 -0.0464 -0.3097  0.5758
   17SAPS  C213 2190   1.166   1.887   3.516  0.3798  0.2335  0.7387
   17SAPS  H13R 2191   1.086   1.837   3.458  2.0820 -2.0006  0.1406
   17SAPS  H13S 2192   1.127   1.990   3.527  0.2732  0.2998 -0.1942
   17SAPS  C214 2193   1.183   1.810   3.648  0.4493 -0.0568 -0.0718
   17SAPS  H14R 2194   1.195   1.876   3.735 -3.1562 -0.4362  0.8609
   17SAPS  C215 2195   1.186   1.674   3.663 -1.6866  0.1902  0.5341
   17SAPS  H15R 2196   1.215   1.620   3.754  1.0290 -0.9844 -0.9090
   17SAPS  C216 2197   1.184   1.579   3.541 -0.1824  0.5421 -0.7357
   17SAPS  H16R 2198   1.253   1.495   3.564  0.2178  1.5113  1.9583
   17SAPS  H16S 2199   1.216   1.631   3.448  1.2620 -0.6129 -0.9272
   17SAPS  C217 2200   1.044   1.518   3.517  0.4990 -0.0634  0.4627
   17SAPS  H17R 2201   0.986   1.610   3.492  0.5830 -0.3843 -0.9659
   17SAPS  H17S 2202   1.015   1.474   3.615  1.3407  0.3201  0.8889
   17SAPS  C218 2203   1.031   1.412   3.403 -0.7485 -0.3446  0.8587
   17SAPS  H18R 2204   0.927   1.373   3.401 -1.0030  0.3343 -0.7124
   17SAPS  H18S 2205   1.107   1.336   3.429  2.8879  1.6742 -2.7321
   17SAPS  C219 2206   1.051   1.459   3.252 -0.6283 -0.4519 -0.6359
   17SAPS  H19R 2207   1.149   1.511   3.244 -0.6025 -0.4661 -0.4104
   17SAPS  H19S 2208   0.976   1.532   3.216  1.0414  1.0613 -1.1872
   17SAPS  C220 2209   1.066   1.345   3.156  0.0896  0.5652 -0.5831
   17SAPS  H20R 2210   1.144   1.277   3.197  0.9614  1.2821 -1.0179
   17SAPS  H20S 2211   1.094   1.382   3.055  1.0819 -1.7934 -1.2510
   17SAPS  H20T 2212   0.973   1.285   3.143 -0.4832  0.5173  2.8046
   17SAPS   C33 2213   1.044   2.164   2.572  0.0414 -0.2637  0.5633
   17SAPS   H3X 2214   1.001   2.246   2.510  0.2098  0.7214  1.7049
   17SAPS   H3Y 2215   1.152   2.188   2.561 -0.3328  1.1057 -0.4039
   17SAPS   C34 2216   1.006   2.157   2.717 -0.9209 -0.8411  0.9221
   17SAPS   H4X 2217   1.087   2.199   2.779  0.3334 -1.1170 -0.4732
   17SAPS   H4Y 2218   0.995   2.049   2.742 -0.5007 -1.0868  0.0816
   17SAPS   C35 2219   0.871   2.229   2.753 -0.6253  0.6371  0.0614
   17SAPS   H5X 2220   0.798   2.194   2.677  0.3487  0.5053 -0.8328
   17SAPS   H5Y 2221   0.876   2.339   2.741  3.3460  0.5487 -0.4310
   17SAPS   C36 2222   0.819   2.177   2.887  0.8868 -0.8283 -0.5928
   17SAPS   H6X 2223   0.828   2.068   2.909  2.0469 -0.4656  0.8914
   17SAPS   H6Y 2224   0.713   2.206   2.899  1.4409  0.2081  2.6363
   17SAPS   C37 2225   0.883   2.254   3.010 -0.2898 -0.3374 -0.1393
   17SAPS   H7X 2226   0.838   2.355   3.011 -0.8689 -0.4378  4.3490
   17SAPS   H7Y 2227   0.993   2.254   2.990 -0.3232  0.8971 -0.3646
   17SAPS   C38 2228   0.858   2.195   3.151  0.3683 -0.5600  0.6033
   17SAPS   H8X 2229   0.916   2.100   3.157  0.5324 -0.4944  0.0622
   17SAPS   H8Y 2230   0.750   2.174   3.162 -0.1241  1.1838 -0.5117
   17SAPS   C39 2231   0.918   2.296   3.256  0.5616  0.1511 -0.0878
   17SAPS   H9X 2232   0.839   2.374   3.257  0.9293  0.5620  2.1282
   17SAPS   H9Y 2233   1.016   2.341   3.230 -0.3134  1.9067 -0.5121
   17SAPS  C310 2234   0.924   2.230   3.393 -0.5509  0.1958 -0.4854
   17SAPS  H10X 2235   0.989   2.140   3.393 -0.6220  0.1417 -0.8208
   17SAPS  H10Y 2236   0.822   2.203   3.427 -1.2651  0.7726 -2.0628
   17SAPS  C311 2237   0.990   2.332   3.499 -0.0841  0.0923  0.2380
   17SAPS  H11X 2238   0.939   2.426   3.469 -1.9245 -1.0989 -0.5236
   17SAPS  H11Y 2239   1.100   2.324   3.484 -0.4481 -3.8105 -1.7793
   17SAPS  C312 2240   0.953   2.311   3.649  0.2421 -0.7159 -0.2831
   17SAPS  H12X 2241   0.853   2.357   3.663 -0.0680 -1.4406 -0.0652
   17SAPS  H12Y 2242   1.025   2.376   3.703  0.7890 -1.6472  0.1405
   17SAPS  C313 2243   0.951   2.173   3.708  0.6601  0.4149 -0.6633
   17SAPS  H13X 2244   1.015   2.109   3.644 -1.4351 -2.4377 -0.0886
   17SAPS  H13Y 2245   0.852   2.129   3.686  1.0960 -0.5490 -0.7544
   17SAPS  C314 2246   0.998   2.157   3.855  0.6251 -0.8293 -0.1377
   17SAPS  H14X 2247   0.926   2.218   3.913 -1.5575 -1.5001 -1.9776
   17SAPS  H14Y 2248   1.103   2.195   3.856  1.2562 -2.5177 -0.0335
   17SAPS  C315 2249   0.981   2.019   3.921 -0.0404  0.7720  0.4387
   17SAPS  H15X 2250   1.039   1.944   3.863  0.3148  0.7869  0.7678
   17SAPS  H15Y 2251   0.873   1.997   3.907  0.6363 -2.0166 -1.2754
   17SAPS  C316 2252   1.014   2.007   4.069 -0.3007  0.1820 -0.0920
   17SAPS  H16X 2253   0.982   1.907   4.104 -1.1515  0.2829 -0.5511
   17SAPS  H16Y 2254   0.951   2.080   4.125 -1.7672 -0.4186 -0.9199
   17SAPS  C317 2255   1.160   2.029   4.102 -0.4373 -0.1600 -0.3284
   17SAPS  H17X 2256   1.192   2.134   4.084  1.2153 -0.5280  0.3366
   17SAPS  H17Y 2257   1.222   1.966   4.035  1.2974  1.8105 -0.6820
   17SAPS  C318 2258   1.183   1.999   4.251 -0.4550  0.1159  0.3219
   17SAPS  H18X 2259   1.176   1.891   4.273  2.3811 -0.0340  0.7982
   17SAPS  H18Y 2260   1.105   2.050   4.312 -1.9331  0.0209 -1.4041
   17SAPS  H18Z 2261   1.285   2.026   4.287  0.2798  0.3164 -1.7650
   18SAPS     N 2262   3.925   2.176   2.654  0.3030  0.0676 -0.3498
   18SAPS   HN1 2263   3.998   2.118   2.700  1.3429  1.3685 -0.2953
   18SAPS   HN2 2264   3.976   2.254   2.608 -1.7211  0.7174 -1.6113
   18SAPS   HN3 2265   3.851   2.202   2.723 -1.3534  0.9232 -2.3348
   18SAPS   C12 2266   3.862   2.105   2.538  0.3416  0.1093 -0.3480
   18SAPS  H12A 2267   3.948   2.066   2.486  0.6727  1.2531 -0.6798
   18SAPS   C13 2268   3.775   1.989   2.571  0.2031  0.0544 -0.5290
   18SAPS  O13A 2269   3.755   1.960   2.699 -0.4711 -0.7879  0.3770
   18SAPS  O13B 2270   3.735   1.911   2.480  0.4068 -0.0900 -0.0450
   18SAPS   C11 2271   3.771   2.199   2.450  0.1536 -0.2532  0.3094
   18SAPS  H11A 2272   3.707   2.236   2.532  2.5379 -3.4354  3.9898
   18SAPS  H11B 2273   3.711   2.152   2.369  0.0889  1.7558 -0.8811
   18SAPS     P 2274   3.802   2.422   2.316 -0.0150 -0.1829  0.3323
   18SAPS   O13 2275   3.902   2.473   2.223  0.1133  0.3329 -0.3074
   18SAPS   O14 2276   3.665   2.397   2.270 -0.0232  0.2986 -0.1687
   18SAPS   O12 2277   3.859   2.302   2.398 -0.5500 -0.8509 -0.0541
   18SAPS   O11 2278   3.803   2.531   2.428  0.3165  0.4220  0.1964
   18SAPS    C1 2279   3.911   2.593   2.490 -0.4665  0.3072  0.1196
   18SAPS    HA 2280   4.012   2.576   2.449 -0.0675 -0.6441  1.4173
   18SAPS    HB 2281   3.900   2.703   2.488 -0.5076  0.3128  0.5752
   18SAPS    C2 2282   3.916   2.553   2.644 -0.0499  0.4370  0.0142
   18SAPS    HS 2283   3.938   2.445   2.647 -1.3223  0.1897  1.9781
   18SAPS   O21 2284   3.786   2.577   2.701  0.3667  0.3017 -0.4182
   18SAPS   C21 2285   3.720   2.475   2.755  0.5886 -0.0800  0.8318
   18SAPS   O22 2286   3.758   2.360   2.772 -0.0938 -0.0281  0.4825
   18SAPS   C22 2287   3.582   2.524   2.789  0.4007 -0.2205 -0.1223
   18SAPS   H2R 2288   3.542   2.571   2.696  2.7877  2.0736 -0.1137
   18SAPS   H2S 2289   3.525   2.432   2.813  0.1780 -0.0922 -0.1536
   18SAPS    C3 2290   4.023   2.639   2.715 -0.3105 -0.1284 -0.0903
   18SAPS    HX 2291   3.984   2.742   2.720 -1.0039 -0.4532  2.9293
   18SAPS    HY 2292   4.120   2.655   2.663 -0.2866  0.5172  0.1456
   18SAPS   O31 2293   4.031   2.588   2.848 -0.3680  0.0925 -0.7334
   18SAPS   C31 2294   4.119   2.655   2.930  0.5505  1.0220  0.4014
   18SAPS   O32 2295   4.183   2.755   2.897  0.1813 -0.3176 -0.2272
   18SAPS   C32 2296   4.111   2.594   3.071 -0.9032 -0.0176  0.5808
   18SAPS   H2X 2297   4.204   2.623   3.125 -0.6410  0.1192  0.0612
   18SAPS   H2Y 2298   4.103   2.484   3.065  0.6413 -0.2066  1.3915
   18SAPS   C23 2299   3.575   2.637   2.897 -0.0179 -0.9986  0.0234
   18SAPS   H3R 2300   3.496   2.706   2.862 -0.7257 -1.6288  0.3465
   18SAPS   H3S 2301   3.678   2.678   2.895 -0.3204 -0.2443 -1.2460
   18SAPS   C24 2302   3.544   2.592   3.039 -0.6985  0.2333 -0.3854
   18SAPS   H4R 2303   3.634   2.541   3.079 -1.1183 -0.0466  0.2197
   18SAPS   H4S 2304   3.459   2.521   3.035  1.0058 -2.0946  1.4130
   18SAPS   C25 2305   3.517   2.706   3.132  1.0681  0.7739  0.6289
   18SAPS   H5R 2306   3.526   2.809   3.093  3.2432  0.1463 -0.6727
   18SAPS   C26 2307   3.478   2.680   3.254 -0.1796  0.1051  0.4770
   18SAPS   H6R 2308   3.464   2.771   3.315  1.3341  0.3677  0.4744
   18SAPS   C27 2309   3.471   2.544   3.319  0.2825 -0.0782  0.8042
   18SAPS   H7R 2310   3.549   2.476   3.279  0.5664 -0.5808  2.1526
   18SAPS   H7S 2311   3.369   2.508   3.295 -0.0409  2.0992 -1.4916
   18SAPS   C28 2312   3.494   2.543   3.464 -0.1329 -0.2524  0.2446
   18SAPS   H8R 2313   3.594   2.509   3.494  1.9928  0.9670 -4.4716
   18SAPS   C29 2314   3.412   2.598   3.555 -0.5163  0.1160 -0.2974
   18SAPS   H9R 2315   3.448   2.588   3.658  2.4211 -2.6482 -1.4336
   18SAPS  C210 2316   3.274   2.655   3.544 -0.1494  0.5994  0.0386
   18SAPS  H10R 2317   3.203   2.570   3.553 -0.4975  0.8791 -0.0469
   18SAPS  H10S 2318   3.264   2.696   3.441  0.2139  1.1433  0.2185
   18SAPS  C211 2319   3.225   2.767   3.643 -0.2352  0.5571  0.3072
   18SAPS  H11R 2320   3.199   2.859   3.589  1.9585  1.1077  0.0722
   18SAPS  C212 2321   3.202   2.767   3.775 -1.0786 -0.2523 -0.6951
   18SAPS  H12R 2322   3.161   2.861   3.813  1.5227  1.1710 -1.1139
   18SAPS  C213 2323   3.234   2.653   3.872 -0.4775  0.0800 -0.2002
   18SAPS  H13R 2324   3.343   2.632   3.869 -0.5541 -0.5432  0.8677
   18SAPS  H13S 2325   3.181   2.558   3.848  0.4692 -1.1416  2.1626
   18SAPS  C214 2326   3.182   2.673   4.010  0.4537  0.2360  0.2313
   18SAPS  H14R 2327   3.080   2.714   4.008  0.4804  0.3004 -1.1804
   18SAPS  C215 2328   3.232   2.643   4.129 -0.0077 -0.3050 -0.0470
   18SAPS  H15R 2329   3.179   2.661   4.224  0.2745 -1.4293  0.3374
   18SAPS  C216 2330   3.367   2.577   4.147 -0.1096  0.3753  0.2205
   18SAPS  H16R 2331   3.438   2.635   4.211 -0.4503 -0.9129  1.8350
   18SAPS  H16S 2332   3.407   2.541   4.050  1.0233 -1.0113  1.1510
   18SAPS  C217 2333   3.346   2.445   4.225 -0.2384  0.1472 -0.0519
   18SAPS  H17R 2334   3.448   2.400   4.224 -0.3288 -0.0570 -0.3951
   18SAPS  H17S 2335   3.282   2.372   4.170  3.4274 -3.6011  0.1716
   18SAPS  C218 2336   3.311   2.467   4.376  0.0642  0.4167  0.0497
   18SAPS  H18R 2337   3.242   2.383   4.399  1.2253 -0.8253 -0.8734
   18SAPS  H18S 2338   3.256   2.562   4.398 -0.1329  0.5481 -0.9287
   18SAPS  C219 2339   3.427   2.454   4.468 -0.4424 -0.5408 -0.2467
   18SAPS  H19R 2340   3.462   2.557   4.493 -1.0450  0.4794 -3.1930
   18SAPS  H19S 2341   3.508   2.399   4.416  1.0228  1.9505 -0.7687
   18SAPS  C220 2342   3.393   2.399   4.611 -0.4050  0.2824 -0.2286
   18SAPS  H20R 2343   3.347   2.482   4.670  1.7784  0.4410  1.3869
   18SAPS  H20S 2344   3.483   2.363   4.666 -1.6566 -1.1987  0.9366
   18SAPS  H20T 2345   3.322   2.316   4.595 -3.0336  2.1448  0.9776
   18SAPS   C33 2346   3.984   2.664   3.140 -0.1953 -0.4058 -0.0444
   18SAPS   H3X 2347   3.892   2.647   3.081  1.4672 -0.1296 -2.9405
   18SAPS   H3Y 2348   3.999   2.774   3.144 -1.5848 -0.2116  0.3521
   18SAPS   C34 2349   3.982   2.600   3.278  0.2114 -0.8981 -0.4980
   18SAPS   H4X 2350   4.082   2.620   3.321  1.0076  0.5381 -2.8428
   18SAPS   H4Y 2351   3.957   2.493   3.268 -0.7943 -0.7348  0.0944
   18SAPS   C35 2352   3.878   2.668   3.368 -0.1363  0.4356  0.1507
   18SAPS   H5X 2353   3.779   2.659   3.317  0.7873 -1.4997 -1.4457
   18SAPS   H5Y 2354   3.913   2.771   3.390  2.8149  0.1442 -2.4718
   18SAPS   C36 2355   3.863   2.598   3.505 -0.2645 -0.1521  0.1397
   18SAPS   H6X 2356   3.965   2.576   3.541  0.7245 -1.1170 -2.9484
   18SAPS   H6Y 2357   3.818   2.498   3.486  1.4320 -0.8895 -0.0937
   18SAPS   C37 2358   3.788   2.676   3.611 -0.0489  0.1829  0.4916
   18SAPS   H7X 2359   3.691   2.696   3.561  0.5462 -0.7388 -1.1185
   18SAPS   H7Y 2360   3.836   2.774   3.635  2.5126 -1.1988  1.4108
   18SAPS   C38 2361   3.767   2.607   3.751 -0.4222 -0.3536  0.2376
   18SAPS   H8X 2362   3.872   2.580   3.776 -0.4015 -1.9619 -1.3488
   18SAPS   H8Y 2363   3.719   2.509   3.729  1.0222 -1.0405  0.0576
   18SAPS   C39 2364   3.700   2.691   3.850  0.2624  0.2503 -0.1191
   18SAPS   H9X 2365   3.606   2.734   3.810 -1.6648 -1.0797  2.6689
   18SAPS   H9Y 2366   3.757   2.786   3.863 -0.2587  0.4850  0.5261
   18SAPS  C310 2367   3.678   2.616   3.982  0.1493 -0.2301 -0.4957
   18SAPS  H10X 2368   3.647   2.515   3.949 -1.1734  0.4500 -1.4109
   18SAPS  H10Y 2369   3.599   2.672   4.035  1.1305 -0.1747  0.9695
   18SAPS  C311 2370   3.803   2.626   4.071 -0.4793 -0.3111 -0.5736
   18SAPS  H11X 2371   3.850   2.726   4.070  0.0109 -0.5243  0.1910
   18SAPS  H11Y 2372   3.881   2.555   4.035  0.6967  0.4590  0.3775
   18SAPS  C312 2373   3.772   2.577   4.213  0.5760 -0.1604 -0.0216
   18SAPS  H12X 2374   3.733   2.473   4.205  0.9082 -0.4607  1.7236
   18SAPS  H12Y 2375   3.684   2.641   4.236  0.8742 -0.3128  1.6648
   18SAPS  C313 2376   3.886   2.585   4.306 -0.2569  0.2395  0.0808
   18SAPS  H13X 2377   3.900   2.695   4.320 -1.9358  0.3589  1.1733
   18SAPS  H13Y 2378   3.977   2.534   4.270 -1.0828 -1.8681  0.8074
   18SAPS  C314 2379   3.862   2.539   4.452 -0.0866  0.0942  0.3936
   18SAPS  H14X 2380   3.809   2.441   4.457 -1.4015  0.7769  0.2180
   18SAPS  H14Y 2381   3.797   2.622   4.487  0.1194  1.8782 -3.0738
   18SAPS  C315 2382   3.988   2.550   4.539 -0.6593  0.0154 -0.3304
   18SAPS  H15X 2383   4.034   2.650   4.524  0.8763 -0.3856  1.3368
   18SAPS  H15Y 2384   4.055   2.472   4.498 -0.4760 -0.5542  1.0107
   18SAPS  C316 2385   3.966   2.528   4.690 -0.1462  0.1971  0.0194
   18SAPS  H16X 2386   3.910   2.435   4.714 -1.3305  1.0516  0.6967
   18SAPS  H16Y 2387   3.905   2.613   4.726 -1.4986 -1.0974  0.9255
   18SAPS  C317 2388   4.085   2.529   4.785 -0.2958  0.0975 -0.1145
   18SAPS  H17X 2389   4.150   2.445   4.751 -0.4148  0.0191 -0.1468
   18SAPS  H17Y 2390   4.071   2.500   4.891 -0.2273 -5.1697 -1.2927
   18SAPS  C318 2391   4.178   2.654   4.788  0.0282  0.1535  0.0208
   18SAPS  H18X 2392   4.117   2.734   4.835  0.2057 -0.1494  0.7816
   18SAPS  H18Y 2393   4.216   2.686   4.689  0.3602  0.9250  0.3866
   18SAPS  H18Z 2394   4.271   2.624   4.841  0.7707 -0.9265 -1.7762
   19SAPS     N 2395   3.518   4.721   1.852  0.3553 -0.6843 -0.4310
   19SAPS   HN1 2396   3.481   4.815   1.828  0.3906 -0.6319 -0.2851
   19SAPS   HN2 2397   3.435   4.658   1.863  0.7156 -1.0221  0.5093
   19SAPS   HN3 2398   3.561   4.738   1.945  1.9947  1.6736 -1.5278
   19SAPS   C12 2399   3.612   4.661   1.761  0.7760  0.2119  0.5628
   19SAPS  H12A 2400   3.648   4.571   1.809  0.1113  0.1441  0.9525
   19SAPS   C13 2401   3.557   4.607   1.626  0.1294 -0.3655  0.0533
   19SAPS  O13A 2402   3.438   4.630   1.587 -0.5172 -0.2584 -0.0450
   19SAPS  O13B 2403   3.638   4.545   1.557  0.3651 -0.0371  0.3861
   19SAPS   C11 2404   3.736   4.753   1.737 -0.2157 -0.6799  0.4141
   19SAPS  H11A 2405   3.693   4.847   1.697  0.0908  0.6627  3.0174
   19SAPS  H11B 2406   3.794   4.715   1.650  3.1986  2.1106  1.2465
   19SAPS     P 2407   3.960   4.847   1.845 -0.1335  0.3189 -0.0780
   19SAPS   O13 2408   4.051   4.760   1.764  0.0497 -0.1966 -0.0165
   19SAPS   O14 2409   3.932   4.983   1.800 -0.5124 -0.0747  0.5908
   19SAPS   O12 2410   3.821   4.781   1.848 -0.2699  0.0003 -0.3774
   19SAPS   O11 2411   3.999   4.847   1.995 -0.0353 -0.2854  0.3531
   19SAPS    C1 2412   4.019   4.718   2.053 -0.3184 -0.4762  0.0148
   19SAPS    HA 2413   3.931   4.652   2.036 -1.9735  1.3185  1.1158
   19SAPS    HB 2414   4.105   4.664   2.008  0.0828  0.9316 -0.9709
   19SAPS    C2 2415   4.035   4.728   2.209  0.0534  0.1406 -0.4499
   19SAPS    HS 2416   4.088   4.637   2.246 -0.3365 -0.8750 -2.2392
   19SAPS   O21 2417   3.913   4.726   2.279 -0.2562  0.2171 -0.0681
   19SAPS   C21 2418   3.921   4.710   2.410  0.8834 -0.5857  1.0274
   19SAPS   O22 2419   4.011   4.669   2.479  0.3552  0.3317  0.1879
   19SAPS   C22 2420   3.777   4.740   2.462 -0.0226 -0.6718  0.6305
   19SAPS   H2R 2421   3.735   4.836   2.425  0.0152  0.0049  2.2363
   19SAPS   H2S 2422   3.711   4.661   2.419 -0.4025 -0.6117  1.0868
   19SAPS    C3 2423   4.129   4.850   2.241 -0.0855 -0.5138 -0.2411
   19SAPS    HX 2424   4.061   4.937   2.228  1.5606  0.7251 -1.0194
   19SAPS    HY 2425   4.203   4.857   2.159  0.4367  1.1002  0.3297
   19SAPS   O31 2426   4.183   4.862   2.367  0.1336 -0.4710  0.2624
   19SAPS   C31 2427   4.299   4.811   2.378 -0.4838  0.4271 -0.1762
   19SAPS   O32 2428   4.367   4.769   2.286 -0.5915  0.3570 -0.1794
   19SAPS   C32 2429   4.343   4.817   2.530  0.1217  0.0757 -0.2347
   19SAPS   H2X 2430   4.293   4.727   2.573 -1.5801 -0.6272 -3.3511
   19SAPS   H2Y 2431   4.294   4.910   2.566  1.9690 -0.0052  2.8580
   19SAPS   C23 2432   3.749   4.723   2.613  0.3410  0.3335  0.0735
   19SAPS   H3R 2433   3.813   4.643   2.655 -0.1854  0.2447  0.7321
   19SAPS   H3S 2434   3.646   4.683   2.627  1.0871 -1.5714  0.3961
   19SAPS   C24 2435   3.773   4.842   2.704  0.6831 -0.5645  0.6714
   19SAPS   H4R 2436   3.874   4.878   2.678 -0.2449  0.3707 -2.0043
   19SAPS   H4S 2437   3.772   4.809   2.810  0.5686 -1.7864  0.3058
   19SAPS   C25 2438   3.682   4.964   2.681  0.4380 -1.0541 -0.1791
   19SAPS   H5R 2439   3.688   5.013   2.583 -1.2097  1.5514  0.9289
   19SAPS   C26 2440   3.581   5.014   2.755 -0.4060 -0.0719  0.1201
   19SAPS   H6R 2441   3.539   5.108   2.716 -0.1742 -0.8324 -2.1169
   19SAPS   C27 2442   3.535   4.971   2.889 -0.0028  0.6769 -0.1327
   19SAPS   H7R 2443   3.620   4.925   2.945  0.7595  0.1551 -1.6572
   19SAPS   H7S 2444   3.466   4.883   2.887  1.1848 -0.2967 -2.6243
   19SAPS   C28 2445   3.463   5.077   2.971 -0.1774  0.5234  0.1232
   19SAPS   H8R 2446   3.418   5.156   2.909 -0.0172  1.2270  0.8701
   19SAPS   C29 2447   3.457   5.087   3.103  0.4818  0.3578  0.1606
   19SAPS   H9R 2448   3.399   5.172   3.141 -0.8952  1.1022 -3.2102
   19SAPS  C210 2449   3.510   4.998   3.206  0.0067  0.5463  0.3979
   19SAPS  H10R 2450   3.543   5.063   3.291 -2.0110  1.0186  0.8753
   19SAPS  H10S 2451   3.597   4.942   3.167 -0.6501  0.1682 -0.5599
   19SAPS  C211 2452   3.400   4.900   3.237 -0.0706 -0.3689 -0.3062
   19SAPS  H11R 2453   3.371   4.837   3.152  0.4982 -0.4758 -0.4238
   19SAPS  C212 2454   3.337   4.882   3.356 -0.0452 -0.1651  0.6031
   19SAPS  H12R 2455   3.261   4.803   3.363 -0.5652  0.1437 -1.0597
   19SAPS  C213 2456   3.382   4.951   3.477 -0.5700 -0.3311  0.0427
   19SAPS  H13R 2457   3.297   4.949   3.549  0.8227 -2.6253  1.7938
   19SAPS  H13S 2458   3.419   5.053   3.454  1.4654 -1.0719 -0.1994
   19SAPS  C214 2459   3.500   4.876   3.540 -0.0886 -0.0880 -0.3709
   19SAPS  H14R 2460   3.535   4.781   3.496  1.0424  0.3237 -0.3938
   19SAPS  C215 2461   3.576   4.924   3.640  0.3127  0.1260 -0.6120
   19SAPS  H15R 2462   3.660   4.867   3.682 -0.0453  1.0109  1.4026
   19SAPS  C216 2463   3.569   5.054   3.706 -0.2449  0.9124  0.4422
   19SAPS  H16R 2464   3.521   5.129   3.640 -2.9931 -1.3475 -0.2865
   19SAPS  H16S 2465   3.672   5.090   3.729 -0.2155  0.9109  0.3101
   19SAPS  C217 2466   3.503   5.045   3.847  0.6013  0.0204  0.2455
   19SAPS  H17R 2467   3.573   4.987   3.912 -0.2465 -0.7146  0.5250
   19SAPS  H17S 2468   3.406   4.991   3.846  0.9155 -0.7070  2.5924
   19SAPS  C218 2469   3.477   5.178   3.915 -0.0030 -0.6009  0.2546
   19SAPS  H18R 2470   3.412   5.235   3.845 -2.0688 -1.3122  1.5043
   19SAPS  H18S 2471   3.570   5.239   3.912 -0.4694  0.0959 -0.9880
   19SAPS  C219 2472   3.442   5.169   4.065 -0.2751  0.4482  0.6656
   19SAPS  H19R 2473   3.336   5.136   4.069 -0.2499  0.4885  2.0477
   19SAPS  H19S 2474   3.453   5.265   4.120 -0.9033  0.8468  0.1113
   19SAPS  C220 2475   3.523   5.075   4.160  0.0585  0.1856 -0.1142
   19SAPS  H20R 2476   3.516   4.972   4.117 -0.3980 -0.4944  1.5123
   19SAPS  H20S 2477   3.494   5.082   4.267 -0.5957  1.8253 -0.3689
   19SAPS  H20T 2478   3.629   5.106   4.157  0.6384 -1.6028  0.4350
   19SAPS   C33 2479   4.496   4.817   2.538  0.4406  0.0203 -0.0823
   19SAPS   H3X 2480   4.547   4.898   2.481 -0.3136 -0.1946 -1.1072
   19SAPS   H3Y 2481   4.527   4.721   2.490 -0.0797  0.1152 -0.6283
   19SAPS   C34 2482   4.548   4.819   2.681 -0.5153 -0.0069  0.5573
   19SAPS   H4X 2483   4.648   4.770   2.680 -1.4469 -2.1130  2.6164
   19SAPS   H4Y 2484   4.479   4.755   2.741 -0.8620  1.0459  1.3046
   19SAPS   C35 2485   4.567   4.955   2.743  0.3312 -0.0729  0.0842
   19SAPS   H5X 2486   4.474   5.015   2.734  0.4439  0.7051  2.9501
   19SAPS   H5Y 2487   4.649   5.001   2.683  1.1663 -2.1503 -0.4307
   19SAPS   C36 2488   4.603   4.949   2.891  0.1774  0.5429  0.1852
   19SAPS   H6X 2489   4.709   4.930   2.917  0.2910  2.6726  1.6369
   19SAPS   H6Y 2490   4.541   4.870   2.938  0.4678  0.4876  0.4730
   19SAPS   C37 2491   4.596   5.088   2.959  0.6560 -0.2964  0.1306
   19SAPS   H7X 2492   4.491   5.088   2.996  0.6695 -0.5874  0.1712
   19SAPS   H7Y 2493   4.621   5.173   2.892 -0.0741  1.5921  2.1230
   19SAPS   C38 2494   4.669   5.109   3.088 -0.0464 -0.7406  0.1389
   19SAPS   H8X 2495   4.697   5.215   3.101 -0.4399 -0.4520 -1.2393
   19SAPS   H8Y 2496   4.757   5.042   3.102  0.8347  0.3704  0.0850
   19SAPS   C39 2497   4.581   5.068   3.213  0.1127 -0.1886 -1.0361
   19SAPS   H9X 2498   4.526   4.975   3.189 -0.4535 -0.5412  1.3853
   19SAPS   H9Y 2499   4.514   5.157   3.222  0.7874  0.2150  0.1152
   19SAPS  C310 2500   4.660   5.067   3.343 -0.5756 -0.3476  0.1681
   19SAPS  H10X 2501   4.716   5.163   3.349  1.1515 -1.3779  1.5138
   19SAPS  H10Y 2502   4.730   4.982   3.329 -1.2608 -0.8417 -0.3215
   19SAPS  C311 2503   4.573   5.039   3.466  0.3644 -0.3528  0.3611
   19SAPS  H11X 2504   4.537   4.934   3.459  0.1655 -0.2297 -0.5596
   19SAPS  H11Y 2505   4.479   5.097   3.474  0.3316  0.2593 -2.8384
   19SAPS  C312 2506   4.649   5.048   3.595  0.0022 -0.0032  0.5451
   19SAPS  H12X 2507   4.699   5.147   3.598 -2.5129  1.3316  2.0743
   19SAPS  H12Y 2508   4.725   4.968   3.613 -0.1474  0.0309  1.3629
   19SAPS  C313 2509   4.551   5.038   3.719 -0.1061 -0.6615  0.1423
   19SAPS  H13X 2510   4.506   4.937   3.710  0.7604 -1.0629  0.1382
   19SAPS  H13Y 2511   4.480   5.122   3.710 -2.3966 -2.5776 -0.6744
   19SAPS  C314 2512   4.615   5.053   3.864  0.1967  0.1605  0.7261
   19SAPS  H14X 2513   4.676   5.147   3.867 -1.5754  1.3878 -0.0283
   19SAPS  H14Y 2514   4.691   4.978   3.895 -1.6483 -1.3076  1.8428
   19SAPS  C315 2515   4.511   5.061   3.972  0.3242 -0.0707 -0.2614
   19SAPS  H15X 2516   4.469   4.960   3.992  0.2283 -0.1117 -0.6495
   19SAPS  H15Y 2517   4.432   5.131   3.937  0.8704  1.0825  0.7555
   19SAPS  C316 2518   4.553   5.125   4.103 -0.2810  0.0824  0.2380
   19SAPS  H16X 2519   4.632   5.199   4.078 -0.5889  0.6180  0.8092
   19SAPS  H16Y 2520   4.605   5.051   4.168 -1.1748  0.5303  1.5015
   19SAPS  C317 2521   4.433   5.186   4.169  0.0790  0.3681 -0.5143
   19SAPS  H17X 2522   4.394   5.274   4.114 -1.6594 -0.5157 -0.7624
   19SAPS  H17Y 2523   4.478   5.226   4.263 -0.3028  0.5819 -0.4231
   19SAPS  C318 2524   4.317   5.089   4.189  0.0156  0.2544 -0.5072
   19SAPS  H18X 2525   4.254   5.081   4.098 -1.9562  2.2738  0.5714
   19SAPS  H18Y 2526   4.245   5.108   4.271  0.1739  1.6844 -0.6672
   19SAPS  H18Z 2527   4.356   4.990   4.219 -0.6530  0.8494  2.6416
   20SAPS     N 2528   4.369   5.769   1.851  0.1627  0.3274  0.3182
   20SAPS   HN1 2529   4.273   5.809   1.840 -0.8744 -1.3822  2.3476
   20SAPS   HN2 2530   4.424   5.786   1.765 -0.3397 -3.7182 -1.0146
   20SAPS   HN3 2531   4.350   5.667   1.854  0.3396  0.0116 -3.8592
   20SAPS   C12 2532   4.445   5.804   1.974  0.7910  0.0171 -0.4189
   20SAPS  H12A 2533   4.534   5.743   1.979  1.0345  0.3248 -0.9059
   20SAPS   C13 2534   4.492   5.949   1.967 -0.3073  0.3429  0.2956
   20SAPS  O13A 2535   4.458   6.021   1.873 -0.0744 -0.4790 -0.2764
   20SAPS  O13B 2536   4.555   5.991   2.067 -0.5594 -0.8830 -0.2091
   20SAPS   C11 2537   4.360   5.791   2.105  0.0237  0.3862  0.7698
   20SAPS  H11A 2538   4.291   5.876   2.125  0.0145  0.6679 -0.4170
   20SAPS  H11B 2539   4.447   5.790   2.175 -0.4887 -2.7927  1.4912
   20SAPS     P 2540   4.347   5.529   2.183 -0.3120  0.2362 -0.2873
   20SAPS   O13 2541   4.240   5.426   2.179  0.5201 -0.4797  0.3157
   20SAPS   O14 2542   4.473   5.488   2.116 -0.6421 -0.2172 -0.0019
   20SAPS   O12 2543   4.293   5.662   2.107  1.2665  0.2903  0.5752
   20SAPS   O11 2544   4.382   5.581   2.323 -0.4520  0.0555 -0.3595
   20SAPS    C1 2545   4.284   5.651   2.406  0.5335  0.0416  0.0011
   20SAPS    HA 2546   4.235   5.733   2.349  0.9376 -0.4514 -1.0841
   20SAPS    HB 2547   4.200   5.587   2.440 -1.9578  2.1875 -1.6820
   20SAPS    C2 2548   4.350   5.727   2.528 -0.5181  0.0692  0.1962
   20SAPS    HS 2549   4.288   5.812   2.564  1.7830  0.9508  2.3460
   20SAPS   O21 2550   4.484   5.774   2.498  0.1929  0.2214  0.4283
   20SAPS   C21 2551   4.498   5.892   2.429 -0.1186  0.2572  0.4232
   20SAPS   O22 2552   4.410   5.976   2.404 -0.1273 -0.1044 -0.7074
   20SAPS   C22 2553   4.644   5.906   2.369 -1.0517  0.3460  0.4006
   20SAPS   H2R 2554   4.652   5.828   2.291 -1.0503  1.6312 -0.9149
   20SAPS   H2S 2555   4.658   5.999   2.311 -0.3110 -1.2911 -2.2223
   20SAPS    C3 2556   4.365   5.633   2.643 -0.2243  0.5210 -0.0095
   20SAPS    HX 2557   4.417   5.548   2.593 -0.6396  0.0049  0.4226
   20SAPS    HY 2558   4.264   5.601   2.676 -0.1500  1.1200  0.8298
   20SAPS   O31 2559   4.448   5.683   2.754 -0.6626 -0.6880  0.2438
   20SAPS   C31 2560   4.580   5.669   2.747  0.3535 -0.3200  0.3001
   20SAPS   O32 2561   4.640   5.598   2.669  0.1244  0.3187  0.0854
   20SAPS   C32 2562   4.647   5.763   2.847  0.6539  0.0429 -0.0162
   20SAPS   H2X 2563   4.635   5.866   2.808  0.0816 -0.3806 -0.9669
   20SAPS   H2Y 2564   4.748   5.720   2.867 -0.3395 -1.3503  2.4514
   20SAPS   C23 2565   4.755   5.885   2.471 -0.1248  0.1176 -0.9745
   20SAPS   H3R 2566   4.780   5.777   2.467 -1.7072 -0.4800  2.0127
   20SAPS   H3S 2567   4.726   5.910   2.575 -0.8821  1.2244 -1.4320
   20SAPS   C24 2568   4.881   5.971   2.445 -0.5756 -0.2572  0.2029
   20SAPS   H4R 2569   4.934   5.962   2.348  0.2023  0.6549  0.5279
   20SAPS   H4S 2570   4.957   5.942   2.521 -0.6152 -0.6351  0.0977
   20SAPS   C25 2571   4.846   6.110   2.480  0.2067 -0.4209  0.0406
   20SAPS   H5R 2572   4.781   6.156   2.404 -1.5757 -2.0410  0.5273
   20SAPS   C26 2573   4.890   6.175   2.587  0.2490  0.2480 -0.3411
   20SAPS   H6R 2574   4.858   6.278   2.609 -0.3406 -0.2594  1.2974
   20SAPS   C27 2575   4.984   6.121   2.694 -0.2280 -0.4361 -0.4323
   20SAPS   H7R 2576   5.047   6.206   2.729 -0.0803 -0.8433  0.3203
   20SAPS   H7S 2577   5.063   6.052   2.658 -1.3387 -1.6163 -0.6699
   20SAPS   C28 2578   4.901   6.062   2.807 -0.6282  0.2960  0.4658
   20SAPS   H8R 2579   4.797   6.035   2.785 -0.8071  0.2401  1.3358
   20SAPS   C29 2580   4.942   6.034   2.932  0.1226  0.2764  0.1445
   20SAPS   H9R 2581   4.875   5.999   3.013  0.2761 -0.2767  0.0427
   20SAPS  C210 2582   5.083   6.053   2.979 -0.2489  0.9650  0.7912
   20SAPS  H10R 2583   5.089   6.127   3.062  0.3095  2.4488 -0.5115
   20SAPS  H10S 2584   5.146   6.103   2.903  0.4007  0.0239  0.6952
   20SAPS  C211 2585   5.148   5.923   3.024  0.3201  0.6584 -0.0030
   20SAPS  H11R 2586   5.201   5.870   2.944  0.5025 -0.9334  1.1122
   20SAPS  C212 2587   5.162   5.879   3.152 -0.2099 -0.2769  0.3206
   20SAPS  H12R 2588   5.226   5.790   3.162  2.1636  1.4492  1.8240
   20SAPS  C213 2589   5.112   5.929   3.286  1.0423 -0.0632  0.2536
   20SAPS  H13R 2590   5.078   6.035   3.288  0.7815 -0.1581  1.0265
   20SAPS  H13S 2591   5.197   5.912   3.355  1.7308 -0.4878 -0.6747
   20SAPS  C214 2592   4.999   5.827   3.324  0.0993 -0.0483 -0.4346
   20SAPS  H14R 2593   4.936   5.780   3.247  1.4401 -1.8766 -0.4966
   20SAPS  C215 2594   4.963   5.796   3.453  0.5429  0.3306  0.5890
   20SAPS  H15R 2595   4.879   5.726   3.460  0.6358  0.1468 -0.0598
   20SAPS  C216 2596   5.008   5.842   3.590  0.2523 -0.6955  0.1330
   20SAPS  H16R 2597   5.022   5.952   3.580 -0.3674 -0.5455  0.9090
   20SAPS  H16S 2598   5.109   5.801   3.613  0.3269 -1.0083 -0.7188
   20SAPS  C217 2599   4.904   5.823   3.694 -0.2770 -0.5244 -0.1174
   20SAPS  H17R 2600   4.879   5.717   3.712  0.5724 -0.4999  1.4097
   20SAPS  H17S 2601   4.821   5.888   3.660  1.5048  1.5518 -0.7380
   20SAPS  C218 2602   4.941   5.869   3.835  0.0718 -0.5318 -1.2447
   20SAPS  H18R 2603   4.856   5.837   3.899  0.0756 -0.1535 -1.0473
   20SAPS  H18S 2604   4.965   5.978   3.844 -1.1635 -0.3435  0.2687
   20SAPS  C219 2605   5.068   5.803   3.891  0.1599 -0.6261 -0.0549
   20SAPS  H19R 2606   5.147   5.810   3.812 -1.5678  0.1568 -1.8124
   20SAPS  H19S 2607   5.057   5.693   3.904  0.1673 -0.5658  0.4668
   20SAPS  C220 2608   5.114   5.864   4.021 -0.8913  0.6792  0.1632
   20SAPS  H20R 2609   5.040   5.852   4.103 -1.7775 -2.1722 -0.9157
   20SAPS  H20S 2610   5.129   5.973   4.012  0.7060  0.6665  1.9418
   20SAPS  H20T 2611   5.209   5.811   4.047 -1.4862  0.0505  1.1417
   20SAPS   C33 2612   4.587   5.761   2.986  0.2267  0.0271 -0.7672
   20SAPS   H3X 2613   4.476   5.766   2.982  0.2010 -1.0511 -1.8821
   20SAPS   H3Y 2614   4.618   5.854   3.037 -0.5195 -0.5751  0.8754
   20SAPS   C34 2615   4.621   5.634   3.068  0.1827  0.1645  0.0712
   20SAPS   H4X 2616   4.731   5.621   3.063  0.2859  1.2934 -0.8058
   20SAPS   H4Y 2617   4.570   5.544   3.028 -1.3336  0.3179  1.5429
   20SAPS   C35 2618   4.573   5.637   3.216  0.3186 -0.0513  0.0794
   20SAPS   H5X 2619   4.466   5.667   3.224  0.8370  1.5357  1.9409
   20SAPS   H5Y 2620   4.634   5.710   3.274 -2.1090  0.3957  2.2630
   20SAPS   C36 2621   4.595   5.502   3.278  0.6645 -0.2834 -0.0685
   20SAPS   H6X 2622   4.704   5.489   3.297  0.7327 -0.2630 -0.4417
   20SAPS   H6Y 2623   4.554   5.413   3.226  0.1900 -0.0833 -0.0407
   20SAPS   C37 2624   4.537   5.497   3.420  0.2522 -0.6595 -0.3948
   20SAPS   H7X 2625   4.571   5.410   3.478 -1.1529 -0.5016  0.7302
   20SAPS   H7Y 2626   4.427   5.483   3.419  0.1898 -0.4100  0.8483
   20SAPS   C38 2627   4.576   5.624   3.497 -0.6334  0.6322 -0.3038
   20SAPS   H8X 2628   4.557   5.722   3.449 -0.1391 -0.0154 -1.8805
   20SAPS   H8Y 2629   4.686   5.617   3.513 -0.9218  0.8120  2.2686
   20SAPS   C39 2630   4.504   5.645   3.632  0.3989 -0.2737  0.7711
   20SAPS   H9X 2631   4.551   5.587   3.714 -0.2719 -0.8111  0.7832
   20SAPS   H9Y 2632   4.398   5.617   3.616  0.5169 -0.8503  1.0008
   20SAPS  C310 2633   4.518   5.794   3.677  0.0190 -0.1632  0.0786
   20SAPS  H10X 2634   4.489   5.875   3.606  1.0908 -0.6692 -0.9606
   20SAPS  H10Y 2635   4.627   5.807   3.691 -0.2614  0.6414  1.8915
   20SAPS  C311 2636   4.459   5.826   3.814  0.1834  0.4257 -0.1598
   20SAPS  H11X 2637   4.490   5.923   3.858 -1.6826  0.6360  0.8083
   20SAPS  H11Y 2638   4.498   5.747   3.882 -0.2711 -0.3570 -0.7824
   20SAPS  C312 2639   4.302   5.837   3.818 -0.1684  0.1039  0.0537
   20SAPS  H12X 2640   4.242   5.760   3.764  0.8527 -0.8818  0.2896
   20SAPS  H12Y 2641   4.280   5.938   3.777 -2.1851 -0.8728 -1.4477
   20SAPS  C313 2642   4.246   5.838   3.959 -0.2045 -0.4554 -0.2113
   20SAPS  H13X 2643   4.138   5.860   3.948  0.2267  1.4797 -0.8654
   20SAPS  H13Y 2644   4.301   5.915   4.016  2.7275 -2.4966 -0.0193
   20SAPS  C314 2645   4.256   5.700   4.016 -0.3024  0.6037  0.2081
   20SAPS  H14X 2646   4.358   5.659   3.997  0.1208  1.8287 -0.2762
   20SAPS  H14Y 2647   4.197   5.629   3.955 -0.3974  0.0081  0.9772
   20SAPS  C315 2648   4.214   5.692   4.163  0.7703  0.2245  0.3963
   20SAPS  H15X 2649   4.271   5.764   4.225  1.4716  0.3575 -0.3858
   20SAPS  H15Y 2650   4.239   5.585   4.183 -2.7360 -1.2766 -2.1948
   20SAPS  C316 2651   4.067   5.724   4.187 -0.3556 -0.3395 -0.7418
   20SAPS  H16X 2652   4.001   5.676   4.112  1.1625  1.6136 -3.4969
   20SAPS  H16Y 2653   4.048   5.833   4.186  0.6833 -0.1371 -0.2839
   20SAPS  C317 2654   4.026   5.673   4.330 -0.7298  0.3603 -0.4902
   20SAPS  H17X 2655   4.054   5.566   4.336  0.6154  0.6707 -0.6828
   20SAPS  H17Y 2656   3.916   5.684   4.333 -1.0379 -1.4320 -2.4229
   20SAPS  C318 2657   4.085   5.739   4.458  0.7021  0.1993 -0.3593
   20SAPS  H18X 2658   4.194   5.759   4.453  0.8685 -0.5077  0.3153
   20SAPS  H18Y 2659   4.059   5.686   4.552  2.3727 -0.3510 -0.1824
   20SAPS  H18Z 2660   4.042   5.842   4.453  0.8601  0.2363 -1.1062
   21CHL1    C3 2661   1.415   3.764   6.031 -0.2498  0.0791 -0.2203
   21CHL1    H3 2662   1.524   3.747   6.014 -0.5841 -0.6027 -1.9403
   21CHL1    O3 2663   1.381   3.755   6.167 -0.3362 -0.0628  0.4194
   21CHL1   H3' 2664   1.428   3.677   6.198  0.4162  0.6092  1.0114
   21CHL1    C4 2665   1.379   3.901   5.981 -0.5547 -0.4346  0.1737
   21CHL1   H4A 2666   1.273   3.928   6.003 -0.5151 -0.8722  0.9421
   21CHL1   H4B 2667   1.445   3.969   6.038  0.7221 -1.5135  0.0284
   21CHL1    C5 2668   1.388   3.903   5.836 -0.0647 -0.4303  0.4264
   21CHL1    C6 2669   1.472   3.989   5.766  0.8429  0.4398 -0.6312
   21CHL1    H6 2670   1.525   4.054   5.837 -1.8022  0.4054  1.5253
   21CHL1    C7 2671   1.474   4.002   5.621 -0.2065 -0.8873  0.0406
   21CHL1   H7A 2672   1.478   4.110   5.595  1.4008 -0.4389  1.8262
   21CHL1   H7B 2673   1.569   3.963   5.578  0.1792 -0.0032  0.0673
   21CHL1    C8 2674   1.358   3.935   5.544  0.1569  0.2382  0.4275
   21CHL1    H8 2675   1.259   3.983   5.558 -1.1267 -2.1847  0.0845
   21CHL1   C14 2676   1.391   3.921   5.396 -0.5119  0.0047 -0.6171
   21CHL1   H14 2677   1.474   3.847   5.393 -0.3396  0.1923 -0.5042
   21CHL1   C15 2678   1.438   4.049   5.326  0.4357 -1.1761  1.0996
   21CHL1  H15A 2679   1.382   4.138   5.364 -0.1298 -0.3947 -1.3528
   21CHL1  H15B 2680   1.542   4.084   5.340  0.4015 -0.7605  0.3976
   21CHL1   C16 2681   1.419   4.016   5.177  0.0649  0.8445  0.6664
   21CHL1  H16A 2682   1.364   4.096   5.121 -0.1269  0.3045  0.0679
   21CHL1  H16B 2683   1.519   4.013   5.129  0.1110  0.6766  0.7730
   21CHL1   C17 2684   1.355   3.875   5.167  0.1890 -0.1411 -0.2154
   21CHL1   H17 2685   1.439   3.805   5.154 -0.4136 -1.1091  0.9835
   21CHL1   C13 2686   1.290   3.850   5.307 -0.0526  0.1938 -0.1091
   21CHL1   C18 2687   1.154   3.915   5.318  0.8852 -0.1353  0.4467
   21CHL1  H18A 2688   1.087   3.867   5.243  1.4448 -0.6824  0.2930
   21CHL1  H18B 2689   1.111   3.884   5.416 -0.5237 -2.0137 -0.6955
   21CHL1  H18C 2690   1.148   4.025   5.302 -2.1767 -0.2819 -0.0597
   21CHL1   C12 2691   1.285   3.703   5.354 -0.2405 -0.1170  0.0703
   21CHL1  H12A 2692   1.203   3.648   5.302  0.9354 -2.5981  0.7081
   21CHL1  H12B 2693   1.385   3.660   5.334 -0.1135  1.1951 -2.5419
   21CHL1   C11 2694   1.250   3.700   5.510 -0.2661  0.3932  0.0432
   21CHL1  H11A 2695   1.144   3.730   5.514 -0.0362  1.1485  0.6612
   21CHL1  H11B 2696   1.250   3.595   5.547 -3.3907  0.0525 -0.6331
   21CHL1    C9 2697   1.344   3.793   5.601  0.2534 -0.2635  0.0358
   21CHL1    H9 2698   1.441   3.741   5.596 -0.0290 -0.9013  0.9871
   21CHL1   C10 2699   1.317   3.799   5.754  0.8116 -0.1001 -0.2245
   21CHL1   C19 2700   1.160   3.827   5.768 -0.0733  0.4030  0.5650
   21CHL1  H19A 2701   1.128   3.901   5.692 -0.6888 -1.4670 -1.0942
   21CHL1  H19B 2702   1.094   3.740   5.744 -0.9118  0.3972  2.6529
   21CHL1  H19C 2703   1.122   3.848   5.870  1.2523  1.5219  0.8521
   21CHL1    C1 2704   1.360   3.664   5.813 -0.4724  0.0688 -0.8981
   21CHL1   H1A 2705   1.300   3.579   5.774 -2.1680  0.9014 -0.1862
   21CHL1   H1B 2706   1.469   3.645   5.797 -0.0767 -0.2594  1.7263
   21CHL1    C2 2707   1.337   3.651   5.963 -0.5098  0.7869 -0.3322
   21CHL1   H2A 2708   1.364   3.549   5.995 -4.0010 -1.5507 -3.9184
   21CHL1   H2B 2709   1.228   3.659   5.986 -0.2258  0.7468  1.1273
   21CHL1   C20 2710   1.268   3.863   5.036 -0.7143  0.2849  0.5031
   21CHL1   H20 2711   1.192   3.943   5.034  0.7340  1.7166 -1.2120
   21CHL1   C21 2712   1.202   3.725   5.035  0.4393  0.2260 -0.4230
   21CHL1  H21A 2713   1.146   3.704   5.129  1.5417  1.4715  0.5483
   21CHL1  H21B 2714   1.272   3.640   5.018  3.0004  1.9041  1.1147
   21CHL1  H21C 2715   1.130   3.717   4.951  0.6488 -2.0122 -0.4573
   21CHL1   C22 2716   1.349   3.887   4.903 -0.7036  0.2774 -0.3939
   21CHL1  H22A 2717   1.376   3.995   4.909 -1.7169  0.5034  0.3810
   21CHL1  H22B 2718   1.446   3.832   4.899  0.5199  2.3390 -0.5178
   21CHL1   C23 2719   1.267   3.858   4.778  0.6998 -0.5804  0.4144
   21CHL1  H23A 2720   1.334   3.872   4.690  1.5620  1.9223  1.3971
   21CHL1  H23B 2721   1.223   3.756   4.774 -0.3850 -0.2127  2.0924
   21CHL1   C24 2722   1.147   3.956   4.763  1.0574 -0.5238  0.2102
   21CHL1  H24A 2723   1.067   3.928   4.835 -0.8056  0.1343 -1.4939
   21CHL1  H24B 2724   1.170   4.059   4.796  0.6133  0.0645 -1.2056
   21CHL1   C25 2725   1.083   3.976   4.624  0.1650  0.2618 -0.3328
   21CHL1   H25 2726   1.157   3.994   4.544  0.0157  0.9214 -0.3303
   21CHL1   C26 2727   1.014   3.849   4.581  0.5517 -0.3931  0.4767
   21CHL1  H26A 2728   0.941   3.823   4.662  0.5663 -1.2039  0.2374
   21CHL1  H26B 2729   0.941   3.869   4.499 -0.0539  0.5473  1.2076
   21CHL1  H26C 2730   1.079   3.762   4.559 -0.9592 -1.7323  1.1172
   21CHL1   C27 2731   0.987   4.106   4.629 -0.0989  0.2230 -0.5060
   21CHL1  H27A 2732   0.899   4.071   4.687  0.7059 -1.1715 -0.0678
   21CHL1  H27B 2733   1.039   4.192   4.675  0.8352  0.3800 -1.8026
   21CHL1  H27C 2734   0.960   4.147   4.529  2.3617  4.3176  0.2961
   22CHL1    C3 2735   1.676   1.572   6.028  0.2282  0.4587  0.9698
   22CHL1    H3 2736   1.632   1.670   6.057 -0.7481 -1.0151  5.1942
   22CHL1    O3 2737   1.736   1.529   6.147 -0.0123 -0.4497 -0.7128
   22CHL1   H3' 2738   1.793   1.454   6.128 -0.1038 -1.1210  1.4377
   22CHL1    C4 2739   1.574   1.469   5.976  0.1713  0.2588 -0.2364
   22CHL1   H4A 2740   1.642   1.384   5.952  0.7002  1.1331 -1.9763
   22CHL1   H4B 2741   1.511   1.435   6.061  0.8415  0.2412  0.2692
   22CHL1    C5 2742   1.507   1.517   5.853 -0.1478 -0.6132  0.0909
   22CHL1    C6 2743   1.375   1.540   5.848  0.2944  0.3811  0.4046
   22CHL1    H6 2744   1.310   1.524   5.936  0.9896 -1.7141  0.5806
   22CHL1    C7 2745   1.301   1.577   5.726 -0.1050 -0.4452 -0.4066
   22CHL1   H7A 2746   1.216   1.506   5.713  0.9009 -1.7135 -0.1353
   22CHL1   H7B 2747   1.252   1.676   5.742 -0.6452 -0.4045 -2.0608
   22CHL1    C8 2748   1.387   1.585   5.600  0.1946 -0.0357 -0.5999
   22CHL1    H8 2749   1.403   1.481   5.564  1.1121  0.3363 -1.3037
   22CHL1   C14 2750   1.318   1.676   5.497  0.0509 -0.6077 -0.1367
   22CHL1   H14 2751   1.339   1.778   5.535 -2.7836 -0.6570  1.9582
   22CHL1   C15 2752   1.166   1.659   5.468 -0.0289 -0.3256 -0.0282
   22CHL1  H15A 2753   1.152   1.549   5.476 -0.4006 -0.5134 -2.5241
   22CHL1  H15B 2754   1.105   1.709   5.546 -0.7330  0.1924 -0.8931
   22CHL1   C16 2755   1.142   1.714   5.328 -0.2362 -0.4502  0.4388
   22CHL1  H16A 2756   1.102   1.624   5.277 -0.4499  0.8153 -1.7173
   22CHL1  H16B 2757   1.076   1.804   5.330  2.3718  1.6129  3.3565
   22CHL1   C17 2758   1.282   1.764   5.282  0.1761 -0.6907 -0.3705
   22CHL1   H17 2759   1.296   1.870   5.309  2.4691 -1.1802  0.6148
   22CHL1   C13 2760   1.389   1.681   5.367  0.1041 -0.1198 -0.0391
   22CHL1   C18 2761   1.382   1.533   5.305 -0.3532  0.2186 -0.3062
   22CHL1  H18A 2762   1.425   1.542   5.203  0.0482 -1.0288 -0.2684
   22CHL1  H18B 2763   1.454   1.461   5.350  1.0826 -0.8677 -4.0079
   22CHL1  H18C 2764   1.282   1.486   5.297  0.5919 -1.8875 -0.4451
   22CHL1   C12 2765   1.530   1.740   5.382 -0.0287 -0.1299 -0.3193
   22CHL1  H12A 2766   1.604   1.744   5.299  1.2713  1.5018  0.8607
   22CHL1  H12B 2767   1.514   1.846   5.411 -0.0126 -0.5304  1.2540
   22CHL1   C11 2768   1.603   1.663   5.502  0.2815 -0.1424 -0.8684
   22CHL1  H11A 2769   1.646   1.567   5.467 -0.5544  0.0566 -2.5536
   22CHL1  H11B 2770   1.684   1.733   5.532  1.9960 -2.0171 -0.9499
   22CHL1    C9 2771   1.528   1.637   5.636  0.3237  0.3762  0.7631
   22CHL1    H9 2772   1.508   1.737   5.680  0.1228  0.8561 -0.3640
   22CHL1   C10 2773   1.601   1.555   5.737  0.0048  0.0978 -0.3042
   22CHL1   C19 2774   1.652   1.416   5.670 -0.0656 -0.8509 -0.3214
   22CHL1  H19A 2775   1.703   1.360   5.751  1.0094  0.0229 -0.3558
   22CHL1  H19B 2776   1.566   1.370   5.618 -0.3892  0.2069 -0.7613
   22CHL1  H19C 2777   1.740   1.432   5.603 -0.0030  1.8035  0.2623
   22CHL1    C1 2778   1.727   1.644   5.800  1.0994 -0.2770 -0.1235
   22CHL1   H1A 2779   1.802   1.637   5.718  1.3773  4.3863 -0.5429
   22CHL1   H1B 2780   1.697   1.751   5.808 -0.4147 -0.5465 -1.5886
   22CHL1    C2 2781   1.782   1.584   5.929 -0.1023 -0.3087  0.8467
   22CHL1   H2A 2782   1.863   1.647   5.971  1.0018  0.1560 -1.7518
   22CHL1   H2B 2783   1.829   1.491   5.890  2.4585  1.9373 -2.0644
   22CHL1   C20 2784   1.306   1.759   5.129 -0.3627  0.7334  0.4852
   22CHL1   H20 2785   1.314   1.652   5.102  3.8437  0.2824  2.6767
   22CHL1   C21 2786   1.425   1.844   5.084 -0.4891  0.1546  0.2148
   22CHL1  H21A 2787   1.438   1.839   4.974  1.2563 -0.7161  0.4221
   22CHL1  H21B 2788   1.516   1.794   5.123 -2.1437 -1.4376  2.2585
   22CHL1  H21C 2789   1.413   1.952   5.105  2.1021  0.7981 -1.1072
   22CHL1   C22 2790   1.171   1.799   5.055  0.4113 -0.2500 -0.0648
   22CHL1  H22A 2791   1.099   1.715   5.065  0.1371  0.0880  0.9280
   22CHL1  H22B 2792   1.113   1.886   5.091 -0.7571 -0.0013 -2.3572
   22CHL1   C23 2793   1.199   1.820   4.910 -0.1660 -0.1909 -0.0813
   22CHL1  H23A 2794   1.236   1.921   4.883 -0.7543 -0.6110 -2.7360
   22CHL1  H23B 2795   1.269   1.740   4.875 -0.0539  0.4036 -1.2862
   22CHL1   C24 2796   1.072   1.790   4.822 -0.3210 -0.0571 -0.3388
   22CHL1  H24A 2797   1.007   1.714   4.870 -0.3172  0.3077  0.2570
   22CHL1  H24B 2798   1.021   1.888   4.832 -2.0828 -1.1154  2.3747
   22CHL1   C25 2799   1.111   1.763   4.673 -0.0270 -0.0330 -0.1960
   22CHL1   H25 2800   1.202   1.699   4.678  0.7589  1.1239  3.1207
   22CHL1   C26 2801   1.001   1.692   4.599  0.4756 -0.2230  0.4775
   22CHL1  H26A 2802   1.029   1.672   4.494  2.1861  1.2562  0.5984
   22CHL1  H26B 2803   0.980   1.595   4.648 -2.9148 -0.5298 -1.3107
   22CHL1  H26C 2804   0.911   1.756   4.610  1.7566  1.3109  3.2046
   22CHL1   C27 2805   1.144   1.891   4.598  0.1233  0.2657 -0.7832
   22CHL1  H27A 2806   1.146   1.881   4.487  1.5579  0.5418 -0.8014
   22CHL1  H27B 2807   1.076   1.972   4.631 -1.3604 -1.4096  0.4936
   22CHL1  H27C 2808   1.242   1.925   4.638  0.0659 -0.6341  0.1685
   23CHL1    C3 2809   0.706   3.652   6.032 -0.3633  0.4419 -0.4884
   23CHL1    H3 2810   0.801   3.605   6.000 -0.7682 -0.6647 -0.1195
   23CHL1    O3 2811   0.709   3.626   6.175 -0.8480 -0.4066 -0.2118
   23CHL1   H3' 2812   0.773   3.686   6.213 -0.9297 -0.0561 -0.6255
   23CHL1    C4 2813   0.714   3.806   6.006 -0.2482 -0.2284  0.1576
   23CHL1   H4A 2814   0.645   3.874   6.060  0.6125 -0.9746  2.3112
   23CHL1   H4B 2815   0.808   3.844   6.051 -0.1812 -0.4479  0.2035
   23CHL1    C5 2816   0.706   3.825   5.853 -0.8898 -0.3862 -0.8622
   23CHL1    C6 2817   0.797   3.911   5.797  0.2366 -0.1755  0.2006
   23CHL1    H6 2818   0.867   3.962   5.864 -0.2058  1.2197 -0.3577
   23CHL1    C7 2819   0.800   3.941   5.653 -0.3027 -1.0829  0.9509
   23CHL1   H7A 2820   0.810   4.051   5.641 -0.3781 -1.3051 -1.7794
   23CHL1   H7B 2821   0.897   3.907   5.611  0.0570  0.1868  0.7077
   23CHL1    C8 2822   0.683   3.890   5.568  0.1769  0.9816 -0.4283
   23CHL1    H8 2823   0.599   3.962   5.581 -1.0439 -0.5711  0.6645
   23CHL1   C14 2824   0.724   3.866   5.424  0.3421  0.1523 -0.1063
   23CHL1   H14 2825   0.805   3.790   5.425  1.7131  1.5517  1.1318
   23CHL1   C15 2826   0.772   3.987   5.349 -0.1353  0.3784 -0.0306
   23CHL1  H15A 2827   0.710   4.076   5.374 -1.7064 -0.3945 -1.0291
   23CHL1  H15B 2828   0.875   4.020   5.372 -0.7326  2.3751  0.0021
   23CHL1   C16 2829   0.769   3.936   5.203  0.2036  0.1301  0.6169
   23CHL1  H16A 2830   0.730   4.022   5.145 -0.2794  0.2390  1.0886
   23CHL1  H16B 2831   0.871   3.910   5.170 -1.0339 -2.4046 -1.5700
   23CHL1   C17 2832   0.686   3.803   5.198 -0.6518  0.0317  0.0491
   23CHL1   H17 2833   0.759   3.720   5.206 -0.2181  0.4278  0.2360
   23CHL1   C13 2834   0.610   3.804   5.330  0.3592 -0.1606  0.1675
   23CHL1   C18 2835   0.488   3.908   5.326 -0.7727 -0.1777 -0.0513
   23CHL1  H18A 2836   0.410   3.875   5.254  1.0795 -1.7529 -1.4570
   23CHL1  H18B 2837   0.449   3.930   5.428  1.3362  1.9193  0.3996
   23CHL1  H18C 2838   0.529   4.002   5.284  0.2147 -0.0263  1.1825
   23CHL1   C12 2839   0.560   3.667   5.391 -0.7897 -1.1090 -0.1736
   23CHL1  H12A 2840   0.479   3.625   5.329 -0.9717 -1.3182  0.2010
   23CHL1  H12B 2841   0.651   3.605   5.409 -0.7314 -0.5038  1.9336
   23CHL1   C11 2842   0.519   3.685   5.539  0.2644  0.5091  0.8961
   23CHL1  H11A 2843   0.431   3.753   5.542 -0.9909 -1.0754  2.3623
   23CHL1  H11B 2844   0.487   3.586   5.578 -1.6783  0.3147 -1.0128
   23CHL1    C9 2845   0.630   3.746   5.627 -0.5673 -0.2139  0.0315
   23CHL1    H9 2846   0.706   3.667   5.610 -0.5904 -0.6279  1.6859
   23CHL1   C10 2847   0.600   3.749   5.780  0.3459  0.2091  0.7353
   23CHL1   C19 2848   0.466   3.830   5.803 -0.1266 -0.0063 -0.3076
   23CHL1  H19A 2849   0.458   3.921   5.740 -3.0179 -0.5506 -0.8560
   23CHL1  H19B 2850   0.383   3.760   5.780  0.2052 -1.0328  1.3692
   23CHL1  H19C 2851   0.454   3.865   5.908 -0.1465  2.1847 -1.0012
   23CHL1    C1 2852   0.582   3.603   5.830 -0.0536 -0.0866  0.3053
   23CHL1   H1A 2853   0.491   3.559   5.785 -0.0800  1.3985 -1.1597
   23CHL1   H1B 2854   0.668   3.543   5.790  1.4982  0.2485  2.8922
   23CHL1    C2 2855   0.583   3.586   5.979 -0.3124  0.0481 -0.0941
   23CHL1   H2A 2856   0.593   3.477   5.998  2.5586  0.2298 -0.1874
   23CHL1   H2B 2857   0.497   3.624   6.037  1.0641  2.3535  0.5641
   23CHL1   C20 2858   0.594   3.794   5.074  0.5650  1.0101 -0.8017
   23CHL1   H20 2859   0.503   3.856   5.084 -1.1235 -1.5889  1.4178
   23CHL1   C21 2860   0.548   3.644   5.053  0.1158  0.2761 -0.7741
   23CHL1  H21A 2861   0.519   3.637   4.947  1.3585 -0.0542 -1.1111
   23CHL1  H21B 2862   0.460   3.627   5.118  2.0751  2.0660  2.6665
   23CHL1  H21C 2863   0.628   3.566   5.057 -2.3105 -2.4230 -1.8716
   23CHL1   C22 2864   0.656   3.848   4.944 -0.2535 -0.7401 -0.9914
   23CHL1  H22A 2865   0.702   3.948   4.957  0.2070 -1.0936  0.1590
   23CHL1  H22B 2866   0.725   3.775   4.897 -0.2242 -1.0497 -0.4749
   23CHL1   C23 2867   0.552   3.898   4.838 -0.2243 -0.9143 -0.0947
   23CHL1  H23A 2868   0.505   3.810   4.790  1.9807 -1.0304 -2.2954
   23CHL1  H23B 2869   0.475   3.959   4.891  2.1287  1.4382  0.8812
   23CHL1   C24 2870   0.616   3.974   4.721 -0.1735  0.2325  0.6807
   23CHL1  H24A 2871   0.657   4.070   4.761  0.8549  0.5791 -1.1003
   23CHL1  H24B 2872   0.711   3.927   4.687  1.1747  2.1044  1.6020
   23CHL1   C25 2873   0.522   4.012   4.597  0.1010  0.2875  0.5676
   23CHL1   H25 2874   0.458   4.092   4.639 -1.5181  0.8463 -2.6262
   23CHL1   C26 2875   0.608   4.080   4.484 -0.3394 -0.2287 -0.7246
   23CHL1  H26A 2876   0.659   4.176   4.508 -0.2593 -0.7509  1.3362
   23CHL1  H26B 2877   0.691   4.008   4.469  0.5490  0.4039  0.8684
   23CHL1  H26C 2878   0.547   4.099   4.393  0.5203 -0.1256 -1.2866
   23CHL1   C27 2879   0.433   3.908   4.531 -0.2633 -0.2503 -0.3311
   23CHL1  H27A 2880   0.491   3.844   4.461  0.7945 -1.4132  1.4988
   23CHL1  H27B 2881   0.381   3.839   4.601  1.0296 -1.6325 -0.6802
   23CHL1  H27C 2882   0.354   3.958   4.471 -1.0339  1.7176  2.1641
   24CHL1    C3 2883   3.318   5.091   6.446  0.3187 -0.9549 -0.2452
   24CHL1    H3 2884   3.422   5.075   6.408 -0.0013 -1.3844 -0.9737
   24CHL1    O3 2885   3.317   5.105   6.588  0.2651 -0.1162  0.2327
   24CHL1   H3' 2886   3.227   5.118   6.617  0.2592  0.7898 -0.1485
   24CHL1    C4 2887   3.253   5.215   6.375 -0.3148  0.0180  0.1905
   24CHL1   H4A 2888   3.161   5.249   6.427 -1.1186 -0.0581 -1.1209
   24CHL1   H4B 2889   3.333   5.290   6.397  1.2449 -0.9507 -1.8236
   24CHL1    C5 2890   3.242   5.192   6.224  0.2739 -0.0926  0.2569
   24CHL1    C6 2891   3.303   5.274   6.138  0.0245  0.4264 -0.1418
   24CHL1    H6 2892   3.345   5.370   6.172 -2.9104  1.4529  0.9376
   24CHL1    C7 2893   3.294   5.251   5.988 -0.2705 -0.5027 -0.5902
   24CHL1   H7A 2894   3.277   5.348   5.938  0.0973 -0.1677 -0.0784
   24CHL1   H7B 2895   3.394   5.223   5.948 -0.0580  2.1896 -2.1450
   24CHL1    C8 2896   3.181   5.163   5.938 -0.1806 -0.1406  0.8657
   24CHL1    H8 2897   3.085   5.216   5.955  0.1075  0.7296 -0.0656
   24CHL1   C14 2898   3.199   5.128   5.790  0.1904 -0.0743 -0.0539
   24CHL1   H14 2899   3.297   5.076   5.776 -1.2857 -2.7408 -1.2867
   24CHL1   C15 2900   3.205   5.243   5.690  0.2731  0.6331  0.3088
   24CHL1  H15A 2901   3.113   5.304   5.699  0.9565  1.6723  0.4101
   24CHL1  H15B 2902   3.304   5.293   5.692  0.4202  0.4120 -0.6487
   24CHL1   C16 2903   3.194   5.172   5.556  0.0048 -0.8868  0.2886
   24CHL1  H16A 2904   3.132   5.229   5.484  2.0024  0.5812 -0.3754
   24CHL1  H16B 2905   3.299   5.171   5.520  0.0955 -3.2045  0.5144
   24CHL1   C17 2906   3.154   5.027   5.583  0.1200  0.6802 -0.1338
   24CHL1   H17 2907   3.240   4.957   5.597 -1.5008 -1.4415 -0.1975
   24CHL1   C13 2908   3.103   5.025   5.732 -0.3327 -0.4716  0.0979
   24CHL1   C18 2909   2.959   5.090   5.734 -0.1338  0.1988 -0.1270
   24CHL1  H18A 2910   2.956   5.180   5.668 -0.0472 -0.6430 -1.3218
   24CHL1  H18B 2911   2.890   5.020   5.681  2.1205 -3.2725  1.2380
   24CHL1  H18C 2912   2.922   5.104   5.838 -1.7327 -1.5863 -0.3999
   24CHL1   C12 2913   3.112   4.897   5.822 -0.1772  0.1505 -0.0153
   24CHL1  H12A 2914   3.038   4.822   5.786  0.9121 -0.7484 -0.4228
   24CHL1  H12B 2915   3.214   4.862   5.793 -0.5390 -0.6898 -0.3294
   24CHL1   C11 2916   3.090   4.925   5.970  0.4740 -0.3043 -0.2866
   24CHL1  H11A 2917   2.986   4.961   5.979 -0.3003 -2.5486  0.4233
   24CHL1  H11B 2918   3.099   4.828   6.024  2.7250  0.7824  1.4705
   24CHL1    C9 2919   3.189   5.038   6.024  0.4045  0.1865  0.2063
   24CHL1    H9 2920   3.289   4.993   6.008  0.3753 -0.3285  1.3984
   24CHL1   C10 2921   3.173   5.062   6.177 -0.5117  0.5265 -0.5135
   24CHL1   C19 2922   3.017   5.082   6.211 -0.1374 -0.6741  0.4669
   24CHL1  H19A 2923   2.962   4.987   6.190  0.7213 -1.1856  0.4782
   24CHL1  H19B 2924   3.001   5.103   6.319  0.0251  0.8120  0.2255
   24CHL1  H19C 2925   2.982   5.171   6.155 -0.3239 -2.1039 -1.7977
   24CHL1    C1 2926   3.229   4.946   6.261  0.1842  0.6880  0.2096
   24CHL1   H1A 2927   3.166   4.855   6.253 -0.5159  1.1913 -0.0570
   24CHL1   H1B 2928   3.330   4.920   6.220  0.2498  1.1548  0.0770
   24CHL1    C2 2929   3.246   4.966   6.406  0.5479  0.3010 -0.7181
   24CHL1   H2A 2930   3.280   4.871   6.453 -0.6939 -0.5973 -1.5715
   24CHL1   H2B 2931   3.143   4.973   6.447  1.4995  0.8971  1.7915
   24CHL1   C20 2932   3.069   4.967   5.463  0.2245  0.1222 -0.1649
   24CHL1   H20 2933   2.983   5.034   5.444 -0.2636 -0.5085 -0.2293
   24CHL1   C21 2934   3.016   4.825   5.495  0.1634 -0.0135 -0.2927
   24CHL1  H21A 2935   3.102   4.756   5.510  0.4865  0.6307  0.9939
   24CHL1  H21B 2936   2.948   4.786   5.417 -3.5150  1.9210  1.7045
   24CHL1  H21C 2937   2.956   4.825   5.588 -0.2730 -3.4722 -0.4452
   24CHL1   C22 2938   3.163   4.967   5.343 -0.4615 -0.3868 -0.0209
   24CHL1  H22A 2939   3.209   5.066   5.324 -0.6391 -0.0485  1.1778
   24CHL1  H22B 2940   3.244   4.895   5.368  0.2354  0.3415 -0.1843
   24CHL1   C23 2941   3.100   4.939   5.201 -0.2490  0.6004  0.1717
   24CHL1  H23A 2942   3.077   4.831   5.211  1.9900  0.3006  4.2677
   24CHL1  H23B 2943   3.009   5.000   5.178 -0.6285  0.4654  1.2429
   24CHL1   C24 2944   3.204   4.953   5.088 -0.1658 -0.4716 -0.4611
   24CHL1  H24A 2945   3.262   5.047   5.093  0.7178 -1.0823  1.3942
   24CHL1  H24B 2946   3.282   4.875   5.100  0.2566  0.1901  1.3629
   24CHL1   C25 2947   3.132   4.935   4.949  0.2474 -0.3775 -1.4937
   24CHL1   H25 2948   3.064   5.023   4.946  1.0162  0.2119 -2.8588
   24CHL1   C26 2949   3.235   4.960   4.836  0.1774  0.2406 -0.7326
   24CHL1  H26A 2950   3.281   5.061   4.843 -0.3768  0.4723 -0.3221
   24CHL1  H26B 2951   3.313   4.881   4.841 -1.6256 -1.6186 -0.6292
   24CHL1  H26C 2952   3.182   4.943   4.740  0.5060 -2.3091 -0.5354
   24CHL1   C27 2953   3.069   4.796   4.931 -0.0388 -0.0499 -0.4496
   24CHL1  H27A 2954   2.994   4.770   5.009 -2.4471 -0.4777 -2.7658
   24CHL1  H27B 2955   3.026   4.789   4.829  0.1722 -1.5455 -0.4605
   24CHL1  H27C 2956   3.147   4.719   4.953 -1.0315 -1.1869 -0.8329
   25CHL1    C3 2957   5.429   6.182   6.013  0.5441 -0.3786 -0.8151
   25CHL1    H3 2958   5.401   6.288   5.998 -1.1315 -0.7870 -0.7641
   25CHL1    O3 2959   5.441   6.139   6.147  0.1554 -0.1238 -0.0746
   25CHL1   H3' 2960   5.503   6.198   6.191 -1.4070  0.2108  1.7902
   25CHL1    C4 2961   5.316   6.103   5.938 -0.0445  0.2210  0.2159
   25CHL1   H4A 2962   5.329   5.993   5.947  1.6123  0.5126  1.9502
   25CHL1   H4B 2963   5.231   6.151   5.991  0.3058 -0.3931  1.3702
   25CHL1    C5 2964   5.300   6.138   5.799  0.5400  0.0254  0.7756
   25CHL1    C6 2965   5.190   6.190   5.748  0.1002 -0.0578  1.2397
   25CHL1    H6 2966   5.098   6.201   5.808 -2.0869  1.2948 -2.0176
   25CHL1    C7 2967   5.162   6.215   5.601  0.0465 -0.1274 -0.1500
   25CHL1   H7A 2968   5.068   6.163   5.574 -0.6071  1.7835 -1.8281
   25CHL1   H7B 2969   5.142   6.322   5.577 -0.1869 -0.3381 -0.9331
   25CHL1    C8 2970   5.272   6.167   5.509 -0.2009 -1.1772 -0.0235
   25CHL1    H8 2971   5.259   6.057   5.496 -1.7915 -0.8825 -1.1974
   25CHL1   C14 2972   5.271   6.230   5.372 -0.4640 -0.6903 -0.4620
   25CHL1   H14 2973   5.296   6.336   5.394 -0.0864 -0.7862 -0.4204
   25CHL1   C15 2974   5.145   6.250   5.287 -0.6312 -0.5567  0.1610
   25CHL1  H15A 2975   5.073   6.169   5.313 -1.4230  0.2365  0.4610
   25CHL1  H15B 2976   5.099   6.348   5.312  1.2351  0.3572  0.1601
   25CHL1   C16 2977   5.199   6.250   5.141  0.4219  0.2702 -0.8465
   25CHL1  H16A 2978   5.177   6.148   5.104 -3.6143  1.0045 -0.8391
   25CHL1  H16B 2979   5.159   6.339   5.088  1.2188  1.6314  0.7307
   25CHL1   C17 2980   5.356   6.256   5.152  1.1901  0.5574 -0.2623
   25CHL1   H17 2981   5.391   6.361   5.162  3.8969 -0.1975 -1.0524
   25CHL1   C13 2982   5.382   6.182   5.285 -0.6508 -0.3168 -0.2252
   25CHL1   C18 2983   5.380   6.029   5.263 -0.2122  0.1070 -0.7792
   25CHL1  H18A 2984   5.281   6.004   5.218 -0.0929  1.2708 -1.7542
   25CHL1  H18B 2985   5.469   5.993   5.208  0.0217  1.5670 -1.4128
   25CHL1  H18C 2986   5.392   5.990   5.366 -0.9386  0.2388 -0.6414
   25CHL1   C12 2987   5.521   6.218   5.345  0.5390  0.7348 -0.5825
   25CHL1  H12A 2988   5.607   6.183   5.284 -0.4400 -0.5919 -1.2672
   25CHL1  H12B 2989   5.530   6.326   5.366 -1.2672  0.6833  0.5804
   25CHL1   C11 2990   5.533   6.157   5.486 -0.8049 -0.4890  0.2180
   25CHL1  H11A 2991   5.552   6.048   5.477 -1.5453 -0.5257 -1.2831
   25CHL1  H11B 2992   5.626   6.201   5.528  0.1209 -1.3389 -0.8854
   25CHL1    C9 2993   5.415   6.180   5.577 -0.1065  0.0378  0.0661
   25CHL1    H9 2994   5.418   6.289   5.593 -2.1575  0.2043 -0.3233
   25CHL1   C10 2995   5.433   6.114   5.718  0.2482  0.5441  0.2226
   25CHL1   C19 2996   5.457   5.963   5.708  0.0784 -0.9235  1.0296
   25CHL1  H19A 2997   5.558   5.932   5.673 -0.3366 -0.0970 -1.0527
   25CHL1  H19B 2998   5.467   5.919   5.810 -0.0275 -1.0097  1.0024
   25CHL1  H19C 2999   5.385   5.908   5.644 -0.4156  1.8113 -0.9883
   25CHL1    C1 3000   5.556   6.169   5.794  0.5006 -0.0577  0.5726
   25CHL1   H1A 3001   5.658   6.153   5.754  0.2252  2.2162 -1.2753
   25CHL1   H1B 3002   5.537   6.278   5.778 -3.8932 -0.8932 -1.4666
   25CHL1    C2 3003   5.562   6.142   5.943  0.3465  0.1634  0.3289
   25CHL1   H2A 3004   5.645   6.202   5.987  1.3462  0.1480 -1.4513
   25CHL1   H2B 3005   5.580   6.035   5.967  1.8537  0.4660  0.6463
   25CHL1   C20 3006   5.433   6.213   5.030 -0.0120  0.2753 -0.0777
   25CHL1   H20 3007   5.442   6.102   5.030 -1.0757 -0.0590  5.0878
   25CHL1   C21 3008   5.582   6.263   5.015  0.5394  0.9617 -0.3415
   25CHL1  H21A 3009   5.617   6.231   4.914  1.0422 -0.8650  0.3922
   25CHL1  H21B 3010   5.652   6.212   5.084  1.9516  1.4368 -1.3568
   25CHL1  H21C 3011   5.586   6.373   5.031 -0.3211  1.3191 -2.2146
   25CHL1   C22 3012   5.369   6.239   4.894  1.0171  0.5142 -0.0437
   25CHL1  H22A 3013   5.433   6.190   4.817 -1.5820 -1.7595 -0.9372
   25CHL1  H22B 3014   5.273   6.187   4.875  1.5341  0.0789 -1.6498
   25CHL1   C23 3015   5.332   6.389   4.865  0.7039  0.3817 -0.4206
   25CHL1  H23A 3016   5.272   6.437   4.945 -0.4773 -0.0154 -1.0472
   25CHL1  H23B 3017   5.426   6.448   4.858 -0.9857  3.4970  1.1304
   25CHL1   C24 3018   5.247   6.415   4.734 -0.6735  0.1072  0.3128
   25CHL1  H24A 3019   5.281   6.356   4.646 -1.9777 -0.6604  0.2989
   25CHL1  H24B 3020   5.143   6.387   4.761 -1.4160  1.3717 -1.1186
   25CHL1   C25 3021   5.244   6.570   4.709  0.1708  0.3769 -0.0480
   25CHL1   H25 3022   5.221   6.631   4.799 -4.1884  1.0342 -1.3833
   25CHL1   C26 3023   5.384   6.616   4.641  0.3188  0.2473  0.0060
   25CHL1  H26A 3024   5.401   6.554   4.550  0.2653 -1.1175  0.9051
   25CHL1  H26B 3025   5.376   6.723   4.611 -0.7232 -0.1153 -1.1151
   25CHL1  H26C 3026   5.477   6.608   4.700  0.6069 -0.1383 -0.4981
   25CHL1   C27 3027   5.120   6.601   4.625 -0.3954 -0.1486  0.1361
   25CHL1  H27A 3028   5.128   6.525   4.545 -0.5429 -0.9706  0.8807
   25CHL1  H27B 3029   5.025   6.585   4.681 -0.4577  2.1902  0.8197
   25CHL1  H27C 3030   5.124   6.703   4.580  0.7723  0.6057  1.8164
   26CHL1    C3 3031   3.417   3.343   6.015  0.1631  0.1214 -0.1883
   26CHL1    H3 3032   3.514   3.373   5.972  0.0423  1.1143  0.2001
   26CHL1    O3 3033   3.429   3.327   6.158 -0.0223  0.6024 -0.2430
   26CHL1   H3' 3034   3.407   3.412   6.198 -0.1233  0.0108  1.0310
   26CHL1    C4 3035   3.309   3.452   5.992 -0.8705  0.3839  0.4379
   26CHL1   H4A 3036   3.215   3.430   6.047 -1.2097  0.5157 -0.0870
   26CHL1   H4B 3037   3.343   3.546   6.041 -1.9330  0.2100  1.5408
   26CHL1    C5 3038   3.296   3.475   5.840  0.3145  0.7362 -0.2255
   26CHL1    C6 3039   3.319   3.592   5.786  0.6700  0.4858 -0.4029
   26CHL1    H6 3040   3.354   3.681   5.841 -1.4502  1.6032 -0.7196
   26CHL1    C7 3041   3.287   3.612   5.637 -0.5399  0.0962 -0.3116
   26CHL1   H7A 3042   3.227   3.704   5.621  0.3215  0.7394  0.1014
   26CHL1   H7B 3043   3.378   3.633   5.577 -0.2379 -1.6325 -0.5117
   26CHL1    C8 3044   3.215   3.499   5.574 -0.2501 -0.1935  0.1416
   26CHL1    H8 3045   3.110   3.497   5.610 -0.7104 -0.9922 -1.1401
   26CHL1   C14 3046   3.226   3.519   5.424  0.1545  0.6383  0.4170
   26CHL1   H14 3047   3.334   3.505   5.402 -0.2623 -1.1805 -0.6362
   26CHL1   C15 3048   3.189   3.646   5.355  0.5435  0.0005 -0.1274
   26CHL1  H15A 3049   3.092   3.672   5.402  0.0429 -3.3356  0.9695
   26CHL1  H15B 3050   3.262   3.730   5.363  0.1550  0.3111  0.1752
   26CHL1   C16 3051   3.172   3.605   5.205 -0.7682 -0.5925  0.2329
   26CHL1  H16A 3052   3.071   3.644   5.180  0.0077  1.1699 -0.3493
   26CHL1  H16B 3053   3.251   3.651   5.141 -2.2995  3.2068  0.8165
   26CHL1   C17 3054   3.185   3.453   5.195  0.1881  0.3154  0.0450
   26CHL1   H17 3055   3.291   3.424   5.181  0.3440  0.5072  0.7896
   26CHL1   C13 3056   3.157   3.406   5.341 -0.7957  0.4344 -0.2338
   26CHL1   C18 3057   3.011   3.409   5.364 -0.5345  0.0429  0.4133
   26CHL1  H18A 3058   2.972   3.324   5.303 -0.4016  0.2885 -0.0210
   26CHL1  H18B 3059   2.981   3.385   5.468  2.7791 -2.1447  1.0292
   26CHL1  H18C 3060   2.965   3.502   5.324 -0.4280 -0.3453 -0.6689
   26CHL1   C12 3061   3.212   3.269   5.382  0.1431  0.9504 -0.2930
   26CHL1  H12A 3062   3.161   3.186   5.328 -1.9331  3.1808 -2.0292
   26CHL1  H12B 3063   3.319   3.253   5.358  0.8952  2.4017  1.8206
   26CHL1   C11 3064   3.206   3.245   5.536  0.6089  0.8038  0.4820
   26CHL1  H11A 3065   3.098   3.223   5.550  0.6513  1.2079  1.4697
   26CHL1  H11B 3066   3.259   3.148   5.544 -0.3326  0.1335 -0.9148
   26CHL1    C9 3067   3.267   3.363   5.617 -0.0295 -0.3654  0.4418
   26CHL1    H9 3068   3.375   3.363   5.591  0.0986  0.2185  0.9500
   26CHL1   C10 3069   3.258   3.342   5.770 -0.4678  0.3958  0.1076
   26CHL1   C19 3070   3.116   3.304   5.817 -0.1665 -1.2526  0.5295
   26CHL1  H19A 3071   3.081   3.208   5.773 -1.0838 -0.4862 -0.4651
   26CHL1  H19B 3072   3.101   3.313   5.927  0.9803  2.1011  0.5118
   26CHL1  H19C 3073   3.052   3.382   5.770  1.3295 -0.5349 -0.3987
   26CHL1    C1 3074   3.359   3.228   5.810 -0.0048 -0.0461 -0.3004
   26CHL1   H1A 3075   3.327   3.128   5.774  1.2827 -0.8550  0.7287
   26CHL1   H1B 3076   3.457   3.255   5.766  0.8516  0.2155  1.6494
   26CHL1    C2 3077   3.373   3.206   5.964 -0.0547 -0.2906  0.1839
   26CHL1   H2A 3078   3.446   3.127   5.994  1.6285  1.5745  1.2988
   26CHL1   H2B 3079   3.276   3.197   6.017  0.4174  0.1095  1.1594
   26CHL1   C20 3080   3.105   3.398   5.078  0.2858  1.2824 -0.9774
   26CHL1   H20 3081   2.996   3.399   5.100  0.4989  0.7092  0.1812
   26CHL1   C21 3082   3.149   3.245   5.060  0.1581 -0.5560  0.0593
   26CHL1  H21A 3083   3.112   3.182   5.144  0.9419 -0.8859  0.1664
   26CHL1  H21B 3084   3.259   3.240   5.046  0.3440 -1.4452  1.6033
   26CHL1  H21C 3085   3.109   3.207   4.964  0.7858 -1.2291  0.0516
   26CHL1   C22 3086   3.116   3.477   4.948 -0.4914 -0.2843 -0.6108
   26CHL1  H22A 3087   3.056   3.570   4.961 -1.2290 -0.8752  0.3768
   26CHL1  H22B 3088   3.220   3.514   4.941  0.6605 -2.4972  2.6647
   26CHL1   C23 3089   3.084   3.402   4.812  0.0497 -0.0050 -0.2600
   26CHL1  H23A 3090   3.155   3.320   4.785  2.4098  1.6859  0.4474
   26CHL1  H23B 3091   2.989   3.348   4.830  1.7844 -3.0594  0.5262
   26CHL1   C24 3092   3.067   3.508   4.696  0.0189  0.5484 -0.0859
   26CHL1  H24A 3093   2.979   3.572   4.720  0.1233  1.9379 -2.9510
   26CHL1  H24B 3094   3.160   3.569   4.696 -0.3451  1.1126 -0.6382
   26CHL1   C25 3095   3.041   3.450   4.551 -0.3015  0.4665 -0.5001
   26CHL1   H25 3096   3.125   3.379   4.538  0.2171  0.7302  1.1327
   26CHL1   C26 3097   2.910   3.371   4.552 -0.3902 -0.6474 -0.1540
   26CHL1  H26A 3098   2.828   3.446   4.554 -2.4781 -2.7882 -0.8144
   26CHL1  H26B 3099   2.900   3.302   4.466  1.4157 -1.2090  0.0531
   26CHL1  H26C 3100   2.896   3.304   4.640  0.8988 -0.7715 -0.0203
   26CHL1   C27 3101   3.039   3.547   4.442 -0.2681  0.0885 -0.1053
   26CHL1  H27A 3102   2.956   3.620   4.455 -0.1254  0.0557  1.0595
   26CHL1  H27B 3103   3.136   3.600   4.440 -0.2428  0.1010 -2.8697
   26CHL1  H27C 3104   3.021   3.495   4.345 -0.7271 -1.1212  0.6046
   27CHL1    C3 3105   6.703   2.604   6.043  0.0493  0.4442 -1.0184
   27CHL1    H3 3106   6.670   2.508   5.997  2.7347 -1.8012  1.3143
   27CHL1    O3 3107   6.694   2.604   6.191 -0.4623 -0.3604  0.1585
   27CHL1   H3' 3108   6.714   2.698   6.199  0.3497 -0.1814 -2.8717
   27CHL1    C4 3109   6.852   2.602   6.002  0.3604  1.0580 -1.0594
   27CHL1   H4A 3110   6.902   2.687   6.053 -2.2315  2.3347 -0.4788
   27CHL1   H4B 3111   6.909   2.518   6.046 -1.3629 -0.2539 -1.2245
   27CHL1    C5 3112   6.864   2.611   5.855  0.0864  0.3921  0.6333
   27CHL1    C6 3113   6.926   2.514   5.783 -0.4605  0.0579  0.4218
   27CHL1    H6 3114   6.974   2.431   5.838 -1.1674 -0.2656  0.5730
   27CHL1    C7 3115   6.951   2.510   5.635 -0.1818  0.0959 -0.9082
   27CHL1   H7A 3116   7.059   2.488   5.629  0.2019  0.4970  2.4943
   27CHL1   H7B 3117   6.884   2.426   5.606  0.7776 -1.4248  1.0043
   27CHL1    C8 3118   6.918   2.647   5.564 -0.2272  0.1257 -0.3202
   27CHL1    H8 3119   7.010   2.707   5.579  0.9625 -1.7133  0.0540
   27CHL1   C14 3120   6.904   2.629   5.412  1.2108  0.6131  0.2255
   27CHL1   H14 3121   6.810   2.571   5.406  2.4835 -1.4672 -0.6534
   27CHL1   C15 3122   7.015   2.556   5.323  0.3878  0.2742  0.2014
   27CHL1  H15A 3123   7.118   2.586   5.352  1.0885 -1.3942 -0.4749
   27CHL1  H15B 3124   7.001   2.447   5.332 -2.2446  0.5950  0.9503
   27CHL1   C16 3125   6.983   2.604   5.172  0.1110 -0.6545 -0.2408
   27CHL1  H16A 3126   7.075   2.652   5.133  0.5956 -0.6547  0.8758
   27CHL1  H16B 3127   6.935   2.528   5.107 -2.3380 -0.2574  0.9707
   27CHL1   C17 3128   6.879   2.717   5.186 -0.1037 -0.4118  0.5168
   27CHL1   H17 3129   6.781   2.667   5.167  0.2532 -1.1240  0.4978
   27CHL1   C13 3130   6.872   2.758   5.339  0.3540 -0.2747 -0.6055
   27CHL1   C18 3131   6.986   2.863   5.356 -0.1644  0.7125 -0.3696
   27CHL1  H18A 3132   7.003   2.876   5.465 -0.5367 -0.9117 -0.0875
   27CHL1  H18B 3133   7.080   2.827   5.309  0.7760  2.3661  0.1834
   27CHL1  H18C 3134   6.957   2.962   5.316  0.9574  1.5892  0.9236
   27CHL1   C12 3135   6.746   2.818   5.393 -0.1183  0.2824 -0.0463
   27CHL1  H12A 3136   6.712   2.906   5.334 -1.3089 -0.7914 -1.0303
   27CHL1  H12B 3137   6.660   2.753   5.365 -0.1622  0.4180 -0.2322
   27CHL1   C11 3138   6.755   2.843   5.548 -0.0845 -0.0982  0.2454
   27CHL1  H11A 3139   6.820   2.930   5.567 -2.2697  1.8088 -0.4748
   27CHL1  H11B 3140   6.656   2.875   5.587  0.4203 -1.4009  2.7836
   27CHL1    C9 3141   6.790   2.711   5.626 -0.6365 -0.2051 -0.9981
   27CHL1    H9 3142   6.708   2.638   5.611 -0.5738 -1.2400  2.7021
   27CHL1   C10 3143   6.792   2.727   5.785 -0.4722  0.1205  0.4949
   27CHL1   C19 3144   6.855   2.867   5.816  0.8293  0.3217 -0.4181
   27CHL1  H19A 3145   6.801   2.956   5.778  0.4763  0.7698  1.0611
   27CHL1  H19B 3146   6.846   2.881   5.926 -1.8402  0.4642 -0.5912
   27CHL1  H19C 3147   6.960   2.877   5.781  1.1575  0.8835  0.6813
   27CHL1    C1 3148   6.646   2.718   5.828 -0.6731 -0.5535  0.4527
   27CHL1   H1A 3149   6.581   2.802   5.796 -0.5598  0.1999  2.1207
   27CHL1   H1B 3150   6.601   2.624   5.790  1.4941 -1.1845 -0.7257
   27CHL1    C2 3151   6.635   2.728   5.983 -0.1349 -0.0307  0.4272
   27CHL1   H2A 3152   6.528   2.710   6.006 -0.3018 -0.3955 -0.5817
   27CHL1   H2B 3153   6.668   2.824   6.029 -0.1614  0.0467  0.2870
   27CHL1   C20 3154   6.896   2.822   5.075  0.2335 -0.1994 -0.7320
   27CHL1   H20 3155   6.995   2.870   5.084  0.0096  0.1947 -0.3286
   27CHL1   C21 3156   6.784   2.934   5.086 -0.3664 -0.1491  0.2432
   27CHL1  H21A 3157   6.688   2.887   5.116  0.0978  0.3227  2.7162
   27CHL1  H21B 3158   6.769   2.979   4.985  0.1956 -2.1976 -0.8089
   27CHL1  H21C 3159   6.819   3.017   5.152 -1.1703 -0.0569  0.5755
   27CHL1   C22 3160   6.891   2.777   4.927 -0.3495  0.7276 -0.1335
   27CHL1  H22A 3161   6.890   2.866   4.862  1.8465 -0.1512 -1.4672
   27CHL1  H22B 3162   6.983   2.723   4.896 -0.4573  0.2127  0.4139
   27CHL1   C23 3163   6.782   2.683   4.891  0.4707  0.6962  0.3249
   27CHL1  H23A 3164   6.787   2.595   4.958 -1.3928 -0.2297 -0.6773
   27CHL1  H23B 3165   6.685   2.726   4.924  0.6172  1.1778  0.1337
   27CHL1   C24 3166   6.775   2.633   4.749  0.3046  0.7506 -0.3364
   27CHL1  H24A 3167   6.870   2.579   4.731  0.9111  1.9652 -0.8659
   27CHL1  H24B 3168   6.703   2.549   4.738  1.3744 -0.3340  0.6757
   27CHL1   C25 3169   6.770   2.735   4.637  0.2708  0.6502 -0.3148
   27CHL1   H25 3170   6.859   2.801   4.646 -0.0661  1.1981 -0.9005
   27CHL1   C26 3171   6.792   2.664   4.504  0.6280  1.1029  0.0476
   27CHL1  H26A 3172   6.886   2.605   4.499 -0.0665 -0.0449 -0.0098
   27CHL1  H26B 3173   6.699   2.604   4.491  0.4884  1.6958 -1.9570
   27CHL1  H26C 3174   6.789   2.733   4.417  1.6780  1.1838  0.0609
   27CHL1   C27 3175   6.645   2.823   4.648  0.5713  0.3534 -0.3772
   27CHL1  H27A 3176   6.555   2.767   4.615 -0.0162  1.4878 -0.7742
   27CHL1  H27B 3177   6.669   2.913   4.588 -2.4342  1.2883 -0.3671
   27CHL1  H27C 3178   6.630   2.864   4.750 -1.1915  0.1858 -0.5300
   28CHL1    C3 3179   4.902   2.559   6.128 -0.6350  0.7041  1.2043
   28CHL1    H3 3180   4.821   2.624   6.088 -2.2533 -1.7622  0.2674
   28CHL1    O3 3181   4.939   2.609   6.254  0.2896 -0.5741 -0.5254
   28CHL1   H3' 3182   4.994   2.548   6.305  0.9811  1.6299  1.5294
   28CHL1    C4 3183   4.841   2.415   6.127  0.2084  0.7081 -0.4035
   28CHL1   H4A 3184   4.919   2.347   6.166  0.9553  0.6176 -1.9611
   28CHL1   H4B 3185   4.759   2.402   6.201  1.0752  1.3016  0.6800
   28CHL1    C5 3186   4.811   2.363   5.982 -0.7745 -0.1539 -0.2862
   28CHL1    C6 3187   4.687   2.321   5.948  0.5972 -0.5382 -0.1726
   28CHL1    H6 3188   4.604   2.300   6.017  1.6861 -0.0223  1.3522
   28CHL1    C7 3189   4.664   2.251   5.820 -0.6210 -0.3591  0.3652
   28CHL1   H7A 3190   4.612   2.154   5.836  1.3357 -1.4666  0.2811
   28CHL1   H7B 3191   4.592   2.318   5.767 -0.5327  1.0027  1.8827
   28CHL1    C8 3192   4.790   2.229   5.720  0.1752 -0.3636 -0.5493
   28CHL1    H8 3193   4.843   2.145   5.770 -0.5344 -1.3437 -1.4197
   28CHL1   C14 3194   4.735   2.210   5.585  0.3586 -0.3466 -0.2134
   28CHL1   H14 3195   4.675   2.300   5.562  1.3673  0.3879 -0.0562
   28CHL1   C15 3196   4.637   2.093   5.554 -0.2032 -0.1428  0.4545
   28CHL1  H15A 3197   4.683   2.002   5.598  2.4895  1.4331  1.1362
   28CHL1  H15B 3198   4.535   2.114   5.593  0.1720  0.7252  0.9881
   28CHL1   C16 3199   4.633   2.085   5.403 -0.4996  0.2180  0.0421
   28CHL1  H16A 3200   4.648   1.980   5.371 -1.4101  1.1142 -3.8015
   28CHL1  H16B 3201   4.539   2.123   5.358 -0.6324  0.7821  0.7766
   28CHL1   C17 3202   4.746   2.183   5.348  0.5834 -0.3712  0.4052
   28CHL1   H17 3203   4.703   2.280   5.314  1.0805 -1.0218 -2.3255
   28CHL1   C13 3204   4.837   2.211   5.476 -0.5224  0.2060  0.0035
   28CHL1   C18 3205   4.938   2.088   5.493  0.3354  0.4311 -0.5259
   28CHL1  H18A 3206   4.891   1.989   5.476  0.8898 -0.4664  2.4669
   28CHL1  H18B 3207   5.025   2.105   5.426 -0.1268  0.1932 -1.1972
   28CHL1  H18C 3208   4.982   2.088   5.595  1.2349  0.5929 -0.9080
   28CHL1   C12 3209   4.923   2.339   5.485  0.6121  0.8081  0.0485
   28CHL1  H12A 3210   5.007   2.343   5.413  0.0196  2.2854 -0.6069
   28CHL1  H12B 3211   4.862   2.428   5.457 -2.0689 -1.0692 -0.4638
   28CHL1   C11 3212   4.977   2.367   5.628 -0.8083  0.8553 -0.4721
   28CHL1  H11A 3213   5.054   2.290   5.649 -0.7704  0.8333 -0.6970
   28CHL1  H11B 3214   5.031   2.465   5.626  0.5292  0.1622  0.2911
   28CHL1    C9 3215   4.869   2.356   5.736 -0.6450  0.1896  0.2270
   28CHL1    H9 3216   4.797   2.438   5.716 -1.3097  0.1986  2.4362
   28CHL1   C10 3217   4.920   2.390   5.876 -0.2112  0.6894 -0.1002
   28CHL1   C19 3218   5.029   2.280   5.917 -0.7729 -0.5457 -0.2147
   28CHL1  H19A 3219   5.054   2.289   6.025 -2.9561  2.4390  0.1475
   28CHL1  H19B 3220   4.982   2.179   5.910 -1.1492 -0.4344  0.5995
   28CHL1  H19C 3221   5.125   2.281   5.860 -1.2438  2.5084 -1.1132
   28CHL1    C1 3222   4.980   2.531   5.886  0.2334  0.3771  0.3524
   28CHL1   H1A 3223   5.070   2.536   5.822  0.0583  3.2063  0.1663
   28CHL1   H1B 3224   4.908   2.599   5.835 -1.1449 -1.3113 -0.0508
   28CHL1    C2 3225   5.024   2.567   6.030 -0.3740  1.0226  0.5111
   28CHL1   H2A 3226   5.080   2.663   6.028 -0.1247  0.8871  0.9820
   28CHL1   H2B 3227   5.096   2.493   6.070 -0.2141  0.7236 -0.3094
   28CHL1   C20 3228   4.820   2.140   5.221 -0.7293 -0.3287 -0.1395
   28CHL1   H20 3229   4.889   2.056   5.241 -0.2064 -0.0158 -0.6131
   28CHL1   C21 3230   4.918   2.250   5.175 -0.2249 -0.5658  0.0716
   28CHL1  H21A 3231   4.868   2.348   5.158  0.0422 -0.1180  1.6636
   28CHL1  H21B 3232   4.959   2.210   5.080 -0.6011  0.5131 -0.5666
   28CHL1  H21C 3233   5.010   2.254   5.237 -0.0435  1.8271 -0.2661
   28CHL1   C22 3234   4.713   2.106   5.112  0.6437 -0.1623 -0.5835
   28CHL1  H22A 3235   4.650   2.020   5.145 -0.7721  1.2044  0.4674
   28CHL1  H22B 3236   4.643   2.191   5.098 -1.6490 -1.8925 -0.3186
   28CHL1   C23 3237   4.773   2.054   4.978 -0.2477  0.4494 -0.1587
   28CHL1  H23A 3238   4.802   2.139   4.912  1.3983  0.4154  0.4790
   28CHL1  H23B 3239   4.861   1.988   4.995 -2.9127 -3.2793  0.3739
   28CHL1   C24 3240   4.682   1.984   4.881  0.3419  0.3010 -0.8329
   28CHL1  H24A 3241   4.644   1.887   4.921 -1.2424  0.7087 -1.2558
   28CHL1  H24B 3242   4.589   2.038   4.852 -0.8982 -1.8997 -1.2373
   28CHL1   C25 3243   4.755   1.947   4.754 -0.4664  0.8053  0.1742
   28CHL1   H25 3244   4.836   1.875   4.782 -2.5708 -3.1630 -2.8194
   28CHL1   C26 3245   4.653   1.865   4.675  0.4312  0.5081  0.0270
   28CHL1  H26A 3246   4.620   1.778   4.735 -0.7862  0.2381 -1.0011
   28CHL1  H26B 3247   4.568   1.933   4.652  0.5239  0.3942 -0.6907
   28CHL1  H26C 3248   4.685   1.833   4.573 -0.5728 -0.3024 -0.0436
   28CHL1   C27 3249   4.806   2.063   4.666  0.7099  0.1521 -0.5879
   28CHL1  H27A 3250   4.889   2.128   4.702  0.0832  1.1476 -0.9067
   28CHL1  H27B 3251   4.833   2.032   4.563  1.9682  0.1123 -0.2623
   28CHL1  H27C 3252   4.722   2.134   4.651 -0.6369 -1.5964 -1.6279
   29CHL1    C3 3253   1.971   4.353   6.657  0.4180 -1.3820 -0.0928
   29CHL1    H3 3254   1.912   4.270   6.612  1.6184 -1.3991 -1.7575
   29CHL1    O3 3255   1.944   4.357   6.795  0.5779 -0.7167  0.3797
   29CHL1   H3' 3256   1.880   4.428   6.805 -0.0034 -0.4474 -3.7006
   29CHL1    C4 3257   2.120   4.326   6.633 -0.3106  0.2463 -0.1414
   29CHL1   H4A 3258   2.184   4.398   6.689  0.6196  0.4301 -1.4058
   29CHL1   H4B 3259   2.140   4.232   6.689 -0.9079 -0.1580 -0.6057
   29CHL1    C5 3260   2.169   4.334   6.488  0.5770 -0.1501 -1.0660
   29CHL1    C6 3261   2.239   4.231   6.433  0.6419 -0.4600 -0.2199
   29CHL1    H6 3262   2.266   4.136   6.481  0.5016  0.0441  0.8768
   29CHL1    C7 3263   2.296   4.243   6.295  0.2946 -0.0919 -0.4915
   29CHL1   H7A 3264   2.399   4.203   6.285  0.0549 -0.7597 -0.3623
   29CHL1   H7B 3265   2.237   4.177   6.227  1.9638 -0.7515 -1.3696
   29CHL1    C8 3266   2.287   4.387   6.242 -0.0313  0.2736 -0.3491
   29CHL1    H8 3267   2.368   4.455   6.274  0.2608  1.7850 -3.8105
   29CHL1   C14 3268   2.302   4.377   6.089 -0.2235  1.1132 -0.4424
   29CHL1   H14 3269   2.223   4.305   6.060 -0.0347  0.3570  0.8569
   29CHL1   C15 3270   2.418   4.298   6.020  0.7908 -0.6592 -0.2588
   29CHL1  H15A 3271   2.508   4.339   6.069 -0.1355  2.2596 -0.8039
   29CHL1  H15B 3272   2.412   4.187   6.025 -1.5507 -0.5456  1.2663
   29CHL1   C16 3273   2.420   4.359   5.874  0.0404  0.0475 -0.2663
   29CHL1  H16A 3274   2.520   4.405   5.855  0.8870 -1.0660  1.2493
   29CHL1  H16B 3275   2.409   4.276   5.801  1.2154  0.4102 -0.8932
   29CHL1   C17 3276   2.310   4.467   5.866 -0.3584  0.2126  0.1264
   29CHL1   H17 3277   2.227   4.407   5.822 -1.9582  2.6137 -0.2865
   29CHL1   C13 3278   2.281   4.507   6.012  0.1457 -0.2028  0.7716
   29CHL1   C18 3279   2.385   4.611   6.055 -0.1340  0.0154  0.4959
   29CHL1  H18A 3280   2.373   4.636   6.162 -2.1059  0.2620  0.2638
   29CHL1  H18B 3281   2.488   4.572   6.039  0.3517  1.9647 -1.7085
   29CHL1  H18C 3282   2.375   4.712   6.011  0.7071 -0.2045 -0.2167
   29CHL1   C12 3283   2.135   4.559   6.038 -0.7744  0.2872 -0.1824
   29CHL1  H12A 3284   2.133   4.666   6.007 -2.5951  0.7972  1.4917
   29CHL1  H12B 3285   2.069   4.497   5.975 -0.2923 -0.9198  0.4692
   29CHL1   C11 3286   2.098   4.567   6.183 -0.2675 -0.0238  0.0897
   29CHL1  H11A 3287   2.148   4.658   6.225  0.4217  0.1325 -1.0289
   29CHL1  H11B 3288   1.987   4.569   6.191 -0.1961 -0.3265  1.5465
   29CHL1    C9 3289   2.144   4.446   6.271 -0.6297  0.8601 -0.3815
   29CHL1    H9 3290   2.077   4.360   6.250  1.9069 -1.5079  0.7179
   29CHL1   C10 3291   2.121   4.464   6.426 -1.0579 -0.8522  0.1345
   29CHL1   C19 3292   2.210   4.581   6.480  0.6506  0.3736 -0.5257
   29CHL1  H19A 3293   2.317   4.555   6.465  1.2312  3.1043 -1.8813
   29CHL1  H19B 3294   2.173   4.678   6.437 -0.8201 -1.1878 -3.0672
   29CHL1  H19C 3295   2.196   4.586   6.590 -0.6703 -0.2359 -0.6424
   29CHL1    C1 3296   1.976   4.493   6.447  0.1019  0.2743 -0.2415
   29CHL1   H1A 3297   1.960   4.597   6.410 -0.4240 -0.2118 -1.4151
   29CHL1   H1B 3298   1.910   4.430   6.385 -0.0451 -1.7460  1.8350
   29CHL1    C2 3299   1.926   4.480   6.595  0.2720 -0.2300  0.8139
   29CHL1   H2A 3300   1.816   4.488   6.596  0.1753 -1.2421  2.4620
   29CHL1   H2B 3301   1.960   4.571   6.650  0.0514  0.3444  0.0077
   29CHL1   C20 3302   2.348   4.573   5.760  0.1856 -0.0729  0.1672
   29CHL1   H20 3303   2.431   4.635   5.800 -0.6773  1.6251 -0.6073
   29CHL1   C21 3304   2.222   4.661   5.744 -0.1706  0.4210  0.3144
   29CHL1  H21A 3305   2.211   4.725   5.834 -1.3933  1.1875 -0.3486
   29CHL1  H21B 3306   2.128   4.603   5.731  1.1701 -1.9256  0.3784
   29CHL1  H21C 3307   2.224   4.734   5.660  0.8959  0.7634  0.6207
   29CHL1   C22 3308   2.390   4.516   5.628  0.2523  0.1643 -0.5404
   29CHL1  H22A 3309   2.490   4.471   5.646 -0.9003 -2.6641 -0.6165
   29CHL1  H22B 3310   2.324   4.428   5.611 -0.6489  0.6365  0.4630
   29CHL1   C23 3311   2.400   4.598   5.498 -0.5124  0.5481  0.2788
   29CHL1  H23A 3312   2.300   4.640   5.472 -0.6816 -0.8229 -1.5125
   29CHL1  H23B 3313   2.469   4.681   5.521 -0.5868  0.9623 -0.9345
   29CHL1   C24 3314   2.473   4.519   5.390 -0.3972  0.0156 -0.4136
   29CHL1  H24A 3315   2.577   4.503   5.426  1.1024  1.7610 -3.5909
   29CHL1  H24B 3316   2.435   4.415   5.373 -1.0373  0.0603  0.6342
   29CHL1   C25 3317   2.478   4.581   5.248 -0.2515 -0.5148 -0.1364
   29CHL1   H25 3318   2.372   4.593   5.218 -0.8509 -1.1044  1.6301
   29CHL1   C26 3319   2.536   4.720   5.270  0.2972 -0.3903 -0.2047
   29CHL1  H26A 3320   2.559   4.763   5.170 -2.2525 -2.6170 -1.8780
   29CHL1  H26B 3321   2.475   4.796   5.325  1.1993  1.0935 -1.1618
   29CHL1  H26C 3322   2.631   4.716   5.326 -0.2176 -0.3573  0.7012
   29CHL1   C27 3323   2.563   4.501   5.144 -0.6380 -0.5060  0.1381
   29CHL1  H27A 3324   2.522   4.401   5.120  0.4771 -1.2134  1.0924
   29CHL1  H27B 3325   2.572   4.552   5.045 -1.5430 -2.9264 -1.2649
   29CHL1  H27C 3326   2.664   4.502   5.190 -1.4600 -2.2929  2.1615
   30CHL1    C3 3327   2.481   3.579   6.148  0.4710 -0.4680  0.3133
   30CHL1    H3 3328   2.590   3.600   6.139  0.3367 -0.6664 -2.7364
   30CHL1    O3 3329   2.464   3.529   6.277 -0.0393  0.5116  0.0318
   30CHL1   H3' 3330   2.373   3.497   6.277 -0.4272  1.5708 -0.1072
   30CHL1    C4 3331   2.400   3.708   6.141  0.2765  0.3780  0.4424
   30CHL1   H4A 3332   2.298   3.700   6.182  0.1080 -1.2352 -0.2010
   30CHL1   H4B 3333   2.430   3.781   6.219 -1.2461 -0.2987  1.7026
   30CHL1    C5 3334   2.410   3.767   5.998  0.5842 -0.1043 -0.4837
   30CHL1    C6 3335   2.471   3.882   5.978 -0.1381 -0.3479  0.0566
   30CHL1    H6 3336   2.506   3.942   6.063 -1.1176 -0.6602  0.6960
   30CHL1    C7 3337   2.479   3.944   5.845 -0.9704 -0.6954  0.2420
   30CHL1   H7A 3338   2.463   4.053   5.848  1.6318 -0.2331 -0.0710
   30CHL1   H7B 3339   2.583   3.930   5.806 -0.5445  1.7389  0.3507
   30CHL1    C8 3340   2.392   3.882   5.736 -0.4759 -0.3386  0.0624
   30CHL1    H8 3341   2.290   3.913   5.767 -0.6842  0.2741 -1.1728
   30CHL1   C14 3342   2.444   3.925   5.595  0.4785 -0.2046  0.5146
   30CHL1   H14 3343   2.548   3.886   5.599  0.5746  0.1189  1.8455
   30CHL1   C15 3344   2.452   4.076   5.561 -0.1076 -0.9354  0.0415
   30CHL1  H15A 3345   2.374   4.139   5.609  0.1563 -0.8382  0.3421
   30CHL1  H15B 3346   2.547   4.122   5.596 -0.5921 -0.3321  0.5872
   30CHL1   C16 3347   2.449   4.074   5.403  0.4630  0.0613  0.3552
   30CHL1  H16A 3348   2.357   4.131   5.377  0.6683  1.6534  2.8263
   30CHL1  H16B 3349   2.535   4.129   5.360  0.7201 -0.6858 -0.1115
   30CHL1   C17 3350   2.436   3.928   5.360 -0.1940 -0.1306  0.7573
   30CHL1   H17 3351   2.537   3.885   5.347 -0.5423 -0.7658  0.0746
   30CHL1   C13 3352   2.376   3.855   5.480  0.4914  0.5661  0.2485
   30CHL1   C18 3353   2.222   3.894   5.483  0.1776  0.0347 -0.2240
   30CHL1  H18A 3354   2.162   3.831   5.415  0.2832  1.6729 -1.9308
   30CHL1  H18B 3355   2.182   3.876   5.585 -1.0090  1.5558 -0.3773
   30CHL1  H18C 3356   2.216   4.002   5.456  0.5097  0.5978  1.7802
   30CHL1   C12 3357   2.395   3.704   5.495  0.0449  0.0184 -0.1800
   30CHL1  H12A 3358   2.333   3.644   5.424 -0.2221 -1.3493  1.1592
   30CHL1  H12B 3359   2.502   3.680   5.474 -0.5038 -1.8998 -1.0289
   30CHL1   C11 3360   2.342   3.648   5.628 -0.0578 -0.8839  0.2210
   30CHL1  H11A 3361   2.233   3.671   5.629  0.2130  0.6812 -1.1147
   30CHL1  H11B 3362   2.341   3.537   5.637  2.2420 -0.9001  0.8367
   30CHL1    C9 3363   2.410   3.725   5.750 -0.3299  0.1896 -0.1951
   30CHL1    H9 3364   2.521   3.719   5.759 -0.2192  2.1237  0.1620
   30CHL1   C10 3365   2.368   3.672   5.890  0.0586 -0.4770 -0.5480
   30CHL1   C19 3366   2.220   3.648   5.896 -0.4079 -0.1741 -0.6995
   30CHL1  H19A 3367   2.166   3.737   5.858  0.4417  0.2860 -0.8679
   30CHL1  H19B 3368   2.199   3.564   5.826 -0.4125 -2.3584  1.7725
   30CHL1  H19C 3369   2.190   3.633   6.001  3.2957 -2.0873  0.2807
   30CHL1    C1 3370   2.441   3.537   5.905  0.6627  0.2325  0.1995
   30CHL1   H1A 3371   2.412   3.458   5.832  1.2340  1.8357 -1.8702
   30CHL1   H1B 3372   2.551   3.549   5.893  0.6857 -1.1178 -1.3645
   30CHL1    C2 3373   2.425   3.482   6.048  0.4603  0.9033  0.0759
   30CHL1   H2A 3374   2.482   3.389   6.068 -0.1197  1.2111  3.8067
   30CHL1   H2B 3375   2.321   3.448   6.066  1.5913 -2.5400  0.8467
   30CHL1   C20 3376   2.387   3.910   5.211 -0.1606  0.6421  0.1762
   30CHL1   H20 3377   2.281   3.942   5.215 -1.2036 -2.5226  3.2857
   30CHL1   C21 3378   2.388   3.766   5.166  0.1179 -0.1233  0.4058
   30CHL1  H21A 3379   2.307   3.714   5.222 -2.1311  3.0616  0.4228
   30CHL1  H21B 3380   2.484   3.713   5.182  0.7584  1.0531  0.5797
   30CHL1  H21C 3381   2.351   3.769   5.061 -0.5799  2.1694  0.6503
   30CHL1   C22 3382   2.477   3.991   5.105  0.6100  0.3135  0.0154
   30CHL1  H22A 3383   2.502   4.096   5.131  3.0091  0.1045 -1.2158
   30CHL1  H22B 3384   2.575   3.941   5.090  0.8485  1.0774 -1.0171
   30CHL1   C23 3385   2.411   3.990   4.964  0.0605 -0.4910 -0.2170
   30CHL1  H23A 3386   2.424   3.886   4.927  2.4038 -1.7806  3.5994
   30CHL1  H23B 3387   2.305   4.022   4.963 -0.3226 -1.7166 -1.1708
   30CHL1   C24 3388   2.488   4.072   4.860 -0.7117 -0.0677  0.4422
   30CHL1  H24A 3389   2.471   4.179   4.886 -0.8077 -0.2514  1.1641
   30CHL1  H24B 3390   2.594   4.046   4.880 -1.0451 -0.5661  1.6586
   30CHL1   C25 3391   2.463   4.050   4.710  0.3418 -1.1524 -0.6566
   30CHL1   H25 3392   2.480   3.941   4.698  1.6539 -1.1898  1.1838
   30CHL1   C26 3393   2.315   4.081   4.674 -0.7234  0.0268 -0.0623
   30CHL1  H26A 3394   2.236   4.040   4.742 -0.8688 -1.4203 -1.0497
   30CHL1  H26B 3395   2.303   4.191   4.683  0.5669  0.2809 -1.1916
   30CHL1  H26C 3396   2.298   4.036   4.574 -0.6093 -4.5522  1.7357
   30CHL1   C27 3397   2.565   4.132   4.624  0.5013 -0.3965  0.6930
   30CHL1  H27A 3398   2.579   4.102   4.518  1.2877  1.8016  0.1242
   30CHL1  H27B 3399   2.544   4.241   4.626  1.3678 -0.2216  0.5228
   30CHL1  H27C 3400   2.661   4.105   4.672 -0.0137 -2.4389  0.6673
   31CHL1    C3 3401   1.839   4.066   6.360  0.3206 -0.3509 -0.1509
   31CHL1    H3 3402   1.889   4.162   6.388  0.5576 -0.4604 -0.1969
   31CHL1    O3 3403   1.799   3.998   6.476 -0.0404  0.0903 -0.2505
   31CHL1   H3' 3404   1.719   4.037   6.512 -1.1445 -1.8149 -0.4948
   31CHL1    C4 3405   1.720   4.098   6.270 -0.1289 -0.7201  0.7046
   31CHL1   H4A 3406   1.664   4.004   6.251 -1.8569  0.1817  1.1327
   31CHL1   H4B 3407   1.648   4.164   6.324 -2.1324 -0.3349 -2.2220
   31CHL1    C5 3408   1.764   4.171   6.139 -0.7439  0.9559 -0.3761
   31CHL1    C6 3409   1.721   4.299   6.116  0.4035 -0.3070 -0.0747
   31CHL1    H6 3410   1.654   4.348   6.188  2.0887 -0.6360  1.8174
   31CHL1    C7 3411   1.752   4.363   5.988  0.1926 -0.6037  0.4035
   31CHL1   H7A 3412   1.661   4.417   5.956  1.7155  2.1354  0.3758
   31CHL1   H7B 3413   1.831   4.441   5.999  0.3872 -0.5049 -1.4568
   31CHL1    C8 3414   1.806   4.265   5.875 -0.3044 -0.3781  0.6084
   31CHL1    H8 3415   1.725   4.201   5.835  0.0354 -1.2943  1.3477
   31CHL1   C14 3416   1.867   4.351   5.769  0.7920 -0.0159  0.0165
   31CHL1   H14 3417   1.963   4.384   5.813  0.2526  0.7416  0.6404
   31CHL1   C15 3418   1.784   4.463   5.710  0.1153  0.5403 -0.0382
   31CHL1  H15A 3419   1.678   4.431   5.701  0.3022 -0.2727  0.5117
   31CHL1  H15B 3420   1.776   4.561   5.763 -0.8283 -0.4768  1.8216
   31CHL1   C16 3421   1.843   4.484   5.572 -0.0545 -0.4214  0.5525
   31CHL1  H16A 3422   1.765   4.477   5.494  1.1423  3.0638 -1.1850
   31CHL1  H16B 3423   1.885   4.586   5.555 -2.0381  0.2476 -0.6235
   31CHL1   C17 3424   1.945   4.376   5.539  0.1700 -0.3392 -0.1286
   31CHL1   H17 3425   2.038   4.425   5.577 -1.7443  1.0173  3.3327
   31CHL1   C13 3426   1.912   4.269   5.643  0.8630 -0.3772 -0.8519
   31CHL1   C18 3427   1.798   4.186   5.583 -0.7095 -0.2868 -0.3669
   31CHL1  H18A 3428   1.712   4.252   5.561 -0.9191  0.7812  3.0044
   31CHL1  H18B 3429   1.843   4.147   5.489  2.9216  2.2382  0.1333
   31CHL1  H18C 3430   1.767   4.100   5.648 -1.3230  0.1979 -0.0087
   31CHL1   C12 3431   2.032   4.184   5.691  0.1911 -0.4677  0.3552
   31CHL1  H12A 3432   2.082   4.124   5.611 -1.3076 -0.4647 -0.6172
   31CHL1  H12B 3433   2.111   4.254   5.724 -0.6132  0.5184  0.2313
   31CHL1   C11 3434   1.998   4.100   5.821  0.2670  0.1750  0.2157
   31CHL1  H11A 3435   1.916   4.032   5.789  1.3387 -0.9088 -0.3158
   31CHL1  H11B 3436   2.081   4.042   5.867  0.4071 -1.0376 -1.4423
   31CHL1    C9 3437   1.914   4.176   5.928 -0.1136  0.3007 -0.1709
   31CHL1    H9 3438   1.982   4.253   5.969  1.4014 -0.4352 -1.1740
   31CHL1   C10 3439   1.863   4.093   6.052 -0.1262  0.2380 -0.5171
   31CHL1   C19 3440   1.792   3.961   6.009 -0.3591  0.1735  0.8757
   31CHL1  H19A 3441   1.721   3.979   5.926  1.2004  0.5933 -0.4296
   31CHL1  H19B 3442   1.866   3.887   5.970 -0.1386  0.4198  0.8205
   31CHL1  H19C 3443   1.741   3.908   6.092 -0.8440  0.2245  0.6121
   31CHL1    C1 3444   1.988   4.043   6.138  0.1740 -0.0543 -0.1453
   31CHL1   H1A 3445   2.048   3.969   6.082 -0.4263  0.6541 -1.7803
   31CHL1   H1B 3446   2.043   4.136   6.166 -2.3747  2.2906 -2.2503
   31CHL1    C2 3447   1.943   3.975   6.276 -0.4644  0.0882  0.0133
   31CHL1   H2A 3448   2.029   3.968   6.345 -2.0337  2.3762  2.3630
   31CHL1   H2B 3449   1.903   3.874   6.249 -0.3805  0.4598 -1.6470
   31CHL1   C20 3450   1.958   4.345   5.390 -0.3141 -0.2209 -0.2200
   31CHL1   H20 3451   1.861   4.304   5.355 -2.1661  0.8653  3.1897
   31CHL1   C21 3452   2.066   4.240   5.376 -0.1763  0.2701 -0.8619
   31CHL1  H21A 3453   2.159   4.269   5.430  1.9543 -1.2868 -3.4194
   31CHL1  H21B 3454   2.084   4.230   5.267  0.5677  1.4911 -0.8786
   31CHL1  H21C 3455   2.032   4.142   5.414 -1.4951  1.2774  0.7291
   31CHL1   C22 3456   1.995   4.476   5.315 -0.8060  0.4524  0.7390
   31CHL1  H22A 3457   1.907   4.543   5.314 -0.9467  0.2641 -0.5103
   31CHL1  H22B 3458   2.083   4.529   5.358 -1.3254  0.9675  1.1847
   31CHL1   C23 3459   2.018   4.460   5.168 -0.0018 -0.8517  0.1416
   31CHL1  H23A 3460   2.088   4.382   5.132  0.3650 -0.4329 -0.0643
   31CHL1  H23B 3461   1.927   4.441   5.107  0.0981 -0.8135 -0.0209
   31CHL1   C24 3462   2.062   4.600   5.096 -0.1297  0.0084 -0.2606
   31CHL1  H24A 3463   1.977   4.666   5.068  0.8329  0.6178 -1.9274
   31CHL1  H24B 3464   2.137   4.654   5.157 -0.2501 -0.2167  0.0900
   31CHL1   C25 3465   2.138   4.589   4.963  0.4783 -0.0199  0.8918
   31CHL1   H25 3466   2.236   4.540   4.980  0.3508 -1.4349 -1.8903
   31CHL1   C26 3467   2.069   4.500   4.855  0.1766  0.6471  0.2460
   31CHL1  H26A 3468   2.143   4.488   4.773  0.9535 -0.7630  1.1160
   31CHL1  H26B 3469   2.035   4.401   4.893 -0.9241  1.6361  1.9740
   31CHL1  H26C 3470   1.978   4.552   4.817 -1.0491 -1.1235  0.6174
   31CHL1   C27 3471   2.179   4.729   4.899 -0.6771  0.0430  0.0162
   31CHL1  H27A 3472   2.095   4.774   4.842 -1.3345 -2.0622 -0.7897
   31CHL1  H27B 3473   2.228   4.785   4.981  0.3909 -3.0082  1.6401
   31CHL1  H27C 3474   2.263   4.705   4.831  1.9099  2.9898  1.9143
   32CHL1    C3 3475   1.389   1.907   6.074  0.2745  0.6929  0.1108
   32CHL1    H3 3476   1.443   1.812   6.057 -1.6542 -0.3562 -0.5474
   32CHL1    O3 3477   1.327   1.904   6.203 -0.8218  0.4579  0.1073
   32CHL1   H3' 3478   1.401   1.928   6.260  0.2291 -0.0703 -0.9807
   32CHL1    C4 3479   1.483   2.028   6.063 -0.4532 -0.0478 -0.1751
   32CHL1   H4A 3480   1.450   2.122   6.111  0.2385 -0.1482  0.5295
   32CHL1   H4B 3481   1.571   1.992   6.121  0.6350  2.0454 -0.4454
   32CHL1    C5 3482   1.520   2.065   5.920 -0.5962 -0.3577 -0.0728
   32CHL1    C6 3483   1.651   2.080   5.885  0.0541  0.0758 -0.1320
   32CHL1    H6 3484   1.733   2.054   5.953 -0.0249  1.0527  0.3520
   32CHL1    C7 3485   1.701   2.131   5.758 -0.9816  0.8438  0.5263
   32CHL1   H7A 3486   1.764   2.222   5.763  0.1794  0.1018 -0.0063
   32CHL1   H7B 3487   1.760   2.055   5.701  0.1594  0.3656  2.2491
   32CHL1    C8 3488   1.582   2.176   5.666 -0.3408  0.3411 -0.1279
   32CHL1    H8 3489   1.559   2.280   5.698 -1.1925  0.8645 -2.2415
   32CHL1   C14 3490   1.626   2.193   5.519  0.3758  0.1341 -0.0208
   32CHL1   H14 3491   1.641   2.085   5.500  0.4569 -0.1387  1.4695
   32CHL1   C15 3492   1.769   2.248   5.483  0.2296 -1.0644 -0.0194
   32CHL1  H15A 3493   1.785   2.345   5.535 -0.7560 -2.1581  2.4637
   32CHL1  H15B 3494   1.843   2.172   5.515 -0.1996 -0.9292  1.3286
   32CHL1   C16 3495   1.757   2.275   5.332 -0.3420  0.7830 -0.1172
   32CHL1  H16A 3496   1.772   2.381   5.305  1.4027  0.8379  0.8554
   32CHL1  H16B 3497   1.818   2.211   5.265 -2.2632  1.9536 -3.1584
   32CHL1   C17 3498   1.610   2.237   5.285  0.0456  0.2740 -0.3426
   32CHL1   H17 3499   1.608   2.128   5.265  0.3285  0.3161 -0.5991
   32CHL1   C13 3500   1.525   2.252   5.419 -0.4372  0.3868 -0.5096
   32CHL1   C18 3501   1.506   2.401   5.449  0.1159  0.6233 -0.1358
   32CHL1  H18A 3502   1.477   2.432   5.551  0.4037  0.7397 -0.0858
   32CHL1  H18B 3503   1.595   2.458   5.412 -0.2342  1.4941  0.3431
   32CHL1  H18C 3504   1.435   2.436   5.371 -0.3612 -1.1499 -0.5462
   32CHL1   C12 3505   1.386   2.175   5.436 -0.0734  0.3868  0.0292
   32CHL1  H12A 3506   1.301   2.224   5.384 -1.2098 -1.1164  0.4087
   32CHL1  H12B 3507   1.391   2.069   5.406 -2.0288  0.4948 -0.8100
   32CHL1   C11 3508   1.345   2.153   5.580  0.0282 -0.4835 -0.1353
   32CHL1  H11A 3509   1.305   2.248   5.621  0.9614 -1.5418  3.5978
   32CHL1  H11B 3510   1.251   2.093   5.582 -0.6037  0.4200 -1.1911
   32CHL1    C9 3511   1.457   2.092   5.678 -0.4269 -0.6978 -0.3817
   32CHL1    H9 3512   1.493   1.995   5.639  0.3100 -0.1983 -0.9721
   32CHL1   C10 3513   1.405   2.075   5.819  0.7698  0.1494 -0.1646
   32CHL1   C19 3514   1.319   2.203   5.855 -0.2875  0.2396  0.5679
   32CHL1  H19A 3515   1.303   2.202   5.965  0.9896 -2.7899  0.8317
   32CHL1  H19B 3516   1.380   2.291   5.826  0.5984 -0.7326 -0.6554
   32CHL1  H19C 3517   1.218   2.213   5.808  0.8351  2.3297 -1.6090
   32CHL1    C1 3518   1.330   1.941   5.832 -0.3628  0.3791  0.4496
   32CHL1   H1A 3519   1.246   1.942   5.760 -0.8697 -1.4378  0.9467
   32CHL1   H1B 3520   1.404   1.862   5.804 -2.2120 -1.0767 -0.5742
   32CHL1    C2 3521   1.278   1.914   5.971  0.1592 -0.1685 -0.2774
   32CHL1   H2A 3522   1.223   1.818   5.968 -4.3206  2.1131 -1.1549
   32CHL1   H2B 3523   1.206   1.995   5.998  0.9714  0.3432  0.4094
   32CHL1   C20 3524   1.570   2.307   5.157  0.7217 -0.2989 -0.1679
   32CHL1   H20 3525   1.580   2.413   5.190  2.2326 -0.6743  0.6667
   32CHL1   C21 3526   1.421   2.281   5.115  0.1951  0.5773 -0.0122
   32CHL1  H21A 3527   1.403   2.357   5.036 -0.0611 -0.7485 -1.2537
   32CHL1  H21B 3528   1.367   2.292   5.212  1.5964 -2.6638  1.2772
   32CHL1  H21C 3529   1.383   2.185   5.075  0.6759  0.7285 -0.8660
   32CHL1   C22 3530   1.652   2.286   5.030 -0.3121  0.5069 -0.3504
   32CHL1  H22A 3531   1.676   2.178   5.022 -1.5389  0.1957 -0.0246
   32CHL1  H22B 3532   1.585   2.315   4.946  1.3927  0.1965 -1.8616
   32CHL1   C23 3533   1.762   2.381   5.007 -0.6688  0.6199 -0.2370
   32CHL1  H23A 3534   1.742   2.483   5.047 -0.7898  0.2965  0.5373
   32CHL1  H23B 3535   1.841   2.337   5.071 -1.7104  0.1846  0.7881
   32CHL1   C24 3536   1.814   2.377   4.860  0.2619  0.1272  0.1569
   32CHL1  H24A 3537   1.824   2.267   4.848 -2.4206 -0.2277  0.4795
   32CHL1  H24B 3538   1.745   2.421   4.784  1.6718  0.3080 -1.0490
   32CHL1   C25 3539   1.949   2.451   4.848 -0.5301 -0.5262 -0.2074
   32CHL1   H25 3540   2.015   2.401   4.922  0.1648 -0.1153 -0.5383
   32CHL1   C26 3541   2.004   2.443   4.706 -0.9558  0.7047 -0.5393
   32CHL1  H26A 3542   2.113   2.464   4.705 -0.2812 -2.3149 -1.7747
   32CHL1  H26B 3543   1.995   2.338   4.670 -0.8974 -0.0080  1.3993
   32CHL1  H26C 3544   1.958   2.507   4.627  1.2375  2.9011 -0.1552
   32CHL1   C27 3545   1.937   2.605   4.874 -0.0056 -0.0374 -0.4697
   32CHL1  H27A 3546   1.837   2.647   4.853  2.0423  4.9441 -1.6243
   32CHL1  H27B 3547   1.958   2.623   4.982  1.1544 -0.2836 -0.6346
   32CHL1  H27C 3548   2.016   2.657   4.815 -0.7900  0.2580 -1.2689
   33CHL1    C3 3549   0.132   1.318   5.601 -0.2428  0.4427  0.0361
   33CHL1    H3 3550   0.230   1.273   5.629 -1.9179 -2.9554  1.0659
   33CHL1    O3 3551   0.039   1.291   5.696 -0.1448  0.4432 -0.0311
   33CHL1   H3' 3552   0.017   1.200   5.674 -0.0027  0.7970 -1.7157
   33CHL1    C4 3553   0.156   1.472   5.605  0.2957 -0.5796  0.2591
   33CHL1   H4A 3554   0.054   1.516   5.613  1.1847  1.6557  0.0228
   33CHL1   H4B 3555   0.204   1.492   5.702  0.4401  0.0614  0.0646
   33CHL1    C5 3556   0.241   1.530   5.499 -0.4668  0.0278 -0.7608
   33CHL1    C6 3557   0.351   1.606   5.537 -0.2444  0.6575 -0.2755
   33CHL1    H6 3558   0.381   1.620   5.642  1.4562  1.7036 -0.8570
   33CHL1    C7 3559   0.441   1.662   5.429 -0.2957 -0.7166  0.5519
   33CHL1   H7A 3560   0.463   1.769   5.451  0.3699 -1.0650  1.6672
   33CHL1   H7B 3561   0.540   1.612   5.428 -0.3191 -0.7574  0.2970
   33CHL1    C8 3562   0.375   1.656   5.281 -0.1383  0.0573 -0.2193
   33CHL1    H8 3563   0.299   1.738   5.277 -0.4867 -0.2945 -2.9585
   33CHL1   C14 3564   0.482   1.681   5.179 -0.1681  0.4978  0.2231
   33CHL1   H14 3565   0.553   1.596   5.185  0.1991  0.6250 -1.6910
   33CHL1   C15 3566   0.572   1.809   5.191 -0.5204 -0.3240  0.5487
   33CHL1  H15A 3567   0.518   1.881   5.257 -1.3218 -0.4210  0.0186
   33CHL1  H15B 3568   0.669   1.802   5.244  1.1297 -0.7587 -2.3102
   33CHL1   C16 3569   0.606   1.850   5.048  0.0105 -0.0571  0.1934
   33CHL1  H16A 3570   0.572   1.952   5.022  1.5092  0.2997 -0.4474
   33CHL1  H16B 3571   0.715   1.865   5.035 -0.3888  2.8921 -0.3850
   33CHL1   C17 3572   0.552   1.729   4.964  0.0526 -0.2533 -0.3955
   33CHL1   H17 3573   0.631   1.654   4.987  1.3891  1.7477  2.1492
   33CHL1   C13 3574   0.427   1.682   5.036 -0.4976  0.4464 -0.0274
   33CHL1   C18 3575   0.323   1.791   5.019  0.0341  0.6174  0.1523
   33CHL1  H18A 3576   0.222   1.752   5.043  1.4307 -2.1558  2.1043
   33CHL1  H18B 3577   0.339   1.877   5.087 -1.7210  0.5986  0.6203
   33CHL1  H18C 3578   0.321   1.818   4.911  0.7011 -2.2584 -0.6869
   33CHL1   C12 3579   0.379   1.537   4.997 -0.1109 -0.6455  0.1587
   33CHL1  H12A 3580   0.351   1.527   4.890  2.4164  2.0256 -0.8756
   33CHL1  H12B 3581   0.470   1.475   5.010  0.2997 -0.5189 -1.8366
   33CHL1   C11 3582   0.273   1.492   5.095 -0.1922 -0.2605 -0.2483
   33CHL1  H11A 3583   0.173   1.530   5.065 -0.4794  1.5779  2.6457
   33CHL1  H11B 3584   0.268   1.382   5.082 -1.2787 -0.0324 -2.1648
   33CHL1    C9 3585   0.309   1.517   5.245  0.0936 -0.2024 -0.7929
   33CHL1    H9 3586   0.389   1.447   5.275 -0.7087 -0.3985  1.0471
   33CHL1   C10 3587   0.199   1.489   5.350 -0.2810  0.2699  0.2451
   33CHL1   C19 3588   0.079   1.568   5.309 -0.0213 -0.1106 -0.1158
   33CHL1  H19A 3589   0.003   1.571   5.389  1.0271 -0.4429  0.9240
   33CHL1  H19B 3590   0.099   1.672   5.276 -0.4698 -0.4723 -1.5809
   33CHL1  H19C 3591   0.031   1.523   5.219 -1.8128  2.6848 -0.6746
   33CHL1    C1 3592   0.161   1.336   5.349 -0.0165  0.4527  0.1452
   33CHL1   H1A 3593   0.115   1.319   5.249  0.9362  3.1790 -0.8382
   33CHL1   H1B 3594   0.255   1.277   5.348 -0.8658 -1.0097  0.9762
   33CHL1    C2 3595   0.079   1.270   5.464  0.3120  0.3238  0.2838
   33CHL1   H2A 3596   0.081   1.160   5.451  1.1547  0.1045  1.9804
   33CHL1   H2B 3597  -0.025   1.305   5.448  1.0386  2.8413  0.5848
   33CHL1   C20 3598   0.556   1.742   4.811 -0.2912 -0.3372  0.0592
   33CHL1   H20 3599   0.458   1.759   4.763 -0.9320  0.8780  1.6931
   33CHL1   C21 3600   0.613   1.608   4.755  0.1181  0.3759  0.1846
   33CHL1  H21A 3601   0.620   1.615   4.645 -0.4010  1.6211  0.2106
   33CHL1  H21B 3602   0.546   1.521   4.772 -1.0038  1.2200  0.2353
   33CHL1  H21C 3603   0.707   1.570   4.800 -0.5365 -2.2335 -0.4935
   33CHL1   C22 3604   0.644   1.864   4.760  0.1846 -0.5731 -0.0838
   33CHL1  H22A 3605   0.598   1.948   4.817 -0.6461 -1.5164  0.6705
   33CHL1  H22B 3606   0.747   1.854   4.799  0.4260  3.1926  0.6542
   33CHL1   C23 3607   0.640   1.881   4.608  0.2556 -0.2718 -0.4761
   33CHL1  H23A 3608   0.686   1.788   4.567  0.4615  0.1531 -1.2311
   33CHL1  H23B 3609   0.534   1.878   4.576 -0.4705  4.1394  0.8837
   33CHL1   C24 3610   0.705   2.009   4.557 -0.0792 -0.0042  0.1327
   33CHL1  H24A 3611   0.651   2.098   4.594 -0.0009 -0.6926  2.0278
   33CHL1  H24B 3612   0.809   2.012   4.597 -0.5818  1.2784  1.4292
   33CHL1   C25 3613   0.703   2.013   4.410 -0.2467  0.0331  0.5792
   33CHL1   H25 3614   0.598   2.011   4.376 -0.9934  0.1588  2.7449
   33CHL1   C26 3615   0.751   2.145   4.361 -0.0694  0.0220  0.2148
   33CHL1  H26A 3616   0.861   2.157   4.363 -0.1868  1.3011  0.1620
   33CHL1  H26B 3617   0.712   2.154   4.257 -2.5534 -3.1129  0.7171
   33CHL1  H26C 3618   0.704   2.223   4.426 -0.9784  0.3775 -0.8287
   33CHL1   C27 3619   0.782   1.899   4.334 -0.0882 -0.0532  0.0711
   33CHL1  H27A 3620   0.747   1.801   4.372 -1.8535  0.6056  0.2009
   33CHL1  H27B 3621   0.760   1.914   4.226 -0.8131 -0.2374  0.1885
   33CHL1  H27C 3622   0.892   1.894   4.349  0.2046  0.2220 -1.7846
   34CHL1    C3 3623   1.547   2.575   6.276  0.6102  0.1237  0.3982
   34CHL1    H3 3624   1.646   2.601   6.320 -0.0266  1.2390  1.2392
   34CHL1    O3 3625   1.452   2.533   6.372 -0.2495 -0.0224 -0.1148
   34CHL1   H3' 3626   1.362   2.534   6.338 -0.6047  1.1915  0.7880
   34CHL1    C4 3627   1.499   2.705   6.212 -0.0329 -0.1815  0.3662
   34CHL1   H4A 3628   1.392   2.689   6.187  0.1347  0.5596 -0.9011
   34CHL1   H4B 3629   1.496   2.788   6.287 -0.8836 -1.2635  1.5719
   34CHL1    C5 3630   1.566   2.745   6.079 -0.2433 -1.1269 -0.3066
   34CHL1    C6 3631   1.612   2.874   6.063  0.6738 -0.8672 -0.6312
   34CHL1    H6 3632   1.609   2.954   6.139 -2.3040 -1.3319 -0.1234
   34CHL1    C7 3633   1.689   2.916   5.941 -0.1956  0.0064 -0.0010
   34CHL1   H7A 3634   1.656   3.019   5.916 -1.6567 -0.3005  0.5418
   34CHL1   H7B 3635   1.798   2.921   5.961 -0.2650  1.9632  0.0955
   34CHL1    C8 3636   1.675   2.816   5.825  0.0905 -0.1312  0.3021
   34CHL1    H8 3637   1.574   2.842   5.788  0.9506  0.9036 -1.4606
   34CHL1   C14 3638   1.764   2.860   5.706 -0.3548  0.3362  0.1950
   34CHL1   H14 3639   1.866   2.855   5.750  0.1660 -0.4308 -1.0467
   34CHL1   C15 3640   1.753   3.003   5.661 -0.4768 -0.3582  0.3479
   34CHL1  H15A 3641   1.643   3.018   5.665 -0.3770  0.7920 -0.6897
   34CHL1  H15B 3642   1.794   3.074   5.736  1.1683 -1.0266  0.1123
   34CHL1   C16 3643   1.803   3.022   5.521 -0.3651 -0.0196  0.1604
   34CHL1  H16A 3644   1.722   3.069   5.461 -1.4278  1.6987  2.7508
   34CHL1  H16B 3645   1.903   3.071   5.517 -0.1556 -0.4877 -0.5486
   34CHL1   C17 3646   1.829   2.868   5.480  0.5690  0.4199  0.2503
   34CHL1   H17 3647   1.935   2.843   5.500  0.3545 -0.2860  0.5503
   34CHL1   C13 3648   1.746   2.779   5.576 -0.9819 -0.1515 -0.0742
   34CHL1   C18 3649   1.602   2.785   5.526 -0.0699  0.2097 -0.7818
   34CHL1  H18A 3650   1.543   2.733   5.604 -0.3880  1.5062 -0.1263
   34CHL1  H18B 3651   1.554   2.884   5.513 -2.7802 -0.6522  1.6320
   34CHL1  H18C 3652   1.586   2.723   5.435 -1.3107  0.8421 -1.0100
   34CHL1   C12 3653   1.786   2.633   5.624 -1.2218 -0.5881 -0.8898
   34CHL1  H12A 3654   1.798   2.562   5.540 -0.1376  1.8966 -2.9794
   34CHL1  H12B 3655   1.888   2.643   5.666 -0.4655 -0.4795 -2.6824
   34CHL1   C11 3656   1.692   2.576   5.737 -0.2790  0.2626 -0.0244
   34CHL1  H11A 3657   1.589   2.557   5.698 -0.5101  2.4554 -0.5688
   34CHL1  H11B 3658   1.727   2.472   5.758 -2.6951 -0.6797 -0.2708
   34CHL1    C9 3659   1.688   2.671   5.863 -0.5513 -0.4120  0.0820
   34CHL1    H9 3660   1.790   2.664   5.906 -1.0670  0.7114  1.5633
   34CHL1   C10 3661   1.591   2.636   5.977 -0.8864 -0.4397 -0.0663
   34CHL1   C19 3662   1.444   2.601   5.921  0.4190  0.9827  0.5554
   34CHL1  H19A 3663   1.454   2.524   5.842 -0.7235 -0.8952  2.1631
   34CHL1  H19B 3664   1.387   2.550   6.002  0.3172 -0.6485 -0.5066
   34CHL1  H19C 3665   1.386   2.688   5.883  0.6705  1.0364  0.2904
   34CHL1    C1 3666   1.638   2.510   6.054  0.7105  1.0842  0.2215
   34CHL1   H1A 3667   1.646   2.432   5.976  2.0241  2.8943 -1.5786
   34CHL1   H1B 3668   1.742   2.525   6.091  0.8540  3.0183 -0.8051
   34CHL1    C2 3669   1.557   2.459   6.170  0.7943  0.2330  0.2042
   34CHL1   H2A 3670   1.607   2.371   6.216 -1.1993 -1.0748  0.0109
   34CHL1   H2B 3671   1.454   2.434   6.136  0.5188  1.9324 -0.2694
   34CHL1   C20 3672   1.811   2.850   5.324 -0.5110  0.0808 -0.2964
   34CHL1   H20 3673   1.702   2.861   5.303 -0.1937  5.1502 -0.4076
   34CHL1   C21 3674   1.873   2.713   5.287 -0.1923 -0.3155 -0.4492
   34CHL1  H21A 3675   1.805   2.637   5.330 -0.2901 -0.4355 -0.8155
   34CHL1  H21B 3676   1.978   2.702   5.324 -0.0933  2.7778  0.4897
   34CHL1  H21C 3677   1.879   2.706   5.177  2.4872 -2.3532 -0.2791
   34CHL1   C22 3678   1.882   2.961   5.240 -0.6190 -0.4400  0.2587
   34CHL1  H22A 3679   1.855   3.061   5.282  0.7110  0.0016  0.0812
   34CHL1  H22B 3680   1.991   2.961   5.257 -1.0742 -1.7195  4.1576
   34CHL1   C23 3681   1.834   2.959   5.090  0.6956  0.1017 -1.0152
   34CHL1  H23A 3682   1.843   2.855   5.052 -4.0747 -1.1480  0.6197
   34CHL1  H23B 3683   1.725   2.980   5.090  0.6121 -0.3035 -1.7217
   34CHL1   C24 3684   1.896   3.068   5.002  0.1678  0.4630  0.4555
   34CHL1  H24A 3685   1.897   3.169   5.049  0.3236  0.8766 -0.4144
   34CHL1  H24B 3686   2.003   3.050   4.980  0.2129  2.6663 -1.6199
   34CHL1   C25 3687   1.817   3.082   4.867 -0.7502  0.2951  0.4189
   34CHL1   H25 3688   1.715   3.110   4.901 -0.1068  2.5523  0.6796
   34CHL1   C26 3689   1.873   3.212   4.798 -0.1733 -0.2821  0.3965
   34CHL1  H26A 3690   1.867   3.296   4.870  2.4030 -1.8024  2.6090
   34CHL1  H26B 3691   1.974   3.196   4.754  0.3172 -0.7301  1.6378
   34CHL1  H26C 3692   1.812   3.239   4.709 -0.6431  0.3500  0.8973
   34CHL1   C27 3693   1.823   2.956   4.782  0.1751  0.0433 -0.2145
   34CHL1  H27A 3694   1.929   2.926   4.775  0.5796  1.4279 -0.2525
   34CHL1  H27B 3695   1.752   2.881   4.823  1.6484 -1.5706 -0.5039
   34CHL1  H27C 3696   1.787   2.979   4.679  1.5335  2.2279 -0.2620
   35CHL1    C3 3697   3.783   5.347   6.361  0.3773 -0.9441  1.1827
   35CHL1    H3 3698   3.773   5.238   6.344 -2.5857 -0.6240  0.2065
   35CHL1    O3 3699   3.761   5.357   6.496 -0.1136 -0.2153  0.1088
   35CHL1   H3' 3700   3.789   5.445   6.522  1.3555 -1.1208  1.8245
   35CHL1    C4 3701   3.916   5.404   6.323  0.4665  0.5726 -0.2740
   35CHL1   H4A 3702   3.923   5.510   6.357  0.7624 -0.0399  1.7359
   35CHL1   H4B 3703   3.996   5.347   6.375  0.4063  0.0059 -0.7982
   35CHL1    C5 3704   3.932   5.409   6.176  0.2772 -0.0686  0.4459
   35CHL1    C6 3705   4.034   5.359   6.115 -0.0660  0.4812 -0.1705
   35CHL1    H6 3706   4.113   5.304   6.167 -0.4312  0.6229  0.5392
   35CHL1    C7 3707   4.068   5.364   5.963  0.1156 -0.0697  0.2420
   35CHL1   H7A 3708   4.173   5.396   5.949 -0.2627  1.4072  0.5260
   35CHL1   H7B 3709   4.049   5.260   5.930 -0.1326  0.5072 -1.5384
   35CHL1    C8 3710   3.964   5.464   5.892 -0.0115  0.0552  0.4282
   35CHL1    H8 3711   4.001   5.566   5.915  0.4986  0.3242 -1.4191
   35CHL1   C14 3712   3.963   5.439   5.744 -0.0559 -0.2924  0.5256
   35CHL1   H14 3713   3.943   5.330   5.740  1.8107 -0.6419 -0.3998
   35CHL1   C15 3714   4.101   5.452   5.679  0.1229  0.1879  0.0208
   35CHL1  H15A 3715   4.147   5.545   5.719  0.2827  0.2686 -0.3441
   35CHL1  H15B 3716   4.171   5.370   5.703 -0.4394 -0.0115  1.0611
   35CHL1   C16 3717   4.066   5.469   5.530 -0.1646 -0.1430 -0.5933
   35CHL1  H16A 3718   4.111   5.565   5.496 -0.0849  0.6648  1.6372
   35CHL1  H16B 3719   4.114   5.384   5.477  3.8665  0.0959  2.1736
   35CHL1   C17 3720   3.910   5.475   5.519 -0.2864  0.3408  0.1891
   35CHL1   H17 3721   3.883   5.367   5.518  0.9770 -0.0480  2.1564
   35CHL1   C13 3722   3.861   5.519   5.659 -0.0892 -0.1833  0.3994
   35CHL1   C18 3723   3.882   5.670   5.682  0.2176 -0.1898  0.1117
   35CHL1  H18A 3724   3.984   5.704   5.653  0.9863 -1.5360  1.0958
   35CHL1  H18B 3725   3.801   5.724   5.628 -1.8003 -1.4128  1.7543
   35CHL1  H18C 3726   3.870   5.697   5.788 -2.5743 -0.8115  0.0272
   35CHL1   C12 3727   3.721   5.480   5.707 -0.0603  0.1204  0.9488
   35CHL1  H12A 3728   3.645   5.534   5.646 -1.1057 -1.2251  1.0239
   35CHL1  H12B 3729   3.711   5.373   5.678  1.5059  0.0734  0.4687
   35CHL1   C11 3730   3.701   5.500   5.858  0.7114 -0.0247  0.0869
   35CHL1  H11A 3731   3.669   5.605   5.877 -0.6766 -0.8900  3.1804
   35CHL1  H11B 3732   3.614   5.438   5.887  1.0625 -0.1456  0.9024
   35CHL1    C9 3733   3.820   5.445   5.943  0.2075 -0.4326  0.3864
   35CHL1    H9 3734   3.803   5.336   5.927 -0.3933 -0.5033  1.3705
   35CHL1   C10 3735   3.811   5.475   6.098 -0.1470  0.1735 -0.0321
   35CHL1   C19 3736   3.814   5.633   6.122 -0.6803  0.0333  0.7356
   35CHL1  H19A 3737   3.741   5.677   6.051  1.1581  0.2685 -1.1151
   35CHL1  H19B 3738   3.783   5.655   6.227  0.1947  3.5303  0.3865
   35CHL1  H19C 3739   3.915   5.670   6.094 -1.2798  2.4671  1.5745
   35CHL1    C1 3740   3.674   5.422   6.145  0.0263 -0.2973  0.2218
   35CHL1   H1A 3741   3.596   5.488   6.099  1.2826  1.7924  0.9638
   35CHL1   H1B 3742   3.656   5.321   6.102 -3.1621  0.3273 -0.2246
   35CHL1    C2 3743   3.659   5.423   6.296 -0.6037  0.5532  0.7673
   35CHL1   H2A 3744   3.566   5.373   6.331  0.5076 -2.4210 -0.2025
   35CHL1   H2B 3745   3.666   5.526   6.338  2.7539  0.3411  0.9811
   35CHL1   C20 3746   3.844   5.532   5.392  0.6043  0.8823 -0.4061
   35CHL1   H20 3747   3.750   5.582   5.423  1.3558  0.4578  2.9227
   35CHL1   C21 3748   3.783   5.423   5.300 -0.7490 -0.0930 -0.0976
   35CHL1  H21A 3749   3.748   5.341   5.366 -1.4581 -0.1353 -0.5220
   35CHL1  H21B 3750   3.857   5.382   5.228 -0.4102  2.3537 -1.2604
   35CHL1  H21C 3751   3.696   5.457   5.241 -0.3311  2.1728  0.4960
   35CHL1   C22 3752   3.932   5.622   5.304 -1.1530  0.3205 -0.2619
   35CHL1  H22A 3753   3.963   5.718   5.352  1.5725 -1.0317  0.8849
   35CHL1  H22B 3754   4.025   5.570   5.274 -1.2394  0.7857 -1.4319
   35CHL1   C23 3755   3.860   5.675   5.182 -0.7060  0.4846  0.4006
   35CHL1  H23A 3756   3.829   5.594   5.113 -2.1727  1.5015 -0.1784
   35CHL1  H23B 3757   3.770   5.734   5.210 -0.8756 -0.8875  3.0579
   35CHL1   C24 3758   3.963   5.753   5.099  0.3928 -0.8077  0.9657
   35CHL1  H24A 3759   3.996   5.846   5.149 -1.2961 -0.5881  1.7325
   35CHL1  H24B 3760   4.041   5.674   5.087 -0.1064 -1.4011  1.5131
   35CHL1   C25 3761   3.906   5.792   4.955 -0.2961  0.9324 -0.5674
   35CHL1   H25 3762   3.869   5.695   4.914  0.2416  1.0672 -1.4106
   35CHL1   C26 3763   3.783   5.885   4.971  0.0250 -0.1543  0.2017
   35CHL1  H26A 3764   3.761   5.901   4.863  3.8242 -0.2016 -0.7163
   35CHL1  H26B 3765   3.698   5.835   5.022 -0.5175  0.9305  0.4114
   35CHL1  H26C 3766   3.800   5.978   5.029 -2.0852 -0.6684  1.7657
   35CHL1   C27 3767   4.006   5.834   4.855  0.7779  0.0890 -0.1415
   35CHL1  H27A 3768   4.064   5.927   4.878  2.1924 -0.2325 -2.1451
   35CHL1  H27B 3769   4.083   5.756   4.839  1.0728 -0.0528  1.6952
   35CHL1  H27C 3770   3.955   5.835   4.756 -0.3881 -1.6244  0.4027
   36CHL1    C3 3771   6.482   3.995   5.995 -0.5017  0.0934  0.5562
   36CHL1    H3 3772   6.564   4.065   5.968 -0.3158  0.2428  1.4897
   36CHL1    O3 3773   6.469   3.994   6.133 -0.2080  0.4584  0.7199
   36CHL1   H3' 3774   6.390   3.942   6.149 -1.5455  2.4812  1.0724
   36CHL1    C4 3775   6.354   4.040   5.932 -0.3690  0.2021 -0.6788
   36CHL1   H4A 3776   6.271   3.971   5.957 -0.8167  0.4479 -1.4655
   36CHL1   H4B 3777   6.313   4.132   5.978 -1.4414 -1.3753  1.6972
   36CHL1    C5 3778   6.370   4.068   5.780 -0.2741 -0.3914 -0.1570
   36CHL1    C6 3779   6.351   4.182   5.721  0.3977  0.0988  0.3519
   36CHL1    H6 3780   6.333   4.270   5.784  1.7988  0.1266  0.7537
   36CHL1    C7 3781   6.373   4.211   5.573 -0.0497  0.0078  0.7255
   36CHL1   H7A 3782   6.295   4.276   5.527  1.4305  0.0156 -2.0056
   36CHL1   H7B 3783   6.467   4.267   5.553  0.3292 -1.0834 -0.7422
   36CHL1    C8 3784   6.375   4.089   5.483 -0.1089  0.2680 -0.1223
   36CHL1    H8 3785   6.273   4.044   5.477 -0.0994 -0.0462  1.6287
   36CHL1   C14 3786   6.435   4.112   5.342 -0.0859 -0.0086 -0.5031
   36CHL1   H14 3787   6.540   4.130   5.373 -0.6531 -0.7619  2.1039
   36CHL1   C15 3788   6.383   4.223   5.254 -0.5879 -0.2299 -0.0080
   36CHL1  H15A 3789   6.274   4.201   5.244 -0.9064  1.4059 -0.4173
   36CHL1  H15B 3790   6.365   4.326   5.290 -1.3994 -1.1463  2.4269
   36CHL1   C16 3791   6.443   4.192   5.119  0.1400  0.2958 -0.7362
   36CHL1  H16A 3792   6.365   4.198   5.041  0.1202  0.9137 -0.6780
   36CHL1  H16B 3793   6.520   4.271   5.102  1.5678 -0.5467  1.4008
   36CHL1   C17 3794   6.511   4.051   5.126 -0.0609  0.2630  0.1277
   36CHL1   H17 3795   6.620   4.072   5.137  0.4075 -1.7168 -0.3588
   36CHL1   C13 3796   6.447   3.987   5.251  0.6033  0.2051  0.0750
   36CHL1   C18 3797   6.310   3.929   5.216  0.3454  0.2407  0.2790
   36CHL1  H18A 3798   6.228   4.000   5.194 -0.3598 -0.1888  1.4677
   36CHL1  H18B 3799   6.316   3.853   5.135 -1.7419  0.1209  0.1852
   36CHL1  H18C 3800   6.273   3.878   5.307 -1.0869  2.9552  1.3378
   36CHL1   C12 3801   6.523   3.878   5.329 -0.1575  0.0265 -0.6476
   36CHL1  H12A 3802   6.494   3.791   5.267 -0.0934  0.3190 -1.0881
   36CHL1  H12B 3803   6.630   3.908   5.334 -0.4896  1.0574  1.8437
   36CHL1   C11 3804   6.472   3.859   5.468  0.7352  0.3265  0.0234
   36CHL1  H11A 3805   6.375   3.806   5.459  1.5006 -1.1393  0.1634
   36CHL1  H11B 3806   6.545   3.797   5.524  1.7812  2.7506  1.5400
   36CHL1    C9 3807   6.454   3.982   5.558  0.0940  0.0424 -0.2949
   36CHL1    H9 3808   6.548   4.029   5.594 -2.1096  2.0427  3.5580
   36CHL1   C10 3809   6.409   3.943   5.705  0.3229 -0.2050  0.4273
   36CHL1   C19 3810   6.285   3.858   5.697 -0.1162 -0.4953  0.2647
   36CHL1  H19A 3811   6.295   3.762   5.642  2.1368  0.9013 -1.9368
   36CHL1  H19B 3812   6.252   3.836   5.801 -0.2062 -0.1799  0.3049
   36CHL1  H19C 3813   6.205   3.910   5.641  0.0673 -2.8929 -2.4207
   36CHL1    C1 3814   6.530   3.875   5.781 -0.1516  0.1387  0.3988
   36CHL1   H1A 3815   6.546   3.776   5.733 -1.2770  0.0310  0.2193
   36CHL1   H1B 3816   6.619   3.941   5.785  0.4444 -0.6890  1.1469
   36CHL1    C2 3817   6.505   3.858   5.931 -0.4293  0.5241 -0.5131
   36CHL1   H2A 3818   6.597   3.816   5.978 -1.2788 -1.7184 -0.7420
   36CHL1   H2B 3819   6.422   3.788   5.954  2.2553 -1.9764  2.4194
   36CHL1   C20 3820   6.500   3.985   4.990  0.6743  0.2943  0.5067
   36CHL1   H20 3821   6.395   3.977   4.953  0.7628  1.3919 -0.0132
   36CHL1   C21 3822   6.569   3.846   4.997  0.1470  0.3705 -0.5095
   36CHL1  H21A 3823   6.515   3.783   5.071  2.4979 -0.5896  0.4974
   36CHL1  H21B 3824   6.675   3.842   5.029  0.0662 -1.9068 -0.3303
   36CHL1  H21C 3825   6.577   3.794   4.899 -1.2756 -0.9063  0.0049
   36CHL1   C22 3826   6.557   4.078   4.884  0.4058 -0.2967 -0.2343
   36CHL1  H22A 3827   6.500   4.173   4.882 -1.5327 -1.3483  1.1876
   36CHL1  H22B 3828   6.662   4.101   4.909  0.2102  0.2085  0.1320
   36CHL1   C23 3829   6.565   4.017   4.732 -0.4993  0.0803 -0.2755
   36CHL1  H23A 3830   6.647   3.944   4.743 -1.6750 -1.2612 -0.0746
   36CHL1  H23B 3831   6.473   3.956   4.717  0.3102 -2.1192  2.8387
   36CHL1   C24 3832   6.575   4.114   4.615 -0.6345 -0.0925  0.4998
   36CHL1  H24A 3833   6.475   4.159   4.598 -0.2314  1.5553  2.2011
   36CHL1  H24B 3834   6.638   4.195   4.656 -0.7230 -0.5841  1.6578
   36CHL1   C25 3835   6.634   4.060   4.480  0.2882 -0.1526 -0.1102
   36CHL1   H25 3836   6.566   3.996   4.420 -0.0534  1.2904 -1.3384
   36CHL1   C26 3837   6.643   4.184   4.383 -0.2456  0.1100 -0.4673
   36CHL1  H26A 3838   6.727   4.250   4.413  0.3649 -0.7834 -0.1864
   36CHL1  H26B 3839   6.643   4.150   4.278 -1.9818 -3.1295  0.4628
   36CHL1  H26C 3840   6.554   4.250   4.397  0.0727  0.2867  0.8667
   36CHL1   C27 3841   6.763   3.978   4.507 -0.2693 -0.0298 -0.2635
   36CHL1  H27A 3842   6.743   3.885   4.564  2.6457  0.0928  1.1666
   36CHL1  H27B 3843   6.816   3.945   4.415 -0.1470 -0.7979  0.0792
   36CHL1  H27C 3844   6.842   4.034   4.562  0.1546 -0.0672 -0.8193
   37CHL1    C3 3845   0.349   0.042   5.498  0.2633  0.3127  0.3525
   37CHL1    H3 3846   0.433  -0.026   5.521 -0.0994 -0.7830 -1.3372
   37CHL1    O3 3847   0.257   0.041   5.609 -0.8026  0.5968  0.0649
   37CHL1   H3' 3848   0.314   0.073   5.680 -0.3119  1.8344 -0.8555
   37CHL1    C4 3849   0.399   0.186   5.467  0.0237  0.1361 -0.2129
   37CHL1   H4A 3850   0.322   0.265   5.460 -0.3449 -0.0676  1.1941
   37CHL1   H4B 3851   0.457   0.213   5.558  0.8267 -1.6847 -0.1364
   37CHL1    C5 3852   0.484   0.187   5.339  0.1903  0.2582  0.2343
   37CHL1    C6 3853   0.610   0.226   5.344  0.3289  0.2444  0.2023
   37CHL1    H6 3854   0.653   0.248   5.443  0.0459 -1.5566  0.7533
   37CHL1    C7 3855   0.689   0.224   5.220  0.3002  0.1099 -0.8664
   37CHL1   H7A 3856   0.764   0.305   5.213  0.8900 -0.3302  0.1637
   37CHL1   H7B 3857   0.749   0.130   5.219 -0.5631 -0.5494  1.6400
   37CHL1    C8 3858   0.610   0.232   5.087  0.3353  0.8696 -0.4295
   37CHL1    H8 3859   0.560   0.331   5.085 -0.7989  0.3108 -1.9700
   37CHL1   C14 3860   0.692   0.206   4.961 -0.0758  0.4374  0.0762
   37CHL1   H14 3861   0.733   0.104   4.978 -0.0568  0.6020  1.1254
   37CHL1   C15 3862   0.823   0.293   4.944 -0.1698  0.2041  0.0369
   37CHL1  H15A 3863   0.787   0.391   4.984  1.5874 -0.1482  2.7149
   37CHL1  H15B 3864   0.902   0.265   5.017  1.6164  0.1163 -1.8376
   37CHL1   C16 3865   0.856   0.288   4.804 -0.6745 -0.4756  0.4216
   37CHL1  H16A 3866   0.877   0.390   4.765  0.8681 -0.0691  2.1496
   37CHL1  H16B 3867   0.957   0.246   4.787  0.4081  1.7952  0.7811
   37CHL1   C17 3868   0.750   0.205   4.731 -0.9718  0.5129 -0.0917
   37CHL1   H17 3869   0.784   0.099   4.728  0.8262  0.9898  1.5539
   37CHL1   C13 3870   0.623   0.204   4.830 -0.1215  0.2556 -0.1292
   37CHL1   C18 3871   0.540   0.334   4.808 -0.5107 -0.4279  0.6129
   37CHL1  H18A 3872   0.608   0.421   4.809  1.6968 -1.8692 -3.0464
   37CHL1  H18B 3873   0.494   0.337   4.707  3.2297 -3.7492 -1.4704
   37CHL1  H18C 3874   0.466   0.352   4.889 -1.3171  0.2895 -0.2495
   37CHL1   C12 3875   0.524   0.085   4.830 -0.3864  0.0622  0.2720
   37CHL1  H12A 3876   0.457   0.080   4.742 -2.0953  0.1180  1.5120
   37CHL1  H12B 3877   0.587  -0.007   4.834 -0.4328 -0.0467 -1.1985
   37CHL1   C11 3878   0.427   0.102   4.949  0.3544 -0.5152  0.4086
   37CHL1  H11A 3879   0.346   0.173   4.919  0.7263 -0.0262  0.5547
   37CHL1  H11B 3880   0.365   0.010   4.954  1.3744 -1.2908 -0.6918
   37CHL1    C9 3881   0.492   0.130   5.086 -0.6269  0.3024  0.0727
   37CHL1    H9 3882   0.552   0.038   5.105  0.5335  1.1191  0.4379
   37CHL1   C10 3883   0.404   0.138   5.216 -0.1667 -0.7084 -0.8973
   37CHL1   C19 3884   0.291   0.239   5.194  0.2898  0.2760  0.0828
   37CHL1  H19A 3885   0.334   0.341   5.186  1.3113 -0.0383  1.3439
   37CHL1  H19B 3886   0.242   0.222   5.095 -2.1005  1.5305  0.9652
   37CHL1  H19C 3887   0.209   0.233   5.269 -1.2089 -3.3063 -1.5987
   37CHL1    C1 3888   0.362  -0.008   5.248 -0.0824 -0.0614 -0.2733
   37CHL1   H1A 3889   0.308  -0.056   5.163 -2.4100 -1.6812  1.9903
   37CHL1   H1B 3890   0.453  -0.071   5.244 -0.1066 -0.0841 -0.4747
   37CHL1    C2 3891   0.276  -0.017   5.376 -0.3967  0.2101 -0.6148
   37CHL1   H2A 3892   0.237  -0.121   5.382  0.0859  0.0353 -0.4460
   37CHL1   H2B 3893   0.183   0.041   5.360 -0.8485 -0.0228  0.9519
   37CHL1   C20 3894   0.737   0.243   4.587 -0.1131  0.1217  0.2008
   37CHL1   H20 3895   0.703   0.349   4.584  1.0832  0.5121 -0.6439
   37CHL1   C21 3896   0.619   0.173   4.519  0.2833 -0.2281 -0.1573
   37CHL1  H21A 3897   0.629   0.064   4.505  1.1193 -0.5704  2.5926
   37CHL1  H21B 3898   0.607   0.229   4.423  2.3697  2.9917  1.2686
   37CHL1  H21C 3899   0.521   0.207   4.558  1.2431  1.1674  1.1699
   37CHL1   C22 3900   0.873   0.221   4.502  0.1808 -0.1026 -0.1386
   37CHL1  H22A 3901   0.843   0.259   4.402 -0.8014 -0.1676  0.1227
   37CHL1  H22B 3902   0.955   0.279   4.549  0.9606  0.0369 -1.5876
   37CHL1   C23 3903   0.915   0.074   4.483 -0.7253  0.1968  0.1080
   37CHL1  H23A 3904   0.952   0.029   4.577 -1.3563 -0.6311 -0.0254
   37CHL1  H23B 3905   0.821   0.021   4.458 -0.5229  0.5716 -1.6103
   37CHL1   C24 3906   1.029   0.059   4.379  0.0039  0.4873 -0.0450
   37CHL1  H24A 3907   0.994   0.089   4.277 -0.7956 -0.7107 -0.1424
   37CHL1  H24B 3908   1.112   0.124   4.414  0.6144 -0.3505  0.0804
   37CHL1   C25 3909   1.089  -0.085   4.359 -0.3247 -0.5599 -0.0344
   37CHL1   H25 3910   1.164  -0.061   4.281  0.0672  3.8512  1.3968
   37CHL1   C26 3911   1.163  -0.132   4.487  0.3954  0.2345  0.7598
   37CHL1  H26A 3912   1.086  -0.153   4.564 -0.4134  0.4501  0.0258
   37CHL1  H26B 3913   1.224  -0.223   4.466  1.7925  0.8603  1.9735
   37CHL1  H26C 3914   1.233  -0.052   4.519 -0.0478  0.2999  1.5728
   37CHL1   C27 3915   0.988  -0.183   4.309 -0.0257 -0.7659  0.7316
   37CHL1  H27A 3916   1.036  -0.278   4.279  2.5590  0.5322  0.4366
   37CHL1  H27B 3917   0.902  -0.196   4.378 -1.8369 -3.3153 -1.8091
   37CHL1  H27C 3918   0.944  -0.153   4.212  0.0529  0.5477  1.0808
   38CHL1    C3 3919   0.905   0.961   6.305 -0.2687  0.4054 -0.5654
   38CHL1    H3 3920   1.011   0.944   6.333 -0.4866 -1.5283 -0.7884
   38CHL1    O3 3921   0.817   0.963   6.414  0.2339  0.8150  0.5634
   38CHL1   H3' 3922   0.759   1.035   6.384  1.0281  1.0280 -0.5481
   38CHL1    C4 3923   0.896   1.096   6.233 -0.5124  0.0374 -0.0034
   38CHL1   H4A 3924   0.790   1.126   6.217  0.1198  1.6687 -1.4600
   38CHL1   H4B 3925   0.943   1.162   6.309 -0.0454 -0.5109  0.1894
   38CHL1    C5 3926   0.971   1.098   6.101  0.1241  0.9740  0.0362
   38CHL1    C6 3927   1.061   1.194   6.080 -0.7729 -0.3376  0.3888
   38CHL1    H6 3928   1.092   1.264   6.159  0.6884 -1.4391  0.8548
   38CHL1    C7 3929   1.124   1.201   5.942  0.3911  0.2599  0.0142
   38CHL1   H7A 3930   1.115   1.309   5.918 -0.4307 -0.2186 -2.1019
   38CHL1   H7B 3931   1.231   1.171   5.945  0.5773  0.8555 -0.4212
   38CHL1    C8 3932   1.053   1.118   5.829 -0.4159  0.6519 -0.4961
   38CHL1    H8 3933   0.955   1.167   5.808 -0.3738  2.6589  3.2882
   38CHL1   C14 3934   1.133   1.104   5.700  0.1090 -0.5556 -0.4742
   38CHL1   H14 3935   1.224   1.061   5.747  0.1412  0.0776  0.0638
   38CHL1   C15 3936   1.196   1.229   5.647  0.4531 -0.7356  0.3063
   38CHL1  H15A 3937   1.140   1.324   5.644  2.6235  0.7172  2.5480
   38CHL1  H15B 3938   1.294   1.262   5.688  0.4752 -0.7997  0.3054
   38CHL1   C16 3939   1.227   1.189   5.503  0.6844 -0.3526  0.5124
   38CHL1  H16A 3940   1.186   1.252   5.421  2.8773  0.4355 -0.0625
   38CHL1  H16B 3941   1.337   1.184   5.488  0.6873  0.0346  0.3921
   38CHL1   C17 3942   1.180   1.039   5.488  0.0467 -0.1779  0.6109
   38CHL1   H17 3943   1.271   0.987   5.525  2.5206  4.6451  2.2281
   38CHL1   C13 3944   1.075   1.022   5.586  0.6697 -0.1222  0.1997
   38CHL1   C18 3945   0.945   1.078   5.523 -0.4863  0.3007 -0.4305
   38CHL1  H18A 3946   0.861   1.091   5.594  0.4697  1.4090  0.5393
   38CHL1  H18B 3947   0.961   1.176   5.472 -0.9702  0.2578 -0.6738
   38CHL1  H18C 3948   0.904   1.002   5.453 -1.1219 -0.7267  1.0013
   38CHL1   C12 3949   1.053   0.882   5.637  0.1917 -0.0556  0.0439
   38CHL1  H12A 3950   1.015   0.810   5.561  0.2296 -0.3167  0.2709
   38CHL1  H12B 3951   1.143   0.842   5.688 -0.0460  2.8957  3.1768
   38CHL1   C11 3952   0.956   0.887   5.765 -0.3599  0.3535  0.5006
   38CHL1  H11A 3953   0.858   0.911   5.719  0.0475  0.5293 -0.2916
   38CHL1  H11B 3954   0.948   0.782   5.800  2.5320 -0.0464  0.2377
   38CHL1    C9 3955   1.015   0.974   5.879 -0.6058 -0.2102 -0.4276
   38CHL1    H9 3956   1.110   0.927   5.913 -0.7913 -0.3854 -0.1508
   38CHL1   C10 3957   0.926   0.982   6.003  0.0379 -0.2026  0.4961
   38CHL1   C19 3958   0.780   1.002   5.959  0.7651  0.1658 -0.4465
   38CHL1  H19A 3959   0.719   1.003   6.052 -1.0780 -4.2903 -1.3522
   38CHL1  H19B 3960   0.765   1.088   5.890  0.9830 -1.2015 -2.2738
   38CHL1  H19C 3961   0.735   0.915   5.907 -1.1850 -0.4115  1.9849
   38CHL1    C1 3962   0.933   0.846   6.076  0.7244 -0.6548  0.6246
   38CHL1   H1A 3963   0.906   0.760   6.012  0.9802 -0.1327 -0.1972
   38CHL1   H1B 3964   1.040   0.831   6.103  0.2721 -0.5539  2.6818
   38CHL1    C2 3965   0.859   0.843   6.212 -0.0690  0.7951  0.5775
   38CHL1   H2A 3966   0.875   0.746   6.263  0.1000  0.7536  0.4487
   38CHL1   H2B 3967   0.751   0.857   6.190 -0.1957  1.6340  1.6590
   38CHL1   C20 3968   1.159   1.002   5.336 -0.3825  0.3176 -0.9312
   38CHL1   H20 3969   1.079   1.068   5.298 -0.5194 -0.7240 -2.5422
   38CHL1   C21 3970   1.115   0.855   5.311 -0.6873  0.1240  0.0558
   38CHL1  H21A 3971   1.029   0.817   5.372  0.4864 -1.1381  0.9922
   38CHL1  H21B 3972   1.195   0.781   5.331 -0.8717  0.1587  0.9842
   38CHL1  H21C 3973   1.094   0.839   5.203 -0.8211 -1.6344  0.3069
   38CHL1   C22 3974   1.289   1.020   5.252 -0.2496 -0.1105 -0.0315
   38CHL1  H22A 3975   1.325   1.123   5.272  0.5980 -0.5883  1.0163
   38CHL1  H22B 3976   1.371   0.955   5.288  0.0922  0.9864  1.2571
   38CHL1   C23 3977   1.279   1.004   5.099 -0.3291  0.0294  0.0070
   38CHL1  H23A 3978   1.253   0.897   5.087  1.0125 -0.0515 -3.2024
   38CHL1  H23B 3979   1.195   1.062   5.056 -0.9328 -1.8757 -1.5364
   38CHL1   C24 3980   1.410   1.025   5.029 -0.3758 -0.1169 -0.1507
   38CHL1  H24A 3981   1.441   1.130   5.048  0.3867  0.1809 -2.6137
   38CHL1  H24B 3982   1.491   0.956   5.060 -1.2403 -1.9307 -1.7149
   38CHL1   C25 3983   1.406   1.000   4.876 -0.4326 -0.8060  0.0408
   38CHL1   H25 3984   1.325   1.065   4.838  0.3429 -1.1230 -2.3289
   38CHL1   C26 3985   1.541   1.036   4.815 -0.5556  0.3139  0.2115
   38CHL1  H26A 3986   1.554   1.147   4.810 -0.8912  0.3811  0.7855
   38CHL1  H26B 3987   1.633   0.995   4.862 -0.0250 -0.4828 -1.4444
   38CHL1  H26C 3988   1.523   0.993   4.714  1.7114  1.3920 -0.7159
   38CHL1   C27 3989   1.371   0.853   4.842  0.1201 -0.0875  0.2020
   38CHL1  H27A 3990   1.265   0.835   4.870  0.4437 -1.0948  0.8254
   38CHL1  H27B 3991   1.377   0.844   4.731  1.0532  0.1001  0.2259
   38CHL1  H27C 3992   1.439   0.782   4.893 -0.8910 -1.8429 -0.7887
   39CHL1    C3 3993   2.982   1.978   6.480  0.0220  0.8718  0.5049
   39CHL1    H3 3994   3.092   1.990   6.468  0.4447 -2.2049  0.4087
   39CHL1    O3 3995   2.937   1.988   6.608  0.4751  0.3922 -0.3153
   39CHL1   H3' 3996   2.880   1.915   6.633  0.1230  0.6870 -0.2542
   39CHL1    C4 3997   2.895   2.067   6.384  0.0028  0.1077 -0.1743
   39CHL1   H4A 3998   2.787   2.050   6.398 -0.3538  1.7955 -0.7300
   39CHL1   H4B 3999   2.913   2.173   6.411 -2.0010  0.0398  1.6555
   39CHL1    C5 4000   2.926   2.046   6.233  0.1313 -0.1912  0.2330
   39CHL1    C6 4001   2.978   2.146   6.160  0.0200 -0.2636  0.3817
   39CHL1    H6 4002   2.982   2.247   6.204  0.7032 -0.2211  0.2479
   39CHL1    C7 4003   3.013   2.130   6.012 -0.4224  1.2238 -0.9745
   39CHL1   H7A 4004   2.972   2.212   5.949 -1.4330  0.4724 -1.3281
   39CHL1   H7B 4005   3.123   2.141   6.019  0.0634 -1.3825 -3.2240
   39CHL1    C8 4006   2.968   1.994   5.958  0.3947 -0.5134 -0.0498
   39CHL1    H8 4007   2.857   1.984   5.956  0.4554 -1.1988 -0.2036
   39CHL1   C14 4008   3.028   1.976   5.824  0.0497  0.4806  0.1285
   39CHL1   H14 4009   3.138   1.971   5.841  0.0334 -0.6463 -0.0034
   39CHL1   C15 4010   3.000   2.086   5.720 -0.4920  0.2945  0.6978
   39CHL1  H15A 4011   2.894   2.118   5.720 -0.4335  0.5410 -0.3019
   39CHL1  H15B 4012   3.061   2.177   5.736  2.0001 -1.3385  1.0313
   39CHL1   C16 4013   3.047   2.010   5.587  0.3468  0.8124  0.0738
   39CHL1  H16A 4014   2.967   2.043   5.518 -0.2616 -0.3358  0.2097
   39CHL1  H16B 4015   3.141   2.052   5.544  0.8878 -0.6164 -0.1985
   39CHL1   C17 4016   3.045   1.860   5.618 -0.2843  0.4758 -0.8670
   39CHL1   H17 4017   3.149   1.826   5.638 -0.8475 -0.6923  0.2411
   39CHL1   C13 4018   2.981   1.843   5.758 -0.1844 -0.3179 -0.0294
   39CHL1   C18 4019   2.824   1.836   5.731 -0.7036 -0.5489 -0.3217
   39CHL1  H18A 4020   2.793   1.735   5.695 -0.8418 -1.3985  1.9951
   39CHL1  H18B 4021   2.789   1.841   5.836  1.3437 -0.0019  0.3773
   39CHL1  H18C 4022   2.791   1.919   5.665 -0.0988 -0.8454 -1.0087
   39CHL1   C12 4023   3.044   1.735   5.842 -0.6298  0.2389 -1.2336
   39CHL1  H12A 4024   3.037   1.631   5.803 -0.7111  0.3317 -1.4719
   39CHL1  H12B 4025   3.155   1.742   5.845 -0.5212 -1.3987  0.6573
   39CHL1   C11 4026   2.989   1.741   5.984  1.0312 -0.3737 -0.3241
   39CHL1  H11A 4027   2.881   1.722   5.968  0.9673  0.4041 -0.8922
   39CHL1  H11B 4028   3.021   1.653   6.043 -0.7494 -0.3557  0.7280
   39CHL1    C9 4029   3.005   1.884   6.057  0.3935 -0.3316  0.2987
   39CHL1    H9 4030   3.114   1.893   6.081  0.3028 -0.5629  0.8234
   39CHL1   C10 4031   2.931   1.899   6.187  0.0438  0.3985 -0.4951
   39CHL1   C19 4032   2.786   1.852   6.182 -0.3313 -0.0739  0.0450
   39CHL1  H19A 4033   2.735   1.873   6.278 -0.6231  0.8399 -0.2958
   39CHL1  H19B 4034   2.723   1.885   6.096 -2.5449 -2.4721  0.6155
   39CHL1  H19C 4035   2.775   1.743   6.168 -0.8964  0.0702 -0.7299
   39CHL1    C1 4036   3.006   1.809   6.296  0.1781 -0.3632 -0.0059
   39CHL1   H1A 4037   2.997   1.704   6.259 -1.1812 -0.3102  0.1304
   39CHL1   H1B 4038   3.115   1.831   6.290  0.2854 -0.7877  0.3009
   39CHL1    C2 4039   2.960   1.830   6.435 -0.2156 -0.9184 -0.1357
   39CHL1   H2A 4040   3.024   1.762   6.495  0.4690 -1.4286 -1.4120
   39CHL1   H2B 4041   2.852   1.809   6.453 -1.1495  2.2448 -1.1963
   39CHL1   C20 4042   2.996   1.775   5.507 -0.2727  0.7757 -0.1191
   39CHL1   H20 4043   2.897   1.810   5.471  0.3060  2.5854 -0.0495
   39CHL1   C21 4044   3.010   1.634   5.547  0.1931  0.6143  0.4603
   39CHL1  H21A 4045   3.111   1.601   5.577  0.2473  0.9409  0.6359
   39CHL1  H21B 4046   2.975   1.571   5.462 -1.7751  1.2054  0.7663
   39CHL1  H21C 4047   2.938   1.616   5.630 -0.6361  0.7359 -0.2109
   39CHL1   C22 4048   3.087   1.801   5.381 -0.1628 -0.1736  1.0764
   39CHL1  H22A 4049   3.083   1.910   5.363  0.5326 -0.5208 -1.4908
   39CHL1  H22B 4050   3.192   1.770   5.399  1.1748  1.4731 -2.9335
   39CHL1   C23 4051   3.038   1.722   5.261 -0.4221  0.5630  0.4368
   39CHL1  H23A 4052   3.068   1.616   5.251 -1.0127  0.2720  1.5864
   39CHL1  H23B 4053   2.927   1.714   5.259 -0.5007  0.4459 -3.8561
   39CHL1   C24 4054   3.071   1.777   5.118 -0.5779  0.0369 -0.4848
   39CHL1  H24A 4055   2.990   1.847   5.085  0.4965  1.6241  0.1110
   39CHL1  H24B 4056   3.168   1.829   5.130  0.5245 -1.9047 -0.6505
   39CHL1   C25 4057   3.093   1.680   4.999 -0.1180 -0.0281 -0.2253
   39CHL1   H25 4058   3.177   1.612   5.027  0.3622  0.6271 -0.0724
   39CHL1   C26 4059   2.983   1.584   4.982  0.1547 -1.4898 -0.1041
   39CHL1  H26A 4060   2.902   1.631   4.923  0.6105  1.1183  1.1898
   39CHL1  H26B 4061   3.020   1.509   4.908 -1.1030 -1.9201 -0.3189
   39CHL1  H26C 4062   2.931   1.539   5.069 -1.5187 -2.0203 -1.3430
   39CHL1   C27 4063   3.113   1.754   4.874 -0.7932 -0.1819  0.3311
   39CHL1  H27A 4064   3.151   1.688   4.793  0.7009 -0.0390  0.8946
   39CHL1  H27B 4065   3.022   1.803   4.834 -0.2346  0.4558 -0.1918
   39CHL1  H27C 4066   3.202   1.820   4.881 -0.1715 -0.9281 -0.3019
   40CHL1    C3 4067   3.324   4.457   6.312  0.1600 -0.2908  0.5357
   40CHL1    H3 4068   3.320   4.346   6.312 -0.8979 -0.2638  0.3454
   40CHL1    O3 4069   3.297   4.504   6.443  0.5717  0.1003  0.2915
   40CHL1   H3' 4070   3.382   4.515   6.486  0.0220  2.4109  0.9312
   40CHL1    C4 4071   3.460   4.501   6.254 -0.0881 -0.1365  0.0798
   40CHL1   H4A 4072   3.468   4.608   6.286  1.1042 -0.4402  0.8644
   40CHL1   H4B 4073   3.528   4.439   6.316 -0.6612  0.2369  1.0997
   40CHL1    C5 4074   3.481   4.479   6.104 -0.4188  0.2689 -0.5050
   40CHL1    C6 4075   3.579   4.396   6.050 -0.6332 -0.0620 -0.2266
   40CHL1    H6 4076   3.643   4.341   6.122 -2.3888 -3.1459 -0.8262
   40CHL1    C7 4077   3.597   4.368   5.898  0.5509 -0.1116  0.2769
   40CHL1   H7A 4078   3.704   4.366   5.867  0.7339 -1.8146  0.9327
   40CHL1   H7B 4079   3.559   4.265   5.885 -2.5357  0.8264  1.0016
   40CHL1    C8 4080   3.520   4.470   5.812  0.4016 -0.3232 -0.0702
   40CHL1    H8 4081   3.579   4.564   5.816  0.7091 -0.5176 -0.0142
   40CHL1   C14 4082   3.512   4.427   5.671 -0.2370  0.1059  0.1531
   40CHL1   H14 4083   3.459   4.330   5.664 -1.2340  0.5536  1.0551
   40CHL1   C15 4084   3.643   4.384   5.593  0.1695 -0.1649 -0.2992
   40CHL1  H15A 4085   3.729   4.452   5.612  1.1411 -0.7418 -2.2954
   40CHL1  H15B 4086   3.674   4.279   5.613 -2.1861 -0.5003  2.0884
   40CHL1   C16 4087   3.601   4.394   5.446 -0.2152  0.7020 -1.0358
   40CHL1  H16A 4088   3.669   4.467   5.397 -1.2422  0.9981 -2.0800
   40CHL1  H16B 4089   3.623   4.301   5.389  2.0746  1.6340 -1.8087
   40CHL1   C17 4090   3.461   4.451   5.434  0.2207 -0.3728 -0.2037
   40CHL1   H17 4091   3.391   4.365   5.432 -0.0212 -0.3362  2.6812
   40CHL1   C13 4092   3.441   4.519   5.572  1.1215  0.0386 -0.4734
   40CHL1   C18 4093   3.504   4.654   5.561 -0.1832 -0.3892 -0.2665
   40CHL1  H18A 4094   3.613   4.652   5.539  0.3929 -0.6784  2.2329
   40CHL1  H18B 4095   3.441   4.718   5.496 -1.6410  0.2058  1.6060
   40CHL1  H18C 4096   3.498   4.702   5.661 -1.0070 -0.5637 -0.2274
   40CHL1   C12 4097   3.289   4.536   5.618  0.2978  0.0454  0.1710
   40CHL1  H12A 4098   3.229   4.604   5.554 -2.6891 -1.5870  1.0626
   40CHL1  H12B 4099   3.250   4.433   5.611 -0.2499  0.2494  0.1956
   40CHL1   C11 4100   3.284   4.584   5.769  0.2845 -0.0868 -0.2236
   40CHL1  H11A 4101   3.320   4.689   5.770 -1.8077  0.6850  1.5287
   40CHL1  H11B 4102   3.179   4.572   5.803  0.1387 -2.1158 -1.1974
   40CHL1    C9 4103   3.378   4.502   5.864  0.2184 -0.2893  0.2910
   40CHL1    H9 4104   3.326   4.404   5.865 -2.2783  0.9110  2.1611
   40CHL1   C10 4105   3.374   4.540   6.014  0.0945  0.5089 -0.0632
   40CHL1   C19 4106   3.380   4.695   6.010  0.6505  0.0350 -0.6544
   40CHL1  H19A 4107   3.277   4.732   5.988  0.4256 -0.3874 -0.3322
   40CHL1  H19B 4108   3.412   4.737   6.107 -1.1006 -0.7951  0.3345
   40CHL1  H19C 4109   3.458   4.734   5.941  1.1102  1.1136  0.4477
   40CHL1    C1 4110   3.243   4.483   6.076 -0.0531  0.1887  0.6598
   40CHL1   H1A 4111   3.152   4.517   6.022 -0.0056 -2.5111 -1.3089
   40CHL1   H1B 4112   3.243   4.373   6.060  1.2617  0.5102 -2.0785
   40CHL1    C2 4113   3.211   4.503   6.223  0.1674  0.6515  0.3852
   40CHL1   H2A 4114   3.111   4.460   6.242  0.1914 -0.8874 -2.4118
   40CHL1   H2B 4115   3.194   4.611   6.244 -1.1037  0.1368  2.1627
   40CHL1   C20 4116   3.440   4.535   5.302 -0.0717  0.1349 -0.2399
   40CHL1   H20 4117   3.513   4.619   5.297 -0.2170  0.2093 -1.5501
   40CHL1   C21 4118   3.291   4.586   5.295  0.1926 -0.3050  0.1542
   40CHL1  H21A 4119   3.257   4.616   5.194 -2.0045 -1.2847  0.5332
   40CHL1  H21B 4120   3.286   4.677   5.358  2.2969  1.5645 -2.1782
   40CHL1  H21C 4121   3.237   4.500   5.341 -0.4212  0.7851  1.5432
   40CHL1   C22 4122   3.470   4.441   5.182 -0.1642  0.4203 -0.5457
   40CHL1  H22A 4123   3.578   4.414   5.188 -0.5506 -1.3645 -1.2374
   40CHL1  H22B 4124   3.419   4.343   5.193 -1.1654  0.8349 -1.3551
   40CHL1   C23 4125   3.432   4.497   5.049 -0.2965 -0.2935  0.4565
   40CHL1  H23A 4126   3.321   4.491   5.049 -0.4089  0.8594 -1.9292
   40CHL1  H23B 4127   3.471   4.601   5.047  2.8441 -1.3576  0.7227
   40CHL1   C24 4128   3.496   4.425   4.929  0.3318 -0.2539 -0.0307
   40CHL1  H24A 4129   3.606   4.434   4.937  0.0413  2.5043  2.1036
   40CHL1  H24B 4130   3.464   4.318   4.927  2.2930 -0.9132  1.4210
   40CHL1   C25 4131   3.444   4.493   4.797 -0.3050  0.4174 -0.3767
   40CHL1   H25 4132   3.480   4.598   4.795  0.5519  0.1960 -4.2334
   40CHL1   C26 4133   3.503   4.419   4.681 -0.3915  0.6484  0.2906
   40CHL1  H26A 4134   3.505   4.308   4.684 -0.8476  0.5959 -0.8512
   40CHL1  H26B 4135   3.471   4.459   4.583 -2.4182 -0.7570  0.3308
   40CHL1  H26C 4136   3.612   4.432   4.696 -0.1241 -1.0267 -0.0424
   40CHL1   C27 4137   3.289   4.512   4.784  0.9702 -0.6574 -0.4527
   40CHL1  H27A 4138   3.268   4.556   4.684 -0.0452 -1.6360 -0.6976
   40CHL1  H27B 4139   3.238   4.413   4.784  0.9447 -0.6495 -1.1504
   40CHL1  H27C 4140   3.241   4.579   4.859 -3.5766 -2.3160 -1.5460
   41CHL1    C3 4141   0.459   4.877   5.930  0.3076 -0.0891  0.2211
   41CHL1    H3 4142   0.567   4.856   5.919  0.4151 -0.6815  2.1694
   41CHL1    O3 4143   0.427   4.888   6.067 -0.1681 -0.0231  0.2788
   41CHL1   H3' 4144   0.333   4.903   6.077 -0.4256 -2.1373  1.9977
   41CHL1    C4 4145   0.404   5.000   5.861  0.4583 -0.3780  0.5729
   41CHL1   H4A 4146   0.297   5.017   5.887 -0.1627  0.6068 -2.1872
   41CHL1   H4B 4147   0.465   5.082   5.905  0.4693  0.0274 -0.1729
   41CHL1    C5 4148   0.410   4.995   5.706  0.1578 -0.2736  0.2576
   41CHL1    C6 4149   0.480   5.078   5.633 -0.0029  0.4413  0.5080
   41CHL1    H6 4150   0.540   5.156   5.683  0.5865  0.9123 -0.8654
   41CHL1    C7 4151   0.490   5.074   5.480  0.4625 -0.1863 -0.1071
   41CHL1   H7A 4152   0.470   5.180   5.455 -1.0331 -0.5771 -0.7410
   41CHL1   H7B 4153   0.595   5.053   5.451  1.0077  1.5808  0.4585
   41CHL1    C8 4154   0.393   4.984   5.418  0.8891 -0.5546 -0.1922
   41CHL1    H8 4155   0.297   5.041   5.422  2.5476  2.4839 -0.2670
   41CHL1   C14 4156   0.435   4.948   5.281 -0.1897  0.0478  0.3987
   41CHL1   H14 4157   0.526   4.885   5.283 -0.9248 -1.2464 -1.9422
   41CHL1   C15 4158   0.466   5.064   5.176 -0.2745  0.0349 -0.6989
   41CHL1  H15A 4159   0.396   5.148   5.192  0.1782 -0.0359  2.2290
   41CHL1  H15B 4160   0.567   5.094   5.209 -0.8191  0.0706  1.0568
   41CHL1   C16 4161   0.465   5.007   5.039  0.3061 -0.3449  0.8485
   41CHL1  H16A 4162   0.391   5.067   4.979 -0.2588 -2.8932 -1.1843
   41CHL1  H16B 4163   0.563   4.989   4.990  0.7208 -0.1244  1.5935
   41CHL1   C17 4164   0.411   4.864   5.059  0.2053  0.5394 -0.1756
   41CHL1   H17 4165   0.503   4.802   5.069  1.7732  2.2104 -2.8414
   41CHL1   C13 4166   0.344   4.862   5.200 -0.0873  0.2621  0.4754
   41CHL1   C18 4167   0.217   4.933   5.191  0.2306 -0.2737 -0.4850
   41CHL1  H18A 4168   0.223   5.041   5.166  0.4729  0.0607  0.9481
   41CHL1  H18B 4169   0.144   4.884   5.122  0.0078 -0.0670 -0.3960
   41CHL1  H18C 4170   0.164   4.932   5.288  0.7418 -0.7771 -0.2042
   41CHL1   C12 4171   0.327   4.722   5.269  0.5110  0.2595  0.1142
   41CHL1  H12A 4172   0.250   4.669   5.210 -0.2123 -0.3005  1.5047
   41CHL1  H12B 4173   0.426   4.672   5.266  1.2585  1.6357  0.7383
   41CHL1   C11 4174   0.284   4.747   5.412  0.0723 -0.4647  0.3973
   41CHL1  H11A 4175   0.183   4.792   5.409  0.4889  0.4811  0.2192
   41CHL1  H11B 4176   0.275   4.644   5.454  2.2377 -0.4603  0.9671
   41CHL1    C9 4177   0.371   4.852   5.498 -0.5605  0.2495 -0.2561
   41CHL1    H9 4178   0.473   4.808   5.495 -0.5079 -0.0889  3.0686
   41CHL1   C10 4179   0.347   4.867   5.645  0.2638 -0.4364  0.3357
   41CHL1   C19 4180   0.190   4.881   5.652  0.2707  0.6121  0.8825
   41CHL1  H19A 4181   0.161   4.962   5.582  2.2466  0.6253  0.0346
   41CHL1  H19B 4182   0.137   4.787   5.624  0.6831  0.5675  0.2414
   41CHL1  H19C 4183   0.160   4.908   5.755 -1.5652  1.4552  0.1750
   41CHL1    C1 4184   0.403   4.749   5.722  0.8841 -0.0402 -0.2792
   41CHL1   H1A 4185   0.356   4.655   5.687  1.5589 -1.5598  2.5182
   41CHL1   H1B 4186   0.511   4.732   5.700  0.9130  1.0349 -1.0331
   41CHL1    C2 4187   0.381   4.754   5.878 -0.5419  0.6901  0.2658
   41CHL1   H2A 4188   0.444   4.674   5.924  1.1050  0.7645 -1.6902
   41CHL1   H2B 4189   0.271   4.750   5.894 -0.6729  2.6343  0.0047
   41CHL1   C20 4190   0.340   4.800   4.940  0.2244  1.0081 -0.1614
   41CHL1   H20 4191   0.232   4.828   4.938 -0.4261 -1.2529  0.3008
   41CHL1   C21 4192   0.332   4.642   4.955  0.4971  0.3693  0.2196
   41CHL1  H21A 4193   0.235   4.623   5.006 -0.8432 -1.5674 -2.7402
   41CHL1  H21B 4194   0.421   4.599   5.004 -0.3474  0.6149  2.0444
   41CHL1  H21C 4195   0.304   4.599   4.857 -1.9806  2.4107 -0.0772
   41CHL1   C22 4196   0.393   4.845   4.801 -0.6215 -0.9108  0.6567
   41CHL1  H22A 4197   0.391   4.955   4.789 -0.7742 -0.9564  0.2585
   41CHL1  H22B 4198   0.495   4.809   4.772 -0.5251  1.4321 -2.4529
   41CHL1   C23 4199   0.297   4.811   4.689  0.2114  0.1614  0.4610
   41CHL1  H23A 4200   0.283   4.701   4.688  0.0984  0.1540 -1.7241
   41CHL1  H23B 4201   0.203   4.865   4.712  0.6505  0.8544  0.6793
   41CHL1   C24 4202   0.345   4.856   4.553  0.1401  0.0023  0.1678
   41CHL1  H24A 4203   0.348   4.967   4.550 -0.5953  0.0021 -1.0691
   41CHL1  H24B 4204   0.443   4.806   4.534 -1.0627 -1.7817 -1.6905
   41CHL1   C25 4205   0.241   4.820   4.443 -0.3016 -0.0030  0.3439
   41CHL1   H25 4206   0.214   4.713   4.455 -0.7335 -0.2603 -2.4202
   41CHL1   C26 4207   0.113   4.902   4.444 -0.6277 -0.0416 -0.3903
   41CHL1  H26A 4208   0.140   5.007   4.421  0.6090 -0.3507 -0.4494
   41CHL1  H26B 4209   0.040   4.868   4.367  0.9717 -1.8405 -1.2330
   41CHL1  H26C 4210   0.068   4.898   4.545 -1.1941  1.3040 -0.5785
   41CHL1   C27 4211   0.305   4.833   4.302  0.0499  0.1767  0.2102
   41CHL1  H27A 4212   0.305   4.931   4.250 -0.4390 -0.5285 -1.1643
   41CHL1  H27B 4213   0.406   4.787   4.312 -0.1564 -0.1601  0.8339
   41CHL1  H27C 4214   0.258   4.758   4.235  0.1515 -1.0406  1.4501
   42CHL1    C3 4215   5.078   3.684   6.566 -0.0115  0.1571  0.5128
   42CHL1    H3 4216   5.160   3.610   6.559  0.0913  0.3051  0.1185
   42CHL1    O3 4217   5.043   3.715   6.701 -0.3004 -0.3897 -0.1968
   42CHL1   H3' 4218   4.964   3.769   6.697 -1.8163 -2.5166 -1.4688
   42CHL1    C4 4219   5.126   3.813   6.487 -0.5582  0.8957 -0.2549
   42CHL1   H4A 4220   5.057   3.897   6.510  0.9639  2.0999  0.0770
   42CHL1   H4B 4221   5.225   3.834   6.534 -0.3753  1.4629 -0.8933
   42CHL1    C5 4222   5.144   3.800   6.339 -0.0426  0.6905 -0.0709
   42CHL1    C6 4223   5.254   3.833   6.271 -0.2749 -0.1842 -0.6551
   42CHL1    H6 4224   5.337   3.877   6.330  0.3201 -1.3741 -0.5775
   42CHL1    C7 4225   5.268   3.825   6.124 -0.3669  0.4187  0.5759
   42CHL1   H7A 4226   5.336   3.905   6.086 -1.0946  0.9459  0.3499
   42CHL1   H7B 4227   5.321   3.730   6.103 -1.5337  0.2115 -1.7741
   42CHL1    C8 4228   5.138   3.812   6.051 -0.2197 -0.6879  1.1024
   42CHL1    H8 4229   5.096   3.915   6.046  1.0419 -0.0938  2.2818
   42CHL1   C14 4230   5.165   3.756   5.912 -0.3849 -0.2410 -0.1556
   42CHL1   H14 4231   5.231   3.667   5.922  0.8269  0.8666  2.3251
   42CHL1   C15 4232   5.264   3.845   5.825 -0.3645  0.4790  0.1200
   42CHL1  H15A 4233   5.228   3.950   5.830 -0.6592  0.3837  0.0080
   42CHL1  H15B 4234   5.367   3.837   5.866 -0.3434  1.0262  0.1772
   42CHL1   C16 4235   5.235   3.801   5.679  0.2679  0.3989 -0.2015
   42CHL1  H16A 4236   5.196   3.875   5.607  0.1907  0.6623  0.1131
   42CHL1  H16B 4237   5.324   3.751   5.634 -1.2240 -0.1545 -2.7480
   42CHL1   C17 4238   5.123   3.693   5.688 -0.2803  0.2244  0.4944
   42CHL1   H17 4239   5.174   3.595   5.697  1.7477  1.3109  1.2642
   42CHL1   C13 4240   5.047   3.727   5.821 -0.1218  0.3263  0.4846
   42CHL1   C18 4241   4.969   3.857   5.803  0.8769 -0.7011 -0.0350
   42CHL1  H18A 4242   4.952   3.915   5.896 -0.4049  1.0090 -1.2934
   42CHL1  H18B 4243   5.001   3.933   5.729 -2.3288 -1.0981 -2.0186
   42CHL1  H18C 4244   4.870   3.836   5.758  0.4229  0.5529  0.3272
   42CHL1   C12 4245   4.963   3.620   5.894 -0.4252 -0.4116  0.6167
   42CHL1  H12A 4246   4.882   3.587   5.824  1.0206 -1.6261 -0.5558
   42CHL1  H12B 4247   5.023   3.527   5.892  0.0948 -0.1288 -2.3553
   42CHL1   C11 4248   4.925   3.661   6.032 -0.0117  0.0953 -0.6776
   42CHL1  H11A 4249   4.862   3.752   6.029  0.9650  0.7593 -1.2949
   42CHL1  H11B 4250   4.861   3.586   6.083  0.4542  0.5936  0.6706
   42CHL1    C9 4251   5.047   3.705   6.120  0.4156 -0.2625  0.0255
   42CHL1    H9 4252   5.116   3.618   6.120  1.4442  0.5360 -0.4726
   42CHL1   C10 4253   5.018   3.739   6.270  0.5068  0.5950 -0.2866
   42CHL1   C19 4254   4.895   3.842   6.264  0.4410  0.3979 -0.2880
   42CHL1  H19A 4255   4.797   3.793   6.243  0.3053  0.5412  0.0209
   42CHL1  H19B 4256   4.892   3.887   6.365 -1.8449  0.0015 -0.1260
   42CHL1  H19C 4257   4.911   3.925   6.192  2.7939  0.8428  0.6570
   42CHL1    C1 4258   4.975   3.612   6.349  0.1580  0.6281 -0.3560
   42CHL1   H1A 4259   4.876   3.581   6.307  1.5046 -1.6023 -2.1324
   42CHL1   H1B 4260   5.042   3.525   6.335 -1.8750 -1.0134 -0.4613
   42CHL1    C2 4261   4.951   3.634   6.507 -0.5891 -0.2281 -0.5282
   42CHL1   H2A 4262   4.933   3.533   6.549  1.9873 -0.4879  0.0778
   42CHL1   H2B 4263   4.862   3.699   6.524  0.4779  1.0427  0.4330
   42CHL1   C20 4264   5.039   3.673   5.556  0.0344 -0.5087 -0.3902
   42CHL1   H20 4265   5.004   3.777   5.536  2.1326  0.4833  0.6549
   42CHL1   C21 4266   4.927   3.569   5.565  0.4359  0.4174 -0.0808
   42CHL1  H21A 4267   4.967   3.491   5.633 -0.1508  0.4754  0.3415
   42CHL1  H21B 4268   4.882   3.544   5.466  2.6178 -1.1284 -0.7397
   42CHL1  H21C 4269   4.842   3.611   5.624 -0.2813  1.7761 -1.9763
   42CHL1   C22 4270   5.141   3.641   5.437  0.0797 -0.2289 -0.0582
   42CHL1  H22A 4271   5.214   3.725   5.431  1.2215 -1.1948 -0.0646
   42CHL1  H22B 4272   5.194   3.549   5.470  0.5938  0.8935  2.5501
   42CHL1   C23 4273   5.075   3.624   5.304  0.2025 -0.7753 -0.0127
   42CHL1  H23A 4274   5.015   3.531   5.304 -0.8734 -0.1250  1.2998
   42CHL1  H23B 4275   4.998   3.704   5.298 -1.0657 -1.8756  0.8610
   42CHL1   C24 4276   5.171   3.644   5.186 -0.2616 -0.3066 -0.0065
   42CHL1  H24A 4277   5.193   3.753   5.183  0.0702 -0.3468  0.7387
   42CHL1  H24B 4278   5.268   3.592   5.190  1.1728  2.2035  0.1515
   42CHL1   C25 4279   5.121   3.602   5.043  0.3969  0.1418 -0.2627
   42CHL1   H25 4280   5.113   3.492   5.055 -1.5354  0.3066  0.3200
   42CHL1   C26 4281   4.986   3.672   5.011  0.2394 -0.8864  0.7486
   42CHL1  H26A 4282   4.966   3.665   4.902 -1.4176  2.5042  0.6963
   42CHL1  H26B 4283   4.902   3.630   5.070  0.1191 -2.1892 -0.2982
   42CHL1  H26C 4284   4.988   3.780   5.037 -1.4107 -0.8988  1.0207
   42CHL1   C27 4285   5.225   3.635   4.934  0.6433 -0.1075  0.7100
   42CHL1  H27A 4286   5.326   3.594   4.958 -0.7306 -2.4639  3.1678
   42CHL1  H27B 4287   5.190   3.589   4.839  1.2651 -0.6199  0.7197
   42CHL1  H27C 4288   5.234   3.744   4.917 -0.9595 -0.0604 -0.0264
   43CHL1    C3 4289   5.989   2.143   5.732  0.8554  0.1952  0.6893
   43CHL1    H3 4290   5.892   2.195   5.741  1.8991  2.4591 -0.3445
   43CHL1    O3 4291   6.030   2.086   5.859 -0.4046 -0.6138  1.0563
   43CHL1   H3' 4292   6.095   2.019   5.837 -0.2409 -0.2482  0.4186
   43CHL1    C4 4293   5.978   2.021   5.633 -0.0718  0.1638 -0.5878
   43CHL1   H4A 4294   6.073   1.963   5.632  2.1346  3.5318 -0.2378
   43CHL1   H4B 4295   5.894   1.962   5.674  0.7991  0.1191  1.2080
   43CHL1    C5 4296   5.954   2.065   5.488 -0.0758  0.1986  0.4909
   43CHL1    C6 4297   5.841   2.014   5.426 -1.1253  0.0205 -0.3011
   43CHL1    H6 4298   5.780   1.933   5.467  0.1158 -0.1114  1.4284
   43CHL1    C7 4299   5.813   2.047   5.281  0.6977 -0.9068 -0.1167
   43CHL1   H7A 4300   5.779   1.960   5.221  0.9105 -0.4593 -0.8900
   43CHL1   H7B 4301   5.722   2.110   5.290  1.0702 -0.5319  1.4439
   43CHL1    C8 4302   5.922   2.127   5.205 -0.2662 -0.0034 -0.3549
   43CHL1    H8 4303   6.003   2.060   5.169  2.2148  1.5826  1.9008
   43CHL1   C14 4304   5.857   2.193   5.082 -0.6906  0.3507  0.3464
   43CHL1   H14 4305   5.778   2.260   5.121 -1.8332  0.3577 -1.8117
   43CHL1   C15 4306   5.779   2.110   4.990  0.1683  0.4207 -0.0068
   43CHL1  H15A 4307   5.837   2.016   4.981  0.1209  0.0365  2.7153
   43CHL1  H15B 4308   5.684   2.088   5.043  0.6054 -0.2995  0.4983
   43CHL1   C16 4309   5.775   2.190   4.866  0.0885 -0.3137  0.4189
   43CHL1  H16A 4310   5.818   2.123   4.788 -0.3979  1.2431 -1.2607
   43CHL1  H16B 4311   5.670   2.209   4.834  0.6519 -0.6197 -1.8306
   43CHL1   C17 4312   5.860   2.318   4.885 -0.7868 -0.4246 -0.2151
   43CHL1   H17 4313   5.779   2.383   4.924 -0.9563  1.4431 -3.3711
   43CHL1   C13 4314   5.952   2.279   5.007  0.9096 -0.5161 -0.1467
   43CHL1   C18 4315   6.071   2.204   4.942 -0.0800 -0.2368 -0.5590
   43CHL1  H18A 4316   6.135   2.146   5.011 -0.5653  0.7383  0.7470
   43CHL1  H18B 4317   6.034   2.157   4.848  2.0704  2.2868 -2.8450
   43CHL1  H18C 4318   6.138   2.286   4.908 -0.6130  0.5445  0.2268
   43CHL1   C12 4319   5.993   2.399   5.104 -0.7081  0.1874  0.1090
   43CHL1  H12A 4320   6.038   2.486   5.051  0.5847  1.3120  2.8612
   43CHL1  H12B 4321   5.901   2.441   5.148 -1.4190 -1.0011 -0.1793
   43CHL1   C11 4322   6.069   2.338   5.227 -0.2854 -0.4891 -0.2682
   43CHL1  H11A 4323   6.157   2.284   5.185 -0.8781 -2.8765  1.3494
   43CHL1  H11B 4324   6.095   2.422   5.295 -1.0597 -1.2261  0.9792
   43CHL1    C9 4325   5.985   2.233   5.302  0.4142  0.6798 -0.3926
   43CHL1    H9 4326   5.901   2.299   5.333  0.0959  0.8465 -1.5566
   43CHL1   C10 4327   6.046   2.177   5.432 -0.5960  0.0973 -0.0952
   43CHL1   C19 4328   6.181   2.119   5.386 -0.0901  0.6961  0.4385
   43CHL1  H19A 4329   6.243   2.080   5.470 -1.8667  0.0470  1.4969
   43CHL1  H19B 4330   6.178   2.046   5.303 -1.4447 -0.9896  1.8961
   43CHL1  H19C 4331   6.245   2.205   5.355 -0.7368  0.5569 -1.4318
   43CHL1    C1 4332   6.081   2.287   5.538  0.4315  0.4606 -0.2139
   43CHL1   H1A 4333   6.176   2.335   5.508  1.3910 -0.4070  1.3059
   43CHL1   H1B 4334   5.999   2.362   5.535 -0.1680 -0.1849 -0.2561
   43CHL1    C2 4335   6.094   2.250   5.689  0.3306  0.8740 -0.1529
   43CHL1   H2A 4336   6.083   2.338   5.756 -0.6753 -0.6727  1.8574
   43CHL1   H2B 4337   6.195   2.207   5.702 -0.8255 -1.8295  0.7893
   43CHL1   C20 4338   5.910   2.388   4.764 -0.3564  0.0151  0.5540
   43CHL1   H20 4339   6.016   2.363   4.744  0.0255  3.2861 -2.5362
   43CHL1   C21 4340   5.907   2.544   4.771  0.8479  0.2122 -0.7608
   43CHL1  H21A 4341   5.966   2.572   4.861 -0.0728  0.5099 -0.2314
   43CHL1  H21B 4342   5.806   2.581   4.800  1.5326  1.1277  0.5814
   43CHL1  H21C 4343   5.941   2.599   4.681 -0.6492  3.1790  0.3424
   43CHL1   C22 4344   5.827   2.354   4.634 -0.3649 -0.3216 -0.0300
   43CHL1  H22A 4345   5.837   2.243   4.623  1.0907 -0.4485  1.9031
   43CHL1  H22B 4346   5.718   2.373   4.644  0.1092  2.4710  0.5451
   43CHL1   C23 4347   5.856   2.428   4.499  0.0453 -0.7547  0.1100
   43CHL1  H23A 4348   5.860   2.538   4.511  1.8551 -1.0059  2.5279
   43CHL1  H23B 4349   5.955   2.388   4.468 -0.2597  0.4388 -2.7488
   43CHL1   C24 4350   5.761   2.380   4.381  0.0985  0.2830 -0.7703
   43CHL1  H24A 4351   5.776   2.270   4.368  1.5692  0.5260 -1.4186
   43CHL1  H24B 4352   5.659   2.393   4.422  0.3712  0.3752 -0.1040
   43CHL1   C25 4353   5.782   2.434   4.239  0.1814  0.0217 -0.6552
   43CHL1   H25 4354   5.722   2.368   4.174 -0.4417 -0.4073  0.3354
   43CHL1   C26 4355   5.708   2.574   4.226  0.6676  0.7241 -0.6882
   43CHL1  H26A 4356   5.601   2.558   4.200  0.5798 -0.3359  0.2453
   43CHL1  H26B 4357   5.715   2.632   4.320 -1.4068 -0.0147 -0.0109
   43CHL1  H26C 4358   5.759   2.629   4.145  1.4190 -0.9784 -1.4354
   43CHL1   C27 4359   5.931   2.447   4.196 -0.1599 -0.3231  0.7376
   43CHL1  H27A 4360   5.992   2.501   4.272  0.4435 -0.5281  0.4062
   43CHL1  H27B 4361   5.976   2.349   4.173 -0.7068 -0.3569 -0.2871
   43CHL1  H27C 4362   5.920   2.502   4.100  1.1218  0.6965  1.1394
   44CHL1    C3 4363   6.496   3.143   5.875  0.0743  0.0552 -0.0007
   44CHL1    H3 4364   6.513   3.035   5.853 -4.2844 -0.8271  0.0822
   44CHL1    O3 4365   6.486   3.146   6.020 -0.2901 -0.5083  0.3606
   44CHL1   H3' 4366   6.573   3.125   6.053  0.6138  1.1765 -0.7948
   44CHL1    C4 4367   6.609   3.237   5.819  0.4499  0.0753 -0.0949
   44CHL1   H4A 4368   6.583   3.333   5.868 -1.0563 -0.6368  0.5365
   44CHL1   H4B 4369   6.706   3.200   5.860  1.0148 -1.9335 -2.8984
   44CHL1    C5 4370   6.612   3.237   5.668  0.7369 -0.1825  0.5056
   44CHL1    C6 4371   6.729   3.210   5.610  0.5116  0.3118  1.3107
   44CHL1    H6 4372   6.822   3.195   5.665  1.8100  1.1279 -0.5589
   44CHL1    C7 4373   6.741   3.228   5.459 -0.1139 -0.2106 -0.3954
   44CHL1   H7A 4374   6.831   3.290   5.439 -1.2553  1.6191 -0.0419
   44CHL1   H7B 4375   6.751   3.130   5.406 -4.4076 -0.8223 -0.4583
   44CHL1    C8 4376   6.617   3.291   5.390  0.0745  0.0765 -0.0038
   44CHL1    H8 4377   6.618   3.401   5.408 -1.6023  0.5573 -2.3897
   44CHL1   C14 4378   6.618   3.271   5.236 -1.1218  0.4665  0.4201
   44CHL1   H14 4379   6.621   3.161   5.224 -0.3947  0.4928  0.3418
   44CHL1   C15 4380   6.742   3.336   5.172  0.3723 -0.2297 -0.2788
   44CHL1  H15A 4381   6.764   3.435   5.217 -0.6752  0.2971 -0.8897
   44CHL1  H15B 4382   6.820   3.257   5.169  0.6093  0.0410 -2.6970
   44CHL1   C16 4383   6.695   3.361   5.028 -0.4118  0.5245  0.7611
   44CHL1  H16A 4384   6.704   3.469   5.003  0.1042  0.4810  0.7473
   44CHL1  H16B 4385   6.759   3.308   4.954  0.6471  1.1539  1.1983
   44CHL1   C17 4386   6.545   3.309   5.017 -0.2621  0.5647  0.2425
   44CHL1   H17 4387   6.565   3.200   5.005  2.7899  1.1560 -0.9284
   44CHL1   C13 4388   6.496   3.324   5.160 -0.0898 -0.6215 -1.4859
   44CHL1   C18 4389   6.478   3.470   5.190  0.9485  0.5669  0.2267
   44CHL1  H18A 4390   6.472   3.494   5.298 -0.7052  2.3861 -0.2158
   44CHL1  H18B 4391   6.547   3.534   5.131 -2.1001 -0.2183 -4.7429
   44CHL1  H18C 4392   6.376   3.491   5.152  1.0758 -1.3645 -1.3750
   44CHL1   C12 4393   6.381   3.240   5.199 -0.6035 -0.1850 -0.8879
   44CHL1  H12A 4394   6.290   3.271   5.144 -1.2343  0.8110  0.6388
   44CHL1  H12B 4395   6.409   3.136   5.170  1.0486  0.6328 -2.3986
   44CHL1   C11 4396   6.358   3.255   5.353  0.0987 -0.4736 -0.1708
   44CHL1  H11A 4397   6.322   3.358   5.372 -1.3968 -0.8943 -0.6203
   44CHL1  H11B 4398   6.276   3.184   5.378  0.7699 -0.4095  2.5831
   44CHL1    C9 4399   6.489   3.226   5.442  0.3385  0.1440 -0.1396
   44CHL1    H9 4400   6.507   3.118   5.430  1.5452  0.2372  0.7000
   44CHL1   C10 4401   6.475   3.257   5.593 -0.2517 -0.1342  0.8681
   44CHL1   C19 4402   6.441   3.414   5.618  0.4464 -0.0130 -0.5828
   44CHL1  H19A 4403   6.444   3.438   5.726  0.1089  0.1957 -0.6176
   44CHL1  H19B 4404   6.514   3.479   5.564  1.3703  0.6776  1.3845
   44CHL1  H19C 4405   6.341   3.427   5.572 -0.1421 -0.1112  0.6449
   44CHL1    C1 4406   6.375   3.158   5.657 -0.0647 -0.6528  0.4360
   44CHL1   H1A 4407   6.275   3.185   5.616  0.8353  0.7754 -0.9514
   44CHL1   H1B 4408   6.399   3.055   5.625  1.3306  0.1719 -1.3941
   44CHL1    C2 4409   6.356   3.176   5.813  0.2072  0.1387  0.1098
   44CHL1   H2A 4410   6.283   3.102   5.853 -0.5594  0.7549 -0.1011
   44CHL1   H2B 4411   6.319   3.277   5.844  0.1489  0.3337 -0.5877
   44CHL1   C20 4412   6.464   3.349   4.890  0.1624  0.3433  0.1506
   44CHL1   H20 4413   6.360   3.313   4.901 -0.6278  1.4732 -2.6867
   44CHL1   C21 4414   6.533   3.281   4.768 -0.0096  0.1718  0.6687
   44CHL1  H21A 4415   6.575   3.185   4.804 -1.4458 -0.5069  0.6208
   44CHL1  H21B 4416   6.609   3.345   4.718 -1.4987 -0.4470 -2.7157
   44CHL1  H21C 4417   6.463   3.264   4.683  0.6806  1.3505 -0.1773
   44CHL1   C22 4418   6.450   3.501   4.858 -0.2485 -0.0745 -0.1121
   44CHL1  H22A 4419   6.395   3.553   4.939  0.0120  1.9682 -1.1723
   44CHL1  H22B 4420   6.555   3.532   4.838  0.6432 -1.8600  1.4652
   44CHL1   C23 4421   6.362   3.525   4.736 -0.6465  0.7239 -0.2604
   44CHL1  H23A 4422   6.408   3.486   4.642  2.7636 -1.6807  2.1775
   44CHL1  H23B 4423   6.264   3.478   4.761 -0.9607  2.2446  1.6510
   44CHL1   C24 4424   6.327   3.671   4.701 -0.4855  0.8124 -0.0812
   44CHL1  H24A 4425   6.273   3.706   4.792  0.5771  0.0218  0.8977
   44CHL1  H24B 4426   6.421   3.730   4.698  0.4898 -0.5300  1.4979
   44CHL1   C25 4427   6.257   3.685   4.570  0.3766 -0.1329 -0.2263
   44CHL1   H25 4428   6.323   3.651   4.487  0.7003  3.7915 -1.8066
   44CHL1   C26 4429   6.120   3.601   4.565 -0.3666 -0.2997  0.0037
   44CHL1  H26A 4430   6.073   3.625   4.468  0.3173 -1.5513 -0.6600
   44CHL1  H26B 4431   6.150   3.495   4.561  2.1922  0.3492  0.2789
   44CHL1  H26C 4432   6.063   3.618   4.659  2.9505  2.2260  1.7732
   44CHL1   C27 4433   6.217   3.833   4.547  0.4226 -0.4288  0.2534
   44CHL1  H27A 4434   6.308   3.895   4.562 -0.6167  1.6304 -1.3248
   44CHL1  H27B 4435   6.176   3.843   4.444 -0.5463  0.0764  0.6731
   44CHL1  H27C 4436   6.134   3.850   4.618  0.3454 -1.7048  0.4739
   45CHL1    C3 4437   6.211   4.649   5.953 -0.1611  1.0431  0.5117
   45CHL1    H3 4438   6.242   4.756   5.947  0.2040  0.8685 -1.3836
   45CHL1    O3 4439   6.213   4.613   6.088  0.0006 -0.2004 -0.5516
   45CHL1   H3' 4440   6.223   4.699   6.128 -0.3091  0.2705 -1.4623
   45CHL1    C4 4441   6.072   4.644   5.891  0.4508 -0.1319 -0.4341
   45CHL1   H4A 4442   6.019   4.547   5.901  2.6932 -1.4808 -1.0054
   45CHL1   H4B 4443   6.020   4.719   5.954  0.1025  0.3209 -1.2392
   45CHL1    C5 4444   6.067   4.693   5.745  0.1708  0.0343 -0.3178
   45CHL1    C6 4445   5.993   4.801   5.708  0.1976 -0.4053  0.3413
   45CHL1    H6 4446   5.939   4.852   5.789  2.2079  0.0102  1.5004
   45CHL1    C7 4447   5.985   4.848   5.561 -0.2026  0.2711 -0.7730
   45CHL1   H7A 4448   5.880   4.869   5.529  0.3037 -1.1456 -3.6745
   45CHL1   H7B 4449   6.048   4.940   5.553 -0.6552  0.6568 -0.0299
   45CHL1    C8 4450   6.044   4.746   5.465 -0.5956  0.1300 -0.5346
   45CHL1    H8 4451   5.976   4.659   5.456  0.5263 -0.5558 -3.2036
   45CHL1   C14 4452   6.072   4.807   5.336 -0.1336 -0.3144 -0.2164
   45CHL1   H14 4453   6.159   4.876   5.345  0.0187 -0.3098 -1.4602
   45CHL1   C15 4454   5.955   4.894   5.272 -0.3932 -0.4767 -0.5570
   45CHL1  H15A 4455   5.854   4.851   5.287  0.1531 -1.8839 -0.8016
   45CHL1  H15B 4456   5.957   5.001   5.304 -0.0272  0.3235 -3.0827
   45CHL1   C16 4457   5.972   4.882   5.123 -0.1172  0.5765 -0.0935
   45CHL1  H16A 4458   5.888   4.821   5.086 -0.3225  0.7834  0.0303
   45CHL1  H16B 4459   5.953   4.981   5.076 -0.8756  0.5740  0.1899
   45CHL1   C17 4460   6.104   4.798   5.104  0.2553  0.3098  0.1832
   45CHL1   H17 4461   6.190   4.869   5.108 -0.3977  1.1471 -0.3351
   45CHL1   C13 4462   6.112   4.705   5.227  0.4842  0.7176 -0.0293
   45CHL1   C18 4463   6.016   4.582   5.219 -0.2879 -0.4461  0.2333
   45CHL1  H18A 4464   5.987   4.527   5.311 -0.2602  0.8042  1.0119
   45CHL1  H18B 4465   5.916   4.615   5.182 -0.8778 -1.7245  0.6367
   45CHL1  H18C 4466   6.050   4.507   5.145  0.9123  0.8176 -0.5413
   45CHL1   C12 4467   6.254   4.649   5.266  0.4345 -0.6639  0.8912
   45CHL1  H12A 4468   6.283   4.564   5.200 -4.1150  0.7732 -3.5340
   45CHL1  H12B 4469   6.329   4.730   5.255 -0.2564 -0.0840  0.4075
   45CHL1   C11 4470   6.247   4.598   5.410 -0.2533  0.2349 -0.0102
   45CHL1  H11A 4471   6.192   4.502   5.400  0.2306 -0.2356  1.6119
   45CHL1  H11B 4472   6.353   4.584   5.439  0.0712  0.4643 -1.0365
   45CHL1    C9 4473   6.178   4.686   5.517  0.3867 -0.2026 -1.2617
   45CHL1    H9 4474   6.236   4.780   5.530  0.2721 -0.2520 -0.3627
   45CHL1   C10 4475   6.167   4.615   5.656  0.3299 -0.2518 -0.0581
   45CHL1   C19 4476   6.095   4.482   5.643 -0.4031 -0.3719 -0.8046
   45CHL1  H19A 4477   5.992   4.496   5.602 -0.8634 -0.5397  0.2491
   45CHL1  H19B 4478   6.150   4.417   5.571  2.1011  1.4212 -0.6155
   45CHL1  H19C 4479   6.096   4.429   5.740 -0.9432 -2.7286 -1.9971
   45CHL1    C1 4480   6.305   4.597   5.721  0.6607  0.0825 -0.0833
   45CHL1   H1A 4481   6.377   4.533   5.666  1.9263  0.2414  1.3040
   45CHL1   H1B 4482   6.347   4.700   5.717  1.1499 -0.1229 -0.4284
   45CHL1    C2 4483   6.304   4.554   5.872  0.4373  0.2105 -0.2351
   45CHL1   H2A 4484   6.408   4.565   5.908  1.3461  0.7128 -2.7765
   45CHL1   H2B 4485   6.267   4.450   5.883 -0.8906  0.8696  2.2097
   45CHL1   C20 4486   6.109   4.736   4.966 -0.0221  0.2158  1.1012
   45CHL1   H20 4487   6.027   4.665   4.943 -0.2180  1.0866 -1.2585
   45CHL1   C21 4488   6.243   4.662   4.939  0.7834 -0.5408  0.3095
   45CHL1  H21A 4489   6.246   4.635   4.831 -3.7923  0.9192 -0.4019
   45CHL1  H21B 4490   6.261   4.573   5.002  3.4864 -0.5927 -0.3932
   45CHL1  H21C 4491   6.318   4.739   4.967 -0.8448  1.0067  0.5562
   45CHL1   C22 4492   6.084   4.841   4.846 -0.2255 -0.2162  0.1729
   45CHL1  H22A 4493   5.986   4.891   4.862 -0.0644  0.0783  0.2356
   45CHL1  H22B 4494   6.168   4.914   4.844 -0.0462 -0.3340  1.9728
   45CHL1   C23 4495   6.067   4.785   4.706 -0.1078 -0.7245  0.7584
   45CHL1  H23A 4496   6.036   4.869   4.640 -2.2886 -0.6130  1.8126
   45CHL1  H23B 4497   6.168   4.754   4.673 -0.3718 -2.5978  1.5814
   45CHL1   C24 4498   5.962   4.673   4.696  0.1110  0.3192  0.6620
   45CHL1  H24A 4499   5.966   4.632   4.593  0.2559  1.3562  0.2397
   45CHL1  H24B 4500   6.001   4.591   4.759  1.0760  0.6650  0.5350
   45CHL1   C25 4501   5.811   4.697   4.712 -0.7387 -0.1854 -0.2072
   45CHL1   H25 4502   5.794   4.751   4.808 -2.5099  0.6645 -0.9555
   45CHL1   C26 4503   5.774   4.799   4.597  0.2912  0.5883  0.8942
   45CHL1  H26A 4504   5.795   4.766   4.493  1.1592  2.2300  0.5088
   45CHL1  H26B 4505   5.664   4.817   4.593  0.5626  2.1450 -1.1445
   45CHL1  H26C 4506   5.825   4.897   4.606  0.6656  0.5879 -0.8392
   45CHL1   C27 4507   5.727   4.576   4.678 -0.6875 -0.5617 -0.1693
   45CHL1  H27A 4508   5.754   4.496   4.750  1.1877 -1.0777 -1.3691
   45CHL1  H27B 4509   5.621   4.609   4.685 -0.3269  0.6330 -0.1170
   45CHL1  H27C 4510   5.752   4.543   4.575 -0.5229 -1.4442  0.1466
   46CHL1    C3 4511   1.353   5.675   6.040 -0.1500  0.0187 -0.1486
   46CHL1    H3 4512   1.415   5.590   6.006  0.6374  0.4686  0.1265
   46CHL1    O3 4513   1.334   5.690   6.183  0.1916  0.3880  0.4330
   46CHL1   H3' 4514   1.322   5.783   6.202 -0.8724  0.3460  0.0493
   46CHL1    C4 4515   1.431   5.800   6.003 -0.2292 -0.9137 -0.0028
   46CHL1   H4A 4516   1.380   5.889   6.045 -0.6822 -1.2785  0.2328
   46CHL1   H4B 4517   1.531   5.786   6.049  0.7598 -1.5399 -2.1881
   46CHL1    C5 4518   1.436   5.814   5.851 -0.0250  0.3812 -0.6882
   46CHL1    C6 4519   1.554   5.834   5.794  0.2557  0.5133 -0.5861
   46CHL1    H6 4520   1.643   5.843   5.858  0.9853 -2.1916 -1.0624
   46CHL1    C7 4521   1.576   5.846   5.648 -0.2360 -0.4491  0.5899
   46CHL1   H7A 4522   1.610   5.950   5.626  0.1542 -0.7817 -0.4657
   46CHL1   H7B 4523   1.644   5.766   5.612  0.5174  0.7868 -0.8773
   46CHL1    C8 4524   1.449   5.840   5.563 -0.5225  0.1814 -0.0970
   46CHL1    H8 4525   1.409   5.944   5.563  1.3590  0.9538  0.8366
   46CHL1   C14 4526   1.488   5.803   5.418  1.0922  0.3590  0.2142
   46CHL1   H14 4527   1.528   5.700   5.430 -0.3699 -0.2423  0.1451
   46CHL1   C15 4528   1.592   5.886   5.339  0.1511 -0.3538  0.0698
   46CHL1  H15A 4529   1.577   5.996   5.347  0.1449 -0.3950  0.6134
   46CHL1  H15B 4530   1.699   5.864   5.359  0.7063  1.0646 -1.1185
   46CHL1   C16 4531   1.568   5.849   5.190  0.0654  0.3395 -0.0181
   46CHL1  H16A 4532   1.550   5.945   5.136  1.1116 -0.6247 -2.2070
   46CHL1  H16B 4533   1.655   5.800   5.142  1.3259  3.0645 -0.7009
   46CHL1   C17 4534   1.446   5.741   5.193 -0.2673 -0.6177 -0.1844
   46CHL1   H17 4535   1.500   5.646   5.209 -0.8348 -0.8324  0.5449
   46CHL1   C13 4536   1.367   5.780   5.323  1.1074 -0.1105 -0.2936
   46CHL1   C18 4537   1.283   5.911   5.312 -0.3806  0.0730 -0.3539
   46CHL1  H18A 4538   1.336   5.997   5.265 -0.5183  0.3624  0.0229
   46CHL1  H18B 4539   1.204   5.894   5.236 -0.1382 -2.2264 -0.1721
   46CHL1  H18C 4540   1.242   5.956   5.404 -1.8009  0.4683 -1.1456
   46CHL1   C12 4541   1.268   5.674   5.383  0.2047 -0.2202 -0.5313
   46CHL1  H12A 4542   1.175   5.674   5.323  0.2364  1.0841 -0.6187
   46CHL1  H12B 4543   1.303   5.569   5.376 -0.0786 -0.7668  3.5664
   46CHL1   C11 4544   1.228   5.707   5.535  0.5998 -0.0350  0.6267
   46CHL1  H11A 4545   1.149   5.784   5.522 -0.2863 -0.8254  1.2353
   46CHL1  H11B 4546   1.174   5.621   5.578 -0.3320  1.2870  2.2126
   46CHL1    C9 4547   1.352   5.738   5.625  0.6910 -0.6885  0.1515
   46CHL1    H9 4548   1.410   5.644   5.640 -0.7603 -1.5304  0.6500
   46CHL1   C10 4549   1.313   5.779   5.768  0.5066 -0.2235  0.0486
   46CHL1   C19 4550   1.220   5.904   5.766 -0.0372 -0.1863 -0.8777
   46CHL1  H19A 4551   1.185   5.931   5.868  0.6862 -0.8821 -0.4306
   46CHL1  H19B 4552   1.281   5.989   5.730  2.3993 -1.5328 -0.1271
   46CHL1  H19C 4553   1.131   5.873   5.708 -1.6177  0.5257  1.0444
   46CHL1    C1 4554   1.227   5.661   5.828 -0.0028  0.0661 -0.0928
   46CHL1   H1A 4555   1.123   5.672   5.791  0.1003  0.6262 -0.2297
   46CHL1   H1B 4556   1.262   5.565   5.784 -2.2857 -1.1136  0.5617
   46CHL1    C2 4557   1.215   5.657   5.980  0.2566 -0.1933 -0.0757
   46CHL1   H2A 4558   1.161   5.564   6.007 -2.5778  0.9155 -1.4305
   46CHL1   H2B 4559   1.157   5.746   6.014  1.5189  0.2690  0.9221
   46CHL1   C20 4560   1.364   5.728   5.065 -0.0484  0.1581 -0.4787
   46CHL1   H20 4561   1.261   5.697   5.096  0.0669  0.0819 -0.1594
   46CHL1   C21 4562   1.424   5.596   4.993  0.3669 -0.5132 -0.3837
   46CHL1  H21A 4563   1.363   5.564   4.905  0.5149 -2.9691  0.3350
   46CHL1  H21B 4564   1.423   5.510   5.063 -2.4033 -0.6223 -0.4375
   46CHL1  H21C 4565   1.523   5.631   4.956 -0.7741  2.7387 -0.6278
   46CHL1   C22 4566   1.359   5.853   4.981 -0.2674  0.3262 -0.1203
   46CHL1  H22A 4567   1.340   5.936   5.053  2.2286  0.8896 -0.0137
   46CHL1  H22B 4568   1.453   5.868   4.925 -0.5902 -0.1243 -0.8060
   46CHL1   C23 4569   1.253   5.846   4.879 -0.2259  0.1889 -0.4623
   46CHL1  H23A 4570   1.252   5.741   4.841 -1.3345  0.5605 -1.5446
   46CHL1  H23B 4571   1.155   5.851   4.931  0.5220  0.4373  0.9642
   46CHL1   C24 4572   1.263   5.937   4.756 -0.3076  0.7569  0.3436
   46CHL1  H24A 4573   1.269   6.041   4.795 -0.3474 -0.0384  2.6328
   46CHL1  H24B 4574   1.358   5.925   4.700 -0.7140 -0.0624 -0.1914
   46CHL1   C25 4575   1.149   5.909   4.661 -0.4146 -0.3139  0.6896
   46CHL1   H25 4576   1.053   5.930   4.712 -0.5628  1.0208 -0.0926
   46CHL1   C26 4577   1.155   6.014   4.546 -0.0374 -0.0737  0.1294
   46CHL1  H26A 4578   1.168   6.110   4.599 -1.8385  0.6920 -0.7388
   46CHL1  H26B 4579   1.247   5.998   4.487  0.5436  1.0275  0.7131
   46CHL1  H26C 4580   1.064   6.016   4.482  0.6555 -0.4358 -0.8855
   46CHL1   C27 4581   1.137   5.764   4.606  0.1780 -1.7684 -0.2000
   46CHL1  H27A 4582   1.146   5.688   4.685  0.1662 -3.5762 -1.8619
   46CHL1  H27B 4583   1.041   5.757   4.550 -0.3063  1.8064 -0.0902
   46CHL1  H27C 4584   1.227   5.735   4.547  1.9603 -2.4320  2.6738
   47CHL1    C3 4585   3.708   4.772   6.446  0.3382 -0.1036 -0.1602
   47CHL1    H3 4586   3.636   4.688   6.435 -1.4964  1.4279 -0.1986
   47CHL1    O3 4587   3.721   4.783   6.590 -0.1794 -0.1564  0.1156
   47CHL1   H3' 4588   3.787   4.852   6.599 -0.4367  0.5897 -2.7371
   47CHL1    C4 4589   3.850   4.747   6.383  0.6106 -0.4050  0.0864
   47CHL1   H4A 4590   3.905   4.838   6.415 -0.8052  1.1224 -1.5447
   47CHL1   H4B 4591   3.904   4.657   6.419  1.8914  0.0046 -0.7501
   47CHL1    C5 4592   3.837   4.758   6.233  0.1502 -0.1514  0.0427
   47CHL1    C6 4593   3.888   4.663   6.151 -0.4387 -0.0664 -0.1168
   47CHL1    H6 4594   3.948   4.583   6.197  0.8227  2.1156  2.2300
   47CHL1    C7 4595   3.891   4.676   6.004  0.1567  0.3827  0.6151
   47CHL1   H7A 4596   3.995   4.643   5.982  0.3944 -1.1226  3.5124
   47CHL1   H7B 4597   3.825   4.595   5.967  1.1841  0.4966 -1.6177
   47CHL1    C8 4598   3.868   4.813   5.947  0.5476  0.5291 -0.3997
   47CHL1    H8 4599   3.956   4.876   5.971  0.6741  1.0097 -2.0240
   47CHL1   C14 4600   3.844   4.812   5.795 -0.7344 -1.0255 -0.2788
   47CHL1   H14 4601   3.767   4.735   5.774 -0.5568 -1.5286  0.8274
   47CHL1   C15 4602   3.966   4.764   5.709  0.0632 -0.2541 -0.8828
   47CHL1  H15A 4603   4.051   4.810   5.765 -0.8270 -0.4249  0.6554
   47CHL1  H15B 4604   3.985   4.656   5.690  2.7431 -0.2766  1.1678
   47CHL1   C16 4605   3.949   4.838   5.571  0.1319  0.5711 -0.4950
   47CHL1  H16A 4606   4.040   4.897   5.547  2.4376 -2.3717  0.3162
   47CHL1  H16B 4607   3.951   4.765   5.488  1.3524 -0.9858  0.8197
   47CHL1   C17 4608   3.811   4.912   5.580 -0.8978  0.1628 -0.9806
   47CHL1   H17 4609   3.733   4.835   5.562  1.4468 -3.3313  2.1306
   47CHL1   C13 4610   3.799   4.944   5.737  0.0672 -0.0803 -0.6867
   47CHL1   C18 4611   3.894   5.065   5.761 -0.6768 -0.2640 -0.0453
   47CHL1  H18A 4612   3.996   5.047   5.722 -0.9897 -1.6163 -0.2897
   47CHL1  H18B 4613   3.847   5.152   5.709  0.2690  0.8920  0.9764
   47CHL1  H18C 4614   3.918   5.083   5.867 -3.7588 -0.8534  0.8497
   47CHL1   C12 4615   3.659   4.974   5.796  0.0105 -0.1933  0.1647
   47CHL1  H12A 4616   3.615   5.072   5.767 -1.2026 -0.1921  1.8560
   47CHL1  H12B 4617   3.577   4.904   5.766 -0.2872 -0.2929  1.1748
   47CHL1   C11 4618   3.666   4.989   5.945 -0.0878  0.5489 -0.7690
   47CHL1  H11A 4619   3.724   5.083   5.956  1.7391 -0.4237 -1.6159
   47CHL1  H11B 4620   3.566   5.003   5.991  0.5694  2.5317  0.1942
   47CHL1    C9 4621   3.740   4.873   6.020  0.5031  0.0068  0.3303
   47CHL1    H9 4622   3.663   4.794   6.006 -0.0753  0.7788 -1.0317
   47CHL1   C10 4623   3.761   4.882   6.172 -0.0758  0.4918  0.4404
   47CHL1   C19 4624   3.845   5.015   6.195 -0.2241 -0.2641 -0.3161
   47CHL1  H19A 4625   3.792   5.103   6.154  1.6947 -0.9354 -4.8220
   47CHL1  H19B 4626   3.866   5.030   6.303 -1.1101  0.0337 -0.1757
   47CHL1  H19C 4627   3.938   5.001   6.137 -1.8490 -2.1827 -2.6324
   47CHL1    C1 4628   3.630   4.899   6.248  0.4874 -0.1137  0.6139
   47CHL1   H1A 4629   3.578   4.988   6.207 -0.8432 -0.4099  1.5451
   47CHL1   H1B 4630   3.563   4.814   6.220 -0.0048  1.3510 -3.2529
   47CHL1    C2 4631   3.646   4.899   6.398 -0.1076  0.0381  0.2793
   47CHL1   H2A 4632   3.542   4.901   6.438 -0.6119 -2.1641 -0.7576
   47CHL1   H2B 4633   3.704   4.983   6.441  1.8190 -1.5015  0.8444
   47CHL1   C20 4634   3.794   5.022   5.472  0.5525  0.5383  0.0440
   47CHL1   H20 4635   3.866   5.104   5.495  2.7344 -1.2272 -0.0784
   47CHL1   C21 4636   3.652   5.073   5.474 -0.0282 -0.3319 -0.0150
   47CHL1  H21A 4637   3.629   5.120   5.376  0.5225 -0.1703 -0.0748
   47CHL1  H21B 4638   3.629   5.150   5.551 -0.9826  0.0039 -0.6166
   47CHL1  H21C 4639   3.578   4.993   5.492 -1.8950  0.9314 -1.5987
   47CHL1   C22 4640   3.848   4.971   5.334 -0.1324 -1.2821  0.4613
   47CHL1  H22A 4641   3.877   5.062   5.278 -0.4869  0.4418  2.9341
   47CHL1  H22B 4642   3.948   4.922   5.337  0.4297 -0.2137 -0.1890
   47CHL1   C23 4643   3.761   4.883   5.250  0.0799 -0.3440  0.1841
   47CHL1  H23A 4644   3.744   4.800   5.321  1.2328  0.2377  1.1952
   47CHL1  H23B 4645   3.666   4.937   5.229 -1.6109 -3.9015 -2.2798
   47CHL1   C24 4646   3.824   4.828   5.127  0.2699 -0.1283 -0.0520
   47CHL1  H24A 4647   3.868   4.912   5.068 -1.1302 -0.6654 -1.9339
   47CHL1  H24B 4648   3.909   4.763   5.158  1.6106  1.4549 -0.2569
   47CHL1   C25 4649   3.729   4.760   5.034 -0.0288 -0.2671  0.1167
   47CHL1   H25 4650   3.690   4.671   5.087  1.9962  0.9088  3.9863
   47CHL1   C26 4651   3.602   4.844   5.007 -0.3962  0.4055 -0.0151
   47CHL1  H26A 4652   3.547   4.850   5.103 -2.3589 -0.8435 -0.9784
   47CHL1  H26B 4653   3.632   4.945   4.972 -3.9838  0.2209 -4.5339
   47CHL1  H26C 4654   3.549   4.798   4.920  1.9522  0.3321 -1.4879
   47CHL1   C27 4655   3.795   4.715   4.903  0.3640  0.1418  0.5239
   47CHL1  H27A 4656   3.885   4.653   4.922 -0.9839 -2.5672 -1.2658
   47CHL1  H27B 4657   3.722   4.657   4.842  0.1524  1.4758 -0.5333
   47CHL1  H27C 4658   3.825   4.798   4.836 -0.7917  2.4720  2.7160
   48CHL1    C3 4659   0.099   5.838   6.025  0.5434 -0.3192  0.0042
   48CHL1    H3 4660   0.192   5.778   6.028  0.7886  0.0856  3.2019
   48CHL1    O3 4661   0.050   5.876   6.153  0.0033 -0.0867  0.2913
   48CHL1   H3' 4662  -0.041   5.902   6.137  1.2272  3.0587 -2.8632
   48CHL1    C4 4663   0.125   5.969   5.946 -0.8512  0.0961  0.4516
   48CHL1   H4A 4664   0.037   6.037   5.954 -0.4706  0.7515 -0.7782
   48CHL1   H4B 4665   0.208   6.012   6.006 -0.0996 -0.2769 -0.3033
   48CHL1    C5 4666   0.153   5.954   5.793  1.1089 -0.4367  0.0037
   48CHL1    C6 4667   0.257   6.002   5.735 -0.0817 -0.0461  0.5404
   48CHL1    H6 4668   0.324   6.073   5.786  1.0231 -1.6044  1.3619
   48CHL1    C7 4669   0.280   6.000   5.585 -0.0903  0.6975  0.5628
   48CHL1   H7A 4670   0.313   6.101   5.553 -2.7691  1.1899 -0.8783
   48CHL1   H7B 4671   0.353   5.918   5.565 -2.1037 -0.8178 -0.8781
   48CHL1    C8 4672   0.154   5.959   5.501 -0.3080  0.0209 -1.2022
   48CHL1    H8 4673   0.081   6.042   5.487 -0.2155  0.0367 -1.6079
   48CHL1   C14 4674   0.197   5.912   5.360 -0.3769  0.0606  0.8128
   48CHL1   H14 4675   0.259   5.821   5.371 -0.1524  0.2182  0.8577
   48CHL1   C15 4676   0.285   6.014   5.275  0.3063  0.3371  0.5705
   48CHL1  H15A 4677   0.244   6.117   5.280  3.2141  1.7639 -1.9229
   48CHL1  H15B 4678   0.393   6.015   5.302  0.5275 -0.1699 -0.2700
   48CHL1   C16 4679   0.265   5.961   5.128  0.5994  0.3883 -0.0982
   48CHL1  H16A 4680   0.206   6.036   5.070  1.2866  1.1754  0.1890
   48CHL1  H16B 4681   0.353   5.933   5.066  0.3957  2.6872 -1.5778
   48CHL1   C17 4682   0.166   5.836   5.131 -0.6802  0.0316 -0.6151
   48CHL1   H17 4683   0.228   5.744   5.132  0.7311  0.9386 -1.0001
   48CHL1   C13 4684   0.091   5.857   5.262 -0.1658  0.2357 -0.1565
   48CHL1   C18 4685  -0.026   5.959   5.238 -0.3537  0.1090  0.1066
   48CHL1  H18A 4686  -0.089   5.919   5.157  1.7489 -1.4802 -0.8306
   48CHL1  H18B 4687  -0.096   5.972   5.324 -0.2390 -2.5393  0.6658
   48CHL1  H18C 4688   0.019   6.056   5.208 -1.6309  1.3015  1.8606
   48CHL1   C12 4689   0.047   5.731   5.336  0.4256 -0.2952 -0.0231
   48CHL1  H12A 4690  -0.039   5.684   5.282 -0.3129 -0.1100  0.9691
   48CHL1  H12B 4691   0.135   5.663   5.338  1.1118  0.4955 -1.5967
   48CHL1   C11 4692  -0.009   5.765   5.478  0.1295 -0.5701 -0.0239
   48CHL1  H11A 4693  -0.100   5.829   5.474  1.1232  0.8246 -1.4756
   48CHL1  H11B 4694  -0.034   5.665   5.519 -3.0356  0.0972 -0.0691
   48CHL1    C9 4695   0.092   5.836   5.574 -0.2929 -0.6303  0.0270
   48CHL1    H9 4696   0.181   5.770   5.568 -0.5602 -0.9544 -0.3823
   48CHL1   C10 4697   0.046   5.872   5.721 -0.3004  0.0733 -0.7369
   48CHL1   C19 4698  -0.096   5.947   5.722  0.7715 -0.1873  0.1971
   48CHL1  H19A 4699  -0.155   5.949   5.816  1.2565  2.2850  0.5274
   48CHL1  H19B 4700  -0.085   6.055   5.696 -1.9257  0.1081 -0.0190
   48CHL1  H19C 4701  -0.164   5.919   5.639  0.7211 -0.6782  0.4012
   48CHL1    C1 4702   0.029   5.740   5.799 -0.5362  0.3659 -0.3934
   48CHL1   H1A 4703  -0.062   5.689   5.761  0.6254 -1.4415 -0.8476
   48CHL1   H1B 4704   0.117   5.673   5.787 -1.0162 -0.4892  0.5914
   48CHL1    C2 4705  -0.010   5.761   5.952  0.1529  0.1393  0.1162
   48CHL1   H2A 4706  -0.041   5.662   5.992 -0.5189  1.5232  3.3439
   48CHL1   H2B 4707  -0.104   5.819   5.952  0.1362  0.1097 -0.5802
   48CHL1   C20 4708   0.085   5.821   5.000  0.5777  0.4771 -0.2082
   48CHL1   H20 4709   0.042   5.920   4.974 -0.2018  0.2251  0.1111
   48CHL1   C21 4710  -0.026   5.720   5.011  0.8026  0.1331  0.3396
   48CHL1  H21A 4711  -0.082   5.706   4.916 -1.2564  0.7141  1.4085
   48CHL1  H21B 4712   0.014   5.617   5.020  1.1870  0.3181  0.8207
   48CHL1  H21C 4713  -0.097   5.728   5.096  0.4343  1.0759 -0.0410
   48CHL1   C22 4714   0.174   5.778   4.882 -0.2050  0.2665  0.1760
   48CHL1  H22A 4715   0.267   5.839   4.889  0.0446  0.0380 -0.9918
   48CHL1  H22B 4716   0.190   5.669   4.896 -1.6384  0.0194  0.0585
   48CHL1   C23 4717   0.105   5.809   4.746 -0.1927 -0.6709  0.6800
   48CHL1  H23A 4718   0.017   5.749   4.714 -0.4690  1.2243 -2.4370
   48CHL1  H23B 4719   0.060   5.910   4.745  1.2256 -0.0209 -0.4900
   48CHL1   C24 4720   0.206   5.785   4.624 -0.0247 -0.6624 -0.1508
   48CHL1  H24A 4721   0.285   5.862   4.624 -1.2989  0.7379  1.6593
   48CHL1  H24B 4722   0.256   5.688   4.645  0.8612 -0.0225  0.7334
   48CHL1   C25 4723   0.137   5.783   4.484 -0.3908  0.4819 -0.1154
   48CHL1   H25 4724   0.033   5.744   4.494 -0.1430 -0.6890 -1.6063
   48CHL1   C26 4725   0.114   5.927   4.434  0.5745  0.3620  0.5280
   48CHL1  H26A 4726   0.051   5.983   4.507 -1.1545 -0.9404  0.1108
   48CHL1  H26B 4727   0.211   5.981   4.431 -0.2590  1.8664 -2.0000
   48CHL1  H26C 4728   0.086   5.939   4.327  1.8292 -0.6448  0.0577
   48CHL1   C27 4729   0.226   5.704   4.386 -0.2166 -0.1036 -0.9413
   48CHL1  H27A 4730   0.232   5.597   4.414 -0.3185 -0.0344 -0.6544
   48CHL1  H27B 4731   0.162   5.703   4.295 -1.9200  1.3117  0.1795
   48CHL1  H27C 4732   0.319   5.757   4.357 -1.8196  1.7278 -3.0664
   49CHL1    C3 4733   3.988   4.597   3.042 -0.7843 -0.3095  0.1536
   49CHL1    H3 4734   3.900   4.575   3.106 -1.1920  0.2012 -0.2383
   49CHL1    O3 4735   3.953   4.573   2.905  0.5253 -0.9071 -0.3121
   49CHL1   H3' 4736   4.040   4.576   2.864  1.2963  1.8019  1.2477
   49CHL1    C4 4737   4.034   4.737   3.071 -0.4150 -0.9826 -0.9043
   49CHL1   H4A 4738   4.128   4.762   3.017 -0.7998  0.4137 -0.9817
   49CHL1   H4B 4739   3.973   4.811   3.014 -0.7243  1.4765  2.2959
   49CHL1    C5 4740   4.039   4.761   3.224  0.1677 -0.0256  0.3003
   49CHL1    C6 4741   3.951   4.844   3.282 -0.3966  0.8510 -0.6213
   49CHL1    H6 4742   3.881   4.909   3.226 -2.2629 -1.1476 -0.7431
   49CHL1    C7 4743   3.941   4.865   3.429  0.7446  0.0745  0.1978
   49CHL1   H7A 4744   3.961   4.972   3.450  1.0708  0.1471 -0.4558
   49CHL1   H7B 4745   3.846   4.824   3.471  0.7405  1.3257  1.4405
   49CHL1    C8 4746   4.050   4.781   3.505  0.2096 -0.0858 -0.2934
   49CHL1    H8 4747   4.147   4.836   3.506 -0.2645  0.7868 -0.5708
   49CHL1   C14 4748   4.026   4.776   3.660  0.1301  0.7795  0.4519
   49CHL1   H14 4749   3.930   4.719   3.658  1.5745 -1.7711 -1.8489
   49CHL1   C15 4750   3.992   4.911   3.740  0.4110  0.4170  0.0924
   49CHL1  H15A 4751   4.079   4.973   3.709  1.6629 -1.1616  0.2510
   49CHL1  H15B 4752   3.892   4.956   3.723  0.1085 -0.5383 -0.8526
   49CHL1   C16 4753   4.007   4.868   3.887 -0.3410  0.1909 -0.1417
   49CHL1  H16A 4754   4.077   4.939   3.935 -0.1386 -0.6342  0.8232
   49CHL1  H16B 4755   3.910   4.870   3.942  1.0153  1.7470  2.3727
   49CHL1   C17 4756   4.058   4.719   3.880 -0.1099 -0.4994  0.2468
   49CHL1   H17 4757   3.970   4.653   3.898 -1.0613  0.7955  0.4922
   49CHL1   C13 4758   4.118   4.693   3.743 -0.3502 -0.3010 -0.8279
   49CHL1   C18 4759   4.264   4.753   3.740  0.5179  0.0977  0.3624
   49CHL1  H18A 4760   4.332   4.683   3.793  0.3483  0.2742  0.8169
   49CHL1  H18B 4761   4.307   4.759   3.638  1.2939  1.7383  0.7428
   49CHL1  H18C 4762   4.273   4.854   3.786 -0.6405  0.0946  0.6135
   49CHL1   C12 4763   4.124   4.554   3.692  0.3508 -0.5495  0.1869
   49CHL1  H12A 4764   4.194   4.501   3.760  2.5854 -2.1083 -3.0659
   49CHL1  H12B 4765   4.029   4.500   3.712 -0.2339  0.4543  0.1698
   49CHL1   C11 4766   4.162   4.544   3.538 -0.2581 -0.3028 -0.3203
   49CHL1  H11A 4767   4.267   4.580   3.537 -0.3802  0.1906  1.0638
   49CHL1  H11B 4768   4.157   4.438   3.505 -0.4478 -0.5321  0.4086
   49CHL1    C9 4769   4.077   4.644   3.448 -0.7770 -0.0757  0.1962
   49CHL1    H9 4770   3.975   4.601   3.447 -1.4662  1.4929 -1.0147
   49CHL1   C10 4771   4.119   4.654   3.300 -0.4724  0.0327 -0.3872
   49CHL1   C19 4772   4.261   4.714   3.287  0.3608 -0.1931 -0.0668
   49CHL1  H19A 4773   4.265   4.812   3.339 -2.4399 -0.9975  1.9225
   49CHL1  H19B 4774   4.336   4.645   3.333  0.0623 -1.0526 -0.8499
   49CHL1  H19C 4775   4.297   4.736   3.185 -1.6577 -1.5752 -1.1334
   49CHL1    C1 4776   4.112   4.511   3.239 -0.1146 -0.6428 -0.9382
   49CHL1   H1A 4777   4.203   4.450   3.257  0.5815  0.7037  0.2490
   49CHL1   H1B 4778   4.023   4.459   3.280 -0.8991 -0.2385 -2.0636
   49CHL1    C2 4779   4.100   4.505   3.083 -0.2617  0.5426 -0.0855
   49CHL1   H2A 4780   4.077   4.402   3.047 -1.1994  1.1783 -1.3850
   49CHL1   H2B 4781   4.185   4.545   3.024  1.8414 -1.4369  1.4326
   49CHL1   C20 4782   4.142   4.695   4.007 -0.6243  0.3585  0.1901
   49CHL1   H20 4783   4.213   4.780   4.012 -0.3865  0.3861 -2.4160
   49CHL1   C21 4784   4.213   4.556   4.020  0.1563  0.6496 -0.5475
   49CHL1  H21A 4785   4.137   4.476   4.015  0.5820  0.1830  0.2493
   49CHL1  H21B 4786   4.261   4.541   4.119  0.1258 -0.9933 -0.7612
   49CHL1  H21C 4787   4.287   4.540   3.939 -0.2230 -1.8840 -0.4547
   49CHL1   C22 4788   4.063   4.709   4.142 -0.4124 -0.6605  0.6317
   49CHL1  H22A 4789   4.002   4.801   4.134  1.3160  0.4028 -1.6369
   49CHL1  H22B 4790   4.014   4.610   4.157 -0.3551 -1.1099 -1.7233
   49CHL1   C23 4791   4.152   4.737   4.268 -0.0697 -0.0667 -0.2181
   49CHL1  H23A 4792   4.219   4.651   4.289  0.8409  0.8919  0.9329
   49CHL1  H23B 4793   4.222   4.822   4.254  0.0844  0.0388  1.0521
   49CHL1   C24 4794   4.061   4.763   4.387 -0.3196  0.3705 -0.8723
   49CHL1  H24A 4795   3.994   4.851   4.393  2.0964  2.2767 -0.3015
   49CHL1  H24B 4796   3.988   4.679   4.382  1.2285 -1.0277 -0.9377
   49CHL1   C25 4797   4.140   4.750   4.516  0.0726  0.2498  0.1806
   49CHL1   H25 4798   4.210   4.665   4.501  0.6445  1.0720 -2.2036
   49CHL1   C26 4799   4.231   4.873   4.544  0.6167 -0.6355 -0.6256
   49CHL1  H26A 4800   4.165   4.961   4.547 -0.6394 -1.5673 -0.1451
   49CHL1  H26B 4801   4.297   4.858   4.632  0.8400 -0.3168 -0.7375
   49CHL1  H26C 4802   4.299   4.900   4.460  0.9300  3.4055  0.7238
   49CHL1   C27 4803   4.046   4.713   4.633  0.2753  0.1908  0.2857
   49CHL1  H27A 4804   4.099   4.674   4.722  0.7501  0.2862  0.0529
   49CHL1  H27B 4805   3.983   4.801   4.657  2.4774  1.8472  0.3610
   49CHL1  H27C 4806   3.988   4.625   4.599  2.3904 -1.5891  1.0328
   50CHL1    C3 4807   3.908   2.184   3.171 -0.4754  0.9213 -0.2167
   50CHL1    H3 4808   3.997   2.234   3.214  0.5938 -2.1545  1.4275
   50CHL1    O3 4809   3.922   2.169   3.032  0.3641  0.0500  0.0252
   50CHL1   H3' 4810   3.834   2.142   3.003  0.1629  0.4671  0.2492
   50CHL1    C4 4811   3.910   2.039   3.223 -0.3010 -0.4498 -0.0280
   50CHL1   H4A 4812   3.831   1.981   3.170 -0.2621  0.6848 -1.4036
   50CHL1   H4B 4813   4.003   1.993   3.185 -0.1945  2.2077 -3.4822
   50CHL1    C5 4814   3.890   2.024   3.369  0.1129  0.3397  0.2920
   50CHL1    C6 4815   3.994   1.970   3.436  0.4244  0.6045  0.0118
   50CHL1    H6 4816   4.083   1.925   3.391 -1.0227 -0.4228 -2.0170
   50CHL1    C7 4817   3.980   1.943   3.578  0.1323  0.0663 -0.1323
   50CHL1   H7A 4818   4.003   1.838   3.606  0.6874  0.3127  0.3694
   50CHL1   H7B 4819   4.058   2.005   3.627  1.9865 -0.8791 -1.7746
   50CHL1    C8 4820   3.843   1.983   3.645 -0.2648  0.1771 -0.1872
   50CHL1    H8 4821   3.773   1.903   3.615 -0.9202  1.1964 -1.5174
   50CHL1   C14 4822   3.855   2.002   3.792 -0.2774 -0.8160 -0.7739
   50CHL1   H14 4823   3.928   2.086   3.801 -0.9784 -0.3412  0.8854
   50CHL1   C15 4824   3.913   1.889   3.875 -0.2182  0.7227  0.0623
   50CHL1  H15A 4825   3.890   1.785   3.843  1.3561 -0.5625  2.7577
   50CHL1  H15B 4826   4.023   1.892   3.861 -0.1404 -1.6974 -0.3108
   50CHL1   C16 4827   3.871   1.928   4.021  0.2941 -0.4252  0.2726
   50CHL1  H16A 4828   3.817   1.843   4.067  1.8564 -0.5609  1.9309
   50CHL1  H16B 4829   3.961   1.955   4.080  0.8612 -2.0423  0.1780
   50CHL1   C17 4830   3.771   2.042   4.007  0.4522 -0.1265  0.5890
   50CHL1   H17 4831   3.814   2.143   4.021  0.6315 -0.1671  0.3483
   50CHL1   C13 4832   3.729   2.044   3.863 -0.1742 -0.4968  0.0397
   50CHL1   C18 4833   3.621   1.933   3.835 -0.1694  0.1336  0.0326
   50CHL1  H18A 4834   3.659   1.839   3.880  1.4222  2.1774  3.3661
   50CHL1  H18B 4835   3.523   1.956   3.884  0.7396  0.6386  1.6929
   50CHL1  H18C 4836   3.606   1.912   3.727  1.3522 -0.1729 -0.1384
   50CHL1   C12 4837   3.687   2.183   3.808 -0.2975  1.2911 -0.6047
   50CHL1  H12A 4838   3.590   2.208   3.855 -0.4638 -1.5890  0.7716
   50CHL1  H12B 4839   3.754   2.268   3.833  0.2864  0.4761  0.7387
   50CHL1   C11 4840   3.660   2.173   3.660 -0.1865  0.3458  0.0303
   50CHL1  H11A 4841   3.568   2.112   3.643 -1.1194  1.3333  1.3400
   50CHL1  H11B 4842   3.632   2.271   3.618  0.9364  0.2719 -0.9321
   50CHL1    C9 4843   3.782   2.114   3.586  0.4692  0.9127  0.6266
   50CHL1    H9 4844   3.859   2.192   3.602  0.8957  0.8065 -0.7701
   50CHL1   C10 4845   3.768   2.101   3.428  0.3233 -0.1299  0.5714
   50CHL1   C19 4846   3.638   2.021   3.390  0.2851  1.2906 -0.4176
   50CHL1  H19A 4847   3.630   1.921   3.437  0.5015  0.7064 -1.5798
   50CHL1  H19B 4848   3.543   2.073   3.413  0.1158  0.3863  1.0141
   50CHL1  H19C 4849   3.638   1.991   3.282 -2.2160 -0.3418 -0.0527
   50CHL1    C1 4850   3.770   2.243   3.358  0.0422  0.2422  0.1641
   50CHL1   H1A 4851   3.675   2.299   3.378  0.0248  0.7814 -1.3264
   50CHL1   H1B 4852   3.861   2.296   3.394  1.3784 -0.4972 -2.0274
   50CHL1    C2 4853   3.771   2.245   3.203 -0.4040  0.6207  0.0108
   50CHL1   H2A 4854   3.773   2.349   3.165  0.1371  0.0524 -1.6138
   50CHL1   H2B 4855   3.678   2.202   3.161 -1.3744  2.3920  0.2945
   50CHL1   C20 4856   3.655   2.029   4.114  0.4999  0.6349  0.9016
   50CHL1   H20 4857   3.600   1.934   4.096 -0.8853  1.2583  1.7105
   50CHL1   C21 4858   3.563   2.153   4.111 -0.5033  0.3416  0.3706
   50CHL1  H21A 4859   3.498   2.168   4.199 -0.6405 -0.6507  0.4479
   50CHL1  H21B 4860   3.492   2.140   4.026  1.1604  2.2869 -1.4460
   50CHL1  H21C 4861   3.618   2.250   4.102 -1.9437  1.1363 -0.2416
   50CHL1   C22 4862   3.710   2.015   4.260 -0.4611  0.4153 -0.0425
   50CHL1  H22A 4863   3.632   2.006   4.338 -0.1215  0.2058  0.2760
   50CHL1  H22B 4864   3.772   1.924   4.272 -3.1894 -1.2566  2.4159
   50CHL1   C23 4865   3.794   2.137   4.315  0.1337  0.1721 -0.6032
   50CHL1  H23A 4866   3.865   2.171   4.236 -0.1298  0.5558 -0.6776
   50CHL1  H23B 4867   3.726   2.224   4.327  0.5617  0.5033 -0.5650
   50CHL1   C24 4868   3.876   2.114   4.444 -0.2706  0.2376  0.1728
   50CHL1  H24A 4869   3.954   2.037   4.428  0.6388  0.3324  3.3211
   50CHL1  H24B 4870   3.934   2.205   4.472  1.5458 -0.1524 -2.0280
   50CHL1   C25 4871   3.787   2.069   4.567 -0.5467  0.4009 -0.6095
   50CHL1   H25 4872   3.712   1.998   4.526  0.1679  0.0963 -1.4238
   50CHL1   C26 4873   3.859   1.991   4.682 -0.5754 -0.0551  0.0879
   50CHL1  H26A 4874   3.798   1.923   4.745 -1.0150  0.4233  0.1831
   50CHL1  H26B 4875   3.935   1.930   4.628  0.4597 -0.5165  1.9965
   50CHL1  H26C 4876   3.905   2.061   4.755  2.3330 -1.5605 -0.1351
   50CHL1   C27 4877   3.707   2.183   4.623 -0.4693  0.2181 -0.6025
   50CHL1  H27A 4878   3.609   2.203   4.575 -1.7777 -0.0797  1.7913
   50CHL1  H27B 4879   3.677   2.166   4.729 -0.7401  3.0921 -0.1263
   50CHL1  H27C 4880   3.751   2.284   4.613 -1.9217  0.9699  0.1563
   51CHL1    C3 4881   3.816   2.978   2.785 -0.1230 -0.9335  0.5974
   51CHL1    H3 4882   3.769   2.877   2.789 -0.5819 -0.7627 -0.3083
   51CHL1    O3 4883   3.868   2.988   2.653  0.2228  0.7876 -0.5208
   51CHL1   H3' 4884   3.938   3.053   2.659  0.8623  0.0564  0.2376
   51CHL1    C4 4885   3.718   3.095   2.798 -0.0057  0.1063  0.1125
   51CHL1   H4A 4886   3.771   3.190   2.774  0.9257 -0.2517  0.6711
   51CHL1   H4B 4887   3.644   3.084   2.717 -0.7304  0.1982  0.7488
   51CHL1    C5 4888   3.655   3.088   2.936  0.4967 -0.1051 -0.1415
   51CHL1    C6 4889   3.518   3.071   2.951 -0.3648  0.3383  0.3253
   51CHL1    H6 4890   3.465   3.055   2.856 -0.6393  0.5755  0.4378
   51CHL1    C7 4891   3.449   3.087   3.085 -0.0692  0.5890  0.4287
   51CHL1   H7A 4892   3.364   3.158   3.077 -0.3790  0.6150  3.0132
   51CHL1   H7B 4893   3.405   2.992   3.123  2.7714 -0.9860  0.0041
   51CHL1    C8 4894   3.541   3.139   3.200  0.3787  0.1755  0.2288
   51CHL1    H8 4895   3.558   3.249   3.199  1.0278  0.1167  2.0607
   51CHL1   C14 4896   3.474   3.106   3.333 -0.2677  0.6283 -0.8257
   51CHL1   H14 4897   3.464   2.995   3.333  0.8680  0.5129 -0.6076
   51CHL1   C15 4898   3.331   3.151   3.348 -0.1890  0.0899 -0.1404
   51CHL1  H15A 4899   3.323   3.255   3.309 -0.4306 -0.1900 -0.8527
   51CHL1  H15B 4900   3.263   3.082   3.294  1.4208 -1.0776 -0.7740
   51CHL1   C16 4901   3.305   3.153   3.497 -0.2114 -0.1569  0.7907
   51CHL1  H16A 4902   3.279   3.256   3.529 -0.4900  0.8315 -2.2796
   51CHL1  H16B 4903   3.222   3.084   3.522 -0.2145 -0.9578 -1.2303
   51CHL1   C17 4904   3.437   3.105   3.561 -0.4080 -0.4173 -0.8881
   51CHL1   H17 4905   3.439   2.994   3.563  0.7380 -0.3939  0.1841
   51CHL1   C13 4906   3.550   3.147   3.464 -0.2037  0.5238  1.0370
   51CHL1   C18 4907   3.578   3.306   3.460  0.7873 -0.2756 -0.2520
   51CHL1  H18A 4908   3.478   3.354   3.465 -0.9107 -3.4306 -1.2343
   51CHL1  H18B 4909   3.639   3.342   3.546  0.1088 -0.3294  0.2666
   51CHL1  H18C 4910   3.633   3.330   3.367  0.6958 -0.2356 -0.2954
   51CHL1   C12 4911   3.678   3.071   3.457 -0.3721  0.1925 -0.8402
   51CHL1  H12A 4912   3.741   3.098   3.544  1.8297 -0.2137 -2.2323
   51CHL1  H12B 4913   3.661   2.962   3.467  1.8092  0.0026  3.2872
   51CHL1   C11 4914   3.764   3.088   3.324 -0.1440 -0.1211  0.3378
   51CHL1  H11A 4915   3.797   3.194   3.335  0.0677 -0.3620  2.3921
   51CHL1  H11B 4916   3.847   3.015   3.335 -0.1266  0.0512  1.5024
   51CHL1    C9 4917   3.678   3.067   3.188  0.6069 -0.5669  0.6586
   51CHL1    H9 4918   3.648   2.960   3.194 -1.3961 -0.4063 -3.1592
   51CHL1   C10 4919   3.753   3.108   3.056  0.1434  0.1693  0.3366
   51CHL1   C19 4920   3.805   3.251   3.066  1.0620  0.1257 -0.1892
   51CHL1  H19A 4921   3.725   3.315   3.109 -0.7576 -2.9181  1.2876
   51CHL1  H19B 4922   3.893   3.260   3.133  0.5098  0.3102  0.5301
   51CHL1  H19C 4923   3.827   3.290   2.964 -1.8875  2.3536 -0.0898
   51CHL1    C1 4924   3.862   3.002   3.038 -0.0383 -0.6970 -0.0800
   51CHL1   H1A 4925   3.947   3.019   3.108  0.7645 -0.8254 -1.0109
   51CHL1   H1B 4926   3.820   2.900   3.047 -0.3322 -0.5798 -0.1209
   51CHL1    C2 4927   3.922   3.002   2.892 -0.0620 -0.5462 -0.3645
   51CHL1   H2A 4928   3.996   2.920   2.878 -1.0230 -1.6625  0.8288
   51CHL1   H2B 4929   3.970   3.101   2.877  2.1696 -1.2521  1.6108
   51CHL1   C20 4930   3.448   3.157   3.709  0.1811  0.3760 -0.2935
   51CHL1   H20 4931   3.462   3.267   3.707 -0.5873  0.4780 -0.4273
   51CHL1   C21 4932   3.585   3.106   3.766  0.2089  0.2500 -0.0750
   51CHL1  H21A 4933   3.672   3.158   3.721  1.0495  0.7761  2.0145
   51CHL1  H21B 4934   3.585   2.996   3.755  0.8688 -0.1845  3.1336
   51CHL1  H21C 4935   3.592   3.127   3.875  1.7251 -0.1400 -0.0738
   51CHL1   C22 4936   3.323   3.123   3.800  0.3787  0.2546  0.0059
   51CHL1  H22A 4937   3.223   3.141   3.756  1.1224 -0.5231 -2.1079
   51CHL1  H22B 4938   3.325   3.014   3.823 -1.9656  0.3632  1.0521
   51CHL1   C23 4939   3.329   3.205   3.933  0.1720  0.4168 -0.8722
   51CHL1  H23A 4940   3.432   3.221   3.972  0.3559 -1.5796 -0.4550
   51CHL1  H23B 4941   3.257   3.289   3.938 -1.6783 -1.1413 -0.1546
   51CHL1   C24 4942   3.268   3.130   4.044  0.2283  0.1005 -0.1952
   51CHL1  H24A 4943   3.160   3.150   4.026  1.0884  2.8290 -3.3073
   51CHL1  H24B 4944   3.275   3.019   4.050 -1.6261  0.0584  2.4634
   51CHL1   C25 4945   3.300   3.189   4.186  0.2718 -0.0533 -0.1606
   51CHL1   H25 4946   3.410   3.181   4.194  0.3419  1.0047  0.1651
   51CHL1   C26 4947   3.275   3.340   4.207  0.8385 -0.1688  0.6276
   51CHL1  H26A 4948   3.168   3.366   4.191  0.3963 -2.1624  0.0303
   51CHL1  H26B 4949   3.311   3.367   4.308  0.2369 -1.2210  1.1512
   51CHL1  H26C 4950   3.339   3.393   4.133  0.3348  1.1973  1.1409
   51CHL1   C27 4951   3.232   3.101   4.292  0.4687  0.4728 -0.7605
   51CHL1  H27A 4952   3.265   3.142   4.390 -1.5446  2.2366 -0.7398
   51CHL1  H27B 4953   3.121   3.095   4.292  0.3351  2.2420 -1.5394
   51CHL1  H27C 4954   3.282   3.002   4.286 -0.0263  0.3007 -3.2180
   52CHL1    C3 4955   3.107   4.611   2.874  0.2266  0.1949 -0.4165
   52CHL1    H3 4956   3.000   4.634   2.857  0.0250 -0.3835  0.0444
   52CHL1    O3 4957   3.178   4.628   2.754  0.0860 -0.0104  0.3736
   52CHL1   H3' 4958   3.267   4.613   2.786 -0.0751  0.9073  1.2874
   52CHL1    C4 4959   3.161   4.700   2.980 -0.4416  0.0328 -0.3732
   52CHL1   H4A 4960   3.265   4.672   3.009 -0.3974  0.6672  0.1322
   52CHL1   H4B 4961   3.171   4.808   2.954 -0.6365  0.6358  1.8473
   52CHL1    C5 4962   3.068   4.680   3.097  0.2626  0.1071 -0.0231
   52CHL1    C6 4963   3.004   4.786   3.152 -0.0725  0.5058 -0.3442
   52CHL1    H6 4964   3.039   4.885   3.120  3.0884 -0.3058  0.1909
   52CHL1    C7 4965   2.912   4.780   3.274  0.5865 -0.2070 -0.2002
   52CHL1   H7A 4966   2.921   4.868   3.342  0.4572 -0.0065 -0.4409
   52CHL1   H7B 4967   2.805   4.767   3.244  0.7677 -1.8261 -0.2405
   52CHL1    C8 4968   2.931   4.653   3.358 -0.4671  0.4386 -0.1118
   52CHL1    H8 4969   3.030   4.645   3.407 -0.0030 -2.9564 -1.3346
   52CHL1   C14 4970   2.823   4.634   3.465  0.8412  0.0601 -0.6990
   52CHL1   H14 4971   2.727   4.641   3.409  0.8319 -0.6664 -0.7786
   52CHL1   C15 4972   2.815   4.753   3.566  0.0977 -0.2203  0.5043
   52CHL1  H15A 4973   2.915   4.783   3.603  0.1273  0.4841 -0.1327
   52CHL1  H15B 4974   2.766   4.840   3.516  1.2990 -1.0167 -2.2655
   52CHL1   C16 4975   2.729   4.687   3.679 -0.2787  0.3962 -0.7254
   52CHL1  H16A 4976   2.774   4.719   3.775 -1.0728 -0.5492 -0.0282
   52CHL1  H16B 4977   2.624   4.723   3.678  0.2633  2.1087 -0.6152
   52CHL1   C17 4978   2.718   4.533   3.647 -0.3318  0.1406 -0.4697
   52CHL1   H17 4979   2.620   4.524   3.595 -0.3236 -2.6087 -0.1583
   52CHL1   C13 4980   2.830   4.511   3.548 -0.8099  0.7820 -0.3694
   52CHL1   C18 4981   2.964   4.506   3.638 -0.8775  0.1586 -0.1313
   52CHL1  H18A 4982   3.058   4.530   3.583  0.2199  0.7432  1.8832
   52CHL1  H18B 4983   2.961   4.585   3.717 -0.8836 -0.5356  0.5728
   52CHL1  H18C 4984   2.967   4.408   3.689 -1.0492 -0.4373 -1.2393
   52CHL1   C12 4985   2.820   4.398   3.447  0.3302  0.0522 -0.8451
   52CHL1  H12A 4986   2.813   4.296   3.491 -0.3711  1.1926  1.8987
   52CHL1  H12B 4987   2.724   4.410   3.391 -0.9720 -1.7895  0.8277
   52CHL1   C11 4988   2.932   4.400   3.343 -0.0888  0.0610 -0.3588
   52CHL1  H11A 4989   3.030   4.390   3.394 -0.5655  0.0294  0.5719
   52CHL1  H11B 4990   2.909   4.327   3.263  0.0522  2.2891 -2.5368
   52CHL1    C9 4991   2.934   4.534   3.267  0.1370  0.1493  0.0881
   52CHL1    H9 4992   2.836   4.539   3.215  0.9885  1.4795 -1.4801
   52CHL1   C10 4993   3.049   4.539   3.160  0.2087 -0.5631 -0.6342
   52CHL1   C19 4994   3.189   4.512   3.241  0.1445  0.7959  0.6505
   52CHL1  H19A 4995   3.201   4.579   3.329  0.5685  0.5539  0.7788
   52CHL1  H19B 4996   3.188   4.406   3.274 -0.4334  0.8489  0.8229
   52CHL1  H19C 4997   3.267   4.523   3.163 -0.5928  1.5295  0.0010
   52CHL1    C1 4998   3.028   4.431   3.041 -0.5682 -0.1327  0.5917
   52CHL1   H1A 4999   3.043   4.330   3.085 -1.6384 -0.1316  1.0083
   52CHL1   H1B 5000   2.919   4.442   3.022 -0.2614  2.4120 -0.1036
   52CHL1    C2 5001   3.118   4.464   2.915 -0.1756 -0.0191 -1.0029
   52CHL1   H2A 5002   3.092   4.397   2.831  2.8973 -1.5512 -0.8799
   52CHL1   H2B 5003   3.222   4.425   2.924 -0.7739 -1.4612 -0.1443
   52CHL1   C20 5004   2.698   4.450   3.771  1.1347 -0.0789  0.1662
   52CHL1   H20 5005   2.783   4.445   3.843  1.5687 -0.0105 -0.3375
   52CHL1   C21 5006   2.680   4.307   3.721 -0.9976 -0.4397  0.1137
   52CHL1  H21A 5007   2.642   4.244   3.805 -0.0651  1.7054  2.2682
   52CHL1  H21B 5008   2.782   4.264   3.714 -1.6967 -2.3435  0.9199
   52CHL1  H21C 5009   2.620   4.300   3.628 -0.0226  1.6893 -0.7290
   52CHL1   C22 5010   2.581   4.505   3.866  0.3907  0.7438  0.8573
   52CHL1  H22A 5011   2.600   4.614   3.874  0.3557  0.8487 -0.3084
   52CHL1  H22B 5012   2.482   4.480   3.823  0.5478 -0.7793  1.3217
   52CHL1   C23 5013   2.588   4.440   4.005  0.6809 -0.7455  0.5183
   52CHL1  H23A 5014   2.562   4.332   4.000 -0.7481 -0.3923 -0.1853
   52CHL1  H23B 5015   2.694   4.450   4.038  1.4061  0.5835 -1.9733
   52CHL1   C24 5016   2.496   4.491   4.116  0.1511  0.0731  0.4371
   52CHL1  H24A 5017   2.486   4.601   4.110  1.3027  0.1159 -1.3960
   52CHL1  H24B 5018   2.389   4.463   4.101  0.6207 -0.5283 -2.2750
   52CHL1   C25 5019   2.538   4.453   4.258  0.3349  0.6025 -0.2046
   52CHL1   H25 5020   2.641   4.489   4.279  0.3726  1.1567 -1.3051
   52CHL1   C26 5021   2.437   4.497   4.368 -0.5986  0.1758 -0.1686
   52CHL1  H26A 5022   2.446   4.606   4.387 -2.3106  0.7917 -2.3558
   52CHL1  H26B 5023   2.331   4.480   4.339 -0.9027  2.0820 -0.3152
   52CHL1  H26C 5024   2.469   4.445   4.460  0.3055  0.7984 -0.1155
   52CHL1   C27 5025   2.551   4.299   4.264  0.3251  1.0823  0.1599
   52CHL1  H27A 5026   2.651   4.270   4.225  0.1311 -1.8597  1.5528
   52CHL1  H27B 5027   2.529   4.267   4.368 -0.4213  0.5589 -0.1511
   52CHL1  H27C 5028   2.477   4.253   4.195  0.5235  0.1936  0.5201
   53CHL1    C3 5029   2.847   3.177   3.165 -0.0478  1.2861  0.2758
   53CHL1    H3 5030   2.773   3.249   3.206 -0.6248  0.4642  0.7151
   53CHL1    O3 5031   2.874   3.201   3.031 -0.7139 -0.1698 -0.5737
   53CHL1   H3' 5032   2.963   3.166   3.024  0.3502  2.1444  0.3261
   53CHL1    C4 5033   2.970   3.167   3.250 -0.6092 -0.1260  0.2254
   53CHL1   H4A 5034   3.034   3.086   3.209  1.0166 -0.3923  3.0357
   53CHL1   H4B 5035   3.026   3.262   3.237 -1.1074  0.0760 -0.5698
   53CHL1    C5 5036   2.944   3.146   3.395 -0.6006 -0.0282 -0.2214
   53CHL1    C6 5037   2.982   3.229   3.496  0.3641 -0.3221  0.0293
   53CHL1    H6 5038   3.042   3.316   3.464  1.0845 -0.7938  0.0776
   53CHL1    C7 5039   2.948   3.209   3.637 -0.1102 -0.5389  0.1639
   53CHL1   H7A 5040   3.038   3.217   3.702 -0.0740  0.6524 -0.0097
   53CHL1   H7B 5041   2.882   3.295   3.663  0.9492  0.8622 -1.5803
   53CHL1    C8 5042   2.886   3.076   3.663  0.9614 -0.0163 -0.2742
   53CHL1    H8 5043   2.966   2.998   3.668  0.2412 -0.7106  1.4435
   53CHL1   C14 5044   2.818   3.082   3.797 -0.1488 -0.4463 -0.1470
   53CHL1   H14 5045   2.733   3.153   3.790 -0.4135 -0.6960  0.4494
   53CHL1   C15 5046   2.894   3.130   3.914 -0.2382  0.2848  0.1607
   53CHL1  H15A 5047   2.991   3.076   3.912 -0.3362  0.0412  1.3345
   53CHL1  H15B 5048   2.899   3.241   3.911 -2.0419  0.3844 -0.4648
   53CHL1   C16 5049   2.809   3.094   4.033 -0.0806  0.6047  0.5020
   53CHL1  H16A 5050   2.871   3.066   4.121 -0.6088 -1.1434  0.3559
   53CHL1  H16B 5051   2.753   3.188   4.053  1.2840  1.6653 -0.4002
   53CHL1   C17 5052   2.696   2.991   3.984  0.5028 -0.1563 -0.5911
   53CHL1   H17 5053   2.607   3.054   3.960 -0.2472 -0.3717  1.4406
   53CHL1   C13 5054   2.739   2.951   3.840 -0.5982 -0.5352 -0.6810
   53CHL1   C18 5055   2.848   2.837   3.859  0.2598  0.1761 -0.3233
   53CHL1  H18A 5056   2.790   2.751   3.898 -0.6566  0.6360 -0.6557
   53CHL1  H18B 5057   2.895   2.805   3.763 -0.6075  0.4836 -0.8570
   53CHL1  H18C 5058   2.921   2.865   3.938  1.1782 -0.8514 -0.7717
   53CHL1   C12 5059   2.639   2.916   3.731 -0.0116 -0.9505 -0.4315
   53CHL1  H12A 5060   2.583   2.823   3.753 -1.0056 -0.4044 -0.5786
   53CHL1  H12B 5061   2.574   3.006   3.737  1.8357  0.3297  2.3888
   53CHL1   C11 5062   2.704   2.913   3.592 -0.3052  0.0800  0.9555
   53CHL1  H11A 5063   2.759   2.818   3.576 -0.7598  0.1018 -1.0620
   53CHL1  H11B 5064   2.614   2.907   3.526 -1.6022 -1.0995  2.7182
   53CHL1    C9 5065   2.789   3.032   3.555 -0.2456 -0.1367  0.1595
   53CHL1    H9 5066   2.722   3.120   3.548  2.0842  1.7675  0.4028
   53CHL1   C10 5067   2.856   3.023   3.422 -0.1685  1.1774  0.2343
   53CHL1   C19 5068   2.949   2.889   3.411  0.3880 -0.4217  0.3462
   53CHL1  H19A 5069   2.887   2.800   3.436  0.1035  0.6800  4.2060
   53CHL1  H19B 5070   2.996   2.887   3.311  0.4453  1.9898  0.2655
   53CHL1  H19C 5071   3.028   2.908   3.487 -1.0076  3.6885  1.0603
   53CHL1    C1 5072   2.743   3.008   3.309  0.1251  0.6089  0.0447
   53CHL1   H1A 5073   2.696   2.908   3.316  0.2569  0.6412  1.6910
   53CHL1   H1B 5074   2.666   3.079   3.347  0.3666 -0.0760  1.8847
   53CHL1    C2 5075   2.781   3.035   3.167  0.1638  0.6149  0.5542
   53CHL1   H2A 5076   2.692   3.031   3.102  1.2377  0.3713 -0.9493
   53CHL1   H2B 5077   2.843   2.948   3.135 -0.2009 -0.5322  2.7208
   53CHL1   C20 5078   2.664   2.884   4.095  0.3946  0.3066  0.5498
   53CHL1   H20 5079   2.759   2.829   4.116  0.7031  1.3703  2.0594
   53CHL1   C21 5080   2.558   2.788   4.050 -0.1819  0.7796 -0.1622
   53CHL1  H21A 5081   2.563   2.704   4.122  0.1991 -0.2147 -1.3238
   53CHL1  H21B 5082   2.585   2.726   3.963  1.8549  0.0442  0.9282
   53CHL1  H21C 5083   2.452   2.821   4.039 -0.1430  0.4263 -1.7848
   53CHL1   C22 5084   2.623   2.953   4.223 -0.2185 -0.4952  0.4599
   53CHL1  H22A 5085   2.655   3.060   4.222 -0.0010 -0.4572 -3.2586
   53CHL1  H22B 5086   2.512   2.950   4.221 -0.2164 -0.9686 -1.6504
   53CHL1   C23 5087   2.667   2.886   4.352  0.5085  0.2191 -1.1286
   53CHL1  H23A 5088   2.639   2.953   4.437 -2.6194  0.1053 -1.9309
   53CHL1  H23B 5089   2.615   2.788   4.359  0.2701  0.4257  0.2816
   53CHL1   C24 5090   2.819   2.850   4.356 -0.3213 -0.5647  0.2086
   53CHL1  H24A 5091   2.833   2.763   4.287 -0.6895 -0.4895  0.0332
   53CHL1  H24B 5092   2.887   2.935   4.337  1.1396 -1.8494 -0.4912
   53CHL1   C25 5093   2.872   2.784   4.484  0.3357  0.2285 -0.4508
   53CHL1   H25 5094   2.832   2.835   4.574 -0.7496 -2.4369  0.6555
   53CHL1   C26 5095   2.824   2.636   4.511  0.9467 -0.1913 -0.6270
   53CHL1  H26A 5096   2.715   2.630   4.531  1.2651 -0.3891  1.2827
   53CHL1  H26B 5097   2.839   2.580   4.416  0.8590 -0.0793 -0.7061
   53CHL1  H26C 5098   2.882   2.603   4.601  2.4138  1.1152 -1.0436
   53CHL1   C27 5099   3.026   2.778   4.479  0.2613  0.0788 -0.2822
   53CHL1  H27A 5100   3.068   2.741   4.575 -1.4368  2.0573  1.3239
   53CHL1  H27B 5101   3.074   2.724   4.395  1.1763 -0.7905  0.7609
   53CHL1  H27C 5102   3.073   2.879   4.472  0.4868  0.0186  0.2730
   54CHL1    C3 5103   2.390   3.472   2.877 -0.0541  0.2240 -0.3122
   54CHL1    H3 5104   2.366   3.575   2.910 -2.4642 -0.4737  0.2793
   54CHL1    O3 5105   2.400   3.441   2.735  0.6583  0.2089 -0.0297
   54CHL1   H3' 5106   2.320   3.391   2.717  0.5877 -0.7242  2.4489
   54CHL1    C4 5107   2.517   3.427   2.951 -0.4100 -0.0788  0.8438
   54CHL1   H4A 5108   2.535   3.324   2.913 -0.7763  0.1978 -0.1279
   54CHL1   H4B 5109   2.597   3.491   2.909 -0.6883  0.2340  0.7867
   54CHL1    C5 5110   2.506   3.431   3.097 -0.0594 -0.0211 -0.1952
   54CHL1    C6 5111   2.596   3.501   3.163  1.4447  1.1559  0.3798
   54CHL1    H6 5112   2.678   3.528   3.095 -0.8684 -1.4815 -3.9133
   54CHL1    C7 5113   2.604   3.524   3.313  0.2474 -0.4202  0.7969
   54CHL1   H7A 5114   2.702   3.491   3.352  0.4835 -0.7440 -0.0365
   54CHL1   H7B 5115   2.582   3.627   3.348  2.7494 -0.5306  2.9887
   54CHL1    C8 5116   2.506   3.414   3.381 -0.3025 -1.2573  0.6462
   54CHL1    H8 5117   2.563   3.319   3.381 -0.0744 -1.1220  0.5243
   54CHL1   C14 5118   2.483   3.450   3.523 -0.2429  0.2758 -0.5376
   54CHL1   H14 5119   2.434   3.549   3.513  1.2778  1.0702 -0.3365
   54CHL1   C15 5120   2.611   3.481   3.611  0.6728  0.0496  0.5631
   54CHL1  H15A 5121   2.693   3.409   3.588  0.3193 -0.4884  0.9556
   54CHL1  H15B 5122   2.648   3.585   3.605 -1.4609  0.7918 -3.0082
   54CHL1   C16 5123   2.569   3.444   3.753 -0.2910 -0.5646 -0.2082
   54CHL1  H16A 5124   2.626   3.353   3.779  3.7646  1.3682 -1.5086
   54CHL1  H16B 5125   2.590   3.524   3.828 -0.2101 -1.6345  0.9364
   54CHL1   C17 5126   2.421   3.398   3.741 -0.2800  0.1997  0.3742
   54CHL1   H17 5127   2.351   3.485   3.740  0.8383  1.2877  3.6524
   54CHL1   C13 5128   2.397   3.345   3.593 -0.1377 -0.1078  0.0443
   54CHL1   C18 5129   2.459   3.206   3.592 -0.4854  0.3571  0.8926
   54CHL1  H18A 5130   2.558   3.212   3.642 -0.5450 -2.5044  1.5313
   54CHL1  H18B 5131   2.387   3.141   3.646  0.3442 -2.9048 -1.6189
   54CHL1  H18C 5132   2.467   3.173   3.486  2.9515  0.6535  0.9580
   54CHL1   C12 5133   2.252   3.358   3.539 -0.7998  0.3662  0.7876
   54CHL1  H12A 5134   2.180   3.281   3.574 -0.4310 -1.4429 -2.1529
   54CHL1  H12B 5135   2.215   3.461   3.562 -0.1953  1.1363 -1.4618
   54CHL1   C11 5136   2.253   3.332   3.387  1.2813  0.6930  0.4806
   54CHL1  H11A 5137   2.270   3.222   3.383 -1.3688  0.2566 -0.3995
   54CHL1  H11B 5138   2.155   3.345   3.336  1.5330  0.6576 -0.0254
   54CHL1    C9 5139   2.366   3.408   3.312 -0.1308  0.5722  0.8317
   54CHL1    H9 5140   2.327   3.511   3.310  0.1902  0.6842  0.1597
   54CHL1   C10 5141   2.380   3.363   3.161  0.5726 -0.7197  0.2470
   54CHL1   C19 5142   2.398   3.208   3.151  0.1348 -0.1957 -0.6005
   54CHL1  H19A 5143   2.441   3.181   3.052 -2.0357  2.0154 -2.2488
   54CHL1  H19B 5144   2.473   3.171   3.225 -0.4357 -0.5464 -0.1933
   54CHL1  H19C 5145   2.296   3.168   3.172  0.0607  1.5641  3.1150
   54CHL1    C1 5146   2.254   3.404   3.092  0.1518 -0.5901  0.0723
   54CHL1   H1A 5147   2.170   3.341   3.130  0.3847 -1.1116 -0.2652
   54CHL1   H1B 5148   2.234   3.511   3.116  1.4953  0.1783 -1.9685
   54CHL1    C2 5149   2.263   3.398   2.936  0.3355  0.6271  0.6135
   54CHL1   H2A 5150   2.171   3.450   2.903  0.2989 -0.2165 -0.7094
   54CHL1   H2B 5151   2.258   3.293   2.898 -1.3482  1.1465 -0.7149
   54CHL1   C20 5152   2.377   3.306   3.859 -0.4575 -0.4324  0.4388
   54CHL1   H20 5153   2.433   3.210   3.861  1.3045  0.5794  1.4235
   54CHL1   C21 5154   2.226   3.265   3.848 -0.0581  0.0617  0.2596
   54CHL1  H21A 5155   2.205   3.185   3.774 -0.5859 -0.0116  0.4881
   54CHL1  H21B 5156   2.161   3.354   3.838 -0.2614 -0.0136  0.8982
   54CHL1  H21C 5157   2.204   3.219   3.946 -0.1918  0.6356  0.5005
   54CHL1   C22 5158   2.409   3.371   3.997 -0.5038 -1.0315 -0.4975
   54CHL1  H22A 5159   2.518   3.395   3.986 -0.8830  1.1024 -0.1437
   54CHL1  H22B 5160   2.354   3.467   4.005  0.6951 -0.2578 -1.1651
   54CHL1   C23 5161   2.397   3.278   4.119  0.2394  0.2492  0.2695
   54CHL1  H23A 5162   2.294   3.235   4.116  0.1199  0.5560 -2.8403
   54CHL1  H23B 5163   2.473   3.203   4.089 -1.5469 -1.0144 -1.3300
   54CHL1   C24 5164   2.431   3.336   4.262  0.3670  0.4185 -0.1841
   54CHL1  H24A 5165   2.416   3.261   4.342  3.3023 -1.3788 -1.1397
   54CHL1  H24B 5166   2.540   3.353   4.256  0.3893 -0.1569 -2.0072
   54CHL1   C25 5167   2.362   3.470   4.300 -0.4775 -0.9214 -0.4402
   54CHL1   H25 5168   2.375   3.532   4.209 -0.8365 -1.0311 -0.5700
   54CHL1   C26 5169   2.220   3.449   4.327  0.3369 -0.0108 -0.5425
   54CHL1  H26A 5170   2.210   3.385   4.418 -0.3191  0.7290 -0.0715
   54CHL1  H26B 5171   2.176   3.547   4.354 -1.4840 -1.2523  1.3312
   54CHL1  H26C 5172   2.176   3.404   4.236  3.6476 -3.8798 -0.5022
   54CHL1   C27 5173   2.437   3.536   4.421  0.6971 -0.4649 -0.2141
   54CHL1  H27A 5174   2.423   3.473   4.511 -1.3767  1.1487  0.6791
   54CHL1  H27B 5175   2.545   3.548   4.399  0.3254  2.3354 -1.0226
   54CHL1  H27C 5176   2.395   3.635   4.452 -1.5858 -1.3754 -0.1864
   55CHL1    C3 5177   3.967   5.777   2.744 -0.5026 -0.2429 -0.1856
   55CHL1    H3 5178   3.864   5.818   2.739  0.6998  2.8639 -2.8694
   55CHL1    O3 5179   4.010   5.742   2.612  0.7861  0.0320  0.3175
   55CHL1   H3' 5180   3.961   5.660   2.605  0.0071  0.5011  0.1837
   55CHL1    C4 5181   4.056   5.889   2.800  0.1680 -0.1700 -0.6633
   55CHL1   H4A 5182   4.163   5.863   2.790  0.7479  1.7500  0.0260
   55CHL1   H4B 5183   4.036   5.978   2.737 -1.6341  0.1449  0.2771
   55CHL1    C5 5184   4.017   5.928   2.944 -0.4626  0.5862  0.0817
   55CHL1    C6 5185   3.980   6.051   2.973  0.6805 -0.9086  0.0834
   55CHL1    H6 5186   3.975   6.125   2.892 -0.2916 -0.5038  0.4935
   55CHL1    C7 5187   3.938   6.101   3.108 -0.8238  0.3265 -0.1877
   55CHL1   H7A 5188   3.987   6.197   3.134 -1.6718  0.9645 -0.8835
   55CHL1   H7B 5189   3.827   6.096   3.101 -0.7305 -3.0651 -1.0435
   55CHL1    C8 5190   3.995   5.997   3.213  0.2857  0.0117  0.4891
   55CHL1    H8 5191   4.105   6.009   3.224  0.4057 -2.6510  3.7341
   55CHL1   C14 5192   3.927   6.025   3.344 -0.0909  0.1475  0.1231
   55CHL1   H14 5193   3.821   6.006   3.320 -0.1307 -1.2605  1.2610
   55CHL1   C15 5194   3.942   6.168   3.398  0.2931  0.0083  0.0199
   55CHL1  H15A 5195   4.045   6.211   3.401 -0.5094  1.9524  1.1195
   55CHL1  H15B 5196   3.884   6.234   3.330  0.5456 -0.8288 -1.0509
   55CHL1   C16 5197   3.898   6.165   3.542 -0.4682  0.1761  0.1299
   55CHL1  H16A 5198   3.979   6.200   3.611 -0.3978 -1.1363  0.7517
   55CHL1  H16B 5199   3.809   6.231   3.550 -0.5565  0.1506 -0.6091
   55CHL1   C17 5200   3.880   6.012   3.581  0.0909  0.1658 -0.1109
   55CHL1   H17 5201   3.772   5.993   3.569  0.3986 -0.8278 -1.5811
   55CHL1   C13 5202   3.958   5.935   3.466 -0.0252 -0.8266  0.5741
   55CHL1   C18 5203   4.112   5.956   3.493 -1.0564  0.0436 -0.0877
   55CHL1  H18A 5204   4.149   5.890   3.573  0.4218  1.1656  0.2046
   55CHL1  H18B 5205   4.176   5.941   3.403 -0.3416  1.2488  0.1934
   55CHL1  H18C 5206   4.127   6.061   3.527  1.3430  0.1017 -1.1265
   55CHL1   C12 5207   3.928   5.795   3.430  0.0743  0.4922 -0.2423
   55CHL1  H12A 5208   3.948   5.711   3.500 -3.5937 -1.2322 -0.9943
   55CHL1  H12B 5209   3.819   5.789   3.413  0.4517  0.1673 -3.0960
   55CHL1   C11 5210   3.986   5.755   3.292 -0.6342  0.1330  0.1301
   55CHL1  H11A 5211   4.096   5.749   3.309 -1.0452 -0.5053  3.2723
   55CHL1  H11B 5212   3.953   5.651   3.275  0.6939 -0.0932 -1.2801
   55CHL1    C9 5213   3.959   5.847   3.179 -0.6766  0.0889 -0.5852
   55CHL1    H9 5214   3.850   5.846   3.157 -0.3206 -1.1233 -2.5542
   55CHL1   C10 5215   4.012   5.806   3.036 -0.9236 -0.6294  0.1783
   55CHL1   C19 5216   4.162   5.753   3.055 -0.2967  0.0404  0.3756
   55CHL1  H19A 5217   4.156   5.655   3.106  0.5531 -0.3912 -0.3208
   55CHL1  H19B 5218   4.222   5.738   2.962  2.4557  1.3677  1.8297
   55CHL1  H19C 5219   4.216   5.822   3.122  1.1213 -1.4232  0.7905
   55CHL1    C1 5220   3.932   5.695   2.973  1.0544 -0.3363 -0.4243
   55CHL1   H1A 5221   3.936   5.601   3.032 -0.3593  0.3599  0.8680
   55CHL1   H1B 5222   3.824   5.722   2.966  0.7616 -0.9856  1.0934
   55CHL1    C2 5223   3.971   5.657   2.828 -0.2236  0.5452 -0.1398
   55CHL1   H2A 5224   3.888   5.588   2.802 -0.0768  0.1559  0.4015
   55CHL1   H2B 5225   4.070   5.607   2.815 -0.3781  0.1995  0.0189
   55CHL1   C20 5226   3.913   5.986   3.730  0.1116 -0.5077  0.8267
   55CHL1   H20 5227   4.016   6.024   3.744 -0.2484  0.6689  0.4208
   55CHL1   C21 5228   3.913   5.834   3.766  0.3587 -0.0263 -0.2494
   55CHL1  H21A 5229   3.806   5.806   3.775  0.3591  0.6249  2.6272
   55CHL1  H21B 5230   3.951   5.825   3.870 -0.9312  0.7216  0.3118
   55CHL1  H21C 5231   3.981   5.774   3.701  2.6214  1.4446  0.6351
   55CHL1   C22 5232   3.816   6.061   3.826 -0.6739  0.2142  0.6575
   55CHL1  H22A 5233   3.812   6.171   3.811 -1.3333  0.2612  1.1530
   55CHL1  H22B 5234   3.716   6.013   3.823 -0.4824 -0.2021  0.8984
   55CHL1   C23 5235   3.850   6.041   3.975  0.3154 -0.4559 -0.2138
   55CHL1  H23A 5236   3.826   5.935   3.999  2.0018 -0.7606  0.3003
   55CHL1  H23B 5237   3.959   6.059   3.988  0.2970  1.7715 -2.4006
   55CHL1   C24 5238   3.770   6.131   4.071  0.4336 -0.2003  0.2272
   55CHL1  H24A 5239   3.798   6.238   4.054 -3.7489  0.7153 -2.1286
   55CHL1  H24B 5240   3.660   6.122   4.060  0.2563  2.0401 -0.4434
   55CHL1   C25 5241   3.808   6.097   4.215  0.5470  0.1485  0.0417
   55CHL1   H25 5242   3.919   6.089   4.218  0.5930  1.0948  1.2229
   55CHL1   C26 5243   3.776   6.203   4.314  0.2266 -0.0807 -0.2076
   55CHL1  H26A 5244   3.812   6.297   4.267 -2.3023  0.1139 -1.9629
   55CHL1  H26B 5245   3.666   6.208   4.327 -0.0579 -0.6780 -2.0941
   55CHL1  H26C 5246   3.823   6.166   4.408 -0.8875 -1.2005 -0.0620
   55CHL1   C27 5247   3.747   5.965   4.269 -0.3805 -0.7224 -0.1430
   55CHL1  H27A 5248   3.639   5.991   4.266  0.1648  1.7775  0.1490
   55CHL1  H27B 5249   3.762   5.872   4.209  2.4068 -0.4088 -0.0525
   55CHL1  H27C 5250   3.787   5.946   4.371  2.6831  0.7714 -0.9364
   56CHL1    C3 5251   5.424   2.048   3.101 -0.3840  0.5686 -0.0895
   56CHL1    H3 5252   5.404   1.939   3.108  2.6439  0.0106  1.1362
   56CHL1    O3 5253   5.429   2.082   2.961  0.6931 -0.5716 -0.4188
   56CHL1   H3' 5254   5.520   2.069   2.935  0.4442 -0.1470 -1.5441
   56CHL1    C4 5255   5.313   2.133   3.173  0.0983  0.3493 -0.4682
   56CHL1   H4A 5256   5.318   2.241   3.148 -0.6864  0.7826  1.0956
   56CHL1   H4B 5257   5.216   2.104   3.129 -0.2487 -2.6999  1.9182
   56CHL1    C5 5258   5.315   2.115   3.325  0.6669  0.2032  0.5239
   56CHL1    C6 5259   5.199   2.078   3.385 -0.2661 -0.1000  0.0302
   56CHL1    H6 5260   5.109   2.074   3.323  0.6164  0.2314 -1.2996
   56CHL1    C7 5261   5.182   2.040   3.531 -0.2081  0.6275  0.5159
   56CHL1   H7A 5262   5.090   2.074   3.584 -0.7150 -2.9125  2.2157
   56CHL1   H7B 5263   5.164   1.930   3.539 -0.3290  0.5975 -0.1395
   56CHL1    C8 5264   5.314   2.083   3.614  0.4974 -0.5943  0.4997
   56CHL1    H8 5265   5.306   2.192   3.634 -2.4748 -0.8960  1.3941
   56CHL1   C14 5266   5.320   2.017   3.748  0.3640  0.2876 -0.0096
   56CHL1   H14 5267   5.329   1.908   3.728 -0.3957  0.4132 -1.1197
   56CHL1   C15 5268   5.204   2.045   3.845 -0.0462 -0.8133 -0.0448
   56CHL1  H15A 5269   5.156   2.144   3.827  2.8736  0.8139  0.3970
   56CHL1  H15B 5270   5.133   1.961   3.852 -0.6652 -0.4627 -1.7779
   56CHL1   C16 5271   5.266   2.041   3.985 -0.0448  0.3653 -0.9923
   56CHL1  H16A 5272   5.264   2.142   4.029 -1.3357 -0.5914  1.2994
   56CHL1  H16B 5273   5.219   1.962   4.048  0.8430 -0.0182 -0.7912
   56CHL1   C17 5274   5.414   1.996   3.966  0.4747 -0.5239  0.5027
   56CHL1   H17 5275   5.404   1.885   3.958 -0.9710 -0.3002 -1.9940
   56CHL1   C13 5276   5.450   2.048   3.824 -0.0609 -0.4804 -0.1102
   56CHL1   C18 5277   5.468   2.203   3.836 -0.0062 -0.2453 -0.4291
   56CHL1  H18A 5278   5.484   2.252   3.737  0.3778  1.7776  0.5775
   56CHL1  H18B 5279   5.385   2.246   3.896 -0.7817 -0.5926 -1.2229
   56CHL1  H18C 5280   5.555   2.215   3.905  0.6287 -5.5050  0.1305
   56CHL1   C12 5281   5.571   1.981   3.757  0.5330 -0.3109 -0.1635
   56CHL1  H12A 5282   5.667   1.997   3.810  0.9781 -1.9455 -0.4173
   56CHL1  H12B 5283   5.548   1.873   3.751 -1.7614  0.0372  1.1450
   56CHL1   C11 5284   5.584   2.024   3.609  0.2117 -0.3622 -0.3587
   56CHL1  H11A 5285   5.638   2.120   3.598  0.0178 -0.1822  0.2101
   56CHL1  H11B 5286   5.649   1.944   3.566  0.7044  0.0141 -0.3221
   56CHL1    C9 5287   5.440   2.040   3.535 -1.4067  0.7021  0.2811
   56CHL1    H9 5288   5.414   1.933   3.516  1.0936  0.1702 -0.4772
   56CHL1   C10 5289   5.446   2.109   3.398 -0.2654  0.4139  0.5842
   56CHL1   C19 5290   5.490   2.259   3.413 -0.0564 -0.0164  1.0012
   56CHL1  H19A 5291   5.498   2.305   3.312 -0.4574 -0.8082  0.6007
   56CHL1  H19B 5292   5.421   2.320   3.475 -1.1954 -0.5801  0.3172
   56CHL1  H19C 5293   5.593   2.265   3.454  0.1552  2.0178  0.2776
   56CHL1    C1 5294   5.546   2.033   3.311 -0.5302 -0.1634 -0.3662
   56CHL1   H1A 5295   5.647   2.048   3.354 -0.1859  0.9549 -1.5397
   56CHL1   H1B 5296   5.537   1.923   3.327  3.2932 -0.4023  1.3513
   56CHL1    C2 5297   5.561   2.080   3.165  0.0147 -0.5233  0.6639
   56CHL1   H2A 5298   5.652   2.044   3.114  1.2268  2.0404  0.8376
   56CHL1   H2B 5299   5.588   2.188   3.157 -0.0984 -0.5620 -0.3976
   56CHL1   C20 5300   5.498   2.028   4.090  0.7037 -0.0814 -0.4057
   56CHL1   H20 5301   5.483   2.137   4.106  0.4705 -0.1300 -0.2807
   56CHL1   C21 5302   5.644   1.992   4.075 -0.5064 -0.6227  0.0706
   56CHL1  H21A 5303   5.662   1.895   4.025  2.0119  0.0525 -0.4958
   56CHL1  H21B 5304   5.700   1.970   4.168 -2.5858  0.3041  1.6412
   56CHL1  H21C 5305   5.696   2.073   4.019 -2.7981  0.6920 -0.3148
   56CHL1   C22 5306   5.445   1.954   4.222 -0.9314  0.6131  0.3661
   56CHL1  H22A 5307   5.515   1.989   4.301 -0.1613 -3.0670  1.5087
   56CHL1  H22B 5308   5.349   2.007   4.244  0.3561  1.9495  3.3897
   56CHL1   C23 5309   5.440   1.805   4.234 -0.4646 -0.1583 -0.0201
   56CHL1  H23A 5310   5.392   1.758   4.145  1.6286  2.0523 -2.4550
   56CHL1  H23B 5311   5.543   1.763   4.233 -0.2203  0.4514 -0.9094
   56CHL1   C24 5312   5.393   1.759   4.372  0.9492 -0.0740 -0.2933
   56CHL1  H24A 5313   5.438   1.824   4.450 -1.9107 -0.4300  1.8233
   56CHL1  H24B 5314   5.284   1.777   4.381  0.8646 -0.2981 -0.8097
   56CHL1   C25 5315   5.410   1.609   4.394 -0.5634 -0.3646 -0.5670
   56CHL1   H25 5316   5.521   1.600   4.394 -0.3595  1.6091 -1.0923
   56CHL1   C26 5317   5.354   1.563   4.526  0.5975 -0.3463  0.2771
   56CHL1  H26A 5318   5.244   1.573   4.538  0.4409 -0.5075 -0.9173
   56CHL1  H26B 5319   5.372   1.454   4.533 -0.1549 -0.6421 -1.6915
   56CHL1  H26C 5320   5.395   1.609   4.618 -1.5282 -0.6447  1.4353
   56CHL1   C27 5321   5.354   1.531   4.279  0.4111 -0.0664  0.7842
   56CHL1  H27A 5322   5.357   1.423   4.303 -1.9870 -0.5604 -0.7751
   56CHL1  H27B 5323   5.249   1.558   4.256  0.7900  0.4064 -0.5045
   56CHL1  H27C 5324   5.415   1.543   4.187 -0.7894 -0.3435 -0.0773
   57CHL1    C3 5325   3.960   6.739   2.745 -0.5805  0.9106 -0.1258
   57CHL1    H3 5326   4.068   6.717   2.728 -0.0810  3.5873 -0.7643
   57CHL1    O3 5327   3.899   6.755   2.619 -0.2183 -0.5422 -0.0107
   57CHL1   H3' 5328   3.806   6.770   2.634 -0.7197  0.2295 -3.2467
   57CHL1    C4 5329   3.900   6.631   2.832  0.0673 -0.3135 -0.2529
   57CHL1   H4A 5330   3.795   6.666   2.845  0.6156  1.4222 -0.2506
   57CHL1   H4B 5331   3.908   6.532   2.781  1.6395 -0.5071  0.3166
   57CHL1    C5 5332   3.956   6.628   2.974  0.3694  0.0240 -0.2951
   57CHL1    C6 5333   4.010   6.515   3.023  0.4628 -0.4244 -0.6961
   57CHL1    H6 5334   4.012   6.422   2.964  1.3112 -0.8921  0.0427
   57CHL1    C7 5335   4.057   6.495   3.161 -0.4036  0.0783 -0.3735
   57CHL1   H7A 5336   4.004   6.401   3.189 -3.9288  1.5842 -1.4888
   57CHL1   H7B 5337   4.167   6.487   3.177 -0.4690  1.3848  0.8090
   57CHL1    C8 5338   4.018   6.610   3.253 -1.0632 -1.1010 -0.3502
   57CHL1    H8 5339   3.912   6.599   3.284 -0.2114 -1.9890  2.5077
   57CHL1   C14 5340   4.096   6.606   3.384  0.0004 -1.0839  0.0322
   57CHL1   H14 5341   4.201   6.624   3.352 -0.2353 -0.0856 -0.2144
   57CHL1   C15 5342   4.097   6.472   3.461 -0.0109  0.3340  0.3098
   57CHL1  H15A 5343   3.994   6.431   3.466  0.4733 -0.8627  0.8837
   57CHL1  H15B 5344   4.167   6.391   3.432 -0.4182 -0.0942  0.4964
   57CHL1   C16 5345   4.154   6.515   3.599 -0.1758  0.4455 -0.4846
   57CHL1  H16A 5346   4.098   6.471   3.684  0.4836  1.6682  0.6102
   57CHL1  H16B 5347   4.261   6.487   3.611  0.5033  2.3132 -1.7591
   57CHL1   C17 5348   4.146   6.671   3.604 -0.6816  0.3337  0.0453
   57CHL1   H17 5349   4.250   6.701   3.579 -0.5496 -0.2217 -0.0670
   57CHL1   C13 5350   4.068   6.723   3.484 -1.1109  0.2375 -0.3487
   57CHL1   C18 5351   3.919   6.722   3.521  0.4801 -0.2591  0.2428
   57CHL1  H18A 5352   3.891   6.801   3.595 -0.8174 -1.5770  1.2201
   57CHL1  H18B 5353   3.855   6.735   3.431  0.0828  2.0955  0.7769
   57CHL1  H18C 5354   3.880   6.628   3.564 -2.7905  1.1765  0.7259
   57CHL1   C12 5355   4.102   6.850   3.414  0.2480  0.3868 -0.1612
   57CHL1  H12A 5356   4.093   6.930   3.491 -1.5135 -0.8211  0.9654
   57CHL1  H12B 5357   4.211   6.845   3.391  1.0522  2.4059  2.5468
   57CHL1   C11 5358   4.030   6.867   3.281 -1.1910 -0.2123  0.3388
   57CHL1  H11A 5359   3.933   6.901   3.322 -1.2962 -0.6009  0.4186
   57CHL1  H11B 5360   4.080   6.953   3.231  1.0881 -2.0194 -0.6577
   57CHL1    C9 5361   4.038   6.747   3.182  0.1001  0.1960 -0.5587
   57CHL1    H9 5362   4.144   6.738   3.150  0.0860 -0.5668 -0.4114
   57CHL1   C10 5363   3.952   6.764   3.056  0.0794 -0.6524 -0.3475
   57CHL1   C19 5364   3.809   6.807   3.095  0.9472  0.2769  0.4385
   57CHL1  H19A 5365   3.736   6.807   3.011 -0.6183 -1.9191  1.6928
   57CHL1  H19B 5366   3.773   6.736   3.173 -0.1654  0.4192  0.0686
   57CHL1  H19C 5367   3.800   6.906   3.145 -2.1543 -0.0488  0.7079
   57CHL1    C1 5368   4.017   6.858   2.959  0.0383 -0.3048  0.7732
   57CHL1   H1A 5369   4.019   6.957   3.009 -1.3549  0.8263 -1.2668
   57CHL1   H1B 5370   4.123   6.828   2.945 -0.0293 -0.6892  1.0449
   57CHL1    C2 5371   3.949   6.873   2.826  0.7993  0.8950  0.0009
   57CHL1   H2A 5372   3.986   6.958   2.764 -3.5847  3.2945  0.2117
   57CHL1   H2B 5373   3.839   6.875   2.841  1.0590 -1.8132  3.4438
   57CHL1   C20 5374   4.106   6.719   3.748  0.0320  0.4466  0.2407
   57CHL1   H20 5375   4.002   6.690   3.776  0.7102 -0.7910  1.6383
   57CHL1   C21 5376   4.110   6.878   3.754  0.0801  0.2009 -0.8266
   57CHL1  H21A 5377   4.038   6.928   3.686 -0.1699 -2.0329 -2.3073
   57CHL1  H21B 5378   4.214   6.914   3.738 -0.4723  2.4447  0.3352
   57CHL1  H21C 5379   4.072   6.907   3.854 -0.7119  1.0788 -1.3711
   57CHL1   C22 5380   4.200   6.663   3.855 -0.7077 -0.4296 -0.3083
   57CHL1  H22A 5381   4.189   6.554   3.869 -0.2523 -0.3566  0.7448
   57CHL1  H22B 5382   4.302   6.682   3.814 -1.5164 -0.4781 -2.4412
   57CHL1   C23 5383   4.180   6.708   4.003  0.5087  0.2079  0.1628
   57CHL1  H23A 5384   4.205   6.816   4.009  0.5414  0.1629  0.9054
   57CHL1  H23B 5385   4.071   6.705   4.024  0.9013 -1.3262  2.3148
   57CHL1   C24 5386   4.261   6.636   4.105 -0.3760  0.2658 -0.4710
   57CHL1  H24A 5387   4.213   6.538   4.121  0.0477  0.0226 -0.6789
   57CHL1  H24B 5388   4.365   6.617   4.071  1.1813  1.3185  3.1238
   57CHL1   C25 5389   4.278   6.706   4.248  0.4440 -0.0521 -0.0211
   57CHL1   H25 5390   4.334   6.646   4.323 -0.5994 -0.0720  0.7467
   57CHL1   C26 5391   4.353   6.840   4.241  0.0809 -0.7489 -0.6032
   57CHL1  H26A 5392   4.320   6.905   4.158  2.4987 -0.4568 -1.4158
   57CHL1  H26B 5393   4.341   6.878   4.345 -1.0143 -0.2610 -0.9011
   57CHL1  H26C 5394   4.463   6.836   4.224  0.1236  1.3068 -1.0908
   57CHL1   C27 5395   4.142   6.721   4.324  0.2658 -0.0302  0.1248
   57CHL1  H27A 5396   4.096   6.814   4.285 -0.2624 -1.0363 -1.7557
   57CHL1  H27B 5397   4.073   6.640   4.292  2.2830 -2.0623  0.6496
   57CHL1  H27C 5398   4.159   6.738   4.433 -0.7642  4.7439 -0.2397
   58CHL1    C3 5399   4.067   1.057   3.395  0.1155  0.6311  0.3106
   58CHL1    H3 5400   4.131   1.108   3.470  2.8971 -1.4297 -0.4775
   58CHL1    O3 5401   4.140   1.065   3.276 -0.7062  0.3164 -0.0370
   58CHL1   H3' 5402   4.118   0.984   3.231  2.3446 -1.1218  0.7611
   58CHL1    C4 5403   4.047   0.912   3.438 -0.2333 -0.4006 -1.1205
   58CHL1   H4A 5404   3.991   0.863   3.356 -0.7733  0.3331 -1.1968
   58CHL1   H4B 5405   4.145   0.861   3.429  0.2785 -0.0572  1.7142
   58CHL1    C5 5406   3.978   0.906   3.570  0.1257  0.4754  0.9528
   58CHL1    C6 5407   4.032   0.839   3.673 -0.2694 -0.2111 -0.4352
   58CHL1    H6 5408   4.133   0.799   3.659  0.7713  2.3446 -0.6583
   58CHL1    C7 5409   3.972   0.818   3.803  0.2988  0.0171 -0.5085
   58CHL1   H7A 5410   3.992   0.715   3.841 -1.2177  0.3832  1.4307
   58CHL1   H7B 5411   3.995   0.885   3.888  0.9599 -2.7409  1.6607
   58CHL1    C8 5412   3.814   0.835   3.796  0.0971 -0.0819  0.2635
   58CHL1    H8 5413   3.767   0.752   3.738  2.7086 -3.2347  2.3482
   58CHL1   C14 5414   3.751   0.850   3.935  0.0674  0.1128  1.3084
   58CHL1   H14 5415   3.797   0.940   3.982  1.3040 -1.2271  2.7439
   58CHL1   C15 5416   3.784   0.739   4.032  0.7393 -0.5376  0.1780
   58CHL1  H15A 5417   3.782   0.640   3.981  0.1341  0.3572 -1.6031
   58CHL1  H15B 5418   3.888   0.745   4.071  0.0677 -0.2121  2.0197
   58CHL1   C16 5419   3.686   0.763   4.145  0.1914  0.2314 -0.1703
   58CHL1  H16A 5420   3.621   0.674   4.158  1.2973 -1.2679 -3.6892
   58CHL1  H16B 5421   3.738   0.785   4.241  2.5358 -0.6787 -1.1606
   58CHL1   C17 5422   3.587   0.877   4.098 -0.3762 -0.0599 -0.3959
   58CHL1   H17 5423   3.629   0.971   4.138  1.7927 -0.4050 -1.7010
   58CHL1   C13 5424   3.606   0.884   3.940 -0.0962 -0.5235 -0.3785
   58CHL1   C18 5425   3.517   0.767   3.880  0.2477 -0.1236 -0.2842
   58CHL1  H18A 5426   3.417   0.809   3.853  0.7210  0.6893 -0.8327
   58CHL1  H18B 5427   3.554   0.735   3.780 -0.7824  0.3690 -0.8387
   58CHL1  H18C 5428   3.522   0.678   3.945 -0.2178  0.4787  0.5987
   58CHL1   C12 5429   3.581   1.018   3.874 -0.0040 -0.7601 -0.5978
   58CHL1  H12A 5430   3.475   1.051   3.881  0.2425 -0.0251 -0.1672
   58CHL1  H12B 5431   3.650   1.087   3.927 -1.5520  0.0313  0.4429
   58CHL1   C11 5432   3.634   1.009   3.725  0.3091 -0.5366 -0.0526
   58CHL1  H11A 5433   3.564   0.937   3.678  2.0430 -2.2688 -0.1382
   58CHL1  H11B 5434   3.628   1.110   3.680  0.6813 -1.1014 -1.4021
   58CHL1    C9 5435   3.782   0.958   3.713 -0.2177 -0.2443  0.5203
   58CHL1    H9 5436   3.834   1.039   3.769  0.5671  0.8293 -1.6185
   58CHL1   C10 5437   3.845   0.970   3.568  0.4680  0.1326 -0.3601
   58CHL1   C19 5438   3.759   0.879   3.481 -0.2988 -0.3732  0.2487
   58CHL1  H19A 5439   3.653   0.912   3.478 -0.2597 -0.2168 -2.8234
   58CHL1  H19B 5440   3.788   0.890   3.374 -0.4112  1.0620  0.3501
   58CHL1  H19C 5441   3.772   0.772   3.511  1.7825 -0.3402 -0.3959
   58CHL1    C1 5442   3.864   1.109   3.508  0.1326 -0.3182 -0.2952
   58CHL1   H1A 5443   3.761   1.146   3.486  0.3148  0.1625 -0.3596
   58CHL1   H1B 5444   3.908   1.169   3.590  1.2237  1.9481 -2.4000
   58CHL1    C2 5445   3.941   1.122   3.382  0.0853 -0.9528  0.1358
   58CHL1   H2A 5446   3.961   1.227   3.352  0.2053 -0.4614  1.8380
   58CHL1   H2B 5447   3.877   1.088   3.297 -0.0136 -2.3615  0.7560
   58CHL1   C20 5448   3.452   0.868   4.159 -0.0711  0.8719 -0.5430
   58CHL1   H20 5449   3.411   0.768   4.137  0.4219  0.7557 -0.9483
   58CHL1   C21 5450   3.349   0.964   4.097  0.3516 -0.0267  0.2689
   58CHL1  H21A 5451   3.334   0.933   3.991  2.1629  1.5111 -0.4945
   58CHL1  H21B 5452   3.386   1.068   4.085 -1.8159  0.8483  0.7151
   58CHL1  H21C 5453   3.260   0.971   4.163  1.1243 -0.7359  1.4424
   58CHL1   C22 5454   3.455   0.875   4.308  0.1518 -0.7288 -0.2086
   58CHL1  H22A 5455   3.534   0.810   4.350 -0.5772 -1.1868  0.4717
   58CHL1  H22B 5456   3.490   0.972   4.350 -0.4901  1.5898 -4.4264
   58CHL1   C23 5457   3.329   0.841   4.380 -0.1225 -0.1722 -0.1208
   58CHL1  H23A 5458   3.267   0.933   4.388 -2.3351 -1.5799 -0.2717
   58CHL1  H23B 5459   3.278   0.766   4.316  1.4163 -1.2835 -0.0879
   58CHL1   C24 5460   3.348   0.779   4.520  0.3112  0.0824 -0.1207
   58CHL1  H24A 5461   3.407   0.687   4.500  0.6893  0.2883  0.0355
   58CHL1  H24B 5462   3.423   0.845   4.569  0.9232 -1.7167  1.4672
   58CHL1   C25 5463   3.216   0.756   4.594  0.6442 -0.4080 -0.4275
   58CHL1   H25 5464   3.164   0.854   4.607 -1.2832 -1.2930 -1.0581
   58CHL1   C26 5465   3.118   0.672   4.511  0.6779 -0.1248  0.0465
   58CHL1  H26A 5466   3.019   0.648   4.556  0.0721  2.0157 -0.0504
   58CHL1  H26B 5467   3.083   0.731   4.423  0.1888 -1.0095 -0.3699
   58CHL1  H26C 5468   3.173   0.585   4.469  0.5099  0.9103 -2.5385
   58CHL1   C27 5469   3.230   0.691   4.734 -0.3513 -0.1648  0.4995
   58CHL1  H27A 5470   3.259   0.584   4.725 -0.0397 -0.0940  0.6427
   58CHL1  H27B 5471   3.310   0.736   4.797  0.4616 -1.6326  0.5578
   58CHL1  H27C 5472   3.137   0.706   4.792 -1.7745  0.5469 -1.8179
   59CHL1    C3 5473   2.361   4.972   3.010 -0.1973  0.0850  0.2559
   59CHL1    H3 5474   2.253   4.998   3.006  0.2094  2.0217  0.7684
   59CHL1    O3 5475   2.419   4.982   2.879 -0.0090  0.4686  0.3969
   59CHL1   H3' 5476   2.490   5.046   2.887  0.5211 -0.0708  0.0958
   59CHL1    C4 5477   2.444   5.068   3.093  0.0905  0.3771 -0.0902
   59CHL1   H4A 5478   2.553   5.046   3.096  0.2046  0.8923 -0.4508
   59CHL1   H4B 5479   2.444   5.173   3.058 -0.5866 -0.2156 -1.9727
   59CHL1    C5 5480   2.399   5.062   3.240 -0.2152 -0.5673  0.5307
   59CHL1    C6 5481   2.349   5.170   3.296  0.3012 -0.4932 -0.2400
   59CHL1    H6 5482   2.345   5.268   3.246 -2.6684 -0.0162  0.7166
   59CHL1    C7 5483   2.299   5.182   3.436 -1.2740  0.2935  0.7191
   59CHL1   H7A 5484   2.353   5.262   3.489  2.1093 -2.0804  1.1875
   59CHL1   H7B 5485   2.189   5.199   3.432 -1.3602 -0.2471  0.5870
   59CHL1    C8 5486   2.331   5.056   3.517  0.0608 -0.2530 -0.1299
   59CHL1    H8 5487   2.439   5.049   3.540 -0.4715 -1.5180  2.3589
   59CHL1   C14 5488   2.252   5.057   3.644  0.0215  0.0572  0.2682
   59CHL1   H14 5489   2.148   5.071   3.608  0.1645  1.7554  0.4047
   59CHL1   C15 5490   2.260   5.175   3.736  0.0360 -0.2012  0.4414
   59CHL1  H15A 5491   2.366   5.209   3.741  0.1459 -0.3257 -0.7318
   59CHL1  H15B 5492   2.211   5.265   3.694  1.3683 -0.6715 -2.3698
   59CHL1   C16 5493   2.188   5.131   3.864 -0.7715  0.2174  0.7568
   59CHL1  H16A 5494   2.253   5.155   3.951  2.3895 -0.1089 -1.3522
   59CHL1  H16B 5495   2.093   5.186   3.878 -0.1884  1.2627  0.6967
   59CHL1   C17 5496   2.172   4.972   3.847  0.1920  0.2695 -0.2018
   59CHL1   H17 5497   2.072   4.956   3.801  0.9914 -0.8067 -1.6209
   59CHL1   C13 5498   2.253   4.927   3.728 -0.5303  0.5677 -0.6628
   59CHL1   C18 5499   2.401   4.896   3.773  0.2482 -0.4510  0.2151
   59CHL1  H18A 5500   2.439   4.964   3.851 -0.8833 -0.9963  1.2775
   59CHL1  H18B 5501   2.410   4.796   3.821 -0.1205 -0.8572 -0.5404
   59CHL1  H18C 5502   2.475   4.906   3.690  1.0500  1.5591  1.1223
   59CHL1   C12 5503   2.209   4.810   3.641 -0.3565 -0.2030  0.2302
   59CHL1  H12A 5504   2.217   4.718   3.703  0.3085 -0.1294  0.2602
   59CHL1  H12B 5505   2.103   4.832   3.614 -0.2659 -0.2480 -0.1709
   59CHL1   C11 5506   2.303   4.796   3.522 -0.2625 -0.4854  0.7680
   59CHL1  H11A 5507   2.402   4.757   3.555  1.4152  0.5691 -2.5143
   59CHL1  H11B 5508   2.270   4.710   3.459  1.0842  0.8540 -1.9917
   59CHL1    C9 5509   2.309   4.924   3.432  0.6705  0.2414 -0.3105
   59CHL1    H9 5510   2.204   4.942   3.399  0.0921 -0.9229  0.8082
   59CHL1   C10 5511   2.391   4.922   3.304  0.3237  0.6398 -0.4155
   59CHL1   C19 5512   2.533   4.872   3.347  1.0133  0.3210 -0.1533
   59CHL1  H19A 5513   2.607   4.878   3.264  0.3900 -2.8323 -1.0808
   59CHL1  H19B 5514   2.566   4.925   3.438  0.5334 -1.8478  1.3505
   59CHL1  H19C 5515   2.534   4.763   3.367  2.3149  0.0490 -1.5107
   59CHL1    C1 5516   2.325   4.822   3.206  0.5600 -0.0875  0.0012
   59CHL1   H1A 5517   2.337   4.719   3.246 -3.6772 -0.8101 -0.1430
   59CHL1   H1B 5518   2.216   4.845   3.210 -0.3645 -3.8672  0.0640
   59CHL1    C2 5519   2.373   4.831   3.060  0.1173 -0.1196 -0.3566
   59CHL1   H2A 5520   2.318   4.765   2.989  2.0870  0.7016 -2.8004
   59CHL1   H2B 5521   2.480   4.802   3.057  0.3695  0.8202 -3.3111
   59CHL1   C20 5522   2.189   4.896   3.983 -0.2384 -0.1617 -0.0498
   59CHL1   H20 5523   2.291   4.902   4.026  0.1144  3.2294 -1.0700
   59CHL1   C21 5524   2.143   4.753   3.972  0.0479  0.2177 -0.0008
   59CHL1  H21A 5525   2.149   4.701   4.070  0.8412  3.1695  1.6519
   59CHL1  H21B 5526   2.203   4.690   3.902  0.6978 -0.2572  0.9647
   59CHL1  H21C 5527   2.042   4.755   3.926  0.0899  1.9726 -0.0758
   59CHL1   C22 5528   2.106   4.958   4.095  0.3030  0.5227  0.2518
   59CHL1  H22A 5529   2.134   5.065   4.106  3.4590  0.2731 -3.2440
   59CHL1  H22B 5530   1.998   4.954   4.071  0.4323 -1.2362 -0.2300
   59CHL1   C23 5531   2.128   4.897   4.236  0.5471  0.2325  0.7294
   59CHL1  H23A 5532   2.075   4.800   4.245 -0.1303  0.4720 -0.3994
   59CHL1  H23B 5533   2.235   4.873   4.249 -0.1377 -2.2926  2.2013
   59CHL1   C24 5534   2.075   4.996   4.338 -0.4679  0.3659 -0.6859
   59CHL1  H24A 5535   2.127   5.094   4.344 -0.9746  0.5440  2.4219
   59CHL1  H24B 5536   1.976   5.026   4.297 -0.1195  0.8936 -1.1552
   59CHL1   C25 5537   2.076   4.949   4.477 -0.2537  0.6723  0.0002
   59CHL1   H25 5538   2.018   4.854   4.483 -0.6547  1.0025  2.7489
   59CHL1   C26 5539   2.219   4.915   4.531 -0.0510 -0.7561  0.4725
   59CHL1  H26A 5540   2.284   5.004   4.514 -0.9091  0.1461  1.7217
   59CHL1  H26B 5541   2.222   4.900   4.641 -0.2429  0.5984  0.6780
   59CHL1  H26C 5542   2.257   4.826   4.477  0.2536 -0.7263  0.6382
   59CHL1   C27 5543   2.014   5.057   4.568  1.0440 -0.3548 -0.2863
   59CHL1  H27A 5544   2.060   5.157   4.557 -1.1703  0.7746  0.0570
   59CHL1  H27B 5545   1.908   5.079   4.541  1.2218 -1.8738 -2.4670
   59CHL1  H27C 5546   2.013   5.034   4.676 -3.5269 -1.2868 -0.3186
   60CHL1    C3 5547   5.535   6.295   2.768 -0.7348  0.0622 -0.3256
   60CHL1    H3 5548   5.555   6.401   2.795  2.1465 -0.9506  2.0309
   60CHL1    O3 5549   5.518   6.284   2.621 -0.3325 -0.0063 -0.3528
   60CHL1   H3' 5550   5.609   6.289   2.592  0.4273  2.8404  1.9498
   60CHL1    C4 5551   5.656   6.211   2.821 -0.8861  1.0438  0.2938
   60CHL1   H4A 5552   5.642   6.106   2.787  0.8954  0.1588  2.1167
   60CHL1   H4B 5553   5.746   6.257   2.777  0.6140 -0.2241  1.9064
   60CHL1    C5 5554   5.664   6.193   2.972 -0.0596  0.0400 -0.4319
   60CHL1    C6 5555   5.779   6.211   3.026 -0.1423  0.3407 -0.1808
   60CHL1    H6 5556   5.865   6.241   2.963  0.1729  2.4543  1.1308
   60CHL1    C7 5557   5.804   6.200   3.180  0.1504 -0.3787  0.0725
   60CHL1   H7A 5558   5.901   6.148   3.195  0.3232 -0.1657 -0.2787
   60CHL1   H7B 5559   5.816   6.302   3.223  0.2474 -0.4039  0.1045
   60CHL1    C8 5560   5.690   6.117   3.254  0.2753 -0.0815  0.3386
   60CHL1    H8 5561   5.698   6.009   3.229  1.0571  0.1194 -0.3030
   60CHL1   C14 5562   5.691   6.147   3.396 -0.2335  0.3219 -0.1271
   60CHL1   H14 5563   5.666   6.254   3.414 -1.3103 -0.1616  1.5898
   60CHL1   C15 5564   5.819   6.131   3.486  0.1096 -0.2659  0.2443
   60CHL1  H15A 5565   5.871   6.046   3.436  1.2930  1.5878 -1.8419
   60CHL1  H15B 5566   5.883   6.219   3.467 -0.0476 -0.6232 -2.2650
   60CHL1   C16 5567   5.766   6.114   3.628 -0.0695  0.4962 -0.2995
   60CHL1  H16A 5568   5.812   6.023   3.672  0.8853  1.0624 -0.1123
   60CHL1  H16B 5569   5.809   6.202   3.680 -1.8695  0.5067  1.3099
   60CHL1   C17 5570   5.611   6.122   3.625 -0.4111 -0.0626  0.9813
   60CHL1   H17 5571   5.596   6.232   3.628  1.2307  0.2670 -0.9513
   60CHL1   C13 5572   5.584   6.078   3.477  0.0995 -0.4772 -0.8369
   60CHL1   C18 5573   5.615   5.925   3.477  0.1841 -0.0771  0.4935
   60CHL1  H18A 5574   5.533   5.886   3.541 -0.2881  2.2369  1.4167
   60CHL1  H18B 5575   5.594   5.882   3.377 -0.9945  0.5745  0.4353
   60CHL1  H18C 5576   5.713   5.889   3.514  1.4154 -0.1668 -2.6056
   60CHL1   C12 5577   5.447   6.110   3.425 -0.1513 -0.1530 -0.1143
   60CHL1  H12A 5578   5.364   6.054   3.476  0.8707 -0.2893  1.4779
   60CHL1  H12B 5579   5.425   6.219   3.428 -2.2058 -0.4303 -2.2094
   60CHL1   C11 5580   5.440   6.087   3.271  0.3713  0.1821  0.0852
   60CHL1  H11A 5581   5.457   5.978   3.255  1.2061  0.3503 -0.2257
   60CHL1  H11B 5582   5.339   6.113   3.232 -0.1442 -0.1356  1.1381
   60CHL1    C9 5583   5.557   6.160   3.197 -0.5880 -0.2058  0.1041
   60CHL1    H9 5584   5.540   6.266   3.224 -1.3291 -0.3428  0.1754
   60CHL1   C10 5585   5.540   6.147   3.049  0.3110  0.1478  0.6650
   60CHL1   C19 5586   5.529   6.001   3.012 -0.3202  0.8739  0.1712
   60CHL1  H19A 5587   5.429   5.962   3.039 -1.2300  1.5275 -2.0304
   60CHL1  H19B 5588   5.539   5.997   2.902  1.8331 -0.9027  0.3599
   60CHL1  H19C 5589   5.615   5.943   3.053 -0.4623  1.7640  1.8088
   60CHL1    C1 5590   5.422   6.230   2.992 -0.8367 -0.6546 -0.3782
   60CHL1   H1A 5591   5.326   6.191   3.032  0.0146 -1.0450  1.3919
   60CHL1   H1B 5592   5.444   6.332   3.029  3.7856 -1.9156  1.0899
   60CHL1    C2 5593   5.414   6.237   2.839  0.1784  0.2966 -0.0901
   60CHL1   H2A 5594   5.320   6.277   2.794 -1.0621 -1.0577  1.2021
   60CHL1   H2B 5595   5.410   6.132   2.803  2.3581  0.5279 -1.2131
   60CHL1   C20 5596   5.538   6.066   3.748  0.3257  0.1959  0.4641
   60CHL1   H20 5597   5.491   5.973   3.708 -0.2465  0.9769 -0.7322
   60CHL1   C21 5598   5.414   6.169   3.774  0.8218 -0.0897  0.1234
   60CHL1  H21A 5599   5.363   6.192   3.679  0.9322  1.2257  0.3599
   60CHL1  H21B 5600   5.467   6.261   3.809  1.0513 -0.4957  0.8595
   60CHL1  H21C 5601   5.346   6.117   3.845  0.8362 -0.7453 -0.3467
   60CHL1   C22 5602   5.625   6.053   3.874  0.2936  0.8575 -0.1018
   60CHL1  H22A 5603   5.696   5.967   3.866  1.8805  1.9702  1.2992
   60CHL1  H22B 5604   5.680   6.148   3.889  0.2736  0.7967  0.3825
   60CHL1   C23 5605   5.545   6.022   3.999  0.2486 -0.5469 -0.1815
   60CHL1  H23A 5606   5.513   6.123   4.034  3.0524  2.1795 -4.4404
   60CHL1  H23B 5607   5.457   5.959   3.975  0.2290 -0.5575 -0.0824
   60CHL1   C24 5608   5.630   5.959   4.117  0.7027 -0.1641  0.4898
   60CHL1  H24A 5609   5.567   5.943   4.207  1.7805 -0.3696  1.2317
   60CHL1  H24B 5610   5.656   5.856   4.085 -0.7790 -0.4467  0.1235
   60CHL1   C25 5611   5.749   6.032   4.177  0.4940 -0.2045  0.0636
   60CHL1   H25 5612   5.818   6.066   4.097  0.4918 -0.9967 -0.2810
   60CHL1   C26 5613   5.702   6.155   4.256  0.6740  0.1882 -0.3333
   60CHL1  H26A 5614   5.643   6.217   4.185 -2.3255 -1.1244  0.8609
   60CHL1  H26B 5615   5.639   6.116   4.339  1.6794 -0.2345  0.2518
   60CHL1  H26C 5616   5.778   6.216   4.309 -0.4200 -0.0753  1.6191
   60CHL1   C27 5617   5.819   5.933   4.276  0.7006  0.1041  0.4510
   60CHL1  H27A 5618   5.857   5.850   4.213 -0.7242 -0.1280 -0.1244
   60CHL1  H27B 5619   5.906   5.978   4.328  1.6683 -1.0756 -0.1005
   60CHL1  H27C 5620   5.750   5.891   4.351  1.8080 -1.0106  0.8722
   61CHL1    C3 5621   5.068   2.549   3.129  0.2163  0.7645 -1.1153
   61CHL1    H3 5622   5.141   2.633   3.133 -0.9821  2.0286 -3.6142
   61CHL1    O3 5623   5.071   2.482   3.009 -0.3719 -0.5190  0.6349
   61CHL1   H3' 5624   5.163   2.479   2.982 -0.9134  0.5273 -1.6680
   61CHL1    C4 5625   5.098   2.447   3.244 -0.3416 -0.2586 -0.2471
   61CHL1   H4A 5626   5.037   2.354   3.236 -0.3316 -0.7161  3.2852
   61CHL1   H4B 5627   5.201   2.406   3.230 -0.1612  0.4851 -1.2042
   61CHL1    C5 5628   5.065   2.508   3.378 -0.0072 -0.5842  0.6106
   61CHL1    C6 5629   5.151   2.489   3.473 -0.0225 -0.3145 -0.4721
   61CHL1    H6 5630   5.240   2.431   3.445  0.7889  0.0539  1.2268
   61CHL1    C7 5631   5.135   2.536   3.619 -0.0365  0.1776  0.0058
   61CHL1   H7A 5632   5.147   2.453   3.692 -0.1187 -0.1323 -0.3291
   61CHL1   H7B 5633   5.202   2.621   3.642  1.7470 -1.4535  1.0740
   61CHL1    C8 5634   4.989   2.581   3.650  0.0501 -0.3193  0.2028
   61CHL1    H8 5635   4.925   2.490   3.659  2.1115 -2.0415 -1.5401
   61CHL1   C14 5636   4.975   2.662   3.780 -0.3536  0.1108  0.1748
   61CHL1   H14 5637   5.030   2.756   3.759 -0.8092  0.2631 -0.3619
   61CHL1   C15 5638   5.022   2.599   3.913 -0.1124  0.4317  0.0310
   61CHL1  H15A 5639   4.991   2.493   3.918 -1.0013  0.7262  1.3886
   61CHL1  H15B 5640   5.133   2.610   3.907 -0.2306  1.6632 -0.1669
   61CHL1   C16 5641   4.945   2.678   4.023  0.5159 -0.6880  0.0539
   61CHL1  H16A 5642   4.888   2.606   4.085 -1.7468  0.9257 -0.0365
   61CHL1  H16B 5643   5.019   2.736   4.083 -1.2193 -0.7502  2.3485
   61CHL1   C17 5644   4.854   2.780   3.950  0.5761  0.5472  0.3009
   61CHL1   H17 5645   4.916   2.866   3.918  1.4320 -0.5205 -1.0369
   61CHL1   C13 5646   4.831   2.720   3.810 -0.4966 -1.0373 -0.2236
   61CHL1   C18 5647   4.722   2.609   3.819  0.1829 -0.1859 -0.0453
   61CHL1  H18A 5648   4.715   2.546   3.728 -1.1432  2.5806 -1.9769
   61CHL1  H18B 5649   4.745   2.546   3.908  0.7443  0.5143  0.3124
   61CHL1  H18C 5650   4.620   2.648   3.844  0.3574 -0.8242  1.8947
   61CHL1   C12 5651   4.796   2.822   3.697  0.1426 -0.3941 -0.4203
   61CHL1  H12A 5652   4.697   2.872   3.706  0.7195  0.7130 -0.0568
   61CHL1  H12B 5653   4.869   2.905   3.688 -1.8600  1.1676 -5.2429
   61CHL1   C11 5654   4.801   2.743   3.560  0.1017 -0.9610  0.0907
   61CHL1  H11A 5655   4.717   2.671   3.568 -0.5482 -0.0492  2.0598
   61CHL1  H11B 5656   4.772   2.809   3.475 -0.7622 -1.2912  0.1136
   61CHL1    C9 5657   4.935   2.666   3.530 -0.2836  0.4037 -1.3010
   61CHL1    H9 5658   5.007   2.750   3.522 -0.4936  0.7230 -0.0274
   61CHL1   C10 5659   4.941   2.593   3.398  1.1837  0.1244  0.3184
   61CHL1   C19 5660   4.825   2.481   3.391 -0.1132  1.0707 -0.3214
   61CHL1  H19A 5661   4.845   2.411   3.307  0.5272  2.7355 -1.6090
   61CHL1  H19B 5662   4.820   2.413   3.478 -2.3238 -0.8810 -1.8669
   61CHL1  H19C 5663   4.725   2.529   3.383 -0.6884  0.2222  1.3314
   61CHL1    C1 5664   4.926   2.684   3.279  0.0769  0.2945 -0.4745
   61CHL1   H1A 5665   4.838   2.752   3.277  0.9993  1.5653  0.3051
   61CHL1   H1B 5666   5.008   2.759   3.280  0.0304  0.4480 -2.6965
   61CHL1    C2 5667   4.935   2.615   3.143  0.7163 -0.5526  0.3915
   61CHL1   H2A 5668   4.932   2.687   3.058  0.0573 -1.6063 -0.4989
   61CHL1   H2B 5669   4.855   2.538   3.136 -0.5982  0.4512  3.1212
   61CHL1   C20 5670   4.729   2.833   4.031  0.5429  0.0558  0.3483
   61CHL1   H20 5671   4.645   2.761   4.039  1.0565 -0.6007 -0.0420
   61CHL1   C21 5672   4.673   2.956   3.965 -0.3810 -0.5283  0.7724
   61CHL1  H21A 5673   4.750   3.012   3.909 -0.2714 -2.3830 -1.0892
   61CHL1  H21B 5674   4.636   3.031   4.038 -1.0554  0.6565 -0.7478
   61CHL1  H21C 5675   4.594   2.955   3.886  0.3015  2.7457 -0.1090
   61CHL1   C22 5676   4.761   2.863   4.182 -0.4068 -0.4584 -0.1956
   61CHL1  H22A 5677   4.667   2.887   4.237 -0.1842  0.0080 -0.0139
   61CHL1  H22B 5678   4.805   2.778   4.239 -0.7167 -0.2810  0.3170
   61CHL1   C23 5679   4.856   2.981   4.196 -0.1974  0.0221  0.2367
   61CHL1  H23A 5680   4.947   2.979   4.133 -1.2328  0.7729 -1.3569
   61CHL1  H23B 5681   4.809   3.075   4.161  1.5937  1.4436  1.5277
   61CHL1   C24 5682   4.893   2.996   4.345 -0.2636 -0.1962 -0.4286
   61CHL1  H24A 5683   4.951   3.090   4.359  1.3745 -1.1942 -0.2025
   61CHL1  H24B 5684   4.800   2.999   4.406 -1.2449 -1.0306 -1.8410
   61CHL1   C25 5685   4.977   2.885   4.419 -0.1667 -0.1814  0.4858
   61CHL1   H25 5686   4.925   2.788   4.403 -2.8985  1.0756  1.1947
   61CHL1   C26 5687   5.119   2.879   4.348  0.3004  0.1258 -0.4678
   61CHL1  H26A 5688   5.158   2.983   4.353 -1.4463  0.8004 -0.2741
   61CHL1  H26B 5689   5.177   2.813   4.415 -3.4483 -0.5439  2.4731
   61CHL1  H26C 5690   5.120   2.846   4.242 -2.6103  2.9630 -1.5565
   61CHL1   C27 5691   4.990   2.913   4.564  0.3676  0.0119 -0.3617
   61CHL1  H27A 5692   5.026   3.018   4.575 -0.1507  0.5033 -2.6509
   61CHL1  H27B 5693   4.895   2.894   4.616  1.0547 -2.4271  0.1159
   61CHL1  H27C 5694   5.060   2.840   4.611  0.3460 -0.2248 -0.6911
   62CHL1    C3 5695   1.464   1.017   2.876  0.5376  0.0114  0.9843
   62CHL1    H3 5696   1.445   1.125   2.857  1.6753  0.3510  1.6934
   62CHL1    O3 5697   1.491   0.964   2.747 -0.4638 -0.4019 -0.2985
   62CHL1   H3' 5698   1.516   0.872   2.754  2.2606  0.0885 -2.0252
   62CHL1    C4 5699   1.585   1.003   2.964  0.5797 -0.4532 -0.7758
   62CHL1   H4A 5700   1.610   0.894   2.967 -0.6238 -0.7176  0.6893
   62CHL1   H4B 5701   1.670   1.070   2.940 -0.0688  0.5487 -0.3365
   62CHL1    C5 5702   1.537   1.054   3.109 -0.2875  0.4547  0.6912
   62CHL1    C6 5703   1.601   1.154   3.178 -0.3503 -0.2546 -0.8195
   62CHL1    H6 5704   1.689   1.200   3.130 -0.9573  1.3021 -0.4995
   62CHL1    C7 5705   1.575   1.195   3.320 -0.0239 -0.0559  0.8919
   62CHL1   H7A 5706   1.671   1.201   3.377 -0.3570 -0.1902  1.4818
   62CHL1   H7B 5707   1.532   1.297   3.315  2.5579  1.0612 -3.5525
   62CHL1    C8 5708   1.478   1.104   3.393  0.6826  0.2233  0.8131
   62CHL1    H8 5709   1.532   1.018   3.439 -0.9446 -0.3359  1.7441
   62CHL1   C14 5710   1.406   1.167   3.517 -0.1785 -0.3949 -0.1634
   62CHL1   H14 5711   1.338   1.248   3.484 -1.1134 -1.4962 -1.0351
   62CHL1   C15 5712   1.503   1.230   3.622 -0.1327 -0.1715  0.0779
   62CHL1  H15A 5713   1.594   1.168   3.633 -0.7538 -1.2536 -0.6948
   62CHL1  H15B 5714   1.553   1.325   3.595 -0.3552 -0.2385 -0.5825
   62CHL1   C16 5715   1.418   1.242   3.744  0.3115 -0.4823 -0.1681
   62CHL1  H16A 5716   1.456   1.187   3.833  2.8541  2.0683  0.4643
   62CHL1  H16B 5717   1.394   1.346   3.773 -0.8767 -0.3459 -1.5244
   62CHL1   C17 5718   1.280   1.182   3.711  0.5566  0.0912  0.0488
   62CHL1   H17 5719   1.225   1.268   3.667  1.4832  0.2991 -0.7431
   62CHL1   C13 5720   1.312   1.082   3.597  0.4738  0.1092  0.3092
   62CHL1   C18 5721   1.381   0.959   3.659 -0.5063 -0.3808  0.1407
   62CHL1  H18A 5722   1.427   0.896   3.580  1.2387  1.4888 -0.3977
   62CHL1  H18B 5723   1.458   0.988   3.734 -2.0871  0.2413  1.5960
   62CHL1  H18C 5724   1.305   0.901   3.716  0.9677 -1.3884  1.1648
   62CHL1   C12 5725   1.200   1.047   3.500  1.0371  0.1325 -0.4399
   62CHL1  H12A 5726   1.135   0.981   3.561 -1.1432  1.1893 -1.4926
   62CHL1  H12B 5727   1.134   1.133   3.474  0.1767 -0.2441  0.4260
   62CHL1   C11 5728   1.251   0.976   3.377 -1.1053 -0.1397 -0.1178
   62CHL1  H11A 5729   1.288   0.876   3.408  0.5906  0.4758 -0.0662
   62CHL1  H11B 5730   1.166   0.957   3.307 -1.6117 -0.1387  0.4836
   62CHL1    C9 5731   1.358   1.050   3.300  0.7297  0.1966 -0.5672
   62CHL1    H9 5732   1.308   1.145   3.270 -0.3294 -0.8886 -2.4286
   62CHL1   C10 5733   1.407   0.985   3.167  0.5220 -0.4492 -0.7494
   62CHL1   C19 5734   1.447   0.837   3.201 -0.1950 -0.5984  0.1300
   62CHL1  H19A 5735   1.522   0.828   3.283  0.1246  0.3100 -0.0468
   62CHL1  H19B 5736   1.368   0.768   3.236 -1.0801  0.6172  0.6339
   62CHL1  H19C 5737   1.490   0.791   3.110  1.5351  1.4001 -0.1532
   62CHL1    C1 5738   1.288   0.997   3.066 -0.5941  0.0961 -0.6264
   62CHL1   H1A 5739   1.197   0.937   3.086 -0.5483 -0.2205 -1.3256
   62CHL1   H1B 5740   1.257   1.102   3.048 -0.6410  0.6128  2.1535
   62CHL1    C2 5741   1.330   0.945   2.933 -0.2474  0.6777  0.6306
   62CHL1   H2A 5742   1.254   0.968   2.855 -0.4812  2.5902  1.3769
   62CHL1   H2B 5743   1.363   0.839   2.932  1.7541  1.2506 -0.4094
   62CHL1   C20 5744   1.211   1.137   3.845 -0.1644 -0.0650 -0.5233
   62CHL1   H20 5745   1.282   1.071   3.898  1.1604 -1.0085 -3.2597
   62CHL1   C21 5746   1.082   1.061   3.817  0.5570 -0.1527 -0.0304
   62CHL1  H21A 5747   1.107   0.963   3.771 -1.8557 -0.9375  0.1747
   62CHL1  H21B 5748   1.010   1.110   3.748  0.9170  0.8624  0.3023
   62CHL1  H21C 5749   1.032   1.016   3.906 -0.6397 -2.2093 -1.6535
   62CHL1   C22 5750   1.185   1.256   3.941  0.4771 -0.1356  0.0661
   62CHL1  H22A 5751   1.153   1.206   4.035  0.8331 -0.5010 -0.0014
   62CHL1  H22B 5752   1.283   1.300   3.969  1.6429 -2.3432 -0.3053
   62CHL1   C23 5753   1.086   1.367   3.890  0.8951  0.0875  0.5168
   62CHL1  H23A 5754   1.137   1.418   3.805  0.4478 -3.3587 -2.0807
   62CHL1  H23B 5755   0.993   1.322   3.848  0.4188  2.0816 -0.6899
   62CHL1   C24 5756   1.035   1.449   4.010 -0.2988 -0.4830 -0.5090
   62CHL1  H24A 5757   0.963   1.518   3.961  1.0819  1.2347 -0.2102
   62CHL1  H24B 5758   0.984   1.383   4.084  1.1495 -0.5992  0.4202
   62CHL1   C25 5759   1.148   1.515   4.087  0.7875  0.1050 -0.6207
   62CHL1   H25 5760   1.220   1.437   4.121  0.1427  0.6630  2.2906
   62CHL1   C26 5761   1.230   1.614   4.002  0.3141  0.7391 -0.5121
   62CHL1  H26A 5762   1.280   1.684   4.073  1.2866 -1.4907  1.1429
   62CHL1  H26B 5763   1.309   1.553   3.953  1.3150  0.9848  0.7408
   62CHL1  H26C 5764   1.174   1.680   3.932  2.8284  3.6084 -0.0561
   62CHL1   C27 5765   1.087   1.570   4.216  0.1012  0.1183  0.1120
   62CHL1  H27A 5766   1.006   1.640   4.187  0.6071 -0.8318 -4.3591
   62CHL1  H27B 5767   1.056   1.487   4.283  2.8292  1.3780  3.1888
   62CHL1  H27C 5768   1.173   1.612   4.272  2.3489 -5.0805  1.1910
   63CHL1    C3 5769   4.056   5.120   2.820  0.1355 -0.1950  0.1294
   63CHL1    H3 5770   3.984   5.037   2.834  0.6269 -0.4198  1.4615
   63CHL1    O3 5771   4.070   5.126   2.682  0.1264  0.3521  0.1427
   63CHL1   H3' 5772   4.144   5.187   2.668  0.0855  0.0870 -1.3841
   63CHL1    C4 5773   4.001   5.256   2.871 -0.5102  0.0819  0.6963
   63CHL1   H4A 5774   4.055   5.345   2.831 -0.5530 -0.6569 -1.0942
   63CHL1   H4B 5775   3.903   5.273   2.819  0.7454 -0.3958 -2.0121
   63CHL1    C5 5776   3.990   5.265   3.021 -0.9156 -0.3661  0.2740
   63CHL1    C6 5777   3.878   5.281   3.081  0.6245 -0.0013 -0.7051
   63CHL1    H6 5778   3.781   5.289   3.029 -0.9656 -1.0276  1.9099
   63CHL1    C7 5779   3.861   5.307   3.227  0.2083 -0.0206  0.6261
   63CHL1   H7A 5780   3.811   5.405   3.237  0.3110  0.0967 -0.0072
   63CHL1   H7B 5781   3.795   5.229   3.272 -2.6039  0.2058 -2.6965
   63CHL1    C8 5782   3.996   5.325   3.302 -0.6957 -0.2137  0.3291
   63CHL1    H8 5783   4.037   5.428   3.287  0.5546 -0.4121  2.1042
   63CHL1   C14 5784   3.963   5.302   3.449 -0.1206  0.5380  0.1090
   63CHL1   H14 5785   3.930   5.197   3.459 -2.2381  1.3051  1.7010
   63CHL1   C15 5786   3.843   5.377   3.505  0.1912 -0.3803 -0.3044
   63CHL1  H15A 5787   3.835   5.484   3.476  1.3218  0.0900  1.0081
   63CHL1  H15B 5788   3.746   5.327   3.484 -0.6469 -0.4646  3.0497
   63CHL1   C16 5789   3.869   5.361   3.657 -0.4868  0.3821 -0.2155
   63CHL1  H16A 5790   3.861   5.461   3.705 -0.1134  0.5893 -0.5798
   63CHL1  H16B 5791   3.798   5.290   3.704 -1.3371  1.5774  0.3644
   63CHL1   C17 5792   4.009   5.292   3.681  0.1882 -0.1208  0.3202
   63CHL1   H17 5793   3.997   5.182   3.687 -0.6717 -0.1366 -1.2573
   63CHL1   C13 5794   4.080   5.312   3.544 -0.5744 -0.3705  0.6977
   63CHL1   C18 5795   4.144   5.453   3.533  0.3227 -0.2554 -0.2980
   63CHL1  H18A 5796   4.224   5.462   3.610 -1.1434 -0.5077  1.3115
   63CHL1  H18B 5797   4.194   5.469   3.435  0.8930  1.9079  0.3023
   63CHL1  H18C 5798   4.066   5.532   3.534  2.6558  2.2622  2.9433
   63CHL1   C12 5799   4.181   5.204   3.493  0.1390 -0.3659  0.4249
   63CHL1  H12A 5800   4.279   5.226   3.541 -0.2344 -0.1225  1.0902
   63CHL1  H12B 5801   4.147   5.101   3.515 -2.9928  0.0631 -1.7337
   63CHL1   C11 5802   4.219   5.215   3.342 -0.8939 -0.4789  0.7277
   63CHL1  H11A 5803   4.275   5.310   3.328 -0.7441 -0.5580  0.7879
   63CHL1  H11B 5804   4.286   5.135   3.305 -0.2836  0.7620 -1.0121
   63CHL1    C9 5805   4.095   5.228   3.255  0.0947  0.2419  0.5698
   63CHL1    H9 5806   4.041   5.132   3.270 -1.0503  1.2202  3.3999
   63CHL1   C10 5807   4.122   5.236   3.101 -0.0103 -0.1376 -0.0042
   63CHL1   C19 5808   4.225   5.351   3.087 -0.2288 -0.0648 -0.6372
   63CHL1  H19A 5809   4.197   5.439   3.150 -0.1111  0.4134 -1.2413
   63CHL1  H19B 5810   4.322   5.304   3.112 -0.6693 -1.0357 -0.6944
   63CHL1  H19C 5811   4.231   5.384   2.981  0.8386  0.0709 -0.5427
   63CHL1    C1 5812   4.172   5.101   3.037 -0.3514 -0.5094 -0.9771
   63CHL1   H1A 5813   4.267   5.078   3.090 -1.7763 -1.3359  1.3767
   63CHL1   H1B 5814   4.099   5.027   3.075  1.6278 -1.4926  1.1522
   63CHL1    C2 5815   4.183   5.079   2.891 -0.7662  0.6833  0.7449
   63CHL1   H2A 5816   4.213   4.973   2.876 -1.1358  0.6098  0.5192
   63CHL1   H2B 5817   4.263   5.139   2.844 -2.2941  2.5414  0.4198
   63CHL1   C20 5818   4.079   5.345   3.810 -1.0183 -0.2416  0.6962
   63CHL1   H20 5819   4.098   5.453   3.793  0.8498 -0.6391  0.0689
   63CHL1   C21 5820   4.217   5.275   3.818 -0.2418 -0.6781 -0.3375
   63CHL1  H21A 5821   4.293   5.286   3.737  2.0886 -0.7754  1.7163
   63CHL1  H21B 5822   4.195   5.167   3.834  0.3714 -0.7343  0.1460
   63CHL1  H21C 5823   4.271   5.309   3.908  0.0469 -0.8983 -0.4260
   63CHL1   C22 5824   3.987   5.327   3.944 -0.0670 -0.2154  0.9294
   63CHL1  H22A 5825   3.909   5.407   3.941 -0.7928 -0.8936 -1.8728
   63CHL1  H22B 5826   3.940   5.226   3.941  0.8839 -0.6708  1.1630
   63CHL1   C23 5827   4.061   5.338   4.073  1.1239  0.3157 -0.2066
   63CHL1  H23A 5828   4.142   5.262   4.079 -0.7672 -2.1279 -2.7981
   63CHL1  H23B 5829   4.117   5.433   4.068  3.2667 -0.6962  2.2544
   63CHL1   C24 5830   3.978   5.342   4.205 -0.2227  0.5433  0.2746
   63CHL1  H24A 5831   4.057   5.351   4.282  0.4642  2.2489 -0.5749
   63CHL1  H24B 5832   3.908   5.428   4.204 -0.2929  0.4938  0.9138
   63CHL1   C25 5833   3.880   5.226   4.234  0.0366  0.3033 -0.2435
   63CHL1   H25 5834   3.800   5.225   4.157 -0.9825 -0.9415  0.7894
   63CHL1   C26 5835   3.946   5.084   4.227 -0.1258  0.4908 -0.3636
   63CHL1  H26A 5836   4.014   5.069   4.313 -1.1832 -0.5338  0.3298
   63CHL1  H26B 5837   3.872   5.001   4.234  0.8402 -0.3279  0.3981
   63CHL1  H26C 5838   4.000   5.077   4.130  0.9668 -0.8687  0.3078
   63CHL1   C27 5839   3.801   5.239   4.370 -0.4137 -1.0081  0.5203
   63CHL1  H27A 5840   3.786   5.347   4.392  2.8185 -0.1581 -0.8804
   63CHL1  H27B 5841   3.708   5.181   4.353 -1.3760  0.0915  1.8255
   63CHL1  H27C 5842   3.847   5.180   4.452  1.0777 -0.5401  0.0516
   64CHL1    C3 5843   2.430   2.721   3.036 -0.3592  0.8089 -0.8857
   64CHL1    H3 5844   2.321   2.743   3.030 -0.3927  0.6877 -0.7205
   64CHL1    O3 5845   2.505   2.734   2.917 -0.0151  0.0831  0.1276
   64CHL1   H3' 5846   2.598   2.725   2.941 -0.1542 -0.0643  0.6453
   64CHL1    C4 5847   2.491   2.804   3.148 -0.0450 -0.2031 -0.1947
   64CHL1   H4A 5848   2.596   2.773   3.165 -0.1225  0.1608  1.0754
   64CHL1   H4B 5849   2.490   2.908   3.108 -0.6549 -0.4255 -0.7752
   64CHL1    C5 5850   2.420   2.791   3.281  0.2587 -0.6346 -0.1708
   64CHL1    C6 5851   2.364   2.900   3.335 -0.2995  0.0082  0.1313
   64CHL1    H6 5852   2.383   3.000   3.294 -1.5351 -0.4774 -1.7366
   64CHL1    C7 5853   2.286   2.889   3.469  0.3279  0.2304  0.2357
   64CHL1   H7A 5854   2.323   2.968   3.537 -1.7447  1.3053  0.1962
   64CHL1   H7B 5855   2.179   2.917   3.463  0.5022  0.9095  0.2488
   64CHL1    C8 5856   2.309   2.748   3.546  1.1980 -0.7406 -0.0483
   64CHL1    H8 5857   2.416   2.760   3.576  1.8891 -2.9813 -1.4354
   64CHL1   C14 5858   2.218   2.733   3.656  0.1724 -0.8464 -0.2261
   64CHL1   H14 5859   2.114   2.732   3.617  0.2200 -0.0010 -0.3930
   64CHL1   C15 5860   2.224   2.848   3.760  0.1739  0.3244  0.3711
   64CHL1  H15A 5861   2.328   2.868   3.794  0.2037  2.3517 -0.7987
   64CHL1  H15B 5862   2.182   2.945   3.728 -0.4266  0.4808  1.5567
   64CHL1   C16 5863   2.160   2.780   3.884  0.5360 -0.3787  0.8418
   64CHL1  H16A 5864   2.227   2.796   3.972  1.1336  0.0893  0.3130
   64CHL1  H16B 5865   2.058   2.817   3.908  0.9490  1.7983 -0.5015
   64CHL1   C17 5866   2.135   2.629   3.840  0.0375  0.7812 -0.3959
   64CHL1   H17 5867   2.032   2.623   3.798  0.2907 -0.7846 -0.8592
   64CHL1   C13 5868   2.233   2.599   3.727  0.8052 -0.2422  0.7994
   64CHL1   C18 5869   2.379   2.590   3.780  0.5255  0.0161  0.2028
   64CHL1  H18A 5870   2.452   2.599   3.697  0.4488 -0.5580  0.0645
   64CHL1  H18B 5871   2.411   2.671   3.848  4.1582 -0.3265 -0.8706
   64CHL1  H18C 5872   2.389   2.502   3.848 -2.0458  0.3717  1.1869
   64CHL1   C12 5873   2.195   2.481   3.630  0.2886  0.0178 -0.3445
   64CHL1  H12A 5874   2.216   2.382   3.676 -0.0423  0.0773 -0.0622
   64CHL1  H12B 5875   2.089   2.486   3.598 -0.8093  0.1161  2.8959
   64CHL1   C11 5876   2.300   2.490   3.515 -0.2685  0.3159  0.1728
   64CHL1  H11A 5877   2.402   2.462   3.550 -1.2784 -1.4766  1.8591
   64CHL1  H11B 5878   2.271   2.413   3.441  1.1968 -0.5098  0.4152
   64CHL1    C9 5879   2.294   2.631   3.449 -0.3586  0.1948  0.3142
   64CHL1    H9 5880   2.196   2.646   3.400 -0.7938 -2.2995  0.3018
   64CHL1   C10 5881   2.399   2.647   3.337 -0.5386 -0.1587  0.4819
   64CHL1   C19 5882   2.541   2.597   3.389 -0.8030 -0.1209 -0.5052
   64CHL1  H19A 5883   2.572   2.660   3.476 -2.2892  1.4558 -1.0685
   64CHL1  H19B 5884   2.552   2.492   3.425 -0.0973  0.1388  0.0932
   64CHL1  H19C 5885   2.617   2.605   3.308 -1.6050 -0.1774 -1.2738
   64CHL1    C1 5886   2.360   2.563   3.214  0.5905  0.2872  0.4855
   64CHL1   H1A 5887   2.372   2.456   3.244 -0.1484 -0.2604 -1.0189
   64CHL1   H1B 5888   2.250   2.562   3.198  0.3763 -4.2285  0.7831
   64CHL1    C2 5889   2.439   2.573   3.082  0.7545 -0.4314  0.5267
   64CHL1   H2A 5890   2.391   2.508   3.005 -0.0148  0.6214  0.0921
   64CHL1   H2B 5891   2.540   2.538   3.113  1.1928  1.2433  1.0973
   64CHL1   C20 5892   2.138   2.527   3.961  0.1656 -0.0398  0.3173
   64CHL1   H20 5893   2.238   2.524   4.009 -0.1030  0.3665  0.9243
   64CHL1   C21 5894   2.101   2.386   3.917  0.1310  0.0037  0.3968
   64CHL1  H21A 5895   2.195   2.331   3.896 -1.1217 -2.1611  0.1664
   64CHL1  H21B 5896   2.047   2.386   3.820  1.5874 -1.7800 -0.4748
   64CHL1  H21C 5897   2.048   2.328   3.996 -1.7345  2.1249  0.8159
   64CHL1   C22 5898   2.037   2.573   4.070  0.2274 -0.0921 -0.3334
   64CHL1  H22A 5899   2.034   2.683   4.079 -1.0202 -0.2575  1.9179
   64CHL1  H22B 5900   1.937   2.540   4.036  0.4604 -0.0372 -1.1002
   64CHL1   C23 5901   2.071   2.510   4.206 -0.0770 -0.3032 -0.3331
   64CHL1  H23A 5902   2.046   2.402   4.197 -2.7571  0.3602 -1.7520
   64CHL1  H23B 5903   2.182   2.520   4.217 -0.1133  0.4519 -0.5862
   64CHL1   C24 5904   1.992   2.573   4.321  0.1355 -1.2129 -0.1756
   64CHL1  H24A 5905   1.893   2.602   4.278 -0.3219 -1.3111  0.7921
   64CHL1  H24B 5906   1.977   2.495   4.398 -0.5136 -0.5965  0.3294
   64CHL1   C25 5907   2.047   2.712   4.372  0.4463  0.0932  0.5550
   64CHL1   H25 5908   2.087   2.769   4.285  2.4691 -1.6329  0.2555
   64CHL1   C26 5909   1.946   2.802   4.443 -0.0433  0.0262  0.4336
   64CHL1  H26A 5910   1.914   2.758   4.540  0.2994 -2.8051 -0.6153
   64CHL1  H26B 5911   1.990   2.903   4.453  4.4710 -1.7695  1.1466
   64CHL1  H26C 5912   1.855   2.826   4.383 -1.2366  0.0394  2.1817
   64CHL1   C27 5913   2.179   2.685   4.452 -0.6416  0.6507  0.0035
   64CHL1  H27A 5914   2.267   2.645   4.396  0.1385  0.2809  1.4439
   64CHL1  H27B 5915   2.199   2.783   4.500  1.2810  0.2073  0.2000
   64CHL1  H27C 5916   2.163   2.610   4.532  0.8485  0.6476  0.3351
   65CHL1    C3 5917   0.660   0.820   2.656 -0.2758 -0.2575 -0.2752
   65CHL1    H3 5918   0.633   0.926   2.641 -0.1426  0.3226  2.8928
   65CHL1    O3 5919   0.685   0.769   2.528 -0.3338 -0.5172  0.3980
   65CHL1   H3' 5920   0.661   0.676   2.525 -0.2645 -0.5385  0.4898
   65CHL1    C4 5921   0.795   0.821   2.741 -0.0588 -0.2241 -0.2179
   65CHL1   H4A 5922   0.835   0.717   2.746 -1.9685 -0.9600  0.4728
   65CHL1   H4B 5923   0.875   0.880   2.690  0.2251 -0.3528  0.0752
   65CHL1    C5 5924   0.779   0.860   2.882  0.6882  0.1194 -0.2562
   65CHL1    C6 5925   0.859   0.959   2.925 -0.4481 -0.1875 -0.0314
   65CHL1    H6 5926   0.932   1.000   2.853 -0.2289  0.1470  0.3715
   65CHL1    C7 5927   0.864   1.005   3.067  0.7177 -0.4127 -0.2458
   65CHL1   H7A 5928   0.961   1.011   3.119 -1.1933  3.7777  3.5855
   65CHL1   H7B 5929   0.834   1.112   3.080  0.2558 -0.7927  2.2622
   65CHL1    C8 5930   0.774   0.916   3.162 -0.4791  0.5342 -0.3105
   65CHL1    H8 5931   0.831   0.822   3.179 -1.4086  0.1393  0.7516
   65CHL1   C14 5932   0.749   0.994   3.293  0.3094  0.1205  0.2989
   65CHL1   H14 5933   0.687   1.076   3.251  0.4167  0.8382  1.4932
   65CHL1   C15 5934   0.862   1.062   3.363  0.4352 -0.3735 -0.4169
   65CHL1  H15A 5935   0.932   0.982   3.394  0.3047 -0.4490 -0.3190
   65CHL1  H15B 5936   0.922   1.134   3.303  1.3430  0.1445  1.0436
   65CHL1   C16 5937   0.797   1.114   3.492  0.1592  0.1503  0.2739
   65CHL1  H16A 5938   0.860   1.088   3.580 -0.2624  1.6751  1.0689
   65CHL1  H16B 5939   0.773   1.222   3.478  0.1188  0.9491  4.9122
   65CHL1   C17 5940   0.664   1.041   3.501 -0.5720  0.3142  0.1051
   65CHL1   H17 5941   0.589   1.113   3.459  0.8754  1.3543 -0.7911
   65CHL1   C13 5942   0.667   0.929   3.397 -0.2853 -0.0157 -0.5260
   65CHL1   C18 5943   0.740   0.805   3.453 -0.2392  0.5599  0.4375
   65CHL1  H18A 5944   0.757   0.727   3.377  1.7541  0.2488  1.1431
   65CHL1  H18B 5945   0.839   0.827   3.499  0.1247 -0.6451  0.2622
   65CHL1  H18C 5946   0.671   0.757   3.526  0.0569 -2.4286 -1.1072
   65CHL1   C12 5947   0.528   0.884   3.330  0.7401 -0.0824  0.2266
   65CHL1  H12A 5948   0.460   0.822   3.392 -0.2671  0.2938 -0.4610
   65CHL1  H12B 5949   0.478   0.981   3.307  2.3603  0.4894 -1.0324
   65CHL1   C11 5950   0.541   0.815   3.193  0.4312  0.3702 -0.8709
   65CHL1  H11A 5951   0.570   0.709   3.210  0.7289  0.4914 -0.5979
   65CHL1  H11B 5952   0.448   0.825   3.133 -0.3477  1.0241  0.3937
   65CHL1    C9 5953   0.642   0.876   3.094  0.1443  0.2590  0.3877
   65CHL1    H9 5954   0.589   0.971   3.067 -0.7280 -0.4238 -0.3726
   65CHL1   C10 5955   0.658   0.795   2.962  0.2375  0.5166  0.5818
   65CHL1   C19 5956   0.701   0.651   2.988 -0.0852  0.2391  1.2073
   65CHL1  H19A 5957   0.792   0.640   3.051  2.1861 -0.7426 -1.9529
   65CHL1  H19B 5958   0.615   0.610   3.045  0.9044  0.8728  3.2477
   65CHL1  H19C 5959   0.718   0.594   2.894  1.5305  2.2317  0.1794
   65CHL1    C1 5960   0.526   0.804   2.878 -0.5021  0.7142  0.7357
   65CHL1   H1A 5961   0.451   0.747   2.937 -1.4382  2.1486  0.9718
   65CHL1   H1B 5962   0.484   0.902   2.850 -1.6764 -0.2113 -0.9033
   65CHL1    C2 5963   0.548   0.747   2.734  0.3842 -0.3839  0.1151
   65CHL1   H2A 5964   0.459   0.769   2.671 -0.8941 -2.9656  0.8767
   65CHL1   H2B 5965   0.561   0.637   2.740 -2.4497 -0.9102 -1.3335
   65CHL1   C20 5966   0.626   0.996   3.645 -0.3893 -0.1601 -0.0199
   65CHL1   H20 5967   0.699   0.915   3.665 -0.4266 -0.2550 -0.2634
   65CHL1   C21 5968   0.475   0.951   3.645 -0.6831  0.4579 -0.1219
   65CHL1  H21A 5969   0.434   0.918   3.743  1.1913 -0.4189  0.4082
   65CHL1  H21B 5970   0.471   0.855   3.589  2.0212  0.6117 -0.7315
   65CHL1  H21C 5971   0.418   1.038   3.607  1.0891  1.5036 -0.5100
   65CHL1   C22 5972   0.638   1.106   3.756 -0.2494 -0.4831 -0.2807
   65CHL1  H22A 5973   0.740   1.147   3.742 -0.4227 -0.4885 -1.7394
   65CHL1  H22B 5974   0.561   1.185   3.745 -0.8321 -0.3302  3.4309
   65CHL1   C23 5975   0.638   1.051   3.901  0.3432  1.0615 -0.0087
   65CHL1  H23A 5976   0.536   1.024   3.934 -0.2978  1.0391 -1.9051
   65CHL1  H23B 5977   0.704   0.962   3.911  2.7679  2.7358 -0.0132
   65CHL1   C24 5978   0.707   1.148   3.991 -0.2951  0.2559 -0.5052
   65CHL1  H24A 5979   0.815   1.151   3.964 -0.5896 -3.1689 -2.7928
   65CHL1  H24B 5980   0.675   1.253   3.978  1.1527  0.7430 -0.3546
   65CHL1   C25 5981   0.691   1.127   4.148 -0.4486 -0.6309 -0.0349
   65CHL1   H25 5982   0.773   1.193   4.181  2.0019 -2.7719 -1.4703
   65CHL1   C26 5983   0.553   1.155   4.191  0.6028  0.0397 -0.3005
   65CHL1  H26A 5984   0.510   1.244   4.140 -0.8085  0.7630  2.0261
   65CHL1  H26B 5985   0.483   1.070   4.173 -2.3159  1.4695  3.0170
   65CHL1  H26C 5986   0.532   1.188   4.295 -0.6133 -0.7773 -0.2611
   65CHL1   C27 5987   0.729   0.990   4.211  0.0164 -0.1415 -0.2731
   65CHL1  H27A 5988   0.734   1.007   4.321  1.0558  0.6248 -0.4183
   65CHL1  H27B 5989   0.646   0.917   4.199 -0.6247 -0.1772  3.2279
   65CHL1  H27C 5990   0.819   0.945   4.165  0.7382  0.9143  0.0726
   66CHL1    C3 5991   4.311   2.232   3.242 -0.0814 -0.0830 -0.3972
   66CHL1    H3 5992   4.228   2.162   3.267  0.9949 -1.4285 -0.5030
   66CHL1    O3 5993   4.315   2.267   3.103 -0.4571  0.1699  0.4664
   66CHL1   H3' 5994   4.406   2.295   3.094 -0.1332 -1.3984 -2.0565
   66CHL1    C4 5995   4.295   2.363   3.317  0.6408 -0.1996  0.2174
   66CHL1   H4A 5996   4.375   2.434   3.288  0.4310  0.1318  0.4548
   66CHL1   H4B 5997   4.201   2.404   3.275  0.0861 -0.5594  1.0670
   66CHL1    C5 5998   4.275   2.353   3.465  0.6020 -0.3564 -0.3783
   66CHL1    C6 5999   4.163   2.391   3.526 -0.4621  0.8175 -0.0054
   66CHL1    H6 6000   4.092   2.445   3.463 -0.6449  0.6121  0.0219
   66CHL1    C7 6001   4.134   2.356   3.667  0.1024 -0.1937 -0.4620
   66CHL1   H7A 6002   4.089   2.443   3.719  0.3570  0.0160 -0.5878
   66CHL1   H7B 6003   4.057   2.277   3.671  0.0177 -0.1114 -0.4502
   66CHL1    C8 6004   4.253   2.309   3.748 -0.1028 -0.7634 -0.2645
   66CHL1    H8 6005   4.311   2.403   3.761 -0.7928 -0.0628 -1.9474
   66CHL1   C14 6006   4.215   2.247   3.885 -0.0791 -0.2367  0.7548
   66CHL1   H14 6007   4.175   2.148   3.854  0.4601 -0.4837  0.8311
   66CHL1   C15 6008   4.122   2.328   3.970  0.5622  0.1118  0.0741
   66CHL1  H15A 6009   4.152   2.435   3.974  1.2535 -0.0928  0.4689
   66CHL1  H15B 6010   4.018   2.310   3.934  0.7242  0.6671 -0.6900
   66CHL1   C16 6011   4.138   2.271   4.115 -0.0178 -0.1272  0.3657
   66CHL1  H16A 6012   4.161   2.358   4.181 -0.5963  0.6258 -0.4133
   66CHL1  H16B 6013   4.045   2.217   4.143 -1.0384  0.6588 -1.3487
   66CHL1   C17 6014   4.264   2.176   4.102 -0.5570 -0.5722  0.1052
   66CHL1   H17 6015   4.217   2.078   4.082  0.4984 -0.9471 -0.6171
   66CHL1   C13 6016   4.339   2.220   3.974  0.2333 -0.0414  0.6635
   66CHL1   C18 6017   4.421   2.348   4.000  0.0934 -0.1897  0.4968
   66CHL1  H18A 6018   4.515   2.315   4.049 -0.2845 -2.8427 -0.4082
   66CHL1  H18B 6019   4.441   2.414   3.913 -4.9900  0.5104 -0.4617
   66CHL1  H18C 6020   4.365   2.412   4.071  1.1681  0.7087  0.5634
   66CHL1   C12 6021   4.429   2.119   3.900  0.5007  0.0756  0.1161
   66CHL1  H12A 6022   4.515   2.089   3.964  0.3094 -1.1678 -0.1775
   66CHL1  H12B 6023   4.363   2.032   3.882 -0.9369  1.2816 -0.6998
   66CHL1   C11 6024   4.467   2.163   3.754 -0.2905  0.1552 -1.3720
   66CHL1  H11A 6025   4.540   2.243   3.775 -0.5496  0.3974 -1.3932
   66CHL1  H11B 6026   4.513   2.079   3.697 -3.8073 -1.2755 -2.3924
   66CHL1    C9 6027   4.348   2.216   3.674  0.1224  0.2213  0.2476
   66CHL1    H9 6028   4.288   2.128   3.644 -1.0396  1.5903 -1.7236
   66CHL1   C10 6029   4.386   2.274   3.529  0.4041 -0.6615  0.6267
   66CHL1   C19 6030   4.502   2.373   3.537 -0.4973 -0.1397  0.3022
   66CHL1  H19A 6031   4.512   2.424   3.439 -0.2704  1.6230  1.2169
   66CHL1  H19B 6032   4.495   2.451   3.616 -2.0171  1.4199 -1.2939
   66CHL1  H19C 6033   4.596   2.321   3.565  0.4513  1.4257  0.1171
   66CHL1    C1 6034   4.431   2.148   3.439 -0.5032 -0.1289  0.4929
   66CHL1   H1A 6035   4.532   2.116   3.473  0.0236  1.9821  1.0962
   66CHL1   H1B 6036   4.355   2.070   3.457 -0.5003 -0.2900 -0.1983
   66CHL1    C2 6037   4.441   2.171   3.284  0.9142  0.5693 -0.1477
   66CHL1   H2A 6038   4.461   2.075   3.232  1.5652 -1.1277  2.9678
   66CHL1   H2B 6039   4.519   2.244   3.253  0.4651  0.5836 -1.2948
   66CHL1   C20 6040   4.348   2.166   4.233  0.5328  0.1512  0.9524
   66CHL1   H20 6041   4.391   2.263   4.265  0.5573  0.1611  0.8892
   66CHL1   C21 6042   4.464   2.066   4.223  0.6164 -0.0479 -0.3119
   66CHL1  H21A 6043   4.437   1.976   4.165  1.0882 -0.0782 -0.4867
   66CHL1  H21B 6044   4.498   2.019   4.318  2.7519  0.2916 -0.8617
   66CHL1  H21C 6045   4.545   2.105   4.157 -1.8832  0.6321 -3.1736
   66CHL1   C22 6046   4.242   2.121   4.347 -0.3731 -0.3387 -0.9836
   66CHL1  H22A 6047   4.171   2.205   4.363  0.7794  0.5915 -0.6710
   66CHL1  H22B 6048   4.192   2.026   4.316  1.5857 -2.2676  1.3004
   66CHL1   C23 6049   4.312   2.107   4.482 -0.4750  0.0494  0.2932
   66CHL1  H23A 6050   4.343   2.001   4.491 -0.9979 -0.1062  0.3125
   66CHL1  H23B 6051   4.406   2.165   4.479  0.3798 -1.3392 -0.6975
   66CHL1   C24 6052   4.212   2.143   4.596  0.0563  0.2955  0.3884
   66CHL1  H24A 6053   4.177   2.245   4.570 -2.3430 -0.4990  0.2090
   66CHL1  H24B 6054   4.127   2.072   4.586  0.0368 -0.2260  3.4906
   66CHL1   C25 6055   4.279   2.137   4.735 -0.1675  0.5645  0.1206
   66CHL1   H25 6056   4.332   2.040   4.740  0.5639  0.8170 -1.9389
   66CHL1   C26 6057   4.390   2.247   4.764  0.8239  0.0262  0.1159
   66CHL1  H26A 6058   4.343   2.347   4.753 -1.3927 -1.1664 -2.2583
   66CHL1  H26B 6059   4.422   2.224   4.868  0.4539  0.6367  0.3755
   66CHL1  H26C 6060   4.470   2.233   4.689 -0.9052  0.7772 -1.9684
   66CHL1   C27 6061   4.165   2.138   4.842 -1.0673  0.0776 -0.7203
   66CHL1  H27A 6062   4.099   2.049   4.831 -2.3031  0.7926  0.6025
   66CHL1  H27B 6063   4.101   2.227   4.822 -1.2239  0.0049 -0.5518
   66CHL1  H27C 6064   4.199   2.134   4.947 -0.5303 -2.1545 -0.9346
   67CHL1    C3 6065   4.331   6.278   2.631 -0.0040  0.5310  0.1056
   67CHL1    H3 6066   4.368   6.382   2.619  2.0522  0.0420  1.5974
   67CHL1    O3 6067   4.298   6.230   2.505  0.3483  0.2040  0.7623
   67CHL1   H3' 6068   4.302   6.134   2.504 -0.6446 -0.0178  4.4374
   67CHL1    C4 6069   4.459   6.199   2.664  0.1100  0.6831  0.0375
   67CHL1   H4A 6070   4.446   6.089   2.670  0.6014  0.5861 -0.5721
   67CHL1   H4B 6071   4.534   6.225   2.586  0.2948 -0.6731 -0.2652
   67CHL1    C5 6072   4.509   6.235   2.805 -0.1695 -0.0026 -0.1304
   67CHL1    C6 6073   4.623   6.306   2.837  0.0351 -0.0382  0.1396
   67CHL1    H6 6074   4.688   6.337   2.753  0.5917 -1.6651 -0.0570
   67CHL1    C7 6075   4.667   6.327   2.980 -0.5972  0.6327  0.0586
   67CHL1   H7A 6076   4.776   6.312   3.001 -1.1897 -0.3075  3.0496
   67CHL1   H7B 6077   4.656   6.433   3.009  1.1867  0.9029 -0.1019
   67CHL1    C8 6078   4.594   6.234   3.077 -0.0456 -0.3310 -0.6664
   67CHL1    H8 6079   4.624   6.129   3.061 -0.2014 -0.6631  1.0297
   67CHL1   C14 6080   4.632   6.271   3.219  0.6038 -0.2960 -0.0507
   67CHL1   H14 6081   4.608   6.380   3.216 -0.8822 -0.6199 -0.8977
   67CHL1   C15 6082   4.784   6.260   3.264 -0.0109 -0.1246 -0.4168
   67CHL1  H15A 6083   4.819   6.162   3.224  0.7451 -0.3482  0.7371
   67CHL1  H15B 6084   4.837   6.344   3.214  1.1177 -1.5074 -1.6283
   67CHL1   C16 6085   4.770   6.266   3.420  0.8322  0.1224 -0.4195
   67CHL1  H16A 6086   4.802   6.164   3.451  0.9822  0.4978  0.6924
   67CHL1  H16B 6087   4.825   6.342   3.480 -1.4041  1.4789  0.0065
   67CHL1   C17 6088   4.618   6.268   3.458 -0.1157  0.1555 -0.0343
   67CHL1   H17 6089   4.595   6.375   3.469  0.4388  0.3554 -0.7187
   67CHL1   C13 6090   4.550   6.208   3.333  0.0649  0.3231 -0.3664
   67CHL1   C18 6091   4.547   6.054   3.330 -0.0609  0.2117 -0.3347
   67CHL1  H18A 6092   4.501   6.026   3.232 -2.3891  0.3349  0.6599
   67CHL1  H18B 6093   4.649   6.012   3.345 -0.8909 -0.9066  2.9307
   67CHL1  H18C 6094   4.493   6.019   3.420  1.0879 -0.5843  0.0758
   67CHL1   C12 6095   4.402   6.250   3.310  0.7219 -0.0750 -0.9411
   67CHL1  H12A 6096   4.341   6.203   3.391  2.6525 -0.9685  0.0502
   67CHL1  H12B 6097   4.399   6.361   3.320  0.1596 -0.0737 -1.0738
   67CHL1   C11 6098   4.350   6.209   3.171  0.2474 -0.0212  0.2052
   67CHL1  H11A 6099   4.325   6.101   3.177  2.3183 -0.4675  2.4182
   67CHL1  H11B 6100   4.250   6.257   3.158  0.7492  1.6864  2.0846
   67CHL1    C9 6101   4.442   6.248   3.054  0.2141  0.5352 -0.3939
   67CHL1    H9 6102   4.425   6.358   3.053  0.4321  0.5705 -0.2867
   67CHL1   C10 6103   4.399   6.200   2.912 -0.3985 -0.5678 -0.5112
   67CHL1   C19 6104   4.384   6.053   2.915  0.0414 -0.3040  0.3742
   67CHL1  H19A 6105   4.478   5.993   2.910 -0.5277 -1.1368 -0.5675
   67CHL1  H19B 6106   4.312   6.014   2.990  0.3530 -1.6862 -0.0179
   67CHL1  H19C 6107   4.331   6.025   2.822  1.4242 -0.2811 -0.4535
   67CHL1    C1 6108   4.261   6.270   2.875 -0.1356  0.2439 -0.4873
   67CHL1   H1A 6109   4.173   6.250   2.940 -2.3949  1.6920 -2.8938
   67CHL1   H1B 6110   4.267   6.380   2.888  1.8014  0.0366  0.6804
   67CHL1    C2 6111   4.221   6.251   2.731  0.4415 -0.2299 -0.4294
   67CHL1   H2A 6112   4.140   6.325   2.714 -0.3963 -1.1451 -0.4980
   67CHL1   H2B 6113   4.161   6.158   2.723  1.7953 -1.0986 -0.8742
   67CHL1   C20 6114   4.577   6.214   3.599 -0.0962 -0.2364  0.3436
   67CHL1   H20 6115   4.601   6.105   3.595 -0.0654 -0.4043  3.1514
   67CHL1   C21 6116   4.428   6.243   3.630 -0.0698 -0.7899  0.2519
   67CHL1  H21A 6117   4.365   6.165   3.582  1.9101 -1.6155 -1.1461
   67CHL1  H21B 6118   4.381   6.335   3.588  1.7108 -0.9759 -2.4149
   67CHL1  H21C 6119   4.407   6.221   3.737 -0.2508 -1.1361  0.1460
   67CHL1   C22 6120   4.656   6.265   3.715 -0.7359  0.3616 -0.0695
   67CHL1  H22A 6121   4.757   6.295   3.680 -0.5616 -0.6524 -0.4533
   67CHL1  H22B 6122   4.600   6.351   3.757 -2.1820  0.6297 -2.3844
   67CHL1   C23 6123   4.671   6.179   3.837 -0.4068  0.0664 -0.9944
   67CHL1  H23A 6124   4.567   6.173   3.877  0.1827 -0.4203  0.5494
   67CHL1  H23B 6125   4.698   6.081   3.793 -1.1444  0.0316 -1.3931
   67CHL1   C24 6126   4.766   6.224   3.950  0.2311  0.5167 -0.6187
   67CHL1  H24A 6127   4.870   6.186   3.946 -0.2584 -0.7679 -1.4961
   67CHL1  H24B 6128   4.782   6.334   3.939  0.4102  0.2930 -2.9811
   67CHL1   C25 6129   4.710   6.185   4.091  0.3844 -0.0684  0.1825
   67CHL1   H25 6130   4.602   6.207   4.099  0.1801 -1.4039  1.4136
   67CHL1   C26 6131   4.712   6.035   4.124 -0.1029  0.3363 -0.0563
   67CHL1  H26A 6132   4.637   6.007   4.201  0.3287  2.8409  1.4215
   67CHL1  H26B 6133   4.687   5.981   4.031 -1.5726  1.6354 -0.4730
   67CHL1  H26C 6134   4.809   5.991   4.154 -0.4617  1.0068  2.3153
   67CHL1   C27 6135   4.782   6.270   4.207  0.4672 -0.2458  0.2400
   67CHL1  H27A 6136   4.878   6.219   4.227  0.9147  0.7054  0.5573
   67CHL1  H27B 6137   4.795   6.373   4.168 -1.9264  0.2315  0.5404
   67CHL1  H27C 6138   4.730   6.280   4.305 -1.9360  1.8196 -1.1224
   68CHL1    C3 6139   1.808   5.152   2.794 -0.1271  0.4082 -0.7104
   68CHL1    H3 6140   1.703   5.186   2.792 -0.3054 -0.1494 -1.5481
   68CHL1    O3 6141   1.870   5.140   2.666 -0.0193 -0.3467  0.3729
   68CHL1   H3' 6142   1.955   5.096   2.670 -0.2988 -0.8839  0.4189
   68CHL1    C4 6143   1.892   5.252   2.868 -0.2477 -0.1454  0.5718
   68CHL1   H4A 6144   2.001   5.231   2.864  0.4202  2.4141  2.4451
   68CHL1   H4B 6145   1.873   5.346   2.812  2.2123  0.2841  0.3744
   68CHL1    C5 6146   1.846   5.252   3.016  0.6388 -0.6340 -0.0121
   68CHL1    C6 6147   1.805   5.368   3.070  0.3838  0.0835  0.5471
   68CHL1    H6 6148   1.821   5.453   3.002  0.2428 -0.7966 -0.6117
   68CHL1    C7 6149   1.756   5.370   3.210 -0.3798 -0.6869 -0.5676
   68CHL1   H7A 6150   1.790   5.461   3.264 -0.7944 -0.2761 -0.9990
   68CHL1   H7B 6151   1.645   5.362   3.210 -0.3627 -0.9665 -0.9096
   68CHL1    C8 6152   1.795   5.248   3.305 -0.3983 -0.5417  0.6949
   68CHL1    H8 6153   1.899   5.266   3.339 -0.5992 -0.3585  1.2402
   68CHL1   C14 6154   1.715   5.249   3.429  0.4705 -0.1834 -0.0583
   68CHL1   H14 6155   1.613   5.224   3.392  0.2696  0.6801 -0.0908
   68CHL1   C15 6156   1.704   5.375   3.508 -0.2756  0.7500  0.6007
   68CHL1  H15A 6157   1.807   5.415   3.520 -0.1525 -0.1541  3.4951
   68CHL1  H15B 6158   1.645   5.458   3.465 -0.2103 -0.0436 -1.0790
   68CHL1   C16 6159   1.645   5.326   3.645 -0.1743 -0.0838  0.1619
   68CHL1  H16A 6160   1.691   5.375   3.734  1.5298 -1.9564  0.3985
   68CHL1  H16B 6161   1.538   5.352   3.631  0.6204  2.1968 -2.6991
   68CHL1   C17 6162   1.656   5.172   3.650 -0.2348 -0.2260 -0.2619
   68CHL1   H17 6163   1.556   5.135   3.617 -1.7263  2.2130  1.1968
   68CHL1   C13 6164   1.753   5.133   3.530  0.8715  0.4233  0.5989
   68CHL1   C18 6165   1.897   5.147   3.578  0.6367 -0.2875 -0.0131
   68CHL1  H18A 6166   1.917   5.078   3.662 -0.8215  0.2306  0.7923
   68CHL1  H18B 6167   1.970   5.138   3.495 -0.5287  2.2180 -1.4408
   68CHL1  H18C 6168   1.914   5.249   3.619 -0.7762 -0.4268  0.9732
   68CHL1   C12 6169   1.721   5.003   3.459 -1.0643  0.1830 -0.0166
   68CHL1  H12A 6170   1.747   4.906   3.507 -1.7616 -0.4103 -0.7977
   68CHL1  H12B 6171   1.612   4.995   3.441 -0.9073 -1.0116 -0.5207
   68CHL1   C11 6172   1.807   4.989   3.330 -0.0027  0.5574 -0.4838
   68CHL1  H11A 6173   1.910   4.981   3.371 -0.8077 -0.5488  1.3901
   68CHL1  H11B 6174   1.777   4.898   3.274  1.7280  0.4884 -1.3903
   68CHL1    C9 6175   1.779   5.112   3.230 -0.6763  0.3714 -0.0621
   68CHL1    H9 6176   1.669   5.104   3.213 -0.8002 -1.7148  1.4174
   68CHL1   C10 6177   1.845   5.113   3.092  0.2532 -0.1983  0.9271
   68CHL1   C19 6178   1.987   5.069   3.125  0.0056 -0.1174 -0.5418
   68CHL1  H19A 6179   2.014   5.137   3.209  0.3175 -0.3904 -0.4208
   68CHL1  H19B 6180   2.020   4.965   3.143 -0.2284 -0.5428 -2.3556
   68CHL1  H19C 6181   2.060   5.096   3.046  1.3055 -0.9929  0.3268
   68CHL1    C1 6182   1.780   5.001   3.006 -0.1645  0.1689 -0.1585
   68CHL1   H1A 6183   1.808   4.898   3.036  1.4629  1.0505  1.6193
   68CHL1   H1B 6184   1.670   5.013   3.015  0.1120  1.2453  3.1371
   68CHL1    C2 6185   1.818   5.010   2.853 -0.2591 -0.7170  0.0802
   68CHL1   H2A 6186   1.756   4.939   2.796  1.5989 -0.2011 -2.8248
   68CHL1   H2B 6187   1.924   4.978   2.844  0.4513  1.7102 -1.1988
   68CHL1   C20 6188   1.684   5.124   3.791 -0.0315  0.4227  0.6191
   68CHL1   H20 6189   1.789   5.143   3.822  0.5718 -2.5441  0.7029
   68CHL1   C21 6190   1.664   4.966   3.792 -0.6757 -0.6584  0.1412
   68CHL1  H21A 6191   1.659   4.922   3.894 -2.2112 -1.1151 -0.1040
   68CHL1  H21B 6192   1.736   4.921   3.721 -2.7751 -1.4248 -1.6228
   68CHL1  H21C 6193   1.569   4.942   3.740 -0.5690  1.6423 -1.2506
   68CHL1   C22 6194   1.580   5.177   3.898  0.2797  0.1339  0.2393
   68CHL1  H22A 6195   1.572   5.287   3.899 -0.4873  0.0927  1.3848
   68CHL1  H22B 6196   1.478   5.138   3.878  1.0169 -2.0505  0.4210
   68CHL1   C23 6197   1.623   5.140   4.039 -0.1831  0.2083 -0.9125
   68CHL1  H23A 6198   1.660   5.035   4.043  1.2382  0.7369  0.8294
   68CHL1  H23B 6199   1.707   5.208   4.063 -2.3143  2.1574  1.5192
   68CHL1   C24 6200   1.506   5.167   4.136 -0.7035 -0.7531  0.0735
   68CHL1  H24A 6201   1.493   5.277   4.147 -0.4197 -0.8205  1.1735
   68CHL1  H24B 6202   1.406   5.131   4.103 -1.1656  0.1024  0.5017
   68CHL1   C25 6203   1.532   5.106   4.275  0.7771 -0.0921 -0.0287
   68CHL1   H25 6204   1.550   4.999   4.252  2.6718  0.1147  0.3209
   68CHL1   C26 6205   1.664   5.160   4.332  0.2779  0.0839  0.2458
   68CHL1  H26A 6206   1.744   5.103   4.282  0.4110 -0.4177  1.0200
   68CHL1  H26B 6207   1.675   5.270   4.318  2.5758 -0.1563 -0.1779
   68CHL1  H26C 6208   1.670   5.149   4.442 -3.2993  0.3370  0.6149
   68CHL1   C27 6209   1.414   5.125   4.368  0.7272 -0.2482  0.5827
   68CHL1  H27A 6210   1.429   5.072   4.465 -1.4844 -3.1197 -0.4910
   68CHL1  H27B 6211   1.381   5.230   4.383 -0.0329 -0.1503 -1.4893
   68CHL1  H27C 6212   1.327   5.080   4.315  1.0979  0.8356 -1.0036
   69CHL1    C3 6213   0.685   3.158   2.800 -0.1452  0.1606  0.9170
   69CHL1    H3 6214   0.612   3.077   2.775 -1.1994  1.2102  0.5146
   69CHL1    O3 6215   0.755   3.192   2.678 -0.3728 -0.5081 -0.1573
   69CHL1   H3' 6216   0.817   3.261   2.704 -0.5778 -0.3349 -0.1262
   69CHL1    C4 6217   0.610   3.282   2.854  0.2128 -0.0129  0.1447
   69CHL1   H4A 6218   0.673   3.372   2.862 -1.3187  0.9597  2.0289
   69CHL1   H4B 6219   0.533   3.289   2.774 -0.0818  0.2164  0.4470
   69CHL1    C5 6220   0.539   3.247   2.976  0.7197  0.7080 -0.7320
   69CHL1    C6 6221   0.402   3.255   2.990  0.3283  0.4121  0.5224
   69CHL1    H6 6222   0.350   3.296   2.902  1.4749  2.3996  0.6978
   69CHL1    C7 6223   0.328   3.236   3.123  0.2193  0.2286  0.5265
   69CHL1   H7A 6224   0.256   3.319   3.139 -0.1931 -0.0206 -0.0162
   69CHL1   H7B 6225   0.268   3.144   3.107  1.3129 -0.5064  0.5696
   69CHL1    C8 6226   0.417   3.217   3.246  0.2767 -0.1018  0.3907
   69CHL1    H8 6227   0.460   3.318   3.262 -0.2195  0.5255 -1.8220
   69CHL1   C14 6228   0.352   3.157   3.368 -0.0348  0.1793 -0.0626
   69CHL1   H14 6229   0.320   3.051   3.359  0.0129 -0.0783  2.0869
   69CHL1   C15 6230   0.219   3.229   3.418 -0.8177  0.1925  0.5398
   69CHL1  H15A 6231   0.227   3.336   3.388 -2.7712  0.1626 -0.2699
   69CHL1  H15B 6232   0.136   3.184   3.359 -0.7035  1.0598 -0.3044
   69CHL1   C16 6233   0.212   3.194   3.566 -0.2493  0.1718 -0.1295
   69CHL1  H16A 6234   0.218   3.287   3.627  0.5918  1.7088 -2.4387
   69CHL1  H16B 6235   0.121   3.138   3.596 -0.1439  0.6606  1.2027
   69CHL1   C17 6236   0.346   3.111   3.605 -0.7940 -1.2571  0.3308
   69CHL1   H17 6237   0.321   3.004   3.590  2.1342 -2.0451  0.6064
   69CHL1   C13 6238   0.444   3.153   3.491 -0.0042  0.5624  0.4401
   69CHL1   C18 6239   0.504   3.296   3.522  0.1730  0.2166  0.2780
   69CHL1  H18A 6240   0.421   3.363   3.553  1.2185  1.6433  0.1226
   69CHL1  H18B 6241   0.558   3.294   3.619 -1.3446 -2.2879  1.1431
   69CHL1  H18C 6242   0.573   3.347   3.451  2.5813 -2.1983  0.7375
   69CHL1   C12 6243   0.549   3.050   3.452  0.0256 -0.1139 -0.5761
   69CHL1  H12A 6244   0.624   3.029   3.531  1.7739  0.7018 -1.9404
   69CHL1  H12B 6245   0.508   2.953   3.417  0.2457 -0.5394  0.3264
   69CHL1   C11 6246   0.625   3.101   3.334 -0.0423 -0.0348 -0.4059
   69CHL1  H11A 6247   0.685   3.188   3.367 -0.5044 -0.7378  2.4954
   69CHL1  H11B 6248   0.705   3.035   3.294  0.7394  1.4912 -1.4763
   69CHL1    C9 6249   0.540   3.131   3.209 -0.4462 -0.3638  0.4188
   69CHL1    H9 6250   0.509   3.029   3.177 -0.3179 -0.2730 -0.0080
   69CHL1   C10 6251   0.629   3.192   3.092  0.9166  0.4950  0.2691
   69CHL1   C19 6252   0.710   3.314   3.127  0.1818  0.2927 -0.2126
   69CHL1  H19A 6253   0.642   3.386   3.178 -2.0128 -0.4512 -1.8981
   69CHL1  H19B 6254   0.791   3.282   3.196  0.0421 -0.0809 -0.2160
   69CHL1  H19C 6255   0.763   3.376   3.053  0.6842  1.2509  0.9271
   69CHL1    C1 6256   0.715   3.077   3.028 -0.5395 -0.3731 -0.2911
   69CHL1   H1A 6257   0.793   3.035   3.096  0.3130 -0.8641 -1.5447
   69CHL1   H1B 6258   0.646   2.991   3.015 -0.3258 -0.5747 -0.1066
   69CHL1    C2 6259   0.791   3.112   2.897 -0.1681 -0.7043 -0.2931
   69CHL1   H2A 6260   0.833   3.015   2.862 -2.5115 -1.5133 -1.0246
   69CHL1   H2B 6261   0.879   3.177   2.918  0.3349 -1.6781  0.7299
   69CHL1   C20 6262   0.386   3.124   3.758  0.5724 -1.1155  0.2724
   69CHL1   H20 6263   0.431   3.225   3.771 -3.2189  0.8299 -0.2086
   69CHL1   C21 6264   0.503   3.028   3.796  0.2008  0.2998 -0.4648
   69CHL1  H21A 6265   0.468   2.924   3.777 -2.3816  1.2096 -1.0674
   69CHL1  H21B 6266   0.527   3.034   3.905  0.8700 -0.1335 -0.5776
   69CHL1  H21C 6267   0.595   3.065   3.745  0.2121 -0.3340 -0.9211
   69CHL1   C22 6268   0.268   3.105   3.850 -0.2543  0.5645  0.5256
   69CHL1  H22A 6269   0.189   3.179   3.825 -0.5113  0.7158  1.6915
   69CHL1  H22B 6270   0.231   3.002   3.837 -1.4661  0.8896  1.2325
   69CHL1   C23 6271   0.285   3.122   4.001 -0.0737 -0.5627 -0.1784
   69CHL1  H23A 6272   0.196   3.086   4.056 -0.4900  0.3611 -0.2154
   69CHL1  H23B 6273   0.376   3.068   4.035 -0.5354 -1.9534 -1.0665
   69CHL1   C24 6274   0.281   3.273   4.044 -0.0282  0.5678 -0.1511
   69CHL1  H24A 6275   0.346   3.326   3.971 -1.0431 -0.1121 -1.5959
   69CHL1  H24B 6276   0.181   3.310   4.015  1.2292  1.8248 -3.4616
   69CHL1   C25 6277   0.305   3.313   4.192  0.2441 -0.6714  0.3835
   69CHL1   H25 6278   0.415   3.310   4.209 -0.0083 -1.8518  2.0372
   69CHL1   C26 6279   0.268   3.459   4.206 -0.9749  0.8849 -0.1636
   69CHL1  H26A 6280   0.158   3.472   4.194 -0.6705  3.1491 -1.0211
   69CHL1  H26B 6281   0.301   3.503   4.302 -0.7063  0.0565  0.1292
   69CHL1  H26C 6282   0.316   3.524   4.130 -0.6353  2.9283  1.6958
   69CHL1   C27 6283   0.233   3.222   4.292  0.0943 -0.4477  0.5722
   69CHL1  H27A 6284   0.124   3.219   4.275  0.2002 -1.6410 -0.0021
   69CHL1  H27B 6285   0.273   3.119   4.292  0.2684 -0.3838  1.3329
   69CHL1  H27C 6286   0.256   3.261   4.394  0.0609  0.6696  0.1719
   70CHL1    C3 6287   2.347   1.229   2.968 -0.0414  0.3969 -0.1648
   70CHL1    H3 6288   2.239   1.227   2.992 -0.0942  1.9497 -0.1863
   70CHL1    O3 6289   2.357   1.291   2.842  1.3626 -0.3868 -0.4903
   70CHL1   H3' 6290   2.449   1.287   2.814  2.1243 -1.3096  1.8776
   70CHL1    C4 6291   2.438   1.305   3.073 -0.1018  0.3243 -0.3505
   70CHL1   H4A 6292   2.538   1.319   3.026  0.9196 -2.6783  0.6886
   70CHL1   H4B 6293   2.389   1.404   3.088  0.1115  0.1536  1.8657
   70CHL1    C5 6294   2.421   1.227   3.203 -0.9268  0.2915  0.3338
   70CHL1    C6 6295   2.379   1.281   3.317  1.1631  0.4520  0.9542
   70CHL1    H6 6296   2.359   1.389   3.316  0.1270  0.2623  0.9017
   70CHL1    C7 6297   2.373   1.208   3.453  0.0738 -0.1858  0.2173
   70CHL1   H7A 6298   2.403   1.268   3.542 -1.8834 -1.1898  1.6107
   70CHL1   H7B 6299   2.268   1.177   3.468 -0.7967  1.1074 -2.5192
   70CHL1    C8 6300   2.459   1.080   3.459  0.4207  0.2705  0.5743
   70CHL1    H8 6301   2.565   1.110   3.472  0.3274  0.4912  0.8361
   70CHL1   C14 6302   2.418   0.997   3.579  0.3743  0.1701  0.4424
   70CHL1   H14 6303   2.316   0.959   3.558  0.3914  0.0008  0.6626
   70CHL1   C15 6304   2.408   1.067   3.714  0.0973  0.5694  0.2132
   70CHL1  H15A 6305   2.502   1.125   3.727 -1.2855  2.8955  0.5868
   70CHL1  H15B 6306   2.328   1.143   3.728  0.7565  1.5745 -1.2000
   70CHL1   C16 6307   2.407   0.958   3.814  0.2248  0.1892 -0.8805
   70CHL1  H16A 6308   2.488   0.979   3.888 -0.8127  1.4327 -0.0633
   70CHL1  H16B 6309   2.312   0.944   3.870 -0.0649 -1.6291 -1.7501
   70CHL1   C17 6310   2.447   0.824   3.740 -0.1748 -0.4751  0.2827
   70CHL1   H17 6311   2.355   0.766   3.719  0.2197 -0.8503 -0.4542
   70CHL1   C13 6312   2.505   0.873   3.604  0.0573  0.5201  0.3761
   70CHL1   C18 6313   2.654   0.909   3.621 -0.6712  0.2211  0.4643
   70CHL1  H18A 6314   2.713   0.823   3.659  0.0297  1.5305  2.5429
   70CHL1  H18B 6315   2.691   0.953   3.526  0.3166  0.3479  0.8941
   70CHL1  H18C 6316   2.677   0.980   3.704 -0.2346 -2.4411  2.7431
   70CHL1   C12 6317   2.494   0.785   3.482  0.2868  0.8152  0.4869
   70CHL1  H12A 6318   2.562   0.698   3.493 -0.4761  0.2587  0.8645
   70CHL1  H12B 6319   2.392   0.745   3.465 -0.3235  2.3998  0.2484
   70CHL1   C11 6320   2.518   0.856   3.344 -0.6821  0.4172  0.1460
   70CHL1  H11A 6321   2.625   0.886   3.342 -1.2780  2.7626 -3.0009
   70CHL1  H11B 6322   2.478   0.799   3.258  3.0532 -1.2569 -0.6679
   70CHL1    C9 6323   2.442   0.996   3.326  0.1135 -0.2056 -0.5580
   70CHL1    H9 6324   2.335   0.967   3.322  0.7234 -3.4271  2.0555
   70CHL1   C10 6325   2.465   1.077   3.196 -0.9189 -0.2606  0.1739
   70CHL1   C19 6326   2.619   1.084   3.175  0.1598 -0.6098  0.5042
   70CHL1  H19A 6327   2.656   0.981   3.158 -0.6729 -0.7932 -0.2697
   70CHL1  H19B 6328   2.641   1.147   3.086  0.0872  2.0404  2.2676
   70CHL1  H19C 6329   2.654   1.134   3.267  0.4922  2.2086 -1.0416
   70CHL1    C1 6330   2.392   1.000   3.084 -0.0085 -0.0639 -0.1403
   70CHL1   H1A 6331   2.435   0.900   3.062 -1.7132 -0.7773 -0.3825
   70CHL1   H1B 6332   2.288   1.000   3.125 -0.2338 -3.8219 -0.4288
   70CHL1    C2 6333   2.387   1.077   2.948 -0.2535  0.1668 -0.0654
   70CHL1   H2A 6334   2.313   1.019   2.889 -0.7148  0.1984  0.4646
   70CHL1   H2B 6335   2.490   1.068   2.909 -1.0057  0.7469 -2.3242
   70CHL1   C20 6336   2.529   0.729   3.830  0.2511 -0.3207  0.3517
   70CHL1   H20 6337   2.629   0.770   3.853  1.0055 -1.6885 -0.3434
   70CHL1   C21 6338   2.555   0.592   3.763 -0.0087 -0.5657 -0.2076
   70CHL1  H21A 6339   2.462   0.537   3.738  0.8320 -2.3360  0.4141
   70CHL1  H21B 6340   2.624   0.536   3.830  0.9930  1.4853  0.5706
   70CHL1  H21C 6341   2.616   0.610   3.671  1.0134 -1.3172  0.3108
   70CHL1   C22 6342   2.462   0.712   3.966  0.5104  0.0609  0.5322
   70CHL1  H22A 6343   2.526   0.644   4.025  1.0954 -1.1797 -1.4579
   70CHL1  H22B 6344   2.468   0.809   4.021 -0.5397  0.6124 -0.2876
   70CHL1   C23 6345   2.316   0.660   3.954  0.3174  0.4772 -0.9864
   70CHL1  H23A 6346   2.249   0.733   3.905  0.5125 -0.6503 -3.0474
   70CHL1  H23B 6347   2.315   0.568   3.892  1.7767  1.1163 -1.9988
   70CHL1   C24 6348   2.267   0.623   4.093  0.8344 -0.3060  0.3097
   70CHL1  H24A 6349   2.340   0.555   4.142  0.9130 -1.5528 -1.4328
   70CHL1  H24B 6350   2.240   0.708   4.160 -3.7941 -1.8228  0.7546
   70CHL1   C25 6351   2.142   0.538   4.096 -0.7307  1.3765  0.0735
   70CHL1   H25 6352   2.161   0.450   4.031 -1.3448  2.9372 -2.3845
   70CHL1   C26 6353   2.111   0.506   4.239  0.0176 -0.3274 -0.3255
   70CHL1  H26A 6354   2.052   0.592   4.277  3.2319  2.1757 -0.5681
   70CHL1  H26B 6355   2.054   0.412   4.252  1.4164 -1.1567  0.0845
   70CHL1  H26C 6356   2.204   0.482   4.295  0.9177  0.6478 -1.3494
   70CHL1   C27 6357   2.024   0.612   4.026  0.4017 -0.2179  0.1652
   70CHL1  H27A 6358   1.926   0.560   4.037  0.5358 -0.2477  1.3823
   70CHL1  H27B 6359   2.017   0.717   4.062  0.5154 -0.0208 -0.3797
   70CHL1  H27C 6360   2.048   0.610   3.918  0.9459 -1.3796  0.2913
   71CHL1    C3 6361   5.705   0.030   2.776  0.4057 -0.0425  0.0759
   71CHL1    H3 6362   5.796   0.083   2.808  0.2493 -0.5198  1.3583
   71CHL1    O3 6363   5.713   0.049   2.634  0.0503  0.6282 -0.3241
   71CHL1   H3' 6364   5.652  -0.016   2.598 -1.4898  1.4912  0.5908
   71CHL1    C4 6365   5.711  -0.116   2.810 -0.1541 -0.1308 -0.1880
   71CHL1   H4A 6366   5.631  -0.175   2.761  0.8774 -0.0994 -2.0137
   71CHL1   H4B 6367   5.807  -0.158   2.772  0.8288  1.1365  0.7670
   71CHL1    C5 6368   5.708  -0.129   2.962  0.2910 -0.1284  0.6011
   71CHL1    C6 6369   5.814  -0.181   3.022  0.0244  0.0273 -0.0304
   71CHL1    H6 6370   5.894  -0.232   2.966  1.2211 -0.5807  2.0943
   71CHL1    C7 6371   5.829  -0.185   3.174  0.1059 -0.6261  0.2834
   71CHL1   H7A 6372   5.876  -0.277   3.215  1.7665  1.2058  2.7987
   71CHL1   H7B 6373   5.898  -0.101   3.200 -1.3484 -0.4021  3.9991
   71CHL1    C8 6374   5.688  -0.167   3.239  0.5109 -0.4695  0.4543
   71CHL1    H8 6375   5.641  -0.265   3.215  0.4703  0.1406 -2.3565
   71CHL1   C14 6376   5.705  -0.142   3.388  1.0673 -0.5504  0.4602
   71CHL1   H14 6377   5.763  -0.047   3.391  0.9038 -0.3816 -0.9710
   71CHL1   C15 6378   5.805  -0.238   3.463  0.3182 -0.6273 -0.1608
   71CHL1  H15A 6379   5.775  -0.338   3.426 -2.6386  0.0351  0.1711
   71CHL1  H15B 6380   5.906  -0.198   3.442  0.0994 -0.2326 -0.4850
   71CHL1   C16 6381   5.760  -0.234   3.606 -0.2884 -0.0615  0.0148
   71CHL1  H16A 6382   5.718  -0.329   3.646 -0.0365  0.1465  0.7865
   71CHL1  H16B 6383   5.847  -0.204   3.668 -0.4584  0.7491 -0.1368
   71CHL1   C17 6384   5.636  -0.134   3.610  0.3927 -0.4604  0.3878
   71CHL1   H17 6385   5.679  -0.033   3.627 -2.6123  0.6061  2.5870
   71CHL1   C13 6386   5.574  -0.143   3.473 -1.1015  0.0034  0.3139
   71CHL1   C18 6387   5.493  -0.268   3.461 -0.7328  0.2558 -0.3506
   71CHL1  H18A 6388   5.466  -0.299   3.358 -0.7507 -3.2979  0.5756
   71CHL1  H18B 6389   5.549  -0.356   3.500  0.9350  1.3999 -0.0453
   71CHL1  H18C 6390   5.398  -0.264   3.518 -0.4092  1.2991  0.1355
   71CHL1   C12 6391   5.500  -0.013   3.419 -0.2261 -0.0238 -0.5211
   71CHL1  H12A 6392   5.402   0.004   3.467 -0.3949 -1.9387 -0.1291
   71CHL1  H12B 6393   5.558   0.079   3.442  1.3874 -0.9313 -0.7652
   71CHL1   C11 6394   5.479  -0.017   3.268 -0.2080 -0.9161  0.1996
   71CHL1  H11A 6395   5.408  -0.102   3.255  1.0519 -2.0518  0.4994
   71CHL1  H11B 6396   5.438   0.083   3.243  3.0834 -0.1766 -3.0251
   71CHL1    C9 6397   5.609  -0.051   3.182  0.2399  0.4052 -0.3193
   71CHL1    H9 6398   5.671   0.040   3.193 -0.7772  1.3055 -1.7722
   71CHL1   C10 6399   5.588  -0.061   3.032  0.3783 -0.2845  0.3380
   71CHL1   C19 6400   5.467  -0.150   3.005 -0.3566 -0.5632  0.8377
   71CHL1  H19A 6401   5.373  -0.098   3.033  0.2211 -0.5341  2.8576
   71CHL1  H19B 6402   5.457  -0.194   2.903  1.6777 -0.2669  0.4682
   71CHL1  H19C 6403   5.471  -0.242   3.067 -1.7342 -0.1888  1.5187
   71CHL1    C1 6404   5.568   0.081   2.973  0.6893  0.5690  0.3642
   71CHL1   H1A 6405   5.478   0.119   3.027  0.4291 -0.3492  0.5913
   71CHL1   H1B 6406   5.648   0.150   3.009  1.4350  0.1134 -0.3794
   71CHL1    C2 6407   5.575   0.096   2.822 -0.8571 -0.3264 -0.0985
   71CHL1   H2A 6408   5.578   0.201   2.785  2.4469 -0.5933 -0.9181
   71CHL1   H2B 6409   5.486   0.039   2.786 -0.1598 -1.5462  0.0304
   71CHL1   C20 6410   5.544  -0.155   3.734  0.9104 -0.2775 -0.3982
   71CHL1   H20 6411   5.478  -0.243   3.718  1.5918 -1.0533  0.9225
   71CHL1   C21 6412   5.453  -0.034   3.740  0.2208 -0.0347  0.2950
   71CHL1  H21A 6413   5.511   0.061   3.742  2.1786 -1.0807  4.5648
   71CHL1  H21B 6414   5.391  -0.024   3.831  0.8493  2.2409  0.5330
   71CHL1  H21C 6415   5.384  -0.037   3.653  0.3826  0.3288  0.1539
   71CHL1   C22 6416   5.616  -0.171   3.865 -0.5606 -0.1244 -0.6908
   71CHL1  H22A 6417   5.702  -0.237   3.841 -0.0663 -0.4538  1.7927
   71CHL1  H22B 6418   5.663  -0.071   3.877  1.6867 -1.2721  0.6956
   71CHL1   C23 6419   5.535  -0.221   3.987 -0.5287  1.3375 -0.0133
   71CHL1  H23A 6420   5.443  -0.158   3.993 -0.8767  1.0262 -1.6599
   71CHL1  H23B 6421   5.497  -0.322   3.961  1.4092  0.8195 -1.0403
   71CHL1   C24 6422   5.620  -0.232   4.116 -0.1406  0.0341  0.5083
   71CHL1  H24A 6423   5.678  -0.327   4.111 -0.4698 -0.0878 -2.8577
   71CHL1  H24B 6424   5.686  -0.145   4.137  0.1242  0.0568 -0.3983
   71CHL1   C25 6425   5.537  -0.243   4.243 -0.1900 -1.1123 -0.3670
   71CHL1   H25 6426   5.465  -0.324   4.218 -2.4213 -0.1330  2.3774
   71CHL1   C26 6427   5.614  -0.291   4.374 -0.1966  0.4298  0.1473
   71CHL1  H26A 6428   5.675  -0.211   4.421 -2.0819  1.5724  0.7507
   71CHL1  H26B 6429   5.544  -0.335   4.448 -1.6623 -1.6743 -2.3221
   71CHL1  H26C 6430   5.678  -0.376   4.345  0.3682  0.8175  0.2493
   71CHL1   C27 6431   5.474  -0.106   4.283  0.2190  0.1567 -0.4442
   71CHL1  H27A 6432   5.430  -0.052   4.196 -1.7046 -2.1190 -0.9858
   71CHL1  H27B 6433   5.383  -0.108   4.346  1.5637  1.7958  1.6783
   71CHL1  H27C 6434   5.550  -0.034   4.319 -1.5311  1.1973  1.3439
   72CHL1    C3 6435   0.249   5.261   2.361 -1.0274 -0.1094  0.1394
   72CHL1    H3 6436   0.169   5.338   2.364 -1.0875 -0.1537 -0.3400
   72CHL1    O3 6437   0.298   5.245   2.231  0.0259  0.5082 -0.2934
   72CHL1   H3' 6438   0.327   5.332   2.202  0.7986  0.3387 -0.0790
   72CHL1    C4 6439   0.370   5.279   2.455 -0.1468 -0.2051 -0.6412
   72CHL1   H4A 6440   0.445   5.198   2.445 -1.7470 -1.8380 -0.0809
   72CHL1   H4B 6441   0.424   5.370   2.422  0.0355  0.1301  0.5253
   72CHL1    C5 6442   0.319   5.285   2.595 -0.1325 -0.3009 -0.0920
   72CHL1    C6 6443   0.346   5.394   2.666 -0.1591  0.5822 -0.4891
   72CHL1    H6 6444   0.401   5.477   2.619 -0.6206  0.6787 -0.8705
   72CHL1    C7 6445   0.329   5.399   2.819  0.2786 -0.0713  0.2389
   72CHL1   H7A 6446   0.427   5.418   2.869  0.8631 -2.9471  0.3429
   72CHL1   H7B 6447   0.258   5.482   2.842 -0.7857  0.0682 -3.0818
   72CHL1    C8 6448   0.293   5.262   2.887 -0.6822  0.1607 -0.2157
   72CHL1    H8 6449   0.388   5.206   2.905  0.6772  2.2446 -0.5783
   72CHL1   C14 6450   0.234   5.288   3.021 -0.1220  0.1054  0.4324
   72CHL1   H14 6451   0.142   5.349   3.006  0.0445  0.6409  1.4969
   72CHL1   C15 6452   0.309   5.367   3.127  0.6846  0.0553  0.1734
   72CHL1  H15A 6453   0.415   5.339   3.143  0.4838 -0.3298  0.8441
   72CHL1  H15B 6454   0.304   5.478   3.115  1.2156 -0.0545 -1.1338
   72CHL1   C16 6455   0.248   5.335   3.267 -0.5844 -0.6043  0.7426
   72CHL1  H16A 6456   0.321   5.295   3.339 -1.0088 -2.4869  0.1933
   72CHL1  H16B 6457   0.198   5.422   3.314  0.3664 -0.7454  2.0395
   72CHL1   C17 6458   0.143   5.228   3.232  0.1272  0.3322  0.6346
   72CHL1   H17 6459   0.050   5.277   3.197  0.4988 -1.3100 -3.1330
   72CHL1   C13 6460   0.191   5.171   3.099  0.2155  0.5863  0.3215
   72CHL1   C18 6461   0.308   5.074   3.114  0.3968 -0.2683 -0.9235
   72CHL1  H18A 6462   0.311   4.994   3.038  1.4337 -0.7532 -0.3930
   72CHL1  H18B 6463   0.406   5.127   3.107 -0.3424  1.7450  1.8698
   72CHL1  H18C 6464   0.311   5.021   3.212  0.0494  1.1568 -0.1128
   72CHL1   C12 6465   0.084   5.112   3.005  0.7089 -0.2836 -0.6636
   72CHL1  H12A 6466   0.033   5.018   3.036  1.4057  0.0145  1.5499
   72CHL1  H12B 6467   0.004   5.188   2.988 -0.9643 -1.9098 -0.4217
   72CHL1   C11 6468   0.129   5.065   2.864 -0.1969 -1.1757  0.4732
   72CHL1  H11A 6469   0.215   4.995   2.870  0.2475 -0.5886  1.0249
   72CHL1  H11B 6470   0.046   5.014   2.812  0.5757 -2.3688  0.3568
   72CHL1    C9 6471   0.197   5.190   2.788  0.4613  0.2075 -0.1701
   72CHL1    H9 6472   0.115   5.264   2.776  0.2550  0.1188  0.6113
   72CHL1   C10 6473   0.246   5.159   2.648  0.3033 -0.6125  0.0708
   72CHL1   C19 6474   0.346   5.042   2.653  0.0264  0.5616  0.3868
   72CHL1  H19A 6475   0.293   4.954   2.694 -1.0337  1.4296  0.9171
   72CHL1  H19B 6476   0.385   5.009   2.554  0.6701 -0.2447  0.8984
   72CHL1  H19C 6477   0.442   5.067   2.705  2.2169 -2.2337 -1.9420
   72CHL1    C1 6478   0.132   5.130   2.553  0.0303 -0.0215  0.5864
   72CHL1   H1A 6479   0.093   5.027   2.569  2.6136 -1.4197 -1.3920
   72CHL1   H1B 6480   0.056   5.208   2.570 -1.5035 -1.9249  3.3456
   72CHL1    C2 6481   0.174   5.133   2.401 -0.0097 -0.6305  0.2100
   72CHL1   H2A 6482   0.081   5.130   2.340 -0.0420 -0.6702  0.2619
   72CHL1   H2B 6483   0.226   5.042   2.363  1.8316 -0.2248  1.6212
   72CHL1   C20 6484   0.109   5.129   3.346 -0.4241  0.4941 -0.0775
   72CHL1   H20 6485   0.204   5.084   3.383 -0.5398  1.6005  1.6859
   72CHL1   C21 6486   0.027   5.010   3.304  0.5194  0.7055  0.0068
   72CHL1  H21A 6487  -0.066   5.044   3.254  0.1538 -0.1637  0.0905
   72CHL1  H21B 6488  -0.006   4.958   3.396  0.6209  1.1559  0.3002
   72CHL1  H21C 6489   0.081   4.938   3.238 -1.1430 -0.0757 -0.5695
   72CHL1   C22 6490   0.056   5.208   3.466 -0.2802  0.5446 -0.3506
   72CHL1  H22A 6491   0.033   5.133   3.545  0.3890 -1.0621 -1.6255
   72CHL1  H22B 6492   0.143   5.271   3.495 -0.8044  1.2528 -0.2889
   72CHL1   C23 6493  -0.048   5.320   3.437 -0.2337  0.2348 -0.4204
   72CHL1  H23A 6494   0.002   5.413   3.404 -0.5907  1.6263  2.5930
   72CHL1  H23B 6495  -0.126   5.289   3.365 -1.9627  1.5980  0.7780
   72CHL1   C24 6496  -0.119   5.361   3.568 -0.6996  0.2156  0.2275
   72CHL1  H24A 6497  -0.166   5.271   3.613  0.6569 -0.0460  1.1805
   72CHL1  H24B 6498  -0.038   5.398   3.634  0.6604  0.4430 -1.5167
   72CHL1   C25 6499  -0.231   5.465   3.559 -0.8296 -0.2197 -0.1728
   72CHL1   H25 6500  -0.310   5.441   3.485 -0.8600 -2.7026  0.5956
   72CHL1   C26 6501  -0.295   5.489   3.697 -0.3803  0.7055  0.2452
   72CHL1  H26A 6502  -0.321   5.390   3.742 -0.3106 -0.2125 -1.6453
   72CHL1  H26B 6503  -0.220   5.531   3.768 -0.3940 -0.5350  1.0162
   72CHL1  H26C 6504  -0.381   5.558   3.691 -1.7744 -0.9416  0.4789
   72CHL1   C27 6505  -0.164   5.592   3.510  0.1897  0.4636 -0.2012
   72CHL1  H27A 6506  -0.244   5.669   3.500 -1.8197 -1.3476  0.9515
   72CHL1  H27B 6507  -0.077   5.613   3.576 -0.7160 -1.1882  1.6554
   72CHL1  H27C 6508  -0.118   5.575   3.411  0.0995  1.5026 -0.4341
   73CHL1    C3 6509   1.226   5.400   2.723 -0.5884  0.3267 -0.8569
   73CHL1    H3 6510   1.124   5.444   2.728 -0.0742  1.4157  1.2118
   73CHL1    O3 6511   1.265   5.398   2.586  0.1597 -0.3849 -0.3579
   73CHL1   H3' 6512   1.283   5.491   2.571 -0.8401 -0.0161  0.5446
   73CHL1    C4 6513   1.320   5.493   2.807  0.8252  0.1141 -0.8051
   73CHL1   H4A 6514   1.425   5.459   2.803  1.1477  0.4474  2.3544
   73CHL1   H4B 6515   1.319   5.598   2.771 -0.8471 -0.5026 -2.7614
   73CHL1    C5 6516   1.283   5.485   2.960  1.2098  1.0413  0.6942
   73CHL1    C6 6517   1.253   5.601   3.030 -1.0850  0.1926 -0.2114
   73CHL1    H6 6518   1.259   5.696   2.975  0.4497  0.0580 -0.3276
   73CHL1    C7 6519   1.221   5.600   3.179  0.5070 -0.3991 -0.0637
   73CHL1   H7A 6520   1.276   5.682   3.230 -0.0888 -0.5345  0.8098
   73CHL1   H7B 6521   1.114   5.628   3.186  1.0528  2.4903 -1.6270
   73CHL1    C8 6522   1.247   5.465   3.247 -0.3398 -0.3691 -0.2330
   73CHL1    H8 6523   1.355   5.443   3.253 -0.1759  0.6644  4.3392
   73CHL1   C14 6524   1.168   5.462   3.375  0.8942 -0.7455 -0.3576
   73CHL1   H14 6525   1.063   5.488   3.350  0.1887  0.0379  2.8821
   73CHL1   C15 6526   1.199   5.577   3.475 -0.0828 -0.3213  0.6213
   73CHL1  H15A 6527   1.309   5.591   3.471 -0.1421 -0.0624 -0.5842
   73CHL1  H15B 6528   1.142   5.669   3.450 -1.5114 -1.4424 -0.4610
   73CHL1   C16 6529   1.165   5.522   3.614 -0.0498  0.5002 -0.2185
   73CHL1  H16A 6530   1.253   5.540   3.680 -1.0403  0.4481  1.1704
   73CHL1  H16B 6531   1.075   5.574   3.655  0.3796 -0.9437  2.8794
   73CHL1   C17 6532   1.129   5.370   3.589 -0.3268 -0.0499  0.1973
   73CHL1   H17 6533   1.018   5.376   3.578 -0.2411  1.3598 -0.1291
   73CHL1   C13 6534   1.184   5.330   3.449 -0.0164  0.7026  0.1084
   73CHL1   C18 6535   1.340   5.300   3.471  0.0243 -0.3946 -0.0718
   73CHL1  H18A 6536   1.367   5.206   3.523  1.7890 -0.5499 -1.1780
   73CHL1  H18B 6537   1.393   5.277   3.376 -1.2889  1.5091 -1.3654
   73CHL1  H18C 6538   1.395   5.383   3.520 -1.4322 -0.3022  1.5189
   73CHL1   C12 6539   1.115   5.220   3.371 -0.1774  0.2479  0.6992
   73CHL1  H12A 6540   1.117   5.116   3.410 -3.0440 -0.2244 -0.1851
   73CHL1  H12B 6541   1.008   5.250   3.374 -0.5295 -1.0030  1.2878
   73CHL1   C11 6542   1.164   5.216   3.225 -0.7961  0.6610  1.1746
   73CHL1  H11A 6543   1.259   5.158   3.234 -1.0332  0.2565  1.0703
   73CHL1  H11B 6544   1.094   5.147   3.174 -0.7570  0.9124  0.7753
   73CHL1    C9 6545   1.183   5.347   3.153 -0.7636 -0.3038 -0.3522
   73CHL1    H9 6546   1.080   5.378   3.126 -0.4428 -0.2163 -1.5299
   73CHL1   C10 6547   1.254   5.341   3.016 -0.5621 -0.7815  0.0704
   73CHL1   C19 6548   1.389   5.269   3.029 -0.3012  0.6030  0.2259
   73CHL1  H19A 6549   1.440   5.276   2.930 -1.0887  3.8259 -0.0831
   73CHL1  H19B 6550   1.453   5.297   3.115  1.1799 -1.0596 -0.2821
   73CHL1  H19C 6551   1.369   5.162   3.048  1.8085 -0.0598 -0.8767
   73CHL1    C1 6552   1.162   5.258   2.923 -1.0203 -0.0456  1.1645
   73CHL1   H1A 6553   1.153   5.150   2.948  0.8393 -0.7285 -0.7753
   73CHL1   H1B 6554   1.061   5.302   2.907 -0.9474 -0.8820 -2.2532
   73CHL1    C2 6555   1.222   5.254   2.785  1.8490 -0.0481 -0.1555
   73CHL1   H2A 6556   1.157   5.189   2.723  0.7835  1.2430 -0.4187
   73CHL1   H2B 6557   1.322   5.205   2.789  1.2367 -1.4558 -1.1380
   73CHL1   C20 6558   1.171   5.292   3.715 -0.4097 -0.4843  0.3961
   73CHL1   H20 6559   1.281   5.301   3.723 -0.4154  2.1335 -1.2183
   73CHL1   C21 6560   1.121   5.156   3.691  0.0119  0.0360 -0.3807
   73CHL1  H21A 6561   1.015   5.152   3.659  0.7759 -1.1968 -3.0726
   73CHL1  H21B 6562   1.135   5.092   3.780  1.5494  0.6415 -0.1538
   73CHL1  H21C 6563   1.186   5.115   3.611  2.2394  0.7906  0.9420
   73CHL1   C22 6564   1.116   5.339   3.853 -0.0955  0.3103 -0.2519
   73CHL1  H22A 6565   1.152   5.443   3.872  0.3769  0.5876 -2.4044
   73CHL1  H22B 6566   1.005   5.349   3.843 -0.0978 -0.9272 -1.7286
   73CHL1   C23 6567   1.154   5.245   3.977 -0.4638 -0.3396  0.2425
   73CHL1  H23A 6568   1.075   5.168   3.985  0.8629 -1.5764  2.5920
   73CHL1  H23B 6569   1.249   5.189   3.964  1.0603  1.9002  1.0625
   73CHL1   C24 6570   1.160   5.320   4.112  0.5487 -0.1893 -0.1752
   73CHL1  H24A 6571   1.149   5.244   4.192 -0.4908  0.2116  0.0685
   73CHL1  H24B 6572   1.252   5.383   4.116 -0.9200  2.0978 -0.2969
   73CHL1   C25 6573   1.051   5.425   4.137  0.1638 -0.4606 -0.0862
   73CHL1   H25 6574   1.055   5.498   4.053  1.0104 -1.9466 -1.4064
   73CHL1   C26 6575   0.912   5.369   4.136  0.2824  0.1611 -0.3432
   73CHL1  H26A 6576   0.878   5.343   4.033 -0.2805  1.0131 -0.3750
   73CHL1  H26B 6577   0.899   5.274   4.192  0.4251 -0.0875 -0.7276
   73CHL1  H26C 6578   0.838   5.448   4.161  0.5342  0.4616 -0.5387
   73CHL1   C27 6579   1.066   5.495   4.283 -0.4933 -0.2439  0.8143
   73CHL1  H27A 6580   1.174   5.517   4.299 -0.5217  0.8593 -0.4347
   73CHL1  H27B 6581   1.011   5.591   4.286 -1.4689 -0.7644  0.0054
   73CHL1  H27C 6582   1.028   5.433   4.368  0.0469 -1.1372  0.4207
   74CHL1    C3 6583   1.001   4.606   2.610 -0.1331  0.3842  0.2817
   74CHL1    H3 6584   0.922   4.684   2.610  0.2932  0.8293  0.9884
   74CHL1    O3 6585   1.068   4.583   2.482 -0.7708  0.4799 -0.3189
   74CHL1   H3' 6586   1.052   4.668   2.442  1.2951  1.4899  0.8553
   74CHL1    C4 6587   1.104   4.680   2.704  0.3982 -0.7396  0.1721
   74CHL1   H4A 6588   1.206   4.637   2.709  1.1235  0.9268  4.5254
   74CHL1   H4B 6589   1.114   4.776   2.649 -1.6153 -1.8355 -2.3569
   74CHL1    C5 6590   1.055   4.701   2.847 -0.0261 -0.3101  0.1338
   74CHL1    C6 6591   1.044   4.824   2.898 -0.1898 -0.1130  0.3354
   74CHL1    H6 6592   1.064   4.917   2.842 -0.1889 -0.5447 -0.3976
   74CHL1    C7 6593   0.999   4.848   3.037  0.0105  0.3250 -0.5066
   74CHL1   H7A 6594   1.047   4.935   3.086 -0.9571  1.0234 -0.7655
   74CHL1   H7B 6595   0.891   4.873   3.040 -0.3905 -1.3811  0.9454
   74CHL1    C8 6596   1.007   4.719   3.121  0.5195  0.3522 -0.0156
   74CHL1    H8 6597   1.114   4.703   3.146 -0.3575 -1.7408  2.8787
   74CHL1   C14 6598   0.940   4.734   3.259 -0.2670 -0.0913 -0.0066
   74CHL1   H14 6599   0.830   4.739   3.247 -0.0322  1.0848 -2.2599
   74CHL1   C15 6600   0.982   4.863   3.329 -0.3500  0.6070  0.8205
   74CHL1  H15A 6601   1.092   4.870   3.323 -0.3128 -0.6399 -0.5987
   74CHL1  H15B 6602   0.943   4.955   3.280  2.0456  1.4076  0.2748
   74CHL1   C16 6603   0.929   4.836   3.474  0.9506 -0.1078 -0.5872
   74CHL1  H16A 6604   1.016   4.866   3.536  0.8332 -0.3293 -0.3147
   74CHL1  H16B 6605   0.840   4.898   3.498 -0.1046 -1.8772  0.3353
   74CHL1   C17 6606   0.885   4.685   3.481  0.3554  0.4993 -0.2496
   74CHL1   H17 6607   0.777   4.676   3.458 -0.1103 -0.0526  1.9203
   74CHL1   C13 6608   0.952   4.621   3.356 -0.1668  0.4992  0.0178
   74CHL1   C18 6609   1.102   4.608   3.382 -0.8560  0.1750 -0.6489
   74CHL1  H18A 6610   1.161   4.580   3.293 -0.1272  3.2668 -1.2543
   74CHL1  H18B 6611   1.147   4.700   3.425 -0.0779 -0.6783  0.4292
   74CHL1  H18C 6612   1.114   4.532   3.463 -0.2179 -1.3685 -2.1345
   74CHL1   C12 6613   0.894   4.495   3.291  0.5452 -0.2256  0.3778
   74CHL1  H12A 6614   0.913   4.406   3.354  2.0153  0.0440  0.3410
   74CHL1  H12B 6615   0.786   4.511   3.272  0.5050  0.9848  1.4424
   74CHL1   C11 6616   0.955   4.470   3.155 -0.2538  0.4282 -0.2398
   74CHL1  H11A 6617   1.061   4.449   3.179 -0.2712 -0.5864 -0.9761
   74CHL1  H11B 6618   0.918   4.379   3.101  0.7091  0.2835 -0.6873
   74CHL1    C9 6619   0.953   4.593   3.055  0.6453 -0.5954  0.2688
   74CHL1    H9 6620   0.845   4.616   3.039  0.8765  0.6361  0.3317
   74CHL1   C10 6621   1.017   4.575   2.923  0.8910  1.2513  0.0649
   74CHL1   C19 6622   1.137   4.484   2.951 -0.0055  1.0173  0.4328
   74CHL1  H19A 6623   1.187   4.486   2.851 -0.6926  3.0218  0.0888
   74CHL1  H19B 6624   1.198   4.534   3.029  0.8592 -1.6567  1.5806
   74CHL1  H19C 6625   1.113   4.380   2.983 -0.9590  1.3805  0.9474
   74CHL1    C1 6626   0.916   4.498   2.831 -0.0182 -0.2177 -0.8473
   74CHL1   H1A 6627   0.869   4.410   2.880 -0.1090  0.6787  0.7500
   74CHL1   H1B 6628   0.830   4.567   2.814  0.5709  0.7484 -0.0188
   74CHL1    C2 6629   0.957   4.478   2.681 -0.1448  0.0963  0.4052
   74CHL1   H2A 6630   0.859   4.441   2.643 -0.1012  0.6290 -0.2322
   74CHL1   H2B 6631   1.033   4.397   2.677 -0.4460 -0.1745  0.0774
   74CHL1   C20 6632   0.903   4.621   3.625 -0.0045  0.4404 -0.2501
   74CHL1   H20 6633   1.013   4.626   3.637 -0.0807  0.7707  0.3169
   74CHL1   C21 6634   0.858   4.479   3.634  0.4047  0.2198  0.5198
   74CHL1  H21A 6635   0.905   4.423   3.550 -1.4929 -0.2835 -0.2588
   74CHL1  H21B 6636   0.747   4.471   3.639  0.3776  0.8902  1.1051
   74CHL1  H21C 6637   0.893   4.438   3.731 -1.0608  0.8308  1.3407
   74CHL1   C22 6638   0.851   4.704   3.742 -0.1860 -0.1062  0.6537
   74CHL1  H22A 6639   0.892   4.807   3.738 -1.2322  0.5262  3.6579
   74CHL1  H22B 6640   0.740   4.710   3.735 -0.1944 -0.9495 -0.0977
   74CHL1   C23 6641   0.882   4.650   3.882 -0.0531 -0.2670 -0.1635
   74CHL1  H23A 6642   0.816   4.562   3.900 -1.2769  0.0743 -2.5348
   74CHL1  H23B 6643   0.991   4.629   3.890  0.1429  1.0088  1.0628
   74CHL1   C24 6644   0.856   4.748   4.003  0.0103  0.5741  0.0260
   74CHL1  H24A 6645   0.854   4.686   4.096  0.9963  1.1295  0.4284
   74CHL1  H24B 6646   0.941   4.819   4.010  0.1436  0.4509 -0.3134
   74CHL1   C25 6647   0.727   4.837   4.002  0.9328  0.2277 -0.2956
   74CHL1   H25 6648   0.726   4.882   3.900 -1.4392  0.4951 -0.2217
   74CHL1   C26 6649   0.615   4.743   4.028  0.0329  0.2617 -0.1822
   74CHL1  H26A 6650   0.517   4.795   4.031 -0.5597 -0.7239 -1.1864
   74CHL1  H26B 6651   0.607   4.663   3.951 -0.1410 -1.6663  1.7512
   74CHL1  H26C 6652   0.610   4.693   4.127 -0.2571 -0.8846 -0.7570
   74CHL1   C27 6653   0.723   4.944   4.109  0.5180 -0.5216 -0.8660
   74CHL1  H27A 6654   0.693   4.913   4.211 -1.0357  3.1107 -0.0898
   74CHL1  H27B 6655   0.817   5.004   4.115  0.3641 -0.3987  0.4818
   74CHL1  H27C 6656   0.646   5.018   4.081 -0.6178 -0.2010  2.6539
   75CHL1    C3 6657   0.569   3.636   2.659 -0.7284 -0.0103  0.0052
   75CHL1    H3 6658   0.574   3.525   2.660  0.6543  0.0223 -0.6951
   75CHL1    O3 6659   0.617   3.664   2.527  0.0126  0.1587  0.1266
   75CHL1   H3' 6660   0.664   3.748   2.524 -1.7533  1.2094  0.6358
   75CHL1    C4 6661   0.438   3.707   2.687  1.0679 -0.6610 -0.3820
   75CHL1   H4A 6662   0.447   3.814   2.661 -1.4919 -0.3255 -0.1652
   75CHL1   H4B 6663   0.360   3.671   2.616  0.9269  1.4574 -1.3644
   75CHL1    C5 6664   0.381   3.693   2.830 -0.3161  0.3011 -0.8359
   75CHL1    C6 6665   0.260   3.647   2.860  0.1477  0.3868  0.3777
   75CHL1    H6 6666   0.196   3.612   2.777 -0.3244  0.9875  0.4777
   75CHL1    C7 6667   0.213   3.627   3.004  0.0696 -0.2337 -0.1199
   75CHL1   H7A 6668   0.112   3.667   3.029  0.0754 -0.6059  0.5033
   75CHL1   H7B 6669   0.203   3.517   3.013 -0.4791 -0.0971  1.0920
   75CHL1    C8 6670   0.304   3.700   3.106 -0.9609  1.3020  0.0037
   75CHL1    H8 6671   0.279   3.808   3.108 -1.8980  1.1604 -1.9945
   75CHL1   C14 6672   0.269   3.655   3.253  0.0709  0.3452  1.4106
   75CHL1   H14 6673   0.289   3.546   3.254  0.3095  0.3866  0.9683
   75CHL1   C15 6674   0.125   3.672   3.310  0.5755  0.5884 -0.8441
   75CHL1  H15A 6675   0.089   3.767   3.265 -0.2957 -0.3509 -2.2082
   75CHL1  H15B 6676   0.053   3.593   3.280  0.4422  0.6199 -0.6103
   75CHL1   C16 6677   0.148   3.669   3.465  0.7729  0.1740 -0.4198
   75CHL1  H16A 6678   0.104   3.762   3.506  1.0372  0.1431 -0.0514
   75CHL1  H16B 6679   0.102   3.580   3.514 -0.7341  1.1240 -0.0422
   75CHL1   C17 6680   0.296   3.663   3.496 -1.1022 -0.3369  0.4458
   75CHL1   H17 6681   0.323   3.556   3.505  0.0753 -0.0506  0.3901
   75CHL1   C13 6682   0.356   3.719   3.366  0.1607  0.8352 -0.0784
   75CHL1   C18 6683   0.343   3.877   3.371 -0.3024 -0.4575 -0.0081
   75CHL1  H18A 6684   0.426   3.925   3.427  0.0145  0.6589 -1.3755
   75CHL1  H18B 6685   0.335   3.917   3.268  1.3486 -0.4277 -0.1466
   75CHL1  H18C 6686   0.247   3.908   3.418  0.3462  0.1098  0.9797
   75CHL1   C12 6687   0.501   3.670   3.340 -0.2096 -0.6247  0.0578
   75CHL1  H12A 6688   0.573   3.710   3.415  0.5867 -1.2532 -0.3542
   75CHL1  H12B 6689   0.499   3.562   3.365 -1.2192 -0.2198  1.9291
   75CHL1   C11 6690   0.549   3.708   3.197 -0.0225 -1.1643  0.0419
   75CHL1  H11A 6691   0.556   3.818   3.207 -2.3533 -0.9404 -0.2326
   75CHL1  H11B 6692   0.655   3.676   3.186  0.6823  1.5567 -2.6091
   75CHL1    C9 6693   0.450   3.682   3.073  0.0921 -0.3137  0.5017
   75CHL1    H9 6694   0.452   3.571   3.073  0.5981 -0.3155  1.2719
   75CHL1   C10 6695   0.495   3.733   2.931 -0.0221 -0.0466 -0.0062
   75CHL1   C19 6696   0.521   3.889   2.941 -0.3454 -0.0666  0.9137
   75CHL1  H19A 6697   0.614   3.910   2.997  1.3049 -0.3722 -1.5294
   75CHL1  H19B 6698   0.534   3.939   2.843 -1.0418  2.0346  1.8457
   75CHL1  H19C 6699   0.437   3.943   2.991 -0.1176  0.4989  0.6925
   75CHL1    C1 6700   0.634   3.674   2.898  0.0077 -0.1874 -0.3317
   75CHL1   H1A 6701   0.711   3.724   2.959  0.3573 -0.4792 -0.5278
   75CHL1   H1B 6702   0.631   3.565   2.921  3.0548 -0.1013  0.9383
   75CHL1    C2 6703   0.677   3.688   2.755  0.8088  0.0618 -0.1799
   75CHL1   H2A 6704   0.776   3.638   2.748  0.2289 -1.4228  1.4242
   75CHL1   H2B 6705   0.701   3.793   2.730  3.3750 -0.7956 -1.7894
   75CHL1   C20 6706   0.349   3.713   3.628 -0.0176 -0.8919  0.0372
   75CHL1   H20 6707   0.456   3.738   3.610 -0.4605 -0.5237 -2.4602
   75CHL1   C21 6708   0.351   3.597   3.727  0.2536 -0.0766  0.0310
   75CHL1  H21A 6709   0.249   3.555   3.735  0.2596 -0.1423 -0.2429
   75CHL1  H21B 6710   0.381   3.633   3.828 -0.2579  1.3935 -0.3217
   75CHL1  H21C 6711   0.415   3.515   3.687  1.5253  1.7357 -1.8185
   75CHL1   C22 6712   0.283   3.833   3.694 -0.0030  0.0352 -0.4088
   75CHL1  H22A 6713   0.247   3.910   3.622 -0.4331 -1.4290 -1.8219
   75CHL1  H22B 6714   0.192   3.785   3.736  0.4903  0.4819  1.2410
   75CHL1   C23 6715   0.371   3.893   3.804 -0.0880 -0.5508  0.3159
   75CHL1  H23A 6716   0.442   3.820   3.848 -0.0304  0.6187  2.3048
   75CHL1  H23B 6717   0.434   3.975   3.763  0.6206 -1.5772 -0.7310
   75CHL1   C24 6718   0.280   3.952   3.921  0.1001 -0.0140 -0.0498
   75CHL1  H24A 6719   0.319   4.052   3.949  0.3140 -0.3096  0.7494
   75CHL1  H24B 6720   0.178   3.968   3.880 -0.0193 -2.8538 -1.0858
   75CHL1   C25 6721   0.263   3.856   4.041  0.4089  0.0983  0.6677
   75CHL1   H25 6722   0.244   3.759   3.990 -1.5398  2.0503 -2.7444
   75CHL1   C26 6723   0.391   3.853   4.130 -0.4254  0.8966 -1.0982
   75CHL1  H26A 6724   0.374   3.803   4.228  1.7513  3.3325  0.6664
   75CHL1  H26B 6725   0.476   3.803   4.079 -0.3597 -1.8266  1.3853
   75CHL1  H26C 6726   0.424   3.952   4.167 -0.4223  0.2412  0.7518
   75CHL1   C27 6727   0.143   3.884   4.133 -0.5561 -0.9790 -0.0101
   75CHL1  H27A 6728   0.146   3.825   4.227 -1.5840  0.6759  1.0991
   75CHL1  H27B 6729   0.148   3.991   4.161  0.3367 -1.2659  0.9584
   75CHL1  H27C 6730   0.048   3.862   4.081 -0.6213 -1.4299  0.2951
   76CHL1    C3 6731   6.708   5.765   2.347  0.0412  0.3508 -0.2542
   76CHL1    H3 6732   6.602   5.775   2.316  0.0677  0.1497 -0.4082
   76CHL1    O3 6733   6.776   5.840   2.248  0.1196  0.0591  0.4242
   76CHL1   H3' 6734   6.832   5.786   2.192 -1.1149  0.3009 -1.0862
   76CHL1    C4 6735   6.717   5.834   2.486 -0.0460 -0.2997  0.5190
   76CHL1   H4A 6736   6.825   5.831   2.510 -0.6993 -2.2369  3.9380
   76CHL1   H4B 6737   6.700   5.944   2.482 -1.9354 -0.5879 -0.5624
   76CHL1    C5 6738   6.646   5.760   2.594 -0.9053 -0.4476 -0.2006
   76CHL1    C6 6739   6.564   5.833   2.671 -0.4971 -0.4094 -0.5975
   76CHL1    H6 6740   6.541   5.938   2.646  0.9301 -0.3299 -1.7246
   76CHL1    C7 6741   6.498   5.772   2.783  0.3122 -0.0636  0.2486
   76CHL1   H7A 6742   6.475   5.839   2.869  1.2584  0.4566  0.1131
   76CHL1   H7B 6743   6.395   5.748   2.746  0.5609  1.3322 -1.5007
   76CHL1    C8 6744   6.553   5.631   2.825 -0.6689 -0.1025 -0.8562
   76CHL1    H8 6745   6.643   5.664   2.881 -0.9233  2.3129 -1.7241
   76CHL1   C14 6746   6.461   5.557   2.922  0.2565 -0.3713 -0.4846
   76CHL1   H14 6747   6.369   5.538   2.863 -0.7809  0.9433  0.6782
   76CHL1   C15 6748   6.406   5.632   3.042 -0.5187 -0.0095 -0.4465
   76CHL1  H15A 6749   6.475   5.708   3.083 -0.9280 -0.5769  1.4258
   76CHL1  H15B 6750   6.315   5.682   3.002 -0.4180 -0.1410 -0.8456
   76CHL1   C16 6751   6.380   5.521   3.148  0.0259 -0.3879 -0.2885
   76CHL1  H16A 6752   6.460   5.532   3.224 -1.3873  0.9626  1.0733
   76CHL1  H16B 6753   6.281   5.526   3.197  0.3108 -0.2006  0.2753
   76CHL1   C17 6754   6.405   5.386   3.075  0.5945 -0.0158  0.1890
   76CHL1   H17 6755   6.324   5.363   3.002  0.2593  1.3328  0.1066
   76CHL1   C13 6756   6.516   5.422   2.968  0.1522 -0.0499 -0.5698
   76CHL1   C18 6757   6.653   5.441   3.038  0.5166 -0.0669  0.8997
   76CHL1  H18A 6758   6.734   5.465   2.966  0.1252  0.4689  0.6379
   76CHL1  H18B 6759   6.644   5.519   3.116  0.1677  0.2294  0.5688
   76CHL1  H18C 6760   6.672   5.348   3.096  1.2537  1.3703  3.1153
   76CHL1   C12 6761   6.523   5.331   2.841 -0.0417  0.3842 -0.0254
   76CHL1  H12A 6762   6.552   5.227   2.865  0.7394  0.2463 -1.4339
   76CHL1  H12B 6763   6.417   5.325   2.810  0.3319 -1.4101 -1.1097
   76CHL1   C11 6764   6.620   5.395   2.742 -0.1699 -1.1758  0.3397
   76CHL1  H11A 6765   6.724   5.387   2.781 -0.7853  0.3332  2.4856
   76CHL1  H11B 6766   6.627   5.339   2.647  0.1249 -1.4575  0.5252
   76CHL1    C9 6767   6.580   5.543   2.705 -0.2585  0.0189 -0.2845
   76CHL1    H9 6768   6.485   5.528   2.649 -0.3451 -0.7424  0.0458
   76CHL1   C10 6769   6.684   5.613   2.607  0.7057  0.6427  0.9592
   76CHL1   C19 6770   6.829   5.613   2.655  0.3001 -0.6997  0.1652
   76CHL1  H19A 6771   6.834   5.664   2.754  0.8808  1.4634 -0.9228
   76CHL1  H19B 6772   6.849   5.504   2.662 -1.3435 -1.1119 -0.8692
   76CHL1  H19C 6773   6.900   5.664   2.587 -1.6878 -1.5335 -2.7377
   76CHL1    C1 6774   6.673   5.538   2.469 -0.8494 -0.7527 -0.6381
   76CHL1   H1A 6775   6.713   5.435   2.461  0.3642 -0.3118 -0.5742
   76CHL1   H1B 6776   6.571   5.533   2.427 -1.7370 -0.5175  1.3646
   76CHL1    C2 6777   6.755   5.616   2.354  0.8016 -1.1307  0.9370
   76CHL1   H2A 6778   6.736   5.555   2.263  0.7670  0.6870 -0.3392
   76CHL1   H2B 6779   6.865   5.617   2.371  0.9557 -0.3969 -0.0058
   76CHL1   C20 6780   6.420   5.266   3.167 -0.2332  0.0826  0.7896
   76CHL1   H20 6781   6.517   5.268   3.222  0.2431  0.6674 -0.0472
   76CHL1   C21 6782   6.439   5.134   3.090  0.2072 -0.5302 -0.2050
   76CHL1  H21A 6783   6.364   5.118   3.009 -1.8866  0.9721  1.3228
   76CHL1  H21B 6784   6.447   5.048   3.160  0.9350 -0.9520 -0.7867
   76CHL1  H21C 6785   6.536   5.137   3.036 -0.5604  0.4622 -1.5897
   76CHL1   C22 6786   6.309   5.258   3.283  0.4682 -0.1760 -0.1824
   76CHL1  H22A 6787   6.319   5.174   3.355 -0.3457 -1.2657 -1.3194
   76CHL1  H22B 6788   6.329   5.354   3.337  0.5554 -0.4385  0.2611
   76CHL1   C23 6789   6.153   5.256   3.236 -0.4388  0.6242 -0.4955
   76CHL1  H23A 6790   6.133   5.329   3.155 -2.0160  4.1520  2.8231
   76CHL1  H23B 6791   6.137   5.153   3.195 -0.0924  0.2571  0.2789
   76CHL1   C24 6792   6.053   5.279   3.353 -1.0125  0.3458  0.4425
   76CHL1  H24A 6793   6.083   5.246   3.454  0.6442 -0.9284 -0.4248
   76CHL1  H24B 6794   6.033   5.388   3.361 -1.5386  0.2740  0.1178
   76CHL1   C25 6795   5.912   5.221   3.320  0.2627 -0.6851 -0.3482
   76CHL1   H25 6796   5.926   5.114   3.343  2.5211 -0.3858 -0.1377
   76CHL1   C26 6797   5.808   5.292   3.407 -0.7554 -0.1132  0.4609
   76CHL1  H26A 6798   5.708   5.271   3.363 -0.4021 -1.3110  0.1872
   76CHL1  H26B 6799   5.817   5.270   3.515 -0.1691 -3.9711 -0.2320
   76CHL1  H26C 6800   5.829   5.400   3.392  1.8096 -0.5390  0.5740
   76CHL1   C27 6801   5.879   5.254   3.177  0.2856 -0.4684 -0.8829
   76CHL1  H27A 6802   5.908   5.359   3.152  0.5244 -0.2580  0.2306
   76CHL1  H27B 6803   5.935   5.183   3.112 -2.7992 -4.6883  0.6564
   76CHL1  H27C 6804   5.774   5.252   3.143  0.4114  1.0044 -1.4568
   77SOPE     N 6805   2.637   3.447   6.468  0.1243 -0.4266 -0.4902
   77SOPE   HN1 6806   2.577   3.499   6.401 -1.2005 -0.2905  0.7560
   77SOPE   HN2 6807   2.720   3.408   6.419 -0.5211  0.7715 -2.6557
   77SOPE   HN3 6808   2.577   3.363   6.477  0.0914 -0.8414 -3.5842
   77SOPE   C12 6809   2.667   3.537   6.586  0.7624 -0.0381  0.3993
   77SOPE  H12A 6810   2.572   3.571   6.632  2.0774  0.7121  2.7111
   77SOPE  H12B 6811   2.736   3.620   6.560  1.4175 -0.8505 -0.5214
   77SOPE   C11 6812   2.733   3.452   6.702  0.2190  0.2479  0.0531
   77SOPE  H11A 6813   2.654   3.413   6.770  1.6989  2.7225  3.4547
   77SOPE  H11B 6814   2.794   3.519   6.766  0.8123  0.8889 -1.1390
   77SOPE     P 6815   2.896   3.253   6.754 -0.1042 -0.2258  0.0228
   77SOPE   O13 6816   2.821   3.135   6.800 -0.5249  0.0743 -0.4563
   77SOPE   O14 6817   2.951   3.326   6.862  0.1178 -0.2874 -0.1968
   77SOPE   O12 6818   2.816   3.345   6.657 -0.2201 -0.3125  0.2076
   77SOPE   O11 6819   3.009   3.208   6.655 -0.2277  0.1308  0.1283
   77SOPE    C1 6820   3.086   3.294   6.572  0.0214  0.0992 -0.1453
   77SOPE    HA 6821   3.181   3.245   6.541  0.9129  2.1411 -0.8111
   77SOPE    HB 6822   3.121   3.384   6.626  0.0388 -0.7001  1.2288
   77SOPE    C2 6823   3.003   3.319   6.439  0.3669  0.4087  0.7603
   77SOPE    HS 6824   2.911   3.368   6.475 -0.1743  0.0081 -0.0454
   77SOPE   O21 6825   2.985   3.187   6.373 -0.2876  0.4438  0.0768
   77SOPE   C21 6826   2.856   3.170   6.344  0.4208  0.7556  0.2937
   77SOPE   O22 6827   2.774   3.260   6.341  0.9730 -0.2864 -0.1834
   77SOPE   C22 6828   2.825   3.024   6.311 -0.4059 -0.1901  0.0090
   77SOPE   H2R 6829   2.841   2.972   6.408 -2.3294  0.2752  0.6100
   77SOPE   H2S 6830   2.900   2.987   6.238 -0.7493  0.2682 -0.5856
   77SOPE    C3 6831   3.073   3.420   6.349 -0.0464 -0.5544  1.0053
   77SOPE    HX 6832   3.170   3.368   6.338 -0.8372 -2.0747  0.9182
   77SOPE    HY 6833   3.085   3.519   6.396  0.5998  0.0449 -0.3470
   77SOPE   O31 6834   3.014   3.439   6.212  0.3103  1.1800 -0.9178
   77SOPE   C31 6835   2.897   3.497   6.202  0.2567 -0.0714  0.7192
   77SOPE   O32 6836   2.831   3.541   6.291 -0.2204  0.3857 -0.2115
   77SOPE   C32 6837   2.853   3.467   6.062 -0.1732 -0.3124  0.1653
   77SOPE   H2X 6838   2.743   3.448   6.059  0.3454 -3.8880 -0.1389
   77SOPE   H2Y 6839   2.898   3.368   6.040  1.7140  0.8560 -1.6067
   77SOPE   C23 6840   2.685   3.000   6.250 -0.1210 -0.2160 -0.2340
   77SOPE   H3R 6841   2.608   3.051   6.311 -0.0563  0.8549 -1.0133
   77SOPE   H3S 6842   2.671   2.889   6.249  2.5898 -0.6457  0.8740
   77SOPE   C24 6843   2.665   3.051   6.108  0.5571 -0.3687 -0.4253
   77SOPE   H4R 6844   2.694   3.158   6.118  1.0540 -0.5689  0.4092
   77SOPE   H4S 6845   2.742   3.006   6.042  0.3340  0.6559 -1.4231
   77SOPE   C25 6846   2.515   3.035   6.073  0.0607  0.3786 -0.8772
   77SOPE   H5R 6847   2.478   2.950   6.134  1.0146  1.0037  0.6559
   77SOPE   H5S 6848   2.465   3.126   6.113 -2.6654  0.0023 -3.1515
   77SOPE   C26 6849   2.480   3.017   5.924 -0.6200  0.5573 -0.5682
   77SOPE   H6R 6850   2.530   2.926   5.884 -2.7207 -0.2242 -1.5644
   77SOPE   H6S 6851   2.370   3.004   5.920 -0.6364  0.9355 -1.5598
   77SOPE   C27 6852   2.519   3.142   5.857 -0.6043 -0.0372 -0.1677
   77SOPE   H7R 6853   2.428   3.166   5.797 -1.8334  0.1630  1.6593
   77SOPE   H7S 6854   2.525   3.231   5.923  0.1546  1.7371 -2.4865
   77SOPE   C28 6855   2.635   3.125   5.763 -0.8427 -0.5573  0.0317
   77SOPE   H8R 6856   2.712   3.067   5.818 -2.0294 -1.4421  0.8093
   77SOPE   H8S 6857   2.609   3.053   5.682  2.3418 -2.0603  0.1688
   77SOPE   C29 6858   2.681   3.253   5.692  0.3277  1.0578  0.3691
   77SOPE   H91 6859   2.729   3.323   5.762  0.4317  0.9283  0.4274
   77SOPE  C210 6860   2.668   3.295   5.570 -0.4437 -0.4264 -0.0233
   77SOPE  H101 6861   2.712   3.395   5.557  1.6163 -1.2088  0.5897
   77SOPE  C211 6862   2.600   3.226   5.463 -0.4403 -0.7161  0.5746
   77SOPE  H11R 6863   2.491   3.225   5.482 -0.7911 -1.9233 -1.2579
   77SOPE  H11S 6864   2.632   3.120   5.457  1.0052 -0.4260  2.2314
   77SOPE  C212 6865   2.619   3.278   5.322 -0.0729 -0.4709  0.1482
   77SOPE  H12R 6866   2.573   3.197   5.261  2.1188  0.8178 -3.5622
   77SOPE  H12S 6867   2.725   3.292   5.290 -0.4181  0.6092 -0.5507
   77SOPE  C213 6868   2.540   3.407   5.294  1.0117  0.4362 -0.6616
   77SOPE  H13R 6869   2.583   3.499   5.339 -0.1854  0.9115 -0.4388
   77SOPE  H13S 6870   2.435   3.391   5.326  1.2226  1.5693  0.7078
   77SOPE  C214 6871   2.536   3.435   5.144 -0.3094 -1.1782  0.7374
   77SOPE  H14R 6872   2.467   3.519   5.124 -0.1886 -1.4830 -1.2697
   77SOPE  H14S 6873   2.494   3.346   5.092 -1.4259 -1.9423  2.8336
   77SOPE  C215 6874   2.678   3.483   5.081  0.0579  0.0647  0.4581
   77SOPE  H15R 6875   2.746   3.395   5.093 -2.4600 -1.8433  1.5100
   77SOPE  H15S 6876   2.712   3.568   5.144  0.8911  0.3137 -0.2971
   77SOPE  C216 6877   2.663   3.507   4.925 -0.5636  0.1185  0.2293
   77SOPE  H16R 6878   2.613   3.417   4.883 -0.4674  0.8621 -1.5804
   77SOPE  H16S 6879   2.766   3.501   4.883 -0.1050  1.0761  1.1901
   77SOPE  C217 6880   2.602   3.640   4.893 -0.4905 -0.3409  0.6402
   77SOPE  H17R 6881   2.661   3.717   4.947  0.4094  0.1606 -0.9777
   77SOPE  H17S 6882   2.495   3.637   4.920 -1.2464 -1.2881 -2.1442
   77SOPE  C218 6883   2.597   3.666   4.746 -0.6817  0.7014  0.6825
   77SOPE  H18R 6884   2.693   3.707   4.707 -1.6563  0.3172 -2.4530
   77SOPE  H18S 6885   2.516   3.739   4.726 -1.1080  0.6883  2.2678
   77SOPE  H18T 6886   2.573   3.579   4.681  2.0188 -0.7691  1.4973
   77SOPE   C33 6887   2.908   3.576   5.973 -0.2289  0.4324  0.2403
   77SOPE   H3X 6888   2.933   3.531   5.874 -1.5844 -1.3396  0.6467
   77SOPE   H3Y 6889   3.012   3.607   5.999  0.6016 -2.0273  0.0988
   77SOPE   C34 6890   2.824   3.702   5.953 -0.1544  0.2774 -0.8215
   77SOPE   H4X 6891   2.843   3.760   6.046 -1.7517  1.9728 -1.4916
   77SOPE   H4Y 6892   2.718   3.669   5.951 -0.0768  0.0486 -2.1538
   77SOPE   C35 6893   2.867   3.792   5.834 -0.1333 -0.4577 -0.1039
   77SOPE   H5X 6894   2.974   3.821   5.848 -1.0630  4.2202 -0.9740
   77SOPE   H5Y 6895   2.813   3.888   5.846  0.9920  0.3063 -0.9282
   77SOPE   C36 6896   2.829   3.725   5.696  0.0158 -0.1133  0.2457
   77SOPE   H6X 6897   2.722   3.699   5.687  0.1562 -0.4514 -0.5134
   77SOPE   H6Y 6898   2.877   3.625   5.696 -0.9812 -0.6209  1.4537
   77SOPE   C37 6899   2.871   3.816   5.578  0.3614 -0.8209  0.4008
   77SOPE   H7X 6900   2.981   3.833   5.578  0.2161  0.2190 -0.2532
   77SOPE   H7Y 6901   2.816   3.912   5.583  0.9593 -0.3949 -0.8174
   77SOPE   C38 6902   2.822   3.766   5.442  0.9849  0.6093 -0.1680
   77SOPE   H8X 6903   2.711   3.762   5.441  0.9699  0.9908 -0.9443
   77SOPE   H8Y 6904   2.855   3.660   5.450 -0.3634  0.1492 -0.5761
   77SOPE   C39 6905   2.873   3.864   5.331  0.1600 -0.1219 -0.1273
   77SOPE   H9X 6906   2.980   3.883   5.352 -0.1021 -1.4418  2.8532
   77SOPE   H9Y 6907   2.825   3.963   5.346  3.2497  1.5693 -0.6649
   77SOPE  C310 6908   2.842   3.824   5.184 -0.0121  0.3560  0.2662
   77SOPE  H10X 6909   2.736   3.815   5.155  0.2435  0.4058 -0.7005
   77SOPE  H10Y 6910   2.878   3.720   5.172 -0.6968  0.1698 -0.2098
   77SOPE  C311 6911   2.908   3.923   5.087  0.2887  0.1943  0.1504
   77SOPE  H11X 6912   3.018   3.913   5.094  0.9939  4.3559 -2.0632
   77SOPE  H11Y 6913   2.887   4.030   5.109 -1.0352 -0.1250  0.5152
   77SOPE  C312 6914   2.877   3.898   4.935 -0.0793  0.3348 -0.5086
   77SOPE  H12X 6915   2.766   3.895   4.923 -0.3476  0.2438  1.6692
   77SOPE  H12Y 6916   2.918   3.800   4.903  0.3517 -0.7721  3.0466
   77SOPE  C313 6917   2.939   3.988   4.832 -0.3120 -1.0306 -0.5963
   77SOPE  H13X 6918   3.050   3.989   4.838 -0.3542 -1.0007  0.3522
   77SOPE  H13Y 6919   2.910   4.094   4.847  1.7166  0.0199 -3.2596
   77SOPE  C314 6920   2.900   3.942   4.692  0.0918  0.1070  0.3601
   77SOPE  H14X 6921   2.789   3.933   4.695 -0.2642  3.4802  1.4599
   77SOPE  H14Y 6922   2.942   3.841   4.673  0.8627  0.8039 -1.9129
   77SOPE  C315 6923   2.938   4.036   4.582  0.2012 -0.0840 -0.4599
   77SOPE  H15X 6924   3.044   4.068   4.576 -0.0024  1.3127  2.1111
   77SOPE  H15Y 6925   2.877   4.127   4.597  0.0764 -0.7312  4.7688
   77SOPE  C316 6926   2.903   3.971   4.440  0.5735  0.2632 -0.0540
   77SOPE  H16X 6927   2.793   3.955   4.434  0.5304  0.9223 -1.2175
   77SOPE  H16Y 6928   2.952   3.872   4.423  1.1303  0.6960 -1.0362
   77SOPE  C317 6929   2.945   4.057   4.318 -0.1863 -0.5475 -0.1094
   77SOPE  H17X 6930   3.055   4.072   4.318 -0.2224 -0.2905 -0.6857
   77SOPE  H17Y 6931   2.909   4.162   4.322 -0.8325 -0.7500 -0.4316
   77SOPE  C318 6932   2.912   4.000   4.182  0.2140  0.0179 -0.0565
   77SOPE  H18X 6933   2.958   3.902   4.158 -1.6552 -0.7310 -0.7907
   77SOPE  H18Y 6934   2.925   4.068   4.095 -1.8994  1.5875  0.7623
   77SOPE  H18Z 6935   2.806   3.969   4.187 -0.3055  1.8459  1.8211
   78SOPE     N 6936   1.621   2.814   6.876  0.4645  0.4860  0.5856
   78SOPE   HN1 6937   1.627   2.723   6.927 -2.3132 -0.3045 -0.3419
   78SOPE   HN2 6938   1.552   2.811   6.798  0.2865  0.8514  0.7273
   78SOPE   HN3 6939   1.717   2.818   6.835  1.2693 -1.8978  2.0205
   78SOPE   C12 6940   1.602   2.930   6.965  0.4058  0.0681 -0.2769
   78SOPE  H12A 6941   1.662   2.900   7.054  0.8256 -1.9194 -1.1887
   78SOPE  H12B 6942   1.498   2.925   7.003 -0.0819  0.1056 -1.5607
   78SOPE   C11 6943   1.636   3.062   6.910  0.1517 -0.5956 -0.1078
   78SOPE  H11A 6944   1.633   3.126   7.001 -0.5933  0.8246 -1.0969
   78SOPE  H11B 6945   1.565   3.093   6.831  0.8948  0.1060 -0.5118
   78SOPE     P 6946   1.817   3.167   6.756  0.1695  0.0532 -0.2821
   78SOPE   O13 6947   1.963   3.152   6.727 -0.2614 -0.4644  0.0891
   78SOPE   O14 6948   1.780   3.307   6.797 -0.1196  0.1048  0.2280
   78SOPE   O12 6949   1.773   3.058   6.864  0.1267  0.1441  0.5955
   78SOPE   O11 6950   1.728   3.126   6.638 -0.1606  0.5860  0.1981
   78SOPE    C1 6951   1.724   2.992   6.580 -0.9820  0.5274  0.0470
   78SOPE    HA 6952   1.649   2.927   6.629 -1.2456  1.3003  0.6997
   78SOPE    HB 6953   1.825   2.947   6.582 -0.0259  2.3579 -2.1780
   78SOPE    C2 6954   1.684   3.009   6.432 -0.0671  0.5627 -0.3781
   78SOPE    HS 6955   1.658   2.905   6.402  0.6413  0.5018 -0.8017
   78SOPE   O21 6956   1.785   3.071   6.347 -0.3005 -0.4983  0.2500
   78SOPE   C21 6957   1.883   2.994   6.304  0.4019  0.2119  0.2286
   78SOPE   O22 6958   1.887   2.870   6.305  0.3186  0.5034  0.0492
   78SOPE   C22 6959   2.001   3.085   6.269  0.1793  0.0533  0.3665
   78SOPE   H2R 6960   2.071   3.063   6.353  3.1769 -0.6354 -2.0910
   78SOPE   H2S 6961   1.964   3.189   6.276 -3.2844 -1.0297  0.1094
   78SOPE    C3 6962   1.554   3.092   6.425 -0.1103  0.5260  0.6762
   78SOPE    HX 6963   1.590   3.195   6.447 -1.2494  0.9868  0.4953
   78SOPE    HY 6964   1.484   3.046   6.499 -0.9237 -1.3620 -1.1727
   78SOPE   O31 6965   1.490   3.088   6.298  0.5931  0.9053 -0.0849
   78SOPE   C31 6966   1.383   3.152   6.292  0.4576 -0.6587 -0.4625
   78SOPE   O32 6967   1.324   3.201   6.384  0.3253 -0.5213  0.2825
   78SOPE   C32 6968   1.339   3.173   6.146 -0.2758  0.6036 -0.7478
   78SOPE   H2X 6969   1.248   3.237   6.145 -2.2437 -2.0387 -0.4528
   78SOPE   H2Y 6970   1.302   3.077   6.105  2.3582 -0.3215 -1.1387
   78SOPE   C23 6971   2.065   3.040   6.138  0.5537  0.6853  0.2799
   78SOPE   H3R 6972   2.040   2.935   6.109  0.4997  0.3359  1.5542
   78SOPE   H3S 6973   2.176   3.040   6.147  0.6563 -0.2240 -0.6671
   78SOPE   C24 6974   2.026   3.139   6.027 -0.5504 -0.8443 -0.0816
   78SOPE   H4R 6975   1.919   3.137   5.997 -0.3426 -0.2144 -0.8952
   78SOPE   H4S 6976   2.036   3.235   6.082 -0.9585 -1.0697  0.3897
   78SOPE   C25 6977   2.120   3.142   5.904  0.1189 -0.0639  0.6035
   78SOPE   H5R 6978   2.222   3.176   5.931  0.8673 -0.7912 -1.1411
   78SOPE   H5S 6979   2.133   3.035   5.876  2.2482  0.1899  0.4772
   78SOPE   C26 6980   2.067   3.239   5.796 -0.1937 -0.7256 -0.1021
   78SOPE   H6R 6981   1.966   3.205   5.763 -0.8301  0.4847  0.5442
   78SOPE   H6S 6982   2.052   3.338   5.843  1.5824  0.4679 -1.8843
   78SOPE   C27 6983   2.167   3.262   5.690 -0.0704 -0.7580  0.1003
   78SOPE   H7R 6984   2.262   3.301   5.734 -0.6508 -1.7465  2.4216
   78SOPE   H7S 6985   2.186   3.162   5.644 -1.0104 -0.5834 -0.6851
   78SOPE   C28 6986   2.121   3.373   5.593  0.4354  0.4120 -0.1300
   78SOPE   H8R 6987   2.123   3.474   5.641 -0.4555  0.7115 -0.6935
   78SOPE   H8S 6988   2.213   3.370   5.532  0.8840  1.0031  0.4979
   78SOPE   C29 6989   1.992   3.356   5.515 -0.1136 -0.8184  0.6850
   78SOPE   H91 6990   1.899   3.353   5.574 -0.3582  1.8023  0.5628
   78SOPE  C210 6991   1.984   3.358   5.384 -0.1233  0.4068  0.1464
   78SOPE  H101 6992   1.888   3.339   5.335  0.6285 -0.8492 -0.9031
   78SOPE  C211 6993   2.104   3.373   5.285 -0.0433  0.4684 -0.3008
   78SOPE  H11R 6994   2.134   3.272   5.249  0.8467  1.4305 -2.4081
   78SOPE  H11S 6995   2.195   3.419   5.328 -0.9425  2.0788 -0.0493
   78SOPE  C212 6996   2.061   3.473   5.173  0.7778  0.4381 -0.7628
   78SOPE  H12R 6997   2.059   3.572   5.222  2.1201 -0.7767  1.9934
   78SOPE  H12S 6998   1.964   3.436   5.131  1.3593 -3.1914  0.7139
   78SOPE  C213 6999   2.149   3.482   5.047  0.4210 -0.5039  0.2298
   78SOPE  H13R 7000   2.245   3.535   5.066  1.1909 -1.0503 -1.8894
   78SOPE  H13S 7001   2.111   3.554   4.972 -1.0121 -0.6507  0.7798
   78SOPE  C214 7002   2.193   3.352   4.986 -0.4915  0.6128  0.4248
   78SOPE  H14R 7003   2.097   3.301   4.962 -0.2408  0.2473  0.1926
   78SOPE  H14S 7004   2.256   3.291   5.054 -0.0358  0.5834 -0.0236
   78SOPE  C215 7005   2.291   3.369   4.871  0.3089  0.0991  0.1630
   78SOPE  H15R 7006   2.387   3.417   4.900  0.3101  0.6233 -0.6833
   78SOPE  H15S 7007   2.248   3.440   4.798  1.6619  1.3226  0.5274
   78SOPE  C216 7008   2.311   3.230   4.804 -0.2266  0.0995 -0.3455
   78SOPE  H16R 7009   2.208   3.188   4.796 -1.3040  2.3487  0.6876
   78SOPE  H16S 7010   2.359   3.164   4.880  1.1361  1.3426 -0.0788
   78SOPE  C217 7011   2.400   3.214   4.674  0.3916  0.1650  0.3763
   78SOPE  H17R 7012   2.504   3.212   4.712  0.5235 -0.0261  0.0125
   78SOPE  H17S 7013   2.381   3.295   4.600 -2.6620 -0.0360  0.8266
   78SOPE  C218 7014   2.368   3.080   4.604  0.0219  0.4830  0.1482
   78SOPE  H18R 7015   2.452   3.044   4.541  0.0264  0.1610  0.3331
   78SOPE  H18S 7016   2.277   3.091   4.543 -0.5224  0.6816  0.9743
   78SOPE  H18T 7017   2.337   3.007   4.682 -0.4988  0.3962 -0.1409
   78SOPE   C33 7018   1.444   3.230   6.051 -0.0979  0.2193  0.5423
   78SOPE   H3X 7019   1.533   3.162   6.051 -0.8551 -1.0975 -3.9655
   78SOPE   H3Y 7020   1.466   3.334   6.083  3.1883 -0.1295 -0.2193
   78SOPE   C34 7021   1.395   3.227   5.904  0.2938  0.7994  0.1267
   78SOPE   H4X 7022   1.293   3.271   5.899 -0.7037 -1.4533 -0.7581
   78SOPE   H4Y 7023   1.395   3.120   5.875 -2.1521  0.4932  0.9780
   78SOPE   C35 7024   1.493   3.300   5.807  0.0249  0.8235 -0.8204
   78SOPE   H5X 7025   1.598   3.267   5.822  0.7535  1.6624 -3.4371
   78SOPE   H5Y 7026   1.488   3.408   5.833 -0.8636  1.1326 -2.1917
   78SOPE   C36 7027   1.453   3.279   5.663 -0.5272  0.1991 -0.1543
   78SOPE   H6X 7028   1.347   3.311   5.650 -0.7848 -0.5822 -0.0448
   78SOPE   H6Y 7029   1.474   3.175   5.632  0.4773  0.0951  0.8102
   78SOPE   C37 7030   1.536   3.373   5.573  0.1371 -1.1157 -0.7454
   78SOPE   H7X 7031   1.637   3.331   5.554  0.0012 -1.7010 -0.1721
   78SOPE   H7Y 7032   1.554   3.472   5.621 -3.8712  0.2633 -1.7077
   78SOPE   C38 7033   1.460   3.410   5.444  1.2424  0.6368 -0.0038
   78SOPE   H8X 7034   1.516   3.495   5.399  0.3224  1.2318 -0.0509
   78SOPE   H8Y 7035   1.357   3.452   5.447  0.4475 -0.6753 -3.8856
   78SOPE   C39 7036   1.462   3.291   5.340 -0.1741 -0.2865 -0.8955
   78SOPE   H9X 7037   1.380   3.219   5.363  0.6566 -1.0643 -0.3119
   78SOPE   H9Y 7038   1.550   3.225   5.356 -1.8159 -2.6136 -0.9380
   78SOPE  C310 7039   1.458   3.335   5.191  0.3937 -0.3697  0.1957
   78SOPE  H10X 7040   1.363   3.391   5.179  0.4647  0.2595  2.1934
   78SOPE  H10Y 7041   1.448   3.234   5.147  0.2664 -0.0625 -0.4837
   78SOPE  C311 7042   1.583   3.413   5.151  0.0715  0.2488  0.6009
   78SOPE  H11X 7043   1.683   3.375   5.182 -0.6123 -0.7065  1.7083
   78SOPE  H11Y 7044   1.576   3.512   5.202 -2.1863  0.7696 -0.6071
   78SOPE  C312 7045   1.609   3.444   5.004  0.8075 -0.4027 -0.8569
   78SOPE  H12X 7046   1.513   3.476   4.958 -0.3356  1.0618  2.2499
   78SOPE  H12Y 7047   1.674   3.362   4.968  3.0813  1.2258 -0.6454
   78SOPE  C313 7048   1.686   3.576   5.005 -0.5640  0.8349 -0.4353
   78SOPE  H13X 7049   1.784   3.568   5.056  0.6652  1.2414 -2.6291
   78SOPE  H13Y 7050   1.630   3.653   5.062 -2.1740 -0.8427  0.3620
   78SOPE  C314 7051   1.710   3.632   4.866  0.2392 -0.2066 -0.2213
   78SOPE  H14X 7052   1.762   3.728   4.885  1.4909 -1.0555  0.7865
   78SOPE  H14Y 7053   1.614   3.657   4.816 -0.2685  2.4592  1.9019
   78SOPE  C315 7054   1.789   3.542   4.771  0.1296 -0.5563 -0.1736
   78SOPE  H15X 7055   1.740   3.443   4.760 -1.0314 -0.6097  3.7999
   78SOPE  H15Y 7056   1.893   3.522   4.805  0.1902 -0.9345 -0.5749
   78SOPE  C316 7057   1.802   3.608   4.634 -0.5120  0.1368  0.3122
   78SOPE  H16X 7058   1.853   3.707   4.636 -2.3305  1.1462 -0.4632
   78SOPE  H16Y 7059   1.700   3.630   4.594 -0.5289 -1.3508 -0.5176
   78SOPE  C317 7060   1.891   3.529   4.520  0.8261  0.5256 -0.2290
   78SOPE  H17X 7061   1.881   3.421   4.547 -0.4651  0.5417 -0.5956
   78SOPE  H17Y 7062   1.997   3.560   4.529  0.3081  2.0330  1.0593
   78SOPE  C318 7063   1.838   3.558   4.385 -1.2519  0.7470  0.3019
   78SOPE  H18X 7064   1.820   3.667   4.378  0.4865  1.0345 -0.1445
   78SOPE  H18Y 7065   1.741   3.504   4.375 -0.6634  0.1310 -3.7716
   78SOPE  H18Z 7066   1.903   3.540   4.297 -2.5918  0.5597 -0.6759
   79SOPE     N 7067   3.834   0.290   6.743 -0.0445 -0.6166  0.0194
   79SOPE   HN1 7068   3.828   0.254   6.840  3.5621 -2.4061 -0.2703
   79SOPE   HN2 7069   3.741   0.321   6.708  0.7204  2.3667  0.3727
   79SOPE   HN3 7070   3.864   0.213   6.680  0.6023 -1.1877  1.0100
   79SOPE   C12 7071   3.930   0.402   6.725  0.2969  0.2301 -0.2668
   79SOPE  H12A 7072   3.926   0.440   6.620  0.2237  0.4652 -0.1792
   79SOPE  H12B 7073   4.033   0.363   6.735 -0.2885 -0.8746  1.9979
   79SOPE   C11 7074   3.893   0.521   6.814 -0.1084 -0.4368 -0.0001
   79SOPE  H11A 7075   3.902   0.496   6.922  0.1455 -4.1627 -0.7533
   79SOPE  H11B 7076   3.786   0.536   6.789 -0.1292 -1.0927 -0.2981
   79SOPE     P 7077   3.963   0.768   6.857  0.1728  0.4625  0.2672
   79SOPE   O13 7078   4.091   0.783   6.933  0.3097 -0.2502 -0.3018
   79SOPE   O14 7079   3.841   0.767   6.940  0.5282 -0.6115  0.1377
   79SOPE   O12 7080   3.971   0.635   6.773 -0.1639  0.7831 -0.1729
   79SOPE   O11 7081   3.951   0.877   6.742  0.3181  0.5643 -0.1712
   79SOPE    C1 7082   4.012   0.853   6.620  0.7439 -0.0503 -0.0535
   79SOPE    HA 7083   4.107   0.795   6.626 -0.9786 -2.9513  2.0232
   79SOPE    HB 7084   4.037   0.951   6.573 -0.2988 -0.2877 -1.1611
   79SOPE    C2 7085   3.907   0.787   6.527  0.4047 -0.6394  0.1405
   79SOPE    HS 7086   3.886   0.690   6.577 -0.7992 -0.5417 -0.1419
   79SOPE   O21 7087   3.948   0.786   6.390  0.1291  0.3260  0.0609
   79SOPE   C21 7088   4.050   0.703   6.373  0.4108  0.1457  0.2213
   79SOPE   O22 7089   4.085   0.618   6.451  0.1779 -0.2889  0.2596
   79SOPE   C22 7090   4.116   0.729   6.243  0.1769 -0.1193  0.2683
   79SOPE   H2R 7091   4.071   0.819   6.195 -1.0349 -0.5716  0.5163
   79SOPE   H2S 7092   4.082   0.641   6.185 -1.9944  0.3675  0.7197
   79SOPE    C3 7093   3.777   0.866   6.527 -0.2047 -0.5638  0.0934
   79SOPE    HX 7094   3.724   0.870   6.625 -0.7567 -0.7244 -0.1946
   79SOPE    HY 7095   3.710   0.820   6.451  1.8790 -0.5306 -1.8764
   79SOPE   O31 7096   3.797   1.001   6.478 -0.2880 -0.1033  0.3441
   79SOPE   C31 7097   3.687   1.070   6.469  0.1841 -0.0731  0.1341
   79SOPE   O32 7098   3.576   1.034   6.508 -0.3309 -0.0585 -0.9283
   79SOPE   C32 7099   3.712   1.202   6.397  1.1297 -0.2543 -0.0967
   79SOPE   H2X 7100   3.822   1.216   6.408  1.4895 -3.6284  1.9882
   79SOPE   H2Y 7101   3.659   1.277   6.459  0.2505  0.4442 -1.6197
   79SOPE   C23 7102   4.274   0.735   6.236 -0.1426 -0.1733  0.3963
   79SOPE   H3R 7103   4.302   0.739   6.129 -1.5233  0.0147  0.0200
   79SOPE   H3S 7104   4.322   0.640   6.269  0.4660  0.1437  0.4343
   79SOPE   C24 7105   4.346   0.850   6.305  0.2817 -0.5277 -0.2162
   79SOPE   H4R 7106   4.318   0.837   6.412 -2.0818  0.5773 -0.6477
   79SOPE   H4S 7107   4.455   0.832   6.319  0.5263  0.2570 -1.0391
   79SOPE   C25 7108   4.315   0.986   6.250  0.1250  0.0267  0.7819
   79SOPE   H5R 7109   4.208   1.000   6.223  0.0951  0.8297  1.3002
   79SOPE   H5S 7110   4.334   1.065   6.326  0.4994  1.0567 -0.3652
   79SOPE   C26 7111   4.414   1.001   6.124 -0.3585  0.1050 -0.4138
   79SOPE   H6R 7112   4.516   0.978   6.162 -0.3204 -0.3172 -0.7595
   79SOPE   H6S 7113   4.388   0.922   6.049 -2.4264  1.6937 -1.4834
   79SOPE   C27 7114   4.412   1.139   6.062 -0.7588  0.9169 -0.7772
   79SOPE   H7R 7115   4.403   1.212   6.145  0.7724  1.5514 -1.1442
   79SOPE   H7S 7116   4.495   1.160   5.992 -0.1833 -0.5488 -0.5588
   79SOPE   C28 7117   4.291   1.159   5.980  0.5310  0.6417 -0.0057
   79SOPE   H8R 7118   4.292   1.082   5.899  0.5512  1.2692 -0.6102
   79SOPE   H8S 7119   4.197   1.137   6.035  0.7837 -1.9288 -0.4458
   79SOPE   C29 7120   4.298   1.306   5.933 -0.3382 -0.1582  0.3798
   79SOPE   H91 7121   4.284   1.374   6.019 -2.3290 -2.7902  2.3305
   79SOPE  C210 7122   4.321   1.350   5.805  0.5070  0.3215  0.0353
   79SOPE  H101 7123   4.339   1.458   5.793 -1.8314  0.8573  0.8273
   79SOPE  C211 7124   4.331   1.261   5.682  0.5982 -0.3606  0.1577
   79SOPE  H11R 7125   4.318   1.154   5.708  2.1171 -0.4796  0.4844
   79SOPE  H11S 7126   4.423   1.280   5.623  1.6394  2.5071  2.4813
   79SOPE  C212 7127   4.214   1.309   5.596  1.1846 -0.2776 -0.6787
   79SOPE  H12R 7128   4.241   1.411   5.559 -1.3339  0.7775  0.1664
   79SOPE  H12S 7129   4.125   1.317   5.662  1.9545 -0.4754  0.4051
   79SOPE  C213 7130   4.190   1.221   5.476  0.9072  0.5820 -0.3261
   79SOPE  H13R 7131   4.283   1.215   5.415  0.4360 -1.0234 -0.9422
   79SOPE  H13S 7132   4.129   1.277   5.402  1.3245  0.8114 -0.5014
   79SOPE  C214 7133   4.120   1.087   5.495 -0.2803  0.2978  0.0856
   79SOPE  H14R 7134   4.016   1.101   5.531 -0.4119 -0.6251  0.0999
   79SOPE  H14S 7135   4.166   1.026   5.576 -1.3094  1.0715  1.2657
   79SOPE  C215 7136   4.121   1.010   5.364 -0.1223 -0.0041 -0.2598
   79SOPE  H15R 7137   4.122   1.083   5.281  0.5263  0.1003 -0.1627
   79SOPE  H15S 7138   4.032   0.946   5.341  0.2981 -0.5261 -0.4550
   79SOPE  C216 7139   4.239   0.922   5.346 -0.2326  0.2933  0.0091
   79SOPE  H16R 7140   4.240   0.863   5.440 -0.7460 -2.3787 -1.5862
   79SOPE  H16S 7141   4.337   0.973   5.333  1.2642 -1.8794  1.9562
   79SOPE  C217 7142   4.237   0.828   5.228 -0.0519 -0.1251  0.6097
   79SOPE  H17R 7143   4.240   0.891   5.136  1.2164 -1.7211 -0.5023
   79SOPE  H17S 7144   4.139   0.775   5.230 -0.5408  0.6525 -0.8918
   79SOPE  C218 7145   4.359   0.736   5.244  0.2200 -0.2669 -0.0093
   79SOPE  H18R 7146   4.353   0.645   5.180  0.2762 -1.6123  1.8038
   79SOPE  H18S 7147   4.365   0.690   5.345  2.0138  2.6258  1.3034
   79SOPE  H18T 7148   4.459   0.781   5.225  1.2593 -2.6049 -0.4279
   79SOPE   C33 7149   3.649   1.213   6.256  0.7350 -0.6679 -0.7637
   79SOPE   H3X 7150   3.646   1.320   6.229  1.4434 -0.3016  0.5051
   79SOPE   H3Y 7151   3.547   1.172   6.246  0.9908 -1.4684 -0.2026
   79SOPE   C34 7152   3.734   1.155   6.144 -0.2052 -0.2040 -0.1232
   79SOPE   H4X 7153   3.841   1.181   6.163 -0.6834  1.5778  0.3198
   79SOPE   H4Y 7154   3.700   1.194   6.046 -1.5577  0.1581  0.4639
   79SOPE   C35 7155   3.729   1.003   6.128  0.1891 -0.2941 -1.2804
   79SOPE   H5X 7156   3.622   0.978   6.142  0.6192 -1.4386  0.2190
   79SOPE   H5Y 7157   3.779   0.945   6.209  0.1232 -1.7854 -2.2782
   79SOPE   C36 7158   3.784   0.956   5.996  0.1841 -0.5372 -0.4793
   79SOPE   H6X 7159   3.701   0.985   5.928  0.0102 -2.0054 -0.9317
   79SOPE   H6Y 7160   3.787   0.845   5.991 -0.2967 -0.7673  2.3812
   79SOPE   C37 7161   3.921   1.021   5.962  0.2200  0.6683  0.1340
   79SOPE   H7X 7162   3.987   0.982   6.043  0.9863  2.3750  0.3740
   79SOPE   H7Y 7163   3.931   1.131   5.974 -1.3793  0.8674 -0.0874
   79SOPE   C38 7164   3.970   0.992   5.818  0.2187  0.0369  0.5234
   79SOPE   H8X 7165   4.069   1.041   5.812 -0.6022  1.6638 -0.4680
   79SOPE   H8Y 7166   3.903   1.053   5.754 -0.4119  1.0053  2.0268
   79SOPE   C39 7167   3.970   0.843   5.761  0.1658 -0.4903 -0.7623
   79SOPE   H9X 7168   3.977   0.861   5.651 -0.3365  2.0997 -0.4479
   79SOPE   H9Y 7169   3.873   0.798   5.792  0.2059  0.3340  0.6470
   79SOPE  C310 7170   4.097   0.769   5.815 -0.3233  0.1938  0.6364
   79SOPE  H10X 7171   4.079   0.661   5.798 -0.8566  0.1784  1.2467
   79SOPE  H10Y 7172   4.114   0.795   5.922  0.4207 -1.3136  0.9162
   79SOPE  C311 7173   4.226   0.799   5.736 -0.3943  0.5402  0.0947
   79SOPE  H11X 7174   4.248   0.908   5.739 -0.0574  0.4756  0.0846
   79SOPE  H11Y 7175   4.201   0.766   5.633 -3.0973 -0.2607  0.9350
   79SOPE  C312 7176   4.347   0.712   5.790  0.0485  0.2587  0.7646
   79SOPE  H12X 7177   4.318   0.606   5.804 -0.8086  0.7963  3.6664
   79SOPE  H12Y 7178   4.374   0.754   5.889  0.4627 -0.9082  1.1605
   79SOPE  C313 7179   4.474   0.711   5.702  0.7422 -0.0310 -0.1365
   79SOPE  H13X 7180   4.478   0.807   5.647 -1.3274  0.5499  0.6595
   79SOPE  H13Y 7181   4.452   0.627   5.632 -1.6775 -0.4643  1.0524
   79SOPE  C314 7182   4.604   0.679   5.776  0.4263 -0.2017  0.3901
   79SOPE  H14X 7183   4.625   0.757   5.852  2.7184  1.1447 -1.4710
   79SOPE  H14Y 7184   4.692   0.695   5.711 -0.1996 -0.2840 -0.4952
   79SOPE  C315 7185   4.617   0.548   5.845 -0.2492  0.3333 -0.2542
   79SOPE  H15X 7186   4.682   0.481   5.784  0.0778  1.2632 -0.9593
   79SOPE  H15Y 7187   4.523   0.489   5.849 -0.4945  0.5391 -1.9991
   79SOPE  C316 7188   4.697   0.559   5.979  0.7036 -0.1768 -0.9813
   79SOPE  H16X 7189   4.782   0.629   5.968 -0.2902  1.1014 -0.7210
   79SOPE  H16Y 7190   4.741   0.460   6.005 -0.3070 -0.0790  1.3618
   79SOPE  C317 7191   4.602   0.612   6.080  0.3415  0.5428 -0.5616
   79SOPE  H17X 7192   4.513   0.550   6.057  0.9360  0.5899 -3.4421
   79SOPE  H17Y 7193   4.568   0.716   6.061 -2.9871 -0.1381  1.0463
   79SOPE  C318 7194   4.656   0.592   6.223 -0.6253 -0.3561  0.3141
   79SOPE  H18X 7195   4.754   0.637   6.249 -0.1368 -1.0025 -0.3909
   79SOPE  H18Y 7196   4.664   0.485   6.252 -1.9999 -0.3189  0.8931
   79SOPE  H18Z 7197   4.580   0.629   6.295 -0.0527  1.0389  0.2363
   80SOPE     N 7198   1.813   3.490   6.980 -0.8545  0.5528 -0.5098
   80SOPE   HN1 7199   1.812   3.430   6.895 -0.4863  0.2373 -0.2973
   80SOPE   HN2 7200   1.775   3.582   6.951 -0.0281  0.7835 -0.9142
   80SOPE   HN3 7201   1.914   3.500   7.001 -0.7355 -1.2174 -0.0774
   80SOPE   C12 7202   1.742   3.418   7.086  0.6019  0.0823 -0.1857
   80SOPE  H12A 7203   1.759   3.478   7.177  0.3236  0.8831 -0.6466
   80SOPE  H12B 7204   1.783   3.314   7.088  2.7912  0.8850 -0.3065
   80SOPE   C11 7205   1.592   3.414   7.051 -0.1486  0.2896 -0.5315
   80SOPE  H11A 7206   1.540   3.371   7.140 -0.5002 -0.3201 -1.0291
   80SOPE  H11B 7207   1.577   3.345   6.966 -0.5123 -0.5511  0.1986
   80SOPE     P 7208   1.406   3.572   6.958 -0.1559 -0.0302 -0.0868
   80SOPE   O13 7209   1.409   3.710   6.910 -0.5861 -0.0160  0.5872
   80SOPE   O14 7210   1.295   3.539   7.049  0.2545 -0.0166  0.1346
   80SOPE   O12 7211   1.543   3.546   7.038  0.2934  0.0020  0.0564
   80SOPE   O11 7212   1.412   3.467   6.842  0.1375  0.2943  0.5051
   80SOPE    C1 7213   1.492   3.480   6.726 -0.1320  0.8068  0.0327
   80SOPE    HA 7214   1.491   3.378   6.683 -0.7144  0.1767  1.4688
   80SOPE    HB 7215   1.601   3.495   6.741  0.2853 -2.0691  0.5376
   80SOPE    C2 7216   1.443   3.582   6.623 -0.1023 -0.3743 -0.1263
   80SOPE    HS 7217   1.400   3.668   6.679 -0.8063 -0.4991 -0.4628
   80SOPE   O21 7218   1.347   3.524   6.530 -0.1323  0.1579 -0.1450
   80SOPE   C21 7219   1.273   3.610   6.476  0.1789  0.0517  0.2800
   80SOPE   O22 7220   1.264   3.725   6.511  0.5151  0.0376  0.7729
   80SOPE   C22 7221   1.200   3.544   6.368  0.2155 -0.0131  0.3912
   80SOPE   H2R 7222   1.251   3.450   6.338 -1.2476 -0.1815 -1.7766
   80SOPE   H2S 7223   1.201   3.599   6.271 -2.6600  0.2124  0.4038
   80SOPE    C3 7224   1.566   3.647   6.549  0.1630  0.3640 -0.1021
   80SOPE    HX 7225   1.624   3.692   6.632  0.3601 -1.9074  1.0726
   80SOPE    HY 7226   1.529   3.727   6.481  0.8907  1.1682  0.4288
   80SOPE   O31 7227   1.649   3.549   6.485 -0.5529  0.3027  0.2336
   80SOPE   C31 7228   1.624   3.509   6.365 -0.5472 -0.0191 -0.5875
   80SOPE   O32 7229   1.531   3.549   6.298 -0.4059  0.2379  0.7510
   80SOPE   C32 7230   1.738   3.419   6.318 -0.5390 -0.4600  0.3155
   80SOPE   H2X 7231   1.697   3.319   6.293  1.3455 -0.5454 -2.8938
   80SOPE   H2Y 7232   1.801   3.394   6.406 -0.8561  0.8042  0.9211
   80SOPE   C23 7233   1.052   3.520   6.405 -1.0147 -0.3399  0.7700
   80SOPE   H3R 7234   1.006   3.598   6.469 -1.2198 -1.2594  1.7720
   80SOPE   H3S 7235   1.048   3.431   6.471 -0.5425 -1.5254 -0.7207
   80SOPE   C24 7236   0.957   3.496   6.283 -0.8282 -0.4491  0.0888
   80SOPE   H4R 7237   0.853   3.486   6.319  0.2160  2.6532  5.0195
   80SOPE   H4S 7238   0.959   3.586   6.217 -0.3154  1.9593  3.1302
   80SOPE   C25 7239   0.999   3.374   6.198 -0.5162 -0.2093  0.0102
   80SOPE   H5R 7240   1.108   3.372   6.180 -0.6355 -1.0714 -0.7168
   80SOPE   H5S 7241   0.984   3.275   6.245 -1.2954 -0.0837  0.0399
   80SOPE   C26 7242   0.932   3.385   6.055  0.4883  0.4632 -0.3950
   80SOPE   H6R 7243   0.825   3.406   6.073  0.4475 -0.5949  0.7387
   80SOPE   H6S 7244   0.969   3.481   6.013 -1.5974  0.9494 -1.2091
   80SOPE   C27 7245   0.953   3.260   5.963  0.0426 -0.1143 -0.1345
   80SOPE   H7R 7246   1.058   3.246   5.932 -0.4229 -0.7314 -1.5041
   80SOPE   H7S 7247   0.933   3.167   6.020 -2.0626  0.6870  0.5578
   80SOPE   C28 7248   0.858   3.270   5.836 -0.1474  0.3413  0.9952
   80SOPE   H8R 7249   0.871   3.180   5.772  0.9948  2.3127 -1.7531
   80SOPE   H8S 7250   0.757   3.286   5.879  0.1421  1.5482  1.2652
   80SOPE   C29 7251   0.913   3.378   5.754 -0.7187  0.3202  0.0088
   80SOPE   H91 7252   0.977   3.451   5.805  2.6937  0.0875 -3.5507
   80SOPE  C210 7253   0.898   3.397   5.626  0.7140  0.0978  0.7833
   80SOPE  H101 7254   0.943   3.488   5.582  1.9382 -0.7891  0.1425
   80SOPE  C211 7255   0.819   3.317   5.525 -0.3944  0.2899  0.0979
   80SOPE  H11R 7256   0.733   3.383   5.498 -0.6657  0.2421  0.8186
   80SOPE  H11S 7257   0.769   3.227   5.567 -0.5822  0.3302 -0.0361
   80SOPE  C212 7258   0.900   3.282   5.401  0.3709  0.0177 -0.3675
   80SOPE  H12R 7259   0.837   3.203   5.354  1.1172 -0.3066 -0.8369
   80SOPE  H12S 7260   1.000   3.235   5.409  0.5677 -0.0583 -2.6090
   80SOPE  C213 7261   0.906   3.404   5.304 -0.2921 -0.1513  0.3760
   80SOPE  H13R 7262   0.962   3.483   5.358  0.1438 -0.6342  0.6287
   80SOPE  H13S 7263   0.805   3.441   5.274  0.1382  0.4615 -0.3761
   80SOPE  C214 7264   0.988   3.392   5.173  0.6970 -0.7944  0.7396
   80SOPE  H14R 7265   1.090   3.353   5.194  0.5636 -0.9267  1.1410
   80SOPE  H14S 7266   0.988   3.497   5.138 -2.2886 -0.7586  0.5892
   80SOPE  C215 7267   0.912   3.308   5.071  0.1750  0.5282 -0.1693
   80SOPE  H15R 7268   0.805   3.338   5.076  0.2119  0.6541 -0.1398
   80SOPE  H15S 7269   0.928   3.201   5.097  2.1935  0.8562  0.0536
   80SOPE  C216 7270   0.963   3.323   4.932 -0.1377 -0.6215  0.4232
   80SOPE  H16R 7271   1.071   3.296   4.928 -0.5105 -2.0994 -0.5941
   80SOPE  H16S 7272   0.934   3.423   4.895 -3.2575 -1.1072  1.3015
   80SOPE  C217 7273   0.896   3.224   4.834 -0.1356  0.0817  0.3359
   80SOPE  H17R 7274   0.907   3.120   4.871  1.4226  0.3944  0.7864
   80SOPE  H17S 7275   0.943   3.223   4.734  0.4227 -0.8066  0.6016
   80SOPE  C218 7276   0.746   3.262   4.810  0.3875  0.2298  0.6374
   80SOPE  H18R 7277   0.730   3.364   4.770 -1.4080  0.4092  1.6910
   80SOPE  H18S 7278   0.692   3.278   4.906 -3.1894 -0.2535 -1.1369
   80SOPE  H18T 7279   0.698   3.180   4.752  0.3955  0.2082  0.6613
   80SOPE   C33 7280   1.823   3.483   6.208 -0.4987  0.0644 -0.1674
   80SOPE   H3X 7281   1.917   3.428   6.187  0.5660  0.8435  2.2287
   80SOPE   H3Y 7282   1.854   3.587   6.231  0.1942 -0.1271 -0.2211
   80SOPE   C34 7283   1.753   3.487   6.075 -0.3118 -0.2524  0.3580
   80SOPE   H4X 7284   1.656   3.539   6.091  0.0855  1.1181 -1.3971
   80SOPE   H4Y 7285   1.728   3.386   6.038  0.9551  0.6162 -3.2874
   80SOPE   C35 7286   1.842   3.547   5.962 -0.1226 -0.4531 -0.1607
   80SOPE   H5X 7287   1.937   3.495   5.938  0.5722  0.2494  1.0088
   80SOPE   H5Y 7288   1.864   3.648   6.000  1.6369 -1.9025  3.0288
   80SOPE   C36 7289   1.764   3.585   5.833  0.0884 -0.5582  0.2814
   80SOPE   H6X 7290   1.685   3.662   5.845 -0.4609 -1.2519  1.2585
   80SOPE   H6Y 7291   1.718   3.493   5.790 -0.9498  0.5561 -1.1066
   80SOPE   C37 7292   1.866   3.640   5.729 -0.2649 -0.0310 -0.0775
   80SOPE   H7X 7293   1.941   3.564   5.699 -1.2225  0.4777 -4.5307
   80SOPE   H7Y 7294   1.910   3.736   5.764  0.1230 -0.2606  0.0713
   80SOPE   C38 7295   1.805   3.672   5.587  0.2626  0.4988 -0.4198
   80SOPE   H8X 7296   1.718   3.737   5.610  1.4343  0.8751  3.7860
   80SOPE   H8Y 7297   1.772   3.575   5.545 -1.1160  0.9804 -0.5005
   80SOPE   C39 7298   1.907   3.743   5.491  0.4744  0.1404  0.3170
   80SOPE   H9X 7299   1.978   3.676   5.438 -1.3085  0.8208 -3.2423
   80SOPE   H9Y 7300   1.964   3.830   5.530  0.6753  0.4951 -0.7413
   80SOPE  C310 7301   1.830   3.789   5.362 -0.1161  0.4040  0.4445
   80SOPE  H10X 7302   1.752   3.857   5.402 -0.9587 -1.4597  2.1565
   80SOPE  H10Y 7303   1.786   3.708   5.299 -0.4634  0.3301  0.7805
   80SOPE  C311 7304   1.920   3.865   5.266 -0.0625 -0.7542  0.2881
   80SOPE  H11X 7305   1.971   3.791   5.200 -3.3975 -2.0648 -1.0111
   80SOPE  H11Y 7306   1.984   3.936   5.324 -1.3105  2.0761 -1.6057
   80SOPE  C312 7307   1.836   3.948   5.172  0.1177 -0.2161 -0.7573
   80SOPE  H12X 7308   1.764   4.012   5.228  0.6716 -1.3823  1.4129
   80SOPE  H12Y 7309   1.763   3.878   5.127 -2.4252  1.7590  0.0195
   80SOPE  C313 7310   1.910   4.020   5.061 -0.5564 -0.6670  0.4263
   80SOPE  H13X 7311   1.971   3.942   5.013  0.2891  0.0788  0.2619
   80SOPE  H13Y 7312   1.987   4.092   5.098  0.1438 -1.1064 -0.1486
   80SOPE  C314 7313   1.822   4.087   4.952 -0.5936 -0.8325  0.1324
   80SOPE  H14X 7314   1.763   4.170   4.996  1.1732  0.2996  0.4857
   80SOPE  H14Y 7315   1.739   4.023   4.917  0.3805 -1.3488 -1.3070
   80SOPE  C315 7316   1.909   4.129   4.829 -0.3394 -0.1609 -0.3869
   80SOPE  H15X 7317   2.015   4.141   4.859 -0.9986  1.9517  1.4362
   80SOPE  H15Y 7318   1.869   4.231   4.809  0.0774  0.2599  0.8602
   80SOPE  C316 7319   1.896   4.030   4.713  1.1996 -0.0203 -0.6302
   80SOPE  H16X 7320   1.788   4.029   4.683  0.4167 -0.6640  1.9698
   80SOPE  H16Y 7321   1.926   3.934   4.761  0.8114 -1.1510 -2.5043
   80SOPE  C317 7322   1.979   4.065   4.589  0.1332 -0.1569  0.5017
   80SOPE  H17X 7323   2.064   4.121   4.633  0.3087 -1.4112  1.8376
   80SOPE  H17Y 7324   1.941   4.141   4.518  2.0863  0.1348 -0.2927
   80SOPE  C318 7325   2.032   3.948   4.501 -0.2329 -0.4126  0.7266
   80SOPE  H18X 7326   1.953   3.881   4.460 -0.7714  0.4547  0.3252
   80SOPE  H18Y 7327   2.091   3.886   4.572 -0.6701  0.7474  2.1301
   80SOPE  H18Z 7328   2.102   3.982   4.421  0.8057 -2.7270  0.5452
   81SOPE     N 7329   4.663   1.859   6.787  0.6308  0.1079 -0.1295
   81SOPE   HN1 7330   4.583   1.925   6.800 -0.9790 -1.9891  1.1806
   81SOPE   HN2 7331   4.632   1.769   6.828  0.7593  0.0483 -0.1610
   81SOPE   HN3 7332   4.746   1.887   6.844  2.1324 -0.7479 -1.7995
   81SOPE   C12 7333   4.685   1.855   6.634  0.0160 -0.6120 -0.4052
   81SOPE  H12A 7334   4.716   1.959   6.614 -0.3550 -0.4833 -0.3260
   81SOPE  H12B 7335   4.586   1.843   6.585 -1.4894  3.4652  1.2357
   81SOPE   C11 7336   4.785   1.745   6.592  0.5417 -0.2254 -0.0577
   81SOPE  H11A 7337   4.879   1.758   6.649  1.6222  1.1904 -2.0057
   81SOPE  H11B 7338   4.811   1.757   6.484  3.8198  0.3838  0.7214
   81SOPE     P 7339   4.791   1.488   6.632 -0.1997 -0.5135 -0.1776
   81SOPE   O13 7340   4.688   1.389   6.656 -0.5057 -0.7889 -0.5301
   81SOPE   O14 7341   4.892   1.511   6.742  0.5359  0.3813  0.1578
   81SOPE   O12 7342   4.719   1.626   6.611  0.3806 -0.6284 -0.2398
   81SOPE   O11 7343   4.864   1.452   6.494  0.5878 -0.2274  0.4010
   81SOPE    C1 7344   4.887   1.323   6.452 -0.0971  0.4145 -0.1555
   81SOPE    HA 7345   4.851   1.255   6.531 -0.8004  0.5754 -0.3335
   81SOPE    HB 7346   4.997   1.307   6.441  0.0255  1.7297 -1.0203
   81SOPE    C2 7347   4.835   1.290   6.310 -0.2329  0.2185 -0.0948
   81SOPE    HS 7348   4.883   1.344   6.226 -3.1800 -0.0527 -2.0865
   81SOPE   O21 7349   4.692   1.316   6.320 -0.4876  0.2206 -0.4461
   81SOPE   C21 7350   4.650   1.421   6.269  0.7282 -0.2910 -0.1412
   81SOPE   O22 7351   4.705   1.489   6.183  0.4350  0.5804  0.2683
   81SOPE   C22 7352   4.512   1.453   6.332  0.1003 -0.2731 -0.5609
   81SOPE   H2R 7353   4.496   1.412   6.433 -0.3640 -0.6026 -0.7668
   81SOPE   H2S 7354   4.433   1.398   6.277  0.1541  1.1150 -2.1256
   81SOPE    C3 7355   4.860   1.138   6.275  0.5811  0.5054  0.3864
   81SOPE    HX 7356   4.824   1.071   6.356  0.8608  1.2137  1.0998
   81SOPE    HY 7357   4.970   1.125   6.270  0.5800  0.2902  0.9029
   81SOPE   O31 7358   4.786   1.104   6.149  0.1191  0.0942  0.2198
   81SOPE   C31 7359   4.839   1.158   6.038  0.3056 -0.7080  0.0608
   81SOPE   O32 7360   4.954   1.193   6.024 -0.2391  0.5061  0.0768
   81SOPE   C32 7361   4.740   1.153   5.924 -0.4414 -0.4752 -0.9194
   81SOPE   H2X 7362   4.671   1.239   5.938 -3.1797 -2.5747 -0.5068
   81SOPE   H2Y 7363   4.683   1.057   5.929  0.1883 -0.8123  3.0478
   81SOPE   C23 7364   4.476   1.606   6.343 -0.6245  0.2806  0.1156
   81SOPE   H3R 7365   4.532   1.667   6.269  2.6634  0.3339  2.4273
   81SOPE   H3S 7366   4.506   1.647   6.442 -0.4912 -0.8866  0.5802
   81SOPE   C24 7367   4.328   1.643   6.338  0.0626 -0.1083  0.0111
   81SOPE   H4R 7368   4.274   1.629   6.242 -1.2399  3.2042  0.1338
   81SOPE   H4S 7369   4.274   1.577   6.409 -0.1555 -0.6402 -0.6384
   81SOPE   C25 7370   4.313   1.793   6.380  0.5759  0.3272  0.1658
   81SOPE   H5R 7371   4.209   1.810   6.414  0.5388  0.7496 -0.1536
   81SOPE   H5S 7372   4.378   1.821   6.466  1.7878 -0.2800 -0.5255
   81SOPE   C26 7373   4.331   1.880   6.258 -0.2603 -0.3752  0.1518
   81SOPE   H6R 7374   4.433   1.861   6.216 -0.1978 -3.0180  1.3319
   81SOPE   H6S 7375   4.266   1.852   6.173 -1.8856 -1.6303  1.7473
   81SOPE   C27 7376   4.300   2.020   6.291  0.3976  0.6845  0.0315
   81SOPE   H7R 7377   4.196   2.036   6.328  0.6397  0.4341  0.8329
   81SOPE   H7S 7378   4.373   2.061   6.364  0.9344  2.1516 -1.2703
   81SOPE   C28 7379   4.315   2.103   6.159 -0.0042 -0.3467 -0.1804
   81SOPE   H8R 7380   4.402   2.063   6.103  0.0409 -0.3735 -0.0914
   81SOPE   H8S 7381   4.223   2.086   6.099  0.5563  0.6885 -1.3757
   81SOPE   C29 7382   4.332   2.248   6.193 -0.0303  0.2412  0.1557
   81SOPE   H91 7383   4.396   2.276   6.277 -0.2531 -0.6082  0.6220
   81SOPE  C210 7384   4.305   2.344   6.099  0.0260 -0.1091  0.0952
   81SOPE  H101 7385   4.326   2.450   6.121  3.2696 -0.2725 -1.6890
   81SOPE  C211 7386   4.241   2.315   5.964 -0.3770  0.0464 -0.0417
   81SOPE  H11R 7387   4.151   2.377   5.945 -2.5081 -1.2712  4.3930
   81SOPE  H11S 7388   4.189   2.217   5.959  0.0389 -0.1283 -1.4178
   81SOPE  C212 7389   4.327   2.324   5.843 -0.3178  0.4566 -0.5579
   81SOPE  H12R 7390   4.396   2.237   5.844  0.2674  0.9140 -0.6562
   81SOPE  H12S 7391   4.390   2.415   5.847  0.7056 -0.2649  1.9179
   81SOPE  C213 7392   4.243   2.324   5.707 -0.9269  0.5369 -0.4657
   81SOPE  H13R 7393   4.177   2.412   5.702 -1.3215  0.2286 -0.6907
   81SOPE  H13S 7394   4.196   2.226   5.686 -0.0498  0.5065 -2.4811
   81SOPE  C214 7395   4.339   2.361   5.586  0.2969  0.6601 -0.2957
   81SOPE  H14R 7396   4.404   2.273   5.568 -1.2532 -0.1385 -2.4569
   81SOPE  H14S 7397   4.395   2.451   5.618 -0.3123  0.4675  1.4186
   81SOPE  C215 7398   4.262   2.391   5.456  0.3041  0.1330 -0.3425
   81SOPE  H15R 7399   4.194   2.478   5.466 -1.3328 -0.8551 -2.1571
   81SOPE  H15S 7400   4.208   2.302   5.417 -0.7651  0.6097  0.0292
   81SOPE  C216 7401   4.371   2.424   5.351  0.4538  0.8144 -0.2922
   81SOPE  H16R 7402   4.444   2.340   5.345 -0.2257 -0.0678  2.1217
   81SOPE  H16S 7403   4.422   2.517   5.384 -0.3860  0.9581  0.6817
   81SOPE  C217 7404   4.308   2.444   5.209 -0.1429  0.1010  0.2302
   81SOPE  H17R 7405   4.230   2.523   5.210 -0.0827  0.2183 -1.4344
   81SOPE  H17S 7406   4.270   2.346   5.176  0.2999  0.5826 -1.8155
   81SOPE  C218 7407   4.415   2.491   5.110  0.2256 -0.1523 -0.4426
   81SOPE  H18R 7408   4.487   2.411   5.084 -2.1015 -1.7064 -2.5485
   81SOPE  H18S 7409   4.463   2.583   5.150 -1.1776 -0.6278  2.5716
   81SOPE  H18T 7410   4.363   2.513   5.014 -0.7021 -2.1804 -0.4466
   81SOPE   C33 7411   4.812   1.160   5.784 -0.3376  0.4570 -0.0391
   81SOPE   H3X 7412   4.865   1.063   5.773 -1.5137 -0.2715  0.6236
   81SOPE   H3Y 7413   4.892   1.237   5.778 -0.9794  1.1612  0.2580
   81SOPE   C34 7414   4.719   1.187   5.661  0.6745 -0.6277  0.6114
   81SOPE   H4X 7415   4.708   1.298   5.658  1.1139 -0.6004 -0.7685
   81SOPE   H4Y 7416   4.620   1.141   5.679  0.7959 -1.5748 -0.9422
   81SOPE   C35 7417   4.774   1.139   5.528  0.1207 -0.1623  0.2037
   81SOPE   H5X 7418   4.777   1.029   5.519 -0.5641 -0.1761  0.1676
   81SOPE   H5Y 7419   4.881   1.170   5.530  0.1007 -0.1131  0.5644
   81SOPE   C36 7420   4.708   1.216   5.409  0.3308  0.6100  0.0096
   81SOPE   H6X 7421   4.728   1.326   5.406  1.2364  0.5074  1.2670
   81SOPE   H6Y 7422   4.599   1.203   5.425  0.7937 -0.5197  2.8693
   81SOPE   C37 7423   4.757   1.160   5.275  0.7135 -0.4215 -0.3099
   81SOPE   H7X 7424   4.774   1.055   5.307 -1.3380 -1.0440 -1.0516
   81SOPE   H7Y 7425   4.855   1.197   5.239  0.8315  0.2704  0.6749
   81SOPE   C38 7426   4.660   1.174   5.160  0.1403 -0.1977  0.0116
   81SOPE   H8X 7427   4.644   1.280   5.128 -1.1624 -1.2496 -3.2572
   81SOPE   H8Y 7428   4.558   1.146   5.193  0.3708 -0.6331  0.3576
   81SOPE   C39 7429   4.718   1.094   5.037 -0.4756 -0.4956  0.6558
   81SOPE   H9X 7430   4.728   0.988   5.069 -0.8729 -0.2535  1.6146
   81SOPE   H9Y 7431   4.817   1.140   5.018 -0.3061 -1.1575 -0.0955
   81SOPE  C310 7432   4.636   1.088   4.906  0.0576  0.0327 -1.0116
   81SOPE  H10X 7433   4.713   1.058   4.832  0.2463  3.2153 -2.2487
   81SOPE  H10Y 7434   4.592   1.185   4.874  0.5235  0.3262 -0.7747
   81SOPE  C311 7435   4.514   0.990   4.922  0.2654  0.9067 -0.3624
   81SOPE  H11X 7436   4.463   1.019   5.016  0.8698  0.0511  0.2414
   81SOPE  H11Y 7437   4.554   0.891   4.950  0.4800  0.6242 -1.5903
   81SOPE  C312 7438   4.417   0.980   4.808 -0.4488 -0.1762  0.5343
   81SOPE  H12X 7439   4.469   0.942   4.717 -1.9860  0.7812 -0.8080
   81SOPE  H12Y 7440   4.369   1.074   4.774  0.9115  0.2035 -0.4008
   81SOPE  C313 7441   4.298   0.892   4.849  0.2709  0.2183  0.0478
   81SOPE  H13X 7442   4.251   0.941   4.936  1.4239  0.1957  0.7055
   81SOPE  H13Y 7443   4.337   0.790   4.870 -0.6675 -0.3624 -0.9481
   81SOPE  C314 7444   4.196   0.878   4.736 -0.5569 -0.0065  0.2884
   81SOPE  H14X 7445   4.251   0.827   4.653  0.7736 -0.3630  1.3488
   81SOPE  H14Y 7446   4.161   0.977   4.702  1.1047  0.6051  0.2908
   81SOPE  C315 7447   4.085   0.784   4.778  0.0283 -0.7242 -0.4978
   81SOPE  H15X 7448   4.036   0.825   4.868  0.8048 -0.3221 -0.2514
   81SOPE  H15Y 7449   4.126   0.686   4.810 -2.1830 -1.1304  1.3348
   81SOPE  C316 7450   3.971   0.778   4.676 -1.0557 -0.1739 -0.4725
   81SOPE  H16X 7451   3.969   0.874   4.621  0.5106  2.0050  2.9479
   81SOPE  H16Y 7452   3.869   0.770   4.720 -0.7787  0.4550  0.2975
   81SOPE  C317 7453   3.998   0.646   4.597  0.2628  0.4672 -0.1851
   81SOPE  H17X 7454   3.987   0.562   4.669  1.0519 -2.1061 -2.8731
   81SOPE  H17Y 7455   4.094   0.641   4.541  1.9654 -2.0645  2.7058
   81SOPE  C318 7456   3.879   0.619   4.504 -0.3659 -0.1424  0.4074
   81SOPE  H18X 7457   3.784   0.625   4.560 -0.9480 -0.1675 -0.5457
   81SOPE  H18Y 7458   3.893   0.519   4.457  5.0509  0.6475 -0.3595
   81SOPE  H18Z 7459   3.887   0.700   4.428  0.4849 -0.1433  0.4820
   82SOPE     N 7460   1.327   0.831   6.563 -0.5914  0.1535  0.6484
   82SOPE   HN1 7461   1.427   0.825   6.536 -1.1594 -3.5350 -1.1993
   82SOPE   HN2 7462   1.313   0.913   6.625  2.6474  1.9954 -0.8029
   82SOPE   HN3 7463   1.308   0.744   6.616 -1.9077  0.4119  0.6287
   82SOPE   C12 7464   1.256   0.849   6.437  0.6843 -0.1291  0.6066
   82SOPE  H12A 7465   1.224   0.955   6.436 -1.3894 -0.5735 -3.9454
   82SOPE  H12B 7466   1.166   0.784   6.437 -0.7665  1.7724  0.0006
   82SOPE   C11 7467   1.355   0.812   6.320 -0.4076 -0.6369  0.0968
   82SOPE  H11A 7468   1.452   0.866   6.316 -0.4248 -0.6663 -0.9534
   82SOPE  H11B 7469   1.297   0.841   6.230  0.1485 -2.3136 -0.8297
   82SOPE     P 7470   1.279   0.579   6.221  0.0749  0.0823  0.0650
   82SOPE   O13 7471   1.149   0.568   6.284 -0.5090  0.1431 -0.4248
   82SOPE   O14 7472   1.342   0.450   6.191  0.1474 -0.3426 -0.1620
   82SOPE   O12 7473   1.381   0.672   6.306 -0.4741  0.2902  0.0971
   82SOPE   O11 7474   1.259   0.666   6.088 -0.2062 -0.2568 -0.1284
   82SOPE    C1 7475   1.350   0.647   5.985  0.0680  0.7119  0.1622
   82SOPE    HA 7476   1.454   0.627   6.017 -0.4777  1.1350  2.3834
   82SOPE    HB 7477   1.361   0.738   5.922 -0.8971  0.0698 -0.9801
   82SOPE    C2 7478   1.300   0.538   5.879 -0.1661  0.0409 -0.3890
   82SOPE    HS 7479   1.307   0.439   5.929  0.9394  0.9854  1.4256
   82SOPE   O21 7480   1.374   0.542   5.757  0.1378  0.0965  0.4004
   82SOPE   C21 7481   1.496   0.493   5.770 -1.2268  0.0737 -0.4175
   82SOPE   O22 7482   1.541   0.430   5.865  0.0069 -0.4780 -0.5970
   82SOPE   C22 7483   1.579   0.510   5.645 -0.3232 -0.4197  0.2714
   82SOPE   H2R 7484   1.623   0.413   5.615  1.4616  0.2366  0.6429
   82SOPE   H2S 7485   1.669   0.573   5.663 -0.9423  0.0125  2.0476
   82SOPE    C3 7486   1.148   0.561   5.841  0.1472 -0.0273  0.0302
   82SOPE    HX 7487   1.134   0.633   5.758  1.8283 -1.5238 -1.6460
   82SOPE    HY 7488   1.095   0.598   5.932  0.3414  2.2024 -0.7139
   82SOPE   O31 7489   1.094   0.433   5.802  0.1543 -0.2510  0.6371
   82SOPE   C31 7490   0.962   0.431   5.772  0.3792  0.7107 -0.0212
   82SOPE   O32 7491   0.890   0.528   5.782 -0.0405 -0.4460  0.2144
   82SOPE   C32 7492   0.918   0.303   5.706  0.2756  0.3270 -0.2650
   82SOPE   H2X 7493   0.809   0.294   5.724  0.0481  1.6512 -0.8882
   82SOPE   H2Y 7494   0.970   0.216   5.752  2.1787  2.1294  1.1550
   82SOPE   C23 7495   1.510   0.561   5.513 -0.0961 -0.1958  0.1468
   82SOPE   H3R 7496   1.482   0.668   5.524 -1.8610 -0.3564 -2.0256
   82SOPE   H3S 7497   1.419   0.497   5.505 -1.0300  1.2156 -0.9027
   82SOPE   C24 7498   1.595   0.547   5.383  0.5412  0.5464  0.7370
   82SOPE   H4R 7499   1.690   0.601   5.406  0.0460  2.2949 -1.0397
   82SOPE   H4S 7500   1.632   0.446   5.355  0.5252  0.3625  1.3543
   82SOPE   C25 7501   1.540   0.636   5.263 -0.3058 -0.1382 -0.7065
   82SOPE   H5R 7502   1.440   0.602   5.230 -0.3631 -1.3753  0.6799
   82SOPE   H5S 7503   1.533   0.741   5.299  2.2480  0.3425 -1.4177
   82SOPE   C26 7504   1.634   0.628   5.143 -0.4725  0.1867 -0.8931
   82SOPE   H6R 7505   1.591   0.701   5.072 -1.3534 -0.8327 -1.4395
   82SOPE   H6S 7506   1.741   0.655   5.155 -0.5646  0.1891 -0.0175
   82SOPE   C27 7507   1.613   0.496   5.067 -0.5456  0.1587 -0.2267
   82SOPE   H7R 7508   1.660   0.415   5.127 -1.6565  1.0741  2.0029
   82SOPE   H7S 7509   1.506   0.468   5.055 -0.0613 -1.5954 -0.6847
   82SOPE   C28 7510   1.696   0.488   4.936  0.6910 -0.2320  0.2990
   82SOPE   H8R 7511   1.653   0.568   4.873 -0.9811 -1.9247 -0.7929
   82SOPE   H8S 7512   1.805   0.495   4.957  0.8995  0.8000 -0.9564
   82SOPE   C29 7513   1.656   0.359   4.877  0.0687  0.6724 -0.5813
   82SOPE   H91 7514   1.552   0.370   4.844  0.0108  0.4465 -0.4744
   82SOPE  C210 7515   1.732   0.250   4.848  0.2446  0.8839  0.2968
   82SOPE  H101 7516   1.680   0.164   4.803  0.1064 -0.2205  2.4394
   82SOPE  C211 7517   1.874   0.226   4.901 -0.0797  0.4935  0.5307
   82SOPE  H11R 7518   1.902   0.122   4.930  0.9354  1.1575  2.0444
   82SOPE  H11S 7519   1.894   0.278   4.997  0.6683  1.2370 -0.0143
   82SOPE  C212 7520   1.987   0.273   4.805 -0.1880 -0.1749  0.7440
   82SOPE  H12R 7521   2.081   0.264   4.864  0.8566 -2.2677 -1.0669
   82SOPE  H12S 7522   1.975   0.380   4.779  0.0700 -0.3083  0.0555
   82SOPE  C213 7523   2.008   0.193   4.672 -0.0821 -0.0776  0.1870
   82SOPE  H13R 7524   1.913   0.218   4.622  0.0677  1.3673  0.5959
   82SOPE  H13S 7525   2.019   0.083   4.689  1.2575  0.3739  2.7498
   82SOPE  C214 7526   2.131   0.245   4.598  1.3996 -0.1045 -0.2820
   82SOPE  H14R 7527   2.207   0.284   4.670 -1.4308  0.6900  2.4786
   82SOPE  H14S 7528   2.102   0.334   4.538  2.2924 -0.5589 -1.4417
   82SOPE  C215 7529   2.185   0.153   4.499  0.6245  0.1108  0.3833
   82SOPE  H15R 7530   2.192   0.050   4.541 -0.8945  1.1086  3.4700
   82SOPE  H15S 7531   2.285   0.176   4.457 -0.7453  3.6207 -1.3980
   82SOPE  C216 7532   2.087   0.118   4.381  0.3582 -0.8232 -1.0853
   82SOPE  H16R 7533   2.099   0.198   4.304  1.2379 -0.1213 -0.2536
   82SOPE  H16S 7534   1.986   0.130   4.426  0.8897  0.0695 -0.0704
   82SOPE  C217 7535   2.116  -0.016   4.323 -0.4117  0.1052 -0.2899
   82SOPE  H17R 7536   2.094  -0.091   4.402  1.3274  0.2741  0.3966
   82SOPE  H17S 7537   2.222  -0.027   4.291  0.0906 -0.1312  1.3480
   82SOPE  C218 7538   2.015  -0.060   4.214  0.0922 -0.0952 -0.4745
   82SOPE  H18R 7539   2.026  -0.001   4.121 -2.0789  2.0538  0.4925
   82SOPE  H18S 7540   1.909  -0.044   4.243  0.3985  3.0903 -0.6871
   82SOPE  H18T 7541   2.037  -0.162   4.178  0.4044  0.4871 -1.9944
   82SOPE   C33 7542   0.933   0.304   5.555  0.2114 -0.0761  0.2973
   82SOPE   H3X 7543   0.856   0.374   5.517 -0.9618 -3.3684 -4.3446
   82SOPE   H3Y 7544   0.911   0.200   5.523 -0.7350  0.9399 -2.6514
   82SOPE   C34 7545   1.069   0.348   5.501 -0.0898  0.2006 -0.5278
   82SOPE   H4X 7546   1.151   0.327   5.574 -0.4596  1.0152  0.1475
   82SOPE   H4Y 7547   1.076   0.459   5.498  0.0320  0.1818 -3.0405
   82SOPE   C35 7548   1.103   0.301   5.361 -0.1521 -0.0685  0.3227
   82SOPE   H5X 7549   1.023   0.336   5.292 -0.3124  1.1035  1.0873
   82SOPE   H5Y 7550   1.094   0.190   5.367 -0.7092 -0.1679 -1.6279
   82SOPE   C36 7551   1.238   0.340   5.306 -0.4823  0.4295 -0.1330
   82SOPE   H6X 7552   1.303   0.269   5.362 -0.8549 -1.0981 -1.5606
   82SOPE   H6Y 7553   1.270   0.443   5.332 -0.2412  0.7444 -1.5557
   82SOPE   C37 7554   1.248   0.328   5.152 -0.3866  0.1931  0.0215
   82SOPE   H7X 7555   1.200   0.235   5.117 -0.1921 -0.2423  0.8975
   82SOPE   H7Y 7556   1.356   0.316   5.129 -0.1166 -0.2291  1.4343
   82SOPE   C38 7557   1.194   0.456   5.090 -0.5225  0.3646  0.5549
   82SOPE   H8X 7558   1.272   0.530   5.118  0.2745 -0.0956 -0.3758
   82SOPE   H8Y 7559   1.093   0.468   5.135 -0.5579 -0.9457  0.8539
   82SOPE   C39 7560   1.166   0.460   4.937 -0.3104  0.0624 -0.7601
   82SOPE   H9X 7561   1.123   0.555   4.900 -0.3647 -0.3814 -1.8767
   82SOPE   H9Y 7562   1.091   0.378   4.930  0.6193 -1.0351  1.1635
   82SOPE  C310 7563   1.290   0.426   4.859 -0.4580  0.5320 -0.1605
   82SOPE  H10X 7564   1.318   0.320   4.874  0.2800  0.9875  2.1291
   82SOPE  H10Y 7565   1.374   0.489   4.895 -0.6074  0.1204  0.9469
   82SOPE  C311 7566   1.275   0.461   4.704  0.1500 -0.1912  0.1862
   82SOPE  H11X 7567   1.278   0.572   4.697 -1.1580 -0.1933 -0.5998
   82SOPE  H11Y 7568   1.170   0.448   4.673  0.2959 -0.1869 -0.3070
   82SOPE  C312 7569   1.371   0.390   4.610  0.3022  0.2154  0.0292
   82SOPE  H12X 7570   1.478   0.405   4.636  0.4913 -1.2243  0.1676
   82SOPE  H12Y 7571   1.356   0.447   4.516  0.0049  0.0351 -0.0319
   82SOPE  C313 7572   1.352   0.240   4.585  0.5742 -0.1151 -0.8354
   82SOPE  H13X 7573   1.243   0.221   4.576  1.0455 -2.6605 -1.9870
   82SOPE  H13Y 7574   1.384   0.180   4.673  1.2699 -0.6713 -1.4594
   82SOPE  C314 7575   1.417   0.186   4.454 -0.7906 -0.6453 -0.0802
   82SOPE  H14X 7576   1.377   0.083   4.449  0.6861 -1.2125 -1.0257
   82SOPE  H14Y 7577   1.528   0.180   4.459 -0.5472  2.0314 -0.5393
   82SOPE  C315 7578   1.364   0.276   4.334  0.0410  1.1617 -1.1617
   82SOPE  H15X 7579   1.431   0.364   4.328 -0.7237  1.8512  0.0507
   82SOPE  H15Y 7580   1.257   0.308   4.338 -1.0711 -2.2162 -0.5204
   82SOPE  C316 7581   1.369   0.189   4.204 -0.1205 -0.5242 -0.1078
   82SOPE  H16X 7582   1.318   0.092   4.218  0.4423 -0.7966  0.0948
   82SOPE  H16Y 7583   1.473   0.152   4.189 -0.7598 -1.5408 -2.4498
   82SOPE  C317 7584   1.323   0.274   4.090 -0.3814  0.2380  0.1810
   82SOPE  H17X 7585   1.212   0.283   4.090 -0.5713 -1.4759 -1.3721
   82SOPE  H17Y 7586   1.327   0.217   3.995 -1.4611  1.3044 -0.5364
   82SOPE  C318 7587   1.379   0.410   4.071 -0.6946 -0.3640  0.3604
   82SOPE  H18X 7588   1.484   0.408   4.035 -0.3011  1.5979  1.2094
   82SOPE  H18Y 7589   1.374   0.477   4.160  0.5429  0.5806 -0.2469
   82SOPE  H18Z 7590   1.328   0.465   3.989 -0.7030 -1.3246 -0.2903
   83SOPE     N 7591   1.240   2.256   1.844 -0.1939  0.0382 -0.1964
   83SOPE   HN1 7592   1.248   2.205   1.934  0.2288  0.4017 -0.0243
   83SOPE   HN2 7593   1.157   2.208   1.802 -0.5951  0.2449  0.3548
   83SOPE   HN3 7594   1.323   2.248   1.783  0.3034  0.7112  0.3749
   83SOPE   C12 7595   1.220   2.406   1.856  0.8584 -0.0957  0.4925
   83SOPE  H12A 7596   1.152   2.428   1.940  0.0512  0.6058 -0.3215
   83SOPE  H12B 7597   1.170   2.444   1.764  1.5013  1.0164  0.5816
   83SOPE   C11 7598   1.360   2.475   1.863  0.5306  0.1613  0.3056
   83SOPE  H11A 7599   1.433   2.413   1.919  0.5461  0.7626  0.9787
   83SOPE  H11B 7600   1.346   2.571   1.918 -0.3549  0.9980 -1.3006
   83SOPE     P 7601   1.368   2.633   1.665 -0.0022 -0.2100 -0.3717
   83SOPE   O13 7602   1.222   2.630   1.637 -0.4934  0.1458  0.0014
   83SOPE   O14 7603   1.449   2.668   1.548  0.1782 -0.1405  0.0497
   83SOPE   O12 7604   1.408   2.498   1.728 -0.2003 -0.3237 -0.0194
   83SOPE   O11 7605   1.404   2.740   1.782 -0.4222 -0.0477  0.2651
   83SOPE    C1 7606   1.520   2.829   1.776  0.3873  0.0612 -0.3694
   83SOPE    HA 7607   1.522   2.876   1.676 -0.9846 -1.4881 -1.1624
   83SOPE    HB 7608   1.621   2.783   1.787 -0.2671 -1.4937 -0.7033
   83SOPE    C2 7609   1.508   2.929   1.905 -0.7448  0.0813  0.2043
   83SOPE    HS 7610   1.607   2.978   1.918 -0.1040 -0.3759 -2.3545
   83SOPE   O21 7611   1.474   2.861   2.024 -0.1441  0.7089 -0.5097
   83SOPE   C21 7612   1.529   2.747   2.057 -0.3508 -0.0021  0.4268
   83SOPE   O22 7613   1.641   2.705   2.022  0.1259 -0.6207 -0.5275
   83SOPE   C22 7614   1.441   2.673   2.160 -0.5555 -0.2134 -0.9144
   83SOPE   H2R 7615   1.342   2.658   2.111 -0.1717  1.0196 -2.1334
   83SOPE   H2S 7616   1.417   2.753   2.234  1.6000  0.9684 -1.4050
   83SOPE    C3 7617   1.406   3.037   1.867 -0.2216 -0.1619  0.2820
   83SOPE    HX 7618   1.324   2.982   1.817  0.1828  0.1537 -0.7726
   83SOPE    HY 7619   1.459   3.098   1.790 -0.6416 -1.1360 -0.7884
   83SOPE   O31 7620   1.359   3.116   1.982  0.4466 -0.1155  0.4433
   83SOPE   C31 7621   1.260   3.074   2.047  0.3581  0.1743 -0.4896
   83SOPE   O32 7622   1.200   2.967   2.027  0.3005 -0.2531  0.3249
   83SOPE   C32 7623   1.212   3.172   2.156 -0.3993 -0.5221  0.5459
   83SOPE   H2X 7624   1.138   3.231   2.097 -1.6449 -2.1991  0.3757
   83SOPE   H2Y 7625   1.297   3.238   2.183  0.9582 -1.8415 -0.3740
   83SOPE   C23 7626   1.512   2.544   2.209 -0.1968 -0.5122 -0.1278
   83SOPE   H3R 7627   1.607   2.587   2.245  0.8798 -1.3404 -1.8573
   83SOPE   H3S 7628   1.533   2.473   2.126 -1.6051  0.3592 -1.2685
   83SOPE   C24 7629   1.447   2.481   2.329 -0.1489  0.5966 -0.2605
   83SOPE   H4R 7630   1.431   2.561   2.404 -3.0722  1.2774 -1.4617
   83SOPE   H4S 7631   1.352   2.429   2.303  0.1205 -0.0075 -0.0560
   83SOPE   C25 7632   1.525   2.377   2.414 -0.8093 -0.0612  0.6553
   83SOPE   H5R 7633   1.529   2.284   2.353  1.5689  1.2754 -1.4119
   83SOPE   H5S 7634   1.632   2.405   2.416 -0.5074 -0.7100 -2.0404
   83SOPE   C26 7635   1.476   2.352   2.552 -0.4794  0.6590 -0.7002
   83SOPE   H6R 7636   1.509   2.442   2.609  0.1622 -0.7601  1.2840
   83SOPE   H6S 7637   1.367   2.331   2.559 -0.1162 -1.2165 -0.0194
   83SOPE   C27 7638   1.541   2.229   2.630 -0.4984 -0.1612  0.1029
   83SOPE   H7R 7639   1.508   2.135   2.580  2.7337 -0.9223 -0.8510
   83SOPE   H7S 7640   1.648   2.241   2.606 -0.5099  0.2462  0.2544
   83SOPE   C28 7641   1.517   2.226   2.785 -0.1669 -0.3544  0.1614
   83SOPE   H8R 7642   1.409   2.247   2.794 -0.0952 -0.1514  0.5451
   83SOPE   H8S 7643   1.537   2.121   2.817  1.3637 -0.3465 -0.6593
   83SOPE   C29 7644   1.615   2.318   2.852  0.7698 -0.1352 -0.2822
   83SOPE   H91 7645   1.685   2.359   2.778  1.1291  0.1036  0.1859
   83SOPE  C210 7646   1.611   2.354   2.986  0.5091 -1.2283  0.1066
   83SOPE  H101 7647   1.683   2.426   3.028  0.6200 -0.9339 -0.5675
   83SOPE  C211 7648   1.515   2.307   3.091  0.5720  0.3609  0.2828
   83SOPE  H11R 7649   1.566   2.232   3.155 -0.4054  2.5389  3.8902
   83SOPE  H11S 7650   1.431   2.252   3.044  0.6301  1.6721 -1.4398
   83SOPE  C212 7651   1.464   2.417   3.181 -0.2409 -0.0038 -0.0921
   83SOPE  H12R 7652   1.401   2.482   3.116  1.3300  0.3142 -1.3435
   83SOPE  H12S 7653   1.555   2.474   3.209  2.9399 -3.4235 -2.4443
   83SOPE  C213 7654   1.376   2.366   3.301  0.0044  0.8805 -0.3362
   83SOPE  H13R 7655   1.283   2.319   3.263  0.1005  0.8314 -0.5089
   83SOPE  H13S 7656   1.341   2.455   3.358 -0.1938  0.4203  0.2812
   83SOPE  C214 7657   1.454   2.273   3.391  0.1963 -0.5709  0.4298
   83SOPE  H14R 7658   1.555   2.309   3.419 -0.4319  2.4647 -0.8480
   83SOPE  H14S 7659   1.460   2.174   3.341 -0.6106 -0.5043  0.1910
   83SOPE  C215 7660   1.378   2.248   3.522 -0.3109  0.3548 -0.7053
   83SOPE  H15R 7661   1.293   2.180   3.498  1.1122 -1.5995 -0.4629
   83SOPE  H15S 7662   1.324   2.339   3.553 -0.6397  0.3740 -1.3133
   83SOPE  C216 7663   1.461   2.168   3.630  0.9456  0.1469  0.1432
   83SOPE  H16R 7664   1.538   2.241   3.662 -0.1035  1.3117  0.0752
   83SOPE  H16S 7665   1.514   2.076   3.595 -0.8656 -1.7822  2.1880
   83SOPE  C217 7666   1.378   2.120   3.750  0.1545 -0.4583  0.2349
   83SOPE  H17R 7667   1.284   2.074   3.712  0.5585  0.3248 -1.8099
   83SOPE  H17S 7668   1.349   2.212   3.805 -1.2535 -1.3155  1.0003
   83SOPE  C218 7669   1.447   2.028   3.843  0.7875 -0.5867 -0.5193
   83SOPE  H18R 7670   1.557   2.044   3.839  1.0772 -2.6006 -1.9472
   83SOPE  H18S 7671   1.440   1.919   3.823  2.2927 -0.6172 -0.9944
   83SOPE  H18T 7672   1.419   2.046   3.950  0.9885  1.4715 -0.7643
   83SOPE   C33 7673   1.137   3.113   2.272  0.5583  0.0117  0.6281
   83SOPE   H3X 7674   1.069   3.028   2.249 -0.0794  1.0035 -1.4738
   83SOPE   H3Y 7675   1.061   3.186   2.308 -0.3786 -1.0391  0.8140
   83SOPE   C34 7676   1.227   3.073   2.396 -0.3402 -0.4447 -0.1678
   83SOPE   H4X 7677   1.297   3.157   2.414 -0.8004 -0.0623 -0.1486
   83SOPE   H4Y 7678   1.270   2.974   2.370  1.8762  0.2374  0.6676
   83SOPE   C35 7679   1.140   3.077   2.524 -0.3938  0.4509 -0.2405
   83SOPE   H5X 7680   1.074   2.988   2.512 -1.0479  0.8812  0.0920
   83SOPE   H5Y 7681   1.093   3.178   2.533  1.4223  1.4623 -1.3963
   83SOPE   C36 7682   1.230   3.052   2.644  0.4320 -0.0507 -0.5269
   83SOPE   H6X 7683   1.309   3.131   2.643  0.3589  0.0598 -3.2189
   83SOPE   H6Y 7684   1.286   2.958   2.626  2.6323  0.5552  2.3384
   83SOPE   C37 7685   1.152   3.048   2.771 -0.6301 -0.1793 -1.2352
   83SOPE   H7X 7686   1.101   2.951   2.790  0.7569 -0.4782  1.4171
   83SOPE   H7Y 7687   1.064   3.115   2.767 -2.6879 -2.5342  0.8552
   83SOPE   C38 7688   1.227   3.074   2.897  1.0645 -0.1711 -0.5367
   83SOPE   H8X 7689   1.294   3.161   2.879  1.4587 -0.2435  0.5280
   83SOPE   H8Y 7690   1.285   2.981   2.911 -2.9191 -2.7600  0.5859
   83SOPE   C39 7691   1.132   3.115   3.011  0.0379  0.4218 -0.4734
   83SOPE   H9X 7692   1.043   3.047   3.010  0.7359 -0.5333  0.1608
   83SOPE   H9Y 7693   1.092   3.217   2.997  1.7983  1.2425  0.2009
   83SOPE  C310 7694   1.187   3.097   3.159 -0.0584  0.1535  1.1575
   83SOPE  H10X 7695   1.268   3.172   3.175  0.8408 -1.0118  2.3584
   83SOPE  H10Y 7696   1.235   2.997   3.154 -1.9556 -0.7843  0.9706
   83SOPE  C311 7697   1.088   3.097   3.268  0.6393  0.1682 -0.3768
   83SOPE  H11X 7698   1.003   3.034   3.234  0.9644  0.1944 -1.2598
   83SOPE  H11Y 7699   1.046   3.199   3.282  2.2982  0.8848 -0.3448
   83SOPE  C312 7700   1.146   3.051   3.400  0.3663 -0.1335 -0.6027
   83SOPE  H12X 7701   1.248   3.090   3.415  1.8103 -3.1131 -1.7534
   83SOPE  H12Y 7702   1.168   2.942   3.402 -0.2473 -0.2576  0.5577
   83SOPE  C313 7703   1.049   3.090   3.518  0.2757  0.5315  0.3857
   83SOPE  H13X 7704   0.946   3.081   3.479  0.3421  0.2227  0.2746
   83SOPE  H13Y 7705   1.070   3.198   3.530  2.6683  0.3194 -1.1820
   83SOPE  C314 7706   1.076   3.015   3.646 -0.1397  0.3465  0.3354
   83SOPE  H14X 7707   1.176   3.044   3.685  1.0858  0.1960 -2.4040
   83SOPE  H14Y 7708   1.075   2.908   3.619  2.7683  0.8205 -2.3373
   83SOPE  C315 7709   0.975   3.054   3.758 -0.1700 -0.0731 -0.2927
   83SOPE  H15X 7710   0.871   3.042   3.722 -0.5009 -2.7495  1.2894
   83SOPE  H15Y 7711   1.002   3.158   3.786 -0.8805  0.5004 -1.6192
   83SOPE  C316 7712   0.996   2.959   3.876 -0.1114 -0.8271 -0.5666
   83SOPE  H16X 7713   1.103   2.970   3.904 -0.0150  0.1798 -1.2697
   83SOPE  H16Y 7714   0.973   2.853   3.851  0.3282 -1.1716  0.4297
   83SOPE  C317 7715   0.926   3.003   4.004  0.8783  0.3123  0.3078
   83SOPE  H17X 7716   0.899   3.110   3.986  0.2576  0.4157  1.7499
   83SOPE  H17Y 7717   0.995   3.000   4.090  0.1775 -1.3618  0.8580
   83SOPE  C318 7718   0.802   2.919   4.026 -0.7177 -0.4698  0.2580
   83SOPE  H18X 7719   0.840   2.815   4.036  1.0548  0.1307  0.1009
   83SOPE  H18Y 7720   0.722   2.931   3.950 -1.9013  0.6147  1.6261
   83SOPE  H18Z 7721   0.753   2.948   4.122 -0.3953  1.4779 -0.1299
   84SOPE     N 7722   0.634   1.153   2.208 -0.4289 -0.1485  0.1588
   84SOPE   HN1 7723   0.665   1.094   2.128 -0.4279 -0.6017  0.4936
   84SOPE   HN2 7724   0.640   1.252   2.177  0.5761 -0.2970 -0.1684
   84SOPE   HN3 7725   0.705   1.130   2.280  0.0260  2.0409  0.4981
   84SOPE   C12 7726   0.500   1.108   2.263  0.3079  0.6266  0.3581
   84SOPE  H12A 7727   0.431   1.079   2.181  0.8746 -2.0628  0.7404
   84SOPE  H12B 7728   0.469   1.193   2.327  1.0322  1.3539 -0.2203
   84SOPE   C11 7729   0.499   0.970   2.342  0.2177  0.3333  1.3667
   84SOPE  H11A 7730   0.397   0.957   2.382 -0.1023  1.2603  0.8949
   84SOPE  H11B 7731   0.574   0.969   2.424  2.4919 -1.7096 -0.5549
   84SOPE     P 7732   0.431   0.775   2.176  0.0613  0.1117 -0.2844
   84SOPE   O13 7733   0.495   0.644   2.160  0.5267 -0.4607 -0.1156
   84SOPE   O14 7734   0.394   0.835   2.047  0.0800 -0.7235  0.0990
   84SOPE   O12 7735   0.534   0.860   2.255  0.0711 -0.6738 -0.4640
   84SOPE   O11 7736   0.311   0.753   2.277 -0.2624 -0.6616  0.2631
   84SOPE    C1 7737   0.334   0.698   2.402  0.0145  0.0067  0.1450
   84SOPE    HA 7738   0.423   0.731   2.460 -1.7964  1.1563  2.4155
   84SOPE    HB 7739   0.333   0.587   2.394 -0.6176 -0.0003  0.2874
   84SOPE    C2 7740   0.222   0.746   2.494  0.1536 -0.1141  0.4060
   84SOPE    HS 7741   0.129   0.743   2.434  0.8479 -1.9733 -0.6654
   84SOPE   O21 7742   0.266   0.870   2.553 -0.0500 -0.1576  0.0948
   84SOPE   C21 7743   0.176   0.961   2.579 -0.7229 -0.2237  0.5834
   84SOPE   O22 7744   0.060   0.953   2.545  0.0398  0.4179 -0.1340
   84SOPE   C22 7745   0.230   1.068   2.664  1.1527  0.2597  0.2763
   84SOPE   H2R 7746   0.264   1.149   2.596  0.8172  0.3633  0.2309
   84SOPE   H2S 7747   0.315   1.027   2.722  0.8956 -0.4310  0.1824
   84SOPE    C3 7748   0.197   0.636   2.599 -0.1265  0.1427  0.2897
   84SOPE    HX 7749   0.300   0.629   2.640  1.2924  0.0236 -3.0086
   84SOPE    HY 7750   0.165   0.544   2.546  1.5049  1.1025 -2.5906
   84SOPE   O31 7751   0.107   0.685   2.699  0.3997 -1.0879 -0.5301
   84SOPE   C31 7752  -0.021   0.647   2.677 -0.0616 -0.0351  0.4397
   84SOPE   O32 7753  -0.064   0.588   2.581 -0.3400  0.1775 -0.1191
   84SOPE   C32 7754  -0.115   0.693   2.789  0.1385  0.8766  0.6138
   84SOPE   H2X 7755  -0.175   0.779   2.753 -0.1565  0.4918  0.1827
   84SOPE   H2Y 7756  -0.064   0.734   2.878  0.5608  2.2560 -0.2351
   84SOPE   C23 7757   0.135   1.145   2.754 -0.0453 -0.0836  0.1467
   84SOPE   H3R 7758   0.068   1.222   2.709 -0.4256 -0.3784  0.1999
   84SOPE   H3S 7759   0.203   1.205   2.818  1.6747 -0.6447 -1.1099
   84SOPE   C24 7760   0.065   1.051   2.850 -0.3317 -0.5401  0.2590
   84SOPE   H4R 7761   0.015   1.119   2.922  2.1039 -0.0051  1.5750
   84SOPE   H4S 7762  -0.010   0.986   2.799 -1.2263  1.6013 -1.2854
   84SOPE   C25 7763   0.163   0.966   2.938 -0.0858 -0.3156  0.2100
   84SOPE   H5R 7764   0.162   0.867   2.887  2.0486 -0.1562 -0.2149
   84SOPE   H5S 7765   0.265   1.011   2.934 -0.2830  0.0700 -0.6189
   84SOPE   C26 7766   0.114   0.942   3.086 -0.1056 -0.4937  0.3522
   84SOPE   H6R 7767   0.004   0.927   3.094 -0.0718 -0.1514  1.7728
   84SOPE   H6S 7768   0.173   0.859   3.129  0.8990  0.4446  0.8333
   84SOPE   C27 7769   0.160   1.055   3.187 -0.3194 -0.2108  0.6339
   84SOPE   H7R 7770   0.269   1.073   3.174  0.0537 -1.8581  1.1889
   84SOPE   H7S 7771   0.124   1.149   3.141 -0.0662 -0.2785  0.2851
   84SOPE   C28 7772   0.136   1.033   3.334 -0.4262  0.0137  0.3059
   84SOPE   H8R 7773   0.199   0.946   3.360 -0.8967 -0.6206 -0.6269
   84SOPE   H8S 7774   0.187   1.115   3.388  1.1283 -0.0454 -0.9919
   84SOPE   C29 7775  -0.003   1.019   3.381 -0.2719  0.4210  0.5434
   84SOPE   H91 7776  -0.067   1.109   3.376 -0.9438 -0.0429  0.5461
   84SOPE  C210 7777  -0.064   0.898   3.418  0.4696 -0.0620 -0.2267
   84SOPE  H101 7778  -0.172   0.895   3.438  0.4747 -0.4217 -0.2480
   84SOPE  C211 7779   0.003   0.764   3.419  0.0171  0.1172 -0.2875
   84SOPE  H11R 7780   0.098   0.765   3.362  1.4393 -3.8586  1.6222
   84SOPE  H11S 7781  -0.062   0.687   3.373 -1.4551 -0.7449  2.9201
   84SOPE  C212 7782   0.037   0.707   3.561 -0.5302 -0.0899 -0.3264
   84SOPE  H12R 7783   0.103   0.778   3.614  1.1886 -1.0348 -1.1000
   84SOPE  H12S 7784   0.097   0.613   3.566 -0.4831  0.0076  2.9897
   84SOPE  C213 7785  -0.082   0.682   3.650  0.4142  0.3969 -0.2530
   84SOPE  H13R 7786  -0.159   0.611   3.613 -0.7845  0.9764  1.0730
   84SOPE  H13S 7787  -0.140   0.776   3.656  1.5435  1.1663 -0.9350
   84SOPE  C214 7788  -0.054   0.653   3.790  0.0315 -0.7166 -0.7006
   84SOPE  H14R 7789  -0.149   0.669   3.846  0.7149 -2.5551  1.1031
   84SOPE  H14S 7790   0.030   0.715   3.829 -1.2980  0.8881 -0.2451
   84SOPE  C215 7791  -0.029   0.509   3.813 -0.3818  0.7360  0.4000
   84SOPE  H15R 7792   0.059   0.470   3.758  0.0388  3.2005 -0.7909
   84SOPE  H15S 7793  -0.112   0.451   3.767  0.1031  3.3116 -4.3267
   84SOPE  C216 7794  -0.019   0.475   3.971 -0.1206  0.0065  0.4679
   84SOPE  H16R 7795  -0.116   0.504   4.017 -0.6803 -0.4829 -0.3844
   84SOPE  H16S 7796   0.065   0.531   4.017  0.5645  1.1888 -2.0190
   84SOPE  C217 7797  -0.011   0.324   3.989  0.0997  0.1422 -0.2035
   84SOPE  H17R 7798  -0.085   0.278   3.920  0.7581 -0.8282 -0.2669
   84SOPE  H17S 7799  -0.049   0.301   4.091 -2.2720  2.2623 -0.4898
   84SOPE  C218 7800   0.130   0.267   3.959  0.0372 -0.3974 -0.3497
   84SOPE  H18R 7801   0.118   0.161   3.988  0.2982 -1.6483 -4.2088
   84SOPE  H18S 7802   0.198   0.332   4.018  0.9744  0.7833 -2.5959
   84SOPE  H18T 7803   0.172   0.278   3.857  1.0774  4.2057  0.3210
   84SOPE   C33 7804  -0.217   0.583   2.831 -0.3425  0.4043  0.5258
   84SOPE   H3X 7805  -0.178   0.493   2.882 -0.0896  1.2261  1.8183
   84SOPE   H3Y 7806  -0.267   0.548   2.737  3.1267 -3.8610 -0.0513
   84SOPE   C34 7807  -0.330   0.640   2.920  0.1951 -0.5870  0.5137
   84SOPE   H4X 7808  -0.378   0.732   2.880 -0.3224 -0.2837  1.7875
   84SOPE   H4Y 7809  -0.280   0.681   3.010 -1.3941  0.7438  0.8357
   84SOPE   C35 7810  -0.442   0.543   2.952 -0.6806  0.6077  0.1276
   84SOPE   H5X 7811  -0.395   0.449   2.988 -0.7676  1.2171  1.9187
   84SOPE   H5Y 7812  -0.510   0.518   2.868 -1.4070  1.0776  0.5644
   84SOPE   C36 7813  -0.533   0.615   3.057 -0.2448 -0.3989 -0.1003
   84SOPE   H6X 7814  -0.633   0.568   3.050 -0.7779  0.8735 -1.4426
   84SOPE   H6Y 7815  -0.539   0.723   3.033  0.0485 -0.0657  1.2220
   84SOPE   C37 7816  -0.476   0.593   3.198 -0.9557  0.0339 -0.3491
   84SOPE   H7X 7817  -0.399   0.672   3.216 -1.5059  0.0118  2.7317
   84SOPE   H7Y 7818  -0.426   0.494   3.208 -0.2035  0.3927 -0.4848
   84SOPE   C38 7819  -0.574   0.589   3.314 -0.0971  0.3713 -0.9532
   84SOPE   H8X 7820  -0.648   0.507   3.302  0.1038  0.3281 -2.0694
   84SOPE   H8Y 7821  -0.636   0.681   3.304 -0.5501  0.2382  0.4798
   84SOPE   C39 7822  -0.509   0.566   3.449 -1.1002 -0.7413  0.0494
   84SOPE   H9X 7823  -0.439   0.647   3.480 -1.8605  0.0476 -0.2320
   84SOPE   H9Y 7824  -0.447   0.475   3.437 -0.4200 -0.5290  1.6253
   84SOPE  C310 7825  -0.622   0.558   3.554  0.2158 -0.4429 -0.2624
   84SOPE  H10X 7826  -0.713   0.501   3.522 -1.4560  0.9444  1.7354
   84SOPE  H10Y 7827  -0.645   0.666   3.560  1.9109 -0.0457 -0.5317
   84SOPE  C311 7828  -0.584   0.495   3.691  0.3284  0.1643 -0.5009
   84SOPE  H11X 7829  -0.476   0.503   3.717 -0.4933 -1.5902  4.6531
   84SOPE  H11Y 7830  -0.597   0.386   3.679  2.7387 -0.2141 -0.2801
   84SOPE  C312 7831  -0.674   0.533   3.806 -0.2460 -0.2172  0.1542
   84SOPE  H12X 7832  -0.783   0.524   3.785 -0.1036  0.4334 -0.9239
   84SOPE  H12Y 7833  -0.659   0.637   3.841  3.2353 -1.5853  3.3897
   84SOPE  C313 7834  -0.647   0.455   3.935  0.0115 -0.2466 -0.5487
   84SOPE  H13X 7835  -0.673   0.347   3.926  1.1891 -0.7493  1.4164
   84SOPE  H13Y 7836  -0.708   0.505   4.013  0.3871 -0.2112 -0.2763
   84SOPE  C314 7837  -0.503   0.457   3.993  0.1551 -0.3131 -0.3384
   84SOPE  H14X 7838  -0.455   0.552   3.964 -1.7453  0.9792  0.5540
   84SOPE  H14Y 7839  -0.451   0.377   3.935  0.2334 -1.1443  0.8417
   84SOPE  C315 7840  -0.495   0.454   4.147 -0.1502 -0.9295 -0.1972
   84SOPE  H15X 7841  -0.580   0.423   4.212  1.2834 -0.8213  1.8291
   84SOPE  H15Y 7842  -0.484   0.560   4.181 -1.0676 -1.0687  0.5890
   84SOPE  C316 7843  -0.377   0.372   4.202  0.2157 -0.2052 -0.4326
   84SOPE  H16X 7844  -0.293   0.364   4.130  0.6625 -2.7558  0.2707
   84SOPE  H16Y 7845  -0.414   0.267   4.203  2.1266 -0.8999  0.1735
   84SOPE  C317 7846  -0.331   0.416   4.344 -0.2227 -0.3887 -0.2788
   84SOPE  H17X 7847  -0.420   0.412   4.411 -0.3781 -2.8275 -0.5504
   84SOPE  H17Y 7848  -0.300   0.522   4.337 -0.4873 -0.3266 -0.5123
   84SOPE  C318 7849  -0.226   0.319   4.395 -0.1963 -0.4992 -0.5634
   84SOPE  H18X 7850  -0.192   0.326   4.501 -0.0056 -3.3056 -0.3563
   84SOPE  H18Y 7851  -0.142   0.332   4.324  1.1325  2.3361  1.3588
   84SOPE  H18Z 7852  -0.264   0.214   4.389  0.5384 -0.8467  0.5013
   85SOPE     N 7853   4.899   3.955   2.017  0.0680  0.6407 -0.0093
   85SOPE   HN1 7854   4.973   3.883   2.033 -1.1565 -0.8964 -0.9231
   85SOPE   HN2 7855   4.835   3.924   1.941  0.9831 -0.5881 -0.3227
   85SOPE   HN3 7856   4.938   4.050   2.004 -0.5923  1.2659  2.1200
   85SOPE   C12 7857   4.816   3.961   2.145 -0.0756  0.6817  0.7398
   85SOPE  H12A 7858   4.774   3.859   2.159  1.6910 -0.5198 -1.7421
   85SOPE  H12B 7859   4.733   4.034   2.134 -1.1426 -0.5790  0.0494
   85SOPE   C11 7860   4.913   3.994   2.264  0.6984  0.2031 -0.1492
   85SOPE  H11A 7861   4.978   3.908   2.290 -0.7898 -0.7043  0.6683
   85SOPE  H11B 7862   4.850   4.008   2.353 -1.3773 -2.8311 -0.9975
   85SOPE     P 7863   5.106   4.154   2.315 -0.1622 -0.3775  0.0066
   85SOPE   O13 7864   5.171   4.280   2.271 -0.3991 -0.5674  0.0515
   85SOPE   O14 7865   5.189   4.030   2.346  0.5171 -0.1238  0.1212
   85SOPE   O12 7866   4.989   4.114   2.222 -0.0010  0.0881 -0.0303
   85SOPE   O11 7867   5.036   4.180   2.457  0.6259  0.2786  0.4147
   85SOPE    C1 7868   4.941   4.283   2.463 -0.2592  0.2018  0.2757
   85SOPE    HA 7869   4.847   4.248   2.416  1.6283 -1.1278 -2.8564
   85SOPE    HB 7870   4.975   4.375   2.410  1.4317 -2.1089 -3.0580
   85SOPE    C2 7871   4.907   4.322   2.612  0.0543 -0.4066 -0.1531
   85SOPE    HS 7872   4.821   4.393   2.615  0.5019  0.1275  0.4591
   85SOPE   O21 7873   5.023   4.380   2.677  0.4869 -0.0477 -0.1742
   85SOPE   C21 7874   5.054   4.501   2.640 -0.0988  0.4534  1.2540
   85SOPE   O22 7875   4.975   4.591   2.605 -0.1294 -0.1312  0.0096
   85SOPE   C22 7876   5.199   4.534   2.662 -0.2016  0.0557  0.3522
   85SOPE   H2R 7877   5.207   4.638   2.624  2.2099  0.0659  0.7085
   85SOPE   H2S 7878   5.262   4.467   2.599  0.1871  0.6749  0.0705
   85SOPE    C3 7879   4.862   4.204   2.707 -0.0904  0.2546  0.9446
   85SOPE    HX 7880   4.932   4.121   2.685 -2.7320 -1.6316 -1.0970
   85SOPE    HY 7881   4.763   4.175   2.664  0.8788  1.1172 -2.1138
   85SOPE   O31 7882   4.838   4.244   2.844 -0.4043 -0.5306  0.4639
   85SOPE   C31 7883   4.943   4.225   2.927  0.0362  0.2773 -0.4142
   85SOPE   O32 7884   5.048   4.175   2.898 -0.2567 -0.4053  0.1257
   85SOPE   C32 7885   4.921   4.286   3.064 -0.0770 -0.2586 -0.8848
   85SOPE   H2X 7886   4.813   4.283   3.087  0.1206 -0.9537  0.0186
   85SOPE   H2Y 7887   4.950   4.393   3.067  1.5688 -0.6851 -0.2152
   85SOPE   C23 7888   5.238   4.543   2.805  0.2774  0.1318 -0.7974
   85SOPE   H3R 7889   5.214   4.451   2.862 -0.0973  0.5402 -0.2814
   85SOPE   H3S 7890   5.178   4.625   2.850  0.8072 -0.6028  1.3666
   85SOPE   C24 7891   5.388   4.565   2.813 -0.3688  0.4856  0.0610
   85SOPE   H4R 7892   5.442   4.491   2.750 -1.3123 -0.9897  0.9034
   85SOPE   H4S 7893   5.399   4.665   2.768 -1.3556  0.5267 -0.1012
   85SOPE   C25 7894   5.443   4.573   2.951 -0.6243 -0.0054  0.6134
   85SOPE   H5R 7895   5.549   4.600   2.971 -0.7534 -0.8986  2.7306
   85SOPE   H5S 7896   5.393   4.656   3.004 -0.8589  0.9494 -1.0308
   85SOPE   C26 7897   5.421   4.447   3.038 -0.1299  0.3520 -0.4435
   85SOPE   H6R 7898   5.317   4.441   3.076  0.1643  0.9900  0.4798
   85SOPE   H6S 7899   5.424   4.356   2.975 -3.9408  0.2001 -0.6146
   85SOPE   C27 7900   5.510   4.425   3.164  0.2279 -0.4808  0.0092
   85SOPE   H7R 7901   5.487   4.328   3.213  0.3924 -1.1037 -1.1126
   85SOPE   H7S 7902   5.614   4.425   3.124 -0.0253  0.8011 -0.7093
   85SOPE   C28 7903   5.510   4.538   3.260 -0.1804 -0.2585  0.3439
   85SOPE   H8R 7904   5.570   4.510   3.349  1.0984 -0.4117 -0.5370
   85SOPE   H8S 7905   5.571   4.617   3.210  0.4800 -1.0376 -0.0918
   85SOPE   C29 7906   5.372   4.589   3.291  0.4970 -0.0462 -0.8569
   85SOPE   H91 7907   5.319   4.642   3.210 -0.3725 -0.3494 -0.4966
   85SOPE  C210 7908   5.313   4.569   3.413 -0.2559 -0.2144  0.6337
   85SOPE  H101 7909   5.219   4.621   3.438 -0.0197  0.7094 -0.2916
   85SOPE  C211 7910   5.379   4.491   3.522 -0.0348 -0.5089 -0.7100
   85SOPE  H11R 7911   5.451   4.415   3.484 -1.0975 -0.2697 -3.4434
   85SOPE  H11S 7912   5.297   4.442   3.580  0.4415 -2.0369 -1.2676
   85SOPE  C212 7913   5.436   4.587   3.639  0.2663  0.2078  0.2346
   85SOPE  H12R 7914   5.358   4.658   3.671  0.8840  0.7778  0.4860
   85SOPE  H12S 7915   5.523   4.636   3.591  0.8157 -0.1655  0.8351
   85SOPE  C213 7916   5.487   4.516   3.762 -0.3709  0.5083 -0.2086
   85SOPE  H13R 7917   5.591   4.476   3.756  0.1024  1.5874  0.4150
   85SOPE  H13S 7918   5.413   4.435   3.779 -0.9856  0.7428 -1.6465
   85SOPE  C214 7919   5.485   4.606   3.890  0.2345  0.5527  0.2634
   85SOPE  H14R 7920   5.377   4.620   3.913  1.0264  1.9942  3.8847
   85SOPE  H14S 7921   5.531   4.706   3.874  1.4527  0.0413  0.4886
   85SOPE  C215 7922   5.568   4.546   4.008 -0.0537 -0.5922  1.2861
   85SOPE  H15R 7923   5.670   4.541   3.964 -1.3109 -1.7690 -1.8485
   85SOPE  H15S 7924   5.532   4.443   4.027  0.4228 -1.4363 -1.8088
   85SOPE  C216 7925   5.551   4.634   4.135  0.2143  0.6745 -0.5910
   85SOPE  H16R 7926   5.444   4.636   4.163  0.6056  1.1137  0.9579
   85SOPE  H16S 7927   5.576   4.741   4.119  2.6139  0.3752  0.5963
   85SOPE  C217 7928   5.636   4.586   4.256 -0.3124  0.8146  0.0922
   85SOPE  H17R 7929   5.626   4.475   4.252 -1.5098  0.9320 -0.8612
   85SOPE  H17S 7930   5.584   4.616   4.349  0.5930 -0.1893  0.9496
   85SOPE  C218 7931   5.780   4.641   4.245  0.1646 -0.6417 -0.2087
   85SOPE  H18R 7932   5.839   4.590   4.324 -1.1612  0.4443  1.5608
   85SOPE  H18S 7933   5.774   4.748   4.273 -3.1460 -0.2998 -1.7866
   85SOPE  H18T 7934   5.828   4.624   4.146  4.1662  0.4813  1.3387
   85SOPE   C33 7935   5.007   4.223   3.175 -0.1433 -0.1989 -0.5450
   85SOPE   H3X 7936   5.111   4.256   3.154 -0.5362  1.0324 -0.6459
   85SOPE   H3Y 7937   5.003   4.113   3.164 -0.8983 -0.5339  2.2665
   85SOPE   C34 7938   4.948   4.263   3.315  0.0172 -0.0135 -0.2061
   85SOPE   H4X 7939   4.855   4.206   3.339 -3.0674  4.8185  0.8157
   85SOPE   H4Y 7940   4.924   4.371   3.307  0.6575  0.0523 -1.5171
   85SOPE   C35 7941   5.059   4.253   3.422 -0.8050  0.2450  0.3170
   85SOPE   H5X 7942   5.139   4.318   3.379 -1.5683  0.8637 -0.2046
   85SOPE   H5Y 7943   5.088   4.147   3.413 -0.7070  0.4443 -2.9407
   85SOPE   C36 7944   5.028   4.310   3.558 -1.0635  0.0674 -0.0793
   85SOPE   H6X 7945   4.940   4.378   3.556 -2.7164 -1.9864  0.2941
   85SOPE   H6Y 7946   5.119   4.360   3.598  0.0037 -0.0445 -2.2368
   85SOPE   C37 7947   4.989   4.203   3.667 -0.1430 -0.2594  0.5249
   85SOPE   H7X 7948   5.069   4.145   3.719  0.9860  1.1467  0.4089
   85SOPE   H7Y 7949   4.932   4.121   3.619 -0.7451  0.8442 -0.7028
   85SOPE   C38 7950   4.903   4.256   3.782  0.2443 -0.0249  0.0765
   85SOPE   H8X 7951   4.901   4.175   3.857  0.1524 -0.1203 -0.0273
   85SOPE   H8Y 7952   4.798   4.284   3.756 -0.0364  0.1025  1.2774
   85SOPE   C39 7953   4.971   4.375   3.859  0.1871  0.6506 -0.0886
   85SOPE   H9X 7954   4.885   4.420   3.914  0.5417  1.2077  0.0132
   85SOPE   H9Y 7955   5.003   4.454   3.789 -0.8281  1.0068 -0.1762
   85SOPE  C310 7956   5.079   4.336   3.962 -0.3431  0.2614  0.1034
   85SOPE  H10X 7957   5.168   4.283   3.923  0.3756  2.2694 -1.1642
   85SOPE  H10Y 7958   5.024   4.274   4.035  0.4825  0.0069  0.5175
   85SOPE  C311 7959   5.127   4.452   4.052 -0.0503  0.1289 -0.1175
   85SOPE  H11X 7960   5.032   4.507   4.066 -1.3524 -2.1346  0.5548
   85SOPE  H11Y 7961   5.201   4.522   4.008  0.4584 -0.5714 -0.3892
   85SOPE  C312 7962   5.185   4.408   4.188 -0.1895 -0.4024 -0.0922
   85SOPE  H12X 7963   5.289   4.373   4.169  0.9308  2.2169  0.7045
   85SOPE  H12Y 7964   5.125   4.329   4.238 -3.5508  2.1039  0.1412
   85SOPE  C313 7965   5.197   4.534   4.277  0.3770  0.5811 -0.1164
   85SOPE  H13X 7966   5.090   4.562   4.287  0.7537  2.2492 -0.5430
   85SOPE  H13Y 7967   5.241   4.618   4.220 -1.5337  1.2916 -0.6182
   85SOPE  C314 7968   5.263   4.503   4.413 -0.3946 -0.2264  0.3147
   85SOPE  H14X 7969   5.373   4.502   4.402 -0.5417  1.3678 -2.0873
   85SOPE  H14Y 7970   5.254   4.396   4.444 -0.1365 -0.4391 -0.3133
   85SOPE  C315 7971   5.217   4.587   4.528 -0.3720  0.1078  0.5419
   85SOPE  H15X 7972   5.280   4.564   4.616  0.3062 -0.2135 -0.0166
   85SOPE  H15Y 7973   5.114   4.555   4.555 -1.1324  1.1677 -0.9670
   85SOPE  C316 7974   5.244   4.734   4.504 -0.7565  0.5241 -0.2296
   85SOPE  H16X 7975   5.210   4.751   4.400  1.0470 -0.1425 -0.9809
   85SOPE  H16Y 7976   5.353   4.753   4.513 -0.3704 -0.6983 -1.8379
   85SOPE  C317 7977   5.170   4.832   4.592 -0.2470  0.6694  0.1397
   85SOPE  H17X 7978   5.061   4.819   4.579 -0.1902  0.9337 -0.6268
   85SOPE  H17Y 7979   5.199   4.937   4.569  0.2780  0.5297  0.1357
   85SOPE  C318 7980   5.199   4.818   4.739 -0.4387 -0.1333 -0.2625
   85SOPE  H18X 7981   5.130   4.883   4.796  0.0821  0.2780 -0.0922
   85SOPE  H18Y 7982   5.305   4.845   4.757  0.5618 -1.8597 -2.9254
   85SOPE  H18Z 7983   5.177   4.716   4.777  0.1980 -0.8998 -1.8732
   86SOPE     N 7984   4.594   1.573   2.673  0.0292 -0.2208  0.0285
   86SOPE   HN1 7985   4.563   1.492   2.729 -0.3068 -0.8972 -1.1034
   86SOPE   HN2 7986   4.510   1.636   2.671 -0.7287 -1.1396  1.3489
   86SOPE   HN3 7987   4.613   1.551   2.573  1.0253  1.1095 -0.1066
   86SOPE   C12 7988   4.711   1.650   2.726 -0.5377 -0.4778  0.2332
   86SOPE  H12A 7989   4.671   1.685   2.824  1.5041  0.8178  0.6598
   86SOPE  H12B 7990   4.739   1.732   2.657 -1.1956  0.9050  1.5296
   86SOPE   C11 7991   4.826   1.558   2.745 -0.1944 -0.2977 -0.3306
   86SOPE  H11A 7992   4.809   1.481   2.824 -1.3214 -1.3414 -1.5431
   86SOPE  H11B 7993   4.910   1.619   2.784 -1.5905  3.2505 -2.4047
   86SOPE     P 7994   4.946   1.548   2.520  0.3349  0.1044 -0.0940
   86SOPE   O13 7995   4.955   1.691   2.540  0.2072  0.2333  0.4784
   86SOPE   O14 7996   4.896   1.512   2.383  0.0762  0.0508 -0.1811
   86SOPE   O12 7997   4.853   1.481   2.626  0.1356 -0.2916  0.0474
   86SOPE   O11 7998   5.089   1.481   2.537 -0.1543  0.2142 -0.4947
   86SOPE    C1 7999   5.113   1.346   2.547 -0.6758  0.5585  0.7767
   86SOPE    HA 8000   5.216   1.318   2.515 -1.9098  0.1340 -3.4859
   86SOPE    HB 8001   5.039   1.285   2.492 -0.9508 -0.0786  1.8259
   86SOPE    C2 8002   5.130   1.306   2.697  0.6346  0.4244  0.3510
   86SOPE    HS 8003   5.026   1.317   2.736  0.4317 -1.6795  0.5288
   86SOPE   O21 8004   5.225   1.383   2.774 -0.5252 -0.0719  0.2572
   86SOPE   C21 8005   5.183   1.461   2.872 -0.1220 -1.0078 -0.5536
   86SOPE   O22 8006   5.073   1.468   2.921 -0.0905  0.1584 -0.2157
   86SOPE   C22 8007   5.302   1.551   2.916 -0.3614  0.1308  0.1381
   86SOPE   H2R 8008   5.270   1.653   2.886  1.0614  0.5447 -0.0282
   86SOPE   H2S 8009   5.393   1.516   2.864  0.0339 -0.3858  1.1550
   86SOPE    C3 8010   5.178   1.159   2.719 -0.4818 -0.2221 -0.5424
   86SOPE    HX 8011   5.286   1.155   2.693 -0.7869 -0.1018 -1.8947
   86SOPE    HY 8012   5.133   1.090   2.644  0.8095 -0.8910 -0.7437
   86SOPE   O31 8013   5.170   1.113   2.854 -0.2343  0.8469  0.5069
   86SOPE   C31 8014   5.051   1.082   2.899  0.0153 -0.0637 -0.3075
   86SOPE   O32 8015   4.949   1.084   2.831 -0.0449  0.3937  0.0244
   86SOPE   C32 8016   5.050   1.074   3.056 -0.6268  0.1837 -0.0150
   86SOPE   H2X 8017   4.985   1.160   3.081 -0.8985  1.2399 -3.7229
   86SOPE   H2Y 8018   5.153   1.090   3.096 -0.3581  0.9048 -0.9664
   86SOPE   C23 8019   5.323   1.546   3.070 -0.2712 -0.2722 -1.3166
   86SOPE   H3R 8020   5.419   1.594   3.099 -0.4257 -0.2511 -0.8306
   86SOPE   H3S 8021   5.339   1.450   3.123  0.1511  1.6266  2.3636
   86SOPE   C24 8022   5.208   1.605   3.144 -0.2558  0.4920  0.0178
   86SOPE   H4R 8023   5.179   1.700   3.095  2.3656  1.9657  1.1298
   86SOPE   H4S 8024   5.122   1.535   3.161  0.5155 -0.8363 -1.2963
   86SOPE   C25 8025   5.253   1.658   3.284 -0.3755  0.1132 -1.5184
   86SOPE   H5R 8026   5.339   1.728   3.269 -0.8880  1.6365  1.6725
   86SOPE   H5S 8027   5.184   1.728   3.337  0.1512 -3.0691  4.2002
   86SOPE   C26 8028   5.276   1.545   3.391 -0.3224  0.6201  0.9362
   86SOPE   H6R 8029   5.178   1.500   3.420  1.2326 -2.1872  2.2696
   86SOPE   H6S 8030   5.342   1.463   3.357  1.5648  2.3427  0.2822
   86SOPE   C27 8031   5.342   1.610   3.520  0.4871 -0.3340  0.3670
   86SOPE   H7R 8032   5.435   1.658   3.482  0.7271 -1.3134 -0.3099
   86SOPE   H7S 8033   5.274   1.695   3.545  0.4113  0.3069 -1.7893
   86SOPE   C28 8034   5.370   1.509   3.634 -0.1280 -0.2153  0.2395
   86SOPE   H8R 8035   5.298   1.425   3.638 -0.3342 -0.0069  2.0601
   86SOPE   H8S 8036   5.463   1.453   3.612 -0.1830 -0.1575 -0.1476
   86SOPE   C29 8037   5.378   1.591   3.763  0.2873 -0.4317 -0.2314
   86SOPE   H91 8038   5.456   1.668   3.772 -1.0951  0.9718  0.1202
   86SOPE  C210 8039   5.302   1.565   3.872 -0.4622 -0.3802  0.6023
   86SOPE  H101 8040   5.330   1.618   3.964 -0.0280  0.9172 -0.2439
   86SOPE  C211 8041   5.185   1.470   3.892  0.0870  0.4409 -0.5524
   86SOPE  H11R 8042   5.166   1.430   3.994 -2.8290 -0.5872 -1.4139
   86SOPE  H11S 8043   5.207   1.375   3.838 -0.4233  1.3805 -2.5234
   86SOPE  C212 8044   5.054   1.511   3.822  0.0093 -0.3538  0.0696
   86SOPE  H12R 8045   4.981   1.429   3.834 -1.7838  0.7361 -2.3910
   86SOPE  H12S 8046   5.065   1.533   3.713  0.7547 -1.2556 -0.0416
   86SOPE  C213 8047   4.991   1.640   3.886 -0.4676  0.3198  0.3368
   86SOPE  H13R 8048   4.888   1.653   3.847 -0.4172 -0.5089 -0.0828
   86SOPE  H13S 8049   5.050   1.731   3.861 -0.0055  0.0594  0.4692
   86SOPE  C214 8050   4.988   1.623   4.041  0.2639 -0.3829  0.3243
   86SOPE  H14R 8051   5.094   1.614   4.072  1.3079 -0.4962 -2.9054
   86SOPE  H14S 8052   4.929   1.531   4.062  0.5353 -0.3278  1.3755
   86SOPE  C215 8053   4.928   1.739   4.122  0.1117  0.1510  0.1074
   86SOPE  H15R 8054   4.818   1.724   4.132  0.4057 -2.3024  0.2365
   86SOPE  H15S 8055   4.946   1.828   4.058  0.0896 -0.3839 -0.6562
   86SOPE  C216 8056   4.984   1.759   4.261  0.2744 -0.1311  0.6431
   86SOPE  H16R 8057   4.933   1.850   4.302  1.2788 -0.1496  2.0098
   86SOPE  H16S 8058   5.090   1.788   4.248 -0.2827  0.6837 -3.5840
   86SOPE  C217 8059   4.956   1.645   4.353  0.2585  0.1044 -0.2357
   86SOPE  H17R 8060   5.014   1.555   4.323  2.2258 -0.1300  3.6660
   86SOPE  H17S 8061   4.850   1.612   4.349  0.3484 -0.1002 -1.8385
   86SOPE  C218 8062   4.980   1.686   4.496  0.2329  0.4830 -0.2802
   86SOPE  H18R 8063   4.901   1.750   4.541 -1.6740 -1.8949 -0.0338
   86SOPE  H18S 8064   5.079   1.735   4.504 -0.0718  0.8711  1.6497
   86SOPE  H18T 8065   4.976   1.599   4.565  1.3524  1.1177  0.6102
   86SOPE   C33 8066   5.014   0.934   3.106  0.6273 -0.1243 -0.6169
   86SOPE   H3X 8067   5.070   0.855   3.052  0.6770  0.0942 -0.8821
   86SOPE   H3Y 8068   4.904   0.923   3.100  0.4971 -2.8250  2.9077
   86SOPE   C34 8069   5.045   0.902   3.255 -0.3840 -0.2807  0.2828
   86SOPE   H4X 8070   5.154   0.917   3.270 -0.0034  0.9316 -2.8475
   86SOPE   H4Y 8071   5.030   0.794   3.277 -0.4232 -0.4601 -0.5817
   86SOPE   C35 8072   4.962   0.977   3.359  0.0468  0.6085 -0.0072
   86SOPE   H5X 8073   4.854   0.961   3.341  0.0252 -1.8383  1.8361
   86SOPE   H5Y 8074   4.988   1.085   3.356  0.2103  0.5653 -0.2106
   86SOPE   C36 8075   4.989   0.927   3.493  0.1966  0.1255 -0.2218
   86SOPE   H6X 8076   5.097   0.937   3.515 -0.2810 -0.5460  2.7981
   86SOPE   H6Y 8077   4.951   0.825   3.514 -0.0578  0.0841 -0.8647
   86SOPE   C37 8078   4.920   1.021   3.596  0.2883 -0.1824 -0.4960
   86SOPE   H7X 8079   4.810   1.007   3.591  0.0781  1.4853 -1.0973
   86SOPE   H7Y 8080   4.938   1.130   3.585  2.5626 -0.4250  0.3103
   86SOPE   C38 8081   4.952   0.970   3.740 -0.0614 -1.0881  0.1129
   86SOPE   H8X 8082   5.046   0.911   3.733  0.3600 -0.2801 -1.8330
   86SOPE   H8Y 8083   4.883   0.888   3.768  0.7025 -1.4941  0.8585
   86SOPE   C39 8084   4.963   1.086   3.842  0.2267  0.0397  0.4476
   86SOPE   H9X 8085   4.868   1.143   3.842 -1.0996 -1.9182 -1.9849
   86SOPE   H9Y 8086   5.044   1.147   3.798 -1.7009 -0.4307 -4.4244
   86SOPE  C310 8087   4.989   1.040   3.986 -0.0055  0.4797  0.0899
   86SOPE  H10X 8088   5.011   1.136   4.037  2.1997 -0.5993  1.3071
   86SOPE  H10Y 8089   5.082   0.980   3.984 -0.5260 -0.3319 -1.4418
   86SOPE  C311 8090   4.878   0.970   4.062 -0.0544 -0.7807 -0.2023
   86SOPE  H11X 8091   4.855   0.869   4.021  0.4104 -0.9797  0.0159
   86SOPE  H11Y 8092   4.792   1.037   4.045 -0.1518 -0.8217  0.1220
   86SOPE  C312 8093   4.886   0.962   4.219  0.3845 -0.3089 -0.6150
   86SOPE  H12X 8094   4.935   1.055   4.255  2.4105 -2.1994  1.8851
   86SOPE  H12Y 8095   4.956   0.881   4.249  0.9937 -0.1252 -1.5345
   86SOPE  C313 8096   4.749   0.965   4.290 -0.0321  0.5563  0.2694
   86SOPE  H13X 8097   4.688   0.877   4.261  2.9757 -1.0539 -1.7238
   86SOPE  H13Y 8098   4.694   1.057   4.259 -0.6808 -0.5612 -2.1432
   86SOPE  C314 8099   4.761   0.962   4.447 -0.2284  0.2667 -0.4656
   86SOPE  H14X 8100   4.662   0.970   4.496 -0.4911 -2.5209 -0.3561
   86SOPE  H14Y 8101   4.837   1.037   4.478  1.6038 -2.0701  1.0566
   86SOPE  C315 8102   4.806   0.818   4.509  0.2847  0.2300 -0.2756
   86SOPE  H15X 8103   4.913   0.793   4.492 -0.7263 -3.7994 -1.7560
   86SOPE  H15Y 8104   4.741   0.737   4.470 -0.1033 -0.4327  1.6365
   86SOPE  C316 8105   4.781   0.819   4.667  0.0034  0.4801 -0.4905
   86SOPE  H16X 8106   4.686   0.867   4.698 -1.2861 -2.5368  0.6216
   86SOPE  H16Y 8107   4.858   0.882   4.716  0.9679 -2.6184  2.3387
   86SOPE  C317 8108   4.782   0.674   4.728  0.2534 -0.1654  0.0923
   86SOPE  H17X 8109   4.887   0.646   4.707  0.1103 -0.6139 -0.0196
   86SOPE  H17Y 8110   4.709   0.630   4.657  0.4450  1.5902 -1.2701
   86SOPE  C318 8111   4.770   0.660   4.877  0.2416  0.5841  0.3270
   86SOPE  H18X 8112   4.813   0.754   4.917  0.6736  0.5795 -0.1081
   86SOPE  H18Y 8113   4.817   0.567   4.917  0.8053  0.6902 -0.0738
   86SOPE  H18Z 8114   4.662   0.663   4.900 -0.2829  2.9462 -2.0696
   87SOPE     N 8115   6.748   0.698   2.100  0.2958 -0.3959 -0.2678
   87SOPE   HN1 8116   6.666   0.677   2.040 -0.7228  0.5154  0.7645
   87SOPE   HN2 8117   6.832   0.643   2.072 -1.3470 -2.5956 -1.1423
   87SOPE   HN3 8118   6.717   0.660   2.192  0.7287 -2.1561 -0.8080
   87SOPE   C12 8119   6.764   0.849   2.081  0.1683 -0.0487 -0.1772
   87SOPE  H12A 8120   6.774   0.867   1.971  7.0489 -0.5969 -0.0583
   87SOPE  H12B 8121   6.847   0.896   2.136 -0.4777  0.0784  0.7038
   87SOPE   C11 8122   6.634   0.928   2.113  0.5831 -0.5924  0.6125
   87SOPE  H11A 8123   6.660   1.032   2.087 -2.1591 -0.0147 -0.1330
   87SOPE  H11B 8124   6.607   0.921   2.221 -1.5455  2.6591  0.4380
   87SOPE     P 8125   6.386   0.942   2.041 -0.0510 -0.2185  0.0629
   87SOPE   O13 8126   6.286   0.845   1.990  0.0620  0.0323  0.5978
   87SOPE   O14 8127   6.393   1.073   1.974 -0.1060 -0.3381 -0.5123
   87SOPE   O12 8128   6.532   0.878   2.019  0.2471 -0.4850  0.2817
   87SOPE   O11 8129   6.378   0.972   2.197 -0.1369 -1.0245  0.7366
   87SOPE    C1 8130   6.360   0.856   2.270 -0.0244 -0.0193 -0.3163
   87SOPE    HA 8131   6.407   0.874   2.369  3.2746  2.1622 -2.0965
   87SOPE    HB 8132   6.415   0.764   2.241  1.1355  0.3782  0.5764
   87SOPE    C2 8133   6.208   0.832   2.290  0.3344  0.1798 -1.1118
   87SOPE    HS 8134   6.160   0.858   2.194  0.7398  1.1069 -1.0796
   87SOPE   O21 8135   6.166   0.920   2.397  0.4544 -0.5576  0.0411
   87SOPE   C21 8136   6.034   0.924   2.420  0.0063  0.1221  0.7645
   87SOPE   O22 8137   5.946   0.870   2.355  0.6200  0.3763 -0.1278
   87SOPE   C22 8138   6.005   1.022   2.533 -0.6182 -0.4778 -0.3309
   87SOPE   H2R 8139   5.905   0.991   2.571  0.6007 -2.0475  1.8021
   87SOPE   H2S 8140   5.989   1.121   2.485 -0.1831 -0.4058 -0.3339
   87SOPE    C3 8141   6.179   0.681   2.312  0.0948  0.2947 -0.0937
   87SOPE    HX 8142   6.233   0.641   2.224 -0.8451  3.0141 -2.0358
   87SOPE    HY 8143   6.074   0.652   2.291  0.2971 -0.0763 -0.5966
   87SOPE   O31 8144   6.229   0.623   2.439 -0.0264 -0.2468  0.1600
   87SOPE   C31 8145   6.222   0.490   2.448  0.2756  0.0838  0.0421
   87SOPE   O32 8146   6.199   0.412   2.357  0.5061  0.3995 -0.2576
   87SOPE   C32 8147   6.257   0.460   2.595  0.0636 -0.0458  0.7273
   87SOPE   H2X 8148   6.164   0.466   2.655  0.0419 -1.3021  0.8325
   87SOPE   H2Y 8149   6.332   0.533   2.633  0.6934  0.2097 -0.9054
   87SOPE   C23 8150   6.113   1.031   2.645  0.0953 -0.3669 -0.0886
   87SOPE   H3R 8151   6.095   1.121   2.708  2.2916  1.9500 -2.5232
   87SOPE   H3S 8152   6.207   1.059   2.593  1.0235 -1.9777  0.6429
   87SOPE   C24 8153   6.139   0.898   2.718  0.2352 -0.6269 -0.0238
   87SOPE   H4R 8154   6.158   0.825   2.636  1.2326 -2.1564  1.5032
   87SOPE   H4S 8155   6.230   0.906   2.780  0.1526  3.8235 -0.1530
   87SOPE   C25 8156   6.025   0.851   2.809 -0.2188 -0.4247  0.4004
   87SOPE   H5R 8157   5.932   0.853   2.749 -1.2147 -2.1049  1.8111
   87SOPE   H5S 8158   6.041   0.742   2.820  2.9428 -0.1525 -0.3958
   87SOPE   C26 8159   6.008   0.935   2.935 -0.3277  0.6873 -0.2028
   87SOPE   H6R 8160   6.110   0.940   2.978  0.1568  1.7344 -1.4002
   87SOPE   H6S 8161   5.980   1.040   2.911  1.0156  0.9228 -0.8732
   87SOPE   C27 8162   5.913   0.871   3.043 -0.3372 -0.8833  0.2862
   87SOPE   H7R 8163   5.818   0.848   2.991  0.0730 -1.3406 -0.2622
   87SOPE   H7S 8164   5.941   0.764   3.053 -2.5575 -1.4616  0.9929
   87SOPE   C28 8165   5.894   0.942   3.178 -0.2848 -0.2308 -0.0567
   87SOPE   H8R 8166   5.990   0.965   3.228 -0.0014  2.8665 -1.7756
   87SOPE   H8S 8167   5.854   1.044   3.158 -0.7502 -0.2624  0.6334
   87SOPE   C29 8168   5.790   0.865   3.254  0.1449  0.4412  0.4975
   87SOPE   H91 8169   5.696   0.838   3.202 -0.4134 -0.3108  1.8411
   87SOPE  C210 8170   5.792   0.816   3.386  0.3071 -0.4351  0.8352
   87SOPE  H101 8171   5.698   0.769   3.418 -1.1844  2.1971  0.6157
   87SOPE  C211 8172   5.877   0.879   3.490  0.0643  0.3188 -0.0986
   87SOPE  H11R 8173   5.911   0.977   3.451 -1.7189  1.0394  0.0646
   87SOPE  H11S 8174   5.965   0.811   3.500  0.0131  0.1482 -0.7695
   87SOPE  C212 8175   5.808   0.899   3.626  0.3030 -0.1616 -0.0498
   87SOPE  H12R 8176   5.764   0.805   3.667  0.0774  0.2015  0.5393
   87SOPE  H12S 8177   5.721   0.964   3.606 -1.1658 -2.4182 -1.4708
   87SOPE  C213 8178   5.899   0.963   3.729 -0.2622 -0.3938  0.8759
   87SOPE  H13R 8179   6.003   0.927   3.712  1.1729  3.5389  0.3127
   87SOPE  H13S 8180   5.853   0.951   3.830 -0.2202 -0.4925  0.8828
   87SOPE  C214 8181   5.907   1.116   3.689 -0.1143 -0.1906  0.3358
   87SOPE  H14R 8182   5.808   1.165   3.697  0.1632  1.1567 -2.8753
   87SOPE  H14S 8183   5.927   1.132   3.581  1.2178  1.7489  0.8062
   87SOPE  C215 8184   6.011   1.183   3.782  0.4727  0.5545  0.0528
   87SOPE  H15R 8185   6.110   1.132   3.779 -0.7071 -1.8591 -1.9132
   87SOPE  H15S 8186   5.967   1.186   3.884 -0.6322 -0.1970 -0.3870
   87SOPE  C216 8187   6.036   1.333   3.741  0.2082  0.7813 -0.1717
   87SOPE  H16R 8188   5.933   1.377   3.736  0.2871  0.8462 -1.3101
   87SOPE  H16S 8189   6.077   1.336   3.638  0.3508 -1.4837 -0.2118
   87SOPE  C217 8190   6.114   1.412   3.840 -0.6256  0.3116 -1.0314
   87SOPE  H17R 8191   6.048   1.425   3.928  0.3288 -0.5193 -0.1810
   87SOPE  H17S 8192   6.147   1.512   3.804  0.6239  0.2543 -0.0832
   87SOPE  C218 8193   6.239   1.339   3.888 -0.0280  0.6802  0.2997
   87SOPE  H18R 8194   6.316   1.321   3.811 -0.5696  2.6783 -0.7898
   87SOPE  H18S 8195   6.212   1.240   3.930  1.2334  0.6793  1.1687
   87SOPE  H18T 8196   6.291   1.397   3.968  0.5993  0.7117 -0.1252
   87SOPE   C33 8197   6.297   0.310   2.603 -0.2772  0.2404  0.5554
   87SOPE   H3X 8198   6.378   0.279   2.533  1.0932  1.8674  1.3232
   87SOPE   H3Y 8199   6.217   0.245   2.563 -0.1047 -0.4329  1.2908
   87SOPE   C34 8200   6.335   0.252   2.739  1.0646 -0.7790  0.0542
   87SOPE   H4X 8201   6.413   0.315   2.784  1.6289 -1.0955 -0.4609
   87SOPE   H4Y 8202   6.378   0.151   2.719  1.5625 -1.0090  2.0843
   87SOPE   C35 8203   6.210   0.231   2.832 -0.2441 -0.3033  0.0436
   87SOPE   H5X 8204   6.135   0.175   2.773 -0.8927  0.9292 -0.3403
   87SOPE   H5Y 8205   6.167   0.333   2.844 -0.5830 -0.4818  0.3586
   87SOPE   C36 8206   6.239   0.178   2.971  0.2695 -0.2136  0.2012
   87SOPE   H6X 8207   6.319   0.228   3.030  2.6953 -2.4781 -0.9794
   87SOPE   H6Y 8208   6.278   0.075   2.970 -2.0244 -1.1540  0.5173
   87SOPE   C37 8209   6.119   0.181   3.071  0.3355 -0.0824  0.4836
   87SOPE   H7X 8210   6.042   0.108   3.038  1.0035  0.2512 -2.0407
   87SOPE   H7Y 8211   6.079   0.284   3.064 -3.6172 -1.5099 -0.7272
   87SOPE   C38 8212   6.147   0.143   3.210 -0.1678 -0.3444 -0.1010
   87SOPE   H8X 8213   6.234   0.205   3.238  1.0296 -2.2151  0.5588
   87SOPE   H8Y 8214   6.185   0.038   3.211 -0.5202 -0.4753  0.9894
   87SOPE   C39 8215   6.027   0.162   3.299 -0.0752  0.0449 -0.5361
   87SOPE   H9X 8216   5.929   0.123   3.263 -0.1407 -0.6586  0.3597
   87SOPE   H9Y 8217   6.013   0.272   3.304 -0.7665  0.1460 -3.2310
   87SOPE  C310 8218   6.052   0.099   3.440 -0.0401  0.0605  0.3099
   87SOPE  H10X 8219   6.153   0.132   3.475  0.0040  0.1789  0.0768
   87SOPE  H10Y 8220   6.064  -0.011   3.427  0.7769  0.1694  0.0565
   87SOPE  C311 8221   5.953   0.134   3.544  0.8620 -0.2285  0.0611
   87SOPE  H11X 8222   5.879   0.051   3.538  1.4803 -0.7484 -0.5601
   87SOPE  H11Y 8223   5.907   0.235   3.543  1.9512  0.2953 -2.0050
   87SOPE  C312 8224   6.023   0.112   3.678  0.8290 -0.1728 -0.2432
   87SOPE  H12X 8225   6.100   0.191   3.689  0.3998  0.1530  0.5360
   87SOPE  H12Y 8226   6.073   0.013   3.681  2.8931  0.8413  0.4995
   87SOPE  C313 8227   5.931   0.125   3.804  1.1881 -0.6249  0.2010
   87SOPE  H13X 8228   5.833   0.075   3.783  0.4138 -0.0043  2.1278
   87SOPE  H13Y 8229   5.922   0.235   3.818  1.8900 -0.6009  0.5056
   87SOPE  C314 8230   5.999   0.072   3.926  0.0592  0.0750 -0.0714
   87SOPE  H14X 8231   6.099   0.113   3.951 -0.9920  4.4525 -2.0665
   87SOPE  H14Y 8232   6.008  -0.038   3.913 -2.9961 -0.1272 -1.4654
   87SOPE  C315 8233   5.919   0.097   4.053  0.2989  0.3937 -0.1276
   87SOPE  H15X 8234   5.817   0.060   4.031  0.8371 -0.8049 -0.6831
   87SOPE  H15Y 8235   5.918   0.208   4.062  0.6452  0.6503 -2.4293
   87SOPE  C316 8236   5.965   0.040   4.182  0.0159  0.2036 -0.1333
   87SOPE  H16X 8237   6.075   0.053   4.181  0.1332 -0.5341  1.1731
   87SOPE  H16Y 8238   5.928  -0.065   4.173 -1.1672  0.4492  1.3926
   87SOPE  C317 8239   5.897   0.101   4.310  0.2129 -0.0319  0.6827
   87SOPE  H17X 8240   5.788   0.101   4.292  0.1901 -0.0433  0.8151
   87SOPE  H17Y 8241   5.936   0.205   4.322 -0.7779  0.4613 -0.2667
   87SOPE  C318 8242   5.930   0.014   4.434  0.1492  0.0075  0.1717
   87SOPE  H18X 8243   5.904  -0.091   4.409  0.3450  0.1808 -0.8084
   87SOPE  H18Y 8244   5.861   0.034   4.519  0.2177 -1.2371  0.5383
   87SOPE  H18Z 8245   6.029   0.026   4.482 -0.4935 -0.4868  1.6617
   88SOPE     N 8246   2.194   6.274   2.444  0.0004  1.1122 -0.2781
   88SOPE   HN1 8247   2.248   6.232   2.523  0.7349  0.1370 -1.2763
   88SOPE   HN2 8248   2.100   6.230   2.442  0.6830 -0.4554 -0.0199
   88SOPE   HN3 8249   2.240   6.242   2.356 -1.1404 -1.4804 -0.0429
   88SOPE   C12 8250   2.182   6.418   2.439 -0.3006 -0.5739 -0.0799
   88SOPE  H12A 8251   2.280   6.462   2.410 -1.4386  1.0337 -1.6679
   88SOPE  H12B 8252   2.161   6.453   2.543  0.0578 -0.4750 -0.0390
   88SOPE   C11 8253   2.075   6.467   2.341 -0.0474  0.0505 -0.4048
   88SOPE  H11A 8254   2.110   6.468   2.235  1.8435 -0.8921  0.1663
   88SOPE  H11B 8255   2.039   6.564   2.380 -0.3017  0.5633 -1.8286
   88SOPE     P 8256   1.831   6.403   2.272 -0.2975 -0.0327 -0.0370
   88SOPE   O13 8257   1.749   6.281   2.257  0.0185  0.2189 -0.9325
   88SOPE   O14 8258   1.851   6.493   2.155 -0.1683  0.1907  0.4348
   88SOPE   O12 8259   1.959   6.384   2.350  0.0025 -0.9565  0.0886
   88SOPE   O11 8260   1.741   6.487   2.379  0.2575 -0.6388 -0.2853
   88SOPE    C1 8261   1.749   6.473   2.521  0.4903  0.2303 -0.3932
   88SOPE    HA 8262   1.700   6.559   2.573  0.9778 -0.6129  1.5213
   88SOPE    HB 8263   1.853   6.464   2.557  0.1399 -1.8210  0.2052
   88SOPE    C2 8264   1.656   6.359   2.578 -0.3804 -0.2791 -0.8480
   88SOPE    HS 8265   1.579   6.339   2.500 -1.1317 -0.2948 -0.1233
   88SOPE   O21 8266   1.595   6.411   2.697  0.7532  0.1661  0.1364
   88SOPE   C21 8267   1.490   6.344   2.732 -0.3101  0.3625  0.8113
   88SOPE   O22 8268   1.439   6.255   2.665  0.0061 -0.2654  0.2995
   88SOPE   C22 8269   1.432   6.419   2.845  0.0478  0.0231  0.4833
   88SOPE   H2R 8270   1.447   6.529   2.843 -0.3424  0.0741 -0.2373
   88SOPE   H2S 8271   1.493   6.380   2.928 -0.4427 -1.4674  0.1670
   88SOPE    C3 8272   1.747   6.236   2.609  0.4465 -0.3664  0.7256
   88SOPE    HX 8273   1.788   6.202   2.511 -2.3362 -0.2943 -0.5473
   88SOPE    HY 8274   1.681   6.152   2.641 -2.3393  1.1824 -0.5669
   88SOPE   O31 8275   1.848   6.276   2.702 -0.2093  0.3384  0.0263
   88SOPE   C31 8276   1.815   6.259   2.832 -0.2674  0.4156  0.8304
   88SOPE   O32 8277   1.715   6.211   2.876  0.1037  0.2270  0.2889
   88SOPE   C32 8278   1.913   6.329   2.922 -0.1839 -0.0151 -0.7048
   88SOPE   H2X 8279   2.011   6.300   2.879 -0.7149  0.5366 -2.3791
   88SOPE   H2Y 8280   1.902   6.290   3.025  3.6823  3.3620  1.2933
   88SOPE   C23 8281   1.287   6.382   2.869 -0.2505  0.2887 -0.3102
   88SOPE   H3R 8282   1.275   6.276   2.898  1.0970  0.4572  1.0238
   88SOPE   H3S 8283   1.245   6.412   2.771  0.9488 -0.2201 -1.0118
   88SOPE   C24 8284   1.234   6.459   2.993  0.4020 -0.5380  0.4054
   88SOPE   H4R 8285   1.286   6.432   3.087 -1.2384 -0.7238  1.2904
   88SOPE   H4S 8286   1.263   6.565   2.978  2.5616 -1.3581 -2.1292
   88SOPE   C25 8287   1.088   6.447   3.005  0.7197  0.0431 -1.0013
   88SOPE   H5R 8288   1.026   6.494   2.925 -0.9241 -1.0390 -0.3963
   88SOPE   H5S 8289   1.061   6.340   3.006  1.0177 -0.0360  0.3329
   88SOPE   C26 8290   1.041   6.503   3.140  0.1836 -0.5808 -0.8770
   88SOPE   H6R 8291   1.122   6.465   3.206 -1.0015 -1.9194 -0.1446
   88SOPE   H6S 8292   1.038   6.614   3.127  1.9809 -0.0192  2.3331
   88SOPE   C27 8293   0.907   6.443   3.182  0.2735  0.0087 -0.5693
   88SOPE   H7R 8294   0.824   6.464   3.112  0.6779 -0.9844 -1.3655
   88SOPE   H7S 8295   0.915   6.332   3.177  2.3461  0.1992 -3.0061
   88SOPE   C28 8296   0.846   6.490   3.314  0.2894  0.5157 -0.5409
   88SOPE   H8R 8297   0.837   6.600   3.322  0.0717  0.3708  1.9165
   88SOPE   H8S 8298   0.738   6.466   3.304  0.4502 -0.7123  0.3973
   88SOPE   C29 8299   0.913   6.438   3.435 -0.2779  0.0378 -0.0217
   88SOPE   H91 8300   1.019   6.409   3.436 -0.8688 -2.4332 -1.5374
   88SOPE  C210 8301   0.851   6.396   3.547 -0.6516 -0.2899  0.0073
   88SOPE  H101 8302   0.909   6.338   3.621 -2.1698  0.7080  2.0746
   88SOPE  C211 8303   0.701   6.397   3.576 -0.8442 -0.0078  0.1897
   88SOPE  H11R 8304   0.678   6.318   3.651  0.4322 -0.2923  0.3107
   88SOPE  H11S 8305   0.654   6.367   3.480  0.8977 -0.8599 -0.4402
   88SOPE  C212 8306   0.651   6.541   3.607 -0.5419  0.2212  0.1856
   88SOPE  H12R 8307   0.694   6.600   3.524 -2.7494  1.9525  0.1647
   88SOPE  H12S 8308   0.678   6.573   3.710 -2.4877 -0.1555  0.8572
   88SOPE  C213 8309   0.498   6.578   3.593 -0.5326 -1.1234 -0.4878
   88SOPE  H13R 8310   0.429   6.496   3.621 -1.0150 -0.8778 -0.9501
   88SOPE  H13S 8311   0.485   6.583   3.482  0.0251 -1.3542 -0.5722
   88SOPE  C214 8312   0.463   6.707   3.669  0.1623 -0.3513  0.9234
   88SOPE  H14R 8313   0.552   6.772   3.681 -1.1386  2.0379 -1.2716
   88SOPE  H14S 8314   0.426   6.676   3.769 -1.6302 -1.4971 -0.0258
   88SOPE  C215 8315   0.339   6.785   3.601 -0.2361 -0.4105 -0.6320
   88SOPE  H15R 8316   0.304   6.878   3.650 -5.0819 -2.8666  1.2264
   88SOPE  H15S 8317   0.257   6.715   3.626 -1.2415  0.8854 -0.1780
   88SOPE  C216 8318   0.349   6.801   3.449  0.4251 -0.6939  0.3148
   88SOPE  H16R 8319   0.352   6.700   3.402  0.8664 -0.4940 -0.0974
   88SOPE  H16S 8320   0.441   6.858   3.424  0.2406 -1.8646 -3.7899
   88SOPE  C217 8321   0.217   6.863   3.408  0.3996  0.5705 -0.7429
   88SOPE  H17R 8322   0.226   6.872   3.297  0.8779 -2.6472 -1.0634
   88SOPE  H17S 8323   0.209   6.963   3.454 -0.2535  0.6073 -0.9197
   88SOPE  C218 8324   0.097   6.765   3.438 -0.8161 -0.1993 -0.5780
   88SOPE  H18R 8325   0.046   6.784   3.535 -1.4663  0.3028 -1.0133
   88SOPE  H18S 8326   0.132   6.661   3.420  0.4588 -0.0348  0.8259
   88SOPE  H18T 8327   0.027   6.784   3.354  1.0500 -1.3776 -2.5131
   88SOPE   C33 8328   1.892   6.482   2.923 -0.0125 -0.5702 -0.5117
   88SOPE   H3X 8329   1.884   6.530   2.823 -1.5167  0.7329  0.1917
   88SOPE   H3Y 8330   1.979   6.519   2.981  0.9070 -2.4915 -0.5689
   88SOPE   C34 8331   1.768   6.536   3.000 -0.6557 -0.0481 -0.8507
   88SOPE   H4X 8332   1.676   6.489   2.958 -2.1631  0.4689  1.6606
   88SOPE   H4Y 8333   1.760   6.646   2.984  1.5974  0.1442 -0.9197
   88SOPE   C35 8334   1.758   6.500   3.150 -0.2557  0.2341 -0.7531
   88SOPE   H5X 8335   1.833   6.541   3.221  1.0157  0.7181 -2.3016
   88SOPE   H5Y 8336   1.781   6.394   3.172  1.2038  0.6704 -0.0265
   88SOPE   C36 8337   1.613   6.494   3.211 -0.2463 -0.0770  0.7915
   88SOPE   H6X 8338   1.565   6.407   3.162 -1.4482  1.1653 -0.3030
   88SOPE   H6Y 8339   1.571   6.595   3.194  3.7447  1.6974  0.3419
   88SOPE   C37 8340   1.614   6.480   3.361 -0.0076 -0.4277 -0.2088
   88SOPE   H7X 8341   1.681   6.557   3.406 -0.1786 -0.8397  0.7651
   88SOPE   H7Y 8342   1.649   6.379   3.392 -0.1452 -0.8780 -1.4864
   88SOPE   C38 8343   1.484   6.495   3.438 -0.1895 -0.0559  0.1060
   88SOPE   H8X 8344   1.442   6.594   3.408 -0.3377 -0.0917  0.1974
   88SOPE   H8Y 8345   1.510   6.487   3.546 -0.5106 -1.3908  0.0997
   88SOPE   C39 8346   1.387   6.372   3.409 -0.8196 -0.2670 -0.5193
   88SOPE   H9X 8347   1.400   6.359   3.300  1.2319 -0.4992 -0.2807
   88SOPE   H9Y 8348   1.284   6.407   3.433 -0.3947 -0.3288  1.5968
   88SOPE  C310 8349   1.428   6.245   3.487 -0.8563 -0.1022 -0.0208
   88SOPE  H10X 8350   1.537   6.237   3.468 -0.7615  0.8114  0.0880
   88SOPE  H10Y 8351   1.386   6.164   3.423  0.0697  0.8781 -1.9626
   88SOPE  C311 8352   1.386   6.244   3.631  0.2856  0.4762 -0.4279
   88SOPE  H11X 8353   1.281   6.273   3.653  0.4352  3.4879 -3.0450
   88SOPE  H11Y 8354   1.451   6.322   3.676  1.1175 -1.2942  1.6058
   88SOPE  C312 8355   1.411   6.101   3.688  0.8611 -0.5636  0.3427
   88SOPE  H12X 8356   1.518   6.075   3.671  1.3683  1.1529  0.6986
   88SOPE  H12Y 8357   1.348   6.029   3.633  0.8584 -0.8533  0.7251
   88SOPE  C313 8358   1.378   6.090   3.835 -0.6374 -0.5690 -0.6313
   88SOPE  H13X 8359   1.415   5.994   3.876 -0.3989  0.1628  0.9342
   88SOPE  H13Y 8360   1.267   6.093   3.839 -0.6706  0.1478 -1.6063
   88SOPE  C314 8361   1.441   6.200   3.919  0.4115  1.0959 -0.1824
   88SOPE  H14X 8362   1.400   6.299   3.888 -0.4146  2.0526  3.5216
   88SOPE  H14Y 8363   1.551   6.211   3.905  0.2613  2.5618 -0.2987
   88SOPE  C315 8364   1.404   6.180   4.065  0.1037 -0.5820  0.4828
   88SOPE  H15X 8365   1.294   6.184   4.080 -0.3023 -0.9451 -1.9063
   88SOPE  H15Y 8366   1.439   6.274   4.112  1.3173  0.0606 -1.5650
   88SOPE  C316 8367   1.479   6.056   4.133 -0.1471 -0.5235 -0.0830
   88SOPE  H16X 8368   1.587   6.063   4.108  0.3426  2.5730  2.2401
   88SOPE  H16Y 8369   1.436   5.969   4.080 -0.5669 -0.0370 -0.5521
   88SOPE  C317 8370   1.451   6.035   4.280 -0.4804 -0.5010 -0.8078
   88SOPE  H17X 8371   1.517   5.957   4.325  1.0374  1.0130 -0.3248
   88SOPE  H17Y 8372   1.346   5.998   4.275 -0.9445  0.6870 -0.1852
   88SOPE  C318 8373   1.464   6.162   4.367  0.4281  1.3091 -0.3266
   88SOPE  H18X 8374   1.391   6.236   4.328 -0.5778 -0.2368 -1.5223
   88SOPE  H18Y 8375   1.566   6.205   4.368  1.1672 -0.3807  0.4319
   88SOPE  H18Z 8376   1.427   6.146   4.471 -0.9140 -0.2434 -0.9839
   89SAPC     N 8377   4.727   3.485   7.109  0.2259  0.9827 -0.1971
   89SAPC   C12 8378   4.771   3.449   6.966  0.3313 -0.2470 -0.2097
   89SAPC  H12A 8379   4.874   3.418   6.968  0.2369 -0.6481 -1.1994
   89SAPC  H12B 8380   4.758   3.543   6.914  1.0695  1.4460  2.4148
   89SAPC   C13 8381   4.829   3.581   7.173  0.8646 -0.0283  0.1520
   89SAPC  H13A 8382   4.926   3.533   7.174  0.7922 -0.1732  0.1919
   89SAPC  H13B 8383   4.838   3.667   7.108  3.7061  0.6767  1.3383
   89SAPC  H13C 8384   4.802   3.603   7.275 -1.2324  0.2047 -0.4002
   89SAPC   C14 8385   4.591   3.549   7.116 -0.5688  0.4164 -0.5142
   89SAPC  H14A 8386   4.592   3.651   7.081 -2.3604  1.4668  2.1041
   89SAPC  H14B 8387   4.530   3.497   7.044  1.1606 -0.8112 -1.1374
   89SAPC  H14C 8388   4.556   3.553   7.218 -0.7265 -1.8545 -0.4313
   89SAPC   C15 8389   4.737   3.361   7.195  0.6333 -0.6443 -0.3392
   89SAPC  H15A 8390   4.839   3.327   7.206  0.3341 -1.5432 -0.2774
   89SAPC  H15B 8391   4.698   3.377   7.294 -0.3035  0.0458 -0.7979
   89SAPC  H15C 8392   4.679   3.291   7.135  0.3169 -0.0616 -0.7282
   89SAPC   C11 8393   4.693   3.335   6.894  0.3476  0.1717  0.3519
   89SAPC  H11A 8394   4.693   3.250   6.965 -0.8412  0.3491  0.5786
   89SAPC  H11B 8395   4.744   3.308   6.798 -1.4565 -1.5773 -0.1880
   89SAPC     P 8396   4.512   3.453   6.749 -0.1051 -0.3505  0.2438
   89SAPC   O13 8397   4.371   3.427   6.734  0.3417  0.5729  0.3724
   89SAPC   O14 8398   4.535   3.599   6.782  0.1719  0.3262  0.3883
   89SAPC   O12 8399   4.558   3.373   6.876  0.2007 -0.0869  0.2137
   89SAPC   O11 8400   4.602   3.402   6.628  0.4812 -0.9711  0.2223
   89SAPC    C1 8401   4.651   3.491   6.529 -0.6638 -0.2332 -0.2434
   89SAPC    HA 8402   4.690   3.584   6.575  0.8857 -0.1562 -1.6313
   89SAPC    HB 8403   4.738   3.448   6.474  2.0171 -0.4761  3.7260
   89SAPC    C2 8404   4.530   3.523   6.434  0.2185  0.5246 -0.3949
   89SAPC    HS 8405   4.440   3.560   6.489  0.7619  1.7575 -0.2957
   89SAPC   O21 8406   4.495   3.401   6.360 -0.3294 -0.1525 -0.5283
   89SAPC   C21 8407   4.373   3.380   6.337 -0.3842  0.2748  0.8485
   89SAPC   O22 8408   4.279   3.455   6.366 -0.1482  0.4434 -0.2454
   89SAPC   C22 8409   4.353   3.251   6.263  0.3686  0.3643 -0.1740
   89SAPC   H2R 8410   4.436   3.178   6.275 -0.5196 -0.8865 -1.3480
   89SAPC   H2S 8411   4.275   3.192   6.315  1.6237 -0.6979  0.5581
   89SAPC    C3 8412   4.570   3.638   6.334  0.0317 -0.4331  0.0143
   89SAPC    HX 8413   4.664   3.603   6.286  1.1718  1.8283  0.4747
   89SAPC    HY 8414   4.607   3.720   6.400 -0.2969  0.3267 -0.7232
   89SAPC   O31 8415   4.465   3.668   6.239  0.9174 -0.8320 -0.4055
   89SAPC   C31 8416   4.366   3.751   6.285  0.0007 -0.4984 -0.0164
   89SAPC   O32 8417   4.372   3.819   6.391 -0.0144  0.1018  0.1243
   89SAPC   C32 8418   4.257   3.763   6.179  0.3829 -0.6338  0.2198
   89SAPC   H2X 8419   4.245   3.859   6.125  0.4420 -0.5841  0.2936
   89SAPC   H2Y 8420   4.161   3.756   6.234 -0.6286  0.2424 -1.3857
   89SAPC   C23 8421   4.315   3.274   6.114 -0.5950  0.2463 -0.0933
   89SAPC   H3R 8422   4.338   3.375   6.073 -0.9723 -0.6031 -2.5753
   89SAPC   H3S 8423   4.205   3.260   6.113 -0.9871  2.8715 -0.0740
   89SAPC   C24 8424   4.401   3.174   6.030 -0.3486  0.3061  0.3692
   89SAPC   H4R 8425   4.361   3.167   5.927  0.1500  0.6175  0.1470
   89SAPC   H4S 8426   4.387   3.080   6.088  0.5479  1.1955  2.1151
   89SAPC   C25 8427   4.541   3.212   6.027 -0.6518  0.2084 -0.4655
   89SAPC   H5R 8428   4.602   3.203   6.118  2.3630  1.7659 -2.1807
   89SAPC   C26 8429   4.614   3.273   5.928  0.1108  0.5269  0.2094
   89SAPC   H6R 8430   4.719   3.301   5.945 -0.3486  1.0490  2.4690
   89SAPC   C27 8431   4.560   3.317   5.791  0.7669 -0.1350  0.6291
   89SAPC   H7R 8432   4.450   3.300   5.784  0.6194  1.3371 -1.8524
   89SAPC   H7S 8433   4.594   3.240   5.719 -1.6703 -0.5706 -0.1614
   89SAPC   C28 8434   4.577   3.467   5.769  0.2974 -0.4834 -0.2971
   89SAPC   H8R 8435   4.561   3.532   5.856  0.6374  1.1232 -1.4015
   89SAPC   C29 8436   4.583   3.523   5.652  0.3580 -0.3940 -0.2870
   89SAPC   H9R 8437   4.591   3.632   5.648 -0.7196 -0.3457 -2.2640
   89SAPC  C210 8438   4.586   3.453   5.516  0.7581 -0.0506 -1.3524
   89SAPC  H10R 8439   4.571   3.344   5.535  0.0635  0.4764  1.6191
   89SAPC  H10S 8440   4.684   3.469   5.468  1.0626  2.3706 -0.0500
   89SAPC  C211 8441   4.471   3.523   5.441 -0.3543  1.1104  0.2793
   89SAPC  H11R 8442   4.381   3.549   5.499 -1.5696 -1.0150 -0.5142
   89SAPC  C212 8443   4.499   3.578   5.318 -0.4689  0.1814  0.7158
   89SAPC  H12R 8444   4.415   3.634   5.276 -0.7675  0.4610  1.6643
   89SAPC  C213 8445   4.622   3.564   5.229  0.0534  0.1815  0.0044
   89SAPC  H13R 8446   4.713   3.549   5.291  0.1098 -1.5276 -0.4350
   89SAPC  H13S 8447   4.636   3.657   5.171 -0.6765  0.9502  1.0180
   89SAPC  C214 8448   4.599   3.442   5.138 -0.2904 -0.7040  0.0807
   89SAPC  H14R 8449   4.598   3.348   5.195  3.5612 -1.9950 -1.6378
   89SAPC  C215 8450   4.588   3.446   5.010  0.5174  0.4439 -0.0720
   89SAPC  H15R 8451   4.585   3.345   4.966  0.2706  0.0766  0.7628
   89SAPC  C216 8452   4.594   3.564   4.915  0.5340 -0.2231 -0.1080
   89SAPC  H16R 8453   4.697   3.587   4.881  0.4045  0.0328 -0.3299
   89SAPC  H16S 8454   4.551   3.650   4.970 -0.8041 -2.2716  2.2686
   89SAPC  C217 8455   4.519   3.537   4.785  0.1217 -0.0931  0.0349
   89SAPC  H17R 8456   4.530   3.630   4.725 -0.3383 -0.1387 -0.1206
   89SAPC  H17S 8457   4.408   3.539   4.797 -0.0557  3.1207 -1.1598
   89SAPC  C218 8458   4.570   3.422   4.709 -0.8773  0.1993 -0.0233
   89SAPC  H18R 8459   4.585   3.326   4.762 -1.1789 -1.4294 -2.6677
   89SAPC  H18S 8460   4.675   3.445   4.681  1.0013 -4.3106  2.4049
   89SAPC  C219 8461   4.482   3.387   4.588 -0.0189 -0.1742  0.2390
   89SAPC  H19R 8462   4.440   3.479   4.542  0.7244  0.6923  1.2455
   89SAPC  H19S 8463   4.394   3.333   4.629 -2.3403  2.1108 -1.4373
   89SAPC  C220 8464   4.554   3.323   4.481  0.0551  0.1538 -0.2553
   89SAPC  H20R 8465   4.648   3.370   4.445  0.7012 -1.5592 -0.8940
   89SAPC  H20S 8466   4.494   3.335   4.388  1.7643 -0.6484 -1.5257
   89SAPC  H20T 8467   4.570   3.214   4.495 -0.5452 -0.1590 -1.8216
   89SAPC   C33 8468   4.240   3.641   6.086  0.0379  0.2098  0.3533
   89SAPC   H3X 8469   4.217   3.548   6.142  0.7212 -0.8143 -0.9898
   89SAPC   H3Y 8470   4.337   3.624   6.034  0.4339  0.7065  0.9293
   89SAPC   C34 8471   4.134   3.653   5.974 -0.5643  0.3255 -0.1235
   89SAPC   H4X 8472   4.054   3.721   6.010 -0.6765 -0.9072  2.1359
   89SAPC   H4Y 8473   4.103   3.547   5.966 -1.9650  0.3912  2.9811
   89SAPC   C35 8474   4.191   3.710   5.844  0.2982  0.0940 -0.0882
   89SAPC   H5X 8475   4.285   3.657   5.817 -0.3909 -1.2519  0.0736
   89SAPC   H5Y 8476   4.225   3.814   5.863  1.7680 -0.4282  0.2053
   89SAPC   C36 8477   4.098   3.703   5.725 -0.0739 -0.7731  0.2806
   89SAPC   H6X 8478   4.003   3.757   5.742 -0.6296 -1.2431 -1.1818
   89SAPC   H6Y 8479   4.073   3.596   5.708  0.2665 -0.9112  0.6211
   89SAPC   C37 8480   4.156   3.765   5.595  0.2290 -0.2228 -0.4340
   89SAPC   H7X 8481   4.252   3.717   5.565  1.0703  0.1070  1.5371
   89SAPC   H7Y 8482   4.172   3.870   5.627  0.1074 -0.3426  0.0309
   89SAPC   C38 8483   4.055   3.770   5.473  0.1523 -0.6460  0.1130
   89SAPC   H8X 8484   3.979   3.842   5.510  0.9657  0.0384  0.4981
   89SAPC   H8Y 8485   4.002   3.673   5.479 -1.2364  0.0879  0.0851
   89SAPC   C39 8486   4.112   3.789   5.333  0.0117  0.1229 -0.4097
   89SAPC   H9X 8487   4.189   3.710   5.321 -0.1740 -0.1589  0.2478
   89SAPC   H9Y 8488   4.169   3.885   5.329  1.8624 -0.9154  0.1217
   89SAPC  C310 8489   4.015   3.784   5.218  0.2887 -0.4187 -0.4584
   89SAPC  H10X 8490   3.920   3.838   5.240 -0.6102 -1.3689 -1.8901
   89SAPC  H10Y 8491   3.993   3.676   5.218  0.3890 -0.4695  1.0359
   89SAPC  C311 8492   4.076   3.837   5.089  0.1929 -0.3119  0.1950
   89SAPC  H11X 8493   4.176   3.790   5.080 -0.3849 -1.5030 -0.3650
   89SAPC  H11Y 8494   4.082   3.947   5.095  1.3911 -0.4294  1.6747
   89SAPC  C312 8495   3.985   3.796   4.977 -0.5954 -0.3588  0.3913
   89SAPC  H12X 8496   3.879   3.828   4.986 -0.7908 -0.1763 -1.9132
   89SAPC  H12Y 8497   3.986   3.685   4.982 -0.0831 -0.3183  1.2493
   89SAPC  C313 8498   4.042   3.856   4.846 -0.4989 -0.3350  0.3015
   89SAPC  H13X 8499   4.151   3.872   4.860 -0.1300 -0.1093 -2.3110
   89SAPC  H13Y 8500   3.994   3.950   4.811  0.9267  0.0915 -0.6206
   89SAPC  C314 8501   4.040   3.747   4.728 -0.0306 -0.4144 -0.5356
   89SAPC  H14X 8502   4.071   3.648   4.768 -0.3910  0.6933  2.7826
   89SAPC  H14Y 8503   4.118   3.773   4.653  0.2947 -1.3025 -0.5203
   89SAPC  C315 8504   3.907   3.749   4.665  0.3366  0.2860 -0.5698
   89SAPC  H15X 8505   3.871   3.849   4.634 -1.7071  0.5758  2.2794
   89SAPC  H15Y 8506   3.829   3.717   4.738 -0.3168 -1.3096 -1.9140
   89SAPC  C316 8507   3.889   3.652   4.542  0.1390  0.3250 -0.1713
   89SAPC  H16X 8508   3.971   3.688   4.476  0.2566 -1.4705 -1.0505
   89SAPC  H16Y 8509   3.788   3.672   4.499  0.5381  2.6514 -0.1598
   89SAPC  C317 8510   3.893   3.504   4.568  0.1626 -0.3527 -0.0820
   89SAPC  H17X 8511   3.824   3.478   4.651 -0.0161  1.3342  0.3246
   89SAPC  H17Y 8512   3.993   3.462   4.594 -0.9352 -2.7974  0.4816
   89SAPC  C318 8513   3.842   3.418   4.444 -0.8236 -0.0391 -0.4251
   89SAPC  H18X 8514   3.897   3.456   4.356  1.1305  1.6377  1.3921
   89SAPC  H18Y 8515   3.734   3.434   4.423 -1.0173 -0.8484 -0.1054
   89SAPC  H18Z 8516   3.877   3.315   4.464 -0.2465  0.3812  0.8715
   90SAPC     N 8517   3.449   6.264   6.922  0.5122 -0.8635  0.3290
   90SAPC   C12 8518   3.343   6.162   6.960  0.2682  0.5968  0.1089
   90SAPC  H12A 8519   3.255   6.194   7.013 -0.2880  0.4287 -0.6850
   90SAPC  H12B 8520   3.384   6.087   7.026  0.1822 -0.0186 -0.5171
   90SAPC   C13 8521   3.565   6.197   6.862  0.2756  0.0794  0.2857
   90SAPC  H13A 8522   3.536   6.163   6.763 -1.5671  2.5506 -0.1308
   90SAPC  H13B 8523   3.643   6.265   6.833 -0.6680  0.3956 -1.6753
   90SAPC  H13C 8524   3.611   6.124   6.927  0.6919  1.0460  1.0809
   90SAPC   C14 8525   3.386   6.361   6.829  0.2206  0.2731 -0.4118
   90SAPC  H14A 8526   3.303   6.410   6.878 -0.2816 -0.2655 -0.7118
   90SAPC  H14B 8527   3.453   6.441   6.799 -1.1724  1.5095 -0.3436
   90SAPC  H14C 8528   3.326   6.315   6.752 -2.1066 -0.1095  1.5310
   90SAPC   C15 8529   3.485   6.340   7.049 -0.2521 -0.5106 -0.4175
   90SAPC  H15A 8530   3.399   6.384   7.097  0.9706  0.5673  0.8795
   90SAPC  H15B 8531   3.538   6.280   7.120  2.2760  0.4958 -1.3248
   90SAPC  H15C 8532   3.555   6.420   7.029 -0.2657 -0.6918 -1.2390
   90SAPC   C11 8533   3.273   6.090   6.841 -0.2816  0.3160  0.6789
   90SAPC  H11A 8534   3.226   6.000   6.888 -1.1141  0.4421  0.0966
   90SAPC  H11B 8535   3.344   6.052   6.764  3.3735  2.4075  2.7278
   90SAPC     P 8536   3.029   6.190   6.827  0.3958 -0.1582 -0.2585
   90SAPC   O13 8537   3.031   6.169   6.973 -1.0255 -0.1991 -0.1028
   90SAPC   O14 8538   2.965   6.316   6.766 -0.6715 -0.0395 -0.5843
   90SAPC   O12 8539   3.174   6.176   6.775  0.3410 -0.2107 -0.2644
   90SAPC   O11 8540   2.951   6.067   6.770  0.3991  0.2130  0.4024
   90SAPC    C1 8541   2.973   6.016   6.639  0.4662 -0.4508  0.0268
   90SAPC    HA 8542   3.077   6.033   6.604  0.0454  0.1319 -1.0172
   90SAPC    HB 8543   2.968   5.905   6.642  1.3348 -0.4990 -0.1716
   90SAPC    C2 8544   2.874   6.061   6.530  0.0777 -0.2956  0.3873
   90SAPC    HS 8545   2.778   6.051   6.585  0.3287  0.4908  0.9878
   90SAPC   O21 8546   2.881   5.965   6.424  0.4670  0.3569 -0.0959
   90SAPC   C21 8547   2.776   5.965   6.342  0.2595 -0.5773  0.5234
   90SAPC   O22 8548   2.665   6.003   6.369 -0.4198  0.5643  0.2549
   90SAPC   C22 8549   2.816   5.912   6.207 -0.0125 -0.2125 -0.5050
   90SAPC   H2R 8550   2.913   5.962   6.187 -0.5147  0.6659 -0.7847
   90SAPC   H2S 8551   2.834   5.802   6.200  0.0092 -0.1148 -3.0121
   90SAPC    C3 8552   2.904   6.204   6.467  0.1223  0.4166 -0.9900
   90SAPC    HX 8553   2.917   6.279   6.548 -0.4678 -2.2672  1.7657
   90SAPC    HY 8554   2.825   6.231   6.394  0.3714  0.2392 -1.3264
   90SAPC   O31 8555   3.035   6.186   6.410  0.0190 -0.5137  0.5150
   90SAPC   C31 8556   3.046   6.199   6.279 -0.6303 -0.4450  0.9904
   90SAPC   O32 8557   2.951   6.211   6.200 -0.3288  0.4658  0.3111
   90SAPC   C32 8558   3.192   6.184   6.225 -1.1459  0.4585  0.2002
   90SAPC   H2X 8559   3.229   6.084   6.254 -0.0922  0.5241 -0.8431
   90SAPC   H2Y 8560   3.260   6.260   6.268 -1.2797  1.7332 -1.7253
   90SAPC   C23 8561   2.707   5.946   6.101 -0.2709  0.1534 -0.3423
   90SAPC   H3R 8562   2.684   6.054   6.104 -0.7636  0.0830  3.4962
   90SAPC   H3S 8563   2.612   5.898   6.132 -1.6828  3.2008  0.4210
   90SAPC   C24 8564   2.733   5.896   5.957  0.2705  0.4017  0.2066
   90SAPC   H4R 8565   2.648   5.919   5.891 -0.8044 -0.7465  1.1458
   90SAPC   H4S 8566   2.739   5.786   5.944 -1.0682  0.4551 -1.1402
   90SAPC   C25 8567   2.866   5.948   5.910  0.1740 -0.1684 -0.2098
   90SAPC   H5R 8568   2.913   6.027   5.972 -0.0107 -1.7443  2.0840
   90SAPC   C26 8569   2.929   5.920   5.794  0.3600  0.7852  0.6751
   90SAPC   H6R 8570   3.019   5.979   5.769  0.9932 -0.6386 -0.5521
   90SAPC   C27 8571   2.895   5.813   5.690 -0.2679 -0.4302  0.1035
   90SAPC   H7R 8572   2.851   5.724   5.741 -1.2795  0.3409  0.6128
   90SAPC   H7S 8573   2.987   5.771   5.644 -1.1213 -0.8535 -1.2939
   90SAPC   C28 8574   2.794   5.862   5.596 -0.4556  0.6814  0.2098
   90SAPC   H8R 8575   2.701   5.887   5.650  1.7590  2.8518  3.3481
   90SAPC   C29 8576   2.793   5.851   5.463  0.5002  0.2686  0.8374
   90SAPC   H9R 8577   2.712   5.886   5.398  1.7510 -1.7039 -1.9955
   90SAPC  C210 8578   2.918   5.810   5.386  0.4189 -0.3776  0.6290
   90SAPC  H10R 8579   3.003   5.867   5.430  0.2128  0.4492 -0.0293
   90SAPC  H10S 8580   2.918   5.846   5.281  2.0904 -0.1031  0.6922
   90SAPC  C211 8581   2.926   5.660   5.392 -0.5180 -0.1840  0.3799
   90SAPC  H11R 8582   2.832   5.605   5.409  0.9668 -3.7503 -1.8450
   90SAPC  C212 8583   3.037   5.584   5.368  0.1722 -0.2177  0.0431
   90SAPC  H12R 8584   3.024   5.475   5.376 -0.2461 -0.1926 -0.2311
   90SAPC  C213 8585   3.182   5.631   5.361  0.7892 -0.7799  0.7174
   90SAPC  H13R 8586   3.189   5.734   5.402  2.3617 -0.4952 -0.1846
   90SAPC  H13S 8587   3.209   5.635   5.253  0.8544 -0.8179  0.7320
   90SAPC  C214 8588   3.279   5.538   5.434 -0.7249  0.3088  1.1714
   90SAPC  H14R 8589   3.334   5.576   5.521  1.2144 -0.6271  0.4299
   90SAPC  C215 8590   3.338   5.423   5.386 -0.2772 -0.5033  0.1482
   90SAPC  H15R 8591   3.414   5.372   5.447 -0.3417 -3.0913 -1.7784
   90SAPC  C216 8592   3.308   5.358   5.255 -0.3328  0.0557 -0.7194
   90SAPC  H16R 8593   3.225   5.400   5.194 -0.7815  0.8768  0.4196
   90SAPC  H16S 8594   3.280   5.251   5.268 -0.7643  0.4721  2.3273
   90SAPC  C217 8595   3.425   5.369   5.157  0.1538  0.0315  0.0711
   90SAPC  H17R 8596   3.412   5.281   5.091  0.1483  0.0793  0.0087
   90SAPC  H17S 8597   3.521   5.368   5.213 -0.6461  2.0944  1.6177
   90SAPC  C218 8598   3.423   5.500   5.073 -0.2754 -0.0439  0.0960
   90SAPC  H18R 8599   3.411   5.590   5.138  1.2857 -1.0292  1.8572
   90SAPC  H18S 8600   3.343   5.504   4.997  0.4868  1.1541 -0.6819
   90SAPC  C219 8601   3.542   5.529   4.986 -0.0863 -0.5183  0.3595
   90SAPC  H19R 8602   3.563   5.436   4.929 -0.6463 -1.0988  1.0791
   90SAPC  H19S 8603   3.628   5.550   5.053  0.7522  1.8496 -1.2971
   90SAPC  C220 8604   3.522   5.640   4.879  0.0473  0.2211 -0.2673
   90SAPC  H20R 8605   3.515   5.741   4.924  0.5455  0.0280  0.2503
   90SAPC  H20S 8606   3.422   5.629   4.831 -0.3555 -1.7401  0.8733
   90SAPC  H20T 8607   3.596   5.646   4.797  0.9735 -0.0396  0.5233
   90SAPC   C33 8608   3.193   6.207   6.070 -0.0844 -0.6458 -0.7374
   90SAPC   H3X 8609   3.112   6.151   6.018 -0.0322 -0.9795 -0.4615
   90SAPC   H3Y 8610   3.280   6.158   6.023 -0.0427 -0.8387 -0.4569
   90SAPC   C34 8611   3.190   6.351   6.025 -0.0103  0.3508  0.1609
   90SAPC   H4X 8612   3.278   6.406   6.066 -0.4480  1.5504 -0.4502
   90SAPC   H4Y 8613   3.106   6.401   6.078  0.1058  1.3418 -0.5684
   90SAPC   C35 8614   3.184   6.365   5.872  0.0539 -0.1202 -0.3343
   90SAPC   H5X 8615   3.110   6.291   5.836  1.6294 -2.2009  0.4838
   90SAPC   H5Y 8616   3.284   6.342   5.829  0.1816 -0.1703 -0.0165
   90SAPC   C36 8617   3.153   6.503   5.829 -0.2469  0.5908  0.1500
   90SAPC   H6X 8618   3.213   6.585   5.874  1.5576  0.5669 -2.0345
   90SAPC   H6Y 8619   3.046   6.524   5.851 -0.1347  0.6373  0.6572
   90SAPC   C37 8620   3.166   6.523   5.677 -0.0394  0.0998  0.0322
   90SAPC   H7X 8621   3.099   6.599   5.631 -0.0882 -0.0503 -0.1446
   90SAPC   H7Y 8622   3.144   6.429   5.623 -0.6049  0.3921 -0.2516
   90SAPC   C38 8623   3.306   6.573   5.642 -0.1521 -0.2780  0.3447
   90SAPC   H8X 8624   3.374   6.492   5.677 -1.4483 -0.6113  2.2149
   90SAPC   H8Y 8625   3.326   6.668   5.694  0.4024  0.1136 -0.5551
   90SAPC   C39 8626   3.320   6.586   5.493 -0.0042  0.0942 -0.3767
   90SAPC   H9X 8627   3.265   6.669   5.443 -0.0501  0.3150  0.0343
   90SAPC   H9Y 8628   3.265   6.495   5.460 -2.2494  0.6089  1.7014
   90SAPC  C310 8629   3.462   6.594   5.448  0.3300  0.5111 -0.1773
   90SAPC  H10X 8630   3.531   6.525   5.503  1.1245  1.9570  0.7054
   90SAPC  H10Y 8631   3.498   6.696   5.471  0.2999  0.6234 -0.6384
   90SAPC  C311 8632   3.469   6.581   5.300 -0.2769  0.1223  0.8087
   90SAPC  H11X 8633   3.571   6.620   5.281 -0.3867  1.1447  2.1650
   90SAPC  H11Y 8634   3.402   6.650   5.245 -0.8175  1.4594  3.0047
   90SAPC  C312 8635   3.464   6.442   5.240 -0.1158 -0.4046 -0.6826
   90SAPC  H12X 8636   3.363   6.403   5.214  0.4221 -1.0661 -1.8899
   90SAPC  H12Y 8637   3.521   6.372   5.305  1.5579  3.3953  2.3073
   90SAPC  C313 8638   3.513   6.444   5.094  0.0174  0.3322  0.8502
   90SAPC  H13X 8639   3.611   6.489   5.067  0.3128 -0.7057  0.1358
   90SAPC  H13Y 8640   3.438   6.507   5.043  0.5383  0.7536  0.5922
   90SAPC  C314 8641   3.521   6.296   5.032 -0.2437 -0.0453  0.5267
   90SAPC  H14X 8642   3.429   6.239   5.057  0.9581 -1.4819  1.9211
   90SAPC  H14Y 8643   3.612   6.246   5.071  1.5168  3.2041  0.9747
   90SAPC  C315 8644   3.546   6.300   4.882  0.3370 -0.6231  0.2039
   90SAPC  H15X 8645   3.648   6.345   4.876 -0.4293  1.0529 -0.7325
   90SAPC  H15Y 8646   3.479   6.372   4.830  1.7362 -1.6380 -3.3301
   90SAPC  C316 8647   3.526   6.160   4.825 -0.2221  0.6297  0.0612
   90SAPC  H16X 8648   3.416   6.142   4.825 -0.0953 -0.8760  3.5476
   90SAPC  H16Y 8649   3.586   6.094   4.891 -1.6849 -1.7151 -0.8141
   90SAPC  C317 8650   3.578   6.143   4.681 -0.2268  0.5605 -0.5391
   90SAPC  H17X 8651   3.685   6.170   4.666 -0.7574  2.2414 -1.6168
   90SAPC  H17Y 8652   3.532   6.228   4.626  0.4592  0.7723 -0.8003
   90SAPC  C318 8653   3.539   6.005   4.632 -0.5700 -0.2992  0.4687
   90SAPC  H18X 8654   3.557   5.987   4.524 -1.1315 -0.2163  0.3540
   90SAPC  H18Y 8655   3.428   6.007   4.641 -0.4784  2.4281  2.0949
   90SAPC  H18Z 8656   3.577   5.927   4.701  0.7826  0.3159  0.4356
   91SAPC     N 8657   6.261   6.275   6.722 -0.3327 -0.1579 -0.7834
   91SAPC   C12 8658   6.207   6.191   6.609 -0.6239 -0.3694 -0.4783
   91SAPC  H12A 8659   6.186   6.256   6.526  1.3427 -0.0368 -0.7615
   91SAPC  H12B 8660   6.112   6.156   6.646 -0.2888  1.1101  2.0550
   91SAPC   C13 8661   6.392   6.333   6.696 -0.4085  0.2485 -0.4253
   91SAPC  H13A 8662   6.391   6.379   6.598 -2.5167  1.1216 -0.0576
   91SAPC  H13B 8663   6.424   6.398   6.776 -0.9521 -1.4871  1.2981
   91SAPC  H13C 8664   6.456   6.247   6.688 -0.0386  0.4747  0.0686
   91SAPC   C14 8665   6.164   6.396   6.731  0.3838  0.7763 -0.0083
   91SAPC  H14A 8666   6.068   6.358   6.764 -1.0545  0.9969 -3.5788
   91SAPC  H14B 8667   6.213   6.462   6.801  1.6123 -0.9335  0.8195
   91SAPC  H14C 8668   6.164   6.449   6.637  1.6651 -0.0129 -0.4720
   91SAPC   C15 8669   6.257   6.192   6.848 -0.8434  0.1732 -0.5318
   91SAPC  H15A 8670   6.333   6.116   6.838 -1.0298 -0.1256  0.2644
   91SAPC  H15B 8671   6.264   6.249   6.939 -0.3440 -0.7414  0.0133
   91SAPC  H15C 8672   6.161   6.142   6.850  0.1599 -1.9044  2.6278
   91SAPC   C11 8673   6.290   6.076   6.559  0.7291 -0.4943 -0.4422
   91SAPC  H11A 8674   6.372   6.117   6.496 -0.3971 -1.6051 -2.7425
   91SAPC  H11B 8675   6.224   6.029   6.483 -2.0710  1.1740  0.7836
   91SAPC     P 8676   6.470   5.938   6.695  0.2349 -0.4157  0.2222
   91SAPC   O13 8677   6.551   6.060   6.725 -0.3702 -0.3627 -0.0195
   91SAPC   O14 8678   6.468   5.830   6.796 -0.1249 -0.0917 -0.1045
   91SAPC   O12 8679   6.320   5.978   6.664 -0.1561  0.1778 -0.8365
   91SAPC   O11 8680   6.514   5.881   6.557  0.1867  0.2806  0.1210
   91SAPC    C1 8681   6.439   5.796   6.477 -0.1838  0.6738  0.1878
   91SAPC    HA 8682   6.463   5.693   6.512 -3.4849  0.0743  1.0010
   91SAPC    HB 8683   6.331   5.796   6.503 -0.3375  0.3769 -0.4078
   91SAPC    C2 8684   6.464   5.819   6.332  0.2677  0.1544  0.6747
   91SAPC    HS 8685   6.574   5.809   6.324  0.2936  1.2568 -0.8427
   91SAPC   O21 8686   6.428   5.955   6.310  1.1749 -0.0453  1.0089
   91SAPC   C21 8687   6.486   6.018   6.204  0.7678  0.1879 -0.1357
   91SAPC   O22 8688   6.588   5.978   6.146 -0.6026  0.3246 -0.1294
   91SAPC   C22 8689   6.384   6.131   6.160  0.0686  0.6570 -0.1434
   91SAPC   H2R 8690   6.282   6.087   6.155 -0.3917  1.2955  2.1537
   91SAPC   H2S 8691   6.381   6.199   6.248 -5.0863  3.1265 -1.8474
   91SAPC    C3 8692   6.398   5.720   6.240 -1.0669  0.0623 -0.1780
   91SAPC    HX 8693   6.289   5.733   6.255 -1.2135  0.3505 -1.4072
   91SAPC    HY 8694   6.421   5.619   6.279 -1.0458  0.3792  0.6598
   91SAPC   O31 8695   6.442   5.716   6.100  0.0070 -0.2145  0.7537
   91SAPC   C31 8696   6.366   5.773   6.017 -0.6897 -0.3775  0.7226
   91SAPC   O32 8697   6.268   5.836   6.049 -0.0698 -0.2021  0.1717
   91SAPC   C32 8698   6.396   5.724   5.874  0.3406  0.0143  0.2766
   91SAPC   H2X 8699   6.452   5.628   5.874 -0.2867 -0.3887 -1.5255
   91SAPC   H2Y 8700   6.459   5.800   5.823  1.4275 -2.0661 -1.7003
   91SAPC   C23 8701   6.426   6.215   6.037 -0.0103 -0.0156 -0.3594
   91SAPC   H3R 8702   6.536   6.232   6.035  0.0646 -0.5230 -1.3206
   91SAPC   H3S 8703   6.365   6.307   6.046 -1.8093 -1.2643  0.6572
   91SAPC   C24 8704   6.378   6.156   5.899  0.5502 -0.1271  0.7713
   91SAPC   H4R 8705   6.269   6.137   5.907 -0.0406  0.8956 -2.7648
   91SAPC   H4S 8706   6.429   6.060   5.875 -1.8040 -1.5059  0.9900
   91SAPC   C25 8707   6.394   6.265   5.792  0.3214 -0.2081  0.3025
   91SAPC   H5R 8708   6.416   6.368   5.824  1.8871 -0.5394  0.3791
   91SAPC   C26 8709   6.371   6.230   5.663  0.1711  0.2382 -0.3017
   91SAPC   H6R 8710   6.380   6.302   5.581  0.2833  0.7027  0.1111
   91SAPC   C27 8711   6.327   6.097   5.620  0.2485  0.7339  0.2314
   91SAPC   H7R 8712   6.278   6.033   5.697 -0.5337 -0.9980 -1.6133
   91SAPC   H7S 8713   6.417   6.037   5.595 -1.4002 -1.8290  0.1044
   91SAPC   C28 8714   6.227   6.112   5.506  0.0198  0.3579  0.2134
   91SAPC   H8R 8715   6.123   6.145   5.518  0.0316  1.6079 -2.3397
   91SAPC   C29 8716   6.245   6.070   5.376  0.6079 -0.0783  0.3658
   91SAPC   H9R 8717   6.155   6.050   5.317 -0.4233 -0.3706  1.9563
   91SAPC  C210 8718   6.373   6.013   5.327 -0.2464 -0.2034 -0.4160
   91SAPC  H10R 8719   6.381   5.925   5.396 -0.8537  0.1885  0.1654
   91SAPC  H10S 8720   6.456   6.084   5.348  0.1672 -0.9025  0.3909
   91SAPC  C211 8721   6.385   5.968   5.178 -0.0912 -0.9295 -0.1523
   91SAPC  H11R 8722   6.332   5.874   5.158 -0.1782 -0.7639 -0.6913
   91SAPC  C212 8723   6.447   6.038   5.079  0.1941 -0.6512 -0.1012
   91SAPC  H12R 8724   6.442   5.995   4.977 -0.1654  0.2724 -0.4919
   91SAPC  C213 8725   6.540   6.149   5.095  0.1720 -0.1398  1.0248
   91SAPC  H13R 8726   6.636   6.125   5.045  0.5155  2.0961  0.4989
   91SAPC  H13S 8727   6.565   6.179   5.199  0.5061  1.3072  0.5488
   91SAPC  C214 8728   6.476   6.275   5.046 -0.0219  0.0994  0.2047
   91SAPC  H14R 8729   6.434   6.345   5.119 -0.4147  1.2197 -1.0616
   91SAPC  C215 8730   6.453   6.302   4.919 -0.4678 -0.3349  0.0751
   91SAPC  H15R 8731   6.410   6.398   4.887 -0.1277  0.0300  0.6928
   91SAPC  C216 8732   6.495   6.215   4.798  0.1283  0.3044  0.5266
   91SAPC  H16R 8733   6.560   6.129   4.824 -1.7356 -1.5143 -0.5128
   91SAPC  H16S 8734   6.551   6.276   4.723 -0.2378 -0.4416 -0.3754
   91SAPC  C217 8735   6.367   6.176   4.728  0.0178 -0.6342 -0.1275
   91SAPC  H17R 8736   6.296   6.259   4.707  2.9605  2.2430  0.4864
   91SAPC  H17S 8737   6.316   6.101   4.793  1.0868 -0.7858  0.5665
   91SAPC  C218 8738   6.411   6.116   4.590  1.1007  0.1313  0.5090
   91SAPC  H18R 8739   6.440   6.011   4.608  0.2304 -0.1682  0.1792
   91SAPC  H18S 8740   6.500   6.170   4.550 -0.0353  1.4100 -0.3670
   91SAPC  C219 8741   6.292   6.099   4.489 -0.3781  0.2683  0.8283
   91SAPC  H19R 8742   6.325   6.037   4.403 -1.7098 -0.8523  1.0804
   91SAPC  H19S 8743   6.262   6.191   4.436 -3.8417 -1.4532 -0.5203
   91SAPC  C220 8744   6.168   6.024   4.547  0.1316  0.9712 -0.1862
   91SAPC  H20R 8745   6.198   5.922   4.577  0.2424  0.2175 -2.6262
   91SAPC  H20S 8746   6.099   6.014   4.460  0.1789 -0.3604 -0.0904
   91SAPC  H20T 8747   6.118   6.078   4.630 -1.3650  0.2542 -0.5891
   91SAPC   C33 8748   6.279   5.705   5.776  0.1186 -0.2268  0.0442
   91SAPC   H3X 8749   6.207   5.788   5.797  1.4377  0.5150  1.9053
   91SAPC   H3Y 8750   6.232   5.605   5.786 -0.4942 -0.0308 -0.7588
   91SAPC   C34 8751   6.317   5.707   5.629  0.5704 -1.0976  0.7967
   91SAPC   H4X 8752   6.371   5.803   5.610 -0.0050 -0.9713 -0.2593
   91SAPC   H4Y 8753   6.226   5.712   5.566  1.3123 -1.0301 -0.3172
   91SAPC   C35 8754   6.400   5.582   5.582 -0.0869 -0.2810  1.2172
   91SAPC   H5X 8755   6.348   5.484   5.589  0.0818 -0.4684  0.0359
   91SAPC   H5Y 8756   6.491   5.584   5.646  1.1489 -1.5233 -0.4336
   91SAPC   C36 8757   6.442   5.587   5.431 -0.0036 -0.3523  0.4047
   91SAPC   H6X 8758   6.505   5.500   5.402  0.2509 -0.6794  1.8589
   91SAPC   H6Y 8759   6.508   5.673   5.407  0.3131 -0.8857 -0.7098
   91SAPC   C37 8760   6.328   5.588   5.331 -0.3178  0.0104  0.3790
   91SAPC   H7X 8761   6.260   5.676   5.333 -1.7117 -1.0121 -0.2934
   91SAPC   H7Y 8762   6.266   5.496   5.335  0.8184 -0.8999 -1.6286
   91SAPC   C38 8763   6.390   5.579   5.193  0.0780 -0.7708  0.4933
   91SAPC   H8X 8764   6.472   5.504   5.180  0.6854  0.3688 -3.2317
   91SAPC   H8Y 8765   6.457   5.667   5.179 -1.0226 -0.2329 -1.8549
   91SAPC   C39 8766   6.287   5.543   5.085  0.1522  0.3009 -0.1183
   91SAPC   H9X 8767   6.199   5.496   5.134  0.1171  0.1005 -0.3713
   91SAPC   H9Y 8768   6.313   5.474   5.002 -0.0882 -0.8071  0.7133
   91SAPC  C310 8769   6.219   5.658   5.008 -0.2755 -0.7464  0.0545
   91SAPC  H10X 8770   6.199   5.734   5.087 -2.4031 -1.8487  0.6341
   91SAPC  H10Y 8771   6.114   5.643   4.973 -0.5344  0.6934  0.1375
   91SAPC  C311 8772   6.312   5.711   4.895 -0.0264 -0.8511 -0.4501
   91SAPC  H11X 8773   6.420   5.712   4.923 -0.5102  1.9365  1.7277
   91SAPC  H11Y 8774   6.287   5.817   4.876  2.1681 -0.4947 -1.6421
   91SAPC  C312 8775   6.314   5.631   4.761  0.2942 -0.0857 -0.4918
   91SAPC  H12X 8776   6.210   5.636   4.722  0.4755  1.0240 -0.8771
   91SAPC  H12Y 8777   6.341   5.529   4.795  2.6023  0.7647  0.4675
   91SAPC  C313 8778   6.420   5.682   4.662  0.0290 -0.5813  0.0350
   91SAPC  H13X 8779   6.521   5.681   4.710  1.1852  1.2539 -2.1252
   91SAPC  H13Y 8780   6.405   5.788   4.631  0.8677  0.3114  2.4330
   91SAPC  C314 8781   6.430   5.593   4.527 -0.7707  0.0129  0.1814
   91SAPC  H14X 8782   6.429   5.491   4.572 -1.7978 -0.4804 -0.8968
   91SAPC  H14Y 8783   6.521   5.632   4.477 -1.8399  0.9824 -1.0481
   91SAPC  C315 8784   6.314   5.605   4.426 -0.4190 -0.0317  0.0395
   91SAPC  H15X 8785   6.279   5.710   4.434  0.6658  0.2864  0.9156
   91SAPC  H15Y 8786   6.229   5.541   4.459 -0.3767  0.5337  1.3027
   91SAPC  C316 8787   6.339   5.598   4.271 -0.0003  0.9935  0.1927
   91SAPC  H16X 8788   6.259   5.541   4.220  2.2526 -1.0273 -1.2872
   91SAPC  H16Y 8789   6.415   5.522   4.246 -3.0520 -2.8958  1.6798
   91SAPC  C317 8790   6.353   5.739   4.198 -0.2798 -0.2704 -0.0108
   91SAPC  H17X 8791   6.437   5.794   4.244 -0.9595 -0.6265  1.7374
   91SAPC  H17Y 8792   6.264   5.803   4.216  1.5530  2.5346 -0.4431
   91SAPC  C318 8793   6.381   5.725   4.046  0.1294  0.0060  0.3502
   91SAPC  H18X 8794   6.479   5.677   4.029  0.1820 -0.3243  1.4810
   91SAPC  H18Y 8795   6.413   5.822   4.003  1.0159  0.5303  2.0677
   91SAPC  H18Z 8796   6.299   5.671   3.995  1.1042 -2.0518  0.8464
   92SAPC     N 8797   5.455   5.088   6.749  0.6254 -0.3882 -0.0490
   92SAPC   C12 8798   5.560   4.988   6.710 -0.1245  0.0016  0.4632
   92SAPC  H12A 8799   5.531   4.888   6.738  0.7034 -0.9346 -1.7702
   92SAPC  H12B 8800   5.645   5.020   6.769 -1.1773  0.2376  1.9201
   92SAPC   C13 8801   5.329   5.078   6.665 -0.3538 -0.0744 -0.1133
   92SAPC  H13A 8802   5.256   5.155   6.683 -1.2016 -1.0214  0.6272
   92SAPC  H13B 8803   5.356   5.094   6.562  2.5306  1.5971  0.7997
   92SAPC  H13C 8804   5.273   4.990   6.694 -0.6100 -0.3378 -1.3486
   92SAPC   C14 8805   5.411   5.064   6.896 -0.4936 -0.1132  0.5688
   92SAPC  H14A 8806   5.385   4.963   6.926 -1.3844  0.0809  0.4739
   92SAPC  H14B 8807   5.494   5.075   6.964 -0.2758 -2.2744  0.7205
   92SAPC  H14C 8808   5.326   5.126   6.922  0.2472  0.8558  0.7263
   92SAPC   C15 8809   5.505   5.233   6.728 -0.3060  0.4265 -0.1979
   92SAPC  H15A 8810   5.519   5.256   6.623 -0.1686  2.8567  0.3087
   92SAPC  H15B 8811   5.427   5.303   6.751 -0.7485 -0.2676  0.4606
   92SAPC  H15C 8812   5.597   5.248   6.783  0.3809 -1.6538 -0.6726
   92SAPC   C11 8813   5.609   4.987   6.562  0.7939  0.5179 -0.5458
   92SAPC  H11A 8814   5.523   4.997   6.492 -0.1765  0.1817  0.5734
   92SAPC  H11B 8815   5.662   4.893   6.538 -0.0534  0.6292 -3.2226
   92SAPC     P 8816   5.843   5.097   6.618 -0.1736 -0.1575  0.9223
   92SAPC   O13 8817   5.814   5.161   6.743  0.6047  0.1114  0.1459
   92SAPC   O14 8818   5.900   4.965   6.629  0.5477  0.7886 -0.4165
   92SAPC   O12 8819   5.708   5.089   6.536  0.4073  0.4406 -0.4061
   92SAPC   O11 8820   5.954   5.184   6.533  0.2503 -0.1056  0.2020
   92SAPC    C1 8821   5.939   5.188   6.394 -0.0217 -0.4129  0.0012
   92SAPC    HA 8822   5.917   5.088   6.352 -2.1451 -0.4283  1.0417
   92SAPC    HB 8823   5.847   5.247   6.377 -0.2048 -0.6417  0.1944
   92SAPC    C2 8824   6.052   5.256   6.320 -0.1844 -0.0449 -0.0768
   92SAPC    HS 8825   6.057   5.361   6.358 -2.2733  0.3206 -0.6972
   92SAPC   O21 8826   6.006   5.259   6.185  0.0626  0.7530  0.1127
   92SAPC   C21 8827   6.039   5.371   6.118 -0.5366  0.2075 -0.0837
   92SAPC   O22 8828   6.106   5.466   6.157 -0.4149  0.2197 -0.5122
   92SAPC   C22 8829   5.993   5.369   5.971 -0.0001  0.3364 -1.0138
   92SAPC   H2R 8830   5.910   5.296   5.959  0.6319 -0.0810 -3.2625
   92SAPC   H2S 8831   5.954   5.466   5.935 -1.5095  0.3254  0.4537
   92SAPC    C3 8832   6.190   5.196   6.346 -0.0237  0.3593  0.4101
   92SAPC    HX 8833   6.188   5.096   6.299  0.9110  0.6077 -0.1688
   92SAPC    HY 8834   6.209   5.170   6.453  0.6036  0.7001  0.3822
   92SAPC   O31 8835   6.298   5.286   6.299  0.2217  0.1561  0.2742
   92SAPC   C31 8836   6.344   5.246   6.182 -0.1449  0.4043 -0.2059
   92SAPC   O32 8837   6.295   5.161   6.113 -0.2682  0.4639  0.3038
   92SAPC   C32 8838   6.453   5.339   6.134  0.0922 -0.0557 -0.3082
   92SAPC   H2X 8839   6.539   5.344   6.205  1.6553 -2.9667 -1.8175
   92SAPC   H2Y 8840   6.411   5.442   6.133 -0.1716 -0.1334  1.2552
   92SAPC   C23 8841   6.108   5.324   5.870  0.3762  0.4219 -0.3255
   92SAPC   H3R 8842   6.141   5.224   5.906 -0.9554  0.0384 -0.1092
   92SAPC   H3S 8843   6.191   5.398   5.875 -0.6908  1.6016  4.0721
   92SAPC   C24 8844   6.041   5.313   5.730 -0.2797  0.0603 -0.3184
   92SAPC   H4R 8845   6.014   5.410   5.684 -0.8120 -0.5114 -1.2483
   92SAPC   H4S 8846   5.943   5.263   5.749  0.0251  0.3492  2.4523
   92SAPC   C25 8847   6.130   5.222   5.646  0.5264 -0.2324 -0.2907
   92SAPC   H5R 8848   6.178   5.137   5.696 -0.2342  1.1993  3.1366
   92SAPC   C26 8849   6.131   5.240   5.518 -0.4839  0.9338  0.4529
   92SAPC   H6R 8850   6.201   5.170   5.472 -2.3566 -0.6117 -0.1857
   92SAPC   C27 8851   6.053   5.336   5.431 -0.1936  0.1293 -0.1994
   92SAPC   H7R 8852   6.109   5.339   5.336 -0.0750 -0.5667 -0.1547
   92SAPC   H7S 8853   6.059   5.433   5.485 -0.1955  1.2823 -2.1926
   92SAPC   C28 8854   5.905   5.319   5.407  0.0418 -0.0882 -0.6445
   92SAPC   H8R 8855   5.849   5.283   5.495  0.6287  1.1693  0.2736
   92SAPC   C29 8856   5.841   5.351   5.292 -0.6201  0.1669 -0.5884
   92SAPC   H9R 8857   5.732   5.341   5.298 -0.7197  0.8317 -1.1520
   92SAPC  C210 8858   5.892   5.407   5.159  1.0390  0.4038 -0.4056
   92SAPC  H10R 8859   5.961   5.489   5.189 -0.6170  2.4605 -1.9614
   92SAPC  H10S 8860   5.808   5.462   5.112 -0.1591 -0.0507  1.1226
   92SAPC  C211 8861   5.942   5.313   5.057 -0.6098  0.6767  0.8025
   92SAPC  H11R 8862   6.044   5.280   5.081 -0.6669 -0.4978 -0.4348
   92SAPC  C212 8863   5.868   5.246   4.964  0.0044  0.6020  0.2374
   92SAPC  H12R 8864   5.922   5.177   4.897  0.8035 -0.8903  2.2825
   92SAPC  C213 8865   5.720   5.268   4.939  0.2436  0.3723 -0.6978
   92SAPC  H13R 8866   5.701   5.339   4.856  0.1683  0.6229 -0.4691
   92SAPC  H13S 8867   5.661   5.305   5.027  1.5834 -1.4196  1.0499
   92SAPC  C214 8868   5.650   5.143   4.901 -0.0115  0.5792  1.0310
   92SAPC  H14R 8869   5.625   5.076   4.985  0.9713  0.0393  0.9121
   92SAPC  C215 8870   5.610   5.098   4.779 -0.0477  0.1405  0.3770
   92SAPC  H15R 8871   5.560   5.000   4.779  0.2429 -0.0103  0.4076
   92SAPC  C216 8872   5.616   5.160   4.642  0.2949 -0.2779  0.5388
   92SAPC  H16R 8873   5.684   5.100   4.578  0.4478  0.4747 -0.0124
   92SAPC  H16S 8874   5.655   5.261   4.665 -0.8751 -0.0977  1.8709
   92SAPC  C217 8875   5.476   5.175   4.587  0.3970  0.8959 -0.0685
   92SAPC  H17R 8876   5.427   5.243   4.660  0.4980  0.3133  0.5481
   92SAPC  H17S 8877   5.433   5.072   4.591 -0.9387  1.4611  1.0182
   92SAPC  C218 8878   5.477   5.225   4.438 -0.0739 -0.5238 -0.3976
   92SAPC  H18R 8879   5.577   5.266   4.412  1.3416 -2.1361  2.0544
   92SAPC  H18S 8880   5.397   5.302   4.433 -0.1362 -0.3988  1.6943
   92SAPC  C219 8881   5.447   5.102   4.343  0.2247  0.0870  0.2463
   92SAPC  H19R 8882   5.459   5.142   4.240  4.9346  0.2660  0.6437
   92SAPC  H19S 8883   5.342   5.065   4.352 -0.4109  0.9397 -2.6067
   92SAPC  C220 8884   5.552   4.988   4.354  0.5259  0.5398 -0.7059
   92SAPC  H20R 8885   5.557   4.950   4.250  0.7015  2.8684 -1.6042
   92SAPC  H20S 8886   5.511   4.918   4.431 -0.4251  1.5490 -0.2617
   92SAPC  H20T 8887   5.648   5.033   4.387  1.4670 -1.5918 -0.4188
   92SAPC   C33 8888   6.507   5.295   6.001 -0.0371 -0.4707 -0.3033
   92SAPC   H3X 8889   6.439   5.315   5.915 -2.7980  0.7122  1.9838
   92SAPC   H3Y 8890   6.529   5.186   6.010  0.4716 -0.3340  0.0969
   92SAPC   C34 8891   6.649   5.341   5.972  0.3039  0.1950  0.9565
   92SAPC   H4X 8892   6.725   5.305   6.044  0.8621  0.3912  0.4655
   92SAPC   H4Y 8893   6.640   5.451   5.986  1.9517  1.1874 -3.7634
   92SAPC   C35 8894   6.689   5.305   5.827 -0.3254 -0.3024  0.2435
   92SAPC   H5X 8895   6.636   5.358   5.746  2.2800  0.5593 -1.0179
   92SAPC   H5Y 8896   6.657   5.199   5.812 -0.4707 -0.2842  0.4248
   92SAPC   C36 8897   6.841   5.319   5.792 -0.0865  0.1408  0.7953
   92SAPC   H6X 8898   6.908   5.272   5.866  3.0793  1.4504 -1.0700
   92SAPC   H6Y 8899   6.867   5.426   5.799 -1.2274  0.4038  1.3205
   92SAPC   C37 8900   6.889   5.267   5.652  0.6307  0.3072  0.5167
   92SAPC   H7X 8901   6.852   5.165   5.629  2.1969 -0.5836  1.6743
   92SAPC   H7Y 8902   7.000   5.271   5.641  0.4379  0.5867 -1.7615
   92SAPC   C38 8903   6.835   5.356   5.543 -0.2474 -0.3302 -0.1120
   92SAPC   H8X 8904   6.877   5.459   5.547 -1.2229  0.0670  0.0092
   92SAPC   H8Y 8905   6.725   5.363   5.557 -0.5274 -1.0420 -1.6752
   92SAPC   C39 8906   6.849   5.295   5.401  0.7329  0.0302 -0.0628
   92SAPC   H9X 8907   6.817   5.190   5.420  0.2137  0.4936  1.8520
   92SAPC   H9Y 8908   6.956   5.294   5.373  0.8150  0.0701  0.2468
   92SAPC  C310 8909   6.764   5.370   5.292 -0.1701  0.0803 -0.2670
   92SAPC  H10X 8910   6.808   5.472   5.287  1.5886 -0.4065  2.5189
   92SAPC  H10Y 8911   6.663   5.381   5.336 -0.0783 -1.5118  0.4077
   92SAPC  C311 8912   6.757   5.304   5.156  0.2112  0.2531 -0.1191
   92SAPC  H11X 8913   6.684   5.368   5.101  1.4489  0.3505 -1.7288
   92SAPC  H11Y 8914   6.725   5.198   5.159  1.3707 -0.1064 -0.1153
   92SAPC  C312 8915   6.891   5.311   5.077  0.5653 -0.1975 -0.5092
   92SAPC  H12X 8916   6.962   5.243   5.129 -1.2572 -1.4081  0.4882
   92SAPC  H12Y 8917   6.924   5.415   5.094  0.4935 -0.3956  1.0190
   92SAPC  C313 8918   6.884   5.268   4.931  0.7894  0.2226  0.7288
   92SAPC  H13X 8919   6.850   5.165   4.907  0.7009  0.4902 -0.3550
   92SAPC  H13Y 8920   6.990   5.278   4.898  0.5346  2.6354  0.4375
   92SAPC  C314 8921   6.799   5.359   4.843  0.2499 -0.5479  0.0512
   92SAPC  H14X 8922   6.815   5.469   4.854 -0.9214 -0.2771 -0.7534
   92SAPC  H14Y 8923   6.690   5.351   4.863 -0.2005  1.8745 -1.0436
   92SAPC  C315 8924   6.816   5.334   4.684  0.1418 -0.2191 -0.3521
   92SAPC  H15X 8925   6.768   5.241   4.646  1.0890  0.1020 -2.5139
   92SAPC  H15Y 8926   6.922   5.309   4.662  0.6010  0.6816  0.7125
   92SAPC  C316 8927   6.742   5.442   4.603  0.0477  0.2296  0.3474
   92SAPC  H16X 8928   6.815   5.524   4.617 -0.4905  0.5408  1.4302
   92SAPC  H16Y 8929   6.650   5.477   4.656 -0.0230 -1.6780  1.5966
   92SAPC  C317 8930   6.720   5.418   4.456 -0.0398  0.3347 -0.0870
   92SAPC  H17X 8931   6.827   5.410   4.427  0.5791  1.6773  1.7148
   92SAPC  H17Y 8932   6.666   5.497   4.399  1.3608  1.0790 -0.4329
   92SAPC  C318 8933   6.644   5.284   4.419  0.0572  0.6349  0.5376
   92SAPC  H18X 8934   6.536   5.300   4.437 -0.1669 -0.6499  0.4398
   92SAPC  H18Y 8935   6.678   5.184   4.454 -0.4123 -0.4688 -1.9273
   92SAPC  H18Z 8936   6.642   5.273   4.309 -1.1969  1.4643  0.4584
   93SAPC     N 8937   0.851   6.663   6.722  0.0614  0.1069  0.2237
   93SAPC   C12 8938   0.854   6.711   6.581 -0.2964  0.1595 -1.0746
   93SAPC  H12A 8939   0.949   6.763   6.570 -1.1627  1.8553 -0.9719
   93SAPC  H12B 8940   0.780   6.789   6.566  0.6408  0.9298 -1.9031
   93SAPC   C13 8941   0.951   6.556   6.742  0.4333  0.0276  0.1082
   93SAPC  H13A 8942   1.049   6.596   6.722  0.9990  0.6772  3.5455
   93SAPC  H13B 8943   0.953   6.527   6.846 -2.3782  0.0365  0.2426
   93SAPC  H13C 8944   0.932   6.470   6.678 -0.2161 -0.1317  0.4980
   93SAPC   C14 8945   0.896   6.775   6.815 -0.2371  0.1015 -0.5763
   93SAPC  H14A 8946   0.822   6.851   6.834  0.3255  0.3009  0.9341
   93SAPC  H14B 8947   0.912   6.732   6.913  1.2728 -1.3309 -1.4057
   93SAPC  H14C 8948   0.986   6.826   6.782 -0.2049  1.0790  0.8950
   93SAPC   C15 8949   0.721   6.596   6.765  0.0825 -0.8065 -0.3005
   93SAPC  H15A 8950   0.648   6.674   6.782 -0.7458 -1.8961  1.4732
   93SAPC  H15B 8951   0.689   6.518   6.697  2.5194 -1.7436 -0.4662
   93SAPC  H15C 8952   0.729   6.549   6.862 -2.2497 -2.0048 -0.6197
   93SAPC   C11 8953   0.833   6.603   6.466  0.6808  0.4877  0.2215
   93SAPC  H11A 8954   0.911   6.528   6.493 -1.3697 -1.5589  0.7172
   93SAPC  H11B 8955   0.853   6.638   6.363 -1.0509  0.2592 -0.2194
   93SAPC     P 8956   0.584   6.647   6.437  0.1250  0.2858  0.3929
   93SAPC   O13 8957   0.474   6.617   6.531 -0.4807 -0.3542  0.5523
   93SAPC   O14 8958   0.636   6.785   6.434  0.4293  0.1465  0.9608
   93SAPC   O12 8959   0.699   6.549   6.472  0.0478  0.4796 -0.3009
   93SAPC   O11 8960   0.529   6.604   6.293 -0.3962 -0.1456 -0.1064
   93SAPC    C1 8961   0.544   6.461   6.266  0.3914 -0.0772 -0.5707
   93SAPC    HA 8962   0.538   6.397   6.357  0.1386  0.4895 -0.1847
   93SAPC    HB 8963   0.455   6.423   6.210  0.7845 -2.7021  0.4574
   93SAPC    C2 8964   0.680   6.436   6.199 -0.5320  0.2679 -0.4928
   93SAPC    HS 8965   0.763   6.472   6.263  1.1569 -0.1221 -2.3624
   93SAPC   O21 8966   0.677   6.499   6.074  0.0337  0.5076  0.0918
   93SAPC   C21 8967   0.788   6.573   6.046  0.0913  0.2205  0.8008
   93SAPC   O22 8968   0.894   6.573   6.105  0.4618 -0.2974  0.4059
   93SAPC   C22 8969   0.756   6.650   5.909 -0.2494  0.0855 -0.2444
   93SAPC   H2R 8970   0.711   6.574   5.842 -1.3168 -0.6637  1.2638
   93SAPC   H2S 8971   0.669   6.717   5.931 -2.5321 -3.0102  0.9133
   93SAPC    C3 8972   0.681   6.279   6.185  0.5295  0.1132  0.0237
   93SAPC    HX 8973   0.584   6.251   6.139 -1.0473  2.5263  1.6402
   93SAPC    HY 8974   0.678   6.236   6.288  0.1540 -0.5195 -0.2477
   93SAPC   O31 8975   0.798   6.226   6.119  0.1661  0.1630 -0.0633
   93SAPC   C31 8976   0.919   6.258   6.168 -0.5211 -0.3303  0.2343
   93SAPC   O32 8977   0.943   6.293   6.279 -0.1548 -0.1209 -0.3291
   93SAPC   C32 8978   1.020   6.238   6.060  0.1494  0.0830  0.3763
   93SAPC   H2X 8979   1.089   6.152   6.077  0.8252  0.3723 -0.7653
   93SAPC   H2Y 8980   1.079   6.332   6.056 -0.0157  0.1693 -3.5886
   93SAPC   C23 8981   0.869   6.736   5.850  0.0619 -0.0512  0.5604
   93SAPC   H3R 8982   0.959   6.716   5.913 -1.1421 -0.3945  2.2539
   93SAPC   H3S 8983   0.830   6.840   5.858 -1.0975 -0.4378  0.1226
   93SAPC   C24 8984   0.900   6.699   5.705 -0.1440  0.4624  0.1923
   93SAPC   H4R 8985   0.918   6.590   5.705  0.8599  0.6132 -0.3130
   93SAPC   H4S 8986   0.995   6.751   5.679 -0.8845  0.4674 -2.9258
   93SAPC   C25 8987   0.792   6.749   5.614 -0.4067  1.0840 -0.0556
   93SAPC   H5R 8988   0.713   6.814   5.653  1.4283  2.4925  1.4603
   93SAPC   C26 8989   0.799   6.737   5.487  0.4132  0.5085  0.5642
   93SAPC   H6R 8990   0.716   6.784   5.432  0.4873  1.8258  1.5188
   93SAPC   C27 8991   0.900   6.666   5.403 -0.2945 -0.4819  0.4707
   93SAPC   H7R 8992   0.928   6.567   5.443 -0.2553 -0.1053  1.4095
   93SAPC   H7S 8993   0.993   6.726   5.397 -1.0327  0.6711  0.1218
   93SAPC   C28 8994   0.842   6.636   5.262  0.6122  0.2282 -0.4092
   93SAPC   H8R 8995   0.765   6.558   5.266  0.7841  0.0706  3.7516
   93SAPC   C29 8996   0.873   6.689   5.143 -0.0056  0.8782  0.3167
   93SAPC   H9R 8997   0.824   6.649   5.053 -0.6874  1.6767  0.3227
   93SAPC  C210 8998   0.994   6.775   5.112  0.0758  0.1763  0.8442
   93SAPC  H10R 8999   1.082   6.730   5.163  0.5644 -0.7747 -0.7579
   93SAPC  H10S 9000   0.977   6.872   5.163  2.3609  1.2498 -0.2816
   93SAPC  C211 9001   1.024   6.780   4.964  0.7592 -0.3175 -0.8105
   93SAPC  H11R 9002   0.948   6.819   4.894  0.0733 -2.3016 -1.2148
   93SAPC  C212 9003   1.124   6.724   4.902  0.0029 -0.1245  0.4207
   93SAPC  H12R 9004   1.123   6.739   4.793 -1.3554  0.3880  0.4710
   93SAPC  C213 9005   1.250   6.658   4.967  0.1724 -0.1509 -0.0505
   93SAPC  H13R 9006   1.247   6.559   4.917 -2.3201 -0.7319  1.0974
   93SAPC  H13S 9007   1.235   6.636   5.075  1.4936 -0.9663 -0.0186
   93SAPC  C214 9008   1.382   6.728   4.957 -0.0038  0.1789 -0.1048
   93SAPC  H14R 9009   1.415   6.774   5.051  0.9789 -0.4164 -0.1424
   93SAPC  C215 9010   1.472   6.736   4.850  0.2545 -0.4831  0.3046
   93SAPC  H15R 9011   1.569   6.788   4.852  0.2248 -0.4417  0.8431
   93SAPC  C216 9012   1.457   6.670   4.712 -0.3027 -0.5316 -0.2647
   93SAPC  H16R 9013   1.464   6.742   4.627  0.1351 -0.6433 -0.3295
   93SAPC  H16S 9014   1.361   6.615   4.705  0.2710 -1.3402 -3.0804
   93SAPC  C217 9015   1.566   6.563   4.707  0.3743 -0.2834  0.0033
   93SAPC  H17R 9016   1.550   6.512   4.609 -0.4460  1.5113 -0.8479
   93SAPC  H17S 9017   1.563   6.492   4.792  2.1882  0.9632  1.1760
   93SAPC  C218 9018   1.709   6.624   4.699  0.1269 -0.4864 -0.0076
   93SAPC  H18R 9019   1.790   6.547   4.697  0.6154 -0.0175  0.9897
   93SAPC  H18S 9020   1.728   6.698   4.780 -2.5007  0.2166  0.0441
   93SAPC  C219 9021   1.736   6.710   4.578 -0.3514 -0.0943 -0.8134
   93SAPC  H19R 9022   1.838   6.753   4.578 -0.8539  1.1442 -0.3316
   93SAPC  H19S 9023   1.672   6.800   4.567  1.3262  1.0836 -1.3472
   93SAPC  C220 9024   1.712   6.624   4.452 -0.1978 -0.2414 -0.3857
   93SAPC  H20R 9025   1.746   6.685   4.366  3.2391  0.6787  1.4402
   93SAPC  H20S 9026   1.602   6.605   4.447  0.0676 -2.4478  0.9307
   93SAPC  H20T 9027   1.766   6.529   4.469  2.4692  1.7216  4.1421
   93SAPC   C33 9028   0.964   6.219   5.922 -0.3715  0.1917 -0.0281
   93SAPC   H3X 9029   0.895   6.131   5.920 -0.2558  0.1014 -1.8638
   93SAPC   H3Y 9030   1.055   6.199   5.862 -0.7421 -1.1334 -0.1906
   93SAPC   C34 9031   0.880   6.333   5.865 -0.6720  0.0821  0.3706
   93SAPC   H4X 9032   0.935   6.427   5.886  0.9302  0.0618 -3.0977
   93SAPC   H4Y 9033   0.784   6.331   5.921  0.6992 -1.1207  2.8881
   93SAPC   C35 9034   0.851   6.319   5.720  0.3374 -0.3168  0.4853
   93SAPC   H5X 9035   0.789   6.405   5.688  1.7828  0.7463  0.4829
   93SAPC   H5Y 9036   0.795   6.224   5.703  0.9542 -0.9504  1.8348
   93SAPC   C36 9037   0.962   6.309   5.616 -0.3582 -0.0008 -0.3348
   93SAPC   H6X 9038   1.032   6.226   5.639  1.8811  1.7104 -0.5721
   93SAPC   H6Y 9039   1.028   6.398   5.608  2.4588 -1.7011  1.9933
   93SAPC   C37 9040   0.906   6.277   5.474 -0.8139  0.1156  0.8639
   93SAPC   H7X 9041   0.834   6.357   5.450  0.3504  1.1329  0.6292
   93SAPC   H7Y 9042   0.839   6.188   5.474 -4.0471  2.3437 -1.1912
   93SAPC   C38 9043   1.008   6.262   5.360  0.3273 -0.5574 -0.3345
   93SAPC   H8X 9044   1.080   6.178   5.365  1.2741  0.2453  0.0270
   93SAPC   H8Y 9045   1.072   6.353   5.365 -1.0627  0.3987  1.7597
   93SAPC   C39 9046   0.950   6.251   5.222 -0.0893 -0.1520  0.2416
   93SAPC   H9X 9047   0.911   6.352   5.198  1.3696  0.4572  0.3386
   93SAPC   H9Y 9048   0.874   6.170   5.221 -0.9997  0.6509  1.1272
   93SAPC  C310 9049   1.050   6.210   5.110 -0.3914 -0.1437 -0.4274
   93SAPC  H10X 9050   1.089   6.107   5.124  1.9800  0.5139 -1.7581
   93SAPC  H10Y 9051   1.137   6.278   5.117 -0.4540 -0.1996  1.1514
   93SAPC  C311 9052   0.986   6.210   4.966 -0.1479  0.0447 -0.2150
   93SAPC  H11X 9053   0.886   6.162   4.978  0.7927 -1.5730  1.7839
   93SAPC  H11Y 9054   1.061   6.163   4.900  0.5595 -1.2976  1.4776
   93SAPC  C312 9055   0.973   6.355   4.923  0.0284 -0.6195 -0.6172
   93SAPC  H12X 9056   1.064   6.406   4.962 -0.0564 -3.1015  3.3651
   93SAPC  H12Y 9057   0.891   6.413   4.970 -0.8950 -0.4609 -2.3349
   93SAPC  C313 9058   0.959   6.371   4.774  0.7602 -0.2607 -0.1009
   93SAPC  H13X 9059   1.039   6.321   4.716  2.8857  2.9195 -0.1265
   93SAPC  H13Y 9060   0.964   6.479   4.749  1.1251  0.3720  2.4487
   93SAPC  C314 9061   0.822   6.312   4.735  0.2972 -0.1237 -0.3431
   93SAPC  H14X 9062   0.742   6.353   4.800  0.1410  1.3235 -1.4135
   93SAPC  H14Y 9063   0.831   6.202   4.752 -0.6459 -0.3609 -1.2566
   93SAPC  C315 9064   0.772   6.339   4.596 -0.5608 -0.2252  0.1610
   93SAPC  H15X 9065   0.788   6.448   4.582  0.2534 -0.2637  0.7073
   93SAPC  H15Y 9066   0.667   6.302   4.590 -0.2671 -0.9642 -0.7436
   93SAPC  C316 9067   0.856   6.257   4.495  0.8617 -0.1473  0.0301
   93SAPC  H16X 9068   0.886   6.156   4.529  1.4612  0.3036  0.8727
   93SAPC  H16Y 9069   0.953   6.311   4.481 -0.8376  3.0618 -0.3153
   93SAPC  C317 9070   0.800   6.242   4.348  0.4648 -0.3106  0.6522
   93SAPC  H17X 9071   0.783   6.340   4.300 -0.3997  0.8778  3.2224
   93SAPC  H17Y 9072   0.702   6.191   4.342 -0.5722  1.1871  3.1965
   93SAPC  C318 9073   0.881   6.153   4.256  0.0520 -0.1279 -0.5743
   93SAPC  H18X 9074   0.896   6.054   4.304 -1.2002 -0.4666 -0.8574
   93SAPC  H18Y 9075   0.981   6.198   4.238 -0.2815  0.5030 -0.9118
   93SAPC  H18Z 9076   0.830   6.140   4.159  0.8936  0.3736 -1.0933
   94SAPC     N 9077   0.006   4.947   6.794  0.1111  0.1761 -0.9984
   94SAPC   C12 9078  -0.090   5.066   6.758  0.3544 -0.1683 -0.4969
   94SAPC  H12A 9079  -0.185   5.034   6.797  0.9157 -0.3527  0.7464
   94SAPC  H12B 9080  -0.098   5.068   6.650 -0.1394  1.7837 -0.4643
   94SAPC   C13 9081  -0.049   4.823   6.737 -0.5910  0.2195 -0.4017
   94SAPC  H13A 9082  -0.035   4.828   6.630  2.2568 -0.6808 -0.1508
   94SAPC  H13B 9083  -0.004   4.730   6.767 -1.0942  0.0262 -0.2360
   94SAPC  H13C 9084  -0.153   4.800   6.759 -0.1241 -1.8137 -0.0883
   94SAPC   C14 9085   0.144   4.972   6.759  0.5052 -0.2329  0.1186
   94SAPC  H14A 9086   0.218   4.926   6.824 -0.2336 -1.5356  0.0782
   94SAPC  H14B 9087   0.163   4.928   6.662 -1.4493  0.1007 -0.4424
   94SAPC  H14C 9088   0.159   5.079   6.755  2.7560 -0.5294 -1.0220
   94SAPC   C15 9089  -0.011   4.923   6.940  0.3138 -0.0651  0.1857
   94SAPC  H15A 9090  -0.110   4.931   6.982  0.5433 -3.2044  1.6290
   94SAPC  H15B 9091   0.016   4.824   6.975  3.1165  0.8901  1.0197
   94SAPC  H15C 9092   0.047   4.995   6.995  2.3036 -0.5175 -1.2190
   94SAPC   C11 9093  -0.051   5.208   6.816  0.0143  0.1319 -0.0994
   94SAPC  H11A 9094  -0.019   5.211   6.922  0.1635  2.0428 -0.1713
   94SAPC  H11B 9095  -0.144   5.266   6.798 -1.8038 -2.5103  0.2978
   94SAPC     P 9096   0.081   5.383   6.689  0.1482 -0.6780  0.2709
   94SAPC   O13 9097   0.037   5.489   6.780  0.3805 -0.1265 -0.6109
   94SAPC   O14 9098   0.219   5.391   6.636  0.3288  0.6856 -0.2152
   94SAPC   O12 9099   0.068   5.247   6.754 -0.2075 -0.0587  0.6251
   94SAPC   O11 9100  -0.005   5.378   6.557 -0.1395 -0.3495 -0.1442
   94SAPC    C1 9101  -0.006   5.278   6.454  0.1055 -0.4823 -0.7334
   94SAPC    HA 9102   0.005   5.178   6.502 -1.4559 -0.1922  0.2868
   94SAPC    HB 9103  -0.097   5.282   6.390 -0.3986 -1.8771 -0.1324
   94SAPC    C2 9104   0.112   5.275   6.356  0.3313  0.2113 -0.1564
   94SAPC    HS 9105   0.196   5.292   6.426 -1.3367  1.9922  1.5449
   94SAPC   O21 9106   0.103   5.381   6.261 -0.2506 -0.6469 -0.4667
   94SAPC   C21 9107   0.227   5.422   6.226 -0.3255  0.5708 -0.1800
   94SAPC   O22 9108   0.333   5.384   6.267 -0.1713  0.5058 -0.3858
   94SAPC   C22 9109   0.208   5.529   6.122 -0.3689  0.7186  0.4424
   94SAPC   H2R 9110   0.146   5.492   6.038  1.3405  0.0523 -0.5617
   94SAPC   H2S 9111   0.152   5.618   6.158  0.3212  2.0262 -1.5090
   94SAPC    C3 9112   0.128   5.133   6.286  0.3135 -0.5402  0.1688
   94SAPC    HX 9113   0.158   5.052   6.356  2.0446 -1.6422 -1.7338
   94SAPC    HY 9114   0.223   5.140   6.228  0.0446 -0.3046 -0.2508
   94SAPC   O31 9115   0.015   5.087   6.212  1.0064 -0.0080  0.0937
   94SAPC   C31 9116   0.037   4.989   6.118  0.5171 -0.3550  0.2462
   94SAPC   O32 9117   0.143   4.946   6.080  0.0631  0.7141 -0.3079
   94SAPC   C32 9118  -0.099   4.944   6.064 -0.3093  0.4026  0.0908
   94SAPC   H2X 9119  -0.183   5.010   6.093 -2.3202 -1.4040 -1.2889
   94SAPC   H2Y 9120  -0.124   4.847   6.111  0.0889  0.0128 -0.4903
   94SAPC   C23 9121   0.344   5.569   6.067  0.1429  0.2406  0.1333
   94SAPC   H3R 9122   0.423   5.602   6.137 -0.0494 -0.1282  0.5257
   94SAPC   H3S 9123   0.337   5.655   5.997 -0.4433 -0.0210 -0.1293
   94SAPC   C24 9124   0.400   5.455   5.979  0.0722 -0.0212  0.1931
   94SAPC   H4R 9125   0.308   5.406   5.942 -0.2159 -0.0971  0.9939
   94SAPC   H4S 9126   0.446   5.376   6.043 -0.2977 -0.5041 -0.1348
   94SAPC   C25 9127   0.511   5.496   5.882 -0.1108 -0.1942 -0.1757
   94SAPC   H5R 9128   0.606   5.519   5.933  0.8453 -2.0880 -1.0337
   94SAPC   C26 9129   0.506   5.513   5.749  0.2627 -0.1343 -0.6122
   94SAPC   H6R 9130   0.603   5.522   5.698  0.1661  0.2159 -0.7395
   94SAPC   C27 9131   0.399   5.497   5.645 -0.3915  0.2393 -0.1926
   94SAPC   H7R 9132   0.297   5.497   5.691 -0.9512  1.6953 -1.3662
   94SAPC   H7S 9133   0.413   5.405   5.583 -1.1827 -1.3299  1.8160
   94SAPC   C28 9134   0.417   5.616   5.556  0.4865 -0.1570  0.4348
   94SAPC   H8R 9135   0.429   5.716   5.600 -1.2654  0.3822 -0.2280
   94SAPC   C29 9136   0.433   5.619   5.420  0.4143 -0.5810  0.0879
   94SAPC   H9R 9137   0.440   5.715   5.368  1.5881 -0.2149  0.8660
   94SAPC  C210 9138   0.419   5.497   5.333 -0.2127 -0.2985 -0.1418
   94SAPC  H10R 9139   0.361   5.531   5.245 -0.2804  2.3323  0.8239
   94SAPC  H10S 9140   0.357   5.414   5.372 -3.6338  2.0274 -0.1384
   94SAPC  C211 9141   0.556   5.452   5.278  0.4032  0.4189  0.1985
   94SAPC  H11R 9142   0.635   5.433   5.352  1.3956 -0.1371 -0.9642
   94SAPC  C212 9143   0.601   5.439   5.148 -0.5987 -0.6367  0.2458
   94SAPC  H12R 9144   0.702   5.398   5.132  0.1575  0.0545  2.7934
   94SAPC  C213 9145   0.517   5.485   5.030 -0.4145  0.2345  1.5112
   94SAPC  H13R 9146   0.596   5.543   4.977  0.4602 -2.6949 -0.5842
   94SAPC  H13S 9147   0.431   5.551   5.055 -0.0401  1.3962 -0.1418
   94SAPC  C214 9148   0.463   5.363   4.958  0.2246 -0.4013 -0.1852
   94SAPC  H14R 9149   0.412   5.286   5.018  2.0578 -2.0711 -0.6587
   94SAPC  C215 9150   0.464   5.353   4.828 -0.3373 -0.3489 -0.0627
   94SAPC  H15R 9151   0.419   5.265   4.780 -4.2456 -0.1895  2.8205
   94SAPC  C216 9152   0.521   5.457   4.733 -0.1178 -0.0575  0.0787
   94SAPC  H16R 9153   0.632   5.453   4.737 -0.0757  1.3845  1.5513
   94SAPC  H16S 9154   0.491   5.563   4.749  0.7895  0.1911  0.1900
   94SAPC  C217 9155   0.469   5.423   4.598  0.4728  0.1372  0.4091
   94SAPC  H17R 9156   0.482   5.497   4.516 -1.2578 -1.9481 -1.9236
   94SAPC  H17S 9157   0.359   5.406   4.603  0.3868  0.3079 -0.6045
   94SAPC  C218 9158   0.533   5.299   4.521 -0.4527  0.3652 -0.5324
   94SAPC  H18R 9159   0.534   5.202   4.575  1.1872 -0.4456 -1.9250
   94SAPC  H18S 9160   0.641   5.319   4.503 -0.1111 -1.0098 -0.0752
   94SAPC  C219 9161   0.462   5.272   4.388 -0.3005  0.3638  0.5852
   94SAPC  H19R 9162   0.440   5.365   4.331  2.1789  0.6482  0.0089
   94SAPC  H19S 9163   0.359   5.231   4.403 -0.6336 -0.6306 -3.3343
   94SAPC  C220 9164   0.560   5.188   4.295 -0.3653  0.1982 -0.1489
   94SAPC  H20R 9165   0.507   5.160   4.202 -1.5028 -1.3610  0.9043
   94SAPC  H20S 9166   0.581   5.092   4.348  0.6289  0.0010 -0.8821
   94SAPC  H20T 9167   0.646   5.249   4.263  0.5944 -0.1513  1.6012
   94SAPC   C33 9168  -0.075   4.909   5.916 -0.1671 -0.0005 -0.0288
   94SAPC   H3X 9169  -0.006   4.824   5.898  0.1498  0.2771 -0.1372
   94SAPC   H3Y 9170  -0.027   4.996   5.866 -0.3308  0.9500  1.4119
   94SAPC   C34 9171  -0.205   4.869   5.829  0.0967 -0.1936  0.6290
   94SAPC   H4X 9172  -0.266   4.961   5.832  1.7975  1.0925 -1.3176
   94SAPC   H4Y 9173  -0.260   4.784   5.875 -0.7801  0.3678  0.6343
   94SAPC   C35 9174  -0.175   4.847   5.676  0.4524 -0.3882  0.2432
   94SAPC   H5X 9175  -0.212   4.747   5.646  1.6330 -0.0832 -2.5759
   94SAPC   H5Y 9176  -0.065   4.855   5.659  0.2069  1.2807 -0.8569
   94SAPC   C36 9177  -0.254   4.941   5.583 -0.8535 -0.2243 -0.3550
   94SAPC   H6X 9178  -0.228   5.043   5.619 -1.5218 -0.8756  2.1728
   94SAPC   H6Y 9179  -0.362   4.919   5.596 -1.0172  0.3817 -0.6411
   94SAPC   C37 9180  -0.219   4.931   5.432 -0.4433  0.3042 -0.8757
   94SAPC   H7X 9181  -0.236   4.825   5.404  0.5895 -0.4533  1.2134
   94SAPC   H7Y 9182  -0.114   4.947   5.401 -0.1437 -1.0418 -0.5648
   94SAPC   C38 9183  -0.304   5.032   5.347  0.3892 -0.1674 -0.7209
   94SAPC   H8X 9184  -0.297   5.135   5.388 -1.8503  0.0638 -0.8031
   94SAPC   H8Y 9185  -0.410   5.007   5.369  0.5750 -0.3460  0.0108
   94SAPC   C39 9186  -0.287   5.023   5.193 -0.1936  0.4260 -0.5508
   94SAPC   H9X 9187  -0.323   4.922   5.167 -0.2625 -0.1688  1.6815
   94SAPC   H9Y 9188  -0.177   5.019   5.176 -0.4955 -0.9415 -2.5335
   94SAPC  C310 9189  -0.358   5.132   5.109  0.1934  0.0979 -0.1966
   94SAPC  H10X 9190  -0.334   5.237   5.138 -0.7484  0.2630  0.0028
   94SAPC  H10Y 9191  -0.464   5.117   5.138  0.6391  0.3605  1.6956
   94SAPC  C311 9192  -0.345   5.124   4.955 -0.3394 -0.5445 -0.2187
   94SAPC  H11X 9193  -0.396   5.032   4.920 -0.5224 -0.7860  0.6370
   94SAPC  H11Y 9194  -0.241   5.119   4.917  1.0907 -0.4766  3.2930
   94SAPC  C312 9195  -0.409   5.238   4.873  0.2210 -0.2113 -0.9223
   94SAPC  H12X 9196  -0.329   5.311   4.849  1.6735 -0.9659  1.2760
   94SAPC  H12Y 9197  -0.486   5.287   4.937  1.3476  3.7994 -2.3445
   94SAPC  C313 9198  -0.501   5.187   4.758 -0.7442 -0.0370  0.0710
   94SAPC  H13X 9199  -0.574   5.112   4.793  0.2170 -1.3086 -0.5542
   94SAPC  H13Y 9200  -0.449   5.140   4.671  0.6448  0.6046  0.5321
   94SAPC  C314 9201  -0.584   5.305   4.705 -0.1808  0.8512 -0.0634
   94SAPC  H14X 9202  -0.520   5.370   4.641 -0.1282  0.5266 -0.3455
   94SAPC  H14Y 9203  -0.627   5.366   4.788  0.3394  2.0418 -0.6389
   94SAPC  C315 9204  -0.700   5.261   4.620 -0.3038 -0.1044  0.0788
   94SAPC  H15X 9205  -0.764   5.186   4.671 -0.0028  0.6909  1.6945
   94SAPC  H15Y 9206  -0.658   5.215   4.529 -0.2419  1.5129 -0.7422
   94SAPC  C316 9207  -0.783   5.391   4.574  0.7621  0.4849  0.0494
   94SAPC  H16X 9208  -0.718   5.469   4.530  1.3038  0.5758  0.9930
   94SAPC  H16Y 9209  -0.833   5.432   4.664  0.6915  0.5119 -0.0017
   94SAPC  C317 9210  -0.881   5.361   4.458  0.2168  0.1196  0.2004
   94SAPC  H17X 9211  -0.954   5.290   4.502  0.0587  0.7377  0.9664
   94SAPC  H17Y 9212  -0.826   5.308   4.378  1.3530  1.1613  0.2482
   94SAPC  C318 9213  -0.956   5.477   4.395  0.2258  0.1578  0.4157
   94SAPC  H18X 9214  -1.053   5.497   4.446  0.3033 -1.8857  1.4514
   94SAPC  H18Y 9215  -0.972   5.442   4.291 -1.8329  0.4415  0.5920
   94SAPC  H18Z 9216  -0.894   5.569   4.394  0.5907 -0.0669  1.2105
   95SAPC     N 9217   3.291   5.940   1.739  0.3959  0.3994  0.5152
   95SAPC   C12 9218   3.428   5.955   1.803 -0.0504 -0.1664  0.4414
   95SAPC  H12A 9219   3.484   6.020   1.738  2.3406 -2.1914  0.2988
   95SAPC  H12B 9220   3.469   5.856   1.790 -0.9005 -0.5744  0.8346
   95SAPC   C13 9221   3.214   5.840   1.809  0.3906  0.6531 -0.0284
   95SAPC  H13A 9222   3.107   5.840   1.790  0.2110 -1.6786  0.6612
   95SAPC  H13B 9223   3.244   5.741   1.778 -1.4709  0.2125 -0.5920
   95SAPC  H13C 9224   3.239   5.839   1.914 -0.0344 -2.1283  0.1290
   95SAPC   C14 9225   3.213   6.069   1.745 -0.6707 -0.4293  0.7230
   95SAPC  H14A 9226   3.111   6.056   1.709 -0.6980 -0.8853  0.9491
   95SAPC  H14B 9227   3.222   6.098   1.848 -3.7128  0.9521  0.7235
   95SAPC  H14C 9228   3.261   6.144   1.685 -0.2888  0.8760  2.5918
   95SAPC   C15 9229   3.305   5.905   1.585 -0.0518  1.0172 -0.5328
   95SAPC  H15A 9230   3.215   5.902   1.526 -0.6454 -0.1359  0.3926
   95SAPC  H15B 9231   3.380   5.971   1.542  2.5731 -1.4601 -0.0775
   95SAPC  H15C 9232   3.353   5.809   1.573  1.3603  1.5142  0.7850
   95SAPC   C11 9233   3.438   6.011   1.948  0.6057 -0.1721 -0.7644
   95SAPC  H11A 9234   3.385   6.108   1.965 -0.6462 -1.0090  0.3794
   95SAPC  H11B 9235   3.543   6.006   1.984  0.2084 -0.4096  0.3972
   95SAPC     P 9236   3.317   5.941   2.181 -0.1851  0.3516  0.3870
   95SAPC   O13 9237   3.232   6.061   2.194  0.5121  0.0303 -0.5210
   95SAPC   O14 9238   3.259   5.807   2.217  0.2019 -0.8711  0.6180
   95SAPC   O12 9239   3.372   5.919   2.033 -0.0524 -0.0776  0.4057
   95SAPC   O11 9240   3.450   5.962   2.255  0.4617  0.7185 -0.5376
   95SAPC    C1 9241   3.550   5.870   2.284  0.9608  0.2312 -0.2723
   95SAPC    HA 9242   3.565   5.801   2.199 -1.7986 -0.5682 -0.2023
   95SAPC    HB 9243   3.639   5.937   2.288  1.6778 -0.6429 -1.2909
   95SAPC    C2 9244   3.535   5.803   2.424  0.6505 -0.3187 -0.1282
   95SAPC    HS 9245   3.449   5.734   2.427  0.5206 -0.2025 -1.1188
   95SAPC   O21 9246   3.520   5.902   2.530 -0.0354 -0.1507  0.1428
   95SAPC   C21 9247   3.395   5.931   2.569  0.0219  0.2176  0.2393
   95SAPC   O22 9248   3.292   5.895   2.521  0.5054 -0.1790  0.4952
   95SAPC   C22 9249   3.417   6.034   2.683  0.4344  0.6466  0.0774
   95SAPC   H2R 9250   3.473   6.122   2.646  0.6768 -0.0700 -1.3366
   95SAPC   H2S 9251   3.315   6.076   2.699 -1.3279 -1.4364 -3.9590
   95SAPC    C3 9252   3.663   5.712   2.455 -0.4585 -0.3792 -0.3029
   95SAPC    HX 9253   3.751   5.780   2.448  0.5043 -1.5131  0.4380
   95SAPC    HY 9254   3.673   5.636   2.375 -1.7473 -0.0003 -0.8456
   95SAPC   O31 9255   3.653   5.660   2.589 -0.0461 -0.4876 -0.0015
   95SAPC   C31 9256   3.571   5.559   2.606  0.5353  0.2140 -0.6622
   95SAPC   O32 9257   3.495   5.512   2.526 -0.2117 -0.0582  0.8420
   95SAPC   C32 9258   3.597   5.495   2.754  0.2645  0.5772  0.2943
   95SAPC   H2X 9259   3.704   5.474   2.777  0.0205 -0.1035  0.8204
   95SAPC   H2Y 9260   3.548   5.396   2.746  0.5466  0.4105  0.6126
   95SAPC   C23 9261   3.475   5.977   2.813  0.1737 -0.0316 -0.4762
   95SAPC   H3R 9262   3.579   5.941   2.798  0.8729  0.8834  1.7998
   95SAPC   H3S 9263   3.403   5.896   2.840 -1.3537  1.5328  0.4170
   95SAPC   C24 9264   3.484   6.075   2.931 -0.1966  0.2973 -0.1185
   95SAPC   H4R 9265   3.552   6.158   2.902  0.3645  0.0632  0.4979
   95SAPC   H4S 9266   3.542   6.032   3.015  1.6460  0.1114 -1.4217
   95SAPC   C25 9267   3.349   6.131   2.970 -0.4865 -0.1467 -0.1530
   95SAPC   H5R 9268   3.303   6.194   2.893  0.2770  0.2176 -0.3186
   95SAPC   C26 9269   3.291   6.128   3.092  0.4688 -0.2392  0.2464
   95SAPC   H6R 9270   3.189   6.166   3.103 -0.0262 -1.0590 -1.1999
   95SAPC   C27 9271   3.325   6.053   3.215  0.1544 -0.2327  0.2859
   95SAPC   H7R 9272   3.426   6.011   3.199  0.3632  0.5464 -0.4625
   95SAPC   H7S 9273   3.259   5.963   3.216 -1.8374  1.0238 -2.6814
   95SAPC   C28 9274   3.326   6.148   3.334 -0.4120 -0.0599 -0.1749
   95SAPC   H8R 9275   3.421   6.204   3.329 -0.7000  0.7652  2.2113
   95SAPC   C29 9276   3.235   6.157   3.435 -0.1229  0.1521 -0.1907
   95SAPC   H9R 9277   3.246   6.243   3.502  2.2922 -0.7200  0.6231
   95SAPC  C210 9278   3.101   6.084   3.428  0.3218  0.3342 -1.0376
   95SAPC  H10R 9279   3.111   5.979   3.462  0.5366  0.2135 -1.4629
   95SAPC  H10S 9280   3.056   6.083   3.326 -0.4435 -1.4604 -0.7118
   95SAPC  C211 9281   3.008   6.156   3.518 -0.3035 -0.1499  0.2772
   95SAPC  H11R 9282   3.056   6.234   3.578  0.2941  0.5505 -1.0851
   95SAPC  C212 9283   2.872   6.144   3.513 -0.2326 -0.1936  0.3005
   95SAPC  H12R 9284   2.817   6.203   3.589  0.2100 -2.0115  2.1408
   95SAPC  C213 9285   2.786   6.065   3.424 -0.0666 -0.2094 -0.2447
   95SAPC  H13R 9286   2.720   6.001   3.486 -2.9319  3.9938  1.4396
   95SAPC  H13S 9287   2.850   5.997   3.363 -1.2729 -0.4210 -1.3344
   95SAPC  C214 9288   2.698   6.152   3.341  0.3001 -0.4940 -0.0882
   95SAPC  H14R 9289   2.655   6.240   3.391 -2.1322 -1.9436  0.5141
   95SAPC  C215 9290   2.660   6.134   3.216  0.0785  0.8426  0.3203
   95SAPC  H15R 9291   2.582   6.194   3.168  1.9656  3.6004  0.4877
   95SAPC  C216 9292   2.700   6.012   3.137  0.6681 -0.6602  0.6158
   95SAPC  H16R 9293   2.611   5.958   3.098  0.0510  2.2526 -2.6063
   95SAPC  H16S 9294   2.755   5.933   3.193  3.1556  0.6749  0.2393
   95SAPC  C217 9295   2.768   6.043   3.005 -0.6236  0.2454  0.3192
   95SAPC  H17R 9296   2.705   6.097   2.932 -0.7412 -0.3246 -0.0096
   95SAPC  H17S 9297   2.783   5.950   2.946 -0.2385  2.1240 -2.7543
   95SAPC  C218 9298   2.899   6.118   3.026  0.6536  0.3160 -0.2870
   95SAPC  H18R 9299   2.966   6.040   3.068  0.4297  0.3961  0.2197
   95SAPC  H18S 9300   2.896   6.203   3.097  0.8126  0.2534 -0.2044
   95SAPC  C219 9301   2.960   6.178   2.901 -0.1087 -0.2919  0.5604
   95SAPC  H19R 9302   3.056   6.223   2.934 -0.5402  0.6424  0.5703
   95SAPC  H19S 9303   2.885   6.255   2.874 -0.7595 -0.3183  2.2253
   95SAPC  C220 9304   2.987   6.091   2.777  0.0324  0.2285  0.0169
   95SAPC  H20R 9305   3.069   6.016   2.789  0.7434  0.6417 -1.9890
   95SAPC  H20S 9306   3.023   6.149   2.690 -0.7290  0.8597  0.1149
   95SAPC  H20T 9307   2.890   6.045   2.749 -0.7619  2.0928 -0.4402
   95SAPC   C33 9308   3.539   5.583   2.870  0.1052 -0.4112  0.2518
   95SAPC   H3X 9309   3.429   5.584   2.857  0.2036  2.3955 -1.0039
   95SAPC   H3Y 9310   3.566   5.691   2.865 -1.7132  0.1012  0.8448
   95SAPC   C34 9311   3.584   5.532   3.008 -0.4758 -0.2671 -0.0057
   95SAPC   H4X 9312   3.693   5.546   3.027 -0.3245  1.0566 -1.6050
   95SAPC   H4Y 9313   3.569   5.422   3.004  2.1204 -0.6606 -0.8993
   95SAPC   C35 9314   3.511   5.587   3.135 -0.0595 -0.4848  0.4424
   95SAPC   H5X 9315   3.412   5.537   3.125  0.1893 -1.0799  0.8752
   95SAPC   H5Y 9316   3.499   5.696   3.120 -1.8837 -0.5306  1.2532
   95SAPC   C36 9317   3.578   5.537   3.260 -0.2398  0.0354 -0.7716
   95SAPC   H6X 9318   3.679   5.583   3.260 -0.5890  0.8393 -1.4216
   95SAPC   H6Y 9319   3.591   5.427   3.257  0.5730  0.0279  1.4632
   95SAPC   C37 9320   3.491   5.580   3.386  0.6464 -0.0158 -0.3443
   95SAPC   H7X 9321   3.393   5.531   3.399  0.0059  1.1482 -0.6828
   95SAPC   H7Y 9322   3.456   5.684   3.374  1.5730  0.1211 -2.2247
   95SAPC   C38 9323   3.542   5.559   3.530  0.7933  1.0080 -0.5890
   95SAPC   H8X 9324   3.642   5.603   3.552  2.4505 -1.8057 -1.9936
   95SAPC   H8Y 9325   3.555   5.451   3.549  0.8224  1.2958  1.1961
   95SAPC   C39 9326   3.439   5.604   3.636  0.2464 -0.2995  0.5645
   95SAPC   H9X 9327   3.341   5.561   3.606  1.6158 -3.1364 -0.1592
   95SAPC   H9Y 9328   3.439   5.714   3.623 -0.2000 -0.5218 -1.8007
   95SAPC  C310 9329   3.468   5.554   3.780  0.0477 -0.8695  0.3462
   95SAPC  H10X 9330   3.476   5.443   3.784 -0.5779 -0.8830  2.0982
   95SAPC  H10Y 9331   3.373   5.583   3.830 -0.2716  0.2276 -0.8206
   95SAPC  C311 9332   3.586   5.616   3.845 -0.0598 -0.4395 -0.4413
   95SAPC  H11X 9333   3.560   5.723   3.858  1.5924  0.0011 -0.6446
   95SAPC  H11Y 9334   3.673   5.616   3.776 -0.7486 -1.7449 -1.3627
   95SAPC  C312 9335   3.630   5.540   3.974 -0.2485  0.6746  0.4761
   95SAPC  H12X 9336   3.728   5.581   4.007  0.2021 -0.2799  0.3568
   95SAPC  H12Y 9337   3.647   5.431   3.961 -0.2807  0.6635  0.5243
   95SAPC  C313 9338   3.526   5.558   4.081  0.3377 -0.5306  1.1287
   95SAPC  H13X 9339   3.427   5.515   4.055 -0.1690  0.3388  1.5584
   95SAPC  H13Y 9340   3.501   5.664   4.101  1.3721  0.0117 -0.2751
   95SAPC  C314 9341   3.572   5.490   4.210 -0.4287  0.4047 -0.5407
   95SAPC  H14X 9342   3.658   5.554   4.236 -2.5858  2.8463  1.1438
   95SAPC  H14Y 9343   3.611   5.388   4.193  1.2256  1.1050 -1.1333
   95SAPC  C315 9344   3.463   5.496   4.314 -0.7097 -0.3592  0.2339
   95SAPC  H15X 9345   3.369   5.453   4.274 -0.8187 -0.9646  1.1128
   95SAPC  H15Y 9346   3.458   5.604   4.337 -0.2170  0.4916 -3.1336
   95SAPC  C316 9347   3.500   5.416   4.436  0.1849  0.1171 -0.0947
   95SAPC  H16X 9348   3.595   5.456   4.477  1.1477  1.2323 -3.1068
   95SAPC  H16Y 9349   3.520   5.310   4.408 -0.8099 -0.3805  1.0031
   95SAPC  C317 9350   3.389   5.430   4.532 -0.1538  0.1169 -0.3547
   95SAPC  H17X 9351   3.293   5.414   4.478 -0.0967 -1.8423  0.0296
   95SAPC  H17Y 9352   3.394   5.536   4.564 -1.1789  0.2486 -0.5916
   95SAPC  C318 9353   3.381   5.347   4.660 -0.4220  0.2996  0.1805
   95SAPC  H18X 9354   3.477   5.348   4.715 -0.1880  1.2878 -0.2206
   95SAPC  H18Y 9355   3.355   5.241   4.638  1.2218 -0.0507 -0.1757
   95SAPC  H18Z 9356   3.308   5.406   4.718 -1.1772  0.9262 -1.3445
   96SAPC     N 9357   2.837   2.071   2.254  0.2964 -0.9395 -0.6723
   96SAPC   C12 9358   2.951   2.176   2.278 -0.0693 -0.1614 -0.2354
   96SAPC  H12A 9359   2.910   2.268   2.315 -1.0894 -0.5202 -0.4227
   96SAPC  H12B 9360   2.994   2.208   2.184  0.5027  0.2799  0.1711
   96SAPC   C13 9361   2.904   1.951   2.219 -0.9645  0.2423 -0.0097
   96SAPC  H13A 9362   2.838   1.866   2.210 -0.0807 -0.4835  0.2756
   96SAPC  H13B 9363   2.970   1.963   2.134  1.6466  1.7401  2.0868
   96SAPC  H13C 9364   2.967   1.915   2.299  0.6002  0.8264 -0.9450
   96SAPC   C14 9365   2.755   2.060   2.377  0.1665 -0.2025 -0.1694
   96SAPC  H14A 9366   2.704   2.155   2.387  1.4302  0.5575 -0.7466
   96SAPC  H14B 9367   2.681   1.981   2.371  1.1953 -1.2157  0.0472
   96SAPC  H14C 9368   2.814   2.035   2.464 -1.4593 -3.1260  0.2278
   96SAPC   C15 9369   2.741   2.116   2.138 -0.1203  0.1774 -0.7426
   96SAPC  H15A 9370   2.661   2.044   2.136  0.7550 -0.9647  1.4118
   96SAPC  H15B 9371   2.707   2.215   2.167  0.2227 -0.0076  0.3690
   96SAPC  H15C 9372   2.792   2.117   2.043  0.8952 -0.4681 -0.2252
   96SAPC   C11 9373   3.064   2.145   2.376 -0.0527  0.2799  0.5163
   96SAPC  H11A 9374   3.144   2.223   2.373  0.9674 -0.7566  0.1644
   96SAPC  H11B 9375   3.120   2.060   2.331 -0.2188  0.1840  0.4887
   96SAPC     P 9376   3.051   1.992   2.590  0.1824 -0.2341 -0.2998
   96SAPC   O13 9377   2.977   1.992   2.715 -0.2163 -0.4952  0.1411
   96SAPC   O14 9378   3.041   1.866   2.512  0.0338 -0.8538  0.4580
   96SAPC   O12 9379   3.017   2.120   2.504 -0.5622 -0.2363 -0.8325
   96SAPC   O11 9380   3.201   2.017   2.628 -0.3547 -0.1573 -0.3296
   96SAPC    C1 9381   3.272   1.906   2.682 -0.9163  0.2817 -0.0224
   96SAPC    HA 9382   3.284   1.823   2.609 -0.4882  0.3409 -0.0224
   96SAPC    HB 9383   3.373   1.937   2.717 -0.2471 -3.1899  1.5715
   96SAPC    C2 9384   3.221   1.848   2.812 -1.2462 -0.2652  0.1391
   96SAPC    HS 9385   3.123   1.797   2.802  0.4555 -3.6988 -0.6904
   96SAPC   O21 9386   3.229   1.954   2.912 -0.2406  0.2233  0.2681
   96SAPC   C21 9387   3.143   1.946   3.009  0.0335  0.2599 -0.1882
   96SAPC   O22 9388   3.060   1.863   3.025  0.3612  0.3475 -0.5621
   96SAPC   C22 9389   3.176   2.053   3.110 -0.4828  0.0338 -0.7222
   96SAPC   H2R 9390   3.278   2.022   3.143 -0.3387  0.7982 -0.4280
   96SAPC   H2S 9391   3.166   2.155   3.069  0.6005  0.1983 -0.6018
   96SAPC    C3 9392   3.324   1.735   2.854 -0.6969  0.6033 -0.1645
   96SAPC    HX 9393   3.420   1.789   2.860  0.0410 -0.6740 -0.1503
   96SAPC    HY 9394   3.325   1.662   2.770 -0.3987  0.3543  0.0564
   96SAPC   O31 9395   3.289   1.681   2.987 -0.1714  0.6214 -0.1473
   96SAPC   C31 9396   3.194   1.587   2.996 -0.8424  0.6742  0.5813
   96SAPC   O32 9397   3.142   1.537   2.896  0.4929 -0.1339 -0.3017
   96SAPC   C32 9398   3.180   1.549   3.141  0.0095  0.3816 -0.2008
   96SAPC   H2X 9399   3.129   1.633   3.193  0.0099  0.1429  0.1886
   96SAPC   H2Y 9400   3.278   1.532   3.192 -1.1482 -0.1623  1.9363
   96SAPC   C23 9401   3.094   2.049   3.241  0.5496  1.0649  0.2285
   96SAPC   H3R 9402   3.065   1.943   3.260  1.4450  0.6427 -0.6753
   96SAPC   H3S 9403   2.998   2.105   3.231  1.8401  3.6391  1.3863
   96SAPC   C24 9404   3.179   2.095   3.363  0.1615  0.1870  0.0621
   96SAPC   H4R 9405   3.225   2.193   3.342 -0.9843  0.8449  0.5211
   96SAPC   H4S 9406   3.264   2.023   3.367 -0.1341 -0.1419  0.5155
   96SAPC   C25 9407   3.092   2.103   3.485  0.3174  0.4025 -0.0743
   96SAPC   H5R 9408   2.992   2.060   3.469 -0.0931  0.5195  1.8906
   96SAPC   C26 9409   3.120   2.168   3.595  0.1894 -0.5307 -0.4983
   96SAPC   H6R 9410   3.050   2.169   3.680  0.2152  0.6216 -0.4821
   96SAPC   C27 9411   3.251   2.219   3.624 -0.0718  0.3422  0.4433
   96SAPC   H7R 9412   3.259   2.319   3.575  1.0868 -0.1409 -0.3977
   96SAPC   H7S 9413   3.336   2.163   3.579 -0.1178  0.5098  0.1491
   96SAPC   C28 9414   3.283   2.232   3.774  1.0615 -0.1697  0.6177
   96SAPC   H8R 9415   3.307   2.332   3.815 -0.2441  0.1839  0.5656
   96SAPC   C29 9416   3.265   2.136   3.873 -0.0477  0.8684  0.4852
   96SAPC   H9R 9417   3.282   2.154   3.980 -1.5856 -0.7010  1.0337
   96SAPC  C210 9418   3.230   1.990   3.841  0.0298 -0.2314 -0.1215
   96SAPC  H10R 9419   3.316   1.923   3.821  0.2356 -0.0755  0.2544
   96SAPC  H10S 9420   3.169   1.972   3.749  1.1970  0.5871 -1.0846
   96SAPC  C211 9421   3.161   1.928   3.961  0.3295 -0.5469  0.7777
   96SAPC  H11R 9422   3.074   1.986   3.995 -1.0548 -3.0890  1.8449
   96SAPC  C212 9423   3.193   1.817   4.027 -0.3307 -1.0092  0.6100
   96SAPC  H12R 9424   3.129   1.787   4.112 -0.2715  1.5953  1.6685
   96SAPC  C213 9425   3.306   1.728   3.996 -0.9017  1.2238 -0.3967
   96SAPC  H13R 9426   3.383   1.745   4.074 -0.3426 -1.0322 -0.3988
   96SAPC  H13S 9427   3.356   1.749   3.899 -0.3912 -1.1230 -0.6923
   96SAPC  C214 9428   3.257   1.580   3.999 -0.5802  0.1384 -0.0297
   96SAPC  H14R 9429   3.192   1.551   4.082 -1.3653 -0.0718 -0.7072
   96SAPC  C215 9430   3.292   1.492   3.902  0.5635 -0.8662  0.6640
   96SAPC  H15R 9431   3.246   1.392   3.894  1.2028 -1.0245 -2.3491
   96SAPC  C216 9432   3.372   1.517   3.777 -0.5933  0.0124  1.4069
   96SAPC  H16R 9433   3.415   1.417   3.752  0.8360  0.6864  1.0884
   96SAPC  H16S 9434   3.466   1.573   3.795  0.3696 -0.2921 -2.0361
   96SAPC  C217 9435   3.291   1.588   3.672  0.0779  0.2578 -1.1712
   96SAPC  H17R 9436   3.248   1.678   3.721  0.7776  1.4610 -2.6890
   96SAPC  H17S 9437   3.206   1.539   3.621 -0.7011  0.1074  0.2320
   96SAPC  C218 9438   3.378   1.647   3.564 -0.0892 -0.0429  0.1696
   96SAPC  H18R 9439   3.424   1.564   3.506  2.8350  1.1712  0.5593
   96SAPC  H18S 9440   3.455   1.714   3.608  0.2372 -2.4349  3.6913
   96SAPC  C219 9441   3.293   1.723   3.461 -0.4851  0.4776  0.6527
   96SAPC  H19R 9442   3.266   1.824   3.499  0.2909  0.9819 -0.1167
   96SAPC  H19S 9443   3.205   1.665   3.425  0.5948 -0.5933 -0.3331
   96SAPC  C220 9444   3.378   1.747   3.335 -0.7446  0.1739 -0.0419
   96SAPC  H20R 9445   3.436   1.664   3.290 -0.0857  0.1677  0.7829
   96SAPC  H20S 9446   3.452   1.825   3.365  1.3896 -2.5171  2.2190
   96SAPC  H20T 9447   3.303   1.787   3.263 -0.1589 -1.4964 -1.6510
   96SAPC   C33 9448   3.092   1.427   3.164  0.4387  0.0737  0.4111
   96SAPC   H3X 9449   3.147   1.331   3.159 -0.6597 -0.5218 -0.9790
   96SAPC   H3Y 9450   3.009   1.420   3.091 -1.5615  2.2081  2.3189
   96SAPC   C34 9451   3.022   1.428   3.298  0.0087  0.7118 -0.2095
   96SAPC   H4X 9452   2.974   1.525   3.325 -0.0982  0.8823 -0.9974
   96SAPC   H4Y 9453   3.098   1.402   3.375 -1.2750 -1.0720  0.5129
   96SAPC   C35 9454   2.921   1.312   3.317  0.5429  0.6461  0.4584
   96SAPC   H5X 9455   2.980   1.223   3.283  0.8343  0.8865  0.3307
   96SAPC   H5Y 9456   2.844   1.314   3.237  2.0498  0.0617 -1.0884
   96SAPC   C36 9457   2.853   1.299   3.450  0.0054  0.4288  0.0702
   96SAPC   H6X 9458   2.779   1.216   3.445  0.7200 -0.3992  2.0454
   96SAPC   H6Y 9459   2.798   1.395   3.458 -1.8928 -0.4972 -1.1975
   96SAPC   C37 9460   2.944   1.296   3.570  0.4520  0.3042 -1.0195
   96SAPC   H7X 9461   3.015   1.381   3.569  0.9857  0.0067  1.8065
   96SAPC   H7Y 9462   3.024   1.219   3.574 -0.5459 -0.7746  2.6325
   96SAPC   C38 9463   2.858   1.296   3.701 -1.5670 -0.1239  0.4245
   96SAPC   H8X 9464   2.789   1.209   3.699  0.8523 -2.3197  3.1855
   96SAPC   H8Y 9465   2.805   1.393   3.707 -1.2103  0.0075  1.5959
   96SAPC   C39 9466   2.947   1.287   3.822 -0.2008  0.2309  1.0029
   96SAPC   H9X 9467   3.001   1.382   3.837  0.5359 -0.1854  1.0167
   96SAPC   H9Y 9468   3.016   1.201   3.818  1.6477  1.6959  0.1139
   96SAPC  C310 9469   2.857   1.257   3.947 -0.6487 -0.2439  0.2250
   96SAPC  H10X 9470   2.789   1.172   3.924 -1.1667  0.2340 -0.0400
   96SAPC  H10Y 9471   2.790   1.344   3.961 -1.3930 -0.4101 -1.9162
   96SAPC  C311 9472   2.932   1.237   4.081 -0.3602  0.9352 -0.0442
   96SAPC  H11X 9473   2.988   1.333   4.090 -1.0417  1.3943 -0.5989
   96SAPC  H11Y 9474   3.004   1.153   4.072 -0.3247  1.1387 -2.3283
   96SAPC  C312 9475   2.847   1.206   4.207  0.2882 -0.3354  0.2911
   96SAPC  H12X 9476   2.758   1.272   4.215  1.3229  0.9877  1.3025
   96SAPC  H12Y 9477   2.905   1.227   4.299  1.8976 -0.2115 -0.7011
   96SAPC  C313 9478   2.800   1.064   4.221  0.0557 -0.8323  0.1786
   96SAPC  H13X 9479   2.892   1.002   4.212 -0.6149 -2.0945  1.5623
   96SAPC  H13Y 9480   2.718   1.041   4.149 -2.3991 -0.3732  2.6607
   96SAPC  C314 9481   2.741   1.024   4.352  0.4732 -0.7019  0.1643
   96SAPC  H14X 9482   2.696   0.923   4.341 -2.1392  0.2123  1.6882
   96SAPC  H14Y 9483   2.659   1.096   4.368 -0.1287 -0.6190 -2.6695
   96SAPC  C315 9484   2.834   1.031   4.466 -0.9269  0.1433  0.3249
   96SAPC  H15X 9485   2.876   1.132   4.487  0.3156 -0.5897  1.6604
   96SAPC  H15Y 9486   2.925   0.968   4.457 -1.4327 -0.9017  1.9862
   96SAPC  C316 9487   2.776   0.991   4.596 -0.6576  0.4927 -1.1063
   96SAPC  H16X 9488   2.724   0.893   4.594  2.2854 -1.3831  2.2424
   96SAPC  H16Y 9489   2.695   1.057   4.632 -1.8126 -0.9416 -0.9857
   96SAPC  C317 9490   2.877   0.975   4.715  0.3148  0.9684 -0.2687
   96SAPC  H17X 9491   2.975   0.933   4.685  0.1490 -0.7409  1.4094
   96SAPC  H17Y 9492   2.815   0.910   4.780 -0.7950  1.8658 -0.3932
   96SAPC  C318 9493   2.900   1.108   4.785 -0.6056 -0.9766 -0.8109
   96SAPC  H18X 9494   2.826   1.120   4.867 -2.6282 -0.2989 -2.6072
   96SAPC  H18Y 9495   2.891   1.193   4.714 -1.8497 -2.0567 -2.0276
   96SAPC  H18Z 9496   2.999   1.104   4.833 -1.2283 -0.9576  0.5126
   97SAPC     N 9497   2.592   0.559   2.034  0.2688 -0.5202  0.1580
   97SAPC   C12 9498   2.631   0.678   2.121 -0.2406 -1.0178  0.8486
   97SAPC  H12A 9499   2.583   0.673   2.217 -1.2973  3.2435  0.7496
   97SAPC  H12B 9500   2.589   0.768   2.079 -0.0258 -1.3845 -0.1955
   97SAPC   C13 9501   2.643   0.426   2.071 -0.5405  0.1373  0.1521
   97SAPC  H13A 9502   2.751   0.435   2.071 -0.4070 -1.2503  0.5067
   97SAPC  H13B 9503   2.622   0.404   2.175  1.1462  1.0923  0.7353
   97SAPC  H13C 9504   2.631   0.348   1.997 -0.2673  0.8737 -0.6848
   97SAPC   C14 9505   2.443   0.538   2.049 -0.1756 -0.3038  0.0922
   97SAPC  H14A 9506   2.419   0.509   2.150 -0.4224  0.7924  0.3668
   97SAPC  H14B 9507   2.382   0.626   2.034  0.7454  0.1184 -1.4370
   97SAPC  H14C 9508   2.411   0.458   1.985 -0.8455  1.1238 -1.4426
   97SAPC   C15 9509   2.618   0.582   1.888 -1.3514 -0.1069 -0.2198
   97SAPC  H15A 9510   2.552   0.657   1.847  0.7729  1.0906 -1.6908
   97SAPC  H15B 9511   2.723   0.585   1.862 -1.3673 -1.4741 -0.4971
   97SAPC  H15C 9512   2.588   0.495   1.831 -1.0560 -1.0319  0.9986
   97SAPC   C11 9513   2.775   0.699   2.151  0.6093 -0.3186 -0.0316
   97SAPC  H11A 9514   2.852   0.670   2.076  2.2081  3.4718 -0.0659
   97SAPC  H11B 9515   2.793   0.632   2.237 -3.2547  0.0230  1.2569
   97SAPC     P 9516   2.758   0.909   2.315  0.0238  0.0808 -0.3010
   97SAPC   O13 9517   2.846   1.022   2.341  0.0928  0.6002  0.7130
   97SAPC   O14 9518   2.612   0.947   2.301 -0.1197  0.3241  0.5340
   97SAPC   O12 9519   2.806   0.836   2.186  0.2237  0.2496  0.6512
   97SAPC   O11 9520   2.771   0.796   2.437 -0.2795 -0.8944  0.3611
   97SAPC    C1 9521   2.908   0.755   2.477  0.1218  0.4574 -0.1703
   97SAPC    HA 9522   2.919   0.647   2.455  2.3938  0.2781  1.4286
   97SAPC    HB 9523   2.994   0.800   2.422  1.0828 -1.5531 -0.4042
   97SAPC    C2 9524   2.940   0.774   2.632  0.8183  0.2802  0.3082
   97SAPC    HS 9525   3.028   0.709   2.650  1.4012  1.1187  0.5617
   97SAPC   O21 9526   2.820   0.747   2.705  0.5291  0.3752  0.3039
   97SAPC   C21 9527   2.805   0.624   2.748 -0.4774  0.1595  0.1265
   97SAPC   O22 9528   2.882   0.532   2.735 -0.1291  0.0619  0.0258
   97SAPC   C22 9529   2.677   0.618   2.832 -0.3174 -0.1694  0.1208
   97SAPC   H2R 9530   2.677   0.684   2.921  2.3646 -0.0256  0.0932
   97SAPC   H2S 9531   2.598   0.655   2.763  0.2135 -1.7788 -1.4105
   97SAPC    C3 9532   2.972   0.926   2.657 -0.0929  0.1602  0.6212
   97SAPC    HX 9533   2.879   0.967   2.615 -0.2645  0.4817  1.3006
   97SAPC    HY 9534   3.063   0.965   2.607  0.1452 -2.8286 -1.5778
   97SAPC   O31 9535   2.966   0.959   2.794 -0.7882 -0.1892 -0.0428
   97SAPC   C31 9536   3.037   0.894   2.884  0.4419  0.4065  0.4669
   97SAPC   O32 9537   3.132   0.818   2.867 -0.3049 -0.6762  0.1562
   97SAPC   C32 9538   2.981   0.951   3.014  0.4399  0.1201  0.3237
   97SAPC   H2X 9539   2.873   0.926   3.011  1.1973 -3.6902 -0.6041
   97SAPC   H2Y 9540   2.994   1.061   3.010 -2.7239  0.5754  0.1398
   97SAPC   C23 9541   2.636   0.484   2.893  0.5679 -0.0252  0.0674
   97SAPC   H3R 9542   2.693   0.463   2.985  2.4147  2.2937 -0.4294
   97SAPC   H3S 9543   2.653   0.409   2.813  0.6422  0.6814 -0.5960
   97SAPC   C24 9544   2.484   0.487   2.934 -0.8537 -1.0326  0.4687
   97SAPC   H4R 9545   2.453   0.380   2.931 -0.3382 -1.1650 -0.7625
   97SAPC   H4S 9546   2.430   0.531   2.846  1.3341 -2.0096 -1.4564
   97SAPC   C25 9547   2.440   0.563   3.058  0.0207 -0.0810  0.4923
   97SAPC   H5R 9548   2.421   0.669   3.038  0.5393 -0.0306  0.2346
   97SAPC   C26 9549   2.434   0.512   3.185  0.2166  0.0794 -0.0304
   97SAPC   H6R 9550   2.419   0.584   3.267  2.1906 -1.0402  1.3927
   97SAPC   C27 9551   2.483   0.376   3.237  0.1418 -0.2994  0.1355
   97SAPC   H7R 9552   2.546   0.399   3.326  1.5827  0.1310 -0.9488
   97SAPC   H7S 9553   2.566   0.339   3.173  2.3625 -0.6375  3.0148
   97SAPC   C28 9554   2.373   0.268   3.251  0.5447  0.7849 -1.0153
   97SAPC   H8R 9555   2.333   0.237   3.153  3.1587 -0.2469 -1.8471
   97SAPC   C29 9556   2.322   0.208   3.369 -0.4920  0.2092  0.3211
   97SAPC   H9R 9557   2.246   0.129   3.369 -0.3332  0.0302 -0.9180
   97SAPC  C210 9558   2.369   0.242   3.508  0.2036  0.6457  0.8276
   97SAPC  H10R 9559   2.281   0.227   3.574 -0.3178  1.9049  0.4469
   97SAPC  H10S 9560   2.385   0.352   3.516 -0.6314  0.9269 -0.9746
   97SAPC  C211 9561   2.495   0.178   3.565 -0.6695  0.5250 -1.2026
   97SAPC  H11R 9562   2.585   0.190   3.504  0.7580  1.5420  0.9883
   97SAPC  C212 9563   2.523   0.138   3.689  0.0972 -0.3293  0.0040
   97SAPC  H12R 9564   2.627   0.106   3.702  0.3308  0.2480 -0.4259
   97SAPC  C213 9565   2.427   0.121   3.793  0.2176 -0.1037 -0.5235
   97SAPC  H13R 9566   2.456   0.033   3.853  0.6503  1.5017  1.7375
   97SAPC  H13S 9567   2.331   0.095   3.743  0.4058 -0.0598 -0.9123
   97SAPC  C214 9568   2.398   0.241   3.884 -0.3434 -0.4213  0.7852
   97SAPC  H14R 9569   2.371   0.337   3.836  2.8637  1.6947  2.8308
   97SAPC  C215 9570   2.390   0.244   4.015 -0.2428  0.5186  0.2898
   97SAPC  H15R 9571   2.350   0.330   4.070 -0.8958 -0.6361  1.6757
   97SAPC  C216 9572   2.421   0.118   4.103  1.3834 -0.3638  0.6442
   97SAPC  H16R 9573   2.479   0.034   4.058 -2.1672 -4.7093  3.3478
   97SAPC  H16S 9574   2.317   0.089   4.130  1.0715 -1.2933 -1.3539
   97SAPC  C217 9575   2.495   0.164   4.230 -0.4894 -0.3575 -0.3007
   97SAPC  H17R 9576   2.431   0.237   4.284 -0.2737  0.1224 -0.6846
   97SAPC  H17S 9577   2.596   0.202   4.202 -0.0176 -1.9170 -0.8373
   97SAPC  C218 9578   2.520   0.056   4.335 -0.1746  0.0310 -0.4604
   97SAPC  H18R 9579   2.588  -0.018   4.289 -0.3786 -0.0632 -0.6130
   97SAPC  H18S 9580   2.425   0.001   4.349  0.8127 -2.0160 -1.3752
   97SAPC  C219 9581   2.599   0.106   4.464  0.5529  0.2390 -0.8964
   97SAPC  H19R 9582   2.538   0.182   4.517 -1.9768 -1.3895 -1.3081
   97SAPC  H19S 9583   2.682   0.168   4.425 -0.8926  3.2440  0.5262
   97SAPC  C220 9584   2.637  -0.015   4.553 -0.1523 -0.7411 -0.1403
   97SAPC  H20R 9585   2.649  -0.101   4.483 -1.4076 -0.8319 -0.2617
   97SAPC  H20S 9586   2.560  -0.034   4.631 -2.0247 -0.4876 -1.8300
   97SAPC  H20T 9587   2.736   0.014   4.594 -0.6550 -0.8475  1.2095
   97SAPC   C33 9588   3.038   0.891   3.142 -0.3259 -0.8508 -0.8088
   97SAPC   H3X 9589   3.003   0.945   3.233  2.1751  0.3548 -0.4808
   97SAPC   H3Y 9590   3.147   0.908   3.130  0.3361  0.0288  4.2526
   97SAPC   C34 9591   2.994   0.742   3.166 -0.0631 -0.1663  0.0506
   97SAPC   H4X 9592   3.062   0.709   3.248  2.5009 -2.2485 -2.6981
   97SAPC   H4Y 9593   3.019   0.681   3.077 -3.1450  1.4340 -2.0971
   97SAPC   C35 9594   2.848   0.726   3.221 -0.3537  0.1324  0.4445
   97SAPC   H5X 9595   2.783   0.762   3.139  1.3364  1.2046 -0.4701
   97SAPC   H5Y 9596   2.840   0.800   3.303 -0.7719  1.1099 -0.4647
   97SAPC   C36 9597   2.820   0.580   3.272  0.2476  0.1082  0.2328
   97SAPC   H6X 9598   2.832   0.506   3.191 -1.4021 -0.9180  0.8683
   97SAPC   H6Y 9599   2.713   0.567   3.301 -0.0421  0.9558 -0.4261
   97SAPC   C37 9600   2.912   0.541   3.387  0.1375  0.4593  0.3835
   97SAPC   H7X 9601   2.917   0.625   3.459 -0.0473 -0.4723  1.5173
   97SAPC   H7Y 9602   3.017   0.510   3.369  0.2128  1.2606 -0.6836
   97SAPC   C38 9603   2.847   0.427   3.470 -0.1002 -0.6409 -0.6459
   97SAPC   H8X 9604   2.852   0.330   3.415 -0.8971 -0.7632 -0.5229
   97SAPC   H8Y 9605   2.741   0.449   3.495  0.0830  0.8577 -1.0882
   97SAPC   C39 9606   2.924   0.401   3.598 -0.1792 -0.2957 -0.0011
   97SAPC   H9X 9607   2.935   0.496   3.655 -1.1082  0.6896 -1.4009
   97SAPC   H9Y 9608   3.027   0.375   3.565 -0.3925  0.3934 -1.2682
   97SAPC  C310 9609   2.871   0.282   3.679  1.3010  0.0403 -0.6313
   97SAPC  H10X 9610   2.871   0.190   3.617 -2.4912  0.2763 -1.2279
   97SAPC  H10Y 9611   2.762   0.300   3.694  1.1936 -0.5139 -0.7112
   97SAPC  C311 9612   2.924   0.275   3.821 -0.8788 -0.0292  0.2208
   97SAPC  H11X 9613   2.904   0.374   3.865  1.6963  1.2716 -1.2456
   97SAPC  H11Y 9614   3.035   0.278   3.816 -0.8030 -0.9938  0.9759
   97SAPC  C312 9615   2.864   0.160   3.905 -1.5288 -0.0290  0.4944
   97SAPC  H12X 9616   2.881   0.077   3.833 -1.1109 -0.1713  0.7562
   97SAPC  H12Y 9617   2.755   0.166   3.927 -1.1722  0.0333  2.3549
   97SAPC  C313 9618   2.939   0.131   4.035  0.0511 -0.0802 -0.0001
   97SAPC  H13X 9619   2.936   0.214   4.108 -0.8232  0.2484 -0.3905
   97SAPC  H13Y 9620   3.046   0.115   4.009 -0.3153 -1.4731 -0.7451
   97SAPC  C314 9621   2.893  -0.001   4.093  0.0804 -0.1065  0.3651
   97SAPC  H14X 9622   2.914  -0.085   4.022  0.3828  0.3680 -0.1139
   97SAPC  H14Y 9623   2.782  -0.004   4.103  0.0997  0.2091  0.6642
   97SAPC  C315 9624   2.955  -0.029   4.229  0.2952 -0.0729 -0.0580
   97SAPC  H15X 9625   2.920   0.035   4.313  0.0324 -2.0843  1.4639
   97SAPC  H15Y 9626   3.064  -0.009   4.234  0.1491  0.4109  2.6211
   97SAPC  C316 9627   2.907  -0.170   4.258  1.0408 -0.2423  0.1847
   97SAPC  H16X 9628   2.956  -0.240   4.187  1.2964 -0.2227  0.3394
   97SAPC  H16Y 9629   2.797  -0.174   4.245  1.0409  2.5977 -1.2780
   97SAPC  C317 9630   2.938  -0.205   4.402 -0.0747 -0.1879 -0.2235
   97SAPC  H17X 9631   2.877  -0.133   4.462  0.8858  1.5421 -1.2420
   97SAPC  H17Y 9632   3.048  -0.195   4.410  0.1471  0.2494 -2.9038
   97SAPC  C318 9633   2.906  -0.356   4.425  0.1675  0.1671  0.5862
   97SAPC  H18X 9634   2.983  -0.420   4.375  2.6495  1.8199  2.0584
   97SAPC  H18Y 9635   2.814  -0.373   4.365  1.3314  0.0127 -1.2642
   97SAPC  H18Z 9636   2.895  -0.382   4.532 -2.2912  2.3860  0.9632
   98SAPC     N 9637   4.989   1.777   1.866  0.5229 -0.3605  0.0587
   98SAPC   C12 9638   5.062   1.675   1.956  0.1421  0.3493  0.1417
   98SAPC  H12A 9639   5.040   1.580   1.909  0.8447  2.4015 -4.9527
   98SAPC  H12B 9640   5.033   1.681   2.060  0.4299 -3.2940  0.5714
   98SAPC   C13 9641   5.038   1.776   1.729 -0.2028  0.3731  0.4262
   98SAPC  H13A 9642   5.074   1.677   1.702 -2.1214  0.0133 -1.0400
   98SAPC  H13B 9643   4.956   1.810   1.667  0.5718  2.6160  0.5585
   98SAPC  H13C 9644   5.115   1.851   1.721  0.5441 -0.1026  2.5353
   98SAPC   C14 9645   4.850   1.727   1.854 -0.3636 -0.2585 -0.0901
   98SAPC  H14A 9646   4.810   1.728   1.954  2.3723 -0.4363  1.0935
   98SAPC  H14B 9647   4.786   1.787   1.790 -0.6737  0.0244  0.4856
   98SAPC  H14C 9648   4.864   1.627   1.816  0.5538  0.2422 -1.1409
   98SAPC   C15 9649   4.986   1.921   1.925 -0.1778 -0.0019  0.8135
   98SAPC  H15A 9650   4.965   1.918   2.031  0.8756 -0.2001  1.0298
   98SAPC  H15B 9651   5.082   1.969   1.912  2.0985 -3.5630  2.9125
   98SAPC  H15C 9652   4.918   1.982   1.868 -1.1879 -0.5455  1.4190
   98SAPC   C11 9653   5.212   1.687   1.958  0.3751 -0.3276 -0.1296
   98SAPC  H11A 9654   5.257   1.668   1.858  1.1652  2.0704 -0.3049
   98SAPC  H11B 9655   5.255   1.607   2.020  1.9169  0.1076 -0.5894
   98SAPC     P 9656   5.275   1.833   2.157  0.0993 -0.5754 -0.1672
   98SAPC   O13 9657   5.402   1.900   2.187  0.2641 -0.1474 -0.3997
   98SAPC   O14 9658   5.154   1.886   2.223  0.2125 -0.0051  0.1645
   98SAPC   O12 9659   5.261   1.815   1.999  0.6121  0.2743  0.5230
   98SAPC   O11 9660   5.286   1.690   2.216 -0.0665  0.1810 -0.2420
   98SAPC    C1 9661   5.250   1.660   2.352 -0.7616  0.3757 -0.1404
   98SAPC    HA 9662   5.238   1.747   2.421  1.2798  0.3403  0.3218
   98SAPC    HB 9663   5.150   1.611   2.347 -0.5448 -0.4722  2.2723
   98SAPC    C2 9664   5.356   1.561   2.419  0.0558  0.0800  0.2591
   98SAPC    HS 9665   5.299   1.520   2.506 -0.5199  1.6928  0.6846
   98SAPC   O21 9666   5.477   1.623   2.455 -0.0023  0.2594 -1.1020
   98SAPC   C21 9667   5.469   1.709   2.561  0.4223 -1.2826  0.3675
   98SAPC   O22 9668   5.375   1.728   2.635 -0.4021  0.1530 -0.0951
   98SAPC   C22 9669   5.603   1.783   2.574 -0.2372 -0.2428  0.0497
   98SAPC   H2R 9670   5.636   1.797   2.469  0.7836 -0.2562  0.3477
   98SAPC   H2S 9671   5.585   1.871   2.639  1.0885  0.0622  0.0401
   98SAPC    C3 9672   5.384   1.443   2.317 -0.2479 -0.2554 -0.0690
   98SAPC    HX 9673   5.435   1.488   2.229  1.0298  0.7078  1.1236
   98SAPC    HY 9674   5.289   1.391   2.291  0.3568 -0.3053 -2.4122
   98SAPC   O31 9675   5.458   1.338   2.380  0.0098  0.3707 -0.3399
   98SAPC   C31 9676   5.560   1.292   2.313 -0.3768  0.1521 -0.2359
   98SAPC   O32 9677   5.599   1.338   2.203  0.4025  0.3429 -0.4501
   98SAPC   C32 9678   5.618   1.175   2.392  0.6283  0.5538 -1.1211
   98SAPC   H2X 9679   5.705   1.135   2.338  0.2751 -0.2928 -1.0837
   98SAPC   H2Y 9680   5.537   1.098   2.386  0.7228  0.2360  0.9167
   98SAPC   C23 9681   5.710   1.692   2.627  0.5054 -0.1836 -0.7781
   98SAPC   H3R 9682   5.804   1.750   2.629  1.4284 -1.6098 -1.2798
   98SAPC   H3S 9683   5.722   1.606   2.558 -0.8768  0.4588 -1.8699
   98SAPC   C24 9684   5.682   1.640   2.773  0.2617 -0.1034  0.8489
   98SAPC   H4R 9685   5.761   1.565   2.793  0.6568 -0.2975 -1.3068
   98SAPC   H4S 9686   5.587   1.583   2.776 -0.7950  1.4502 -1.0114
   98SAPC   C25 9687   5.668   1.743   2.879 -0.3181  0.0871  0.1413
   98SAPC   H5R 9688   5.671   1.851   2.857  1.9937  0.3512  1.4606
   98SAPC   C26 9689   5.689   1.712   3.009 -0.8456  0.3224  0.2713
   98SAPC   H6R 9690   5.696   1.791   3.085  2.8203  0.0671  0.4052
   98SAPC   C27 9691   5.712   1.574   3.072 -0.4516 -0.1081 -0.0516
   98SAPC   H7R 9692   5.811   1.538   3.036 -0.8833  0.1713 -1.6071
   98SAPC   H7S 9693   5.651   1.498   3.019 -1.5908  0.3511  0.5777
   98SAPC   C28 9694   5.706   1.570   3.224 -0.1231 -0.3387  0.1438
   98SAPC   H8R 9695   5.617   1.632   3.243  0.2108  1.3248 -2.9137
   98SAPC   C29 9696   5.763   1.493   3.308 -0.8579  0.4560 -0.1328
   98SAPC   H9R 9697   5.736   1.507   3.414  0.6710  0.9816  0.2166
   98SAPC  C210 9698   5.864   1.382   3.271  0.6618 -0.2021  0.2956
   98SAPC  H10R 9699   5.861   1.357   3.163 -0.1967  0.8316  0.0704
   98SAPC  H10S 9700   5.835   1.287   3.322 -1.0691  0.3923  0.4814
   98SAPC  C211 9701   6.006   1.409   3.319  0.2411 -0.1287  0.3722
   98SAPC  H11R 9702   6.017   1.379   3.424 -2.8425  1.9049  1.4129
   98SAPC  C212 9703   6.093   1.484   3.249 -0.1945  0.1274  0.1733
   98SAPC  H12R 9704   6.193   1.510   3.289 -0.6179  0.6091  0.9330
   98SAPC  C213 9705   6.067   1.559   3.119 -0.0318 -0.7713 -0.0974
   98SAPC  H13R 9706   5.994   1.641   3.134 -1.9251 -2.3579 -0.1278
   98SAPC  H13S 9707   6.011   1.492   3.050 -2.2635 -2.6647  3.2581
   98SAPC  C214 9708   6.189   1.606   3.046 -0.1444  0.2568 -0.2576
   98SAPC  H14R 9709   6.277   1.611   3.112  0.3028  1.1558 -0.8990
   98SAPC  C215 9710   6.205   1.627   2.915  0.5098  0.2522  0.1405
   98SAPC  H15R 9711   6.296   1.663   2.865  0.8210  0.2669  0.7007
   98SAPC  C216 9712   6.090   1.592   2.824  0.4859 -0.2502  0.0005
   98SAPC  H16R 9713   6.101   1.645   2.727 -2.7754 -3.4120 -2.3340
   98SAPC  H16S 9714   5.989   1.619   2.862 -0.3693 -2.8121 -0.3185
   98SAPC  C217 9715   6.089   1.446   2.779  0.1775  0.0123  0.4515
   98SAPC  H17R 9716   6.066   1.382   2.867  0.4883 -1.9797 -0.8672
   98SAPC  H17S 9717   6.189   1.410   2.748 -0.3362 -1.0739  0.0196
   98SAPC  C218 9718   5.995   1.416   2.663  0.3820 -0.1691 -0.6637
   98SAPC  H18R 9719   5.894   1.463   2.671  0.3715 -0.3015  0.1620
   98SAPC  H18S 9720   5.980   1.306   2.673  0.4256  0.0194  2.5956
   98SAPC  C219 9721   6.050   1.476   2.536 -0.5646 -0.0064  0.1253
   98SAPC  H19R 9722   6.153   1.435   2.526 -0.9074 -1.4124  1.9487
   98SAPC  H19S 9723   6.051   1.586   2.548  0.4914  0.0847 -0.6210
   98SAPC  C220 9724   5.984   1.420   2.413  0.1154  0.1171  0.2080
   98SAPC  H20R 9725   6.028   1.462   2.320  0.4675 -0.6810 -0.0032
   98SAPC  H20S 9726   5.878   1.451   2.415  0.9516  3.3095  1.5138
   98SAPC  H20T 9727   5.996   1.309   2.421  1.0722  0.2643  1.1334
   98SAPC   C33 9728   5.660   1.197   2.544  0.1134 -0.0556  0.3220
   98SAPC   H3X 9729   5.701   1.300   2.551 -2.3248  1.3812 -3.2724
   98SAPC   H3Y 9730   5.740   1.126   2.572 -0.5195 -0.0655  2.2367
   98SAPC   C34 9731   5.542   1.199   2.641 -0.5417  0.5178  0.3665
   98SAPC   H4X 9732   5.493   1.100   2.632 -0.7788  0.8003 -2.0560
   98SAPC   H4Y 9733   5.472   1.279   2.610 -0.9891 -0.0104  0.0061
   98SAPC   C35 9734   5.593   1.209   2.783  0.5257 -0.2276  0.1085
   98SAPC   H5X 9735   5.647   1.304   2.802 -0.2330  0.2357  0.0249
   98SAPC   H5Y 9736   5.674   1.135   2.801  1.0417 -0.0104 -1.2088
   98SAPC   C36 9737   5.481   1.171   2.888  0.1013 -0.2523 -0.5883
   98SAPC   H6X 9738   5.430   1.075   2.864 -3.0585  1.6104 -2.0456
   98SAPC   H6Y 9739   5.402   1.249   2.877 -0.7107 -1.1594 -1.3243
   98SAPC   C37 9740   5.533   1.176   3.029 -0.1426  0.0474 -0.5156
   98SAPC   H7X 9741   5.576   1.274   3.058  1.6218 -0.5986 -0.8550
   98SAPC   H7Y 9742   5.614   1.101   3.030  0.6169  0.8585 -0.0743
   98SAPC   C38 9743   5.431   1.137   3.143 -0.0552 -0.0737  0.1259
   98SAPC   H8X 9744   5.399   1.032   3.124 -1.7967  0.3009  0.8059
   98SAPC   H8Y 9745   5.347   1.209   3.132 -1.2391 -1.1401  1.6966
   98SAPC   C39 9746   5.503   1.148   3.276 -0.1813 -0.1073 -0.4075
   98SAPC   H9X 9747   5.559   1.244   3.281 -0.5935  0.0647  1.2898
   98SAPC   H9Y 9748   5.571   1.061   3.289  1.2598  1.0279 -0.0416
   98SAPC  C310 9749   5.407   1.142   3.400  0.3112  0.2098  0.6023
   98SAPC  H10X 9750   5.334   1.059   3.398  1.7403 -1.1689  2.2396
   98SAPC  H10Y 9751   5.367   1.246   3.399 -1.7195 -0.5252 -0.6036
   98SAPC  C311 9752   5.483   1.130   3.530  0.4182 -0.2643  0.3719
   98SAPC  H11X 9753   5.535   1.228   3.533 -1.3572  0.7597 -0.3693
   98SAPC  H11Y 9754   5.553   1.045   3.519  0.9733  0.2295  0.0317
   98SAPC  C312 9755   5.398   1.115   3.657  0.6130 -1.0429 -0.1431
   98SAPC  H12X 9756   5.362   1.010   3.668 -1.3835 -0.5046 -1.1079
   98SAPC  H12Y 9757   5.310   1.178   3.636  2.1016  0.8759 -0.9787
   98SAPC  C313 9758   5.468   1.158   3.783 -0.2499 -0.0519  0.2233
   98SAPC  H13X 9759   5.495   1.266   3.772  2.6183 -0.7728 -0.5725
   98SAPC  H13Y 9760   5.565   1.105   3.784 -0.2905 -0.1308  0.9578
   98SAPC  C314 9761   5.386   1.135   3.906  0.6695  0.2864 -0.5578
   98SAPC  H14X 9762   5.387   1.029   3.937  0.6031  0.0852 -1.2408
   98SAPC  H14Y 9763   5.279   1.152   3.880 -0.0620  0.2877  2.1497
   98SAPC  C315 9764   5.431   1.205   4.028  0.0857 -0.1309 -0.0961
   98SAPC  H15X 9765   5.373   1.181   4.120 -0.9832  0.5883 -0.5552
   98SAPC  H15Y 9766   5.424   1.315   4.014  1.4243  0.3585  2.3619
   98SAPC  C316 9767   5.585   1.175   4.050  0.7282  0.0403  0.1182
   98SAPC  H16X 9768   5.644   1.216   3.966  0.0775 -1.1596 -0.9581
   98SAPC  H16Y 9769   5.589   1.064   4.061  1.7957 -0.0052 -0.5845
   98SAPC  C317 9770   5.640   1.230   4.186  0.8085  0.5661  0.2281
   98SAPC  H17X 9771   5.621   1.338   4.168 -0.3291  0.0203 -2.3106
   98SAPC  H17Y 9772   5.750   1.216   4.180  1.1042  2.8645 -0.8366
   98SAPC  C318 9773   5.578   1.173   4.312 -0.8628 -0.2982 -0.6532
   98SAPC  H18X 9774   5.597   1.242   4.397 -4.0204  0.1795 -0.2147
   98SAPC  H18Y 9775   5.620   1.072   4.325  0.0884  0.2975  1.1609
   98SAPC  H18Z 9776   5.467   1.171   4.300 -0.7653  0.9761 -2.3181
   99SAPC     N 9777   2.685   5.683   2.383  0.0487 -0.1516 -0.4483
   99SAPC   C12 9778   2.793   5.637   2.284 -0.4282  0.0114 -0.3451
   99SAPC  H12A 9779   2.889   5.642   2.333  0.0523 -0.9216 -1.1629
   99SAPC  H12B 9780   2.810   5.713   2.210  0.4370 -1.2628 -1.4949
   99SAPC   C13 9781   2.659   5.575   2.472  0.1599  0.0650  0.4805
   99SAPC  H13A 9782   2.579   5.596   2.541  0.6146  3.2966  0.1875
   99SAPC  H13B 9783   2.639   5.480   2.424 -0.2148 -0.4702  1.6716
   99SAPC  H13C 9784   2.746   5.571   2.535  0.1295  2.1823  0.7160
   99SAPC   C14 9785   2.734   5.798   2.472  0.0833  0.3744  0.1178
   99SAPC  H14A 9786   2.835   5.778   2.505 -0.0602  0.9634  0.9486
   99SAPC  H14B 9787   2.733   5.889   2.413  0.0535 -0.2037 -0.7957
   99SAPC  H14C 9788   2.670   5.799   2.559  0.7018  0.4222  0.5827
   99SAPC   C15 9789   2.555   5.709   2.318 -0.3197 -1.3120 -0.1435
   99SAPC  H15A 9790   2.484   5.742   2.392 -0.8500  0.9266 -1.5554
   99SAPC  H15B 9791   2.572   5.788   2.246  1.2169 -0.5406  1.0178
   99SAPC  H15C 9792   2.522   5.629   2.253 -1.1147 -2.5901  1.7713
   99SAPC   C11 9793   2.785   5.492   2.217 -0.5065  0.3949  0.4057
   99SAPC  H11A 9794   2.872   5.488   2.148 -0.5383  0.4413  0.3629
   99SAPC  H11B 9795   2.698   5.495   2.148 -0.7474  0.4553  0.7086
   99SAPC     P 9796   2.918   5.347   2.382 -0.0371 -0.3670  0.1467
   99SAPC   O13 9797   2.887   5.255   2.494  0.2635 -0.3971  0.1066
   99SAPC   O14 9798   3.008   5.297   2.275 -0.0507  0.5683 -0.1666
   99SAPC   O12 9799   2.776   5.388   2.321  0.5648  0.2333 -0.7624
   99SAPC   O11 9800   2.971   5.494   2.439 -0.2267  0.5110 -0.0413
   99SAPC    C1 9801   3.109   5.487   2.489  0.0306  0.3799 -0.1688
   99SAPC    HA 9802   3.169   5.407   2.441  2.0017  0.7931  1.5021
   99SAPC    HB 9803   3.155   5.582   2.454 -0.3147  0.0882 -1.4742
   99SAPC    C2 9804   3.134   5.503   2.644  0.2437  0.2313 -0.1135
   99SAPC    HS 9805   3.245   5.498   2.646  0.2562 -1.1595 -1.7581
   99SAPC   O21 9806   3.075   5.397   2.720  0.3456  0.0301  0.3971
   99SAPC   C21 9807   3.154   5.300   2.759 -0.3518  1.2275  0.0773
   99SAPC   O22 9808   3.268   5.279   2.717 -0.0429 -0.1076  0.1024
   99SAPC   C22 9809   3.074   5.220   2.864  0.2374  0.0586  0.3479
   99SAPC   H2R 9810   2.965   5.227   2.844  0.5007  0.8388 -0.8925
   99SAPC   H2S 9811   3.105   5.114   2.854 -0.1931 -0.3839  2.8929
   99SAPC    C3 9812   3.084   5.640   2.694  0.5173  0.1458  0.6807
   99SAPC    HX 9813   2.975   5.624   2.705  0.6093 -1.6908 -0.5971
   99SAPC    HY 9814   3.101   5.713   2.611  0.0918 -1.6621 -1.0752
   99SAPC   O31 9815   3.139   5.676   2.830  0.2956 -0.0837 -0.1511
   99SAPC   C31 9816   3.057   5.673   2.926  0.2125  0.0793 -0.2508
   99SAPC   O32 9817   2.940   5.631   2.924  0.0598 -0.1766 -0.0186
   99SAPC   C32 9818   3.125   5.720   3.054  0.2413 -0.0323 -1.0376
   99SAPC   H2X 9819   3.106   5.827   3.077  2.1647 -0.2660  2.2975
   99SAPC   H2Y 9820   3.235   5.719   3.033  0.3621  2.1287 -0.6906
   99SAPC   C23 9821   3.105   5.278   3.003 -0.5098  0.2337  0.0500
   99SAPC   H3R 9822   3.067   5.381   3.017 -0.1628  0.3707 -0.0063
   99SAPC   H3S 9823   3.216   5.283   3.007 -0.6050  2.4178  0.7525
   99SAPC   C24 9824   3.044   5.204   3.117  0.0711  0.0453  0.5139
   99SAPC   H4R 9825   3.080   5.253   3.210  1.0454 -0.3535  0.3605
   99SAPC   H4S 9826   3.086   5.101   3.110 -0.1061  0.0771 -2.6498
   99SAPC   C25 9827   2.893   5.188   3.115 -0.5149 -0.0097 -0.3663
   99SAPC   H5R 9828   2.850   5.153   3.021 -0.5187 -0.0651 -0.3442
   99SAPC   C26 9829   2.809   5.179   3.220 -0.0810  0.4551  0.7133
   99SAPC   H6R 9830   2.706   5.147   3.198  1.2066 -1.9086 -2.5911
   99SAPC   C27 9831   2.842   5.190   3.365 -0.0787  0.0324  0.0209
   99SAPC   H7R 9832   2.924   5.264   3.376  0.3571 -0.7002  2.4109
   99SAPC   H7S 9833   2.885   5.092   3.397  3.8202  0.5330 -2.8358
   99SAPC   C28 9834   2.725   5.223   3.450 -0.3381 -0.1676 -0.2011
   99SAPC   H8R 9835   2.648   5.279   3.395 -0.6669  1.3258  1.6695
   99SAPC   C29 9836   2.706   5.211   3.587 -0.0839  0.0555 -0.2323
   99SAPC   H9R 9837   2.619   5.265   3.628 -2.1363 -1.2605 -2.5920
   99SAPC  C210 9838   2.801   5.151   3.689 -0.2174 -0.3481  0.7799
   99SAPC  H10R 9839   2.840   5.228   3.760  1.6400 -0.8733  0.3801
   99SAPC  H10S 9840   2.897   5.125   3.639 -0.0774  1.6094 -0.0508
   99SAPC  C211 9841   2.741   5.035   3.759  0.0533  0.6861 -0.7094
   99SAPC  H11R 9842   2.689   4.964   3.693 -1.1442  1.9385 -1.1627
   99SAPC  C212 9843   2.763   4.998   3.889  0.8110 -0.6562  0.5775
   99SAPC  H12R 9844   2.695   4.920   3.925 -2.0935  1.1005 -0.6762
   99SAPC  C213 9845   2.848   5.062   3.993  0.2356 -0.1522  0.1047
   99SAPC  H13R 9846   2.839   5.013   4.092  1.9397 -2.9001 -0.9815
   99SAPC  H13S 9847   2.795   5.159   4.002  0.8991  0.1082  1.4697
   99SAPC  C214 9848   2.997   5.093   3.967 -0.0307 -0.7951  0.4858
   99SAPC  H14R 9849   3.014   5.192   4.010 -3.0729  0.0098  0.0476
   99SAPC  C215 9850   3.093   5.027   3.899  0.3005 -0.1236  0.3988
   99SAPC  H15R 9851   3.191   5.076   3.893  0.2321 -0.0908 -0.5675
   99SAPC  C216 9852   3.081   4.887   3.844 -0.5711  1.2880 -0.5068
   99SAPC  H16R 9853   3.129   4.890   3.744  1.6001  2.1632  0.4845
   99SAPC  H16S 9854   2.977   4.851   3.827 -1.0866  1.7059  1.4541
   99SAPC  C217 9855   3.155   4.785   3.928  0.6181  0.5810 -0.4478
   99SAPC  H17R 9856   3.264   4.798   3.910  0.8553  0.4675  0.8398
   99SAPC  H17S 9857   3.136   4.681   3.892  3.5541 -0.2773  0.1756
   99SAPC  C218 9858   3.128   4.791   4.085 -0.5032 -0.0599  0.0467
   99SAPC  H18R 9859   3.028   4.755   4.118  0.3199 -0.3816  2.3758
   99SAPC  H18S 9860   3.139   4.896   4.117 -0.7689  0.1880 -0.6426
   99SAPC  C219 9861   3.225   4.698   4.168 -0.1213 -0.0022 -0.6292
   99SAPC  H19R 9862   3.331   4.716   4.141  0.1798  2.7546  1.8156
   99SAPC  H19S 9863   3.198   4.594   4.139 -1.8411  0.2375 -0.0213
   99SAPC  C220 9864   3.212   4.728   4.317  0.2998 -1.1700  0.1063
   99SAPC  H20R 9865   3.108   4.750   4.349  0.8352  1.6064  0.2394
   99SAPC  H20S 9866   3.269   4.822   4.333 -0.7546  0.0361 -2.4870
   99SAPC  H20T 9867   3.253   4.641   4.372  3.1317  0.6060  1.0044
   99SAPC   C33 9868   3.086   5.637   3.177  0.7319  0.3256  0.2256
   99SAPC   H3X 9869   3.132   5.538   3.159 -0.3010 -0.1847  0.3299
   99SAPC   H3Y 9870   2.978   5.615   3.186  1.0217 -0.9388  0.7704
   99SAPC   C34 9871   3.129   5.714   3.307 -0.3305  0.4018 -0.9127
   99SAPC   H4X 9872   3.056   5.796   3.326 -1.7381 -0.7947 -1.0216
   99SAPC   H4Y 9873   3.232   5.754   3.293  0.2189 -0.7967 -0.4490
   99SAPC   C35 9874   3.124   5.628   3.436  0.0414  0.6412 -0.6887
   99SAPC   H5X 9875   3.198   5.665   3.511 -0.3487  0.4701 -0.2159
   99SAPC   H5Y 9876   3.157   5.524   3.414  0.2632  1.1988 -3.2874
   99SAPC   C36 9877   2.984   5.624   3.506 -0.0476  0.1819  0.4169
   99SAPC   H6X 9878   2.898   5.594   3.443  0.3419 -1.1045  0.4596
   99SAPC   H6Y 9879   2.968   5.722   3.556 -0.8253 -0.3760  1.2976
   99SAPC   C37 9880   2.990   5.514   3.616  0.2830  0.4346  0.2365
   99SAPC   H7X 9881   3.040   5.425   3.573 -0.0923  0.3555 -0.0453
   99SAPC   H7Y 9882   2.887   5.478   3.638  0.0951  0.9070  0.1330
   99SAPC   C38 9883   3.063   5.554   3.747  0.0145  0.0762  0.5121
   99SAPC   H8X 9884   3.000   5.638   3.785 -1.6912 -1.5201  1.3447
   99SAPC   H8Y 9885   3.162   5.596   3.717 -0.6631  0.6261 -1.0624
   99SAPC   C39 9886   3.062   5.444   3.856  0.5768  0.1437  0.7103
   99SAPC   H9X 9887   3.140   5.373   3.822  0.7577 -0.0950  1.6044
   99SAPC   H9Y 9888   2.959   5.404   3.869  0.6068 -0.1845 -0.0521
   99SAPC  C310 9889   3.105   5.489   3.997 -0.1446 -0.2500 -0.1934
   99SAPC  H10X 9890   3.181   5.570   3.997  0.4213 -0.5930  3.2425
   99SAPC  H10Y 9891   3.152   5.409   4.059  0.7768  0.2845 -0.1776
   99SAPC  C311 9892   2.988   5.553   4.076 -0.1179  0.7895  1.3141
   99SAPC  H11X 9893   2.899   5.487   4.073 -0.3794  1.1704 -0.2824
   99SAPC  H11Y 9894   2.966   5.649   4.024  2.0357  0.3327 -0.6164
   99SAPC  C312 9895   3.030   5.591   4.219  0.4307 -0.0279 -0.7223
   99SAPC  H12X 9896   3.058   5.495   4.269 -0.3985 -0.5268 -1.1855
   99SAPC  H12Y 9897   2.942   5.637   4.269  1.7606  0.5082  1.2246
   99SAPC  C313 9898   3.144   5.685   4.242 -0.2011  0.1446 -0.0710
   99SAPC  H13X 9899   3.139   5.772   4.174 -0.9875 -0.7303 -1.1522
   99SAPC  H13Y 9900   3.242   5.636   4.221 -0.5280 -0.9034  0.7847
   99SAPC  C314 9901   3.151   5.740   4.392  0.0480 -0.4336  0.9480
   99SAPC  H14X 9902   3.178   5.653   4.456 -0.4277 -0.1267  1.5687
   99SAPC  H14Y 9903   3.052   5.784   4.419  0.1545  0.2026  0.3282
   99SAPC  C315 9904   3.262   5.853   4.402  0.5840  0.2039  0.5131
   99SAPC  H15X 9905   3.346   5.817   4.340  0.5368  2.5653 -1.0444
   99SAPC  H15Y 9906   3.290   5.851   4.509 -3.4147 -1.4469  1.7582
   99SAPC  C316 9907   3.221   5.987   4.337  0.1976  0.6594  0.8917
   99SAPC  H16X 9908   3.151   6.053   4.394  0.5269  1.3664  0.4889
   99SAPC  H16Y 9909   3.181   5.962   4.237 -3.5115  0.1277  2.3208
   99SAPC  C317 9910   3.350   6.079   4.315  0.7155 -0.2426  0.1639
   99SAPC  H17X 9911   3.426   6.008   4.276  0.8265 -0.9806  1.6565
   99SAPC  H17Y 9912   3.380   6.115   4.416  1.4228  2.0185 -0.7920
   99SAPC  C318 9913   3.328   6.213   4.243  0.1571 -0.1979  0.2226
   99SAPC  H18X 9914   3.281   6.289   4.309  0.9635  1.7871 -1.3965
   99SAPC  H18Y 9915   3.261   6.194   4.157 -0.6704  2.2096  0.2522
   99SAPC  H18Z 9916   3.423   6.266   4.219 -0.2343  1.7526  2.5390
  100SAPC     N 9917   1.186   4.232   2.005  0.7819  0.3465 -0.2976
  100SAPC   C12 9918   1.280   4.322   2.075  0.2274  0.0204  0.0725
  100SAPC  H12A 9919   1.217   4.384   2.138 -2.0454 -2.8322  0.8611
  100SAPC  H12B 9920   1.336   4.380   2.004  1.0201 -0.7482  0.0564
  100SAPC   C13 9921   1.258   4.139   1.906 -0.0573  0.1653 -0.2746
  100SAPC  H13A 9922   1.185   4.082   1.850  1.3756 -0.3319 -1.7315
  100SAPC  H13B 9923   1.321   4.189   1.833  0.6863  2.1816  1.6376
  100SAPC  H13C 9924   1.322   4.079   1.969 -0.2998  0.5963  0.3839
  100SAPC   C14 9925   1.109   4.140   2.096  0.5129  0.3717 -0.3259
  100SAPC  H14A 9926   1.070   4.191   2.184  2.1400  1.4143 -0.1516
  100SAPC  H14B 9927   1.029   4.090   2.044  1.0039 -1.2115  0.4031
  100SAPC  H14C 9928   1.169   4.059   2.135 -0.3228 -0.8893 -1.5987
  100SAPC   C15 9929   1.096   4.320   1.926 -0.5663 -0.4940  0.5213
  100SAPC  H15A 9930   1.027   4.259   1.870 -0.0951 -0.8431  0.3153
  100SAPC  H15B 9931   1.036   4.384   1.990  0.0135  2.0610 -1.3713
  100SAPC  H15C 9932   1.142   4.394   1.863 -0.3847 -0.5541  0.5824
  100SAPC   C11 9933   1.388   4.251   2.169  0.5747  0.3120  0.4367
  100SAPC  H11A 9934   1.333   4.183   2.238  1.3668 -0.6765  0.1229
  100SAPC  H11B 9935   1.441   4.335   2.219 -0.1153  2.6111 -2.4309
  100SAPC     P 9936   1.601   4.224   2.020  0.0586 -0.0877  0.4240
  100SAPC   O13 9937   1.668   4.116   1.938  0.4048 -0.4512 -0.6108
  100SAPC   O14 9938   1.543   4.338   1.945  0.0448  0.0951  0.0866
  100SAPC   O12 9939   1.486   4.163   2.104  0.3423  0.2575 -0.1229
  100SAPC   O11 9940   1.708   4.281   2.124 -0.2187 -0.1573 -0.4333
  100SAPC    C1 9941   1.772   4.194   2.215  0.3408  0.4502 -0.8879
  100SAPC    HA 9942   1.791   4.093   2.174 -0.3785 -0.6975  1.4304
  100SAPC    HB 9943   1.868   4.237   2.250  0.3330 -0.5894  0.5309
  100SAPC    C2 9944   1.699   4.169   2.353 -0.5338 -0.2625 -0.0094
  100SAPC    HS 9945   1.603   4.125   2.321  0.4704 -0.2545 -3.3908
  100SAPC   O21 9946   1.688   4.293   2.425 -0.5547  0.1320  0.2365
  100SAPC   C21 9947   1.573   4.315   2.474 -0.0939 -0.2203  0.2162
  100SAPC   O22 9948   1.485   4.231   2.480  0.0418 -0.4786  0.0759
  100SAPC   C22 9949   1.569   4.461   2.527 -0.0431  0.2641 -0.6601
  100SAPC   H2R 9950   1.675   4.491   2.546  0.0156 -0.8263  0.9764
  100SAPC   H2S 9951   1.531   4.519   2.441 -1.0695  1.0320  0.2759
  100SAPC    C3 9952   1.760   4.045   2.437 -0.3287 -0.3216  0.9458
  100SAPC    HX 9953   1.869   4.065   2.433 -0.3800 -0.1978 -0.0888
  100SAPC    HY 9954   1.737   3.952   2.381  1.5380  0.6997 -1.7392
  100SAPC   O31 9955   1.692   4.034   2.569  0.6282 -0.3585  0.1273
  100SAPC   C31 9956   1.759   4.079   2.678  0.0684 -0.1236  0.8663
  100SAPC   O32 9957   1.864   4.141   2.678 -0.3362 -0.7432 -0.3463
  100SAPC   C32 9958   1.685   4.043   2.811 -0.3613 -0.3708  0.4044
  100SAPC   H2X 9959   1.621   4.132   2.827  0.6091  0.5707 -0.8149
  100SAPC   H2Y 9960   1.762   4.043   2.892 -0.6685 -2.0620  0.7525
  100SAPC   C23 9961   1.464   4.490   2.640 -0.1711 -0.4787  0.3192
  100SAPC   H3R 9962   1.361   4.472   2.604 -0.5112 -1.6294  1.7893
  100SAPC   H3S 9963   1.482   4.595   2.671  2.8209 -0.9630  0.5962
  100SAPC   C24 9964   1.478   4.402   2.775  0.8647  0.3985  0.0619
  100SAPC   H4R 9965   1.471   4.296   2.743  0.6880  0.2927  0.4525
  100SAPC   H4S 9966   1.396   4.427   2.845  0.3150 -2.0533  0.4010
  100SAPC   C25 9967   1.604   4.424   2.849  0.5404 -0.3745 -0.2671
  100SAPC   H5R 9968   1.695   4.434   2.788 -1.8163 -1.8802 -4.3651
  100SAPC   C26 9969   1.618   4.451   2.978  0.4883  0.1761 -0.6467
  100SAPC   H6R 9970   1.719   4.471   3.019 -0.5499  1.5078  1.4284
  100SAPC   C27 9971   1.503   4.452   3.076  0.6597 -0.3224  0.2629
  100SAPC   H7R 9972   1.443   4.360   3.061 -1.5890  1.0583  0.3673
  100SAPC   H7S 9973   1.447   4.541   3.042 -0.3104 -1.3382 -0.9135
  100SAPC   C28 9974   1.532   4.477   3.222  0.3261  0.0316 -0.5423
  100SAPC   H8R 9975   1.572   4.576   3.249  0.7143 -0.4713  0.8260
  100SAPC   C29 9976   1.511   4.387   3.326  0.3048 -0.0243  0.2105
  100SAPC   H9R 9977   1.528   4.409   3.432 -2.2160 -2.4515  1.2443
  100SAPC  C210 9978   1.451   4.250   3.308 -0.3505 -0.0147 -0.2688
  100SAPC  H10R 9979   1.492   4.189   3.391  4.4486  0.7061 -1.7957
  100SAPC  H10S 9980   1.482   4.200   3.214 -0.4193  0.2166 -0.4171
  100SAPC  C211 9981   1.301   4.262   3.315  0.1728 -0.5099 -0.5015
  100SAPC  H11R 9982   1.256   4.284   3.217 -0.3880 -1.4478 -0.4700
  100SAPC  C212 9983   1.218   4.269   3.422 -0.1778 -0.9776 -0.8429
  100SAPC  H12R 9984   1.109   4.283   3.419 -0.3833 -1.1733  2.3834
  100SAPC  C213 9985   1.271   4.248   3.567  0.6159 -0.2465 -0.1111
  100SAPC  H13R 9986   1.374   4.206   3.574  1.4386  1.0820 -2.7298
  100SAPC  H13S 9987   1.200   4.176   3.612  0.1877  0.2681  0.0489
  100SAPC  C214 9988   1.261   4.385   3.653  0.4369  0.1033 -0.0794
  100SAPC  H14R 9989   1.300   4.472   3.598 -1.0583 -0.4515 -2.1283
  100SAPC  C215 9990   1.189   4.401   3.767 -0.2533 -0.5597 -0.1579
  100SAPC  H15R 9991   1.203   4.485   3.836 -2.1423  0.0477 -0.4555
  100SAPC  C216 9992   1.112   4.292   3.841  0.1361 -0.0883  0.4358
  100SAPC  H16R 9993   1.080   4.204   3.781  1.2083 -0.0471 -0.2389
  100SAPC  H16S 9994   1.020   4.346   3.871 -0.2940  0.8795 -2.2718
  100SAPC  C217 9995   1.188   4.245   3.959  0.0735  0.1687  0.2006
  100SAPC  H17R 9996   1.284   4.192   3.943  0.2861 -0.1032  2.0917
  100SAPC  H17S 9997   1.125   4.169   4.010 -1.7502  1.9860  0.8352
  100SAPC  C218 9998   1.221   4.355   4.067 -0.0160  0.3112  0.3487
  100SAPC  H18R 9999   1.116   4.375   4.100 -1.2947 -2.6621 -1.5219
  100SAPC  H18S10000   1.256   4.456   4.037  1.2456 -0.3811 -0.5517
  100SAPC  C21910001   1.305   4.300   4.186  0.0581  0.2144 -0.5780
  100SAPC  H19R10002   1.412   4.283   4.161  0.4409  2.1966 -0.4270
  100SAPC  H19S10003   1.261   4.206   4.226  1.4736 -0.5759 -0.8180
  100SAPC  C22010004   1.302   4.411   4.300  0.4629  0.1033 -0.0147
  100SAPC  H20R10005   1.195   4.413   4.329  0.8038  0.6020  1.2765
  100SAPC  H20S10006   1.339   4.514   4.280  0.3134 -0.2502 -2.4545
  100SAPC  H20T10007   1.361   4.365   4.382  0.5330 -1.4087 -0.8784
  100SAPC   C3310008   1.598   3.914   2.806 -0.6439 -0.3068 -0.4796
  100SAPC   H3X10009   1.659   3.833   2.761 -2.4853 -1.4754 -0.9846
  100SAPC   H3Y10010   1.511   3.929   2.739 -1.1301  0.1744  0.2458
  100SAPC   C3410011   1.549   3.876   2.946  0.4997  0.3019  0.4934
  100SAPC   H4X10012   1.639   3.848   3.004  0.1809 -2.4119 -0.2243
  100SAPC   H4Y10013   1.464   3.807   2.931  0.6618  0.4589 -1.3838
  100SAPC   C3510014   1.481   3.990   3.027 -1.1360  0.3870 -0.1567
  100SAPC   H5X10015   1.423   4.061   2.963  1.0108  1.3443 -1.1579
  100SAPC   H5Y10016   1.559   4.058   3.068 -0.8177 -0.1752  0.1755
  100SAPC   C3610017   1.395   3.941   3.145 -0.0670  0.3700 -0.0929
  100SAPC   H6X10018   1.327   3.864   3.103  0.5570  0.3055 -1.0004
  100SAPC   H6Y10019   1.347   4.029   3.194  2.8863  1.8909  0.2953
  100SAPC   C3710020   1.482   3.873   3.259 -0.2534  0.1058  0.0285
  100SAPC   H7X10021   1.567   3.942   3.275 -0.5443  0.6842 -0.8035
  100SAPC   H7Y10022   1.531   3.781   3.220 -1.7409 -0.2695 -1.0731
  100SAPC   C3810023   1.400   3.838   3.382 -0.3145  0.1889  0.0366
  100SAPC   H8X10024   1.326   3.761   3.352 -0.4648  0.1200  0.5794
  100SAPC   H8Y10025   1.335   3.921   3.419  0.6391 -0.2767  3.0083
  100SAPC   C3910026   1.469   3.778   3.509  0.0608  0.2160  0.2491
  100SAPC   H9X10027   1.565   3.825   3.539  1.5043 -2.2870 -0.2132
  100SAPC   H9Y10028   1.495   3.674   3.480  2.1567  0.9347 -0.5936
  100SAPC  C31010029   1.369   3.772   3.627 -0.9797 -0.5266  0.0164
  100SAPC  H10X10030   1.386   3.678   3.685 -2.0078 -1.9815 -1.9098
  100SAPC  H10Y10031   1.272   3.748   3.579 -1.8646  1.1333  0.9186
  100SAPC  C31110032   1.350   3.894   3.706 -0.0053  0.2850  0.4580
  100SAPC  H11X10033   1.334   3.982   3.639 -0.0745  1.0034  1.4023
  100SAPC  H11Y10034   1.444   3.924   3.757  0.1392  0.7859 -0.0884
  100SAPC  C31210035   1.233   3.883   3.798  0.7343 -0.1169  0.2357
  100SAPC  H12X10036   1.143   3.846   3.744 -0.2924 -1.1461  2.5041
  100SAPC  H12Y10037   1.205   3.984   3.835  1.1197  0.5929 -1.3050
  100SAPC  C31310038   1.263   3.795   3.920 -0.5330  0.5602 -0.3771
  100SAPC  H13X10039   1.348   3.837   3.978 -0.3054 -2.3571  1.6329
  100SAPC  H13Y10040   1.289   3.701   3.867 -0.5342  2.2927 -3.6702
  100SAPC  C31410041   1.163   3.782   4.031 -0.1650 -0.0632  0.7417
  100SAPC  H14X10042   1.083   3.734   3.970 -0.4239  1.8072 -0.4703
  100SAPC  H14Y10043   1.142   3.884   4.069  0.1038  0.6860 -0.9921
  100SAPC  C31510044   1.193   3.691   4.151  0.5625 -0.2934 -0.0687
  100SAPC  H15X10045   1.217   3.593   4.106 -0.7912 -0.4190 -0.5693
  100SAPC  H15Y10046   1.097   3.668   4.203  1.3244 -2.2135  0.5442
  100SAPC  C31610047   1.296   3.750   4.250 -0.3027  0.3292  0.2338
  100SAPC  H16X10048   1.253   3.846   4.288 -2.9084 -1.0642  1.0661
  100SAPC  H16Y10049   1.390   3.763   4.192 -0.8911 -1.3493 -1.1768
  100SAPC  C31710050   1.312   3.657   4.367 -0.3268  0.0668 -0.0402
  100SAPC  H17X10051   1.316   3.554   4.324 -1.8646  0.3439 -0.9399
  100SAPC  H17Y10052   1.224   3.660   4.434 -1.0843  1.2572 -1.0327
  100SAPC  C31810053   1.440   3.690   4.442 -0.5865  0.0920 -0.1880
  100SAPC  H18X10054   1.465   3.622   4.527  2.9735 -1.1364 -2.0091
  100SAPC  H18Y10055   1.436   3.795   4.477 -0.6885 -0.1564  0.5645
  100SAPC  H18Z10056   1.527   3.688   4.373 -0.6183  1.2318 -0.2816
  101OSM      N10057   3.245   3.114   6.964 -0.4503  0.3880  0.4018
  101OSM    C1510058   3.288   3.190   6.843  0.2578 -0.2845 -0.2417
  101OSM   H15A10059   3.301   3.295   6.867 -0.7446  0.0932 -1.2603
  101OSM   H15B10060   3.210   3.167   6.772 -1.9118 -2.7408  2.6459
  101OSM   H15C10061   3.380   3.149   6.805 -0.0155 -0.0957 -1.1300
  101OSM    C1410062   3.161   3.199   7.043  0.0993 -1.3223  0.0105
  101OSM   H14A10063   3.124   3.158   7.136 -2.4506 -1.2227 -0.8746
  101OSM   H14B10064   3.075   3.218   6.980  1.3098 -2.0313 -1.9491
  101OSM   H14C10065   3.198   3.296   7.074  0.5641 -1.8727  1.2461
  101OSM    C1310066   3.174   2.984   6.938 -0.5518 -0.6755 -0.9036
  101OSM   H13A10067   3.150   2.951   7.038  1.6755  2.2251  0.7346
  101OSM   H13B10068   3.230   2.912   6.881 -0.2322  0.8446 -2.6028
  101OSM   H13C10069   3.076   3.006   6.897 -1.0256  1.2675  1.0331
  101OSM    C1210070   3.375   3.096   7.050  0.1832  0.0848 -0.1304
  101OSM   H12A10071   3.351   3.064   7.151 -1.9349  0.3851 -0.4914
  101OSM   H12B10072   3.412   3.194   7.074  0.1776  0.0352  0.0834
  101OSM    C1110073   3.486   3.012   6.982  0.5364 -1.4220 -0.7966
  101OSM   H11A10074   3.453   2.914   6.940 -2.1120 -1.7529  1.7624
  101OSM   H11B10075   3.550   2.992   7.070 -1.1444  0.9301  1.0732
  101OSM      P10076   3.670   3.034   6.797  0.2501 -0.2591 -0.1004
  101OSM    O1310077   3.782   3.126   6.783  0.1530  0.6603  0.0149
  101OSM    O1410078   3.700   2.894   6.833  0.0556  0.0057 -0.3435
  101OSM    O1110079   3.596   3.017   6.652  0.1068 -0.1368 -0.3659
  101OSM    O1210080   3.555   3.090   6.892 -0.2789  0.1409  0.0470
  101OSM    C1S10081   3.620   3.099   6.542 -0.1377 -0.6228  0.8251
  101OSM    H1S10082   3.729   3.103   6.521 -0.5329 -2.2602 -2.0588
  101OSM    H1T10083   3.585   3.202   6.562 -1.8747 -1.2570  1.2143
  101OSM     NF10084   3.615   3.115   6.302  0.2616 -0.2997  0.3342
  101OSM    HNF10085   3.566   3.183   6.248  1.0336  1.2520  1.5211
  101OSM    C2S10086   3.557   3.044   6.412 -1.0049 -0.0434  0.0628
  101OSM    H2S10087   3.582   2.937   6.403 -0.8788 -0.0485  0.4405
  101OSM    C3S10088   3.404   3.052   6.427  0.2548 -0.5833  0.0467
  101OSM    H3S10089   3.382   3.161   6.431  0.3996 -0.5865  1.7282
  101OSM     O310090   3.349   3.003   6.551 -0.1178 -0.7435 -0.5242
  101OSM    HO310091   3.427   2.980   6.601 -1.4871 -0.9582  1.6799
  101OSM    C4S10092   3.320   2.998   6.315 -0.1429 -0.4112  0.3313
  101OSM    H4S10093   3.304   3.065   6.229 -0.3610  0.4027  0.9952
  101OSM    C5S10094   3.268   2.877   6.310  0.0998 -0.0317  0.1599
  101OSM    H5S10095   3.291   2.806   6.391  0.8056 -0.7211 -0.6336
  101OSM    C6S10096   3.180   2.838   6.195 -0.1433 -0.0398  0.3810
  101OSM    H6S10097   3.072   2.850   6.220  0.3455  1.6668  1.8793
  101OSM    H6T10098   3.204   2.734   6.163 -1.4455 -0.1187 -0.4099
  101OSM    C7S10099   3.190   2.921   6.062  0.1966 -0.0731  0.4360
  101OSM    H7S10100   3.293   2.913   6.022  0.6205 -1.2686  1.7033
  101OSM    H7T10101   3.164   3.028   6.069  1.9360  0.3777  0.3052
  101OSM    C8S10102   3.098   2.849   5.960 -0.4256  0.0349  0.3418
  101OSM    H8S10103   2.993   2.833   5.994 -0.7496  1.3102 -0.0092
  101OSM    H8T10104   3.142   2.748   5.945 -2.6393 -0.8428 -0.6855
  101OSM    C9S10105   3.096   2.916   5.823  0.3571 -0.1101 -0.1408
  101OSM    H9S10106   3.200   2.943   5.795 -0.6824  2.6473 -1.7780
  101OSM    H9T10107   3.040   3.011   5.837 -0.5645 -0.4584 -1.2741
  101OSM   C10S10108   3.020   2.847   5.713 -0.1591  0.3378  0.3337
  101OSM   H10S10109   2.910   2.837   5.724 -0.1847  1.4258  1.1858
  101OSM   H10T10110   3.062   2.744   5.705  0.9926  0.8163 -0.1293
  101OSM   C11S10111   3.034   2.901   5.575  0.2886  0.8015 -0.4147
  101OSM   H11S10112   3.069   2.824   5.504 -0.8617 -1.1075  0.9960
  101OSM   H11T10113   3.113   2.980   5.565  2.3063 -1.1298 -0.5214
  101OSM   C12S10114   2.904   2.955   5.511 -0.7527 -0.0181  0.1752
  101OSM   H12S10115   2.830   3.012   5.571  2.2022  0.6303  3.5460
  101OSM   H12T10116   2.839   2.867   5.491 -0.5871 -0.1529  0.2280
  101OSM   C13S10117   2.927   3.014   5.368 -0.2586  0.1427  0.9921
  101OSM   H13S10118   3.030   2.996   5.331 -0.7638  0.9287 -0.9266
  101OSM   H13T10119   2.906   3.123   5.381  3.5266  1.1735 -0.2136
  101OSM   C14S10120   2.826   2.967   5.263  0.3334 -0.0224 -0.5394
  101OSM   H14S10121   2.730   3.016   5.291  0.9545  0.2735  1.2414
  101OSM   H14T10122   2.820   2.856   5.269 -2.2429  0.0999  0.4250
  101OSM   C15S10123   2.863   3.016   5.127 -0.3852 -0.7092  0.0479
  101OSM   H15S10124   2.968   2.997   5.098  0.0819  1.2802  0.2984
  101OSM   H15T10125   2.846   3.126   5.126 -0.1040 -0.6709 -0.8485
  101OSM   C16S10126   2.774   2.956   5.014  1.1928 -0.2972  0.1707
  101OSM   H16S10127   2.670   2.952   5.052  0.9937  2.2486  0.0783
  101OSM   H16T10128   2.813   2.855   4.990  0.7156 -0.4360 -0.0282
  101OSM   C17S10129   2.776   3.034   4.882 -0.1108 -0.2356 -0.3894
  101OSM   H17S10130   2.877   3.027   4.836  0.4876 -1.2623  1.0160
  101OSM   H17T10131   2.754   3.141   4.904 -1.2723 -0.4181 -0.5769
  101OSM   C18S10132   2.684   2.971   4.780  1.4158 -0.0903  0.0083
  101OSM   H18S10133   2.579   2.975   4.818  1.3606  2.5033 -0.2125
  101OSM   H18T10134   2.716   2.868   4.754 -1.3010 -1.4586  1.6025
  101OSM   H18U10135   2.674   3.042   4.695 -1.1802 -1.6975 -1.1464
  101OSM    C1F10136   3.742   3.083   6.265  0.2359 -0.2571 -1.0033
  101OSM     OF10137   3.800   2.989   6.315  0.3041  0.4225 -0.2536
  101OSM    C2F10138   3.806   3.188   6.175 -0.1036  0.0851  0.7485
  101OSM    H2F10139   3.858   3.255   6.247  0.0521 -0.2967  0.9945
  101OSM    H2G10140   3.717   3.235   6.129 -0.5708 -1.4642  0.0048
  101OSM    C3F10141   3.896   3.118   6.073 -0.0451  1.1892 -0.0537
  101OSM    H3F10142   3.833   3.036   6.031 -0.3134  0.5670  1.5112
  101OSM    H3G10143   3.978   3.055   6.113 -0.0183  0.3333 -1.3863
  101OSM    C4F10144   3.940   3.213   5.957 -0.8024  0.6712 -0.0370
  101OSM    H4F10145   4.014   3.287   5.994 -0.3548 -0.0970  0.6247
  101OSM    H4G10146   3.850   3.265   5.917 -1.7468 -0.7585  0.1425
  101OSM    C5F10147   4.010   3.142   5.846  0.2906 -0.2627 -0.2365
  101OSM    H5F10148   3.935   3.076   5.796  0.3916  0.2013 -1.0288
  101OSM    H5G10149   4.087   3.076   5.890 -2.8268 -2.9211  1.6649
  101OSM    C6F10150   4.076   3.240   5.749 -0.3347 -0.4260 -0.3135
  101OSM    H6F10151   4.152   3.304   5.800  0.4040 -0.4568 -1.3571
  101OSM    H6G10152   4.014   3.319   5.701  0.4578 -0.2791 -1.1134
  101OSM    C7F10153   4.152   3.181   5.627 -0.0592 -0.5672 -0.3261
  101OSM    H7F10154   4.090   3.107   5.572  0.8039  0.9841 -3.6355
  101OSM    H7G10155   4.240   3.126   5.668  0.0653 -1.2593 -1.4726
  101OSM    C8F10156   4.207   3.288   5.536  0.2744  1.0424  0.1322
  101OSM    H8F10157   4.281   3.243   5.468 -0.3818  2.0008 -1.2728
  101OSM    H8G10158   4.250   3.365   5.604 -1.3200  0.6059  1.7282
  101OSM    C9F10159   4.100   3.356   5.450 -0.2375  0.3692 -0.1422
  101OSM    H9F10160   4.009   3.380   5.507 -0.2444 -1.2365  0.5853
  101OSM   C10F10161   4.107   3.373   5.315  0.0043 -0.1785 -0.7610
  101OSM   H10F10162   4.020   3.428   5.276 -0.1410  1.4564  1.6579
  101OSM   C11F10163   4.223   3.345   5.228 -0.5363  0.4894  0.0511
  101OSM   H11F10164   4.214   3.244   5.182 -0.6059 -0.9866  3.1164
  101OSM   H11G10165   4.311   3.358   5.295 -1.9245  1.5479  1.7334
  101OSM   C12F10166   4.233   3.447   5.118 -0.2996 -0.4567 -0.6225
  101OSM   H12F10167   4.339   3.439   5.086 -0.1898  3.8875 -2.0724
  101OSM   H12G10168   4.217   3.549   5.160  0.1658 -0.7279  0.2316
  101OSM   C13F10169   4.146   3.421   4.993 -0.0117 -0.4493  0.3209
  101OSM   H13F10170   4.145   3.507   4.923 -1.0207 -1.1032 -0.4966
  101OSM   H13G10171   4.044   3.414   5.035 -0.0187  0.3533  0.4477
  101OSM   C14F10172   4.190   3.293   4.926 -0.2404 -0.6747  0.3061
  101OSM   H14F10173   4.152   3.203   4.980  2.3033 -1.2730  1.2536
  101OSM   H14G10174   4.300   3.277   4.923 -0.0783 -0.2996  2.5488
  101OSM   C15F10175   4.129   3.284   4.785 -0.4750  0.0740  0.2584
  101OSM   H15F10176   4.164   3.377   4.734  0.3414 -1.3514 -1.8794
  101OSM   H15G10177   4.020   3.297   4.803 -0.4409  0.5692  0.1307
  101OSM   C16F10178   4.171   3.158   4.707 -0.6183 -0.4416  0.2559
  101OSM   H16F10179   4.166   3.063   4.764 -3.6321 -1.2838 -1.1670
  101OSM   H16G10180   4.277   3.169   4.677 -0.5221  0.6313  0.9552
  101OSM   C17F10181   4.089   3.125   4.581 -0.2367  0.8247 -1.0863
  101OSM   H17F10182   4.107   3.204   4.506  4.5843  1.2734  0.1656
  101OSM   H17G10183   3.981   3.120   4.604 -0.3459 -0.9862 -1.8201
  101OSM   C18F10184   4.131   2.990   4.515  0.4527 -0.5866 -0.4352
  101OSM   H18F10185   4.234   2.995   4.471  0.7131  0.5712  0.2523
  101OSM   H18G10186   4.063   2.980   4.428  2.0726 -2.6423 -1.5559
  101OSM   H18H10187   4.112   2.911   4.589  1.8062  0.2202  0.8400
  102OSM      N10188   4.076   2.426   7.062  0.1010  0.3327  0.5805
  102OSM    C1510189   4.178   2.410   6.952 -0.0295  0.1110 -0.8648
  102OSM   H15A10190   4.141   2.345   6.874 -0.2265 -0.0835 -0.6081
  102OSM   H15B10191   4.261   2.352   6.990 -1.6185 -2.2080 -0.7330
  102OSM   H15C10192   4.208   2.508   6.917  1.0950 -0.2438 -0.9423
  102OSM    C1410193   4.014   2.297   7.097 -0.2089 -0.5521  0.2281
  102OSM   H14A10194   3.951   2.313   7.183  0.5516  0.4260  0.6263
  102OSM   H14B10195   4.083   2.220   7.131 -0.1789 -0.4086  0.4938
  102OSM   H14C10196   3.958   2.251   7.018  0.3763  0.5090 -0.8272
  102OSM    C1310197   4.145   2.492   7.183  0.2927 -0.6258 -0.4336
  102OSM   H13A10198   4.170   2.595   7.161 -2.3498 -0.3012 -2.4613
  102OSM   H13B10199   4.228   2.430   7.216  0.5793 -1.0288 -1.8000
  102OSM   H13C10200   4.074   2.505   7.262  0.6592  4.3383 -0.6016
  102OSM    C1210201   3.970   2.512   7.000  0.1333 -0.7162 -0.4342
  102OSM   H12A10202   3.996   2.617   7.011  0.8043 -0.8902 -0.3561
  102OSM   H12B10203   3.880   2.500   7.059 -0.0973  1.0929 -0.3397
  102OSM    C1110204   3.934   2.484   6.853  0.2767  0.6459 -0.1312
  102OSM   H11A10205   4.019   2.493   6.782  0.1689 -0.7496 -0.4681
  102OSM   H11B10206   3.865   2.564   6.818  4.5613  4.6904 -0.3831
  102OSM      P10207   3.720   2.333   6.847 -0.1791  0.1445  0.2452
  102OSM    O1310208   3.699   2.187   6.868  0.2284 -0.0536 -0.5648
  102OSM    O1410209   3.659   2.426   6.947  0.2121  0.0499  0.2156
  102OSM    O1110210   3.673   2.378   6.700  0.1382 -0.7801  0.7092
  102OSM    O1210211   3.870   2.353   6.843  0.1205  0.1685 -0.4737
  102OSM    C1S10212   3.770   2.341   6.600 -0.5910 -0.4635 -0.4128
  102OSM    H1S10213   3.798   2.234   6.602  2.8190  0.3195  0.3625
  102OSM    H1T10214   3.868   2.392   6.614 -0.8227  0.0532 -0.6279
  102OSM     NF10215   3.816   2.365   6.358 -0.1345  0.2738  0.3128
  102OSM    HNF10216   3.875   2.438   6.323  2.3050 -1.8203 -0.2411
  102OSM    C2S10217   3.719   2.394   6.461  0.2345 -0.2044 -0.5034
  102OSM    H2S10218   3.628   2.338   6.430 -0.5780  0.1579  1.1042
  102OSM    C3S10219   3.681   2.552   6.465 -0.6446  0.4491 -0.0164
  102OSM    H3S10220   3.766   2.618   6.492  0.3282 -0.4933 -0.6664
  102OSM     O310221   3.588   2.577   6.568 -0.5394 -0.0564  0.0737
  102OSM    HO310222   3.603   2.505   6.630  0.1809 -1.0678 -1.2235
  102OSM    C4S10223   3.612   2.593   6.335 -0.0929 -0.2474  0.4015
  102OSM    H4S10224   3.535   2.523   6.303  0.0678 -0.9706  1.5266
  102OSM    C5S10225   3.652   2.694   6.247 -0.6811  0.4877  0.6703
  102OSM    H5S10226   3.730   2.767   6.274 -1.1131  1.1614  0.1090
  102OSM    C6S10227   3.565   2.718   6.132 -0.0489  0.2056  0.5833
  102OSM    H6S10228   3.552   2.828   6.122 -0.8065  0.0062 -0.8513
  102OSM    H6T10229   3.467   2.670   6.149 -0.8427  1.2678 -0.7335
  102OSM    C7S10230   3.631   2.677   5.999  0.2265 -0.0178  0.3071
  102OSM    H7S10231   3.618   2.568   5.983  2.9566 -0.6216  1.5589
  102OSM    H7T10232   3.740   2.698   6.006  0.4631 -1.4334  1.4010
  102OSM    C8S10233   3.562   2.744   5.875  0.0203 -0.4268  0.0325
  102OSM    H8S10234   3.585   2.853   5.867  1.3823 -0.8165 -1.8739
  102OSM    H8T10235   3.455   2.716   5.873 -0.2985  0.6811 -2.6132
  102OSM    C9S10236   3.614   2.692   5.738  0.4041 -0.2532 -0.6757
  102OSM    H9S10237   3.622   2.581   5.733 -0.8325 -0.3091 -2.1691
  102OSM    H9T10238   3.714   2.730   5.710  0.4637 -0.3756 -0.6295
  102OSM   C10S10239   3.518   2.729   5.629 -0.6444  0.5212 -0.1628
  102OSM   H10S10240   3.518   2.839   5.611  2.0441  0.7573  0.8167
  102OSM   H10T10241   3.414   2.693   5.644 -0.9393  1.3666 -0.0923
  102OSM   C11S10242   3.564   2.666   5.489  0.5888  0.3889 -0.8248
  102OSM   H11S10243   3.557   2.556   5.502  0.7669  0.3358 -1.1516
  102OSM   H11T10244   3.669   2.691   5.461  1.0278  2.3286  2.1252
  102OSM   C12S10245   3.479   2.703   5.372  0.3975  0.7595 -0.1329
  102OSM   H12S10246   3.372   2.701   5.400 -0.6137 -0.5583 -3.5818
  102OSM   H12T10247   3.487   2.630   5.289 -0.6735 -0.6241  0.9324
  102OSM   C13S10248   3.520   2.839   5.317  0.1267 -0.6103  0.2540
  102OSM   H13S10249   3.619   2.824   5.268 -0.7872  0.4333 -2.0836
  102OSM   H13T10250   3.534   2.910   5.401  0.5443 -0.0243 -0.2928
  102OSM   C14S10251   3.419   2.905   5.224 -1.0347 -0.3120  0.4963
  102OSM   H14S10252   3.454   3.002   5.182 -1.4611 -2.1193 -4.7534
  102OSM   H14T10253   3.325   2.933   5.276 -1.6440  0.5120 -1.0215
  102OSM   C15S10254   3.392   2.823   5.094 -0.1432 -0.6671 -0.3037
  102OSM   H15S10255   3.369   2.716   5.114  0.7720 -0.5440  1.6405
  102OSM   H15T10256   3.490   2.806   5.046 -0.1303 -1.2639 -0.0788
  102OSM   C16S10257   3.293   2.875   4.991  0.4297  0.5623 -0.8340
  102OSM   H16S10258   3.340   2.962   4.940  2.3251  0.0666 -0.0521
  102OSM   H16T10259   3.209   2.921   5.047 -0.5566 -2.8153  0.7342
  102OSM   C17S10260   3.242   2.770   4.888 -1.2032  0.3145 -0.0684
  102OSM   H17S10261   3.330   2.717   4.846  0.5018  2.6474  0.3800
  102OSM   H17T10262   3.215   2.825   4.796  0.1785 -0.0492 -0.7084
  102OSM   C18S10263   3.124   2.693   4.935 -0.1922 -0.3006 -0.4196
  102OSM   H18S10264   3.106   2.599   4.880  1.3646 -1.7858  1.4713
  102OSM   H18T10265   3.036   2.761   4.926  0.8252  1.0197 -0.8407
  102OSM   H18U10266   3.134   2.664   5.042  0.2490 -0.6601 -0.5594
  102OSM    C1F10267   3.843   2.245   6.317  0.2143 -0.1018 -0.6122
  102OSM     OF10268   3.797   2.150   6.376 -0.1033  0.1608  0.2362
  102OSM    C2F10269   3.943   2.227   6.201 -0.6467  0.1240 -0.3338
  102OSM    H2F10270   4.008   2.138   6.217 -1.2877 -0.6881 -2.0334
  102OSM    H2G10271   3.996   2.325   6.200  1.0692 -0.7583 -1.5961
  102OSM    C3F10272   3.873   2.199   6.071 -0.0365 -0.8611  0.0158
  102OSM    H3F10273   3.796   2.119   6.075 -1.8262  0.6528 -1.9660
  102OSM    H3G10274   3.959   2.166   6.009  0.6455  0.7493  0.0410
  102OSM    C4F10275   3.804   2.333   6.013 -0.4939  0.2584 -0.1660
  102OSM    H4F10276   3.880   2.414   6.018  0.7570 -0.7560 -1.8498
  102OSM    H4G10277   3.716   2.351   6.079 -0.2669 -1.9887  0.8413
  102OSM    C5F10278   3.754   2.311   5.872  0.0359  0.0472 -0.2269
  102OSM    H5F10279   3.681   2.387   5.839  1.2358  0.8389 -1.1567
  102OSM    H5G10280   3.708   2.210   5.875  0.0276  0.0819  2.1575
  102OSM    C6F10281   3.864   2.297   5.758  0.5021 -0.8477 -0.4107
  102OSM    H6F10282   3.953   2.242   5.795 -0.0735 -1.0759  0.7053
  102OSM    H6G10283   3.895   2.401   5.736 -0.4508 -0.1515  1.2895
  102OSM    C7F10284   3.805   2.246   5.625  0.0200  0.0625 -0.1897
  102OSM    H7F10285   3.729   2.322   5.597 -1.0344 -1.0795 -0.5549
  102OSM    H7G10286   3.765   2.142   5.629  1.9468 -0.8647 -2.3797
  102OSM    C8F10287   3.915   2.250   5.511  1.0648 -0.1734 -0.2630
  102OSM    H8F10288   4.004   2.199   5.555  0.7440  1.4465  2.5080
  102OSM    H8G10289   3.941   2.357   5.502 -0.3762  0.3052  0.8774
  102OSM    C9F10290   3.880   2.181   5.381 -0.2305  0.2575  0.2671
  102OSM    H9F10291   3.878   2.071   5.388 -3.3485  0.2014  0.1930
  102OSM   C10F10292   3.851   2.235   5.261  0.1116 -0.4156 -0.4903
  102OSM   H10F10293   3.833   2.160   5.183 -1.6866  0.5655 -1.0587
  102OSM   C11F10294   3.837   2.380   5.225 -0.1955 -0.2136  0.2479
  102OSM   H11F10295   3.941   2.417   5.213 -0.4240  0.5293  0.4895
  102OSM   H11G10296   3.801   2.445   5.308  0.2238  1.3396 -0.7500
  102OSM   C12F10297   3.752   2.424   5.098 -0.1357 -0.2419  0.2789
  102OSM   H12F10298   3.797   2.380   5.006  1.1581 -0.2224  0.8834
  102OSM   H12G10299   3.764   2.534   5.089 -1.8954 -0.0678 -0.4408
  102OSM   C13F10300   3.604   2.390   5.112  0.3884 -0.1044 -0.4536
  102OSM   H13F10301   3.566   2.421   5.211 -0.3375 -1.8643 -0.1368
  102OSM   H13G10302   3.595   2.279   5.121 -1.5499  0.1638  1.7320
  102OSM   C14F10303   3.530   2.459   4.997  0.2673 -0.3088  0.4156
  102OSM   H14F10304   3.583   2.425   4.905  0.8102  2.7136 -0.5080
  102OSM   H14G10305   3.556   2.566   5.009  2.0126 -0.7539  0.9259
  102OSM   C15F10306   3.377   2.434   4.996  0.1274 -0.9048  0.4250
  102OSM   H15F10307   3.322   2.483   4.913  1.2550 -1.5155 -0.7175
  102OSM   H15G10308   3.335   2.482   5.087 -0.2950 -1.4072  0.5002
  102OSM   C16F10309   3.347   2.284   4.993  0.5826  0.9850 -0.3486
  102OSM   H16F10310   3.391   2.230   5.080  0.0509 -0.7838 -1.1146
  102OSM   H16G10311   3.396   2.246   4.901 -0.8029 -1.2218 -0.2778
  102OSM   C17F10312   3.201   2.246   4.981  0.1591 -0.1130 -0.0080
  102OSM   H17F10313   3.163   2.278   4.881  1.5990  1.4166 -0.1058
  102OSM   H17G10314   3.139   2.299   5.056 -0.1538 -0.1692 -0.2242
  102OSM   C18F10315   3.176   2.101   5.010 -0.2051 -0.0463 -0.1167
  102OSM   H18F10316   3.202   2.091   5.117  2.5513  0.3042 -0.6910
  102OSM   H18G10317   3.255   2.041   4.959 -0.4423 -0.7177  0.2821
  102OSM   H18H10318   3.074   2.059   4.993  0.0928 -0.3572 -1.2113
  103OSM      N10319   3.873   4.914   7.163  0.1146  0.0769 -0.9525
  103OSM    C1510320   3.755   4.997   7.133 -0.1316  0.5172  0.1775
  103OSM   H15A10321   3.677   4.953   7.073 -1.1836  2.3441  0.1314
  103OSM   H15B10322   3.791   5.080   7.074 -0.3532  0.5207  0.0492
  103OSM   H15C10323   3.704   5.028   7.223 -1.7422 -1.9200  0.2011
  103OSM    C1410324   3.960   4.980   7.272 -0.4794 -0.6899 -0.3400
  103OSM   H14A10325   3.996   5.075   7.236  0.8857 -0.7758  0.7445
  103OSM   H14B10326   4.043   4.917   7.301 -0.0241  1.0738  2.5150
  103OSM   H14C10327   3.903   4.993   7.362 -1.0427 -1.6864 -0.5327
  103OSM    C1310328   3.817   4.783   7.228  0.0014 -0.6424 -0.2345
  103OSM   H13A10329   3.740   4.749   7.160 -1.7922  2.1625  0.2207
  103OSM   H13B10330   3.762   4.802   7.319  2.6957  0.8001  1.2248
  103OSM   H13C10331   3.898   4.714   7.248  0.6898  0.3313  0.3822
  103OSM    C1210332   3.945   4.880   7.038  0.2989 -0.3589  0.1361
  103OSM   H12A10333   4.029   4.821   7.072 -0.3415 -0.8026  0.9665
  103OSM   H12B10334   3.987   4.969   6.993  2.6434 -0.8107  1.2822
  103OSM    C1110335   3.882   4.798   6.924  0.6851  0.0218  0.1179
  103OSM   H11A10336   3.799   4.856   6.878  1.2710  0.5114 -0.3261
  103OSM   H11B10337   3.842   4.702   6.963 -0.1694 -0.8046 -2.5384
  103OSM      P10338   4.042   4.865   6.728  0.2560 -0.3855  0.1743
  103OSM    O1310339   3.927   4.945   6.669  0.2795  0.1524  0.6328
  103OSM    O1410340   4.155   4.938   6.792  0.7925  0.5713  0.0448
  103OSM    O1110341   4.101   4.783   6.611  0.7607  0.3061  0.2757
  103OSM    O1210342   3.986   4.762   6.833  0.0844  0.1969  0.2460
  103OSM    C1S10343   4.145   4.645   6.633  0.4383 -0.6766  0.2834
  103OSM    H1S10344   4.070   4.583   6.687 -0.9586  0.8909  0.2299
  103OSM    H1T10345   4.243   4.643   6.686  0.9902  0.2533 -0.6702
  103OSM     NF10346   4.180   4.435   6.519  0.2688 -0.6728  0.3791
  103OSM    HNF10347   4.263   4.384   6.494  0.3858 -1.1539  1.6917
  103OSM    C2S10348   4.164   4.573   6.494 -0.1933 -0.6669 -0.2577
  103OSM    H2S10349   4.073   4.585   6.431 -0.5801  1.2403  0.5884
  103OSM    C3S10350   4.290   4.637   6.431 -0.3754  0.2091 -0.1724
  103OSM    H3S10351   4.376   4.616   6.499 -0.7942  0.6822  0.5136
  103OSM     O310352   4.287   4.781   6.421 -0.4148 -0.0427  0.0631
  103OSM    HO310353   4.212   4.803   6.477 -1.8398  0.3008 -1.9043
  103OSM    C4S10354   4.325   4.577   6.295  0.1193  0.5047  0.9345
  103OSM    H4S10355   4.401   4.498   6.303  2.4620  2.2597 -1.7810
  103OSM    C5S10356   4.284   4.618   6.177  0.0823 -0.2294  0.3303
  103OSM    H5S10357   4.209   4.698   6.183 -0.1004 -0.3793  0.0286
  103OSM    C6S10358   4.308   4.557   6.041  0.5426  0.5514 -0.3484
  103OSM    H6S10359   4.219   4.510   5.995  0.7184 -0.1637  0.0278
  103OSM    H6T10360   4.379   4.475   6.061  0.9595  1.2998  1.5361
  103OSM    C7S10361   4.383   4.656   5.953 -0.5994  0.3561  0.1260
  103OSM    H7S10362   4.475   4.689   6.005 -0.7863  0.5015  0.3630
  103OSM    H7T10363   4.336   4.753   5.926  0.3100  0.5050 -1.0421
  103OSM    C8S10364   4.410   4.596   5.810 -0.2855  1.1327 -0.4213
  103OSM    H8S10365   4.346   4.505   5.807  0.3928  0.6749 -1.4421
  103OSM    H8T10366   4.512   4.552   5.815 -0.7970 -0.3878 -2.3312
  103OSM    C9S10367   4.376   4.676   5.683  0.2383  0.1769  0.7910
  103OSM    H9S10368   4.458   4.745   5.655 -0.6875  0.4447 -1.5120
  103OSM    H9T10369   4.287   4.738   5.707 -0.5068  0.3704 -2.0814
  103OSM   C10S10370   4.350   4.583   5.563  0.3935  0.1687  0.6190
  103OSM   H10S10371   4.243   4.557   5.576 -0.3849  2.0881 -1.3064
  103OSM   H10T10372   4.412   4.493   5.580 -0.4010 -0.3152  1.0540
  103OSM   C11S10373   4.355   4.663   5.436 -0.4406 -0.4380 -0.2314
  103OSM   H11S10374   4.457   4.702   5.417 -1.2066  1.0171 -1.5841
  103OSM   H11T10375   4.295   4.755   5.454  0.4812  0.2239 -0.4896
  103OSM   C12S10376   4.298   4.593   5.312 -0.8274 -0.5697 -0.3497
  103OSM   H12S10377   4.195   4.557   5.329 -0.5735 -1.4807 -0.6805
  103OSM   H12T10378   4.353   4.498   5.295 -0.8341 -0.9445  1.4727
  103OSM   C13S10379   4.276   4.692   5.190 -0.1860  0.2018  0.1072
  103OSM   H13S10380   4.379   4.728   5.172  0.3513 -1.0115  0.6202
  103OSM   H13T10381   4.205   4.772   5.220 -1.6083 -1.5054  1.5453
  103OSM   C14S10382   4.222   4.632   5.057  0.3776  0.1827  0.2749
  103OSM   H14S10383   4.219   4.717   4.985 -0.9620  0.0470  0.1338
  103OSM   H14T10384   4.115   4.601   5.059  1.2094 -2.9841  0.1357
  103OSM   C15S10385   4.311   4.522   5.001  0.2581 -0.4659 -0.6610
  103OSM   H15S10386   4.308   4.436   5.071 -1.7525  0.2663  0.2155
  103OSM   H15T10387   4.416   4.559   4.993 -0.3814  2.0365  1.2678
  103OSM   C16S10388   4.259   4.471   4.867 -0.1627 -0.3310 -0.5688
  103OSM   H16S10389   4.261   4.551   4.789  4.2271 -0.1428 -0.5054
  103OSM   H16T10390   4.152   4.443   4.876  0.0129 -0.5048  1.1392
  103OSM   C17S10391   4.344   4.354   4.816  0.6061 -0.3569  0.0967
  103OSM   H17S10392   4.329   4.269   4.887  2.2742  0.3939  1.4263
  103OSM   H17T10393   4.454   4.370   4.821  0.2116  2.6090  2.5218
  103OSM   C18S10394   4.312   4.318   4.671  0.4354 -0.2479  0.6725
  103OSM   H18S10395   4.370   4.229   4.639  0.0684  0.2014 -1.4592
  103OSM   H18T10396   4.331   4.405   4.604 -0.1970 -0.1599  0.5937
  103OSM   H18U10397   4.203   4.298   4.655 -0.1760  3.1856 -0.3508
  103OSM    C1F10398   4.083   4.355   6.556  0.0280  0.6873 -0.1976
  103OSM     OF10399   3.968   4.393   6.565  0.4517 -0.1646 -0.2021
  103OSM    C2F10400   4.119   4.212   6.595 -0.5259  0.2223  0.3608
  103OSM    H2F10401   4.071   4.196   6.694 -1.5476  0.0120 -0.1523
  103OSM    H2G10402   4.230   4.204   6.594 -0.5374  0.0799  0.0470
  103OSM    C3F10403   4.055   4.111   6.498 -0.1827 -0.8158  0.3153
  103OSM    H3F10404   3.944   4.118   6.498 -0.0932  1.5068  1.3725
  103OSM    H3G10405   4.080   4.009   6.534 -0.4229 -1.0736 -0.2391
  103OSM    C4F10406   4.115   4.128   6.355  0.8456 -1.0164 -0.3712
  103OSM    H4F10407   4.221   4.093   6.350  0.1980 -3.3929  0.8954
  103OSM    H4G10408   4.114   4.233   6.321 -0.4335  0.1121  2.7394
  103OSM    C5F10409   4.032   4.054   6.251  0.0320 -0.5377 -0.9996
  103OSM    H5F10410   3.952   3.994   6.298 -1.1045 -0.0490 -2.2430
  103OSM    H5G10411   4.108   3.990   6.201  1.3723  0.2450 -0.0153
  103OSM    C6F10412   3.980   4.147   6.142  0.4042  0.1146 -0.1989
  103OSM    H6F10413   4.058   4.222   6.115  2.7205 -1.6698  1.1653
  103OSM    H6G10414   3.889   4.205   6.167  0.8233  0.5925  0.2538
  103OSM    C7F10415   3.943   4.062   6.020  0.4550  0.3476  0.0707
  103OSM    H7F10416   3.878   3.976   6.043 -0.3347  0.5911 -1.1340
  103OSM    H7G10417   4.027   4.010   5.968 -0.7609 -1.6990  0.0277
  103OSM    C8F10418   3.881   4.153   5.909  0.1183 -0.0563  0.4955
  103OSM    H8F10419   3.942   4.245   5.894  1.9422 -1.2547  0.3662
  103OSM    H8G10420   3.785   4.182   5.958 -0.8726  0.9790 -1.8914
  103OSM    C9F10421   3.837   4.098   5.772 -0.1691  0.0616 -0.3135
  103OSM    H9F10422   3.746   4.036   5.765 -0.8041  0.8697  0.4904
  103OSM   C10F10423   3.907   4.112   5.660  0.6074 -0.1681  0.3494
  103OSM   H10F10424   3.865   4.076   5.565 -1.1856  2.3420  0.0909
  103OSM   C11F10425   4.032   4.182   5.644 -0.2588  0.3444 -0.7382
  103OSM   H11F10426   4.097   4.129   5.571  3.0263  0.8769  1.5765
  103OSM   H11G10427   4.091   4.170   5.738  1.5852 -1.6113 -2.0603
  103OSM   C12F10428   4.033   4.332   5.618 -0.3068  0.2407 -0.0647
  103OSM   H12F10429   4.134   4.361   5.652  0.4394 -1.7320 -0.4602
  103OSM   H12G10430   3.963   4.389   5.683  0.7381  2.2199 -0.6113
  103OSM   C13F10431   4.054   4.385   5.476  0.2733 -0.0516  0.1519
  103OSM   H13F10432   4.158   4.363   5.444  0.8485  0.8612  1.3049
  103OSM   H13G10433   4.037   4.494   5.474  1.7315  0.1824 -0.0541
  103OSM   C14F10434   3.955   4.308   5.386 -0.1812 -1.0142 -0.4285
  103OSM   H14F10435   3.851   4.335   5.412 -0.6236 -3.0504  0.0527
  103OSM   H14G10436   3.976   4.199   5.387  2.4694 -0.6046 -1.8420
  103OSM   C15F10437   3.976   4.340   5.238  0.0410 -0.4009  0.1680
  103OSM   H15F10438   4.081   4.318   5.209 -0.7568 -1.8629 -1.8285
  103OSM   H15G10439   3.967   4.449   5.217  1.5001 -0.6697 -2.1730
  103OSM   C16F10440   3.877   4.268   5.152  0.9201 -0.2003 -0.0544
  103OSM   H16F10441   3.778   4.315   5.165  1.9244  1.5792  1.6374
  103OSM   H16G10442   3.867   4.159   5.171  0.9517 -0.1003  0.5307
  103OSM   C17F10443   3.913   4.290   5.003  0.5529 -0.5604  0.4077
  103OSM   H17F10444   4.021   4.276   4.977  0.8342 -0.2659  1.3798
  103OSM   H17G10445   3.897   4.397   4.980 -0.4930 -1.3984 -3.4860
  103OSM   C18F10446   3.841   4.204   4.898 -0.3315 -0.0443 -0.7054
  103OSM   H18F10447   3.738   4.183   4.933  0.2885 -0.9308  0.6771
  103OSM   H18G10448   3.893   4.107   4.877  3.5943  1.0611  2.5781
  103OSM   H18H10449   3.828   4.267   4.808  0.5448  1.2694  0.0574
  104OSM      N10450   4.690   2.810   6.861  0.3618 -0.7145 -0.0622
  104OSM    C1510451   4.692   2.943   6.937 -0.5689  0.3373 -0.1868
  104OSM   H15A10452   4.703   2.920   7.042 -2.5375  0.1010  0.0004
  104OSM   H15B10453   4.598   2.995   6.929 -0.3844  0.4103 -2.8507
  104OSM   H15C10454   4.772   3.013   6.917 -0.8702  0.5043 -0.8378
  104OSM    C1410455   4.806   2.722   6.886 -0.4180  0.1507  0.2762
  104OSM   H14A10456   4.819   2.716   6.993  0.9467 -0.5057  0.0872
  104OSM   H14B10457   4.901   2.760   6.852 -2.3538  3.5411 -1.9476
  104OSM   H14C10458   4.779   2.622   6.858 -0.1671  0.3887 -0.8514
  104OSM    C1310459   4.562   2.742   6.881 -0.1326 -0.3632 -0.0913
  104OSM   H13A10460   4.481   2.812   6.865 -0.2985 -0.1258  1.6789
  104OSM   H13B10461   4.552   2.726   6.987 -0.3241  2.4127  0.3761
  104OSM   H13C10462   4.545   2.647   6.833 -0.2263 -1.9168  2.7992
  104OSM    C1210463   4.685   2.862   6.710  0.3668 -0.5502  0.3668
  104OSM   H12A10464   4.590   2.911   6.698  0.7749  0.2999  0.4983
  104OSM   H12B10465   4.678   2.775   6.648 -0.8106 -0.4719  0.3750
  104OSM    C1110466   4.806   2.940   6.659  0.5980 -0.7657  0.3763
  104OSM   H11A10467   4.803   3.042   6.702 -1.1880 -1.4020  1.9021
  104OSM   H11B10468   4.788   2.951   6.550  0.6426  0.9118  0.5083
  104OSM      P10469   5.067   2.919   6.686 -0.0168 -0.0562  0.5479
  104OSM    O1310470   5.059   3.051   6.749  0.1466 -0.6168  0.7559
  104OSM    O1410471   5.159   2.817   6.746 -0.3160  0.5641  0.3626
  104OSM    O1110472   5.113   2.935   6.534  0.2868  0.7901  0.0575
  104OSM    O1210473   4.919   2.867   6.675 -0.1458  0.0092 -0.0466
  104OSM    C1S10474   5.050   2.867   6.425 -0.6382 -0.0625 -0.0935
  104OSM    H1S10475   4.970   2.930   6.381 -0.3945 -1.8014 -3.3159
  104OSM    H1T10476   5.027   2.759   6.436  1.4539 -0.8017 -2.1401
  104OSM     NF10477   5.078   2.859   6.183 -0.4820  0.2697 -0.1713
  104OSM    HNF10478   5.029   2.776   6.158 -1.3316  0.1469  1.7658
  104OSM    C2S10479   5.154   2.866   6.308 -1.0877  0.4950 -0.5122
  104OSM    H2S10480   5.205   2.964   6.310  0.6994 -0.3515 -1.7357
  104OSM    C3S10481   5.272   2.763   6.319 -0.2785  0.3583 -0.3897
  104OSM    H3S10482   5.223   2.664   6.307  0.2391  0.3368 -2.9493
  104OSM     O310483   5.339   2.758   6.444 -0.3183  0.6512  0.3873
  104OSM    HO310484   5.278   2.802   6.502 -0.9303  0.9772 -0.4773
  104OSM    C4S10485   5.379   2.774   6.217  0.5958  0.0358 -0.1707
  104OSM    H4S10486   5.407   2.880   6.210 -1.4200  0.6892  0.6549
  104OSM    C5S10487   5.432   2.682   6.135  0.0753  0.1116 -0.1494
  104OSM    H5S10488   5.407   2.575   6.145  1.4047 -0.2906 -0.8027
  104OSM    C6S10489   5.525   2.706   6.026  0.1406 -0.1464  0.3064
  104OSM    H6S10490   5.546   2.612   5.972  0.6308 -0.3686  0.8625
  104OSM    H6T10491   5.619   2.756   6.060 -0.2821  0.5394  0.4858
  104OSM    C7S10492   5.466   2.794   5.915 -0.0610  0.0441  0.6038
  104OSM    H7S10493   5.539   2.806   5.832 -2.4260  4.6188 -1.1277
  104OSM    H7T10494   5.442   2.893   5.958  0.8477  0.3380  0.4406
  104OSM    C8S10495   5.341   2.736   5.840  0.1608 -0.4656 -0.0985
  104OSM    H8S10496   5.250   2.784   5.880  1.0122  0.5858  0.6207
  104OSM    H8T10497   5.339   2.625   5.851 -0.6136 -0.3817  0.6480
  104OSM    C9S10498   5.334   2.771   5.690 -0.2751  0.0176  0.0459
  104OSM    H9S10499   5.426   2.720   5.653 -0.2153 -0.8646  1.3417
  104OSM    H9T10500   5.349   2.881   5.680 -0.5184 -0.1290 -2.3751
  104OSM   C10S10501   5.207   2.734   5.624 -0.3120 -0.1322  0.2396
  104OSM   H10S10502   5.127   2.790   5.677  1.7097 -0.4794  4.0313
  104OSM   H10T10503   5.192   2.625   5.641  0.8329 -0.4745 -0.8678
  104OSM   C11S10504   5.208   2.755   5.471  0.0649  0.3913  0.2556
  104OSM   H11S10505   5.293   2.704   5.421  0.2009 -1.5763  2.3421
  104OSM   H11T10506   5.216   2.865   5.454 -2.7656  0.4086 -1.5780
  104OSM   C12S10507   5.079   2.706   5.405  0.2233 -0.4760  0.1097
  104OSM   H12S10508   4.986   2.747   5.450  0.1146  1.6670 -1.8529
  104OSM   H12T10509   5.068   2.597   5.420 -0.3832 -0.4671 -0.2267
  104OSM   C13S10510   5.072   2.726   5.250 -0.3193 -1.0680  0.2762
  104OSM   H13S10511   5.160   2.683   5.198 -0.5664 -0.6389 -0.5220
  104OSM   H13T10512   5.081   2.836   5.238 -0.2984 -0.9035  1.6448
  104OSM   C14S10513   4.946   2.676   5.176 -0.0890 -0.8079 -0.9780
  104OSM   H14S10514   4.854   2.722   5.219 -0.3284 -1.8610 -0.3332
  104OSM   H14T10515   4.939   2.566   5.181 -0.7456 -0.7490 -0.5029
  104OSM   C15S10516   4.947   2.707   5.024  0.4645 -0.0966 -0.3786
  104OSM   H15S10517   5.050   2.707   4.982  0.2026 -0.5893 -1.0416
  104OSM   H15T10518   4.895   2.801   4.998  0.2307 -0.4908 -1.3719
  104OSM   C16S10519   4.875   2.600   4.949  0.2844 -0.1794 -0.0417
  104OSM   H16S10520   4.780   2.567   4.996  0.4930  0.2505  0.6947
  104OSM   H16T10521   4.928   2.502   4.951 -0.9514 -0.8826 -0.4937
  104OSM   C17S10522   4.852   2.631   4.801  0.3347  0.0590 -1.4404
  104OSM   H17S10523   4.952   2.638   4.753  0.9545 -1.8292 -0.5438
  104OSM   H17T10524   4.809   2.733   4.802 -0.0328 -0.0738  0.7822
  104OSM   C18S10525   4.775   2.528   4.713 -0.1506  0.6366 -0.3467
  104OSM   H18S10526   4.676   2.497   4.754  0.6612 -1.5017  0.1620
  104OSM   H18T10527   4.837   2.437   4.702  1.2210  1.5096 -0.1062
  104OSM   H18U10528   4.768   2.572   4.612 -0.0668 -0.3449 -0.7906
  104OSM    C1F10529   5.012   2.960   6.134 -0.7386 -0.0176  0.1540
  104OSM     OF10530   5.031   3.070   6.178  0.3334  0.6732 -0.1006
  104OSM    C2F10531   4.911   2.934   6.030 -0.4278 -0.2088 -0.2241
  104OSM    H2F10532   4.813   2.958   6.077 -1.0056  1.4021 -2.0725
  104OSM    H2G10533   4.905   2.829   5.993  0.8514 -0.7874  1.1536
  104OSM    C3F10534   4.958   3.014   5.909 -0.0217  0.4037 -0.8902
  104OSM    H3F10535   5.062   2.994   5.875 -0.4134 -1.1384 -1.2512
  104OSM    H3G10536   4.964   3.124   5.927 -1.5788  0.6113 -1.5162
  104OSM    C4F10537   4.863   2.996   5.789 -0.3768  0.5756 -0.0646
  104OSM    H4F10538   4.762   3.026   5.825 -1.0255 -1.5438 -0.0182
  104OSM    H4G10539   4.856   2.895   5.744  0.6612  0.5645 -0.2206
  104OSM    C5F10540   4.898   3.092   5.672 -0.0986  0.6252 -0.2496
  104OSM    H5F10541   5.005   3.074   5.648  0.9148  0.4153  3.6959
  104OSM    H5G10542   4.882   3.198   5.700  0.9932  0.2275  2.0978
  104OSM    C6F10543   4.819   3.055   5.545 -0.2587 -0.0685 -0.3970
  104OSM    H6F10544   4.715   3.052   5.584 -0.3826 -2.6189 -0.7787
  104OSM    H6G10545   4.853   2.952   5.519  0.7503  0.6526 -2.1302
  104OSM    C7F10546   4.831   3.166   5.447  0.1534 -0.5587  0.1284
  104OSM    H7F10547   4.832   3.258   5.510 -3.3564 -0.0795 -0.3157
  104OSM    H7G10548   4.741   3.180   5.384  0.4355 -0.1644 -0.1989
  104OSM    C8F10549   4.947   3.154   5.347  0.0770 -0.9188  0.0780
  104OSM    H8F10550   4.927   3.056   5.299 -1.7583 -0.2857 -0.5244
  104OSM    H8G10551   5.041   3.153   5.406 -0.7305  0.3477  1.4696
  104OSM    C9F10552   4.946   3.268   5.252 -0.1893 -0.0009 -0.2502
  104OSM    H9F10553   4.907   3.361   5.296 -0.1669 -0.8695  1.7315
  104OSM   C10F10554   4.942   3.258   5.122  0.4722  0.3576  0.7533
  104OSM   H10F10555   4.929   3.352   5.067  1.2411 -0.3800 -0.7485
  104OSM   C11F10556   4.936   3.134   5.036 -0.8472 -0.0204  0.1336
  104OSM   H11F10557   4.931   3.043   5.100 -0.3646  0.0013  0.2086
  104OSM   H11G10558   5.037   3.129   4.990 -0.1023  0.8380  1.5893
  104OSM   C12F10559   4.832   3.128   4.923 -1.4109  0.0757 -0.7317
  104OSM   H12F10560   4.734   3.167   4.959 -0.2157  1.0503  1.6478
  104OSM   H12G10561   4.835   3.019   4.903  1.9444 -0.0695  0.0852
  104OSM   C13F10562   4.881   3.195   4.794  0.1530 -0.4008  0.8763
  104OSM   H13F10563   4.818   3.161   4.709  0.0848 -0.6445  1.0244
  104OSM   H13G10564   4.983   3.153   4.780  0.2882  0.2327 -0.1187
  104OSM   C14F10565   4.893   3.344   4.791  0.1899  0.6726  0.4222
  104OSM   H14F10566   4.967   3.377   4.867  2.3050 -0.0197 -1.2160
  104OSM   H14G10567   4.797   3.393   4.816  0.6567  1.3230  0.9902
  104OSM   C15F10568   4.942   3.401   4.655  0.1945  0.6957  0.7032
  104OSM   H15F10569   4.941   3.512   4.663 -0.0476  0.9403 -1.9832
  104OSM   H15G10570   4.881   3.380   4.564 -0.3202  4.7547 -0.0573
  104OSM   C16F10571   5.088   3.361   4.631  0.3523 -0.5742 -0.8320
  104OSM   H16F10572   5.110   3.259   4.669 -0.0936  0.6143  3.1142
  104OSM   H16G10573   5.153   3.433   4.687 -0.3897 -0.0668 -0.6073
  104OSM   C17F10574   5.130   3.381   4.483 -0.1018 -0.3064 -0.0005
  104OSM   H17F10575   5.101   3.484   4.454 -0.1371 -0.0165  1.0118
  104OSM   H17G10576   5.064   3.316   4.422 -2.0369  1.6955 -0.1509
  104OSM   C18F10577   5.278   3.341   4.456  0.1203 -0.1696  0.1006
  104OSM   H18F10578   5.322   3.376   4.361 -0.4804  0.0032 -0.1167
  104OSM   H18G10579   5.284   3.230   4.457  1.4195 -0.1365  1.8996
  104OSM   H18H10580   5.332   3.378   4.545  0.6419 -0.7289  0.0205
  105OSM      N10581   5.711   3.465   6.974  0.2796  0.0860  0.2011
  105OSM    C1510582   5.656   3.391   6.852  0.1746 -0.0373 -0.0443
  105OSM   H15A10583   5.548   3.389   6.850  0.1946 -0.8052 -1.0121
  105OSM   H15B10584   5.696   3.291   6.859  1.1307  0.3848  0.6380
  105OSM   H15C10585   5.681   3.446   6.762 -0.1750  1.1354  0.5547
  105OSM    C1410586   5.676   3.387   7.098  0.4538 -0.0685 -0.4989
  105OSM   H14A10587   5.702   3.440   7.189  1.1942 -0.7584 -0.2977
  105OSM   H14B10588   5.714   3.286   7.100 -0.9872 -0.6490 -0.9484
  105OSM   H14C10589   5.571   3.363   7.109  0.1334  0.3165 -2.3873
  105OSM    C1310590   5.855   3.456   6.956  0.0509  0.7509  0.3588
  105OSM   H13A10591   5.903   3.505   7.039 -0.5020 -1.2396  1.9429
  105OSM   H13B10592   5.889   3.489   6.859  0.7711  0.8885  0.6570
  105OSM   H13C10593   5.889   3.354   6.967 -1.9849 -0.0141  0.1466
  105OSM    C1210594   5.670   3.614   6.979 -0.9109 -0.8471  0.6865
  105OSM   H12A10595   5.712   3.668   7.063 -0.9526  0.3304 -0.0276
  105OSM   H12B10596   5.563   3.612   6.993 -1.3742  5.8188  1.2387
  105OSM    C1110597   5.708   3.698   6.849 -0.7618  0.1558 -0.0151
  105OSM   H11A10598   5.661   3.799   6.850  0.3527  0.6955  0.5569
  105OSM   H11B10599   5.661   3.653   6.759 -0.9379  1.1592 -0.4454
  105OSM      P10600   5.941   3.827   6.858 -0.2543 -0.1469  0.0351
  105OSM    O1310601   5.900   3.862   6.996  0.0157 -0.1845  0.9295
  105OSM    O1410602   6.078   3.787   6.818  0.0028  0.0304 -0.1311
  105OSM    O1110603   5.885   3.937   6.763 -0.1819  0.3954 -0.1106
  105OSM    O1210604   5.854   3.701   6.826  0.2692 -0.4111  0.1614
  105OSM    C1S10605   5.868   3.904   6.623  0.1902 -0.4142 -0.2474
  105OSM    H1S10606   5.865   3.795   6.601  0.4047 -0.9997  2.3279
  105OSM    H1T10607   5.951   3.945   6.561 -1.1414  1.0702 -1.1270
  105OSM     NF10608   5.736   3.958   6.418  0.0565  0.1844 -0.6752
  105OSM    HNF10609   5.749   4.041   6.365 -1.3212 -0.1860 -1.6639
  105OSM    C2S10610   5.733   3.969   6.563  0.5232 -0.4558  0.1332
  105OSM    H2S10611   5.648   3.913   6.606 -1.6928  3.2672  0.9824
  105OSM    C3S10612   5.723   4.115   6.617  0.0835 -0.7653  0.2167
  105OSM    H3S10613   5.809   4.177   6.584  1.3684 -2.5136  0.1522
  105OSM     O310614   5.697   4.136   6.756  0.7798  0.5163  0.3961
  105OSM    HO310615   5.718   4.053   6.799 -1.7192  0.7454  2.3252
  105OSM    C4S10616   5.597   4.175   6.558 -0.8681 -0.7154 -0.0848
  105OSM    H4S10617   5.508   4.169   6.622 -2.1736  1.7634 -1.4865
  105OSM    C5S10618   5.592   4.275   6.462  0.4576  0.9097  0.1969
  105OSM    H5S10619   5.678   4.325   6.416 -0.3685  0.5091 -1.8870
  105OSM    C6S10620   5.460   4.336   6.403  0.5168 -0.4557 -0.8093
  105OSM    H6S10621   5.443   4.413   6.481 -1.4709 -1.5424 -0.0838
  105OSM    H6T10622   5.365   4.278   6.413 -1.0085  2.2307  2.9312
  105OSM    C7S10623   5.477   4.364   6.254  0.5010 -0.2673 -0.7331
  105OSM    H7S10624   5.576   4.399   6.217 -0.0684 -0.0022 -2.0609
  105OSM    H7T10625   5.400   4.441   6.232  0.0503 -0.4983 -0.0124
  105OSM    C8S10626   5.440   4.247   6.164 -0.4361  0.1288 -0.1282
  105OSM    H8S10627   5.336   4.216   6.188  0.5910 -3.6963  0.0743
  105OSM    H8T10628   5.509   4.163   6.186  0.3512  1.3864  2.5862
  105OSM    C9S10629   5.467   4.280   6.017 -0.0873  0.1703  0.4846
  105OSM    H9S10630   5.573   4.312   6.007 -0.0042 -0.4672 -0.8876
  105OSM    H9T10631   5.399   4.352   5.965  2.6667  0.3146 -3.4249
  105OSM   C10S10632   5.465   4.150   5.935  0.2929  0.7553  0.2323
  105OSM   H10S10633   5.359   4.117   5.925  0.2104  0.9728  0.3585
  105OSM   H10T10634   5.522   4.066   5.980  0.7598 -0.1277 -1.8958
  105OSM   C11S10635   5.523   4.186   5.796 -0.1906  0.5644  0.7647
  105OSM   H11S10636   5.547   4.087   5.753 -0.1938  0.6898  0.4764
  105OSM   H11T10637   5.618   4.240   5.815  0.1906  0.3500 -0.4839
  105OSM   C12S10638   5.435   4.245   5.696 -0.7574 -0.1448 -0.2340
  105OSM   H12S10639   5.496   4.279   5.610 -0.9203  1.7029  0.3323
  105OSM   H12T10640   5.396   4.342   5.733  2.5719  1.3763 -0.3437
  105OSM   C13S10641   5.313   4.167   5.650 -0.7005  0.4971 -0.0187
  105OSM   H13S10642   5.239   4.162   5.732  0.9462 -1.8260  1.4803
  105OSM   H13T10643   5.350   4.064   5.631 -0.4603  0.9379 -2.1495
  105OSM   C14S10644   5.257   4.220   5.521 -0.6972 -0.4182 -0.1695
  105OSM   H14S10645   5.325   4.273   5.451 -2.3361  2.6891  0.4414
  105OSM   H14T10646   5.184   4.297   5.554 -0.2517  1.0241 -2.3388
  105OSM   C15S10647   5.179   4.116   5.432 -0.3485 -0.3100  0.3833
  105OSM   H15S10648   5.122   4.045   5.496  0.8292 -1.2770  0.3895
  105OSM   H15T10649   5.254   4.050   5.384  0.5830 -0.3899  1.8982
  105OSM   C16S10650   5.087   4.182   5.333 -0.1671  0.7547  0.1911
  105OSM   H16S10651   5.143   4.250   5.266  0.4790 -0.1906 -0.2393
  105OSM   H16T10652   5.006   4.234   5.390 -2.1327 -1.4893 -0.4007
  105OSM   C17S10653   5.006   4.085   5.243 -0.4102 -0.2190 -0.4658
  105OSM   H17S10654   5.084   4.020   5.199  1.7536  1.4720  0.6714
  105OSM   H17T10655   4.959   4.151   5.167  0.6415  1.3127  0.1563
  105OSM   C18S10656   4.894   4.006   5.315 -0.1942  0.5861  0.2611
  105OSM   H18S10657   4.880   3.914   5.254  0.2071 -0.1436  1.2429
  105OSM   H18T10658   4.801   4.066   5.325 -0.0035  0.9736 -0.2412
  105OSM   H18U10659   4.930   3.967   5.413 -2.2189 -1.1912  0.3741
  105OSM    C1F10660   5.736   3.843   6.360 -0.7222  0.4075  0.2091
  105OSM     OF10661   5.692   3.740   6.416  0.2289 -0.3305  0.2206
  105OSM    C2F10662   5.800   3.833   6.229  0.5157  0.4382 -0.7458
  105OSM    H2F10663   5.877   3.754   6.239 -0.8984 -1.0395 -1.1639
  105OSM    H2G10664   5.840   3.931   6.197 -0.5083  0.5937 -1.6116
  105OSM    C3F10665   5.700   3.782   6.124 -0.0017 -0.5870 -0.0201
  105OSM    H3F10666   5.619   3.857   6.111  1.5339  1.2537  0.5915
  105OSM    H3G10667   5.659   3.685   6.160  0.3876 -0.2326  1.4619
  105OSM    C4F10668   5.758   3.761   5.979  0.4525  0.3109  0.0724
  105OSM    H4F10669   5.823   3.671   5.984 -0.5951 -0.4856 -0.2931
  105OSM    H4G10670   5.825   3.843   5.945  0.1231 -0.1392 -1.7171
  105OSM    C5F10671   5.657   3.738   5.870  0.2837 -0.8475  0.8279
  105OSM    H5F10672   5.603   3.835   5.869 -1.4864 -1.7805  1.7653
  105OSM    H5G10673   5.588   3.657   5.900  0.3185  0.2095  4.2274
  105OSM    C6F10674   5.720   3.699   5.735  0.7710 -0.1289 -0.5148
  105OSM    H6F10675   5.763   3.597   5.747 -3.1179 -1.9646 -0.6324
  105OSM    H6G10676   5.792   3.776   5.702 -0.4703  1.3605  0.0940
  105OSM    C7F10677   5.617   3.678   5.622 -0.1343  0.3558  0.3421
  105OSM    H7F10678   5.553   3.769   5.625 -0.7120 -0.0648  1.2479
  105OSM    H7G10679   5.560   3.591   5.660  2.5290 -1.5702  0.1693
  105OSM    C8F10680   5.685   3.643   5.492 -0.4433  0.2151  1.1113
  105OSM    H8F10681   5.740   3.546   5.498  1.0303  0.9605  0.2110
  105OSM    H8G10682   5.756   3.722   5.461 -1.1387  0.4245  0.0242
  105OSM    C9F10683   5.586   3.620   5.380 -0.0010 -0.3550  0.0062
  105OSM    H9F10684   5.543   3.519   5.384  0.6827 -0.6245  0.7270
  105OSM   C10F10685   5.557   3.696   5.272  0.4728 -0.5314 -0.0926
  105OSM   H10F10686   5.477   3.659   5.206 -1.6233  0.6802  1.6338
  105OSM   C11F10687   5.608   3.836   5.248  0.1428 -0.3726  0.1320
  105OSM   H11F10688   5.615   3.832   5.137  0.2681 -1.4477  0.1666
  105OSM   H11G10689   5.708   3.861   5.290  0.1049 -1.1364  0.6957
  105OSM   C12F10690   5.506   3.935   5.301 -0.3956 -0.6000  0.3196
  105OSM   H12F10691   5.511   3.929   5.412  1.3075 -4.0537  0.1960
  105OSM   H12G10692   5.401   3.908   5.278  0.1405 -0.3981 -2.8105
  105OSM   C13F10693   5.504   4.083   5.254 -0.0507 -0.6170  0.2297
  105OSM   H13F10694   5.611   4.111   5.251  0.2728 -1.5665  1.8862
  105OSM   H13G10695   5.462   4.145   5.336 -1.0018 -2.5942  1.2998
  105OSM   C14F10696   5.416   4.100   5.126  0.1664 -0.1674 -0.8272
  105OSM   H14F10697   5.323   4.041   5.139 -1.6796  2.2580 -2.1716
  105OSM   H14G10698   5.475   4.050   5.046 -0.4196 -3.7855  0.8017
  105OSM   C15F10699   5.389   4.249   5.095 -0.6811 -0.6299 -0.4357
  105OSM   H15F10700   5.486   4.300   5.115 -0.3648 -1.5785  0.5233
  105OSM   H15G10701   5.310   4.293   5.160 -0.7810  0.3498 -1.1944
  105OSM   C16F10702   5.359   4.258   4.945  0.3824 -0.7667  0.5173
  105OSM   H16F10703   5.420   4.189   4.884  0.5547 -1.3632  1.3489
  105OSM   H16G10704   5.388   4.361   4.913 -0.3437 -0.5667  0.4762
  105OSM   C17F10705   5.217   4.226   4.920 -0.6231 -0.0187  0.0441
  105OSM   H17F10706   5.157   4.284   4.993 -0.0077  2.1560 -1.0686
  105OSM   H17G10707   5.201   4.118   4.939 -0.4033 -0.0417  0.1050
  105OSM   C18F10708   5.170   4.251   4.779  0.1995 -0.2166  0.2836
  105OSM   H18F10709   5.184   4.360   4.762 -0.1687 -0.6633 -3.8717
  105OSM   H18G10710   5.064   4.219   4.767  0.5701 -0.6137 -2.9412
  105OSM   H18H10711   5.235   4.205   4.701  1.0422  3.5438 -1.4832
  106OSM      N10712   3.688   1.135   7.001 -0.6658  0.1765  0.5226
  106OSM    C1510713   3.821   1.204   7.034 -0.2782 -0.2818 -0.3626
  106OSM   H15A10714   3.836   1.277   6.955  0.2389 -1.5833 -1.5116
  106OSM   H15B10715   3.903   1.135   7.042  0.0401 -0.0469 -1.4481
  106OSM   H15C10716   3.820   1.250   7.131 -1.0467 -0.8753 -0.0817
  106OSM    C1410717   3.706   1.073   6.865  0.2197  0.6142  0.7906
  106OSM   H14A10718   3.718   1.154   6.794 -1.0954  1.9568  2.0455
  106OSM   H14B10719   3.630   1.002   6.837  0.5400  0.7971 -0.6383
  106OSM   H14C10720   3.792   1.008   6.856 -0.5843 -0.2092 -2.9946
  106OSM    C1310721   3.657   1.030   7.105 -0.0717  0.2223  0.8667
  106OSM   H13A10722   3.733   0.953   7.097  0.5608  0.8206  0.9398
  106OSM   H13B10723   3.565   0.978   7.082  0.5742 -0.9388  0.8290
  106OSM   H13C10724   3.656   1.055   7.210 -0.0577  0.0078  0.9174
  106OSM    C1210725   3.575   1.241   6.996 -0.0259  0.2792  0.4133
  106OSM   H12A10726   3.593   1.301   7.084  2.8070  1.6477 -0.9554
  106OSM   H12B10727   3.481   1.191   7.011  0.1478  0.6367  3.5011
  106OSM    C1110728   3.554   1.334   6.883 -0.0926 -0.7397  0.6983
  106OSM   H11A10729   3.455   1.383   6.882  0.9448  1.4994 -0.2855
  106OSM   H11B10730   3.571   1.294   6.780  0.7424  1.2850 -0.0025
  106OSM      P10731   3.645   1.572   6.961 -0.7173 -0.0957 -0.1277
  106OSM    O1310732   3.524   1.563   7.042  0.6422 -0.0483 -0.5496
  106OSM    O1410733   3.779   1.604   7.014  0.9732  0.1100 -0.3878
  106OSM    O1110734   3.623   1.670   6.842 -0.1282  0.0761 -0.7409
  106OSM    O1210735   3.659   1.437   6.885 -0.0743  0.3580 -0.0579
  106OSM    C1S10736   3.726   1.676   6.739  0.0099 -0.0430  0.7717
  106OSM    H1S10737   3.772   1.580   6.711  2.2169  1.4716 -1.1452
  106OSM    H1T10738   3.813   1.741   6.759  0.9609 -1.6885  2.2290
  106OSM     NF10739   3.755   1.723   6.492 -0.6368 -0.6514  0.0794
  106OSM    HNF10740   3.811   1.803   6.470  2.3116 -1.9998  2.0070
  106OSM    C2S10741   3.661   1.737   6.608 -0.3751 -0.0823 -0.2654
  106OSM    H2S10742   3.569   1.676   6.596  0.9280 -2.4308  0.8823
  106OSM    C3S10743   3.605   1.883   6.643  0.1507 -0.8204  0.2431
  106OSM    H3S10744   3.694   1.942   6.673  2.1609 -3.0725 -0.9092
  106OSM     O310745   3.516   1.887   6.756 -0.3719  0.1503 -0.2348
  106OSM    HO310746   3.537   1.803   6.796  1.3224  0.6119 -0.0619
  106OSM    C4S10747   3.548   1.942   6.518 -0.3767  0.7385  0.0213
  106OSM    H4S10748   3.608   2.025   6.479  1.8196 -0.5042  0.5822
  106OSM    C5S10749   3.438   1.892   6.453 -0.2375  0.3775  0.8689
  106OSM    H5S10750   3.386   1.799   6.479 -0.4063 -0.1238 -1.0767
  106OSM    C6S10751   3.377   1.955   6.327 -0.8256 -0.5576  0.6086
  106OSM    H6S10752   3.417   2.057   6.309  1.5968 -1.3966  0.9121
  106OSM    H6T10753   3.266   1.957   6.318 -0.8477 -0.4495  0.8917
  106OSM    C7S10754   3.415   1.885   6.195  0.1265 -0.6073  1.0266
  106OSM    H7S10755   3.355   1.943   6.122  0.0268 -2.4441 -0.4452
  106OSM    H7T10756   3.382   1.778   6.192 -2.0065  0.0242 -0.5329
  106OSM    C8S10757   3.562   1.896   6.164 -0.3452 -0.6240  0.6915
  106OSM    H8S10758   3.624   1.866   6.251 -0.8577  0.2997  1.3860
  106OSM    H8T10759   3.589   2.003   6.154  0.6998 -1.0147 -1.3059
  106OSM    C9S10760   3.612   1.842   6.035  0.2631  0.5874  0.6288
  106OSM    H9S10761   3.607   1.731   6.022  1.2397  0.5757  0.2522
  106OSM    H9T10762   3.718   1.868   6.015  0.3472 -1.2405 -1.7747
  106OSM   C10S10763   3.537   1.905   5.917 -0.7004  0.2060 -0.1177
  106OSM   H10S10764   3.528   2.013   5.940  1.7276  0.7411 -1.2747
  106OSM   H10T10765   3.435   1.862   5.909  0.3288 -2.2938 -0.9497
  106OSM   C11S10766   3.613   1.889   5.778  0.2814  0.0574 -0.4141
  106OSM   H11S10767   3.643   1.785   5.754 -0.7362  0.4238 -3.7088
  106OSM   H11T10768   3.717   1.928   5.778 -0.2377  1.4754 -0.5758
  106OSM   C12S10769   3.535   1.938   5.653 -0.7916 -0.3437  0.1951
  106OSM   H12S10770   3.550   2.046   5.631 -1.3823 -0.5691 -1.3959
  106OSM   H12T10771   3.427   1.913   5.650 -0.7227 -0.5761 -0.2981
  106OSM   C13S10772   3.600   1.880   5.525  0.7526  0.0431  0.7940
  106OSM   H13S10773   3.596   1.771   5.546 -0.8851  0.2736  1.9063
  106OSM   H13T10774   3.704   1.916   5.511  0.6315  0.2799  0.4873
  106OSM   C14S10775   3.519   1.909   5.395 -0.1683 -0.1439  0.3618
  106OSM   H14S10776   3.513   2.020   5.396 -1.4698 -0.1472 -1.3683
  106OSM   H14T10777   3.416   1.868   5.406  0.0126 -1.0477 -1.1370
  106OSM   C15S10778   3.597   1.879   5.268  0.3479  0.3077 -0.8363
  106OSM   H15S10779   3.627   1.772   5.271  0.8666  0.4556 -0.5823
  106OSM   H15T10780   3.690   1.940   5.269 -0.0458  0.9174 -0.9736
  106OSM   C16S10781   3.516   1.901   5.143  0.8024  0.1080 -1.1859
  106OSM   H16S10782   3.494   2.010   5.141 -2.7156 -0.4566 -0.2547
  106OSM   H16T10783   3.415   1.857   5.159  0.2240  2.3429  2.4701
  106OSM   C17S10784   3.596   1.862   5.018 -0.4598  0.2760 -0.5511
  106OSM   H17S10785   3.612   1.753   5.001 -0.1269  0.0907  0.8157
  106OSM   H17T10786   3.694   1.905   5.046  0.0918 -1.5566  0.5150
  106OSM   C18S10787   3.552   1.923   4.885 -0.3302  0.4249 -0.5421
  106OSM   H18S10788   3.587   2.027   4.897 -2.7189  1.3615 -1.0497
  106OSM   H18T10789   3.441   1.923   4.875 -0.3343 -0.7509 -0.7533
  106OSM   H18U10790   3.602   1.865   4.804  0.2978 -1.0535  0.8388
  106OSM    C1F10791   3.803   1.604   6.452  0.4477  0.4984 -0.4224
  106OSM     OF10792   3.762   1.501   6.503  0.3599  0.0854  0.2348
  106OSM    C2F10793   3.906   1.617   6.344 -0.4269 -0.3406 -0.6791
  106OSM    H2F10794   4.002   1.636   6.396  0.0908 -0.0518 -1.7210
  106OSM    H2G10795   3.869   1.708   6.293 -3.3010 -0.7432  0.4752
  106OSM    C3F10796   3.902   1.507   6.232 -0.3366  0.0283  0.1195
  106OSM    H3F10797   3.798   1.496   6.195 -1.5663  1.0000  3.0218
  106OSM    H3G10798   3.934   1.412   6.280  0.0490  0.9878  1.8246
  106OSM    C4F10799   3.995   1.536   6.113 -0.2361  0.0366 -0.4751
  106OSM    H4F10800   4.002   1.449   6.044  1.4275 -0.4901  0.2927
  106OSM    H4G10801   4.101   1.548   6.145  0.3854  0.0744 -2.4093
  106OSM    C5F10802   3.954   1.672   6.051 -0.2287  0.7167  0.2837
  106OSM    H5F10803   3.997   1.746   6.123  2.6545 -1.4122  0.9197
  106OSM    H5G10804   3.844   1.678   6.034 -0.4597 -0.4524  1.2022
  106OSM    C6F10805   4.027   1.669   5.915  0.2009  0.3104  0.2411
  106OSM    H6F10806   3.987   1.578   5.863 -0.5134  0.1072  1.1079
  106OSM    H6G10807   4.136   1.652   5.928  0.3685  1.4294  0.3457
  106OSM    C7F10808   3.987   1.782   5.819  0.9930  0.2251  0.6354
  106OSM    H7F10809   3.883   1.820   5.824  1.7766  2.3996  1.7045
  106OSM    H7G10810   4.015   1.755   5.715 -0.7913 -0.4831  0.3003
  106OSM    C8F10811   4.061   1.912   5.859  0.0106 -0.9736  0.0956
  106OSM    H8F10812   4.031   1.926   5.965  1.6571 -1.2624  0.6209
  106OSM    H8G10813   4.006   1.999   5.817 -0.1423 -0.1970  1.8150
  106OSM    C9F10814   4.208   1.922   5.828  0.4737  0.1289 -0.5237
  106OSM    H9F10815   4.279   1.920   5.912 -1.0450  1.6252  0.8579
  106OSM   C10F10816   4.257   1.948   5.708  0.0006  0.3767 -0.0073
  106OSM   H10F10817   4.365   1.938   5.690 -0.3364 -2.1065 -1.0278
  106OSM   C11F10818   4.169   1.967   5.584 -0.3167 -0.4622  0.8124
  106OSM   H11F10819   4.195   2.063   5.534 -0.5889 -1.7013 -1.8366
  106OSM   H11G10820   4.061   1.984   5.602 -0.3453 -0.3804  0.5619
  106OSM   C12F10821   4.180   1.860   5.473  0.6237  0.2170 -1.0344
  106OSM   H12F10822   4.106   1.894   5.398  0.8223  1.0864 -0.8512
  106OSM   H12G10823   4.159   1.754   5.501  0.8258  0.3759 -0.2577
  106OSM   C13F10824   4.324   1.862   5.410 -0.6499  0.5110 -0.2111
  106OSM   H13F10825   4.393   1.829   5.491 -1.4975 -1.1323 -0.1353
  106OSM   H13G10826   4.358   1.963   5.378  0.8131 -0.1913 -0.9868
  106OSM   C14F10827   4.349   1.767   5.297 -0.0805 -0.4260 -0.7155
  106OSM   H14F10828   4.452   1.780   5.257 -0.0237  0.3848 -0.3129
  106OSM   H14G10829   4.275   1.799   5.220 -0.3814 -0.2726 -0.3637
  106OSM   C15F10830   4.343   1.620   5.331  1.0162 -0.0697 -0.8510
  106OSM   H15F10831   4.245   1.585   5.370  1.8515  1.3308  2.8107
  106OSM   H15G10832   4.412   1.614   5.418 -0.8578 -2.3463  0.6107
  106OSM   C16F10833   4.396   1.535   5.215  0.3653 -0.2676 -0.2043
  106OSM   H16F10834   4.506   1.548   5.207  0.4519 -1.8695 -2.7718
  106OSM   H16G10835   4.342   1.578   5.128 -2.2352 -0.4309  1.2196
  106OSM   C17F10836   4.368   1.387   5.220 -0.3910 -0.3991  0.2647
  106OSM   H17F10837   4.269   1.381   5.271 -0.9228  1.9384 -0.3531
  106OSM   H17G10838   4.444   1.341   5.286 -1.3078  1.2624  2.6208
  106OSM   C18F10839   4.373   1.321   5.080  0.0399 -0.2940  0.3511
  106OSM   H18F10840   4.379   1.211   5.093  1.2913  0.0008  2.8495
  106OSM   H18G10841   4.471   1.352   5.038 -1.3427  3.0719 -0.6982
  106OSM   H18H10842   4.281   1.361   5.031 -1.5189 -2.0802  1.6773
  107OSM      N10843   2.835   0.325   6.315 -0.1854  0.4511 -0.0273
  107OSM    C1510844   2.853   0.222   6.423 -0.1355  0.2836 -0.6093
  107OSM   H15A10845   2.800   0.246   6.514  1.7338  2.8191 -0.0596
  107OSM   H15B10846   2.957   0.232   6.451 -0.3805  1.1451  0.0431
  107OSM   H15C10847   2.832   0.122   6.389 -0.2782  1.4438 -4.3752
  107OSM    C1410848   2.859   0.460   6.374  0.7600  0.7941 -0.2043
  107OSM   H14A10849   2.851   0.543   6.306  0.9925  0.3871 -0.7340
  107OSM   H14B10850   2.959   0.457   6.416  0.8782 -3.0115 -0.3907
  107OSM   H14C10851   2.790   0.477   6.455 -1.5372  1.5696 -2.2006
  107OSM    C1310852   2.941   0.299   6.204 -0.0279  0.1378 -0.1113
  107OSM   H13A10853   2.913   0.228   6.127  0.4552  2.6148 -2.7586
  107OSM   H13B10854   3.033   0.266   6.249  0.0181  0.0196 -0.2931
  107OSM   H13C10855   2.958   0.391   6.151 -1.7665  1.2391  1.1566
  107OSM    C1210856   2.702   0.315   6.246 -0.8038  0.4036 -0.4861
  107OSM   H12A10857   2.684   0.399   6.180 -2.2572  1.3831  1.0840
  107OSM   H12B10858   2.625   0.317   6.322 -0.7531  1.6341 -0.4495
  107OSM    C1110859   2.666   0.175   6.174  0.6048 -0.4149  0.0314
  107OSM   H11A10860   2.744   0.148   6.100  0.0936  0.5248 -0.8639
  107OSM   H11B10861   2.570   0.198   6.123 -1.3429 -1.0179  3.1309
  107OSM      P10862   2.506   0.014   6.313 -0.3425 -0.1465 -0.1488
  107OSM    O1310863   2.448   0.101   6.419 -0.1798 -0.4568 -0.1299
  107OSM    O1410864   2.416  -0.024   6.201  0.4623 -0.5887 -0.4200
  107OSM    O1110865   2.563  -0.114   6.377 -0.5795 -0.2006  0.2975
  107OSM    O1210866   2.649   0.062   6.264 -0.0332  0.4823  0.2130
  107OSM    C1S10867   2.610  -0.226   6.303 -0.3927  1.1486 -0.4712
  107OSM    H1S10868   2.543  -0.248   6.217 -0.8734  0.8080 -0.0215
  107OSM    H1T10869   2.606  -0.314   6.371 -1.9987  2.1805  0.8390
  107OSM     NF10870   2.802  -0.327   6.159  0.0659 -0.3365  0.2143
  107OSM    HNF10871   2.867  -0.399   6.180  1.3440  1.0183  1.1313
  107OSM    C2S10872   2.761  -0.228   6.257 -0.2439 -0.3007  0.4990
  107OSM    H2S10873   2.770  -0.135   6.197  1.4516 -1.7710 -1.7152
  107OSM    C3S10874   2.862  -0.212   6.380  0.4053  0.6320 -0.1010
  107OSM    H3S10875   2.877  -0.320   6.401  1.0814  0.6472 -0.4912
  107OSM     O310876   2.809  -0.135   6.490 -0.1976  0.2479 -0.1721
  107OSM    HO310877   2.719  -0.114   6.464 -0.6565  1.6363  2.1913
  107OSM    C4S10878   2.982  -0.146   6.326 -0.7697  0.4177 -0.0372
  107OSM    H4S10879   2.974  -0.043   6.290  1.4911  0.6392 -0.0643
  107OSM    C5S10880   3.100  -0.207   6.318  0.3737  0.2307 -0.1596
  107OSM    H5S10881   3.099  -0.309   6.360 -1.1078  0.1802 -0.2586
  107OSM    C6S10882   3.228  -0.148   6.273 -0.3062 -0.0789 -0.1666
  107OSM    H6S10883   3.281  -0.208   6.196 -1.1769 -0.2366 -0.6449
  107OSM    H6T10884   3.303  -0.135   6.355  0.1661 -0.8293 -0.4697
  107OSM    C7S10885   3.229  -0.001   6.216 -0.0481  0.1894 -0.0452
  107OSM    H7S10886   3.190   0.062   6.298  2.1530 -1.9744  2.8618
  107OSM    H7T10887   3.158   0.011   6.131 -0.1133  0.8006  0.0944
  107OSM    C8S10888   3.368   0.064   6.181  0.2653 -0.0695  1.0147
  107OSM    H8S10889   3.433   0.046   6.270 -0.0185 -0.6329  1.1119
  107OSM    H8T10890   3.359   0.174   6.172  2.6637  0.2687  2.0032
  107OSM    C9S10891   3.440   0.015   6.051 -0.1553 -0.2068  0.1997
  107OSM    H9S10892   3.364   0.021   5.970 -0.1166  0.5266  0.2059
  107OSM    H9T10893   3.483  -0.087   6.052  1.4027  0.3880  3.2295
  107OSM   C10S10894   3.557   0.096   6.011  0.4586  0.0382  0.8997
  107OSM   H10S10895   3.652   0.080   6.066  2.3503  0.7952 -1.8622
  107OSM   H10T10896   3.518   0.200   6.015  1.5194  0.5708 -0.9152
  107OSM   C11S10897   3.596   0.051   5.869 -0.1648 -0.1842 -0.2967
  107OSM   H11S10898   3.503   0.076   5.814 -2.0743  0.6059  3.0553
  107OSM   H11T10899   3.613  -0.059   5.866 -1.1223 -0.3408 -0.0785
  107OSM   C12S10900   3.714   0.131   5.788  0.7642  0.0076 -1.3335
  107OSM   H12S10901   3.817   0.101   5.818  0.3386  0.8180  1.1453
  107OSM   H12T10902   3.702   0.240   5.809  2.7131 -0.0977  0.7568
  107OSM   C13S10903   3.712   0.117   5.640 -0.0327 -0.5217  0.1497
  107OSM   H13S10904   3.788   0.185   5.597  0.3417 -0.6410  0.6158
  107OSM   H13T10905   3.610   0.144   5.604  0.1100 -1.0149 -0.6365
  107OSM   C14S10906   3.749  -0.027   5.592  0.4919  0.2158 -0.3018
  107OSM   H14S10907   3.671  -0.102   5.615  0.7348 -0.3098 -1.1334
  107OSM   H14T10908   3.845  -0.049   5.644 -0.2944  0.8076  1.4972
  107OSM   C15S10909   3.773  -0.028   5.440  0.5755  0.7264 -0.3486
  107OSM   H15S10910   3.683   0.024   5.401  0.0878 -0.3488 -0.6990
  107OSM   H15T10911   3.771  -0.135   5.408  2.0480  0.2331  1.0355
  107OSM   C16S10912   3.907   0.037   5.378 -0.1236 -0.4680 -0.0048
  107OSM   H16S10913   3.997  -0.021   5.408 -1.1824 -1.3390  1.5650
  107OSM   H16T10914   3.915   0.137   5.426  0.0198 -0.3342 -0.2978
  107OSM   C17S10915   3.903   0.039   5.224 -0.1408  0.1637  0.2450
  107OSM   H17S10916   3.985   0.107   5.195 -0.8314  2.0454  2.4336
  107OSM   H17T10917   3.807   0.073   5.179 -0.2422 -0.1092  0.2485
  107OSM   C18S10918   3.916  -0.100   5.155  0.5633 -0.2855  0.0713
  107OSM   H18S10919   3.854  -0.172   5.213 -0.2719  0.5870  0.2782
  107OSM   H18T10920   4.014  -0.152   5.141  0.1534 -1.2084  0.5347
  107OSM   H18U10921   3.868  -0.090   5.056 -0.5713  0.8394  0.7066
  107OSM    C1F10922   2.750  -0.336   6.033 -0.6529 -0.1729 -0.0126
  107OSM     OF10923   2.672  -0.249   5.995 -0.0619  0.3346 -0.0535
  107OSM    C2F10924   2.789  -0.451   5.950 -0.4758  0.2943  0.3406
  107OSM    H2F10925   2.724  -0.534   5.985 -0.8481  0.7965  0.8459
  107OSM    H2G10926   2.898  -0.475   5.955 -0.6883 -0.6674  0.6441
  107OSM    C3F10927   2.751  -0.409   5.809  0.2861 -0.7159 -0.0461
  107OSM    H3F10928   2.789  -0.307   5.789  1.0987 -1.5086 -3.2679
  107OSM    H3G10929   2.641  -0.403   5.791  0.3237  1.8962  0.3337
  107OSM    C4F10930   2.812  -0.505   5.708 -0.3114  0.6755 -0.1725
  107OSM    H4F10931   2.759  -0.602   5.705  0.1338  0.4374 -0.4861
  107OSM    H4G10932   2.910  -0.540   5.747 -1.3593 -1.6874  0.5370
  107OSM    C5F10933   2.819  -0.448   5.564  0.6724 -0.4659  0.9429
  107OSM    H5F10934   2.894  -0.367   5.554 -0.6082  0.8086  1.2600
  107OSM    H5G10935   2.720  -0.402   5.543  0.4401 -1.4848 -0.2349
  107OSM    C6F10936   2.857  -0.548   5.456 -0.4991  0.3339 -0.3579
  107OSM    H6F10937   2.777  -0.626   5.462 -1.2544  1.1981  2.2820
  107OSM    H6G10938   2.952  -0.599   5.482 -0.3313  0.9493  0.2500
  107OSM    C7F10939   2.877  -0.493   5.317  0.1073  0.7988  0.1338
  107OSM    H7F10940   2.952  -0.413   5.307 -0.0935  0.9810  0.0797
  107OSM    H7G10941   2.780  -0.442   5.300 -0.0103  1.1601  1.7233
  107OSM    C8F10942   2.879  -0.601   5.202 -0.1236  0.0766  0.9198
  107OSM    H8F10943   2.956  -0.675   5.234  0.0765  0.0439  0.3725
  107OSM    H8G10944   2.920  -0.546   5.116 -0.6918  0.5775  0.9646
  107OSM    C9F10945   2.744  -0.662   5.166 -0.2885  0.0201 -0.3724
  107OSM    H9F10946   2.695  -0.679   5.263  0.7606 -1.8970 -0.1042
  107OSM   C10F10947   2.685  -0.684   5.048 -0.7809  0.3486 -0.3889
  107OSM   H10F10948   2.584  -0.726   5.055 -0.9230  0.9387  1.9982
  107OSM   C11F10949   2.733  -0.654   4.910  0.7623  0.3339  0.4417
  107OSM   H11F10950   2.771  -0.741   4.852 -0.5799  0.2217 -0.2994
  107OSM   H11G10951   2.821  -0.587   4.903  0.1640  1.0125 -0.7408
  107OSM   C12F10952   2.622  -0.598   4.819 -0.0013 -0.9246 -0.0251
  107OSM   H12F10953   2.660  -0.560   4.722 -0.5711  0.4976  0.2837
  107OSM   H12G10954   2.579  -0.510   4.871  0.9107 -0.7878  0.5283
  107OSM   C13F10955   2.509  -0.688   4.777  1.1774  0.1299  0.5689
  107OSM   H13F10956   2.466  -0.738   4.866  1.1573 -0.5764  0.1802
  107OSM   H13G10957   2.560  -0.768   4.718  1.6249  1.2588 -0.6162
  107OSM   C14F10958   2.393  -0.621   4.700 -0.0775  0.7573 -0.2691
  107OSM   H14F10959   2.432  -0.568   4.610  0.0189  1.3867  0.1371
  107OSM   H14G10960   2.345  -0.550   4.771 -1.5347 -0.2351 -0.2165
  107OSM   C15F10961   2.280  -0.720   4.658 -0.1021 -0.2101 -0.2255
  107OSM   H15F10962   2.204  -0.669   4.595 -1.2651  0.5901  1.7405
  107OSM   H15G10963   2.233  -0.750   4.754 -0.2303  0.7048  0.0073
  107OSM   C16F10964   2.325  -0.844   4.590 -0.0379  0.2431 -0.0350
  107OSM   H16F10965   2.364  -0.919   4.662 -3.0780 -1.2760  0.1939
  107OSM   H16G10966   2.411  -0.810   4.528 -0.3068 -0.3197 -0.7173
  107OSM   C17F10967   2.239  -0.907   4.482  0.4310  0.3727  0.4185
  107OSM   H17F10968   2.195  -0.833   4.411 -0.8939 -0.5427  0.2354
  107OSM   H17G10969   2.155  -0.959   4.534  0.0967  2.6563  2.3858
  107OSM   C18F10970   2.302  -1.018   4.400  1.0684  0.0136  0.1950
  107OSM   H18F10971   2.379  -0.970   4.335  3.0236 -2.2130  0.6869
  107OSM   H18G10972   2.220  -1.069   4.345 -0.5208  0.9293  1.6310
  107OSM   H18H10973   2.346  -1.089   4.473  1.5604  1.6841  1.5959
  108OSM      N10974   5.879   5.526   6.790  0.0204  0.4786  0.4653
  108OSM    C1510975   5.772   5.467   6.710  0.1385  0.7058 -0.3665
  108OSM   H15A10976   5.695   5.536   6.677 -0.0286 -0.0695 -1.6569
  108OSM   H15B10977   5.719   5.386   6.757  1.0478 -1.3454 -2.6966
  108OSM   H15C10978   5.819   5.421   6.625 -0.6287 -0.6519 -0.0741
  108OSM    C1410979   5.811   5.592   6.908 -0.5520  0.2715  0.4947
  108OSM   H14A10980   5.876   5.615   6.992  0.5282 -1.4847  0.1996
  108OSM   H14B10981   5.731   5.530   6.945  1.3194 -2.0861  0.8837
  108OSM   H14C10982   5.775   5.687   6.874 -2.4685 -1.4597 -2.7777
  108OSM    C1310983   5.963   5.412   6.841  0.4120  0.0238 -0.4226
  108OSM   H13A10984   5.903   5.331   6.880 -0.8084  0.7354 -0.7771
  108OSM   H13B10985   6.017   5.448   6.927 -1.9492 -1.4484  1.8341
  108OSM   H13C10986   6.024   5.364   6.766 -1.1027 -1.6674 -0.6579
  108OSM    C1210987   5.963   5.617   6.709 -0.1642  0.6644 -0.3640
  108OSM   H12A10988   6.000   5.568   6.620 -0.9389  0.2129 -0.4405
  108OSM   H12B10989   6.051   5.640   6.768 -0.0798 -0.1663 -0.1466
  108OSM    C1110990   5.899   5.747   6.671  0.4441 -0.1758 -1.1012
  108OSM   H11A10991   5.794   5.742   6.637 -0.0747  0.4737  0.3380
  108OSM   H11B10992   5.955   5.785   6.582 -1.1599  1.0600 -1.6339
  108OSM      P10993   5.864   5.998   6.743  0.4364 -0.2082  0.1594
  108OSM    O1310994   5.737   6.021   6.811  0.8664 -0.2010 -0.9602
  108OSM    O1410995   5.968   6.096   6.769 -0.3534 -0.4072  0.1344
  108OSM    O1110996   5.832   5.978   6.591 -0.3897 -0.2158  0.0326
  108OSM    O1210997   5.916   5.850   6.778  0.0011 -0.7568 -0.7199
  108OSM    C1S10998   5.816   6.096   6.508 -0.2184  0.3878 -0.0719
  108OSM    H1S10999   5.885   6.179   6.536 -1.7601  1.6920 -0.0121
  108OSM    H1T11000   5.717   6.141   6.531 -0.7653 -0.7829 -0.0679
  108OSM     NF11001   5.852   6.161   6.277 -0.3027  0.5262  0.1033
  108OSM    HNF11002   5.777   6.216   6.239  0.2682  0.2434 -1.4960
  108OSM    C2S11003   5.827   6.048   6.367 -0.1532 -0.2833  0.7365
  108OSM    H2S11004   5.906   5.970   6.360 -1.8264 -2.1981  2.0436
  108OSM    C3S11005   5.701   5.967   6.323  0.2579 -0.3410 -0.9886
  108OSM    H3S11006   5.625   6.046   6.306  0.6117 -0.0338 -1.1588
  108OSM     O311007   5.654   5.878   6.425 -0.1231  0.0756  0.1297
  108OSM    HO311008   5.721   5.887   6.493  0.9862  0.8126 -1.0232
  108OSM    C4S11009   5.730   5.895   6.193  0.1871  0.0885  0.4416
  108OSM    H4S11010   5.751   5.966   6.112 -2.1667  1.8993  1.2898
  108OSM    C5S11011   5.757   5.765   6.175  0.3804  0.1873  0.1238
  108OSM    H5S11012   5.745   5.691   6.256  2.2347  1.1562  1.3878
  108OSM    C6S11013   5.805   5.709   6.042  0.0466  0.0200  0.6716
  108OSM    H6S11014   5.735   5.627   6.014  1.6539 -0.6095 -1.8068
  108OSM    H6T11015   5.902   5.667   6.076  0.5066  0.7007  0.2296
  108OSM    C7S11016   5.840   5.813   5.935 -0.3580 -0.3473  0.1691
  108OSM    H7S11017   5.915   5.885   5.973 -0.6277  0.9588 -1.6279
  108OSM    H7T11018   5.748   5.868   5.904  0.3808  0.4612 -0.6758
  108OSM    C8S11019   5.903   5.747   5.810  0.4071 -0.2006  0.5376
  108OSM    H8S11020   5.842   5.654   5.801 -1.0750  0.8273 -0.5176
  108OSM    H8T11021   5.998   5.693   5.832 -0.5417 -1.2741  2.3269
  108OSM    C9S11022   5.890   5.823   5.671  0.4794  0.2453  0.5538
  108OSM    H9S11023   5.974   5.895   5.668  1.2045 -0.5514  1.0124
  108OSM    H9T11024   5.800   5.888   5.664  1.9614  2.1956 -1.3001
  108OSM   C10S11025   5.911   5.735   5.555 -0.4976  0.8072 -0.3996
  108OSM   H10S11026   5.819   5.675   5.537 -1.1355  1.9291 -1.0213
  108OSM   H10T11027   5.982   5.657   5.589 -2.6039 -1.4476 -0.9002
  108OSM   C11S11028   5.949   5.801   5.427 -0.1612  0.1563 -0.0679
  108OSM   H11S11029   5.972   5.718   5.356  1.2624 -0.6486  1.2821
  108OSM   H11T11030   6.039   5.863   5.447 -0.3594  1.2706 -2.2785
  108OSM   C12S11031   5.835   5.883   5.362 -0.4316  0.2316 -0.3196
  108OSM   H12S11032   5.851   5.989   5.393  1.5354 -0.5389  1.5805
  108OSM   H12T11033   5.748   5.838   5.413 -1.1249  0.0837 -1.5828
  108OSM   C13S11034   5.819   5.863   5.207  0.0825  0.2362  0.4871
  108OSM   H13S11035   5.725   5.907   5.167 -0.2942 -2.3697 -1.7752
  108OSM   H13T11036   5.803   5.756   5.181  0.8136  0.1148  0.5223
  108OSM   C14S11037   5.938   5.912   5.124  0.5445 -0.4558  0.2286
  108OSM   H14S11038   6.032   5.863   5.157  1.1069  0.5815  0.2099
  108OSM   H14T11039   5.957   6.017   5.155  0.4144 -0.1623 -0.6622
  108OSM   C15S11040   5.917   5.906   4.967 -0.1431  0.2527  0.0503
  108OSM   H15S11041   5.907   5.799   4.941  1.5409 -0.0308  0.4784
  108OSM   H15T11042   6.018   5.935   4.931 -0.6699 -0.3456 -2.0409
  108OSM   C16S11043   5.810   5.997   4.901 -0.0396  0.1923 -0.4942
  108OSM   H16S11044   5.829   6.092   4.956  0.8844  0.5247 -1.3552
  108OSM   H16T11045   5.708   5.962   4.926  0.3400 -0.0368  0.8409
  108OSM   C17S11046   5.832   6.025   4.754  0.0822  0.5155  0.3563
  108OSM   H17S11047   5.862   5.927   4.711  1.3380  0.8610  0.3967
  108OSM   H17T11048   5.920   6.091   4.740 -0.1673  0.5016 -1.4994
  108OSM   C18S11049   5.715   6.081   4.672 -0.0610 -0.1567  0.2875
  108OSM   H18S11050   5.745   6.082   4.565  0.8062 -0.7718  0.5121
  108OSM   H18T11051   5.684   6.181   4.707 -0.6987 -1.2047  2.9394
  108OSM   H18U11052   5.633   6.009   4.692  0.8506 -0.8394  1.8338
  108OSM    C1F11053   5.968   6.223   6.283 -0.5500 -0.2089  0.3267
  108OSM     OF11054   6.072   6.162   6.312 -0.3007 -0.0750 -0.0182
  108OSM    C2F11055   5.976   6.368   6.255 -0.6146 -0.1834 -0.3386
  108OSM    H2F11056   5.983   6.417   6.355  1.0770 -3.1151  1.1208
  108OSM    H2G11057   5.887   6.410   6.204 -0.6333 -0.7857 -0.8125
  108OSM    C3F11058   6.094   6.412   6.167 -0.5384 -0.0786 -0.3089
  108OSM    H3F11059   6.070   6.380   6.063 -0.8305  0.5795 -0.4481
  108OSM    H3G11060   6.193   6.368   6.192  0.2487  0.3026 -2.5145
  108OSM    C4F11061   6.109   6.562   6.164 -0.1106 -0.1258  0.4473
  108OSM    H4F11062   6.131   6.601   6.265 -2.4240 -0.2640  1.0692
  108OSM    H4G11063   6.012   6.601   6.125 -0.6666 -0.6116  1.3227
  108OSM    C5F11064   6.213   6.610   6.064 -0.3226  0.5099  0.0296
  108OSM    H5F11065   6.304   6.554   6.092 -0.3683  1.1610  1.5947
  108OSM    H5G11066   6.243   6.714   6.088 -1.9664  0.9585  0.2914
  108OSM    C6F11067   6.164   6.612   5.914  0.5171  0.5314 -0.4110
  108OSM    H6F11068   6.062   6.655   5.911  0.0266 -0.6429 -1.7119
  108OSM    H6G11069   6.173   6.509   5.874 -2.0793  0.6909 -1.5974
  108OSM    C7F11070   6.244   6.703   5.825  0.1344  1.2483 -0.7392
  108OSM    H7F11071   6.348   6.666   5.830 -1.2775 -3.1876  2.3389
  108OSM    H7G11072   6.236   6.805   5.869 -2.0254  0.3891  1.0888
  108OSM    C8F11073   6.188   6.708   5.679  0.0472 -0.7228 -0.6834
  108OSM    H8F11074   6.221   6.810   5.650 -0.7540  0.0166  0.8879
  108OSM    H8G11075   6.078   6.717   5.687  0.2966  3.3723  0.7607
  108OSM    C9F11076   6.227   6.596   5.585  0.3198  0.2934 -0.1446
  108OSM    H9F11077   6.178   6.499   5.605 -2.8051  1.6342 -0.7640
  108OSM   C10F11078   6.316   6.609   5.485  0.6927 -0.4871 -0.5129
  108OSM   H10F11079   6.331   6.523   5.418 -0.5472 -1.1985  0.0922
  108OSM   C11F11080   6.387   6.732   5.439  0.0181  0.9703  1.0588
  108OSM   H11F11081   6.489   6.735   5.484  2.0100 -1.7108 -2.6481
  108OSM   H11G11082   6.328   6.824   5.457 -3.0437 -0.3216 -1.3653
  108OSM   C12F11083   6.426   6.733   5.285  0.1387  0.1212 -0.2240
  108OSM   H12F11084   6.506   6.656   5.276  0.4113  0.3746  0.0315
  108OSM   H12G11085   6.472   6.831   5.264  2.0914 -0.7214 -0.1184
  108OSM   C13F11086   6.309   6.691   5.200 -0.0055 -0.1302  0.2644
  108OSM   H13F11087   6.228   6.766   5.193  0.1367  0.1111  1.0564
  108OSM   H13G11088   6.270   6.598   5.245  2.3411 -0.5533  1.6275
  108OSM   C14F11089   6.342   6.672   5.048 -0.0803  0.5452  0.4176
  108OSM   H14F11090   6.247   6.635   5.003  0.5965 -2.1286  0.9827
  108OSM   H14G11091   6.422   6.597   5.030 -1.3218 -0.4696 -1.2087
  108OSM   C15F11092   6.377   6.807   4.975  0.0682 -0.1958  0.0441
  108OSM   H15F11093   6.483   6.837   4.977 -0.4520  2.0587 -1.8518
  108OSM   H15G11094   6.325   6.888   5.031  2.4880  2.0119 -0.7162
  108OSM   C16F11095   6.332   6.801   4.833  0.0695 -0.4174  0.3922
  108OSM   H16F11096   6.243   6.734   4.831  1.2972 -2.0741 -0.7920
  108OSM   H16G11097   6.408   6.753   4.768  0.7811 -0.2415  1.0699
  108OSM   C17F11098   6.296   6.942   4.770  0.1750  0.2472  0.0907
  108OSM   H17F11099   6.353   7.025   4.815  0.4812 -0.3405  0.8072
  108OSM   H17G11100   6.189   6.950   4.799 -0.2441  0.3041 -1.3712
  108OSM   C18F11101   6.292   6.946   4.615  0.0289 -0.3998  0.0270
  108OSM   H18F11102   6.258   7.046   4.579 -0.6044 -1.0039 -1.0923
  108OSM   H18G11103   6.222   6.869   4.576 -0.4189 -0.1988  0.4205
  108OSM   H18H11104   6.394   6.942   4.571 -0.1108  1.9013 -0.6903
  109OSM      N11105   2.479   2.864   7.049  0.4476 -0.2835 -0.0047
  109OSM    C1511106   2.433   2.956   6.938 -0.3635  0.7757  0.6139
  109OSM   H15A11107   2.393   3.050   6.973 -0.0210  1.6090 -1.1358
  109OSM   H15B11108   2.359   2.901   6.881  0.2489  0.0454  0.5058
  109OSM   H15C11109   2.513   2.979   6.869 -3.5462  1.6893 -3.1204
  109OSM    C1411110   2.580   2.930   7.129  0.3118 -0.4261 -0.2641
  109OSM   H14A11111   2.617   2.857   7.200 -1.0629  1.3123  2.4197
  109OSM   H14B11112   2.547   3.022   7.175  0.0717 -0.1219 -1.0414
  109OSM   H14C11113   2.670   2.962   7.078 -1.3264  2.7998 -1.4155
  109OSM    C1311114   2.359   2.832   7.133 -0.6587 -0.5764  0.4169
  109OSM   H13A11115   2.326   2.909   7.202 -0.9374 -0.4358  0.1286
  109OSM   H13B11116   2.379   2.743   7.191  1.6301 -0.2387  0.2260
  109OSM   H13C11117   2.270   2.799   7.081 -1.9343  3.0536  0.0575
  109OSM    C1211118   2.536   2.735   6.978 -0.0388  0.2149  0.4657
  109OSM   H12A11119   2.544   2.652   7.046  0.4298  0.7614  1.0980
  109OSM   H12B11120   2.633   2.761   6.939 -0.6609 -0.0549 -1.3160
  109OSM    C1111121   2.450   2.686   6.854 -0.1245 -0.7408 -0.2122
  109OSM   H11A11122   2.500   2.594   6.817 -0.5512 -0.5301 -1.3832
  109OSM   H11B11123   2.446   2.766   6.777  2.5295 -0.1412  0.2089
  109OSM      P11124   2.193   2.695   6.812  0.3513  0.6047  0.3985
  109OSM    O1311125   2.084   2.599   6.833  0.0813  0.0711  0.2017
  109OSM    O1411126   2.170   2.839   6.846 -0.0316  0.5562 -0.2341
  109OSM    O1111127   2.244   2.684   6.661 -0.5812 -0.2987  0.4233
  109OSM    O1211128   2.315   2.643   6.893  0.4224  0.2853  0.1708
  109OSM    C1S11129   2.249   2.560   6.586  0.7085 -0.0999 -1.2022
  109OSM    H1S11130   2.161   2.500   6.617 -0.4390  0.8969 -2.3776
  109OSM    H1T11131   2.341   2.506   6.616 -1.8477 -2.8426  2.5901
  109OSM     NF11132   2.179   2.469   6.365 -0.2473  0.6823  0.3274
  109OSM    HNF11133   2.235   2.434   6.290 -2.0093 -1.1901 -0.2095
  109OSM    C2S11134   2.217   2.596   6.436  0.3061 -0.5419  0.2362
  109OSM    H2S11135   2.129   2.664   6.440  0.5696 -0.0697 -1.3047
  109OSM    C3S11136   2.345   2.661   6.373 -0.2825 -0.8597  0.1856
  109OSM    H3S11137   2.426   2.586   6.385 -0.1499 -0.7165  0.1977
  109OSM     O311138   2.391   2.785   6.435  0.0248 -0.6598 -0.2792
  109OSM    HO311139   2.347   2.785   6.520  0.1020  1.3248 -0.1912
  109OSM    C4S11140   2.321   2.691   6.228  0.2343  0.2204 -0.1759
  109OSM    H4S11141   2.240   2.762   6.207 -0.2061  0.0549  0.9048
  109OSM    C5S11142   2.395   2.637   6.131  0.3991  0.0540 -0.3776
  109OSM    H5S11143   2.470   2.559   6.149 -0.9757 -2.0270 -2.9150
  109OSM    C6S11144   2.365   2.664   5.987  0.0820  0.2764 -0.0989
  109OSM    H6S11145   2.361   2.565   5.936 -0.0832  0.2043  0.0548
  109OSM    H6T11146   2.441   2.726   5.936 -1.3013  1.4767 -0.7483
  109OSM    C7S11147   2.227   2.726   5.947 -0.4141  0.1090 -0.1715
  109OSM    H7S11148   2.237   2.835   5.965 -1.1162  0.0354  0.7469
  109OSM    H7T11149   2.143   2.679   6.004 -0.4776  0.5509  0.1020
  109OSM    C8S11150   2.203   2.723   5.799 -0.4791  0.5189  0.4191
  109OSM    H8S11151   2.098   2.757   5.787 -0.9903 -1.4039 -1.1189
  109OSM    H8T11152   2.201   2.614   5.775 -0.1924  0.2264  1.6347
  109OSM    C9S11153   2.296   2.809   5.713  0.0306  0.0253  0.0200
  109OSM    H9S11154   2.402   2.783   5.734 -0.6133 -2.3260  0.7031
  109OSM    H9T11155   2.280   2.914   5.743 -1.3563 -0.1693  0.0155
  109OSM   C10S11156   2.268   2.782   5.564  0.0936 -0.0737 -0.2841
  109OSM   H10S11157   2.161   2.810   5.556  0.3521  1.4256  0.9749
  109OSM   H10T11158   2.292   2.674   5.549  1.8745  0.0695  1.2049
  109OSM   C11S11159   2.355   2.865   5.479  0.0108 -0.2522  0.6202
  109OSM   H11S11160   2.458   2.825   5.478  0.2607  0.0144 -3.5429
  109OSM   H11T11161   2.357   2.969   5.520 -1.0270  0.9234 -2.0424
  109OSM   C12S11162   2.312   2.871   5.334 -0.0410 -0.8143  0.1152
  109OSM   H12S11163   2.220   2.932   5.318 -0.1236 -1.3465 -1.8048
  109OSM   H12T11164   2.289   2.765   5.311  1.7289 -1.5334  1.4868
  109OSM   C13S11165   2.411   2.917   5.235 -0.2606 -0.0642  0.5815
  109OSM   H13S11166   2.501   2.854   5.219  0.5169  1.3640 -1.0301
  109OSM   H13T11167   2.451   3.013   5.274  0.8163 -0.2000 -0.1363
  109OSM   C14S11168   2.355   2.931   5.092  0.3755 -0.6093 -0.1959
  109OSM   H14S11169   2.431   2.981   5.027  1.7886 -1.3727  0.7965
  109OSM   H14T11170   2.260   2.987   5.094 -0.9798 -2.8073  1.2928
  109OSM   C15S11171   2.325   2.795   5.022 -0.3475  0.4266  0.1928
  109OSM   H15S11172   2.283   2.824   4.924 -1.4611  1.2646  0.8859
  109OSM   H15T11173   2.234   2.751   5.068 -0.3086  0.9403  0.7843
  109OSM   C16S11174   2.437   2.694   5.008  0.0116 -0.1906 -0.3190
  109OSM   H16S11175   2.462   2.650   5.108 -1.1134  1.8638  0.9211
  109OSM   H16T11176   2.532   2.737   4.969 -0.1989  0.5631 -0.0074
  109OSM   C17S11177   2.389   2.577   4.918 -0.6511  0.2042  0.5393
  109OSM   H17S11178   2.280   2.571   4.940 -0.9318  1.1829 -0.5225
  109OSM   H17T11179   2.442   2.488   4.958  0.5638  1.0294  0.8130
  109OSM   C18S11180   2.414   2.608   4.773  0.1015  0.4741  0.0634
  109OSM   H18S11181   2.341   2.680   4.730  0.2356  1.4118  1.3463
  109OSM   H18T11182   2.389   2.521   4.708 -0.3792  0.1488  0.6583
  109OSM   H18U11183   2.517   2.646   4.758  0.4561 -0.4905 -0.0291
  109OSM    C1F11184   2.066   2.398   6.394 -0.5688 -0.5572  0.0895
  109OSM     OF11185   1.973   2.446   6.460 -0.0730 -0.6389 -0.2060
  109OSM    C2F11186   2.071   2.256   6.348  0.0433  0.4877 -0.1479
  109OSM    H2F11187   2.060   2.190   6.437 -1.8860 -0.2959 -0.8974
  109OSM    H2G11188   2.168   2.236   6.298 -0.6567 -0.2001 -1.2797
  109OSM    C3F11189   1.965   2.220   6.240 -0.0913  0.3785  0.5539
  109OSM    H3F11190   1.870   2.209   6.296 -1.3722 -0.5977 -1.6508
  109OSM    H3G11191   1.986   2.116   6.204  0.4025  0.0095  1.8537
  109OSM    C4F11192   1.954   2.312   6.118  0.5138 -0.3473  0.1997
  109OSM    H4F11193   1.911   2.411   6.144  0.4792  0.3291 -2.1904
  109OSM    H4G11194   1.889   2.264   6.041 -0.6144  0.4684  0.6100
  109OSM    C5F11195   2.088   2.346   6.042  0.1902 -0.0261  0.2716
  109OSM    H5F11196   2.156   2.263   6.072  1.7205  0.6270 -1.2191
  109OSM    H5G11197   2.136   2.443   6.067 -0.6291  1.2212 -2.6289
  109OSM    C6F11198   2.065   2.356   5.891  0.8382 -0.0355 -0.3701
  109OSM    H6F11199   2.012   2.451   5.868  0.5158 -0.4076 -1.2321
  109OSM    H6G11200   1.998   2.277   5.849 -0.9634  1.9798 -1.4735
  109OSM    C7F11201   2.187   2.340   5.812 -0.5090 -0.2244 -0.2383
  109OSM    H7F11202   2.246   2.259   5.862  1.6001  1.6912  0.5703
  109OSM    H7G11203   2.257   2.427   5.806 -0.6838 -0.1813 -2.2364
  109OSM    C8F11204   2.171   2.304   5.661 -0.7434  0.8135 -0.4930
  109OSM    H8F11205   2.112   2.211   5.650 -0.0289  0.1198  1.1259
  109OSM    H8G11206   2.272   2.280   5.621  0.3919  2.0003  1.4987
  109OSM    C9F11207   2.097   2.416   5.594 -0.6574  0.1854  0.1590
  109OSM    H9F11208   2.006   2.453   5.644  0.6057  3.9960 -0.0218
  109OSM   C10F11209   2.122   2.474   5.472  0.3862  0.1387 -0.0341
  109OSM   H10F11210   2.054   2.553   5.438  1.1831  0.5143 -0.8137
  109OSM   C11F11211   2.240   2.453   5.376  0.1265  0.8147 -0.6825
  109OSM   H11F11212   2.300   2.365   5.409  1.5829  0.3486 -4.1442
  109OSM   H11G11213   2.308   2.541   5.381  1.1078  0.2241 -2.5236
  109OSM   C12F11214   2.212   2.439   5.225 -0.3863 -0.3037 -0.1338
  109OSM   H12F11215   2.205   2.540   5.181  1.4142 -0.5315 -1.0708
  109OSM   H12G11216   2.109   2.400   5.215 -1.0268  1.3138 -0.1344
  109OSM   C13F11217   2.296   2.327   5.163  0.1993  0.0689  0.0963
  109OSM   H13F11218   2.300   2.232   5.222  1.0870 -1.0481 -1.6865
  109OSM   H13G11219   2.401   2.360   5.156 -0.3093  1.8043  0.1919
  109OSM   C14F11220   2.233   2.288   5.029  0.3032 -0.6576  0.0921
  109OSM   H14F11221   2.230   2.375   4.960  3.7999  1.3672  2.1597
  109OSM   H14G11222   2.127   2.262   5.048  0.3145 -1.8878 -1.2951
  109OSM   C15F11223   2.299   2.169   4.969 -0.5521  0.2910  0.6346
  109OSM   H15F11224   2.272   2.076   5.025 -1.1272 -1.4806 -2.3706
  109OSM   H15G11225   2.408   2.187   4.978 -0.2115 -1.4539  0.3327
  109OSM   C16F11226   2.268   2.153   4.825 -0.3289  0.4538 -0.1474
  109OSM   H16F11227   2.317   2.232   4.765 -0.2705  1.0291  0.6500
  109OSM   H16G11228   2.159   2.149   4.804 -0.1156 -0.0721 -1.2544
  109OSM   C17F11229   2.329   2.021   4.772  0.2071 -0.4184  0.8102
  109OSM   H17F11230   2.269   1.933   4.802 -0.4131 -0.8026 -1.4145
  109OSM   H17G11231   2.422   2.002   4.830  0.2117  2.2641  1.8079
  109OSM   C18F11232   2.355   2.011   4.623 -0.1619 -0.1083  0.2519
  109OSM   H18F11233   2.267   1.980   4.563  0.7615  0.9369 -1.7716
  109OSM   H18G11234   2.429   1.931   4.604 -1.9531 -1.6513 -0.4372
  109OSM   H18H11235   2.388   2.110   4.583  0.3339 -0.1107  0.6452
  110OSM      N11236   5.241   0.102   6.943 -0.8861  0.9990  0.0519
  110OSM    C1511237   5.334   0.211   6.926  0.7760 -0.0190 -0.4490
  110OSM   H15A11238   5.434   0.172   6.918  1.1814  0.3914  1.8326
  110OSM   H15B11239   5.328   0.281   7.008 -0.7896 -2.0845  1.3095
  110OSM   H15C11240   5.325   0.260   6.831  0.6104 -2.7651 -1.9503
  110OSM    C1411241   5.303  -0.015   6.875 -0.2894 -0.0995  0.3476
  110OSM   H14A11242   5.397  -0.041   6.922  0.4111  2.0835  0.2822
  110OSM   H14B11243   5.321  -0.002   6.769 -0.2374 -0.4132  0.3166
  110OSM   H14C11244   5.244  -0.104   6.889 -0.0253 -0.1540  1.1501
  110OSM    C1311245   5.235   0.067   7.091 -0.3591 -0.6285 -0.7095
  110OSM   H13A11246   5.205   0.151   7.153  1.1780  0.9167 -1.9395
  110OSM   H13B11247   5.333   0.051   7.132 -0.0670 -0.6461 -1.3910
  110OSM   H13C11248   5.173  -0.020   7.107 -1.5536 -0.0049 -1.6802
  110OSM    C1211249   5.110   0.132   6.879 -0.2463 -0.6478 -0.5226
  110OSM   H12A11250   5.048   0.043   6.878 -0.4464 -0.5352  0.7680
  110OSM   H12B11251   5.126   0.144   6.773 -3.0497  0.8832 -0.8585
  110OSM    C1111252   5.007   0.239   6.932  0.1342  0.3051 -0.4483
  110OSM   H11A11253   4.974   0.213   7.035 -0.6810  2.5366 -0.0966
  110OSM   H11B11254   4.920   0.237   6.863 -0.6124 -0.1991  0.4831
  110OSM      P11255   5.075   0.467   6.844  0.2274  0.2746  0.2846
  110OSM    O1311256   4.989   0.581   6.883  0.4410 -0.3610  0.2649
  110OSM    O1411257   5.220   0.497   6.817  0.2564  0.5176  0.1478
  110OSM    O1111258   5.016   0.399   6.711  0.1126  0.0130  0.7941
  110OSM    O1211259   5.074   0.363   6.954  0.3456  0.2637  0.2742
  110OSM    C1S11260   4.967   0.489   6.606 -0.2401  0.2589 -0.0109
  110OSM    H1S11261   4.996   0.593   6.633  0.1786 -0.3776  2.2618
  110OSM    H1T11262   4.859   0.478   6.586  0.0672 -0.9973 -1.1288
  110OSM     NF11263   4.980   0.570   6.380  0.7028 -0.1302  0.3445
  110OSM    HNF11264   4.893   0.559   6.333  0.0672  0.0796  1.4281
  110OSM    C2S11265   5.016   0.461   6.464  0.0375  0.4654 -0.2719
  110OSM    H2S11266   5.126   0.448   6.456 -0.1349 -0.0090 -2.8058
  110OSM    C3S11267   4.944   0.330   6.413 -0.3295  0.1607  0.5924
  110OSM    H3S11268   4.836   0.359   6.414 -0.6691 -0.9792 -0.6152
  110OSM     O311269   4.942   0.218   6.501  0.4307 -0.1848  0.5403
  110OSM    HO311270   4.993   0.256   6.572  1.0299 -1.9177  1.1010
  110OSM    C4S11271   4.981   0.303   6.271 -0.5494 -0.3340  0.9042
  110OSM    H4S11272   5.086   0.331   6.249 -0.4235 -0.3744  1.4485
  110OSM    C5S11273   4.915   0.246   6.168  0.1999 -0.8095  0.2792
  110OSM    H5S11274   4.815   0.207   6.191 -0.6187  1.4280  0.7807
  110OSM    C6S11275   4.965   0.222   6.023 -0.9528  1.0124  0.0060
  110OSM    H6S11276   4.880   0.216   5.952  0.5971 -1.5115 -1.8149
  110OSM    H6T11277   5.021   0.126   6.032 -0.9129  0.9464 -0.8502
  110OSM    C7S11278   5.068   0.329   5.983 -0.2857 -0.9119 -0.8145
  110OSM    H7S11279   5.156   0.322   6.051  0.5277 -0.9064 -1.8550
  110OSM    H7T11280   5.028   0.432   5.990  1.0912 -0.3457 -0.9097
  110OSM    C8S11281   5.111   0.320   5.832 -0.9165 -0.2463 -0.3910
  110OSM    H8S11282   5.199   0.255   5.850  2.0973  3.6816  0.4674
  110OSM    H8T11283   5.143   0.422   5.803  1.8817 -0.1667  2.4743
  110OSM    C9S11284   5.015   0.259   5.728 -0.3113 -0.0722 -0.0777
  110OSM    H9S11285   4.930   0.329   5.715  0.9306  1.5722  0.3641
  110OSM    H9T11286   4.981   0.160   5.764 -0.3730  0.1831  0.5714
  110OSM   C10S11287   5.081   0.245   5.594  0.0264  0.4569  0.6567
  110OSM   H10S11288   5.166   0.174   5.606  0.6237  1.0336 -0.0747
  110OSM   H10T11289   5.125   0.343   5.565 -0.5670  0.1479 -1.4433
  110OSM   C11S11290   4.981   0.195   5.487 -0.1713  0.3197  0.3232
  110OSM   H11S11291   4.935   0.104   5.531 -0.5624  0.3651  0.0106
  110OSM   H11T11292   5.044   0.169   5.400  1.7641 -0.1854  1.8028
  110OSM   C12S11293   4.870   0.299   5.445 -0.3683  0.5172  0.5092
  110OSM   H12S11294   4.909   0.403   5.439 -0.1907  0.5397  1.7702
  110OSM   H12T11295   4.777   0.292   5.505 -1.3750  0.5896 -0.9977
  110OSM   C13S11296   4.836   0.248   5.305 -1.0249  0.2534  0.0490
  110OSM   H13S11297   4.770   0.158   5.309 -2.8510  1.5437  0.5603
  110OSM   H13T11298   4.921   0.222   5.239 -2.0148 -0.8881 -0.8389
  110OSM   C14S11299   4.750   0.343   5.219  0.1663 -0.4181 -0.1543
  110OSM   H14S11300   4.761   0.313   5.112  2.1431  3.0232 -1.0603
  110OSM   H14T11301   4.795   0.443   5.233 -0.9915  0.0696  0.2229
  110OSM   C15S11302   4.603   0.335   5.263 -0.1753  0.7591  0.1474
  110OSM   H15S11303   4.592   0.354   5.372  0.6263  0.6364  0.2521
  110OSM   H15T11304   4.574   0.231   5.236 -0.8934  0.6060  1.4042
  110OSM   C16S11305   4.517   0.427   5.180  0.4165 -0.2294 -0.1516
  110OSM   H16S11306   4.558   0.528   5.201 -0.2922  0.2415 -0.9680
  110OSM   H16T11307   4.410   0.421   5.208  0.2978 -2.4699 -0.8561
  110OSM   C17S11308   4.518   0.403   5.027  0.5168  0.1353  0.3980
  110OSM   H17S11309   4.510   0.295   5.005  3.5962 -0.1649  0.3100
  110OSM   H17T11310   4.615   0.442   4.988 -0.2463  3.4233  1.4084
  110OSM   C18S11311   4.403   0.486   4.966 -0.0977  0.2551 -0.5139
  110OSM   H18S11312   4.385   0.456   4.861 -0.4479 -1.8130  0.0760
  110OSM   H18T11313   4.440   0.590   4.961  3.3652 -0.8328 -0.5403
  110OSM   H18U11314   4.309   0.474   5.023  0.9360 -0.3816  1.1637
  110OSM    C1F11315   5.052   0.679   6.367  0.3488  0.0574  0.3813
  110OSM     OF11316   5.136   0.721   6.443  0.6304  0.2952 -0.3542
  110OSM    C2F11317   5.036   0.757   6.230  0.4350  0.4628  0.2805
  110OSM    H2F11318   4.996   0.860   6.235  0.6142  0.6444 -1.3432
  110OSM    H2G11319   4.964   0.700   6.167 -2.1847 -0.1118  3.4981
  110OSM    C3F11320   5.173   0.777   6.153 -0.0929  0.1201 -1.2539
  110OSM    H3F11321   5.207   0.672   6.140  1.0319  0.0412  1.6246
  110OSM    H3G11322   5.241   0.823   6.227 -3.1757  2.2602  0.4812
  110OSM    C4F11323   5.158   0.844   6.021  0.6995  0.3024  0.2019
  110OSM    H4F11324   5.257   0.843   5.972  0.4664 -1.1100 -0.2935
  110OSM    H4G11325   5.121   0.947   6.036 -1.6041 -0.5293  0.6204
  110OSM    C5F11326   5.075   0.773   5.914  0.0782  0.5003  0.5038
  110OSM    H5F11327   4.969   0.769   5.947  0.1122  4.2666  1.5435
  110OSM    H5G11328   5.125   0.675   5.898 -1.3910 -0.6032  2.2499
  110OSM    C6F11329   5.073   0.845   5.784  0.3979  0.1573  0.0719
  110OSM    H6F11330   5.176   0.851   5.741  0.1936 -2.7652 -1.0806
  110OSM    H6G11331   5.030   0.947   5.792 -0.3625 -0.1010 -0.6096
  110OSM    C7F11332   4.986   0.772   5.677 -0.4250  0.3702  0.3360
  110OSM    H7F11333   4.950   0.840   5.597 -1.8112 -0.5607  0.1434
  110OSM    H7G11334   4.897   0.736   5.733 -1.0268 -2.1203 -2.0356
  110OSM    C8F11335   5.050   0.649   5.599 -0.1214  0.3431 -1.2309
  110OSM    H8F11336   4.969   0.600   5.539 -0.0510 -1.0160 -0.2472
  110OSM    H8G11337   5.083   0.573   5.673 -0.2251  0.7299 -0.7842
  110OSM    C9F11338   5.160   0.693   5.517  0.1255 -0.1356 -0.0277
  110OSM    H9F11339   5.244   0.743   5.568  0.3664 -0.4113 -0.1533
  110OSM   C10F11340   5.159   0.683   5.384 -0.3331  0.0435  0.0680
  110OSM   H10F11341   5.242   0.735   5.332  0.9441 -2.0736 -0.1197
  110OSM   C11F11342   5.057   0.628   5.288 -0.6731 -0.2572  0.8160
  110OSM   H11F11343   4.961   0.627   5.343 -0.9307  0.7040  0.4004
  110OSM   H11G11344   5.088   0.523   5.268 -3.3182 -0.5653 -2.5044
  110OSM   C12F11345   5.028   0.696   5.160  0.3400  0.3275  0.4064
  110OSM   H12F11346   4.980   0.793   5.185 -1.6402  0.5234 -3.4155
  110OSM   H12G11347   4.954   0.641   5.098  0.9709  0.9869 -0.9692
  110OSM   C13F11348   5.148   0.739   5.073 -0.5172 -0.1876  0.0370
  110OSM   H13F11349   5.229   0.663   5.059 -0.3740  0.3912 -2.8648
  110OSM   H13G11350   5.205   0.817   5.129 -1.3131 -1.5431  2.9572
  110OSM   C14F11351   5.105   0.773   4.928  0.5849  0.7584  0.4162
  110OSM   H14F11352   5.015   0.838   4.934 -0.4454 -0.7049  1.9123
  110OSM   H14G11353   5.087   0.679   4.872  2.1838  0.1414  0.8663
  110OSM   C15F11354   5.219   0.828   4.848  0.4265  0.2827  0.4585
  110OSM   H15F11355   5.311   0.769   4.868  0.8350  0.9307  0.5171
  110OSM   H15G11356   5.246   0.934   4.870  0.4983 -0.3402  3.8638
  110OSM   C16F11357   5.200   0.815   4.698 -0.5077  0.1027 -0.1357
  110OSM   H16F11358   5.104   0.861   4.667  0.2129  1.6767 -0.1188
  110OSM   H16G11359   5.184   0.705   4.691 -0.4256  0.0367  0.6447
  110OSM   C17F11360   5.319   0.871   4.620 -0.4726 -0.4059  0.0101
  110OSM   H17F11361   5.407   0.805   4.632 -1.2971 -1.7515 -0.9466
  110OSM   H17G11362   5.332   0.976   4.653  0.9973 -1.2763  2.4035
  110OSM   C18F11363   5.280   0.859   4.471  0.6503 -0.0622 -0.6448
  110OSM   H18F11364   5.279   0.753   4.438  0.3737 -0.2945  0.0932
  110OSM   H18G11365   5.352   0.920   4.412 -1.1922  1.0073 -1.9352
  110OSM   H18H11366   5.181   0.910   4.469  0.8876  0.4027 -0.8835
  111OSM      N11367   0.928   3.686   6.987  0.6653 -0.5688 -0.4790
  111OSM    C1511368   1.023   3.798   6.975  0.0577  0.1592  0.1516
  111OSM   H15A11369   1.045   3.840   7.072 -2.0257  2.9029 -0.4593
  111OSM   H15B11370   0.975   3.866   6.907  1.3052  0.3468 -0.5745
  111OSM   H15C11371   1.115   3.759   6.933  0.0395 -0.7537  0.9136
  111OSM    C1411372   0.982   3.583   7.077 -0.3140 -0.0413 -0.0493
  111OSM   H14A11373   0.989   3.618   7.179  1.5996  0.5422 -0.3502
  111OSM   H14B11374   1.086   3.563   7.062 -0.4831 -2.4461  1.4120
  111OSM   H14C11375   0.932   3.488   7.081  2.0240 -1.3120  0.4966
  111OSM    C1311376   0.803   3.736   7.057  0.1588 -0.2061  0.1358
  111OSM   H13A11377   0.737   3.654   7.082 -0.5661 -0.3015 -1.9268
  111OSM   H13B11378   0.749   3.796   6.985  0.0520 -0.8593 -0.3340
  111OSM   H13C11379   0.825   3.792   7.147  0.0788 -1.2078  0.7946
  111OSM    C1211380   0.894   3.629   6.859  0.0915  0.2844  0.9496
  111OSM   H12A11381   0.808   3.564   6.870 -0.3344  0.6905  0.1517
  111OSM   H12B11382   0.980   3.576   6.821  1.1876  0.9555  2.4214
  111OSM    C1111383   0.852   3.732   6.754 -0.1454  0.0116 -0.1253
  111OSM   H11A11384   0.852   3.686   6.653  2.9152  3.0925 -1.7435
  111OSM   H11B11385   0.928   3.812   6.741 -2.0181  1.6793 -1.2845
  111OSM      P11386   0.598   3.720   6.721 -0.2271  0.0049  0.7096
  111OSM    O1311387   0.617   3.576   6.705 -0.4976 -0.4314  0.0630
  111OSM    O1411388   0.481   3.761   6.809  0.0479  0.3797  0.6542
  111OSM    O1111389   0.579   3.789   6.575 -0.0048 -0.4623 -0.0893
  111OSM    O1211390   0.726   3.789   6.783 -0.0588  0.3279  0.2234
  111OSM    C1S11391   0.664   3.896   6.537 -0.2164  0.3229 -0.5956
  111OSM    H1S11392   0.772   3.871   6.535 -0.0794  0.7965  0.1591
  111OSM    H1T11393   0.660   3.978   6.612 -0.6590 -0.2621  0.0231
  111OSM     NF11394   0.715   4.024   6.337  0.6053 -0.3334  0.3756
  111OSM    HNF11395   0.691   4.121   6.340  0.5453 -0.2692 -1.0952
  111OSM    C2S11396   0.617   3.943   6.396  0.6904 -0.5126 -0.2405
  111OSM    H2S11397   0.618   3.863   6.319 -1.3872 -1.2475  0.4477
  111OSM    C3S11398   0.479   4.007   6.404 -0.0270 -0.3485 -0.1479
  111OSM    H3S11399   0.479   4.091   6.476  2.4755 -0.7362  0.3927
  111OSM     O311400   0.379   3.923   6.465 -0.2441 -0.6629 -0.5472
  111OSM    HO311401   0.437   3.850   6.488  2.0468  0.5604 -2.1037
  111OSM    C4S11402   0.430   4.048   6.267 -0.1146  0.0014  0.3979
  111OSM    H4S11403   0.372   3.980   6.203 -0.9803  1.3895 -0.3384
  111OSM    C5S11404   0.432   4.183   6.226  0.2737 -0.1904 -0.4065
  111OSM    H5S11405   0.467   4.262   6.294  2.5309 -2.0276  0.7038
  111OSM    C6S11406   0.363   4.227   6.101 -0.0692 -0.5861  0.1245
  111OSM    H6S11407   0.398   4.318   6.048  1.1854  0.1292  2.0672
  111OSM    H6T11408   0.265   4.255   6.145  0.4209  1.0634  0.2368
  111OSM    C7S11409   0.331   4.121   5.998 -0.6870 -0.1405 -0.0754
  111OSM    H7S11410   0.300   4.025   6.043  0.6872 -0.7241 -0.3493
  111OSM    H7T11411   0.419   4.105   5.933 -1.0740  1.1238 -0.9721
  111OSM    C8S11412   0.213   4.167   5.908 -0.5804  0.0068 -0.2038
  111OSM    H8S11413   0.265   4.240   5.843  0.3496  0.6190  1.1731
  111OSM    H8T11414   0.138   4.229   5.963 -1.7308 -0.4463 -1.2095
  111OSM    C9S11415   0.131   4.052   5.843 -0.2562  0.5160  0.4232
  111OSM    H9S11416   0.054   4.016   5.914  0.7501 -2.1132  0.2696
  111OSM    H9T11417   0.198   3.973   5.803 -0.1368  0.4654  0.7210
  111OSM   C10S11418   0.055   4.086   5.708  0.2888  0.3801  0.2709
  111OSM   H10S11419  -0.038   4.144   5.728 -0.8557 -1.2816 -0.0781
  111OSM   H10T11420   0.022   3.988   5.668  0.6940 -0.7505  2.5251
  111OSM   C11S11421   0.143   4.149   5.598  0.2226 -0.2430  0.3221
  111OSM   H11S11422   0.239   4.093   5.592  0.9999  1.1774 -1.9123
  111OSM   H11T11423   0.168   4.255   5.619  0.5114  0.0718 -1.4575
  111OSM   C12S11424   0.068   4.174   5.470  0.4081 -0.0114  0.3375
  111OSM   H12S11425  -0.023   4.232   5.494 -1.1059 -1.5705 -1.3436
  111OSM   H12T11426   0.013   4.088   5.425 -0.7480  2.2475 -2.9313
  111OSM   C13S11427   0.157   4.240   5.359  0.6576  0.9237 -0.7077
  111OSM   H13S11428   0.264   4.211   5.369  0.5043 -1.4021 -4.2260
  111OSM   H13T11429   0.157   4.350   5.377  2.0044  1.1389 -1.8503
  111OSM   C14S11430   0.110   4.206   5.217  0.2758 -0.2013  0.2613
  111OSM   H14S11431   0.004   4.236   5.209  0.4083  0.1459 -0.2113
  111OSM   H14T11432   0.118   4.096   5.200 -0.7976 -0.1510 -0.6783
  111OSM   C15S11433   0.189   4.265   5.099  0.1947  0.2317  0.1104
  111OSM   H15S11434   0.296   4.236   5.102 -0.3230 -1.8216  2.9661
  111OSM   H15T11435   0.196   4.372   5.128  1.8795 -0.3394  1.9966
  111OSM   C16S11436   0.109   4.241   4.972  0.1489  0.9908  0.7107
  111OSM   H16S11437   0.010   4.291   4.974 -0.5907 -0.0092 -2.9638
  111OSM   H16T11438   0.098   4.132   4.956  1.0026  0.9292  0.4724
  111OSM   C17S11439   0.179   4.302   4.854 -0.8857 -0.5052 -0.4136
  111OSM   H17S11440   0.280   4.258   4.837 -1.6697 -1.5610 -2.7634
  111OSM   H17T11441   0.201   4.411   4.855  0.7001 -0.7286 -2.4186
  111OSM   C18S11442   0.116   4.280   4.721 -0.1537  0.2342  0.5679
  111OSM   H18S11443   0.118   4.171   4.700 -1.0137 -0.3727  3.2493
  111OSM   H18T11444   0.169   4.343   4.646 -1.0832  1.0600  0.5897
  111OSM   H18U11445   0.010   4.313   4.724 -0.4020 -0.3682 -0.6392
  111OSM    C1F11446   0.837   3.986   6.297 -0.3048  0.0388 -0.0352
  111OSM     OF11447   0.862   3.868   6.293 -0.0286  0.0135 -0.0291
  111OSM    C2F11448   0.941   4.089   6.261 -0.7175  0.3874 -0.4273
  111OSM    H2F11449   0.993   4.033   6.181  1.7021  3.3505 -1.1217
  111OSM    H2G11450   1.002   4.094   6.354  1.8710 -1.1666 -1.9064
  111OSM    C3F11451   0.884   4.224   6.204 -0.0665  0.1833 -0.1398
  111OSM    H3F11452   0.974   4.280   6.168  0.1256 -0.3930 -0.5728
  111OSM    H3G11453   0.826   4.289   6.272 -1.3808  0.4655 -1.4858
  111OSM    C4F11454   0.801   4.206   6.078 -0.2866  0.9629  0.1190
  111OSM    H4F11455   0.704   4.178   6.123  0.7254 -0.5959  1.4647
  111OSM    H4G11456   0.842   4.127   6.011 -0.3851 -0.0303  1.2084
  111OSM    C5F11457   0.780   4.330   5.997  0.0402 -0.3718 -0.7532
  111OSM    H5F11458   0.880   4.365   5.964  0.4001 -1.4831 -0.8797
  111OSM    H5G11459   0.742   4.409   6.066  0.3815  1.0236 -2.1046
  111OSM    C6F11460   0.686   4.304   5.886  0.4240  0.4851  0.1645
  111OSM    H6F11461   0.590   4.281   5.937  1.0425  0.9609  1.5783
  111OSM    H6G11462   0.704   4.211   5.827  1.4673  0.6021  0.2819
  111OSM    C7F11463   0.650   4.433   5.800  0.1266  0.8189 -0.1872
  111OSM    H7F11464   0.734   4.467   5.736 -2.0453 -0.5968 -4.1467
  111OSM    H7G11465   0.637   4.514   5.874  1.5761 -1.3367  2.6246
  111OSM    C8F11466   0.515   4.418   5.720 -0.4759  0.7862 -0.7747
  111OSM    H8F11467   0.502   4.513   5.664  1.8665  1.4729 -0.2781
  111OSM    H8G11468   0.441   4.410   5.803 -0.9330 -0.9731 -1.3224
  111OSM    C9F11469   0.525   4.296   5.632  0.6888  0.2774 -0.0694
  111OSM    H9F11470   0.467   4.209   5.668  1.4094 -1.1893 -2.2346
  111OSM   C10F11471   0.578   4.290   5.509  0.2773  0.5160  0.2795
  111OSM   H10F11472   0.564   4.200   5.448  0.0672 -1.0286  2.4871
  111OSM   C11F11473   0.632   4.402   5.426  0.5665 -0.4225  0.0971
  111OSM   H11F11474   0.735   4.371   5.397 -0.1359 -1.7791 -1.0293
  111OSM   H11G11475   0.655   4.488   5.492  2.8557 -0.2758 -0.7901
  111OSM   C12F11476   0.549   4.450   5.307  0.0201 -0.2436 -0.1807
  111OSM   H12F11477   0.589   4.549   5.276 -0.5969  0.0881  0.0690
  111OSM   H12G11478   0.446   4.450   5.349 -0.5259 -2.1477 -1.3980
  111OSM   C13F11479   0.570   4.369   5.177  0.3087 -0.1648 -0.3975
  111OSM   H13F11480   0.487   4.404   5.112  1.1210 -2.4514 -2.8564
  111OSM   H13G11481   0.572   4.260   5.200 -0.5684 -0.8281 -3.1021
  111OSM   C14F11482   0.709   4.386   5.102 -0.0138 -0.0932  0.2906
  111OSM   H14F11483   0.787   4.329   5.156  1.7754  2.1015  0.1484
  111OSM   H14G11484   0.726   4.496   5.103 -1.6654  0.2789 -2.0667
  111OSM   C15F11485   0.701   4.338   4.953  0.6498 -0.5047  0.6726
  111OSM   H15F11486   0.676   4.230   4.948 -0.3527 -0.2531  0.0340
  111OSM   H15G11487   0.804   4.356   4.916  0.0001  0.2699 -0.8571
  111OSM   C16F11488   0.616   4.430   4.871  0.2495 -0.1662 -0.1886
  111OSM   H16F11489   0.634   4.537   4.892 -2.1265  0.0077  1.4070
  111OSM   H16G11490   0.512   4.407   4.902  0.2603  1.9414  1.6048
  111OSM   C17F11491   0.636   4.402   4.719 -0.0418  0.0092 -0.0528
  111OSM   H17F11492   0.611   4.295   4.703 -1.0718  0.4069 -1.3056
  111OSM   H17G11493   0.745   4.409   4.700  0.6944 -1.4835  2.9445
  111OSM   C18F11494   0.542   4.468   4.617  0.2907  0.0630 -0.4374
  111OSM   H18F11495   0.532   4.401   4.529 -0.0766  1.2568 -1.3409
  111OSM   H18G11496   0.579   4.565   4.576 -0.1007 -1.3932 -4.8057
  111OSM   H18H11497   0.438   4.482   4.653  0.1398 -1.5853 -0.1721
  112OSM      N11498   3.279   1.644   7.389 -0.2361  0.5056  0.3164
  112OSM    C1511499   3.391   1.688   7.298  0.2533 -0.3458 -0.9736
  112OSM   H15A11500   3.379   1.774   7.234  1.8283 -0.5201 -1.5567
  112OSM   H15B11501   3.409   1.615   7.221 -1.0262  0.3208 -1.9461
  112OSM   H15C11502   3.485   1.713   7.345  0.5013  0.0896 -1.6903
  112OSM    C1411503   3.181   1.564   7.314 -0.1454  0.3145 -0.8149
  112OSM   H14A11504   3.096   1.532   7.372  0.3149 -0.4471 -0.5438
  112OSM   H14B11505   3.207   1.474   7.260 -0.8744 -1.5311  1.6945
  112OSM   H14C11506   3.136   1.636   7.248 -0.4528  0.0728 -0.8726
  112OSM    C1311507   3.345   1.559   7.496  0.3641 -0.0344 -0.4514
  112OSM   H13A11508   3.372   1.461   7.459  0.7196 -0.5089  0.9867
  112OSM   H13B11509   3.276   1.529   7.573  0.5744 -5.1875 -1.8949
  112OSM   H13C11510   3.429   1.610   7.541  0.5387 -0.2265 -0.5539
  112OSM    C1211511   3.219   1.768   7.444 -0.2786 -0.8865 -0.7713
  112OSM   H12A11512   3.304   1.826   7.476  1.0870 -2.7793 -0.8181
  112OSM   H12B11513   3.170   1.747   7.538  0.9409 -2.0426 -0.3599
  112OSM    C1111514   3.125   1.858   7.366  0.5609  0.1287  0.2007
  112OSM   H11A11515   3.190   1.904   7.289 -1.2058  0.0731 -1.4201
  112OSM   H11B11516   3.088   1.941   7.431 -0.0959 -0.9846  1.2782
  112OSM      P11517   2.926   1.870   7.196 -0.4617 -0.0137  0.0807
  112OSM    O1311518   2.850   1.775   7.113  0.6173 -0.1014 -0.3989
  112OSM    O1411519   2.841   1.974   7.262 -0.2014 -0.0045  0.1415
  112OSM    O1111520   3.036   1.936   7.114  0.0941  0.4930  0.9098
  112OSM    O1211521   3.010   1.787   7.302  0.2044 -0.6715  0.0300
  112OSM    C1S11522   3.114   1.855   7.019 -0.5659  0.0044 -0.2639
  112OSM    H1S11523   3.057   1.768   6.979 -1.4658 -0.1482  1.2357
  112OSM    H1T11524   3.205   1.815   7.068 -0.7423  0.9081  0.8691
  112OSM     NF11525   3.214   1.836   6.795  0.0503 -0.0991  0.4812
  112OSM    HNF11526   3.301   1.862   6.754 -0.6586  1.4472 -0.1239
  112OSM    C2S11527   3.148   1.930   6.887 -0.7171 -0.1353  0.5167
  112OSM    H2S11528   3.064   1.981   6.833  0.2105 -1.9421 -2.9385
  112OSM    C3S11529   3.239   2.063   6.923 -0.0332  0.3519 -0.1330
  112OSM    H3S11530   3.343   2.029   6.942  0.0650  0.5772 -0.2485
  112OSM     O311531   3.205   2.134   7.043  0.2313 -0.3492 -0.0835
  112OSM    HO311532   3.134   2.081   7.080 -0.6656 -0.7246 -2.1577
  112OSM    C4S11533   3.240   2.155   6.810 -0.1962 -0.6481  0.2498
  112OSM    H4S11534   3.145   2.209   6.793 -0.6316 -1.0439  1.3504
  112OSM    C5S11535   3.353   2.176   6.734 -0.1232 -0.5826 -0.6905
  112OSM    H5S11536   3.451   2.131   6.755  0.2841  0.8610  0.6626
  112OSM    C6S11537   3.349   2.263   6.608 -0.0758  0.1245 -0.4172
  112OSM    H6S11538   3.379   2.198   6.523  1.0968 -0.4437  0.4123
  112OSM    H6T11539   3.426   2.342   6.619  1.1851 -1.0357 -0.6089
  112OSM    C7S11540   3.223   2.333   6.567  0.0236  0.3779  0.1835
  112OSM    H7S11541   3.184   2.405   6.643  0.7648  2.4946 -1.3495
  112OSM    H7T11542   3.138   2.268   6.537 -0.0665 -0.5261  2.1991
  112OSM    C8S11543   3.246   2.410   6.446  0.2648 -1.1166  0.5108
  112OSM    H8S11544   3.316   2.490   6.479 -1.2280 -0.4974  2.3882
  112OSM    H8T11545   3.154   2.456   6.403  1.2250 -1.5858 -2.2784
  112OSM    C9S11546   3.297   2.327   6.324 -0.6223  0.3014 -0.5626
  112OSM    H9S11547   3.241   2.231   6.326 -0.0396 -0.0377 -0.2779
  112OSM    H9T11548   3.406   2.307   6.326 -0.1230  2.6532  2.4223
  112OSM   C10S11549   3.286   2.404   6.193  0.9232 -0.1019  0.3135
  112OSM   H10S11550   3.347   2.496   6.186 -0.9899  1.2741  0.7411
  112OSM   H10T11551   3.177   2.422   6.180  0.7295 -1.7746 -0.5994
  112OSM   C11S11552   3.330   2.316   6.070 -0.1028  0.1990  0.1347
  112OSM   H11S11553   3.282   2.221   6.100  1.0566 -0.4389  0.0126
  112OSM   H11T11554   3.440   2.314   6.084 -0.1580  1.4560  0.8909
  112OSM   C12S11555   3.296   2.377   5.936  0.5811 -0.5993  0.2366
  112OSM   H12S11556   3.341   2.478   5.925 -2.2477  0.7226  0.0672
  112OSM   H12T11557   3.185   2.381   5.934  0.6329  1.1034 -0.7137
  112OSM   C13S11558   3.336   2.298   5.813  0.2625 -0.3152  0.1924
  112OSM   H13S11559   3.293   2.196   5.806  1.8920 -0.9664 -1.5889
  112OSM   H13T11560   3.447   2.284   5.811  0.2929 -0.0622 -0.2724
  112OSM   C14S11561   3.295   2.375   5.687 -0.5289  0.1125  0.1913
  112OSM   H14S11562   3.365   2.461   5.685 -0.4529  0.0514  0.2266
  112OSM   H14T11563   3.192   2.414   5.696 -0.7081 -0.1990 -0.4012
  112OSM   C15S11564   3.312   2.305   5.547 -0.2539  0.1678  0.2959
  112OSM   H15S11565   3.234   2.228   5.528  1.5186 -1.1572 -2.1156
  112OSM   H15T11566   3.410   2.255   5.535  0.0564  0.4105  1.6788
  112OSM   C16S11567   3.285   2.397   5.432  0.0671 -0.1696 -0.1425
  112OSM   H16S11568   3.303   2.345   5.335  0.1070 -1.0188  0.3161
  112OSM   H16T11569   3.351   2.486   5.443 -0.8319  0.4879 -0.0077
  112OSM   C17S11570   3.143   2.447   5.432  0.1708 -0.6411 -0.1749
  112OSM   H17S11571   3.129   2.499   5.529  3.6762 -1.6777  1.0457
  112OSM   H17T11572   3.078   2.357   5.428  0.4413 -0.8544  0.2038
  112OSM   C18S11573   3.106   2.558   5.326  0.1961 -0.3981  1.0220
  112OSM   H18S11574   3.000   2.588   5.340  0.3485  1.0884 -0.5785
  112OSM   H18T11575   3.115   2.513   5.225 -2.5171  0.3734  0.3477
  112OSM   H18U11576   3.175   2.645   5.338  0.8114 -0.5661 -0.8758
  112OSM    C1F11577   3.169   1.713   6.762  0.0563 -0.1970 -0.2390
  112OSM     OF11578   3.045   1.687   6.774  0.0892 -0.2399  0.3237
  112OSM    C2F11579   3.271   1.610   6.730  0.3059  0.2184 -0.4580
  112OSM    H2F11580   3.280   1.532   6.808 -0.0052  0.2518 -0.3858
  112OSM    H2G11581   3.370   1.661   6.725 -0.5515  2.5846  2.9158
  112OSM    C3F11582   3.236   1.533   6.598  0.8706 -0.2329 -0.3997
  112OSM    H3F11583   3.218   1.605   6.515  2.1045 -1.5996 -1.9051
  112OSM    H3G11584   3.147   1.469   6.616  0.5747  0.0923 -0.6881
  112OSM    C4F11585   3.358   1.465   6.548  0.2747  0.4308  0.1929
  112OSM    H4F11586   3.390   1.391   6.625 -0.5120 -1.6529 -1.3855
  112OSM    H4G11587   3.440   1.538   6.532 -0.0823  0.8271  0.1472
  112OSM    C5F11588   3.331   1.391   6.418 -0.2496  0.1415  0.1694
  112OSM    H5F11589   3.238   1.333   6.436 -0.6340  0.8200  0.3942
  112OSM    H5G11590   3.412   1.320   6.393 -1.4747 -2.2579  2.5050
  112OSM    C6F11591   3.305   1.481   6.301  0.9531 -0.2709 -0.5182
  112OSM    H6F11592   3.392   1.551   6.300  0.0670  0.9538  1.5363
  112OSM    H6G11593   3.212   1.539   6.320  0.3585 -1.6586  1.0214
  112OSM    C7F11594   3.294   1.410   6.167  0.4888  0.3312  0.0388
  112OSM    H7F11595   3.203   1.348   6.153  0.1079  0.3790  2.0425
  112OSM    H7G11596   3.374   1.334   6.150 -0.2896 -0.7375  1.0093
  112OSM    C8F11597   3.304   1.508   6.052  0.1523 -0.1957 -0.5958
  112OSM    H8F11598   3.384   1.582   6.075 -0.3404 -0.0646  0.7456
  112OSM    H8G11599   3.217   1.571   6.079  2.2821  2.1900  1.1450
  112OSM    C9F11600   3.310   1.442   5.914  0.1714  0.1228  0.2928
  112OSM    H9F11601   3.235   1.362   5.908  1.6594 -1.2915  0.1114
  112OSM   C10F11602   3.397   1.450   5.814 -0.7126  0.3636  0.1357
  112OSM   H10F11603   3.373   1.400   5.719  1.2287  1.6798 -1.1001
  112OSM   C11F11604   3.517   1.543   5.813  0.0889 -0.6299 -0.0553
  112OSM   H11F11605   3.495   1.630   5.878 -1.6911  0.2961 -1.7848
  112OSM   H11G11606   3.532   1.580   5.709 -0.6228  0.8805  0.3570
  112OSM   C12F11607   3.638   1.475   5.875  0.2816 -0.2777  0.6310
  112OSM   H12F11608   3.609   1.433   5.973  1.8317 -2.0235  0.3993
  112OSM   H12G11609   3.717   1.552   5.883  0.8976 -0.6994 -0.9669
  112OSM   C13F11610   3.682   1.347   5.799  0.2247 -0.4463 -0.2787
  112OSM   H13F11611   3.609   1.264   5.808  1.7962 -1.7973  0.4269
  112OSM   H13G11612   3.772   1.314   5.855  0.4197  0.7359  0.1431
  112OSM   C14F11613   3.723   1.371   5.649  0.0466  0.3213 -0.1080
  112OSM   H14F11614   3.631   1.391   5.590 -0.8094 -1.2073  0.6505
  112OSM   H14G11615   3.752   1.271   5.611  0.7747 -0.4394  2.3118
  112OSM   C15F11616   3.841   1.470   5.626  0.4561  0.4384 -0.6530
  112OSM   H15F11617   3.939   1.435   5.665  0.6995  1.7571 -0.0072
  112OSM   H15G11618   3.815   1.567   5.673  2.3474  0.3607  0.6700
  112OSM   C16F11619   3.869   1.484   5.479 -0.0621  0.4997 -0.4620
  112OSM   H16F11620   3.837   1.387   5.435 -2.2226 -0.1485  2.1922
  112OSM   H16G11621   3.977   1.491   5.456  0.4318 -2.6833  0.3364
  112OSM   C17F11622   3.801   1.604   5.418 -0.2559 -0.6979  0.1126
  112OSM   H17F11623   3.833   1.698   5.469 -0.4681 -0.4572 -0.1927
  112OSM   H17G11624   3.691   1.601   5.430 -0.6251  4.1256 -0.0973
  112OSM   C18F11625   3.836   1.614   5.264 -0.5794  0.0814  0.2709
  112OSM   H18F11626   3.824   1.718   5.226 -0.5190 -0.0067  0.0089
  112OSM   H18G11627   3.766   1.543   5.215  0.0409 -1.9011  2.1399
  112OSM   H18H11628   3.938   1.571   5.253 -0.7412 -1.2460  3.2312
  113OSM      N11629   6.499   0.971   6.359 -0.0930 -0.0204 -0.2663
  113OSM    C1511630   6.397   1.013   6.459 -0.0380 -0.6585  0.0778
  113OSM   H15A11631   6.304   1.024   6.405  1.0195  1.0335 -1.5155
  113OSM   H15B11632   6.417   1.112   6.496 -1.4523  0.7869 -2.7470
  113OSM   H15C11633   6.381   0.945   6.541 -2.9525 -0.2558 -0.0363
  113OSM    C1411634   6.463   0.858   6.282  0.0953  0.2072 -0.2285
  113OSM   H14A11635   6.377   0.878   6.221  0.7436 -1.1083 -1.6506
  113OSM   H14B11636   6.455   0.766   6.339  5.4199  0.0771  0.8381
  113OSM   H14C11637   6.545   0.828   6.217  0.3988 -1.3016  0.7884
  113OSM    C1311638   6.508   1.088   6.270  0.3690  0.3894  0.3051
  113OSM   H13A11639   6.572   1.161   6.316  1.2063 -0.6358  0.8189
  113OSM   H13B11640   6.409   1.130   6.256 -0.1774 -0.5176  1.2531
  113OSM   H13C11641   6.541   1.068   6.169 -1.5000 -0.5796 -0.1740
  113OSM    C1211642   6.633   0.945   6.428 -0.6313 -0.2477 -0.7044
  113OSM   H12A11643   6.704   0.909   6.355  1.6920  1.2262  0.6764
  113OSM   H12B11644   6.620   0.862   6.496 -4.6664  1.6040  1.1002
  113OSM    C1111645   6.695   1.060   6.508 -0.1543 -0.0526 -0.0909
  113OSM   H11A11646   6.785   1.008   6.546  1.0829  1.1140 -1.2912
  113OSM   H11B11647   6.633   1.088   6.596  0.2029  0.8085 -0.0965
  113OSM      P11648   6.872   1.208   6.386  0.3040  0.1624 -0.2727
  113OSM    O1311649   6.934   1.266   6.509 -0.1379  0.3991 -0.3118
  113OSM    O1411650   6.941   1.098   6.318 -0.4202  0.2854  0.3423
  113OSM    O1111651   6.853   1.328   6.286 -0.6106 -0.4665  0.0111
  113OSM    O1211652   6.725   1.169   6.422  0.2668  0.2418  0.5281
  113OSM    C1S11653   6.771   1.310   6.172 -0.3991  0.4286  0.0355
  113OSM    H1S11654   6.668   1.288   6.206  0.0742 -0.2901  1.0591
  113OSM    H1T11655   6.796   1.226   6.104 -0.9789  1.0768 -1.0120
  113OSM     NF11656   6.700   1.416   5.965 -0.7086 -0.3918  0.1841
  113OSM    HNF11657   6.760   1.388   5.891  0.2353 -1.7150  1.3970
  113OSM    C2S11658   6.775   1.440   6.087 -0.0406 -0.2109  0.2008
  113OSM    H2S11659   6.715   1.515   6.143  1.4590  0.4714  0.9471
  113OSM    C3S11660   6.918   1.504   6.067 -0.4173 -0.4051 -0.4501
  113OSM    H3S11661   6.974   1.457   5.984  0.5594 -0.2374  0.0996
  113OSM     O311662   7.004   1.503   6.182 -0.2918 -0.7117  0.0072
  113OSM    HO311663   6.952   1.452   6.245 -1.3469  0.2297 -0.0555
  113OSM    C4S11664   6.895   1.651   6.017  0.1594 -0.2212  0.5307
  113OSM    H4S11665   6.900   1.655   5.907 -0.5400  1.9518  0.5296
  113OSM    C5S11666   6.903   1.772   6.078  0.6641  0.3530  0.4039
  113OSM    H5S11667   6.914   1.775   6.187  0.1041 -0.5904  0.4902
  113OSM    C6S11668   6.905   1.905   6.010 -0.0391  0.3418  0.2241
  113OSM    H6S11669   6.970   1.973   6.069 -0.8799 -0.8651  2.6556
  113OSM    H6T11670   6.809   1.961   6.010  0.0696  0.5301  0.7717
  113OSM    C7S11671   6.933   1.900   5.862 -0.5290 -0.3134  0.2575
  113OSM    H7S11672   6.870   1.830   5.804  0.3847  0.2073 -1.4255
  113OSM    H7T11673   7.037   1.866   5.846 -0.2688  0.4664  0.2615
  113OSM    C8S11674   6.912   2.029   5.778  0.1833 -0.1823 -0.1530
  113OSM    H8S11675   6.968   2.113   5.826  0.1933  0.8761 -1.9523
  113OSM    H8T11676   6.807   2.064   5.775  0.6492  1.3178  0.0995
  113OSM    C9S11677   6.966   2.008   5.635 -0.8579 -0.5932  0.7466
  113OSM    H9S11678   6.930   1.907   5.606 -1.3946 -1.5849  4.3311
  113OSM    H9T11679   7.077   2.005   5.630 -0.5166 -0.5094  4.7994
  113OSM   C10S11680   6.903   2.104   5.532  0.5464 -0.8380  0.1334
  113OSM   H10S11681   6.914   2.209   5.565  1.4027 -1.1772  1.0003
  113OSM   H10T11682   6.795   2.080   5.528  0.7286 -1.6613 -0.1533
  113OSM   C11S11683   6.971   2.099   5.392  0.2914  0.1408  0.4956
  113OSM   H11S11684   6.991   1.992   5.370 -1.2122 -0.5590  2.2970
  113OSM   H11T11685   7.063   2.162   5.392 -0.4892  1.3275  0.1973
  113OSM   C12S11686   6.867   2.155   5.291  0.9242  0.2260 -0.1608
  113OSM   H12S11687   6.839   2.254   5.333 -0.0248  0.6488 -1.7101
  113OSM   H12T11688   6.787   2.078   5.298  2.1057 -1.0772 -0.5539
  113OSM   C13S11689   6.926   2.149   5.142 -0.6480 -0.3681  0.4158
  113OSM   H13S11690   6.988   2.058   5.133 -1.5737 -0.9696 -0.0067
  113OSM   H13T11691   6.987   2.237   5.112 -0.4340 -1.3714 -2.4676
  113OSM   C14S11692   6.798   2.176   5.053 -0.4841  0.0344 -0.6451
  113OSM   H14S11693   6.764   2.278   5.080  1.2423  0.2706  0.8342
  113OSM   H14T11694   6.720   2.103   5.082 -0.5932  0.2436 -0.4132
  113OSM   C15S11695   6.812   2.169   4.902 -0.5120  0.0271 -0.0774
  113OSM   H15S11696   6.865   2.075   4.878  1.7650  0.6031  2.2115
  113OSM   H15T11697   6.874   2.258   4.879 -4.8188  3.5223  0.4713
  113OSM   C16S11698   6.679   2.195   4.823 -0.2170  0.1943  0.6755
  113OSM   H16S11699   6.660   2.303   4.841  0.5495  0.5566 -0.5981
  113OSM   H16T11700   6.600   2.137   4.876  0.4093 -1.0262  0.2993
  113OSM   C17S11701   6.675   2.161   4.672  0.8291 -0.0783 -0.4545
  113OSM   H17S11702   6.733   2.066   4.665  1.4388  0.2189  0.3844
  113OSM   H17T11703   6.732   2.244   4.624 -3.2019  2.7474 -0.8169
  113OSM   C18S11704   6.541   2.145   4.594 -0.1448  0.0096 -0.0281
  113OSM   H18S11705   6.495   2.046   4.615  0.6585 -0.4737 -0.5045
  113OSM   H18T11706   6.568   2.147   4.487  1.4704 -1.6059  0.3034
  113OSM   H18U11707   6.477   2.230   4.627  1.2489  1.2546 -0.4223
  113OSM    C1F11708   6.570   1.392   5.954 -0.7584  0.0694 -0.3007
  113OSM     OF11709   6.497   1.401   6.050 -0.2470  0.3161 -0.4408
  113OSM    C2F11710   6.540   1.333   5.818  0.7267 -0.4196  0.6640
  113OSM    H2F11711   6.590   1.234   5.812  1.6865  0.0819  0.0310
  113OSM    H2G11712   6.585   1.402   5.743 -0.4645 -1.1220 -0.7724
  113OSM    C3F11713   6.387   1.326   5.802  0.7401  0.2878 -0.6620
  113OSM    H3F11714   6.354   1.433   5.801 -1.1513 -0.2555 -1.4891
  113OSM    H3G11715   6.351   1.258   5.883  0.6528 -0.6726 -1.4905
  113OSM    C4F11716   6.328   1.251   5.687  0.3023 -0.4280  0.0398
  113OSM    H4F11717   6.217   1.247   5.684  0.2925  0.0954 -0.2675
  113OSM    H4G11718   6.373   1.150   5.694  0.3435 -0.4144 -0.0344
  113OSM    C5F11719   6.395   1.310   5.560 -0.0159 -0.4334 -0.1510
  113OSM    H5F11720   6.500   1.273   5.563 -0.3599 -1.3834  0.7572
  113OSM    H5G11721   6.404   1.420   5.570  1.5554 -0.3631 -1.7680
  113OSM    C6F11722   6.324   1.257   5.438 -0.9187  0.2144  0.0306
  113OSM    H6F11723   6.215   1.275   5.442 -0.4831  3.3721 -0.2624
  113OSM    H6G11724   6.335   1.146   5.446  0.6986  0.1568 -2.0659
  113OSM    C7F11725   6.373   1.298   5.296  0.1269 -0.2919  0.3639
  113OSM    H7F11726   6.329   1.393   5.259  3.9804  0.8130 -1.9698
  113OSM    H7G11727   6.351   1.218   5.223  2.0262  1.2009 -1.9601
  113OSM    C8F11728   6.523   1.328   5.282 -0.4911 -0.0219 -0.6104
  113OSM    H8F11729   6.570   1.238   5.326 -0.4082 -0.8777 -2.3883
  113OSM    H8G11730   6.561   1.411   5.347 -1.2163  1.2746 -1.7935
  113OSM    C9F11731   6.574   1.360   5.143 -0.0941 -0.8031 -0.4751
  113OSM    H9F11732   6.601   1.465   5.125 -0.8652 -0.5566 -0.2220
  113OSM   C10F11733   6.602   1.277   5.051  0.5244  0.0626 -0.2797
  113OSM   H10F11734   6.631   1.312   4.950 -1.2497 -0.0536 -0.8708
  113OSM   C11F11735   6.584   1.131   5.049  0.2027  0.4215 -0.2339
  113OSM   H11F11736   6.525   1.095   4.962  1.3902  0.9373 -1.2794
  113OSM   H11G11737   6.522   1.108   5.138  1.0693 -2.4386 -0.2854
  113OSM   C12F11738   6.712   1.048   5.080 -1.1829 -0.2627  0.3396
  113OSM   H12F11739   6.702   0.938   5.083 -2.2271 -0.2024 -0.5108
  113OSM   H12G11740   6.766   1.075   5.174  1.7083 -1.5842 -0.8090
  113OSM   C13F11741   6.825   1.064   4.971  0.1802 -0.2811 -0.5271
  113OSM   H13F11742   6.908   1.003   5.011  0.7758  1.3735  0.8894
  113OSM   H13G11743   6.860   1.170   4.977 -1.6086  0.2824  1.1779
  113OSM   C14F11744   6.789   1.031   4.828  0.3273  0.1720  0.0086
  113OSM   H14F11745   6.739   1.109   4.766 -0.5830 -0.2183  0.2400
  113OSM   H14G11746   6.720   0.945   4.816 -1.2352  1.5260 -1.2014
  113OSM   C15F11747   6.909   0.997   4.744 -0.3221  0.1397  0.2847
  113OSM   H15F11748   6.971   0.922   4.797 -1.9195 -1.0459  0.5510
  113OSM   H15G11749   6.966   1.088   4.716 -1.0461  0.6743  0.5050
  113OSM   C16F11750   6.871   0.924   4.611 -0.0578  0.1331 -0.0598
  113OSM   H16F11751   6.829   0.825   4.637 -2.8870  1.1380 -0.4304
  113OSM   H16G11752   6.969   0.905   4.562 -0.5595 -0.0962 -0.9870
  113OSM   C17F11753   6.787   0.999   4.508 -0.3619 -0.0003  0.1194
  113OSM   H17F11754   6.846   1.089   4.482  0.5669 -1.3033 -2.6484
  113OSM   H17G11755   6.688   1.028   4.549  0.7422  1.0950  2.1863
  113OSM   C18F11756   6.745   0.935   4.372  0.2582 -0.0789 -0.6836
  113OSM   H18F11757   6.719   0.829   4.387 -1.2244  0.4345  0.5994
  113OSM   H18G11758   6.830   0.931   4.301 -1.8987 -3.7420 -3.3343
  113OSM   H18H11759   6.665   0.988   4.317 -1.1959 -3.5077 -2.1370
  114OSM      N11760   6.098   0.639   6.702 -0.0809  0.1264 -0.1518
  114OSM    C1511761   6.138   0.500   6.730 -0.2844  0.1563 -0.4391
  114OSM   H15A11762   6.106   0.478   6.830 -2.1595 -0.2352 -1.0859
  114OSM   H15B11763   6.246   0.495   6.731 -0.2764  0.3698  0.3549
  114OSM   H15C11764   6.091   0.431   6.661 -2.5182  0.4557  0.7135
  114OSM    C1411765   5.948   0.652   6.710 -0.6222 -0.6523 -1.1738
  114OSM   H14A11766   5.912   0.577   6.641 -0.1382 -0.3185 -1.7936
  114OSM   H14B11767   5.914   0.753   6.691  1.4473  0.1935 -0.6428
  114OSM   H14C11768   5.922   0.631   6.813 -3.4755  3.2773 -0.8197
  114OSM    C1311769   6.168   0.724   6.797  0.1744 -0.2070  0.0646
  114OSM   H13A11770   6.271   0.738   6.772  0.6263  1.8284  2.5592
  114OSM   H13B11771   6.155   0.701   6.902  0.1801  1.5185  0.4869
  114OSM   H13C11772   6.125   0.823   6.785 -1.6610 -0.6809  1.9960
  114OSM    C1211773   6.140   0.684   6.567  0.0992 -0.0764  0.1800
  114OSM   H12A11774   6.247   0.697   6.557 -0.2049  0.8313 -2.6211
  114OSM   H12B11775   6.085   0.772   6.538 -1.6960 -1.2805 -0.1465
  114OSM    C1111776   6.104   0.590   6.447 -0.3440 -0.0766 -0.2813
  114OSM   H11A11777   6.158   0.495   6.463  1.5685  0.7885 -1.2175
  114OSM   H11B11778   6.161   0.645   6.369 -0.2801  0.9993  0.4905
  114OSM      P11779   5.866   0.671   6.350  0.0448 -0.1813 -0.0125
  114OSM    O1311780   5.734   0.609   6.359 -0.0461 -0.0830 -0.5845
  114OSM    O1411781   5.870   0.808   6.398  0.0191 -0.1204 -0.3255
  114OSM    O1111782   5.931   0.666   6.209  1.0196  0.5150 -0.4828
  114OSM    O1211783   5.965   0.580   6.435  1.0125 -0.0762  0.2126
  114OSM    C1S11784   5.985   0.552   6.149 -0.0490  0.4047  1.0910
  114OSM    H1S11785   5.952   0.459   6.200 -0.1740  0.7991  1.7292
  114OSM    H1T11786   6.095   0.548   6.136 -0.1531 -1.2534  0.3776
  114OSM     NF11787   5.951   0.395   5.952 -0.1043 -0.4090 -0.2595
  114OSM    HNF11788   6.020   0.373   5.883 -1.6871 -1.1662 -1.6841
  114OSM    C2S11789   5.936   0.532   6.002  0.3622  0.6546  0.2449
  114OSM    H2S11790   5.827   0.552   5.995 -0.1681 -2.0055  0.1256
  114OSM    C3S11791   6.004   0.633   5.906  0.1031  0.5074 -0.4759
  114OSM    H3S11792   6.110   0.601   5.897  0.0061 -0.4553  1.3199
  114OSM     O311793   6.008   0.770   5.953 -0.0830  0.1046  0.3512
  114OSM    HO311794   5.961   0.777   6.036  0.2196 -0.1751  0.5514
  114OSM    C4S11795   5.948   0.651   5.769  0.2616 -0.6553  0.8766
  114OSM    H4S11796   5.863   0.720   5.755  0.3081 -1.0283 -1.7719
  114OSM    C5S11797   6.006   0.603   5.656 -0.1543  0.4708  0.0132
  114OSM    H5S11798   6.093   0.537   5.661 -2.3590 -2.6879 -0.4706
  114OSM    C6S11799   5.956   0.650   5.524  0.1366 -0.3863  0.5698
  114OSM    H6S11800   6.044   0.684   5.466 -1.7327  0.5477 -1.8707
  114OSM    H6T11801   5.886   0.736   5.518 -0.5568 -0.8589  1.5396
  114OSM    C7S11802   5.901   0.539   5.435 -0.3450 -0.3738  0.7448
  114OSM    H7S11803   5.854   0.584   5.345  0.6727  1.1906  0.9653
  114OSM    H7T11804   5.830   0.474   5.491 -1.4339  1.4836  1.6317
  114OSM    C8S11805   6.010   0.442   5.382  0.4341 -0.1373  0.2495
  114OSM    H8S11806   6.040   0.397   5.479 -1.1060  0.5781  1.0948
  114OSM    H8T11807   6.105   0.491   5.351  0.2324  0.2333  0.2158
  114OSM    C9S11808   5.960   0.330   5.292 -0.5346  0.4331 -0.3114
  114OSM    H9S11809   5.955   0.364   5.187 -1.2147  0.1849 -0.3631
  114OSM    H9T11810   5.856   0.309   5.326  0.6587 -1.8165  2.4140
  114OSM   C10S11811   6.036   0.195   5.316  0.2433 -0.0435 -0.5431
  114OSM   H10S11812   6.012   0.179   5.423  1.6345  0.0268 -0.1961
  114OSM   H10T11813   6.144   0.189   5.289  0.5308 -0.3939  0.6081
  114OSM   C11S11814   5.971   0.098   5.225  0.1741  0.1233 -0.1228
  114OSM   H11S11815   6.019   0.117   5.127 -0.9228  2.0964 -0.3283
  114OSM   H11T11816   5.862   0.119   5.219  0.3433  1.9274  1.7800
  114OSM   C12S11817   5.983  -0.043   5.272 -0.0658 -0.1992  0.9133
  114OSM   H12S11818   6.080  -0.065   5.321  0.1476  0.7435  0.9226
  114OSM   H12T11819   5.970  -0.106   5.181  1.4182  0.6802  0.0462
  114OSM   C13S11820   5.874  -0.101   5.367 -0.2212 -0.0400 -0.5471
  114OSM   H13S11821   5.769  -0.081   5.338 -0.5000 -0.0258  0.4390
  114OSM   H13T11822   5.881  -0.032   5.454  0.7329  2.3635 -2.4059
  114OSM   C14S11823   5.912  -0.251   5.383  0.4639  0.7865 -0.1407
  114OSM   H14S11824   6.020  -0.259   5.360  0.1765  1.6270 -1.9188
  114OSM   H14T11825   5.856  -0.320   5.317  0.6940  0.0377  0.4315
  114OSM   C15S11826   5.879  -0.288   5.525  0.7145  0.4700  0.1542
  114OSM   H15S11827   5.768  -0.285   5.535  0.6708  0.5987 -0.3604
  114OSM   H15T11828   5.918  -0.211   5.595 -0.9173  0.0534  1.5986
  114OSM   C16S11829   5.916  -0.430   5.579 -0.4442 -0.1616  0.5643
  114OSM   H16S11830   6.022  -0.452   5.553 -0.3412 -0.7705  1.4457
  114OSM   H16T11831   5.846  -0.498   5.527 -1.2953  0.6116  0.6770
  114OSM   C17S11832   5.903  -0.435   5.728  0.9730  0.2575 -0.8091
  114OSM   H17S11833   5.799  -0.431   5.767  2.1446  2.6762  2.5385
  114OSM   H17T11834   5.962  -0.353   5.775  0.3402 -0.0414  0.5634
  114OSM   C18S11835   5.964  -0.566   5.794 -0.2195  0.4730 -0.2785
  114OSM   H18S11836   5.908  -0.661   5.783 -0.9230  0.4394  2.7105
  114OSM   H18T11837   5.965  -0.541   5.902  1.0039 -2.6162  0.5434
  114OSM   H18U11838   6.074  -0.577   5.781  0.2236  1.1203  2.2787
  114OSM    C1F11839   5.881   0.288   5.998 -0.6606 -0.0653  0.1382
  114OSM     OF11840   5.811   0.285   6.098  0.0159 -0.1423 -0.0073
  114OSM    C2F11841   5.902   0.165   5.919  0.2186  0.3358 -0.2718
  114OSM    H2F11842   5.910   0.088   5.998  3.2612  0.2686 -0.5265
  114OSM    H2G11843   6.002   0.166   5.870 -0.3008  1.2226 -1.3719
  114OSM    C3F11844   5.789   0.139   5.815 -0.1724  0.0827 -0.6165
  114OSM    H3F11845   5.690   0.152   5.864 -1.1412  1.2199 -2.7320
  114OSM    H3G11846   5.798   0.035   5.777 -1.3868  0.2819 -1.4901
  114OSM    C4F11847   5.793   0.240   5.700  0.4253 -0.1651 -0.2664
  114OSM    H4F11848   5.894   0.272   5.667  0.6513 -1.4654 -0.9188
  114OSM    H4G11849   5.747   0.334   5.735 -2.0732 -0.9944 -1.0994
  114OSM    C5F11850   5.716   0.202   5.574  0.2493 -0.3780  0.0559
  114OSM    H5F11851   5.739   0.098   5.545  0.2720 -1.0851  2.3901
  114OSM    H5G11852   5.739   0.264   5.485 -0.7047 -0.6228 -0.3725
  114OSM    C6F11853   5.563   0.208   5.575 -0.2428 -0.8909  0.9023
  114OSM    H6F11854   5.533   0.291   5.644 -3.0871 -0.1967 -1.0316
  114OSM    H6G11855   5.536   0.111   5.620  1.9269 -1.4886  1.0432
  114OSM    C7F11856   5.492   0.227   5.440  0.0202  0.1061  0.0656
  114OSM    H7F11857   5.388   0.191   5.428 -0.8311  2.4567 -0.1086
  114OSM    H7G11858   5.545   0.181   5.354  1.3019  1.7434 -0.0659
  114OSM    C8F11859   5.471   0.374   5.430 -0.2886  0.3577 -0.5241
  114OSM    H8F11860   5.574   0.415   5.420 -0.0481 -0.5688 -2.3124
  114OSM    H8G11861   5.416   0.409   5.520 -2.4323 -1.6950 -0.9456
  114OSM    C9F11862   5.384   0.397   5.308  0.0611  0.5174  0.0642
  114OSM    H9F11863   5.278   0.367   5.319 -0.5283  2.7941  1.1814
  114OSM   C10F11864   5.415   0.447   5.192 -0.0661 -0.2221  0.4334
  114OSM   H10F11865   5.336   0.453   5.115  0.3447  1.7165  0.1187
  114OSM   C11F11866   5.547   0.497   5.148 -0.6333  0.0800 -0.3102
  114OSM   H11F11867   5.624   0.434   5.197 -0.7211 -0.3583 -0.7248
  114OSM   H11G11868   5.568   0.604   5.164  2.2038 -0.2268 -1.5220
  114OSM   C12F11869   5.579   0.468   5.003  0.3512 -0.0101  0.2274
  114OSM   H12F11870   5.553   0.362   4.986  1.5656 -0.2570 -0.1763
  114OSM   H12G11871   5.687   0.470   4.981  0.3568 -0.2556  0.2314
  114OSM   C13F11872   5.503   0.560   4.906  0.1839 -0.4796  0.3868
  114OSM   H13F11873   5.552   0.658   4.923  2.0168 -1.7010  2.5590
  114OSM   H13G11874   5.397   0.566   4.939 -0.1625 -0.7046 -0.6201
  114OSM   C14F11875   5.522   0.536   4.758  0.6689  0.2159  1.0728
  114OSM   H14F11876   5.624   0.498   4.740  0.6437  1.4740 -2.2837
  114OSM   H14G11877   5.517   0.631   4.702 -0.6693 -0.8111 -0.6772
  114OSM   C15F11878   5.413   0.457   4.690  0.6457 -0.2305 -0.0968
  114OSM   H15F11879   5.321   0.508   4.724  1.1767  0.9201 -0.3521
  114OSM   H15G11880   5.416   0.355   4.735  2.1796 -0.2148 -0.1154
  114OSM   C16F11881   5.403   0.449   4.538 -0.2305 -0.6936 -0.2407
  114OSM   H16F11882   5.392   0.551   4.497 -1.5510  0.3916  2.5727
  114OSM   H16G11883   5.314   0.387   4.513 -0.7265  0.0191 -0.2588
  114OSM   C17F11884   5.518   0.387   4.463 -0.2533 -0.2493  0.9943
  114OSM   H17F11885   5.606   0.455   4.466  1.2015 -1.9791 -0.2912
  114OSM   H17G11886   5.478   0.382   4.359  1.6355  0.9591  0.1579
  114OSM   C18F11887   5.570   0.252   4.491 -0.0918  0.6466  0.1533
  114OSM   H18F11888   5.494   0.178   4.458  1.1716 -1.0484  0.9127
  114OSM   H18G11889   5.592   0.220   4.595  2.3856 -1.2370 -0.8368
  114OSM   H18H11890   5.658   0.242   4.424  0.7352  2.8772  0.8148
  115OSM      N11891   5.923   2.706   6.830  0.6054 -0.5922  0.7180
  115OSM    C1511892   5.916   2.645   6.968 -0.0995  0.2531  0.6131
  115OSM   H15A11893   5.916   2.537   6.959  0.1282  0.2540  0.5829
  115OSM   H15B11894   5.825   2.680   7.013  0.2246  1.2412  0.5170
  115OSM   H15C11895   6.002   2.674   7.028  1.1818  1.2737 -1.5852
  115OSM    C1411896   6.037   2.651   6.752 -0.3672 -0.7533 -0.4689
  115OSM   H14A11897   6.018   2.551   6.716  1.8001 -0.1900 -3.5224
  115OSM   H14B11898   6.126   2.656   6.814 -1.7134 -2.7448  1.8084
  115OSM   H14C11899   6.052   2.711   6.664  0.5104 -0.8626 -0.4025
  115OSM    C1311900   5.794   2.685   6.754 -0.0459 -0.1013 -1.0342
  115OSM   H13A11901   5.709   2.734   6.798  0.6464  0.6574 -0.4955
  115OSM   H13B11902   5.766   2.584   6.728  0.9505 -0.1658 -1.8951
  115OSM   H13C11903   5.797   2.718   6.652  1.0620  0.5718 -0.8030
  115OSM    C1211904   5.943   2.861   6.845 -0.7490 -0.5500 -0.0933
  115OSM   H12A11905   6.033   2.882   6.902 -2.2288  1.5742  1.6518
  115OSM   H12B11906   5.872   2.906   6.912  1.7786  3.2833  0.3333
  115OSM    C1111907   5.942   2.951   6.717  0.4876  0.2342 -1.3204
  115OSM   H11A11908   5.913   3.053   6.748  0.6897  0.5623 -2.1675
  115OSM   H11B11909   5.857   2.914   6.656  0.6254 -0.0041 -1.3720
  115OSM      P11910   6.200   3.009   6.703 -0.0213  0.5695 -0.3273
  115OSM    O1311911   6.156   3.114   6.798 -0.5316 -0.0654  0.0630
  115OSM    O1411912   6.294   2.913   6.757  0.0801 -0.2199 -0.0198
  115OSM    O1111913   6.268   3.085   6.587 -0.6953  0.0057  0.7852
  115OSM    O1211914   6.067   2.937   6.644 -0.7144  0.7346  0.4202
  115OSM    C1S11915   6.310   3.022   6.464  0.4072  0.0514  0.6021
  115OSM    H1S11916   6.289   2.913   6.464 -1.0773  0.3094  0.8281
  115OSM    H1T11917   6.420   3.036   6.463  0.1562  2.8592 -1.3307
  115OSM     NF11918   6.284   3.013   6.224 -0.0703  0.5543  0.2890
  115OSM    HNF11919   6.341   3.048   6.149  1.9197 -1.0038  0.9641
  115OSM    C2S11920   6.256   3.099   6.336  0.1834  1.0334  0.1134
  115OSM    H2S11921   6.146   3.099   6.345  0.1723 -0.9122  0.5597
  115OSM    C3S11922   6.304   3.243   6.325 -0.4410 -0.7756 -0.5138
  115OSM    H3S11923   6.408   3.236   6.289 -0.2514 -0.5611 -0.0174
  115OSM     O311924   6.304   3.325   6.452  0.0292  0.1920 -0.0279
  115OSM    HO311925   6.283   3.255   6.515  1.4257 -0.8268 -0.6350
  115OSM    C4S11926   6.243   3.325   6.215 -0.1091 -0.3625  0.2773
  115OSM    H4S11927   6.289   3.321   6.115 -0.2197  2.5871  0.0229
  115OSM    C5S11928   6.121   3.391   6.229  0.1401 -1.1242 -0.0423
  115OSM    H5S11929   6.074   3.393   6.328 -1.7756 -0.7473 -0.9159
  115OSM    C6S11930   6.048   3.464   6.125 -0.4522 -0.6027 -0.0120
  115OSM    H6S11931   6.033   3.569   6.156  0.9506  0.0002 -1.2645
  115OSM    H6T11932   5.949   3.418   6.101 -0.9018 -0.0024  0.6389
  115OSM    C7S11933   6.123   3.475   5.989 -0.2786  0.3037  0.4978
  115OSM    H7S11934   6.141   3.374   5.946 -1.6232 -0.3732  1.4519
  115OSM    H7T11935   6.220   3.529   6.001 -1.0719  1.7743  0.4644
  115OSM    C8S11936   6.051   3.548   5.880  0.6133  0.1441  0.0536
  115OSM    H8S11937   6.064   3.656   5.899  1.0326 -0.2572  2.3831
  115OSM    H8T11938   5.943   3.522   5.887  0.8514 -0.6911  0.9293
  115OSM    C9S11939   6.113   3.538   5.734  0.0040 -0.9127 -0.5243
  115OSM    H9S11940   6.117   3.429   5.712 -1.2704 -0.5766 -2.8328
  115OSM    H9T11941   6.215   3.582   5.730  1.9250 -4.8915 -0.0638
  115OSM   C10S11942   6.032   3.604   5.621 -0.3346  0.5894 -0.3478
  115OSM   H10S11943   6.038   3.715   5.620 -0.9617  0.6295 -1.3146
  115OSM   H10T11944   5.927   3.567   5.619 -0.0148 -0.3344 -0.9613
  115OSM   C11S11945   6.103   3.561   5.488 -0.2835  0.1752 -0.3077
  115OSM   H11S11946   6.100   3.452   5.466 -0.4812 -0.1593  1.2343
  115OSM   H11T11947   6.209   3.593   5.491 -0.2304  0.0469 -0.8026
  115OSM   C12S11948   6.030   3.623   5.360 -0.3296 -0.6350  0.8426
  115OSM   H12S11949   6.024   3.734   5.371 -0.1366 -0.8008  3.2877
  115OSM   H12T11950   5.927   3.582   5.353  0.0436 -1.4388 -0.0956
  115OSM   C13S11951   6.105   3.593   5.224  0.2745 -1.0203 -0.5676
  115OSM   H13S11952   6.147   3.491   5.233 -1.6464 -1.9884 -1.7690
  115OSM   H13T11953   6.184   3.670   5.210  0.1379 -0.7650  0.0529
  115OSM   C14S11954   6.006   3.602   5.104  0.3856 -0.3334  0.4922
  115OSM   H14S11955   5.911   3.549   5.128 -0.9996  1.9673  0.4203
  115OSM   H14T11956   6.056   3.559   5.014 -0.8216  0.1170 -0.4353
  115OSM   C15S11957   5.969   3.745   5.061  0.3928 -0.3889 -0.0253
  115OSM   H15S11958   6.055   3.815   5.055 -1.2986  2.0540  1.8000
  115OSM   H15T11959   5.903   3.792   5.138  1.0417 -0.9610  0.9049
  115OSM   C16S11960   5.903   3.747   4.923 -0.4703  0.4463  0.1798
  115OSM   H16S11961   5.968   3.707   4.843  1.5025 -0.0902  1.9626
  115OSM   H16T11962   5.883   3.853   4.895  0.6150  0.5770 -0.1393
  115OSM   C17S11963   5.771   3.678   4.914  0.5003 -0.2797  0.3703
  115OSM   H17S11964   5.702   3.739   4.976  0.0233 -0.0174 -0.4024
  115OSM   H17T11965   5.775   3.575   4.956  1.0862 -0.2006  0.5262
  115OSM   C18S11966   5.711   3.660   4.778  0.0919 -0.0304 -0.1640
  115OSM   H18S11967   5.668   3.758   4.747 -1.8619 -0.2589  1.5992
  115OSM   H18T11968   5.627   3.586   4.780 -0.6216  0.7698  0.2064
  115OSM   H18U11969   5.794   3.625   4.713 -0.0140  1.5915 -1.2183
  115OSM    C1F11970   6.219   2.899   6.199 -0.4627 -0.1358  0.0624
  115OSM     OF11971   6.145   2.855   6.282  0.1197 -0.9213  0.5583
  115OSM    C2F11972   6.250   2.847   6.070  1.1953  0.0248  0.5881
  115OSM    H2F11973   6.355   2.818   6.047  1.3856  2.3194 -1.9082
  115OSM    H2G11974   6.220   2.921   5.994  0.4568 -0.2332  0.6209
  115OSM    C3F11975   6.150   2.720   6.047  0.3524  0.2054  0.2597
  115OSM    H3F11976   6.042   2.744   6.031  0.6353  1.1638 -0.3222
  115OSM    H3G11977   6.148   2.655   6.137  1.0391 -0.8680 -0.4718
  115OSM    C4F11978   6.191   2.637   5.923  0.0876 -0.3772 -0.7825
  115OSM    H4F11979   6.137   2.540   5.919 -1.5492  0.4297  0.3916
  115OSM    H4G11980   6.297   2.606   5.937 -0.2795 -1.3678 -0.0742
  115OSM    C5F11981   6.176   2.716   5.796  0.9193 -0.7149 -0.0933
  115OSM    H5F11982   6.228   2.814   5.796 -2.8361  1.5005 -2.1687
  115OSM    H5G11983   6.066   2.735   5.801  0.9984 -0.5715  2.1540
  115OSM    C6F11984   6.221   2.635   5.668  0.0105 -0.5544 -0.4691
  115OSM    H6F11985   6.194   2.530   5.691  1.2296 -0.5318  1.2406
  115OSM    H6G11986   6.330   2.639   5.648 -0.1516  0.1926 -1.2746
  115OSM    C7F11987   6.148   2.681   5.536  0.0575 -0.3114 -0.4408
  115OSM    H7F11988   6.040   2.691   5.557 -0.2536 -2.4938 -0.7757
  115OSM    H7G11989   6.154   2.608   5.453 -2.9459 -0.4902 -0.6167
  115OSM    C8F11990   6.193   2.823   5.495  0.8228 -0.5181 -0.0021
  115OSM    H8F11991   6.211   2.895   5.578  0.6462  1.6765 -1.7828
  115OSM    H8G11992   6.105   2.863   5.441  0.8854 -2.5218 -1.7395
  115OSM    C9F11993   6.308   2.823   5.400  0.2075  0.8367 -0.4179
  115OSM    H9F11994   6.404   2.850   5.444  0.3649 -1.4835  0.8422
  115OSM   C10F11995   6.305   2.808   5.267  0.9948 -0.4874  0.5918
  115OSM   H10F11996   6.394   2.817   5.203  0.6167  0.7767  0.2024
  115OSM   C11F11997   6.178   2.779   5.192 -0.4551  0.4855 -0.3879
  115OSM   H11F11998   6.100   2.736   5.258  0.2555  0.1334  0.2329
  115OSM   H11G11999   6.206   2.697   5.122 -0.2933  1.8423 -1.9622
  115OSM   C12F12000   6.107   2.886   5.108  0.1572  1.2768  0.0226
  115OSM   H12F12001   6.049   2.951   5.176  1.3602  4.7496 -2.0124
  115OSM   H12G12002   6.033   2.833   5.043  1.6871  0.4416 -1.1230
  115OSM   C13F12003   6.197   2.964   5.009  0.0338  0.8211  0.0116
  115OSM   H13F12004   6.289   2.995   5.063 -0.5804  0.6871  1.1581
  115OSM   H13G12005   6.142   3.052   4.968  0.7787  0.6782 -1.3678
  115OSM   C14F12006   6.228   2.872   4.892 -0.5173  0.2458  0.7204
  115OSM   H14F12007   6.141   2.837   4.834 -0.5259 -0.9316  1.4213
  115OSM   H14G12008   6.277   2.776   4.919  0.9629 -0.0727 -2.6180
  115OSM   C15F12009   6.317   2.936   4.787 -0.0169  0.2702 -0.2015
  115OSM   H15F12010   6.372   2.855   4.735  0.8292  1.2466 -0.8802
  115OSM   H15G12011   6.396   3.003   4.828 -0.7440  1.1204 -0.1467
  115OSM   C16F12012   6.256   3.015   4.673 -0.5127  0.5181 -0.0785
  115OSM   H16F12013   6.223   3.116   4.705  1.4049  0.8063  1.1287
  115OSM   H16G12014   6.162   2.972   4.631  0.4208 -1.1005 -0.5788
  115OSM   C17F12015   6.357   3.027   4.558 -0.7187  0.0430  0.6478
  115OSM   H17F12016   6.391   2.932   4.512  1.4615  1.4631 -0.8942
  115OSM   H17G12017   6.447   3.078   4.599  0.1316  1.7591 -2.9686
  115OSM   C18F12018   6.291   3.126   4.451 -0.0752  0.4480  0.5397
  115OSM   H18F12019   6.258   3.218   4.504 -0.3288  1.6993 -1.6521
  115OSM   H18G12020   6.214   3.065   4.401  0.2398 -0.1075  0.7307
  115OSM   H18H12021   6.363   3.154   4.371 -0.1352  1.1523  0.7193
  116OSM      N12022   0.861   1.428   7.049 -0.3061  0.1415 -0.3747
  116OSM    C1512023   0.742   1.338   7.059  0.7779 -0.1231  0.4214
  116OSM   H15A12024   0.675   1.357   6.977 -0.2701  0.1374  1.3205
  116OSM   H15B12025   0.700   1.332   7.158 -0.8483 -1.8831 -0.3313
  116OSM   H15C12026   0.770   1.238   7.029 -0.4057 -0.8644  1.7028
  116OSM    C1412027   0.814   1.555   7.106  0.8087 -0.0858  0.1287
  116OSM   H14A12028   0.759   1.531   7.196 -1.3975 -0.7718 -1.3223
  116OSM   H14B12029   0.747   1.606   7.038  1.0958 -2.4571 -2.0757
  116OSM   H14C12030   0.900   1.616   7.130 -0.4568  3.2851 -2.8815
  116OSM    C1312031   0.965   1.377   7.146 -0.2512 -0.3557  0.4976
  116OSM   H13A12032   1.003   1.280   7.117  0.4010 -0.6095  2.1100
  116OSM   H13B12033   0.917   1.361   7.241 -0.3429  1.0390  0.7059
  116OSM   H13C12034   1.052   1.441   7.155  0.2151 -0.6831 -1.3099
  116OSM    C1212035   0.919   1.446   6.912  0.1592  0.0685  1.0302
  116OSM   H12A12036   0.937   1.350   6.865 -0.6930 -0.3662  1.5585
  116OSM   H12B12037   1.015   1.495   6.914  1.1067 -1.7057  0.6785
  116OSM    C1112038   0.821   1.499   6.800 -0.0013 -0.1178  0.6884
  116OSM   H11A12039   0.885   1.535   6.717 -0.3875  3.4447  1.7835
  116OSM   H11B12040   0.783   1.599   6.829  0.8198  1.7839 -3.9106
  116OSM      P12041   0.755   1.273   6.670  0.2105  0.3961  0.1211
  116OSM    O1312042   0.897   1.237   6.680 -0.0030 -0.3786 -0.2263
  116OSM    O1412043   0.661   1.161   6.712  0.0832  0.3342  0.2697
  116OSM    O1112044   0.718   1.314   6.516 -0.0858 -0.2748 -0.6922
  116OSM    O1212045   0.719   1.401   6.757 -0.3546  0.1283 -0.2816
  116OSM    C1S12046   0.635   1.419   6.480  0.3118 -0.7143  0.3620
  116OSM    H1S12047   0.683   1.514   6.513  1.5295 -1.8903  2.2284
  116OSM    H1T12048   0.540   1.406   6.537  0.4962  0.0665  0.8709
  116OSM     NF12049   0.528   1.537   6.287  0.0135  0.1611 -0.2622
  116OSM    HNF12050   0.430   1.518   6.278 -0.0824 -0.6873  1.9713
  116OSM    C2S12051   0.598   1.419   6.328  1.8377  0.1034 -0.3585
  116OSM    H2S12052   0.696   1.418   6.274  0.3226  0.1680 -3.3079
  116OSM    C3S12053   0.528   1.281   6.286 -0.3626 -0.7319 -0.4086
  116OSM    H3S12054   0.425   1.289   6.325 -0.2592  1.5687 -0.4920
  116OSM     O312055   0.593   1.167   6.343  0.0594  0.0380 -0.2807
  116OSM    HO312056   0.652   1.212   6.403 -0.9439 -0.6020  1.2249
  116OSM    C4S12057   0.529   1.262   6.139 -0.2163 -0.5498 -0.6127
  116OSM    H4S12058   0.624   1.283   6.088 -0.3398 -0.3464 -0.7605
  116OSM    C5S12059   0.418   1.227   6.068  0.3007  0.9580  0.1841
  116OSM    H5S12060   0.324   1.220   6.126  1.6468  0.2003  2.3764
  116OSM    C6S12061   0.406   1.199   5.917 -0.1491  0.6405 -0.3853
  116OSM    H6S12062   0.496   1.238   5.864 -0.3116  2.4024  0.5449
  116OSM    H6T12063   0.322   1.260   5.877  0.2076  0.2650 -1.7466
  116OSM    C7S12064   0.378   1.049   5.887 -0.2752 -0.4800  0.2585
  116OSM    H7S12065   0.284   1.024   5.939  0.0113  0.1113  1.0971
  116OSM    H7T12066   0.458   0.990   5.937  2.2543  0.5472 -2.2975
  116OSM    C8S12067   0.360   1.020   5.733 -0.1103  0.5044  0.6005
  116OSM    H8S12068   0.269   1.076   5.703 -0.0610  0.6709  0.7530
  116OSM    H8T12069   0.338   0.912   5.725  0.4757  0.3714  0.6999
  116OSM    C9S12070   0.492   1.037   5.649 -1.1767  0.0737  0.2735
  116OSM    H9S12071   0.540   0.937   5.654 -0.5447  0.3082 -0.8120
  116OSM    H9T12072   0.561   1.114   5.687 -0.5648 -0.1570 -0.3476
  116OSM   C10S12073   0.467   1.070   5.506 -0.0469  0.1613  0.3030
  116OSM   H10S12074   0.409   1.165   5.501  0.4537  0.4126 -0.9930
  116OSM   H10T12075   0.400   0.994   5.460  0.3092 -1.5323  2.4379
  116OSM   C11S12076   0.589   1.096   5.408  0.1988 -0.3498 -0.0357
  116OSM   H11S12077   0.656   1.007   5.402  0.5795 -0.1994  1.6149
  116OSM   H11T12078   0.654   1.171   5.456  0.3629  0.2975 -1.2390
  116OSM   C12S12079   0.557   1.146   5.265  0.2163  0.6229 -0.3673
  116OSM   H12S12080   0.650   1.184   5.217  0.4478  0.8867  0.2850
  116OSM   H12T12081   0.484   1.226   5.286  0.2115  0.4367  0.3345
  116OSM   C13S12082   0.501   1.042   5.170  0.4739  0.3144  0.8405
  116OSM   H13S12083   0.414   0.983   5.206 -1.4599  1.2836 -1.9143
  116OSM   H13T12084   0.578   0.969   5.138 -3.1577 -3.4189 -0.2699
  116OSM   C14S12085   0.465   1.110   5.032  0.3780  0.4284  0.1247
  116OSM   H14S12086   0.393   1.194   5.042  0.4199  0.5492 -0.5357
  116OSM   H14T12087   0.398   1.038   4.981 -0.5367  0.8171  0.7530
  116OSM   C15S12088   0.575   1.162   4.941  0.4209 -0.2113  0.1191
  116OSM   H15S12089   0.659   1.092   4.925  2.5858  2.7983 -3.3915
  116OSM   H15T12090   0.623   1.254   4.981 -0.1907  0.2449 -0.1644
  116OSM   C16S12091   0.518   1.181   4.794  0.1788 -0.0506 -0.3553
  116OSM   H16S12092   0.440   1.258   4.775  1.2098  0.5648 -2.3540
  116OSM   H16T12093   0.472   1.083   4.769 -0.1190 -0.0171  0.0490
  116OSM   C17S12094   0.634   1.216   4.705 -0.0440  0.3794  0.3332
  116OSM   H17S12095   0.725   1.153   4.713  0.1236  0.2407 -2.0222
  116OSM   H17T12096   0.651   1.324   4.724 -0.7276  0.5824 -0.1472
  116OSM   C18S12097   0.590   1.202   4.554 -0.0699 -0.1460 -0.3160
  116OSM   H18S12098   0.502   1.133   4.550  2.0208 -3.1425  0.9385
  116OSM   H18T12099   0.672   1.153   4.498  0.1611 -1.5558  1.1667
  116OSM   H18U12100   0.563   1.298   4.507  0.8153  0.0418 -0.4555
  116OSM    C1F12101   0.578   1.662   6.284 -0.7792  0.3950 -0.1647
  116OSM     OF12102   0.697   1.682   6.324 -0.2610 -0.4569  0.4558
  116OSM    C2F12103   0.490   1.774   6.241 -0.3704 -0.3691 -0.3420
  116OSM    H2F12104   0.434   1.807   6.332 -0.4843  0.3849 -0.6814
  116OSM    H2G12105   0.420   1.740   6.162 -0.7974 -0.2957  0.0016
  116OSM    C3F12106   0.576   1.896   6.199 -0.7999  0.1728  0.7667
  116OSM    H3F12107   0.629   1.937   6.288 -0.3969 -3.0241  2.1544
  116OSM    H3G12108   0.508   1.979   6.170 -0.0257  0.2892 -0.8169
  116OSM    C4F12109   0.671   1.868   6.081 -0.3566 -0.2702  0.1400
  116OSM    H4F12110   0.731   1.776   6.096  0.2160  0.2783  1.3957
  116OSM    H4G12111   0.731   1.960   6.071 -0.8851 -0.1879 -3.5224
  116OSM    C5F12112   0.591   1.889   5.948 -1.0001  0.1563 -0.4717
  116OSM    H5F12113   0.568   1.996   5.930 -0.7631 -0.2056 -3.2394
  116OSM    H5G12114   0.497   1.829   5.943  0.5524 -2.6686  1.4439
  116OSM    C6F12115   0.675   1.851   5.825  0.1197 -0.3175  0.5345
  116OSM    H6F12116   0.607   1.848   5.737  0.8659 -0.8198 -0.0422
  116OSM    H6G12117   0.707   1.746   5.841 -0.6590 -0.9832 -1.7879
  116OSM    C7F12118   0.792   1.945   5.790 -0.3693 -0.5409  0.4047
  116OSM    H7F12119   0.867   1.938   5.872  1.5454  0.8854 -1.1516
  116OSM    H7G12120   0.753   2.048   5.782 -2.3380 -1.3951 -2.6253
  116OSM    C8F12121   0.877   1.923   5.664 -0.6534 -0.1220  0.0055
  116OSM    H8F12122   0.948   1.839   5.684  1.7737  1.9212  0.4827
  116OSM    H8G12123   0.948   2.009   5.665 -0.5762 -0.1846  0.7804
  116OSM    C9F12124   0.803   1.923   5.529 -0.8589  0.0652  1.1116
  116OSM    H9F12125   0.730   1.841   5.521  1.7105 -2.2425 -0.9564
  116OSM   C10F12126   0.812   2.012   5.426  0.2028  0.3065 -0.3272
  116OSM   H10F12127   0.755   1.990   5.334 -1.7029  0.5861  0.7202
  116OSM   C11F12128   0.905   2.126   5.425  0.2790  0.0154 -1.0805
  116OSM   H11F12129   0.981   2.131   5.506 -0.9683 -2.2221  0.3182
  116OSM   H11G12130   0.842   2.217   5.418 -0.9436 -0.7557 -0.3606
  116OSM   C12F12131   0.989   2.130   5.291  0.1509  0.1084 -0.0578
  116OSM   H12F12132   1.055   2.046   5.261 -1.2723 -0.9563 -0.2866
  116OSM   H12G12133   1.051   2.222   5.298  1.2337 -0.6107 -0.1047
  116OSM   C13F12134   0.909   2.145   5.158 -0.1540 -0.3369  0.2919
  116OSM   H13F12135   0.848   2.237   5.170  1.4541  1.1432 -2.2601
  116OSM   H13G12136   0.840   2.059   5.143 -1.8475  1.3841 -2.5820
  116OSM   C14F12137   0.996   2.162   5.029  0.3577 -0.3567 -0.3039
  116OSM   H14F12138   0.995   2.066   4.973 -0.3503  0.1422 -1.1646
  116OSM   H14G12139   1.104   2.172   5.053 -0.1075  0.9603  1.4219
  116OSM   C15F12140   0.940   2.265   4.929  0.2020  0.5630 -0.8975
  116OSM   H15F12141   0.937   2.369   4.968  3.0663  1.2975 -2.3368
  116OSM   H15G12142   0.838   2.227   4.911  0.7885 -3.5334  2.7148
  116OSM   C16F12143   0.999   2.275   4.785 -0.2680  0.2479  0.2794
  116OSM   H16F12144   0.980   2.178   4.734 -1.2753  0.7562 -0.3382
  116OSM   H16G12145   1.107   2.294   4.801 -0.1273 -0.2402 -0.0888
  116OSM   C17F12146   0.926   2.376   4.689 -0.6049  0.0944  0.3790
  116OSM   H17F12147   0.952   2.475   4.730 -0.0993  1.0405 -2.0513
  116OSM   H17G12148   0.819   2.347   4.688  0.1158 -3.0102 -1.4042
  116OSM   C18F12149   0.987   2.371   4.550 -0.3680  0.0716 -0.0118
  116OSM   H18F12150   0.923   2.445   4.498 -0.5551  0.0641  0.2059
  116OSM   H18G12151   0.967   2.270   4.510  2.9400  0.0626 -1.9748
  116OSM   H18H12152   1.097   2.392   4.548  0.0799 -1.7271  2.1117
  117OSM      N12153   0.618   4.334   6.864  0.3622  0.1254 -0.1035
  117OSM    C1512154   0.644   4.237   6.757  0.5946 -0.5338  0.7519
  117OSM   H15A12155   0.631   4.134   6.788 -2.4627 -0.9237 -1.3497
  117OSM   H15B12156   0.739   4.248   6.709 -0.6877 -0.8730 -2.0381
  117OSM   H15C12157   0.570   4.257   6.681  0.4871 -0.6578  0.8220
  117OSM    C1412158   0.481   4.298   6.917 -0.9160  0.5245 -0.0394
  117OSM   H14A12159   0.400   4.286   6.847 -0.8958  0.2162 -0.0105
  117OSM   H14B12160   0.442   4.380   6.976 -1.0549  1.4191 -1.3408
  117OSM   H14C12161   0.483   4.206   6.974 -0.7205 -0.5929 -1.7823
  117OSM    C1312162   0.719   4.310   6.978  0.7715 -0.3508  0.1314
  117OSM   H13A12163   0.818   4.331   6.938  0.7556 -2.1470 -0.9373
  117OSM   H13B12164   0.736   4.206   7.002 -2.2870 -0.8121  0.6195
  117OSM   H13C12165   0.700   4.380   7.058  4.1463  1.8383 -0.7626
  117OSM    C1212166   0.640   4.471   6.816 -0.0005 -0.8618 -0.1519
  117OSM   H12A12167   0.745   4.477   6.792  0.1359  1.3137  0.7728
  117OSM   H12B12168   0.625   4.535   6.902  1.9061  0.4854 -0.7595
  117OSM    C1112169   0.568   4.522   6.692  0.1115  0.8000 -0.2138
  117OSM   H11A12170   0.575   4.454   6.604  0.8464 -1.0090  1.2014
  117OSM   H11B12171   0.615   4.617   6.657  2.2191  0.4355  1.4030
  117OSM      P12172   0.375   4.674   6.774 -0.1896 -0.1126 -0.0935
  117OSM    O1312173   0.269   4.651   6.872 -0.3603  0.2475 -0.2339
  117OSM    O1412174   0.483   4.765   6.816 -0.5598  0.1786 -0.0018
  117OSM    O1112175   0.303   4.729   6.641  0.4532 -0.2331 -0.3226
  117OSM    O1212176   0.429   4.534   6.715 -0.4744  0.2430  0.5228
  117OSM    C1S12177   0.383   4.766   6.529 -0.0061 -0.0051 -1.6496
  117OSM    H1S12178   0.491   4.752   6.549 -0.2546 -1.5598 -1.2224
  117OSM    H1T12179   0.371   4.875   6.511 -0.8134  0.2253  0.1007
  117OSM     NF12180   0.455   4.715   6.296 -0.6955 -0.0019  0.4404
  117OSM    HNF12181   0.450   4.792   6.233  2.0301 -2.8398 -3.7183
  117OSM    C2S12182   0.355   4.692   6.396 -0.4785 -1.1863 -0.2070
  117OSM    H2S12183   0.361   4.583   6.417  0.2178 -0.6534  2.8128
  117OSM    C3S12184   0.210   4.735   6.346 -0.5393  0.4686 -0.3158
  117OSM    H3S12185   0.204   4.840   6.311 -0.9471  0.4557 -0.2866
  117OSM     O312186   0.098   4.736   6.443 -0.2072  0.0414  0.4630
  117OSM    HO312187   0.141   4.724   6.528  1.0663  1.9580  0.1622
  117OSM    C4S12188   0.174   4.653   6.228  0.3262 -0.2125  0.8891
  117OSM    H4S12189   0.213   4.696   6.135 -1.0581 -0.1816  0.3125
  117OSM    C5S12190   0.095   4.543   6.223 -0.1154 -0.0470 -0.3006
  117OSM    H5S12191   0.078   4.483   6.313  2.0125  1.1024  0.9666
  117OSM    C6S12192   0.043   4.460   6.109 -0.3393 -0.1026 -1.0105
  117OSM    H6S12193  -0.066   4.443   6.120  0.1428 -1.8637  1.9619
  117OSM    H6T12194   0.081   4.356   6.109  1.0937  0.3938  0.3962
  117OSM    C7S12195   0.077   4.522   5.970 -0.1164 -0.2341  0.7337
  117OSM    H7S12196   0.185   4.501   5.955 -0.4260 -0.6556 -1.1045
  117OSM    H7T12197   0.061   4.632   5.975  1.3075  0.0437 -0.2052
  117OSM    C8S12198  -0.021   4.471   5.860  1.0285 -1.0889  0.7973
  117OSM    H8S12199  -0.124   4.504   5.887  0.7264 -0.6533 -0.7787
  117OSM    H8T12200  -0.032   4.361   5.871 -0.0120 -0.9572  1.2492
  117OSM    C9S12201   0.011   4.523   5.729 -0.4007 -0.1951 -0.3933
  117OSM    H9S12202   0.103   4.466   5.701  0.4752  1.0206 -0.1033
  117OSM    H9T12203   0.038   4.630   5.726  1.1030 -0.4954  0.7914
  117OSM   C10S12204  -0.084   4.499   5.613 -0.5353  0.1274 -0.5715
  117OSM   H10S12205  -0.180   4.541   5.647  0.3195  0.1097  2.1341
  117OSM   H10T12206  -0.107   4.391   5.596  1.9997 -0.2400 -2.3380
  117OSM   C11S12207  -0.041   4.563   5.481 -0.1458 -0.1016 -0.2891
  117OSM   H11S12208   0.064   4.530   5.468  0.1144 -0.1939  1.6783
  117OSM   H11T12209  -0.041   4.674   5.487 -0.3512 -0.1404  0.7494
  117OSM   C12S12210  -0.124   4.530   5.359 -0.0429 -0.4379 -0.1035
  117OSM   H12S12211  -0.223   4.579   5.377  1.0177  0.7437  3.0569
  117OSM   H12T12212  -0.132   4.420   5.348 -0.5278 -0.2641 -1.8851
  117OSM   C13S12213  -0.049   4.585   5.236  0.3984  0.2067  0.2660
  117OSM   H13S12214   0.029   4.508   5.215 -0.1737 -0.6063  1.0310
  117OSM   H13T12215   0.004   4.681   5.249 -1.5801  1.6104 -1.3163
  117OSM   C14S12216  -0.135   4.595   5.112 -0.0199 -1.3674  0.0578
  117OSM   H14S12217  -0.214   4.670   5.135 -1.5277 -2.8548 -0.1159
  117OSM   H14T12218  -0.189   4.500   5.095 -1.4679 -1.1726  2.9509
  117OSM   C15S12219  -0.054   4.628   4.983  0.5315 -0.1076  0.3400
  117OSM   H15S12220   0.004   4.537   4.956  0.3240 -1.1337  3.0524
  117OSM   H15T12221   0.008   4.715   5.011 -0.7513  0.2818  2.1739
  117OSM   C16S12222  -0.148   4.658   4.862 -0.1020  0.5319 -0.1231
  117OSM   H16S12223  -0.247   4.609   4.875  1.6822 -3.4324  0.0792
  117OSM   H16T12224  -0.094   4.614   4.776  1.7138  1.2007  0.6178
  117OSM   C17S12225  -0.160   4.806   4.834 -0.3808  0.3874  0.5479
  117OSM   H17S12226  -0.057   4.839   4.809  0.3843 -2.4010 -0.3939
  117OSM   H17T12227  -0.196   4.856   4.927  0.6577 -0.6657  1.5360
  117OSM   C18S12228  -0.256   4.839   4.715 -0.2914 -0.6651 -0.5383
  117OSM   H18S12229  -0.255   4.949   4.703  1.7481 -0.5125  0.5289
  117OSM   H18T12230  -0.355   4.797   4.743 -0.7387  0.5038 -0.3178
  117OSM   H18U12231  -0.229   4.791   4.619 -1.7446 -0.0626 -1.2735
  117OSM    C1F12232   0.571   4.645   6.291 -0.8380 -0.0402  0.1643
  117OSM     OF12233   0.606   4.554   6.368  0.5676  0.1790  0.1152
  117OSM    C2F12234   0.656   4.687   6.171 -0.0924 -0.2603 -0.0793
  117OSM    H2F12235   0.645   4.795   6.145  1.8996 -0.2234 -0.9379
  117OSM    H2G12236   0.612   4.635   6.083  0.9942 -0.1140 -0.7229
  117OSM    C3F12237   0.810   4.661   6.177  0.0709 -0.3306 -0.8778
  117OSM    H3F12238   0.828   4.560   6.220 -2.2221  0.3485  2.0215
  117OSM    H3G12239   0.842   4.741   6.248 -1.0230 -0.3766 -0.3104
  117OSM    C4F12240   0.868   4.692   6.043  0.0913  0.0622 -0.7767
  117OSM    H4F12241   0.803   4.636   5.973 -0.6036 -0.3596  0.1885
  117OSM    H4G12242   0.966   4.641   6.036 -0.2964 -0.7048 -0.6249
  117OSM    C5F12243   0.870   4.844   5.988  0.2323  0.1360 -0.1008
  117OSM    H5F12244   0.940   4.907   6.046 -1.6317  1.6055  0.6325
  117OSM    H5G12245   0.767   4.885   5.995 -0.3342 -1.3028  0.3744
  117OSM    C6F12246   0.925   4.863   5.848 -0.3091  0.3606 -0.3671
  117OSM    H6F12247   1.012   4.795   5.833  0.5892  0.9762  1.7888
  117OSM    H6G12248   0.972   4.964   5.840  0.6665 -0.0363  0.2746
  117OSM    C7F12249   0.813   4.843   5.746  0.6226 -0.3571  0.5648
  117OSM    H7F12250   0.738   4.923   5.759  1.6632  0.8057 -0.3872
  117OSM    H7G12251   0.771   4.742   5.764 -2.0156  0.0625 -2.3480
  117OSM    C8F12252   0.854   4.847   5.595  0.4504 -0.2307  0.3788
  117OSM    H8F12253   0.887   4.952   5.579  1.7581 -0.8195 -1.1281
  117OSM    H8G12254   0.763   4.833   5.533  0.0345 -0.5768  1.0641
  117OSM    C9F12255   0.965   4.752   5.565 -0.3437 -0.6722 -0.1886
  117OSM    H9F12256   1.023   4.713   5.650  1.1121  0.1055 -0.7879
  117OSM   C10F12257   0.993   4.696   5.445 -0.2163 -0.2927  0.6926
  117OSM   H10F12258   1.085   4.637   5.448 -1.6852 -2.7524  0.3335
  117OSM   C11F12259   0.914   4.706   5.316  0.2521  0.0362  0.3515
  117OSM   H11F12260   0.808   4.688   5.345 -0.5383  2.0803 -1.0523
  117OSM   H11G12261   0.953   4.638   5.237  0.8597  0.7895 -0.0087
  117OSM   C12F12262   0.939   4.844   5.257  0.0208  0.1824  0.0011
  117OSM   H12F12263   1.041   4.849   5.213  0.2114 -1.7558  0.1415
  117OSM   H12G12264   0.920   4.923   5.334  0.5038  0.4003 -0.0981
  117OSM   C13F12265   0.832   4.870   5.150  0.1803  0.6191  0.0894
  117OSM   H13F12266   0.811   4.979   5.141 -0.3429  0.4915 -0.3009
  117OSM   H13G12267   0.735   4.824   5.180  0.2009  0.1099 -0.5882
  117OSM   C14F12268   0.884   4.810   5.022 -0.4652 -0.5794  1.4332
  117OSM   H14F12269   0.925   4.708   5.037 -1.2748 -1.4807 -1.7555
  117OSM   H14G12270   0.967   4.882   5.004 -1.2189  0.4508  1.9530
  117OSM   C15F12271   0.791   4.817   4.903  0.6779 -0.3556 -0.4575
  117OSM   H15F12272   0.688   4.796   4.937  0.5109  1.0712 -0.0025
  117OSM   H15G12273   0.810   4.740   4.825  0.7097  1.3565 -2.2437
  117OSM   C16F12274   0.792   4.957   4.847  0.5612 -0.1853  0.0897
  117OSM   H16F12275   0.756   5.027   4.926  0.8792 -0.5950  0.6059
  117OSM   H16G12276   0.704   4.960   4.779 -1.0064  1.6061  2.0038
  117OSM   C17F12277   0.907   5.009   4.760 -0.5740  0.8106 -0.0867
  117OSM   H17F12278   0.923   4.928   4.686  0.9149  2.4214 -1.6465
  117OSM   H17G12279   0.999   5.026   4.821 -0.0517 -0.3783 -0.5145
  117OSM   C18F12280   0.883   5.146   4.684  0.4245 -0.0682  0.0263
  117OSM   H18F12281   0.899   5.208   4.775 -0.6925 -1.7871  1.4637
  117OSM   H18G12282   0.780   5.157   4.645  0.8832  0.0745 -1.2215
  117OSM   H18H12283   0.957   5.156   4.601 -0.5655 -3.4098 -1.4520
  118OSM      N12284   6.574   3.215   6.696 -0.2172  0.0432 -0.6136
  118OSM    C1512285   6.699   3.255   6.773 -0.4853 -0.5054  0.2320
  118OSM   H15A12286   6.720   3.356   6.743 -0.3904 -1.5695 -3.9184
  118OSM   H15B12287   6.780   3.194   6.736 -0.0078  0.1723  0.1446
  118OSM   H15C12288   6.694   3.258   6.880  1.7331  0.0658  0.3681
  118OSM    C1412289   6.460   3.283   6.770  0.2893 -0.4899 -0.4896
  118OSM   H14A12290   6.443   3.246   6.870  0.1364 -1.3700 -0.8277
  118OSM   H14B12291   6.368   3.261   6.719  1.5475 -1.0975 -2.6244
  118OSM   H14C12292   6.488   3.387   6.777  0.6697 -0.6114 -0.1575
  118OSM    C1312293   6.584   3.260   6.559  0.4588  0.1321  0.5262
  118OSM   H13A12294   6.617   3.363   6.555 -0.2069  0.3321 -0.0632
  118OSM   H13B12295   6.490   3.258   6.507  1.9293  4.1801 -2.9037
  118OSM   H13C12296   6.658   3.204   6.505  0.4653  0.4107  0.2419
  118OSM    C1212297   6.561   3.066   6.709 -0.6441 -0.3585  0.2758
  118OSM   H12A12298   6.458   3.054   6.678 -1.7339  3.7370  1.6169
  118OSM   H12B12299   6.580   3.043   6.813  1.8711  2.5387  0.5972
  118OSM    C1112300   6.649   2.972   6.630 -0.5059 -0.1277  0.5266
  118OSM   H11A12301   6.624   2.988   6.523 -0.3936 -1.2317  0.3214
  118OSM   H11B12302   6.619   2.867   6.649 -0.9763  0.4212  3.1975
  118OSM      P12303   6.915   2.996   6.579 -0.0772  0.0157  0.1038
  118OSM    O1312304   7.026   3.018   6.673  0.0109 -0.1558  0.4072
  118OSM    O1412305   6.919   2.869   6.505  0.0102 -0.2772 -0.2604
  118OSM    O1112306   6.900   3.112   6.480 -0.6941  0.1433 -0.2577
  118OSM    O1212307   6.785   2.995   6.660 -0.2559 -0.2676 -0.2328
  118OSM    C1S12308   6.996   3.127   6.368 -0.0233 -0.0973  0.3480
  118OSM    H1S12309   6.951   3.064   6.289 -0.9200  0.5986  0.2889
  118OSM    H1T12310   7.096   3.094   6.402  0.3507  1.6576  1.0920
  118OSM     NF12311   7.088   3.290   6.191  0.2451  0.1975  0.1285
  118OSM    HNF12312   7.178   3.335   6.194 -0.7707  2.5044 -1.3622
  118OSM    C2S12313   7.003   3.276   6.312 -0.2868  0.1902  0.0212
  118OSM    H2S12314   6.900   3.300   6.279 -0.1696  0.3447 -0.2379
  118OSM    C3S12315   7.036   3.381   6.424 -0.5062  0.2081  0.6907
  118OSM    H3S12316   7.135   3.346   6.461  0.4399 -0.7139 -2.4584
  118OSM     O312317   6.950   3.367   6.536 -0.0177  0.6205  0.2355
  118OSM    HO312318   6.911   3.280   6.526 -0.9778  1.1242 -0.5924
  118OSM    C4S12319   7.030   3.523   6.374  0.5999 -0.1543 -0.8635
  118OSM    H4S12320   7.125   3.566   6.338 -0.2525  1.4538 -1.3019
  118OSM    C5S12321   6.914   3.595   6.371  0.2233 -0.3466 -0.3397
  118OSM    H5S12322   6.823   3.540   6.398 -0.6122  0.6829 -0.9837
  118OSM    C6S12323   6.914   3.738   6.313 -0.0246 -0.1845  0.4741
  118OSM    H6S12324   6.960   3.805   6.389 -1.1999  0.1633  0.9114
  118OSM    H6T12325   6.808   3.764   6.293  0.1398 -0.3264 -0.6698
  118OSM    C7S12326   6.997   3.742   6.185  0.5530  0.0577  0.2300
  118OSM    H7S12327   7.103   3.714   6.202 -0.0843 -0.9477  3.1580
  118OSM    H7T12328   6.976   3.847   6.156 -2.3749 -0.0426  1.5721
  118OSM    C8S12329   6.957   3.661   6.063 -0.3679  0.6442 -0.1164
  118OSM    H8S12330   6.996   3.558   6.069  0.8987  1.1278  0.1726
  118OSM    H8T12331   7.013   3.705   5.978  0.8839  1.1566  0.9439
  118OSM    C9S12332   6.816   3.670   6.024 -0.9509  0.2520  0.8371
  118OSM    H9S12333   6.795   3.779   6.019 -0.7897  0.2642  0.3563
  118OSM    H9T12334   6.750   3.633   6.105 -2.0350 -1.3523 -0.6956
  118OSM   C10S12335   6.781   3.599   5.893 -0.5513 -0.4786 -0.2398
  118OSM   H10S12336   6.676   3.609   5.857  0.0942  0.4868 -1.9090
  118OSM   H10T12337   6.806   3.491   5.906  1.1603 -0.0670  0.1292
  118OSM   C11S12338   6.859   3.654   5.775  0.3472  0.1695 -0.0928
  118OSM   H11S12339   6.967   3.633   5.792  0.2243 -0.1641  0.2993
  118OSM   H11T12340   6.834   3.762   5.766 -0.9099 -0.2508 -2.1769
  118OSM   C12S12341   6.819   3.614   5.635  0.2441 -0.1770 -0.3787
  118OSM   H12S12342   6.713   3.642   5.620  0.3382 -0.1798 -1.0547
  118OSM   H12T12343   6.832   3.504   5.630 -2.1381 -0.5715  0.5054
  118OSM   C13S12344   6.911   3.675   5.530 -0.2591 -0.6341  0.8225
  118OSM   H13S12345   7.018   3.690   5.557 -0.4206  2.6946  0.0632
  118OSM   H13T12346   6.890   3.784   5.530  0.1162 -0.5538  0.3721
  118OSM   C14S12347   6.889   3.632   5.384 -0.4462 -0.1657  0.1091
  118OSM   H14S12348   6.786   3.603   5.355 -0.0742 -0.6811 -0.7475
  118OSM   H14T12349   6.951   3.542   5.366 -0.2483  0.3837 -2.3208
  118OSM   C15S12350   6.945   3.740   5.284 -0.4161  0.0410 -0.1525
  118OSM   H15S12351   7.052   3.758   5.310 -0.2973 -0.1202 -0.5272
  118OSM   H15T12352   6.877   3.823   5.313 -0.7154 -0.5327  0.7983
  118OSM   C16S12353   6.933   3.698   5.141 -0.0736 -0.2510  0.1549
  118OSM   H16S12354   6.826   3.677   5.120 -0.6668  0.5552  2.1573
  118OSM   H16T12355   6.997   3.609   5.123 -0.1535 -0.5159  1.1238
  118OSM   C17S12356   6.966   3.812   5.046 -0.1083 -0.9149  0.1853
  118OSM   H17S12357   7.076   3.826   5.045 -0.0696 -1.2117  0.0679
  118OSM   H17T12358   6.918   3.908   5.075  1.1380 -0.6083  1.2830
  118OSM   C18S12359   6.923   3.790   4.898 -0.3182  0.2555 -0.2565
  118OSM   H18S12360   7.002   3.729   4.851 -1.2163 -1.1666  0.0048
  118OSM   H18T12361   6.910   3.890   4.851 -2.0748 -0.6797 -1.8964
  118OSM   H18U12362   6.826   3.745   4.865 -0.2129 -0.1152 -0.0615
  118OSM    C1F12363   7.058   3.223   6.081  0.5432 -0.2534 -0.0104
  118OSM     OF12364   6.955   3.155   6.071  0.1973 -1.0482  1.1153
  118OSM    C2F12365   7.153   3.247   5.964  0.5051 -0.4028  0.6746
  118OSM    H2F12366   7.244   3.187   5.988  0.1451 -1.4767 -0.5365
  118OSM    H2G12367   7.177   3.355   5.974 -3.0557  0.5336  0.5102
  118OSM    C3F12368   7.100   3.210   5.823  0.1068 -0.0575 -0.1884
  118OSM    H3F12369   7.001   3.262   5.815  0.4675  0.4684 -1.4923
  118OSM    H3G12370   7.083   3.101   5.814  0.8683 -0.2621  0.7175
  118OSM    C4F12371   7.201   3.235   5.716 -0.2632 -0.3133  0.3337
  118OSM    H4F12372   7.296   3.185   5.743 -0.9515 -2.1442 -0.4622
  118OSM    H4G12373   7.232   3.342   5.712  2.1580 -0.9500  0.7138
  118OSM    C5F12374   7.144   3.170   5.586 -0.0641  0.0181  0.4899
  118OSM    H5F12375   7.047   3.218   5.563  0.6696  2.0098  1.3511
  118OSM    H5G12376   7.123   3.063   5.606 -1.0115 -0.4607 -2.6140
  118OSM    C6F12377   7.225   3.194   5.462  0.8163 -0.4468  0.0638
  118OSM    H6F12378   7.225   3.101   5.401  0.2920 -0.0681 -0.5188
  118OSM    H6G12379   7.332   3.209   5.489  0.9975  0.2851 -0.9819
  118OSM    C7F12380   7.158   3.294   5.361 -0.0608 -0.2731 -0.4955
  118OSM    H7F12381   7.145   3.393   5.411 -0.2908 -1.1255  1.2178
  118OSM    H7G12382   7.056   3.261   5.332 -0.9684  0.1939  1.8878
  118OSM    C8F12383   7.243   3.316   5.228  0.0016  0.5367  0.1390
  118OSM    H8F12384   7.347   3.351   5.245 -0.0435  0.3524  0.8543
  118OSM    H8G12385   7.188   3.392   5.170  0.7607  0.5488 -0.5855
  118OSM    C9F12386   7.247   3.186   5.148  0.1124 -0.0529 -0.0998
  118OSM    H9F12387   7.322   3.113   5.183  0.2319  0.3896  0.5624
  118OSM   C10F12388   7.182   3.160   5.031  0.4507 -0.0155  0.1305
  118OSM   H10F12389   7.199   3.063   4.982 -1.4588 -0.3104 -0.0083
  118OSM   C11F12390   7.067   3.254   4.978  0.1422  0.1991  0.1768
  118OSM   H11F12391   7.026   3.323   5.054  1.9253 -0.8851  2.2453
  118OSM   H11G12392   6.978   3.205   4.934  1.1807  0.3246 -2.2192
  118OSM   C12F12393   7.119   3.338   4.864  0.7766  0.0091  0.4032
  118OSM   H12F12394   7.178   3.295   4.780  0.5319  0.4614 -0.0059
  118OSM   H12G12395   7.189   3.416   4.899  0.5062  1.8909 -2.8518
  118OSM   C13F12396   7.004   3.419   4.799 -0.5844  0.3065 -0.7818
  118OSM   H13F12397   6.977   3.506   4.862 -0.1201 -0.1142  0.0041
  118OSM   H13G12398   6.927   3.343   4.772  0.8136 -1.2739 -0.4657
  118OSM   C14F12399   7.037   3.481   4.662  0.7660  0.0587  0.0936
  118OSM   H14F12400   7.076   3.408   4.589  0.7038  1.0414 -0.9482
  118OSM   H14G12401   7.127   3.545   4.679  1.2344 -0.6403  0.2937
  118OSM   C15F12402   6.917   3.552   4.601 -0.4970  0.1464 -0.1687
  118OSM   H15F12403   6.954   3.631   4.533 -0.7830  0.1350 -0.3387
  118OSM   H15G12404   6.862   3.598   4.686 -1.0567 -1.1105  0.1744
  118OSM   C16F12405   6.814   3.462   4.539  0.2619  0.0358 -0.3119
  118OSM   H16F12406   6.797   3.391   4.622 -0.8502  1.5418  0.8252
  118OSM   H16G12407   6.857   3.414   4.449 -0.9809 -4.0871  1.0552
  118OSM   C17F12408   6.688   3.517   4.502 -0.3607 -0.2769  0.0256
  118OSM   H17F12409   6.707   3.609   4.443  1.3090 -0.5290  0.1172
  118OSM   H17G12410   6.624   3.547   4.588 -2.4994 -1.0162 -1.2292
  118OSM   C18F12411   6.611   3.412   4.427 -0.5520 -0.1377 -0.3499
  118OSM   H18F12412   6.668   3.367   4.342 -1.9127  2.6061 -2.8946
  118OSM   H18G12413   6.522   3.453   4.375 -0.0597  0.1441 -0.9869
  118OSM   H18H12414   6.573   3.331   4.493  0.0387  0.1717  0.3851
  119OSM      N12415   2.192   0.330   6.238 -0.4346  0.1269 -0.6517
  119OSM    C1512416   2.217   0.300   6.095 -0.1145 -0.2627 -0.1412
  119OSM   H15A12417   2.250   0.388   6.041 -0.1755 -0.9409 -1.3179
  119OSM   H15B12418   2.122   0.263   6.059  0.2491 -1.8228  0.4447
  119OSM   H15C12419   2.285   0.216   6.096 -1.9094 -1.7884 -0.5929
  119OSM    C1412420   2.101   0.454   6.262  0.3126  0.2095 -0.3911
  119OSM   H14A12421   2.098   0.476   6.368 -0.1035  3.3363 -0.9339
  119OSM   H14B12422   2.004   0.423   6.226 -0.0150 -2.6436  2.4742
  119OSM   H14C12423   2.130   0.541   6.204  0.8807  0.2954  0.0138
  119OSM    C1312424   2.139   0.216   6.307 -0.0590  0.0875  0.3557
  119OSM   H13A12425   2.205   0.131   6.311 -1.4455 -1.0662 -0.6879
  119OSM   H13B12426   2.046   0.181   6.266 -0.2931 -0.4474  1.2998
  119OSM   H13C12427   2.121   0.241   6.411 -1.6305 -0.6413  0.2836
  119OSM    C1212428   2.329   0.363   6.303 -0.1188  1.1116  0.2775
  119OSM   H12A12429   2.383   0.272   6.326  0.9627  1.3829 -1.0896
  119OSM   H12B12430   2.313   0.402   6.403 -1.1537 -1.2027  1.0909
  119OSM    C1112431   2.414   0.462   6.228  0.1666 -0.0908 -0.2315
  119OSM   H11A12432   2.348   0.545   6.196 -0.4743 -0.3277  0.4486
  119OSM   H11B12433   2.464   0.418   6.139  2.8864 -1.2174  1.7012
  119OSM      P12434   2.508   0.617   6.420  0.5299  0.1970  0.6106
  119OSM    O1312435   2.383   0.623   6.500 -0.3506  0.4877 -0.1541
  119OSM    O1412436   2.633   0.645   6.486 -0.0378 -0.0767  0.2739
  119OSM    O1112437   2.495   0.737   6.315 -0.1229 -0.3295  0.1557
  119OSM    O1212438   2.517   0.502   6.312  0.1778 -0.1022  0.3234
  119OSM    C1S12439   2.589   0.745   6.209  0.3474  0.0694  0.1639
  119OSM    H1S12440   2.545   0.676   6.134 -0.1779  0.1985  0.3501
  119OSM    H1T12441   2.693   0.709   6.226  0.4464  0.7316  1.0185
  119OSM     NF12442   2.678   0.892   6.022  0.1706 -0.3568 -0.0741
  119OSM    HNF12443   2.761   0.946   6.014 -0.8924  1.7688  2.0540
  119OSM    C2S12444   2.605   0.890   6.148  0.8987 -0.1558 -0.0624
  119OSM    H2S12445   2.501   0.924   6.128  0.8552 -1.6037 -2.7793
  119OSM    C3S12446   2.660   0.984   6.263 -0.5519  0.5317  0.4729
  119OSM    H3S12447   2.762   0.943   6.282 -0.3566 -0.3977 -2.1282
  119OSM     O312448   2.597   0.976   6.394  0.3709 -0.3510  0.3966
  119OSM    HO312449   2.554   0.891   6.393 -0.6451  0.0895  2.5138
  119OSM    C4S12450   2.663   1.126   6.222 -0.7168 -0.6251 -0.4814
  119OSM    H4S12451   2.565   1.160   6.185  0.4217 -0.6135 -3.7699
  119OSM    C5S12452   2.776   1.205   6.223 -0.1189 -0.3222  0.1355
  119OSM    H5S12453   2.874   1.164   6.253  0.6123  0.2075 -1.4215
  119OSM    C6S12454   2.769   1.352   6.203  0.0061  0.0214  1.1018
  119OSM    H6S12455   2.760   1.401   6.303 -1.0304 -1.0728  1.5690
  119OSM    H6T12456   2.670   1.379   6.160  0.5360 -1.7584 -1.4811
  119OSM    C7S12457   2.885   1.413   6.118 -0.6356 -0.2305  0.5361
  119OSM    H7S12458   2.980   1.418   6.175 -0.0036  3.2769 -0.5135
  119OSM    H7T12459   2.872   1.520   6.088  1.8855 -0.5366 -2.1120
  119OSM    C8S12460   2.932   1.350   5.982  0.3952 -0.7732  0.4666
  119OSM    H8S12461   2.972   1.248   5.999 -2.1143 -1.6504  1.6256
  119OSM    H8T12462   3.007   1.421   5.940 -0.3074  0.3065  0.9890
  119OSM    C9S12463   2.819   1.351   5.876  0.4924 -0.1720  1.1861
  119OSM    H9S12464   2.776   1.454   5.870 -1.0999 -0.8600  0.0820
  119OSM    H9T12465   2.743   1.278   5.909 -0.5200 -1.1713 -2.7510
  119OSM   C10S12466   2.868   1.321   5.727 -0.3822 -0.7711 -0.1464
  119OSM   H10S12467   2.934   1.405   5.699 -0.6093 -1.3442 -2.6786
  119OSM   H10T12468   2.791   1.316   5.648  0.9780  0.8212 -1.6346
  119OSM   C11S12469   2.959   1.198   5.709 -0.5498 -0.5278  0.5710
  119OSM   H11S12470   2.898   1.120   5.759 -0.9783 -0.5352  0.0418
  119OSM   H11T12471   3.042   1.205   5.783 -0.7383  1.4531  0.6429
  119OSM   C12S12472   3.011   1.158   5.573  0.5957 -0.2796 -0.0808
  119OSM   H12S12473   2.931   1.132   5.500 -0.0410 -0.8921  0.8092
  119OSM   H12T12474   3.083   1.078   5.601  0.5247  0.5968  2.9214
  119OSM   C13S12475   3.099   1.257   5.502 -0.0536 -0.3159 -0.3712
  119OSM   H13S12476   3.187   1.271   5.568 -0.1636  0.1068 -0.3063
  119OSM   H13T12477   3.044   1.351   5.479  0.6253  0.0193 -0.6528
  119OSM   C14S12478   3.147   1.201   5.362 -0.6127 -0.4578  0.2027
  119OSM   H14S12479   3.059   1.171   5.302  0.4071 -0.5349 -1.2974
  119OSM   H14T12480   3.207   1.108   5.373  0.1223  0.2161  2.7340
  119OSM   C15S12481   3.238   1.296   5.283 -0.4205  0.0624 -0.4540
  119OSM   H15S12482   3.180   1.388   5.262 -1.8631 -1.3842 -3.6804
  119OSM   H15T12483   3.252   1.245   5.185 -0.9524 -0.6867 -0.1487
  119OSM   C16S12484   3.382   1.314   5.342 -1.0844  0.4231  0.2363
  119OSM   H16S12485   3.438   1.218   5.350 -0.9787  0.4322 -0.3621
  119OSM   H16T12486   3.368   1.342   5.449 -1.4956  0.7653  0.0995
  119OSM   C17S12487   3.465   1.415   5.269  0.6055 -0.0992  1.0827
  119OSM   H17S12488   3.479   1.388   5.163 -0.2780  1.8943  0.4060
  119OSM   H17T12489   3.566   1.423   5.313  1.7456  1.4440 -1.6055
  119OSM   C18S12490   3.399   1.557   5.265 -0.1530  0.0778  0.2839
  119OSM   H18S12491   3.394   1.609   5.363  0.8827  1.3117 -0.2930
  119OSM   H18T12492   3.300   1.563   5.216  0.5354  0.8910 -1.0510
  119OSM   H18U12493   3.456   1.622   5.195  1.3167 -2.0365 -0.6038
  119OSM    C1F12494   2.625   0.836   5.913  0.2448  0.1438 -1.2052
  119OSM     OF12495   2.519   0.771   5.930  0.2397  0.2549 -0.0962
  119OSM    C2F12496   2.695   0.844   5.780 -1.0564  0.1824 -0.4006
  119OSM    H2F12497   2.796   0.805   5.802 -0.8042  0.4509 -1.0567
  119OSM    H2G12498   2.696   0.953   5.761 -1.9039  0.4417  0.8415
  119OSM    C3F12499   2.635   0.763   5.667  0.3497 -0.4492  0.6811
  119OSM    H3F12500   2.528   0.792   5.673  0.3893  0.3126 -1.5551
  119OSM    H3G12501   2.635   0.652   5.667 -0.3962 -0.4555  1.1255
  119OSM    C4F12502   2.673   0.808   5.527 -0.0595  1.2720 -0.2338
  119OSM    H4F12503   2.779   0.775   5.523  0.2910  2.4298 -0.7064
  119OSM    H4G12504   2.685   0.918   5.522  1.0950  1.2020  0.4875
  119OSM    C5F12505   2.596   0.747   5.410 -1.0973  0.0869  0.2132
  119OSM    H5F12506   2.489   0.770   5.425 -1.2030 -1.1582  1.6027
  119OSM    H5G12507   2.611   0.637   5.416 -0.9720  0.0149 -1.0753
  119OSM    C6F12508   2.643   0.799   5.274  0.3563  0.3639 -0.2236
  119OSM    H6F12509   2.753   0.795   5.255  0.5996  1.7499  0.7091
  119OSM    H6G12510   2.617   0.907   5.270 -2.0656 -0.2234 -2.6074
  119OSM    C7F12511   2.578   0.712   5.162 -0.5019 -0.2320 -0.8993
  119OSM    H7F12512   2.468   0.720   5.168 -0.7183  0.6774 -4.0575
  119OSM    H7G12513   2.599   0.604   5.178 -2.4532 -0.8810 -2.3963
  119OSM    C8F12514   2.613   0.753   5.019 -0.7042  0.2333 -0.3583
  119OSM    H8F12515   2.723   0.749   5.002 -0.5845 -0.2345  0.4625
  119OSM    H8G12516   2.592   0.862   5.010 -0.2711  0.3453 -0.0614
  119OSM    C9F12517   2.538   0.672   4.915  0.3442 -0.8172  0.2985
  119OSM    H9F12518   2.507   0.569   4.937 -0.6552 -0.3830  1.0333
  119OSM   C10F12519   2.492   0.719   4.804 -0.2272 -0.1188  0.4465
  119OSM   H10F12520   2.461   0.644   4.729  0.1031  0.6562 -0.4866
  119OSM   C11F12521   2.512   0.853   4.747  0.0911  0.0182  0.5507
  119OSM   H11F12522   2.515   0.844   4.637 -1.1157  0.5113  0.4611
  119OSM   H11G12523   2.605   0.885   4.799  0.4222 -2.2967  1.5153
  119OSM   C12F12524   2.393   0.946   4.799 -0.2453  0.2538 -0.2554
  119OSM   H12F12525   2.394   0.964   4.909 -1.1166 -0.1716 -0.1702
  119OSM   H12G12526   2.302   0.890   4.769  1.2806 -0.9233 -3.0194
  119OSM   C13F12527   2.397   1.086   4.735  0.3627 -0.3126  0.4601
  119OSM   H13F12528   2.405   1.083   4.624 -0.9364  2.3893  0.2104
  119OSM   H13G12529   2.483   1.147   4.768 -1.6387  2.2304  1.3128
  119OSM   C14F12530   2.267   1.162   4.759  0.2274 -0.9393  0.8062
  119OSM   H14F12531   2.252   1.184   4.866 -2.0299  2.5022 -0.0587
  119OSM   H14G12532   2.185   1.092   4.731  1.6719 -2.2828 -0.2339
  119OSM   C15F12533   2.256   1.291   4.679  0.1848  0.4925 -0.0518
  119OSM   H15F12534   2.266   1.278   4.569 -0.6359 -1.8500  0.1067
  119OSM   H15G12535   2.349   1.349   4.697  0.3607  0.6856 -1.4876
  119OSM   C16F12536   2.148   1.383   4.724  0.6826  0.2456 -0.3835
  119OSM   H16F12537   2.162   1.390   4.834  3.4491  1.3391 -0.7374
  119OSM   H16G12538   2.047   1.341   4.706  0.5484 -0.2995  1.4839
  119OSM   C17F12539   2.151   1.519   4.650 -0.0485  0.2635 -0.3207
  119OSM   H17F12540   2.122   1.499   4.544 -0.2825 -0.2468 -0.1647
  119OSM   H17G12541   2.248   1.569   4.632  0.1678  0.0328  0.1975
  119OSM   C18F12542   2.056   1.620   4.703 -0.0647 -0.2440 -0.4057
  119OSM   H18F12543   1.949   1.592   4.689  0.1105 -1.2227  0.1351
  119OSM   H18G12544   2.077   1.716   4.650  2.9600 -0.6300 -0.0737
  119OSM   H18H12545   2.076   1.652   4.808 -1.3200  0.3928 -0.3364
  120OSM      N12546   4.974   5.636   7.106  0.5937  0.2708  0.7070
  120OSM    C1512547   4.895   5.720   7.193  0.8223  0.2769  0.0441
  120OSM   H15A12548   4.914   5.695   7.297 -0.2217 -0.7596  0.0030
  120OSM   H15B12549   4.789   5.706   7.184  0.4360 -0.9906  4.2223
  120OSM   H15C12550   4.924   5.822   7.170 -0.7754  0.5243 -0.9873
  120OSM    C1412551   5.118   5.648   7.146 -0.5132  0.0565  0.1604
  120OSM   H14A12552   5.176   5.594   7.072  0.4018  1.5329 -0.2370
  120OSM   H14B12553   5.129   5.607   7.245 -2.4963 -0.0494  0.3752
  120OSM   H14C12554   5.152   5.749   7.164  2.6200 -0.6500 -1.2594
  120OSM    C1312555   4.926   5.495   7.127 -0.3696 -0.0665 -0.0354
  120OSM   H13A12556   4.969   5.423   7.060 -2.8090 -1.3466 -0.3251
  120OSM   H13B12557   4.821   5.477   7.109  0.0287 -1.3616 -1.2292
  120OSM   H13C12558   4.955   5.468   7.228  0.1307  3.3311  0.8883
  120OSM    C1212559   4.944   5.671   6.965 -0.3193  0.3796  0.0975
  120OSM   H12A12560   4.997   5.761   6.936 -0.2693  0.0289 -0.9673
  120OSM   H12B12561   4.839   5.694   6.951 -0.5317  1.2711  2.6751
  120OSM    C1112562   4.993   5.576   6.848 -0.5273  0.2489  0.0099
  120OSM   H11A12563   4.965   5.631   6.755  1.4624 -0.2180 -0.9231
  120OSM   H11B12564   4.943   5.478   6.833  2.4823 -0.9206 -4.4547
  120OSM      P12565   5.207   5.419   6.855 -0.1540  0.0792  0.0376
  120OSM    O1312566   5.344   5.454   6.895  0.0429  0.0744  0.0868
  120OSM    O1412567   5.126   5.341   6.951 -0.7773  0.6137 -0.2565
  120OSM    O1112568   5.194   5.361   6.713  0.0335  0.1596  0.8245
  120OSM    O1212569   5.138   5.558   6.848  0.1219  0.5063  0.2408
  120OSM    C1S12570   5.219   5.434   6.596 -0.5403  0.5903  0.9441
  120OSM    H1S12571   5.327   5.432   6.570 -0.9505  1.6486 -1.0591
  120OSM    H1T12572   5.185   5.539   6.615 -0.1857  0.9284 -0.1840
  120OSM     NF12573   5.188   5.435   6.360 -0.3142 -0.3143  0.1046
  120OSM    HNF12574   5.163   5.524   6.322 -3.3546 -2.1796 -2.9300
  120OSM    C2S12575   5.128   5.388   6.486 -0.0102 -0.1999  1.5234
  120OSM    H2S12576   5.136   5.277   6.485 -2.2934 -0.4198  0.6907
  120OSM    C3S12577   4.972   5.422   6.496  0.1156  0.7693 -0.0849
  120OSM    H3S12578   4.965   5.532   6.510  1.1848  0.6641  1.5784
  120OSM     O312579   4.903   5.375   6.617  0.0432 -0.8242 -0.0280
  120OSM    HO312580   4.972   5.379   6.683 -1.8881 -0.5793  2.0922
  120OSM    C4S12581   4.903   5.392   6.372 -0.7208  0.0756  0.2189
  120OSM    H4S12582   4.892   5.481   6.309  0.0823  0.5965  0.7840
  120OSM    C5S12583   4.852   5.275   6.329 -0.2667  0.0581  0.6516
  120OSM    H5S12584   4.845   5.189   6.397  0.3273 -0.2885  0.2870
  120OSM    C6S12585   4.800   5.242   6.189 -0.8732 -0.1096  0.2004
  120OSM    H6S12586   4.690   5.259   6.181 -0.8694 -0.8269 -2.5239
  120OSM    H6T12587   4.818   5.133   6.173  0.6499  0.0552  0.6970
  120OSM    C7S12588   4.857   5.321   6.076 -0.1379 -0.4189  0.4050
  120OSM    H7S12589   4.968   5.327   6.075 -0.0195 -1.5412 -2.2576
  120OSM    H7T12590   4.833   5.429   6.089  0.8091 -0.2798  1.0572
  120OSM    C8S12591   4.815   5.259   5.942 -0.5963 -0.3072 -0.0977
  120OSM    H8S12592   4.704   5.260   5.941 -0.6882 -2.4874 -2.4535
  120OSM    H8T12593   4.828   5.149   5.939 -0.8775 -0.3291 -2.5346
  120OSM    C9S12594   4.871   5.332   5.817 -0.7055  0.1426  0.0287
  120OSM    H9S12595   4.857   5.442   5.823 -0.7822  0.0998  0.8622
  120OSM    H9T12596   4.818   5.297   5.726 -1.5588  0.9281  0.2064
  120OSM   C10S12597   5.022   5.309   5.793 -0.3406 -0.4453  0.4939
  120OSM   H10S12598   5.043   5.202   5.772  3.8661  0.0290  1.3484
  120OSM   H10T12599   5.076   5.341   5.885  0.3652 -3.3864  1.2072
  120OSM   C11S12600   5.065   5.381   5.669  0.1788 -0.6148  0.5928
  120OSM   H11S12601   5.175   5.380   5.652 -0.1644 -2.1279 -2.1067
  120OSM   H11T12602   5.021   5.483   5.670 -2.3721 -1.6248  2.0882
  120OSM   C12S12603   5.016   5.312   5.534  0.2972 -0.1584  0.4884
  120OSM   H12S12604   4.907   5.331   5.529  0.3232 -0.2624 -0.9400
  120OSM   H12T12605   5.015   5.201   5.537  0.3524 -0.2182 -0.9250
  120OSM   C13S12606   5.097   5.344   5.407 -0.2738  0.0821 -0.4092
  120OSM   H13S12607   5.190   5.284   5.399 -1.2618 -1.7049  0.7077
  120OSM   H13T12608   5.112   5.454   5.407  2.2585 -0.1921 -0.0120
  120OSM   C14S12609   5.018   5.314   5.276 -0.7292 -0.2207  0.0677
  120OSM   H14S12610   4.951   5.399   5.251 -1.2481 -0.4192  0.7567
  120OSM   H14T12611   4.949   5.227   5.280 -1.2763  0.1985 -0.1164
  120OSM   C15S12612   5.117   5.293   5.157 -0.4880  0.4479  0.3507
  120OSM   H15S12613   5.210   5.350   5.173 -1.2627  1.5160  1.2152
  120OSM   H15T12614   5.060   5.325   5.067  0.3279 -1.3792 -0.8728
  120OSM   C16S12615   5.149   5.146   5.128  0.3048  0.1816  0.1097
  120OSM   H16S12616   5.058   5.090   5.097  0.9246  0.1672 -1.8359
  120OSM   H16T12617   5.178   5.087   5.217  2.2085 -0.3703 -0.8088
  120OSM   C17S12618   5.257   5.132   5.014 -0.4270 -0.6597 -0.5554
  120OSM   H17S12619   5.290   5.026   5.010  0.4489 -0.4814  0.8781
  120OSM   H17T12620   5.351   5.181   5.050 -0.1055 -2.2790  0.9926
  120OSM   C18S12621   5.218   5.181   4.876 -0.1717  0.0573 -0.0911
  120OSM   H18S12622   5.177   5.284   4.875 -1.5063 -0.4476 -0.7980
  120OSM   H18T12623   5.146   5.109   4.831 -0.0575  0.1343 -0.3998
  120OSM   H18U12624   5.311   5.175   4.815 -1.1788 -0.3500 -1.6440
  120OSM    C1F12625   5.294   5.373   6.302  0.2753  0.0075 -1.2399
  120OSM     OF12626   5.338   5.271   6.344  0.3974 -0.1948  0.0684
  120OSM    C2F12627   5.352   5.433   6.179  0.3338  1.0650  0.6632
  120OSM    H2F12628   5.340   5.361   6.096 -0.9121  0.8696  0.9999
  120OSM    H2G12629   5.459   5.450   6.202  0.9734 -1.7818  0.1087
  120OSM    C3F12630   5.288   5.565   6.113 -0.2169 -0.6777 -0.5055
  120OSM    H3F12631   5.296   5.646   6.188 -0.0738 -2.0662  1.0424
  120OSM    H3G12632   5.178   5.550   6.103 -0.5010 -0.5564  1.9623
  120OSM    C4F12633   5.361   5.617   5.986  0.9175 -0.1830  0.2304
  120OSM    H4F12634   5.471   5.619   6.002  1.0178  1.1537 -0.4842
  120OSM    H4G12635   5.330   5.720   5.958  0.0643 -0.3761  0.4511
  120OSM    C5F12636   5.345   5.534   5.857  0.0477  0.2748  0.8761
  120OSM    H5F12637   5.240   5.550   5.824  0.1101 -1.3211 -0.1947
  120OSM    H5G12638   5.356   5.430   5.895  0.5079 -0.3253 -0.7986
  120OSM    C6F12639   5.445   5.574   5.751 -0.2964 -0.8518  0.2770
  120OSM    H6F12640   5.551   5.558   5.782  1.2609  2.4592 -2.5968
  120OSM    H6G12641   5.440   5.683   5.729  2.9917 -0.8277 -0.9776
  120OSM    C7F12642   5.428   5.493   5.618 -0.3383 -0.1794  0.4135
  120OSM    H7F12643   5.322   5.515   5.595  0.0292  0.7282 -0.4698
  120OSM    H7G12644   5.446   5.386   5.645  1.2106  0.2084  1.0350
  120OSM    C8F12645   5.526   5.520   5.505  0.3251 -1.2203 -0.5088
  120OSM    H8F12646   5.509   5.447   5.423 -3.0232 -0.8510 -0.2923
  120OSM    H8G12647   5.629   5.509   5.546  0.2664 -0.8944 -0.2745
  120OSM    C9F12648   5.512   5.657   5.446  0.4107  0.4894  0.1031
  120OSM    H9F12649   5.537   5.739   5.515  1.5335 -0.5491  0.9724
  120OSM   C10F12650   5.475   5.697   5.322 -0.7892 -0.1930  0.3558
  120OSM   H10F12651   5.471   5.804   5.296 -1.4633 -0.3855 -0.3725
  120OSM   C11F12652   5.443   5.607   5.200 -0.0448  0.0133 -0.2192
  120OSM   H11F12653   5.334   5.589   5.189 -0.8834  1.0619  4.4467
  120OSM   H11G12654   5.481   5.503   5.207  2.8671  1.0155  0.5470
  120OSM   C12F12655   5.497   5.674   5.072 -0.0150 -0.7500  0.1241
  120OSM   H12F12656   5.608   5.680   5.070 -0.0113 -0.9253 -0.3110
  120OSM   H12G12657   5.455   5.776   5.058  2.7350  0.1608 -2.8523
  120OSM   C13F12658   5.465   5.586   4.955  0.5480 -0.5039  0.1429
  120OSM   H13F12659   5.356   5.566   4.952  0.6855 -1.3952  0.7118
  120OSM   H13G12660   5.511   5.486   4.971 -1.9784 -2.0497 -1.7081
  120OSM   C14F12661   5.492   5.645   4.819  0.8734  0.1167  0.1334
  120OSM   H14F12662   5.595   5.687   4.826 -0.5571  3.6331  2.7046
  120OSM   H14G12663   5.430   5.736   4.809 -1.0522 -1.2117 -0.6085
  120OSM   C15F12664   5.478   5.549   4.699  0.6384  0.5382 -0.9667
  120OSM   H15F12665   5.394   5.477   4.713  1.1694 -0.0716 -0.8836
  120OSM   H15G12666   5.572   5.491   4.684  0.0536 -0.3259 -1.3642
  120OSM   C16F12667   5.447   5.627   4.572  0.3106 -0.2908  0.8533
  120OSM   H16F12668   5.486   5.564   4.489 -1.6023 -1.1166  0.5268
  120OSM   H16G12669   5.510   5.717   4.553 -0.4700 -0.1220 -1.2860
  120OSM   C17F12670   5.305   5.670   4.551 -0.0923  0.7548 -0.5470
  120OSM   H17F12671   5.266   5.730   4.636 -2.4120  0.5548 -1.4020
  120OSM   H17G12672   5.233   5.588   4.533  0.0211  0.4095  0.5067
  120OSM   C18F12673   5.296   5.754   4.424 -0.2289  0.5670 -0.2588
  120OSM   H18F12674   5.196   5.792   4.394 -0.1336  0.6524 -0.4708
  120OSM   H18G12675   5.341   5.697   4.340  0.6140 -0.1023  0.6267
  120OSM   H18H12676   5.365   5.840   4.440  0.4352  0.4267 -2.1490
  121OSM      N12677   6.524   1.506   6.606  0.1371 -0.1183 -0.6543
  121OSM    C1512678   6.650   1.429   6.581  0.5158 -0.1188  0.1860
  121OSM   H15A12679   6.702   1.484   6.504 -0.5048 -0.9058 -1.0990
  121OSM   H15B12680   6.628   1.330   6.545  1.3173 -0.4584  0.5870
  121OSM   H15C12681   6.713   1.429   6.669  0.0917 -1.2117  0.5040
  121OSM    C1412682   6.445   1.429   6.709 -0.7161  0.1769 -0.4092
  121OSM   H14A12683   6.369   1.492   6.754  0.3212  1.3895 -0.3152
  121OSM   H14B12684   6.509   1.389   6.786  0.0048  1.1983 -0.4661
  121OSM   H14C12685   6.387   1.351   6.662 -0.6043 -0.9767  1.2878
  121OSM    C1312686   6.557   1.642   6.669 -0.1198  0.2072 -0.0476
  121OSM   H13A12687   6.631   1.638   6.749  0.6404 -0.2927 -0.7632
  121OSM   H13B12688   6.466   1.685   6.708 -0.9881 -0.0581 -1.7072
  121OSM   H13C12689   6.605   1.710   6.600  1.6753  3.6384  4.0807
  121OSM    C1212690   6.443   1.519   6.473  0.0351 -0.1369  0.1645
  121OSM   H12A12691   6.485   1.580   6.395 -2.3011  1.9388  0.4274
  121OSM   H12B12692   6.353   1.574   6.496  0.8676  2.7956 -2.8713
  121OSM    C1112693   6.400   1.382   6.404  0.0282  0.0514  0.1537
  121OSM   H11A12694   6.487   1.313   6.402 -0.1180 -0.1340  0.1560
  121OSM   H11B12695   6.367   1.401   6.300 -0.1247 -0.6528  0.0666
  121OSM      P12696   6.149   1.358   6.470  0.5415 -0.2281  0.7879
  121OSM    O1312697   6.063   1.259   6.540 -0.4762 -0.1812 -0.1191
  121OSM    O1412698   6.139   1.498   6.517 -0.5260  0.2021  0.4623
  121OSM    O1112699   6.115   1.350   6.319 -0.0285  0.3005 -0.6936
  121OSM    O1212700   6.297   1.308   6.477  0.0101 -0.6343  0.2519
  121OSM    C1S12701   6.056   1.444   6.230  0.4956 -1.0844  0.1943
  121OSM    H1S12702   6.118   1.536   6.238  2.1866 -2.1636 -0.1315
  121OSM    H1T12703   5.958   1.483   6.266  1.2435  2.3953 -1.1306
  121OSM     NF12704   6.032   1.496   5.990 -0.4975 -0.2401 -0.2650
  121OSM    HNF12705   5.943   1.487   5.946 -0.3323 -0.5123 -0.5394
  121OSM    C2S12706   6.054   1.392   6.084 -0.3883  0.1952  0.1513
  121OSM    H2S12707   6.149   1.336   6.067 -0.4074  0.0530  0.5176
  121OSM    C3S12708   5.946   1.281   6.074 -0.0329 -0.2228 -0.7923
  121OSM    H3S12709   5.850   1.333   6.091 -0.0859 -0.2636 -0.9613
  121OSM     O312710   5.947   1.178   6.176 -0.2147  0.1878 -0.0731
  121OSM    HO312711   6.002   1.220   6.243 -0.5245  2.6690 -1.2784
  121OSM    C4S12712   5.936   1.229   5.935 -0.6310  0.6920  0.3596
  121OSM    H4S12713   5.845   1.264   5.883 -1.4345  0.0429  1.3024
  121OSM    C5S12714   6.016   1.128   5.881 -1.1437 -0.3229 -0.1652
  121OSM    H5S12715   6.105   1.093   5.935 -0.1672  1.8145 -0.2923
  121OSM    C6S12716   5.993   1.076   5.735 -0.3126  0.3417  0.6321
  121OSM    H6S12717   5.925   0.990   5.751 -0.2925 -0.0350 -1.0734
  121OSM    H6T12718   6.090   1.042   5.694  0.2900  0.6942  1.7413
  121OSM    C7S12719   5.910   1.153   5.633 -0.2614 -0.4432 -0.0247
  121OSM    H7S12720   5.940   1.260   5.637 -3.0402  0.3796  2.0507
  121OSM    H7T12721   5.803   1.155   5.662 -0.0662  4.1820  1.2465
  121OSM    C8S12722   5.928   1.110   5.490  0.1200  0.4067  0.2593
  121OSM    H8S12723   5.868   1.018   5.474 -0.0649  0.8541 -1.9058
  121OSM    H8T12724   6.037   1.088   5.485  0.0989  0.0767  1.1697
  121OSM    C9S12725   5.887   1.216   5.385  0.5333  0.0579 -0.5565
  121OSM    H9S12726   5.930   1.311   5.424 -0.2972  1.3828 -2.7159
  121OSM    H9T12727   5.778   1.229   5.372  0.4440 -2.8401 -3.8938
  121OSM   C10S12728   5.918   1.176   5.238 -0.7033  0.0708 -0.2379
  121OSM   H10S12729   5.842   1.126   5.175 -0.5471 -0.9132  0.3165
  121OSM   H10T12730   6.005   1.107   5.249 -1.9519 -1.3513  1.1231
  121OSM   C11S12731   5.987   1.290   5.160  0.4143 -0.5857 -0.6056
  121OSM   H11S12732   6.047   1.353   5.229 -0.3139  0.0138 -0.5096
  121OSM   H11T12733   5.907   1.346   5.108  0.1101 -2.5498 -2.4149
  121OSM   C12S12734   6.081   1.242   5.048 -0.0482 -0.4244 -0.1749
  121OSM   H12S12735   6.041   1.155   4.991 -0.0002  0.4104 -1.5214
  121OSM   H12T12736   6.170   1.197   5.098 -0.8918 -0.8696  0.9846
  121OSM   C13S12737   6.131   1.351   4.949 -0.1124  0.2942 -0.0180
  121OSM   H13S12738   6.139   1.441   5.013 -3.5553 -0.6843  2.0436
  121OSM   H13T12739   6.068   1.383   4.863  1.4635  2.4823 -0.4644
  121OSM   C14S12740   6.264   1.315   4.890 -0.9778 -0.4832  0.5065
  121OSM   H14S12741   6.249   1.222   4.830 -1.5323 -0.5839  0.7937
  121OSM   H14T12742   6.343   1.290   4.963 -1.3632  0.7260  1.3691
  121OSM   C15S12743   6.322   1.437   4.816  0.3034 -0.1123 -0.6528
  121OSM   H15S12744   6.432   1.443   4.828  0.0537  2.5730  1.0666
  121OSM   H15T12745   6.280   1.532   4.856 -1.1846 -1.6404  1.6202
  121OSM   C16S12746   6.285   1.426   4.664 -0.3252 -0.1787 -0.2194
  121OSM   H16S12747   6.176   1.450   4.662  0.3491  3.5329 -0.0601
  121OSM   H16T12748   6.302   1.329   4.613  1.2314  0.6389 -1.3545
  121OSM   C17S12749   6.357   1.531   4.577 -0.2144  0.1616  0.5738
  121OSM   H17S12750   6.466   1.508   4.574 -0.3085 -0.1473 -0.8846
  121OSM   H17T12751   6.336   1.625   4.632 -1.4691  0.1806  0.0862
  121OSM   C18S12752   6.308   1.533   4.434 -0.1759 -0.2540  0.8472
  121OSM   H18S12753   6.205   1.497   4.451 -0.6389  1.6738  2.5196
  121OSM   H18T12754   6.364   1.465   4.366 -0.0654  0.9076 -0.2511
  121OSM   H18U12755   6.288   1.637   4.400  1.6314 -0.1148  0.0749
  121OSM    C1F12756   6.107   1.604   5.961 -0.9292  0.1082 -0.3373
  121OSM     OF12757   6.194   1.645   6.040 -0.1916 -0.5041 -0.3116
  121OSM    C2F12758   6.076   1.677   5.833 -0.0402 -0.2414  0.8052
  121OSM    H2F12759   6.139   1.768   5.827 -1.2398  0.5625 -0.1451
  121OSM    H2G12760   5.971   1.712   5.830  0.3544  0.9271 -0.3866
  121OSM    C3F12761   6.106   1.601   5.701 -0.4476 -0.5043 -0.0988
  121OSM    H3F12762   6.036   1.518   5.676  0.9159 -1.6246 -0.3253
  121OSM    H3G12763   6.206   1.553   5.705 -1.3094 -2.4948 -0.8801
  121OSM    C4F12764   6.104   1.686   5.571  0.0112  0.0956 -0.0022
  121OSM    H4F12765   6.175   1.768   5.595  2.0206 -1.6517  0.2907
  121OSM    H4G12766   6.001   1.726   5.555 -0.0772 -1.1811 -3.4610
  121OSM    C5F12767   6.146   1.600   5.449 -0.0550  0.4705  0.3561
  121OSM    H5F12768   6.087   1.506   5.453  1.4808 -0.5200  0.8866
  121OSM    H5G12769   6.255   1.578   5.451 -0.1226  0.1280  0.3445
  121OSM    C6F12770   6.125   1.661   5.311 -0.0163  0.6724  0.1397
  121OSM    H6F12771   6.184   1.612   5.231  1.8148 -1.0917  2.4238
  121OSM    H6G12772   6.155   1.768   5.317 -1.7765  1.1397  1.2756
  121OSM    C7F12773   5.983   1.658   5.260 -0.3544  0.3391 -0.2251
  121OSM    H7F12774   5.916   1.710   5.331  0.3039 -0.4125  0.9701
  121OSM    H7G12775   5.951   1.554   5.240  1.5155  0.0395 -2.1552
  121OSM    C8F12776   5.980   1.726   5.116  0.3887  0.0390  0.8618
  121OSM    H8F12777   6.058   1.672   5.058  1.6757  0.6754  1.9243
  121OSM    H8G12778   6.021   1.829   5.128  0.2234  0.4119 -1.3387
  121OSM    C9F12779   5.845   1.752   5.056 -0.1827 -0.0787  0.1960
  121OSM    H9F12780   5.767   1.762   5.134 -0.5225  1.7962 -0.3226
  121OSM   C10F12781   5.819   1.728   4.928  0.1512 -0.3710 -0.4104
  121OSM   H10F12782   5.717   1.747   4.891  0.5711 -0.1970 -1.5228
  121OSM   C11F12783   5.914   1.702   4.807  0.6919  0.6312 -0.6455
  121OSM   H11F12784   5.849   1.678   4.720 -2.7035  1.7464  1.3710
  121OSM   H11G12785   5.976   1.611   4.823  0.7071  0.6163 -0.7872
  121OSM   C12F12786   6.001   1.823   4.778 -0.5778 -0.1266 -0.0600
  121OSM   H12F12787   6.083   1.826   4.853  0.7501  0.3362 -1.4873
  121OSM   H12G12788   5.949   1.919   4.801  0.8549  0.8146 -0.6477
  121OSM   C13F12789   6.048   1.838   4.632  0.6528 -0.1350  0.2239
  121OSM   H13F12790   5.958   1.830   4.566 -1.0768  1.6542  2.1754
  121OSM   H13G12791   6.104   1.746   4.607 -2.3161 -1.8744 -0.5674
  121OSM   C14F12792   6.114   1.970   4.594 -0.3534  0.2328  0.0630
  121OSM   H14F12793   6.204   1.986   4.657  1.9399  0.4087 -3.0601
  121OSM   H14G12794   6.039   2.046   4.626 -0.8163 -0.0027 -0.4429
  121OSM   C15F12795   6.135   1.996   4.445 -0.3016  0.3034  0.2902
  121OSM   H15F12796   6.031   2.015   4.412 -0.0859  0.8449 -0.1014
  121OSM   H15G12797   6.187   1.904   4.411  0.1163  0.3370  0.8316
  121OSM   C16F12798   6.215   2.119   4.413  0.2921 -0.3216  0.5548
  121OSM   H16F12799   6.319   2.096   4.446 -0.2447 -2.0584  1.1646
  121OSM   H16G12800   6.177   2.204   4.472  0.1105 -0.6346  0.8955
  121OSM   C17F12801   6.214   2.168   4.268  0.4396 -0.1533  0.5684
  121OSM   H17F12802   6.110   2.174   4.228  0.5465 -1.1331  0.1352
  121OSM   H17G12803   6.279   2.096   4.215  1.6851  1.8288 -0.7256
  121OSM   C18F12804   6.263   2.315   4.264 -1.1600 -0.6023  0.6168
  121OSM   H18F12805   6.368   2.315   4.301 -0.1099  1.5704 -2.0124
  121OSM   H18G12806   6.182   2.362   4.324  0.1444  1.0904  1.1448
  121OSM   H18H12807   6.263   2.351   4.159 -0.8293 -1.9333  0.1446
  122OSM      N12808   6.319   4.012   6.880 -0.3927 -0.0041 -0.6538
  122OSM    C1512809   6.386   3.882   6.914  0.0187  0.5256  0.6475
  122OSM   H15A12810   6.469   3.870   6.846  0.2047  2.6764  0.4323
  122OSM   H15B12811   6.317   3.802   6.891  0.1286  1.0298 -1.6909
  122OSM   H15C12812   6.412   3.870   7.018  0.9767 -0.2189  0.3397
  122OSM    C1412813   6.207   4.040   6.971 -0.1621 -0.7093 -0.5725
  122OSM   H14A12814   6.247   4.088   7.060  2.1723 -2.3417 -0.6274
  122OSM   H14B12815   6.158   3.947   6.995  2.0739 -2.2459 -1.5913
  122OSM   H14C12816   6.134   4.105   6.927  0.1720 -0.3530 -0.6056
  122OSM    C1312817   6.414   4.123   6.887 -0.9247  0.4472 -0.4015
  122OSM   H13A12818   6.420   4.158   6.989 -0.6609  1.0207 -0.6031
  122OSM   H13B12819   6.379   4.199   6.818  1.0155  1.6669 -0.1492
  122OSM   H13C12820   6.512   4.088   6.857 -1.3804 -0.5656 -0.7412
  122OSM    C1212821   6.262   4.001   6.738  0.1884 -0.0779 -0.0982
  122OSM   H12A12822   6.199   3.913   6.733 -1.3206  0.9721 -0.4233
  122OSM   H12B12823   6.351   3.983   6.680  0.0726  2.2632 -1.1422
  122OSM    C1112824   6.182   4.116   6.683  0.0923  0.0517 -0.0047
  122OSM   H11A12825   6.084   4.114   6.735 -0.1469  1.3978 -0.3597
  122OSM   H11B12826   6.161   4.096   6.576 -0.3975 -1.2145  0.3049
  122OSM      P12827   6.166   4.375   6.711 -0.3782 -0.1537 -0.4599
  122OSM    O1312828   6.120   4.369   6.849  0.2097 -0.3026 -0.5657
  122OSM    O1412829   6.259   4.486   6.669 -0.0568  0.1669  0.0896
  122OSM    O1112830   6.034   4.371   6.620  0.2115  0.0994  0.0926
  122OSM    O1212831   6.246   4.247   6.686  0.6595 -0.5565 -0.2364
  122OSM    C1S12832   6.051   4.366   6.483 -0.2343  0.1184  0.5940
  122OSM    H1S12833   6.036   4.258   6.463  0.3930  0.2453 -0.6257
  122OSM    H1T12834   6.148   4.405   6.447  1.0663 -2.4358  1.1131
  122OSM     NF12835   5.966   4.425   6.261 -0.4156  0.1281  0.1075
  122OSM    HNF12836   6.028   4.472   6.199 -1.8467 -0.9591 -2.3123
  122OSM    C2S12837   5.951   4.450   6.406 -0.9809  0.2840  0.3976
  122OSM    H2S12838   5.854   4.398   6.425 -1.0801  0.7607  1.2711
  122OSM    C3S12839   5.936   4.597   6.463 -0.5484  0.3095 -0.2048
  122OSM    H3S12840   6.037   4.642   6.459 -1.1630  1.6707 -1.0230
  122OSM     O312841   5.892   4.593   6.600 -0.1067  0.1599  0.6228
  122OSM    HO312842   5.927   4.507   6.623  0.7449 -0.3296 -2.0878
  122OSM    C4S12843   5.841   4.687   6.387  0.3933 -0.4081 -0.4273
  122OSM    H4S12844   5.735   4.656   6.384  0.5583 -0.9173 -2.2263
  122OSM    C5S12845   5.875   4.796   6.313  0.3729 -0.5201 -0.8554
  122OSM    H5S12846   5.979   4.832   6.308 -0.7601  3.2544 -0.4799
  122OSM    C6S12847   5.783   4.857   6.217 -0.0222 -0.3844 -0.1459
  122OSM    H6S12848   5.839   4.884   6.125  2.6422  0.0902  1.4955
  122OSM    H6T12849   5.740   4.950   6.260  2.3830  0.9014 -0.3142
  122OSM    C7S12850   5.669   4.775   6.168 -0.5681 -0.0722  0.5211
  122OSM    H7S12851   5.619   4.844   6.097  0.8062 -0.6807 -1.1034
  122OSM    H7T12852   5.586   4.762   6.241 -2.6432  1.1636 -1.4770
  122OSM    C8S12853   5.722   4.641   6.094 -0.7960 -0.0860 -0.8422
  122OSM    H8S12854   5.739   4.562   6.169  1.5732  1.1633  0.0473
  122OSM    H8T12855   5.824   4.659   6.055  0.6551 -2.1083  1.7336
  122OSM    C9S12856   5.636   4.590   5.972  0.1838 -0.3401 -0.8645
  122OSM    H9S12857   5.540   4.552   6.014 -0.5672 -0.6261 -2.7309
  122OSM    H9T12858   5.684   4.500   5.928 -0.3121 -0.0239 -2.0876
  122OSM   C10S12859   5.580   4.687   5.874 -0.0841 -0.6936 -0.4849
  122OSM   H10S12860   5.654   4.768   5.857  0.1344 -0.8027 -0.0536
  122OSM   H10T12861   5.491   4.743   5.910  0.5466  1.1914 -1.7157
  122OSM   C11S12862   5.551   4.621   5.737  0.5075 -0.1909  0.0145
  122OSM   H11S12863   5.460   4.661   5.689 -1.6953  0.4640  4.1893
  122OSM   H11T12864   5.506   4.520   5.756  1.3135 -1.0533 -2.3624
  122OSM   C12S12865   5.674   4.611   5.646 -0.3018  0.0041  0.1171
  122OSM   H12S12866   5.747   4.556   5.709 -0.6604 -0.7307 -0.0969
  122OSM   H12T12867   5.706   4.716   5.635  1.7806 -0.6010  0.0447
  122OSM   C13S12868   5.649   4.536   5.515  0.5645 -0.2215  0.3141
  122OSM   H13S12869   5.554   4.478   5.515 -0.0030  0.5203 -2.7705
  122OSM   H13T12870   5.734   4.469   5.490 -1.2402 -2.2363 -0.7271
  122OSM   C14S12871   5.615   4.628   5.395 -0.1272  0.1581  0.4045
  122OSM   H14S12872   5.714   4.677   5.383  1.4294 -2.9490 -0.5116
  122OSM   H14T12873   5.534   4.697   5.427  0.7155 -0.0499  3.2873
  122OSM   C15S12874   5.585   4.554   5.265 -0.7552 -0.8309 -0.4220
  122OSM   H15S12875   5.487   4.506   5.287 -0.2448 -1.9566 -0.5330
  122OSM   H15T12876   5.663   4.478   5.241  0.7963  0.0096  1.6232
  122OSM   C16S12877   5.567   4.654   5.151  0.3946 -0.0624  1.2228
  122OSM   H16S12878   5.657   4.718   5.141  0.6809 -0.7893 -2.6606
  122OSM   H16T12879   5.481   4.719   5.175  0.1569  0.4184 -0.7147
  122OSM   C17S12880   5.542   4.593   5.014  0.0906 -0.3437  0.0660
  122OSM   H17S12881   5.460   4.518   5.023  0.2626 -0.4449  0.9191
  122OSM   H17T12882   5.621   4.534   4.963 -1.4399 -3.4608  1.0242
  122OSM   C18S12883   5.484   4.696   4.916 -0.2007  0.0362 -0.4709
  122OSM   H18S12884   5.423   4.777   4.961 -1.0238  0.6714 -2.5880
  122OSM   H18T12885   5.435   4.649   4.828  3.3483  0.0016 -2.6496
  122OSM   H18U12886   5.572   4.745   4.868 -0.0639 -0.8679 -1.1691
  122OSM    C1F12887   5.939   4.307   6.201  0.8495 -0.1183  0.4816
  122OSM     OF12888   5.879   4.220   6.263 -0.4097 -0.3991  0.5279
  122OSM    C2F12889   5.961   4.310   6.053  0.0534  0.4385  0.9272
  122OSM    H2F12890   6.070   4.323   6.037 -0.1673  1.0245 -0.2652
  122OSM    H2G12891   5.909   4.400   6.015 -1.0806 -0.8480 -0.7354
  122OSM    C3F12892   5.895   4.186   5.977 -0.4714 -0.4060 -0.5220
  122OSM    H3F12893   5.785   4.179   5.993 -0.3710  1.4951  1.4469
  122OSM    H3G12894   5.932   4.097   6.032 -0.2035  0.6985  1.1412
  122OSM    C4F12895   5.935   4.171   5.829  0.5605 -0.3556  0.2593
  122OSM    H4F12896   6.043   4.148   5.835  0.7319 -0.3582 -2.0059
  122OSM    H4G12897   5.937   4.262   5.765  1.5743  0.0802  0.8952
  122OSM    C5F12898   5.865   4.066   5.748 -0.1642 -0.8108  0.6804
  122OSM    H5F12899   5.757   4.082   5.730 -0.1150 -1.0068  0.1998
  122OSM    H5G12900   5.863   3.969   5.803 -0.5143 -0.8192  0.6543
  122OSM    C6F12901   5.941   4.048   5.617  0.1859 -0.2645 -0.0669
  122OSM    H6F12902   5.950   3.943   5.583 -0.5027 -0.5711  0.6549
  122OSM    H6G12903   6.046   4.084   5.621  0.6649 -1.4284 -1.3398
  122OSM    C7F12904   5.881   4.144   5.510 -0.3019  0.3117  0.5212
  122OSM    H7F12905   5.884   4.242   5.561 -3.1569  2.0813 -2.3747
  122OSM    H7G12906   5.776   4.111   5.499  0.0034  0.0611 -2.2473
  122OSM    C8F12907   5.956   4.145   5.379 -0.1516 -1.5839  0.3387
  122OSM    H8F12908   5.951   4.046   5.327 -0.8989 -0.7018 -1.3426
  122OSM    H8G12909   6.061   4.170   5.407 -0.7604  2.0510 -0.1825
  122OSM    C9F12910   5.892   4.250   5.290 -0.4558  0.1594 -0.2852
  122OSM    H9F12911   5.864   4.343   5.342 -0.1507  0.5146 -0.7471
  122OSM   C10F12912   5.880   4.239   5.155  0.2381 -0.5001 -0.4663
  122OSM   H10F12913   5.840   4.324   5.098 -1.3215 -0.9885 -0.1549
  122OSM   C11F12914   5.922   4.121   5.067  0.1922 -0.8720 -0.2646
  122OSM   H11F12915   5.839   4.081   5.005 -0.7505  0.9544 -0.2274
  122OSM   H11G12916   5.969   4.037   5.122  0.2182 -1.1506 -0.7049
  122OSM   C12F12917   6.035   4.164   4.966 -0.0141 -0.2458 -0.0796
  122OSM   H12F12918   6.041   4.070   4.907  3.2700  0.3172 -0.7963
  122OSM   H12G12919   6.127   4.189   5.021  1.0431  0.1556 -1.9437
  122OSM   C13F12920   5.987   4.280   4.875 -0.1529 -0.8193  0.4121
  122OSM   H13F12921   5.997   4.380   4.921  0.0786 -0.6569  0.0066
  122OSM   H13G12922   5.877   4.267   4.864 -0.1514 -0.6984  0.2570
  122OSM   C14F12923   6.049   4.277   4.739  0.1312  0.1802 -0.2148
  122OSM   H14F12924   5.991   4.347   4.674  1.1947  0.5272 -0.8250
  122OSM   H14G12925   6.048   4.178   4.688 -0.6915  0.7963 -1.4690
  122OSM   C15F12926   6.193   4.341   4.729 -0.1096 -0.3221 -0.0245
  122OSM   H15F12927   6.275   4.267   4.740  2.0174  1.7808 -0.8576
  122OSM   H15G12928   6.194   4.412   4.815 -2.8221 -0.9230  0.6097
  122OSM   C16F12929   6.217   4.410   4.592  0.1833 -0.7909  0.5269
  122OSM   H16F12930   6.135   4.483   4.571  0.1429 -1.0326 -0.1851
  122OSM   H16G12931   6.214   4.335   4.510  2.0866  1.9884 -2.2988
  122OSM   C17F12932   6.355   4.486   4.581 -0.7968 -0.0422  0.2788
  122OSM   H17F12933   6.436   4.412   4.596 -0.2953  0.3608 -0.4134
  122OSM   H17G12934   6.359   4.560   4.664 -2.4359 -0.3514  0.6793
  122OSM   C18F12935   6.382   4.550   4.444  0.5937 -0.9172  0.1737
  122OSM   H18F12936   6.325   4.644   4.426  1.3850 -0.3340  0.6363
  122OSM   H18G12937   6.348   4.477   4.369 -0.0072 -0.7448  0.2722
  122OSM   H18H12938   6.490   4.566   4.424  0.3749 -1.3875 -1.4609
  123OSM      N12939   2.482   2.596   2.573  0.1037  0.1612  0.1717
  123OSM    C1512940   2.398   2.524   2.672  0.2276  0.6617  0.4739
  123OSM   H15A12941   2.402   2.417   2.656  0.0130  0.8581 -1.0448
  123OSM   H15B12942   2.293   2.545   2.668  0.4332  1.5287 -2.4716
  123OSM   H15C12943   2.439   2.541   2.771  0.9773  2.2781 -0.0894
  123OSM    C1412944   2.623   2.556   2.580  0.8487 -0.2665 -0.0190
  123OSM   H14A12945   2.677   2.599   2.663  1.4988  0.0805 -0.6152
  123OSM   H14B12946   2.674   2.591   2.492 -0.5808  1.1106 -0.3387
  123OSM   H14C12947   2.633   2.448   2.574 -2.0399 -0.7739  2.0128
  123OSM    C1312948   2.425   2.568   2.431  0.5377 -0.1231 -0.1403
  123OSM   H13A12949   2.419   2.463   2.406 -3.1162 -0.2253  0.6535
  123OSM   H13B12950   2.465   2.625   2.349 -1.8613  1.2731 -0.4260
  123OSM   H13C12951   2.322   2.600   2.423  0.7124  0.0210 -2.6255
  123OSM    C1212952   2.476   2.746   2.595  0.1755 -0.1391 -0.9293
  123OSM   H12A12953   2.541   2.797   2.527  1.5027 -0.2312  0.2286
  123OSM   H12B12954   2.518   2.772   2.691 -2.6475  0.8620  0.1362
  123OSM    C1112955   2.333   2.813   2.583 -0.6463  0.3215  0.9552
  123OSM   H11A12956   2.346   2.919   2.616 -1.3881  0.8235 -0.2904
  123OSM   H11B12957   2.261   2.774   2.658  1.2291 -1.8668  1.7256
  123OSM      P12958   2.309   2.911   2.337  0.4541  0.4425  0.3358
  123OSM    O1312959   2.456   2.937   2.331 -0.1185  0.0541 -0.1715
  123OSM    O1412960   2.244   2.874   2.211  0.2768  0.5343  0.0639
  123OSM    O1112961   2.245   3.030   2.398  0.1101  0.4711  0.7730
  123OSM    O1212962   2.278   2.806   2.448 -0.0240 -0.2001 -0.8209
  123OSM    C1S12963   2.107   3.063   2.382  0.4130 -0.7742  0.2608
  123OSM    H1S12964   2.046   3.006   2.310 -1.9222  0.2864  1.2716
  123OSM    H1T12965   2.098   3.167   2.343 -0.9016 -1.0475 -0.2109
  123OSM     NF12966   1.898   3.047   2.490 -0.0845 -0.3045  0.2397
  123OSM    HNF12967   1.847   3.132   2.496 -0.7328 -0.6896  0.1998
  123OSM    C2S12968   2.039   3.051   2.522 -0.9600 -0.7856  0.3086
  123OSM    H2S12969   2.079   2.959   2.569  2.7891  0.5541  0.1007
  123OSM    C3S12970   2.090   3.177   2.606  0.1057  0.1310 -0.0343
  123OSM    H3S12971   2.058   3.272   2.560  2.2660  0.1772 -1.5818
  123OSM     O312972   2.229   3.181   2.635  0.1969  1.1814 -0.5979
  123OSM    HO312973   2.267   3.110   2.583 -0.1159 -0.5535  1.3934
  123OSM    C4S12974   2.020   3.178   2.740  0.6036 -0.5565 -0.0737
  123OSM    H4S12975   2.047   3.094   2.806 -1.2785 -1.9433 -0.9701
  123OSM    C5S12976   1.938   3.277   2.789 -0.1054  0.0382 -0.9070
  123OSM    H5S12977   1.926   3.372   2.734 -2.2463  0.4783  0.1856
  123OSM    C6S12978   1.869   3.273   2.925  0.2507  1.2062  0.2387
  123OSM    H6S12979   1.768   3.236   2.897  0.1948  1.9595 -0.6050
  123OSM    H6T12980   1.855   3.373   2.970  1.7204  2.9137 -2.8212
  123OSM    C7S12981   1.934   3.184   3.039  0.1605  0.2615  0.3633
  123OSM    H7S12982   2.045   3.192   3.032  0.0855  0.0470 -2.8549
  123OSM    H7T12983   1.920   3.078   3.008  3.6631 -0.4010  0.5768
  123OSM    C8S12984   1.879   3.198   3.178  0.2156  0.5475 -0.2541
  123OSM    H8S12985   1.770   3.207   3.192  0.5197  1.3374  1.9663
  123OSM    H8T12986   1.922   3.285   3.232 -0.1101 -0.1360  1.1413
  123OSM    C9S12987   1.924   3.078   3.275 -0.0489 -0.5965 -0.2734
  123OSM    H9S12988   2.034   3.071   3.264  0.2091  0.1909  1.4338
  123OSM    H9T12989   1.870   2.988   3.239 -1.5947  0.9443 -2.0532
  123OSM   C10S12990   1.896   3.106   3.431 -0.4346  0.6067  0.1240
  123OSM   H10S12991   1.816   3.182   3.438 -0.0648  1.1837 -1.3748
  123OSM   H10T12992   1.979   3.171   3.466 -1.9605  2.3924  0.5739
  123OSM   C11S12993   1.857   2.978   3.507 -0.2465 -0.1285 -0.1960
  123OSM   H11S12994   1.936   2.903   3.486  1.5313  2.1067 -2.1249
  123OSM   H11T12995   1.762   2.937   3.467 -1.1253  1.6061  0.0051
  123OSM   C12S12996   1.848   3.000   3.656  0.2777 -0.1461 -0.9026
  123OSM   H12S12997   1.946   3.011   3.708 -0.1141  0.1702 -0.2213
  123OSM   H12T12998   1.801   2.908   3.696 -0.1344 -0.4233 -1.9921
  123OSM   C13S12999   1.753   3.119   3.694  0.0466 -0.1336  0.0977
  123OSM   H13S13000   1.677   3.129   3.614  1.5035  0.8005 -1.2345
  123OSM   H13T13001   1.796   3.218   3.669  0.2257  0.1222  1.3682
  123OSM   C14S13002   1.703   3.113   3.837 -0.5071  0.6229  0.0352
  123OSM   H14S13003   1.667   3.009   3.849  1.5363 -0.3977 -1.9298
  123OSM   H14T13004   1.623   3.187   3.859 -0.6060  1.7938 -3.5318
  123OSM   C15S13005   1.804   3.132   3.947  0.1219 -0.0421  0.0680
  123OSM   H15S13006   1.861   3.223   3.918 -1.8355  1.0710 -0.5229
  123OSM   H15T13007   1.868   3.043   3.931 -1.6134 -1.2676 -0.2759
  123OSM   C16S13008   1.742   3.134   4.093 -0.7356 -0.0137 -0.3124
  123OSM   H16S13009   1.652   3.069   4.098 -1.1714  0.5924 -0.2116
  123OSM   H16T13010   1.702   3.235   4.114 -0.3250 -0.0849  0.9369
  123OSM   C17S13011   1.851   3.098   4.205  0.7223  0.3468  0.2582
  123OSM   H17S13012   1.887   2.997   4.174  0.5616  0.2601  0.3514
  123OSM   H17T13013   1.803   3.092   4.305  1.3771  0.2640  0.5741
  123OSM   C18S13014   1.966   3.197   4.197  0.2474 -0.4785 -0.2056
  123OSM   H18S13015   2.015   3.189   4.098  1.5670 -0.0093  0.3773
  123OSM   H18T13016   2.036   3.165   4.279 -0.0951 -1.4463 -0.2795
  123OSM   H18U13017   1.925   3.298   4.215 -1.2589 -1.2776  1.0830
  123OSM    C1F13018   1.841   2.947   2.425 -0.4322  0.3623 -0.0057
  123OSM     OF13019   1.907   2.845   2.390  0.3823 -0.0585 -0.1089
  123OSM    C2F13020   1.688   2.964   2.387 -1.0442  0.9985 -0.1684
  123OSM    H2F13021   1.674   2.967   2.277  1.8509 -0.6180 -0.6710
  123OSM    H2G13022   1.638   3.052   2.435 -1.9073  1.1298 -1.2678
  123OSM    C3F13023   1.599   2.853   2.447 -0.0099  0.0377  0.2940
  123OSM    H3F13024   1.628   2.752   2.410  1.5241 -0.2555  2.1254
  123OSM    H3G13025   1.494   2.875   2.420  0.5028  2.1781 -0.1201
  123OSM    C4F13026   1.618   2.841   2.601  0.0457  0.3763  0.1892
  123OSM    H4F13027   1.599   2.934   2.660 -0.5916 -1.0203  2.3150
  123OSM    H4G13028   1.720   2.799   2.615 -0.3010  0.2608  3.1754
  123OSM    C5F13029   1.507   2.739   2.648  0.3039  0.4256  0.3493
  123OSM    H5F13030   1.536   2.649   2.590  1.8096  0.1592  1.4481
  123OSM    H5G13031   1.400   2.764   2.632 -0.6286 -2.7733  0.9868
  123OSM    C6F13032   1.513   2.689   2.792 -0.8181  0.0824  0.6622
  123OSM    H6F13033   1.615   2.644   2.787 -0.5556  0.7782 -3.3738
  123OSM    H6G13034   1.435   2.610   2.798 -0.3231 -0.4945 -0.2362
  123OSM    C7F13035   1.501   2.791   2.903  0.4306  1.4054 -0.0357
  123OSM    H7F13036   1.393   2.811   2.924  0.3028  0.2351  0.4873
  123OSM    H7G13037   1.546   2.885   2.865  0.7097  1.4492  0.3891
  123OSM    C8F13038   1.561   2.741   3.034 -1.2412 -0.2538  0.0560
  123OSM    H8F13039   1.652   2.681   3.012  0.5377  2.4153 -0.3749
  123OSM    H8G13040   1.497   2.676   3.097  0.0517 -0.7129  0.9273
  123OSM    C9F13041   1.600   2.857   3.126  0.3898  0.5188  0.5994
  123OSM    H9F13042   1.674   2.923   3.079  0.1249  0.1506 -0.3584
  123OSM   C10F13043   1.553   2.885   3.246 -0.0766 -0.7895 -0.2279
  123OSM   H10F13044   1.580   2.981   3.292 -1.0062 -0.6473  0.0538
  123OSM   C11F13045   1.461   2.791   3.327 -0.0828 -0.0558 -0.1062
  123OSM   H11F13046   1.505   2.690   3.312 -3.1063 -1.0806 -3.5897
  123OSM   H11G13047   1.360   2.787   3.280 -0.1957  0.8756  0.0260
  123OSM   C12F13048   1.454   2.821   3.481 -1.5417 -0.6639  0.0488
  123OSM   H12F13049   1.445   2.928   3.507 -0.4866 -0.5352 -0.1114
  123OSM   H12G13050   1.549   2.782   3.523 -0.3581  1.9086 -0.1223
  123OSM   C13F13051   1.340   2.740   3.544  0.1660  0.0940 -0.5501
  123OSM   H13F13052   1.349   2.641   3.495 -0.6107  0.3784 -1.2827
  123OSM   H13G13053   1.242   2.765   3.499  0.2688  0.2123 -0.7087
  123OSM   C14F13054   1.331   2.738   3.691 -0.1271 -0.4283  1.2039
  123OSM   H14F13055   1.251   2.809   3.721 -0.6132 -0.3158 -0.2841
  123OSM   H14G13056   1.422   2.778   3.741 -0.1101 -0.1821  0.9754
  123OSM   C15F13057   1.280   2.609   3.758  0.5408  0.3283  1.0905
  123OSM   H15F13058   1.347   2.521   3.751  0.5580  0.4241 -0.0194
  123OSM   H15G13059   1.178   2.585   3.720 -0.1849  1.1015  2.4710
  123OSM   C16F13060   1.257   2.639   3.910 -0.4374  0.0051  0.0481
  123OSM   H16F13061   1.180   2.719   3.909 -0.3567  0.0816 -0.2087
  123OSM   H16G13062   1.349   2.680   3.957  0.8641 -0.1335 -2.2619
  123OSM   C17F13063   1.205   2.520   3.984  0.2135 -0.5933 -0.4129
  123OSM   H17F13064   1.269   2.432   3.964 -0.5623 -1.4973  0.9629
  123OSM   H17G13065   1.104   2.500   3.942 -0.8927  0.2319  1.6910
  123OSM   C18F13066   1.183   2.548   4.139 -0.6711 -0.0713  0.2785
  123OSM   H18F13067   1.286   2.557   4.181 -0.6607  0.1106  0.2163
  123OSM   H18G13068   1.128   2.465   4.188 -0.1692  0.4658  1.8332
  123OSM   H18H13069   1.119   2.637   4.158 -2.6110 -1.6961  1.6799
  124OSM      N13070   3.247   3.750   1.941 -0.6162 -0.0196  0.2502
  124OSM    C1513071   3.264   3.693   1.802  0.1543  0.3006 -0.2309
  124OSM   H15A13072   3.334   3.755   1.749  2.8630 -1.3375  1.1723
  124OSM   H15B13073   3.167   3.689   1.754 -1.8365  0.2321  3.4409
  124OSM   H15C13074   3.290   3.588   1.811 -1.3381 -0.1207 -0.5684
  124OSM    C1413075   3.381   3.778   1.996  0.1441  0.3553  0.0337
  124OSM   H14A13076   3.380   3.818   2.097 -1.9843  0.2097  0.1110
  124OSM   H14B13077   3.430   3.851   1.933  1.6698 -0.0308  0.7162
  124OSM   H14C13078   3.439   3.688   2.010 -3.1368 -1.8143  0.8151
  124OSM    C1313079   3.177   3.883   1.930  0.0445  0.2935  0.6011
  124OSM   H13A13080   3.074   3.883   1.897 -0.5153  0.3086  2.2546
  124OSM   H13B13081   3.221   3.952   1.860  0.9439 -2.5288 -1.8321
  124OSM   H13C13082   3.173   3.924   2.030  0.3108 -0.4782  0.9376
  124OSM    C1213083   3.163   3.664   2.041 -0.1818  0.3196  0.2293
  124OSM   H12A13084   3.157   3.710   2.139  2.0999  0.7543  0.2292
  124OSM   H12B13085   3.227   3.578   2.055 -0.4059 -0.2099 -1.7803
  124OSM    C1113086   3.030   3.616   1.989  0.2110 -0.3031  0.4831
  124OSM   H11A13087   3.002   3.545   2.070 -1.1070  0.8832  1.1044
  124OSM   H11B13088   3.036   3.562   1.892 -3.1326 -0.1064  0.0453
  124OSM      P13089   2.790   3.699   1.952  0.2605  0.0792 -0.4937
  124OSM    O1313090   2.738   3.797   1.864  0.6356  0.1468  0.2170
  124OSM    O1413091   2.768   3.555   1.920 -0.2989  0.4931  0.1289
  124OSM    O1113092   2.729   3.731   2.091 -0.0657 -0.2461  0.5485
  124OSM    O1213093   2.942   3.726   1.982  0.4773 -0.0345  0.0666
  124OSM    C1S13094   2.765   3.661   2.214  0.5688 -0.0249 -0.1348
  124OSM    H1S13095   2.873   3.659   2.239  0.3207 -2.4365  1.0490
  124OSM    H1T13096   2.752   3.553   2.192  0.0793  0.2753 -1.4335
  124OSM     NF13097   2.764   3.638   2.465 -0.8872  1.1455  0.0539
  124OSM    HNF13098   2.715   3.561   2.505  0.4836 -0.0789 -0.5129
  124OSM    C2S13099   2.696   3.701   2.344  0.3215 -0.2768  0.7473
  124OSM    H2S13100   2.713   3.811   2.353  0.2164 -0.2776  0.9741
  124OSM    C3S13101   2.546   3.671   2.337 -0.2519  0.2709 -0.6853
  124OSM    H3S13102   2.539   3.561   2.328  1.6993  0.0837 -0.3647
  124OSM     O313103   2.470   3.725   2.229  0.3085  0.2470  0.0204
  124OSM    HO313104   2.540   3.736   2.163 -0.4140  2.4210 -0.4780
  124OSM    C4S13105   2.486   3.730   2.474 -0.2710  0.7461 -0.4593
  124OSM    H4S13106   2.477   3.646   2.545 -0.5194 -0.3579 -1.7377
  124OSM    C5S13107   2.442   3.857   2.496 -0.9689  0.0831 -0.3306
  124OSM    H5S13108   2.449   3.923   2.407 -0.3114 -0.5534 -0.7645
  124OSM    C6S13109   2.388   3.923   2.624  0.4535  0.9639  0.0821
  124OSM    H6S13110   2.279   3.937   2.609 -0.0022 -1.0574  1.2450
  124OSM    H6T13111   2.435   4.023   2.640  0.4243  0.9225  0.4502
  124OSM    C7S13112   2.422   3.843   2.755  0.6974  0.0135 -0.8501
  124OSM    H7S13113   2.533   3.844   2.759  0.8948 -1.5031 -3.5313
  124OSM    H7T13114   2.383   3.739   2.748  3.1156 -1.0102 -0.0414
  124OSM    C8S13115   2.374   3.919   2.881  0.0171  0.7486 -0.4470
  124OSM    H8S13116   2.264   3.934   2.884  0.1151  1.4279 -0.0212
  124OSM    H8T13117   2.421   4.020   2.885 -0.4763  0.9740  3.2446
  124OSM    C9S13118   2.415   3.839   3.004 -0.5267  0.3676 -0.1097
  124OSM    H9S13119   2.523   3.812   3.004 -0.1862  1.6078 -0.9622
  124OSM    H9T13120   2.352   3.748   2.998 -0.5739  0.3361  0.7360
  124OSM   C10S13121   2.374   3.925   3.129  0.8540 -0.1291 -0.3980
  124OSM   H10S13122   2.272   3.967   3.118  0.3939 -1.0341  0.2872
  124OSM   H10T13123   2.441   4.012   3.139  2.2471 -0.9679 -1.9335
  124OSM   C11S13124   2.372   3.847   3.261 -0.1854  0.6669  0.2647
  124OSM   H11S13125   2.471   3.803   3.287 -0.9515 -0.3289  1.6474
  124OSM   H11T13126   2.305   3.762   3.238 -1.6930  1.3867  1.8121
  124OSM   C12S13127   2.334   3.922   3.386 -0.9686  1.1041 -0.4495
  124OSM   H12S13128   2.229   3.958   3.373 -2.3115 -1.9893  0.9117
  124OSM   H12T13129   2.405   4.004   3.410  0.9700 -0.9078  1.0426
  124OSM   C13S13130   2.318   3.832   3.507 -0.0294  0.6064 -0.0971
  124OSM   H13S13131   2.417   3.793   3.539 -0.3834  0.8317  1.3562
  124OSM   H13T13132   2.269   3.740   3.469  0.8937 -0.0912  0.3685
  124OSM   C14S13133   2.237   3.880   3.630  0.0537 -0.6948  0.5713
  124OSM   H14S13134   2.142   3.905   3.578  0.6974 -2.3094 -1.5021
  124OSM   H14T13135   2.301   3.962   3.669  1.0402 -0.6473 -1.0563
  124OSM   C15S13136   2.210   3.761   3.731 -0.1045 -0.4983  0.4530
  124OSM   H15S13137   2.314   3.727   3.751  0.2213  0.2384  0.0741
  124OSM   H15T13138   2.161   3.677   3.677  0.6962 -1.2456  0.8728
  124OSM   C16S13139   2.131   3.790   3.854  0.0929  0.5830 -0.8977
  124OSM   H16S13140   2.023   3.806   3.832 -0.3304 -0.2615  0.4569
  124OSM   H16T13141   2.164   3.875   3.918  0.9380 -1.1178  1.0159
  124OSM   C17S13142   2.147   3.665   3.948  0.0325 -0.4797 -0.0378
  124OSM   H17S13143   2.258   3.655   3.957  0.6390  3.3430 -1.3561
  124OSM   H17T13144   2.116   3.575   3.890  2.2820 -0.5088 -1.3160
  124OSM   C18S13145   2.068   3.692   4.079 -0.0708 -0.0372  0.0315
  124OSM   H18S13146   2.057   3.592   4.126  0.2817 -0.5802 -1.0123
  124OSM   H18T13147   1.967   3.731   4.055 -0.6794  0.1469  2.6401
  124OSM   H18U13148   2.122   3.759   4.150  1.4006 -1.6005  0.4503
  124OSM    C1F13149   2.890   3.662   2.508  0.6831 -0.0417 -0.1076
  124OSM     OF13150   2.950   3.757   2.458 -0.6842  0.2264 -0.0545
  124OSM    C2F13151   2.947   3.576   2.619 -0.4889  0.2917  0.3164
  124OSM    H2F13152   3.042   3.625   2.648 -1.8453  2.5768  1.1479
  124OSM    H2G13153   2.964   3.485   2.558 -0.8387 -0.1247  0.8304
  124OSM    C3F13154   2.845   3.553   2.736 -0.7120  0.3209 -0.8133
  124OSM    H3F13155   2.890   3.469   2.793 -0.3309  1.1186  0.1052
  124OSM    H3G13156   2.742   3.519   2.713 -0.4182 -0.7036 -0.6647
  124OSM    C4F13157   2.838   3.685   2.809 -0.1078  0.2334  0.1004
  124OSM    H4F13158   2.767   3.671   2.893  0.1676  0.2775  0.3435
  124OSM    H4G13159   2.794   3.760   2.740  0.3703 -0.3599 -0.8687
  124OSM    C5F13160   2.965   3.734   2.873  0.2410  0.4164 -1.0043
  124OSM    H5F13161   2.957   3.840   2.904 -0.2297  0.0601  0.1302
  124OSM    H5G13162   3.058   3.731   2.811 -0.2757 -1.0067 -1.7668
  124OSM    C6F13163   2.991   3.648   3.001 -0.4212 -0.4876  0.8550
  124OSM    H6F13164   3.001   3.544   2.963 -0.5806  0.7130 -2.8881
  124OSM    H6G13165   2.897   3.645   3.059 -0.7906  0.4503  0.3148
  124OSM    C7F13166   3.124   3.678   3.073  0.0911  0.4380  0.1269
  124OSM    H7F13167   3.104   3.781   3.110 -1.0341  0.0109  0.7567
  124OSM    H7G13168   3.214   3.684   3.009  0.0927  3.0773  0.2638
  124OSM    C8F13169   3.168   3.582   3.191 -0.6472  0.4364 -0.1334
  124OSM    H8F13170   3.267   3.614   3.229 -0.8545  1.9111 -0.7564
  124OSM    H8G13171   3.175   3.482   3.143 -3.5247  0.2331 -0.2738
  124OSM    C9F13172   3.076   3.568   3.309  0.0260 -0.3966 -0.6761
  124OSM    H9F13173   2.970   3.552   3.283  0.3278 -0.8245 -1.7098
  124OSM   C10F13174   3.095   3.578   3.442 -1.2527 -0.3746  0.4894
  124OSM   H10F13175   3.016   3.555   3.515 -0.7185 -1.8627  0.6265
  124OSM   C11F13176   3.233   3.602   3.498  0.6508 -0.1624 -0.0915
  124OSM   H11F13177   3.238   3.711   3.478 -1.6302 -0.0424 -0.2952
  124OSM   H11G13178   3.310   3.550   3.436 -0.1757 -2.5143  0.7377
  124OSM   C12F13179   3.247   3.569   3.651  0.0175 -0.6528  0.4056
  124OSM   H12F13180   3.351   3.602   3.673 -0.0262  0.6122 -1.1345
  124OSM   H12G13181   3.256   3.459   3.665  1.6544 -0.7134 -0.8494
  124OSM   C13F13182   3.139   3.621   3.756 -0.4805  0.0483  0.1560
  124OSM   H13F13183   3.050   3.558   3.735 -1.1836  0.8700  0.6249
  124OSM   H13G13184   3.108   3.721   3.718 -2.9995 -0.2423  1.2519
  124OSM   C14F13185   3.187   3.607   3.897  0.1828  0.4999  0.1346
  124OSM   H14F13186   3.261   3.527   3.916 -0.2913  0.4952  2.2567
  124OSM   H14G13187   3.103   3.580   3.964 -0.0801  0.8944 -0.0255
  124OSM   C15F13188   3.223   3.739   3.964  0.0368 -0.1271  0.0565
  124OSM   H15F13189   3.136   3.808   3.962  1.0015  1.1317  0.2560
  124OSM   H15G13190   3.306   3.786   3.906 -0.7250  0.3260 -0.6834
  124OSM   C16F13191   3.253   3.717   4.113  0.0345  0.2744 -0.3599
  124OSM   H16F13192   3.354   3.672   4.115  0.0707  0.3512 -0.4705
  124OSM   H16G13193   3.182   3.641   4.153  0.0505  1.3482  1.9077
  124OSM   C17F13194   3.271   3.850   4.196 -0.0301 -0.0879 -1.1861
  124OSM   H17F13195   3.170   3.896   4.200  0.2019  0.4494 -1.4484
  124OSM   H17G13196   3.333   3.921   4.137  0.9162 -0.9384 -1.2493
  124OSM   C18F13197   3.316   3.822   4.345  0.5569 -0.0806  0.7405
  124OSM   H18F13198   3.231   3.786   4.408 -0.5577 -0.6540 -0.9979
  124OSM   H18G13199   3.352   3.907   4.406  3.8246 -0.0578 -1.0230
  124OSM   H18H13200   3.395   3.744   4.353  1.7324  1.0357  0.3551
  125OSM      N13201   4.164   0.525   2.185  0.4256 -0.5391 -0.0771
  125OSM    C1513202   4.149   0.601   2.058 -0.6291  0.3742  0.2031
  125OSM   H15A13203   4.211   0.557   1.981  0.5358  1.7424  0.3057
  125OSM   H15B13204   4.201   0.695   2.066  3.8352 -1.7085 -0.9381
  125OSM   H15C13205   4.049   0.606   2.019 -0.4763  0.7925 -0.1493
  125OSM    C1413206   4.160   0.376   2.162 -0.0816  0.0702 -0.1856
  125OSM   H14A13207   4.141   0.326   2.256 -3.1204 -0.9168 -1.1900
  125OSM   H14B13208   4.250   0.340   2.113 -0.0856 -0.3862  0.1353
  125OSM   H14C13209   4.074   0.356   2.100 -0.2117  1.3039 -0.4259
  125OSM    C1313210   4.303   0.554   2.231 -0.5038  0.3335  0.4108
  125OSM   H13A13211   4.305   0.658   2.259 -0.9847  0.3149  0.5247
  125OSM   H13B13212   4.374   0.556   2.150  0.1875 -0.3751  0.9851
  125OSM   H13C13213   4.344   0.493   2.310  1.4983  3.3663  1.8964
  125OSM    C1213214   4.062   0.564   2.288  0.4849  0.0773  0.5245
  125OSM   H12A13215   4.075   0.670   2.307 -2.6737  0.6838 -0.0187
  125OSM   H12B13216   4.081   0.505   2.377  0.7000 -1.5891 -0.5796
  125OSM    C1113217   3.919   0.539   2.250  0.2752 -0.0491 -0.2523
  125OSM   H11A13218   3.891   0.592   2.156  1.9888 -0.9439 -1.3231
  125OSM   H11B13219   3.854   0.592   2.323 -0.1135 -3.1572  1.8313
  125OSM      P13220   3.859   0.311   2.365 -0.2372  0.1759 -0.2361
  125OSM    O1313221   3.810   0.182   2.317 -0.7880  0.0415 -0.1452
  125OSM    O1413222   3.976   0.309   2.458 -0.1447 -0.2575  0.6985
  125OSM    O1113223   3.749   0.403   2.437 -0.6126  0.0907  0.0577
  125OSM    O1213224   3.884   0.401   2.237 -0.1696 -0.3792  0.1771
  125OSM    C1S13225   3.640   0.334   2.507 -0.2059 -0.0084  0.0638
  125OSM    H1S13226   3.614   0.236   2.461 -1.2662  0.3711 -0.1714
  125OSM    H1T13227   3.546   0.392   2.494  0.9804  1.2372 -4.5973
  125OSM     NF13228   3.573   0.227   2.717 -0.0582  0.0011 -0.0506
  125OSM    HNF13229   3.495   0.273   2.760 -1.7378 -1.5468 -1.3159
  125OSM    C2S13230   3.681   0.308   2.659 -0.4978  0.0969 -0.2964
  125OSM    H2S13231   3.777   0.253   2.674 -0.7501  0.0850  1.4935
  125OSM    C3S13232   3.699   0.444   2.739  0.3676  0.3678  1.0251
  125OSM    H3S13233   3.598   0.481   2.765 -1.7173 -2.6139 -2.0344
  125OSM     O313234   3.780   0.542   2.672 -0.4159 -0.0212 -0.4762
  125OSM    HO313235   3.807   0.490   2.596  1.3153 -1.3494  0.9616
  125OSM    C4S13236   3.767   0.423   2.870 -0.0588 -0.4069  0.8121
  125OSM    H4S13237   3.844   0.344   2.866  0.0478 -0.2471 -0.7056
  125OSM    C5S13238   3.733   0.472   2.989  0.0193  0.4649 -0.3044
  125OSM    H5S13239   3.643   0.534   3.000  1.1146  2.3084 -1.1538
  125OSM    C6S13240   3.791   0.431   3.123 -0.0204  0.9420  0.2366
  125OSM    H6S13241   3.862   0.346   3.113 -0.6509  0.5175 -0.8259
  125OSM    H6T13242   3.703   0.403   3.185  0.3226 -2.3131 -0.5385
  125OSM    C7S13243   3.870   0.544   3.181  0.0644 -1.0324  0.5515
  125OSM    H7S13244   3.807   0.632   3.206  1.0571 -0.1085 -0.1038
  125OSM    H7T13245   3.942   0.589   3.109  0.9339 -1.2459  1.2649
  125OSM    C8S13246   3.946   0.510   3.313 -0.4820  0.1381 -0.1723
  125OSM    H8S13247   4.017   0.591   3.337 -0.4590  0.6212 -1.7222
  125OSM    H8T13248   4.005   0.419   3.288  0.2982  1.0567 -1.8698
  125OSM    C9S13249   3.848   0.474   3.427  0.1289 -0.0329  0.4669
  125OSM    H9S13250   3.795   0.380   3.400 -1.4023  1.1174 -0.7600
  125OSM    H9T13251   3.761   0.543   3.438 -0.2335 -0.2946 -0.5661
  125OSM   C10S13252   3.909   0.463   3.563  0.0824  0.4870 -0.3779
  125OSM   H10S13253   3.952   0.560   3.596  1.2541 -0.2803  0.4520
  125OSM   H10T13254   3.990   0.388   3.551 -0.7886 -0.8904  1.7320
  125OSM   C11S13255   3.819   0.403   3.670 -0.3796  0.1489 -0.4230
  125OSM   H11S13256   3.791   0.298   3.647  0.6724  0.2131 -2.1612
  125OSM   H11T13257   3.728   0.466   3.661 -0.6338 -0.3336 -1.3548
  125OSM   C12S13258   3.876   0.411   3.808 -0.0800  0.4074 -0.5246
  125OSM   H12S13259   3.890   0.520   3.824  0.8703  0.8932 -3.9619
  125OSM   H12T13260   3.972   0.358   3.825 -0.6494  0.0455  2.0020
  125OSM   C13S13261   3.779   0.365   3.921  0.1025  0.0924  0.0015
  125OSM   H13S13262   3.740   0.269   3.881  0.0546  0.5859 -1.1603
  125OSM   H13T13263   3.689   0.427   3.937 -0.9355 -1.1420 -0.8671
  125OSM   C14S13264   3.844   0.343   4.055  0.1022 -0.8018 -0.0319
  125OSM   H14S13265   3.861   0.445   4.093 -2.5359 -1.0669  2.1950
  125OSM   H14T13266   3.942   0.295   4.034  0.2051  0.4683 -2.8794
  125OSM   C15S13267   3.763   0.266   4.167  0.5404  0.1513  0.4049
  125OSM   H15S13268   3.840   0.228   4.237  0.7254 -0.5688 -0.1732
  125OSM   H15T13269   3.722   0.174   4.121  0.9507  0.4096 -0.5225
  125OSM   C16S13270   3.653   0.347   4.242 -0.1984 -0.0609 -0.2421
  125OSM   H16S13271   3.571   0.357   4.168  0.6532  0.0175 -1.1913
  125OSM   H16T13272   3.697   0.447   4.257  0.8155 -0.4600 -0.4800
  125OSM   C17S13273   3.615   0.295   4.381 -0.1374  0.2227  0.2327
  125OSM   H17S13274   3.708   0.284   4.441 -0.4471  0.4484  0.7660
  125OSM   H17T13275   3.574   0.192   4.380  0.2016  0.0642  1.5917
  125OSM   C18S13276   3.515   0.391   4.452  0.0559  0.0137  0.0001
  125OSM   H18S13277   3.504   0.358   4.557  0.7922 -0.3418 -0.0241
  125OSM   H18T13278   3.417   0.400   4.400  0.8152  1.9987 -1.2095
  125OSM   H18U13279   3.566   0.489   4.454  2.3485 -1.0884 -0.5089
  125OSM    C1F13280   3.548   0.098   2.689  0.3688  0.3664 -0.9522
  125OSM     OF13281   3.641   0.032   2.634  0.4411 -0.2261 -0.6379
  125OSM    C2F13282   3.415   0.039   2.715  0.0601  0.3194 -0.1631
  125OSM    H2F13283   3.374  -0.009   2.624  0.9058 -0.6907 -0.0332
  125OSM    H2G13284   3.346   0.122   2.743  0.9686  0.0223  3.3227
  125OSM    C3F13285   3.413  -0.057   2.834 -0.1082 -0.2424  0.9634
  125OSM    H3F13286   3.309  -0.086   2.860 -0.3520  0.0395  0.3157
  125OSM    H3G13287   3.451  -0.011   2.928  1.8478 -0.1367  0.1619
  125OSM    C4F13288   3.496  -0.181   2.791  0.8846 -0.3825 -0.4903
  125OSM    H4F13289   3.605  -0.166   2.775  1.1422 -2.2666 -0.7425
  125OSM    H4G13290   3.461  -0.226   2.696 -0.7609  0.7119 -0.4434
  125OSM    C5F13291   3.498  -0.294   2.898  0.2705 -0.0932  0.5707
  125OSM    H5F13292   3.564  -0.373   2.857 -1.6240 -1.0889 -0.6900
  125OSM    H5G13293   3.404  -0.346   2.924 -0.6682  1.0124 -0.5107
  125OSM    C6F13294   3.570  -0.266   3.031 -0.0881  0.1511 -0.1206
  125OSM    H6F13295   3.529  -0.185   3.095 -1.9524 -0.0386 -0.9962
  125OSM    H6G13296   3.676  -0.244   3.008 -0.4332  1.2238 -0.7746
  125OSM    C7F13297   3.585  -0.395   3.119 -0.0644 -0.9884 -0.1186
  125OSM    H7F13298   3.627  -0.471   3.050  1.5860  0.2605 -0.5681
  125OSM    H7G13299   3.485  -0.430   3.152 -0.1778 -1.1554 -0.6368
  125OSM    C8F13300   3.679  -0.376   3.246 -0.3326 -0.0294  0.4345
  125OSM    H8F13301   3.772  -0.355   3.190 -1.2170  2.0271 -0.3943
  125OSM    H8G13302   3.689  -0.465   3.311 -0.5786 -2.6512 -2.8257
  125OSM    C9F13303   3.626  -0.262   3.327 -0.0340 -0.0429 -0.1484
  125OSM    H9F13304   3.603  -0.168   3.274 -3.1551 -0.5825  0.1136
  125OSM   C10F13305   3.585  -0.278   3.459 -0.4415  0.2924  0.3555
  125OSM   H10F13306   3.554  -0.189   3.515 -1.3640 -0.5963  1.2961
  125OSM   C11F13307   3.579  -0.402   3.548  0.4720 -0.3683 -0.6954
  125OSM   H11F13308   3.678  -0.409   3.599  2.0438  1.6930 -3.2305
  125OSM   H11G13309   3.564  -0.491   3.483 -1.6393 -0.8967  0.4335
  125OSM   C12F13310   3.470  -0.424   3.658 -0.6556 -0.1516  0.7450
  125OSM   H12F13311   3.376  -0.419   3.601  0.2740  0.0719 -0.8182
  125OSM   H12G13312   3.464  -0.347   3.738  0.3320  0.6865  0.0410
  125OSM   C13F13313   3.477  -0.563   3.720  0.0527 -0.0731  0.4369
  125OSM   H13F13314   3.577  -0.568   3.769  0.7244  2.2257 -0.5743
  125OSM   H13G13315   3.482  -0.643   3.644 -0.2084  0.0486  0.2916
  125OSM   C14F13316   3.370  -0.584   3.825 -0.8272  0.6696  0.2499
  125OSM   H14F13317   3.274  -0.544   3.786 -0.6455  0.6270 -0.2389
  125OSM   H14G13318   3.392  -0.507   3.903 -2.5156  1.5522 -0.0934
  125OSM   C15F13319   3.364  -0.729   3.891  0.3109 -0.3247 -0.1186
  125OSM   H15F13320   3.322  -0.722   3.994 -0.3205 -1.2124 -0.3039
  125OSM   H15G13321   3.466  -0.773   3.886  0.9051  0.6056  2.3186
  125OSM   C16F13322   3.265  -0.825   3.824  0.0074  0.7581  0.3690
  125OSM   H16F13323   3.285  -0.932   3.845 -0.0814  0.6355 -0.1564
  125OSM   H16G13324   3.274  -0.817   3.713 -0.6501  2.6074  0.4156
  125OSM   C17F13325   3.125  -0.788   3.876  0.6483 -0.2902  0.2190
  125OSM   H17F13326   3.111  -0.678   3.863  1.2261 -0.2478 -0.0719
  125OSM   H17G13327   3.120  -0.815   3.984 -0.7657  1.5225  0.6705
  125OSM   C18F13328   3.022  -0.865   3.795 -0.5110  0.6243  0.2689
  125OSM   H18F13329   3.006  -0.955   3.858  0.4486 -0.3110 -0.7801
  125OSM   H18G13330   3.056  -0.904   3.696 -3.0432 -1.9828  0.3011
  125OSM   H18H13331   2.925  -0.815   3.773 -0.4055  0.4811 -0.5719
  126OSM      N13332   2.703   1.642   1.913 -0.0746  0.1329 -0.3035
  126OSM    C1513333   2.658   1.773   1.853 -0.0034  0.6934 -0.5560
  126OSM   H15A13334   2.559   1.773   1.811 -0.0775 -0.0633 -0.3798
  126OSM   H15B13335   2.727   1.808   1.777  0.8190  1.5473  0.5312
  126OSM   H15C13336   2.662   1.847   1.932  0.3830 -0.7825  0.8652
  126OSM    C1413337   2.705   1.529   1.811  0.6210 -0.2877 -0.0778
  126OSM   H14A13338   2.795   1.532   1.751  0.4128 -1.1183 -0.4568
  126OSM   H14B13339   2.614   1.542   1.752  0.0446  2.0689  1.2174
  126OSM   H14C13340   2.698   1.431   1.856  0.0493 -1.0914 -1.8003
  126OSM    C1313341   2.848   1.655   1.961  0.0392 -0.2052  0.0555
  126OSM   H13A13342   2.885   1.555   1.971  2.0052  0.5394  0.6758
  126OSM   H13B13343   2.851   1.711   2.054  0.6985 -0.0701 -0.0446
  126OSM   H13C13344   2.907   1.708   1.888 -0.8320 -0.0481 -0.5618
  126OSM    C1213345   2.608   1.600   2.022  0.1814  0.5288 -0.3678
  126OSM   H12A13346   2.642   1.501   2.048 -0.2745  0.3346 -0.4946
  126OSM   H12B13347   2.507   1.580   1.992 -0.1672  1.9558 -0.2428
  126OSM    C1113348   2.618   1.689   2.157  0.7300 -0.0136  0.5745
  126OSM   H11A13349   2.530   1.668   2.221 -0.6424 -0.0029 -1.2224
  126OSM   H11B13350   2.601   1.793   2.120 -0.1494 -0.0684  0.7999
  126OSM      P13351   2.787   1.569   2.314 -0.2729 -0.1155 -0.7016
  126OSM    O1313352   2.746   1.447   2.243 -0.0239 -0.1714  0.2671
  126OSM    O1413353   2.934   1.574   2.352  0.0237  0.3226 -0.2297
  126OSM    O1113354   2.697   1.599   2.438 -0.2540  0.3282 -0.3191
  126OSM    O1213355   2.748   1.683   2.216  0.4578  0.0155 -0.0588
  126OSM    C1S13356   2.698   1.734   2.494 -0.2448  0.1867 -1.1615
  126OSM    H1S13357   2.604   1.783   2.460 -0.7976 -0.4637 -0.6269
  126OSM    H1T13358   2.792   1.787   2.470 -0.4757  0.6168 -1.1185
  126OSM     NF13359   2.711   1.884   2.692  0.4683 -0.1601 -0.9184
  126OSM    HNF13360   2.803   1.909   2.722  0.8319 -1.9151 -0.4645
  126OSM    C2S13361   2.692   1.741   2.656 -0.3800 -0.1128  0.9257
  126OSM    H2S13362   2.588   1.716   2.685 -0.6292  1.1736  1.2095
  126OSM    C3S13363   2.788   1.650   2.727  0.0180 -0.1147  0.5441
  126OSM    H3S13364   2.888   1.689   2.701  0.9256 -2.8626 -0.4661
  126OSM     O313365   2.795   1.509   2.680 -0.0738 -0.4169 -0.4625
  126OSM    HO313366   2.742   1.502   2.600 -0.5591  0.6467 -0.2641
  126OSM    C4S13367   2.770   1.655   2.877  0.3095 -0.2206  0.1636
  126OSM    H4S13368   2.836   1.730   2.923 -0.6065 -0.0200  1.1795
  126OSM    C5S13369   2.692   1.575   2.957 -0.0296 -0.5662 -0.3797
  126OSM    H5S13370   2.643   1.485   2.918 -3.0765  1.2808 -1.0756
  126OSM    C6S13371   2.686   1.599   3.111 -0.6008  0.2537 -0.1600
  126OSM    H6S13372   2.749   1.517   3.153  1.7698  0.7676 -2.4223
  126OSM    H6T13373   2.588   1.582   3.161  0.6607 -2.3418  1.6857
  126OSM    C7S13374   2.749   1.722   3.171  0.6388  0.1651 -0.3335
  126OSM    H7S13375   2.696   1.812   3.133 -1.8192 -0.9416  0.2489
  126OSM    H7T13376   2.856   1.718   3.143  0.7262 -0.2131  0.0312
  126OSM    C8S13377   2.744   1.713   3.324 -0.5007 -0.0851  0.7151
  126OSM    H8S13378   2.739   1.608   3.360  0.2075 -0.4133 -0.1166
  126OSM    H8T13379   2.648   1.760   3.357 -1.4327 -0.7325 -0.9469
  126OSM    C9S13380   2.863   1.787   3.385 -0.3014 -0.5143  0.2076
  126OSM    H9S13381   2.869   1.883   3.328 -1.7970 -0.1547  0.6053
  126OSM    H9T13382   2.953   1.729   3.353  2.5129  3.5179 -0.1008
  126OSM   C10S13383   2.875   1.794   3.540 -0.5252 -0.1375 -0.9454
  126OSM   H10S13384   2.788   1.853   3.578  0.0257 -0.9591  1.7913
  126OSM   H10T13385   2.963   1.860   3.555 -0.6287 -0.1062 -0.4535
  126OSM   C11S13386   2.894   1.659   3.617  0.4029 -0.1845  0.8273
  126OSM   H11S13387   2.993   1.615   3.592  0.5647  0.9910 -0.8044
  126OSM   H11T13388   2.804   1.593   3.613  0.0753  0.2263  1.2985
  126OSM   C12S13389   2.907   1.703   3.769 -0.0343  0.3219  0.3051
  126OSM   H12S13390   2.980   1.786   3.784  0.3356  0.0825 -0.1216
  126OSM   H12T13391   2.941   1.611   3.821 -3.1715  0.1538  2.3057
  126OSM   C13S13392   2.780   1.750   3.835 -0.6061  0.6732 -0.4786
  126OSM   H13S13393   2.704   1.672   3.812 -0.8779  0.9116 -0.3923
  126OSM   H13T13394   2.738   1.842   3.789 -1.6006  0.3293 -0.2882
  126OSM   C14S13395   2.787   1.766   3.993  0.3674  0.2398  0.1721
  126OSM   H14S13396   2.687   1.773   4.041  0.9937  1.0618  1.4244
  126OSM   H14T13397   2.842   1.859   4.019 -1.1331  1.0184  0.6923
  126OSM   C15S13398   2.858   1.661   4.069  0.0388 -0.0428  0.5421
  126OSM   H15S13399   2.957   1.643   4.021 -0.4946 -1.6746 -0.0093
  126OSM   H15T13400   2.801   1.567   4.059  1.0231 -0.4361 -3.2598
  126OSM   C16S13401   2.868   1.699   4.220  0.1393 -0.5755  0.5355
  126OSM   H16S13402   2.765   1.708   4.259  0.2573  0.0697  0.7248
  126OSM   H16T13403   2.920   1.798   4.219 -1.5564  0.3587 -0.9311
  126OSM   C17S13404   2.944   1.599   4.301  0.3422  0.2770 -0.0013
  126OSM   H17S13405   3.041   1.580   4.249 -0.5569 -0.7296 -1.3864
  126OSM   H17T13406   2.890   1.502   4.303  0.5434  0.1775  0.9079
  126OSM   C18S13407   2.962   1.644   4.444 -0.2687  0.1842 -0.4942
  126OSM   H18S13408   2.991   1.560   4.510  1.3899  0.7757 -0.4278
  126OSM   H18T13409   2.866   1.679   4.488 -0.2099  1.1992 -1.1230
  126OSM   H18U13410   3.032   1.729   4.458 -1.8956  1.7314 -1.3188
  126OSM    C1F13411   2.627   1.984   2.669 -0.0467 -0.0485  0.7390
  126OSM     OF13412   2.533   1.966   2.591  0.4891 -1.0069 -0.5447
  126OSM    C2F13413   2.661   2.118   2.731  0.2973 -0.4703 -0.1720
  126OSM    H2F13414   2.714   2.182   2.658  1.9634  0.3151  1.6573
  126OSM    H2G13415   2.738   2.099   2.809  2.6902  2.5071 -1.6062
  126OSM    C3F13416   2.525   2.178   2.785 -0.7103 -0.1362 -1.0767
  126OSM    H3F13417   2.469   2.099   2.839  0.9399 -2.6067 -2.7605
  126OSM    H3G13418   2.471   2.218   2.696 -2.4916  0.2285  0.1278
  126OSM    C4F13419   2.549   2.301   2.880 -0.1236 -0.3138  0.8076
  126OSM    H4F13420   2.445   2.331   2.903 -0.1781  0.7415 -0.6684
  126OSM    H4G13421   2.598   2.381   2.819  2.9744 -0.7372  2.5371
  126OSM    C5F13422   2.641   2.275   3.002  0.5899  0.6345  0.2596
  126OSM    H5F13423   2.646   2.369   3.061 -0.5112  2.1618 -1.9605
  126OSM    H5G13424   2.745   2.263   2.966 -0.3876  1.2073 -3.1136
  126OSM    C6F13425   2.603   2.149   3.082  0.1438  0.3214 -0.0372
  126OSM    H6F13426   2.614   2.068   3.007 -2.4815  2.2652 -2.7892
  126OSM    H6G13427   2.498   2.158   3.119 -0.2563 -0.7094 -0.8744
  126OSM    C7F13428   2.702   2.122   3.194  0.6246  0.3671 -0.8237
  126OSM    H7F13429   2.799   2.149   3.146  0.2523  0.4536 -1.5441
  126OSM    H7G13430   2.706   2.014   3.219  1.9598  0.4917 -0.4121
  126OSM    C8F13431   2.692   2.190   3.333  0.1437  0.2335  0.6082
  126OSM    H8F13432   2.708   2.298   3.315 -1.9922  1.0641  3.0370
  126OSM    H8G13433   2.779   2.154   3.393  1.1824  0.0884 -0.9219
  126OSM    C9F13434   2.556   2.177   3.397  0.7236  0.1907  0.4913
  126OSM    H9F13435   2.477   2.183   3.322  0.0818 -1.6369  0.9744
  126OSM   C10F13436   2.522   2.120   3.514 -0.1369  0.3415 -0.5113
  126OSM   H10F13437   2.414   2.121   3.537 -0.0942  1.6237 -0.2547
  126OSM   C11F13438   2.615   2.077   3.621 -0.1953  0.3008  0.3975
  126OSM   H11F13439   2.721   2.083   3.588 -0.2236  1.5037  0.4653
  126OSM   H11G13440   2.599   1.970   3.644  0.1188  0.3327  0.7668
  126OSM   C12F13441   2.609   2.151   3.757  0.6758  0.1805 -0.3090
  126OSM   H12F13442   2.628   2.260   3.742  0.4446  0.4090  0.9482
  126OSM   H12G13443   2.697   2.111   3.811 -0.8419 -1.2823  1.1951
  126OSM   C13F13444   2.474   2.122   3.829  0.3353  0.0999 -0.0532
  126OSM   H13F13445   2.462   2.012   3.841 -3.1557  0.5034  1.1341
  126OSM   H13G13446   2.394   2.164   3.764  0.6805 -0.3312 -0.7720
  126OSM   C14F13447   2.460   2.195   3.963 -0.5644  0.0483 -1.2712
  126OSM   H14F13448   2.364   2.168   4.012  1.2595  0.0538  2.6268
  126OSM   H14G13449   2.468   2.305   3.949 -1.9652  0.4286  0.5735
  126OSM   C15F13450   2.561   2.148   4.075  0.0143 -0.1522 -0.7234
  126OSM   H15F13451   2.654   2.159   4.016 -0.0294 -1.0984 -0.9980
  126OSM   H15G13452   2.540   2.042   4.100  0.8473 -0.0695  0.3884
  126OSM   C16F13453   2.562   2.228   4.201 -0.3968  1.0010 -0.4443
  126OSM   H16F13454   2.618   2.321   4.176  1.4695  0.3441  1.0471
  126OSM   H16G13455   2.630   2.167   4.264 -0.4332  0.2818 -1.0919
  126OSM   C17F13456   2.429   2.270   4.263  0.4890  0.3627 -0.2846
  126OSM   H17F13457   2.365   2.180   4.271  3.4638 -1.8296  1.0103
  126OSM   H17G13458   2.383   2.335   4.186  0.1303 -1.2118 -1.4487
  126OSM   C18F13459   2.439   2.327   4.405 -0.2248 -0.2028  0.3562
  126OSM   H18F13460   2.506   2.416   4.401  0.5015 -0.7402 -2.6260
  126OSM   H18G13461   2.485   2.257   4.477 -0.7408 -0.0526  0.8386
  126OSM   H18H13462   2.337   2.354   4.437 -0.7772 -0.9161 -0.7422
  127OSM      N13463   2.489   3.251   2.130 -0.2009 -0.4686  0.1954
  127OSM    C1513464   2.476   3.388   2.089 -0.1233 -0.2017  0.2814
  127OSM   H15A13465   2.384   3.442   2.072  1.9756  3.1511 -1.7861
  127OSM   H15B13466   2.534   3.410   2.000 -1.4314  0.0850 -0.5380
  127OSM   H15C13467   2.530   3.433   2.171 -0.2105  0.1694  0.1386
  127OSM    C1413468   2.639   3.231   2.140  0.1762  0.3491 -0.5709
  127OSM   H14A13469   2.659   3.128   2.166  1.1701  0.1991 -1.7948
  127OSM   H14B13470   2.684   3.294   2.216 -1.6765 -0.3350  1.1605
  127OSM   H14C13471   2.693   3.229   2.046 -1.2567  0.3285 -1.4144
  127OSM    C1313472   2.431   3.250   2.266  0.3444  0.3909 -0.3153
  127OSM   H13A13473   2.437   3.149   2.305  1.3183 -0.1046 -1.6580
  127OSM   H13B13474   2.338   3.303   2.256  0.1927  0.5107  1.5329
  127OSM   H13C13475   2.496   3.315   2.323  0.6900  2.0955 -2.5219
  127OSM    C1213476   2.423   3.153   2.046  0.4571  0.3933  0.6757
  127OSM   H12A13477   2.471   3.060   2.073  1.9202  1.2524  1.1407
  127OSM   H12B13478   2.450   3.176   1.944 -0.2936 -0.7630  0.2005
  127OSM    C1113479   2.265   3.150   2.043 -0.5426  0.0604  0.0285
  127OSM   H11A13480   2.229   3.122   2.145  2.6489  0.4565  1.3771
  127OSM   H11B13481   2.228   3.082   1.964  1.6328 -0.6016 -0.4943
  127OSM      P13482   2.067   3.300   1.999  0.0888  0.0021 -0.2975
  127OSM    O1313483   2.044   3.435   1.936  0.0175  0.6770 -0.2086
  127OSM    O1413484   2.006   3.183   1.933  0.3074 -1.0463 -0.2204
  127OSM    O1113485   2.022   3.304   2.149 -0.3369 -0.4268 -0.0435
  127OSM    O1213486   2.218   3.281   2.006 -0.3369 -0.2483  0.0489
  127OSM    C1S13487   1.888   3.354   2.174 -0.7153  0.3790 -0.4174
  127OSM    H1S13488   1.808   3.279   2.193  0.6316 -0.7341  1.1515
  127OSM    H1T13489   1.842   3.416   2.094  0.0028 -1.1658 -2.0782
  127OSM     NF13490   1.750   3.460   2.341  0.3921 -0.1628 -0.3140
  127OSM    HNF13491   1.686   3.529   2.306  0.0728 -0.8472 -1.1154
  127OSM    C2S13492   1.893   3.444   2.303  0.6393  0.3666  0.4323
  127OSM    H2S13493   1.941   3.390   2.387  0.3108 -0.8403 -0.1308
  127OSM    C3S13494   1.978   3.569   2.293  0.1733 -0.0494 -0.2838
  127OSM    H3S13495   1.922   3.625   2.215  2.0387  0.8359 -1.0422
  127OSM     O313496   2.108   3.553   2.245  0.7165 -0.2845 -0.2410
  127OSM    HO313497   2.110   3.457   2.239  1.5312 -0.2888  0.0421
  127OSM    C4S13498   1.982   3.637   2.421  0.1654  0.3688 -0.4608
  127OSM    H4S13499   1.900   3.711   2.419 -0.8644 -0.6674  0.8338
  127OSM    C5S13500   2.079   3.639   2.516  0.0574 -0.5359  0.6141
  127OSM    H5S13501   2.167   3.575   2.502  0.7101  0.5755 -0.5884
  127OSM    C6S13502   2.095   3.724   2.638  0.0451  0.8351  0.4993
  127OSM    H6S13503   2.093   3.829   2.603  1.6091  0.2835 -1.4592
  127OSM    H6T13504   2.192   3.707   2.690  0.1037  2.8415  1.1450
  127OSM    C7S13505   1.969   3.712   2.728 -0.0048 -0.0225  0.2452
  127OSM    H7S13506   1.938   3.607   2.748 -0.1398 -0.2457 -1.0471
  127OSM    H7T13507   1.883   3.759   2.675  0.6102 -0.2097 -0.9520
  127OSM    C8S13508   1.977   3.785   2.862 -0.1763  0.1704 -0.2507
  127OSM    H8S13509   1.876   3.825   2.884 -0.3849 -0.1957 -0.5284
  127OSM    H8T13510   2.057   3.862   2.858  0.8240 -0.8857 -1.9457
  127OSM    C9S13511   2.013   3.692   2.981  0.4701 -0.7805 -0.6086
  127OSM    H9S13512   2.124   3.696   2.991  0.6839 -2.9717 -1.5553
  127OSM    H9T13513   1.964   3.596   2.953 -0.7817  0.2570 -2.1349
  127OSM   C10S13514   1.960   3.743   3.114 -0.2956 -0.0238  0.6930
  127OSM   H10S13515   1.858   3.782   3.093  0.1024  0.2130 -0.9068
  127OSM   H10T13516   2.019   3.827   3.155  0.2874  1.1443 -2.2912
  127OSM   C11S13517   1.948   3.631   3.217  0.4821  0.4192 -0.0097
  127OSM   H11S13518   2.048   3.585   3.229  0.3846  0.3253  0.5057
  127OSM   H11T13519   1.877   3.553   3.180  1.4376 -1.6371  2.1542
  127OSM   C12S13520   1.904   3.690   3.349 -0.3063 -0.5041 -0.0410
  127OSM   H12S13521   1.802   3.729   3.328 -0.1562 -1.3034 -2.5592
  127OSM   H12T13522   1.968   3.777   3.371 -1.6454  0.7344 -0.8513
  127OSM   C13S13523   1.918   3.606   3.479 -0.6129  0.3006 -0.1941
  127OSM   H13S13524   2.026   3.593   3.500 -0.9044  1.4792  2.4678
  127OSM   H13T13525   1.866   3.508   3.467  0.0307 -0.0234 -0.3789
  127OSM   C14S13526   1.839   3.658   3.604 -0.0018 -0.7057  0.1615
  127OSM   H14S13527   1.737   3.691   3.575  0.4137  1.1642  0.7417
  127OSM   H14T13528   1.887   3.753   3.634 -0.1230 -0.0750 -1.5332
  127OSM   C15S13529   1.824   3.546   3.718 -0.5837  0.1957 -0.0109
  127OSM   H15S13530   1.931   3.525   3.743 -0.1847 -0.6356 -2.2096
  127OSM   H15T13531   1.783   3.456   3.668  0.3794 -1.1074  1.4479
  127OSM   C16S13532   1.751   3.601   3.834 -0.1810  0.0982  0.4629
  127OSM   H16S13533   1.647   3.631   3.812 -1.9063 -2.1574  4.4569
  127OSM   H16T13534   1.807   3.692   3.866  2.9769 -1.4222 -0.2723
  127OSM   C17S13535   1.729   3.494   3.944 -0.2320 -0.6083 -0.1081
  127OSM   H17S13536   1.830   3.467   3.981  0.0316 -1.8170 -1.6158
  127OSM   H17T13537   1.695   3.410   3.880  0.0498 -0.4120 -0.5247
  127OSM   C18S13538   1.624   3.534   4.053  0.1176 -0.1700 -0.5447
  127OSM   H18S13539   1.529   3.532   3.994  0.4719 -1.2021 -1.1192
  127OSM   H18T13540   1.634   3.631   4.105  1.1730 -1.2436  1.3388
  127OSM   H18U13541   1.614   3.451   4.126  3.2442  1.2140  1.6655
  127OSM    C1F13542   1.703   3.369   2.422  0.5936 -0.4963 -0.1516
  127OSM     OF13543   1.775   3.300   2.484  0.3823  0.0954 -0.3812
  127OSM    C2F13544   1.548   3.357   2.422  0.2975  0.1624 -0.0137
  127OSM    H2F13545   1.525   3.249   2.438  1.2368 -0.0523 -0.0752
  127OSM    H2G13546   1.504   3.375   2.321 -0.6199 -2.8690 -0.2758
  127OSM    C3F13547   1.486   3.439   2.537  0.0072 -0.3379 -0.0600
  127OSM    H3F13548   1.376   3.447   2.526 -0.1207 -0.6375  0.8545
  127OSM    H3G13549   1.528   3.540   2.519  1.1392 -0.8985 -0.6773
  127OSM    C4F13550   1.525   3.391   2.677  0.2740  0.1792 -0.1323
  127OSM    H4F13551   1.629   3.351   2.673 -0.1566 -1.2265  1.5623
  127OSM    H4G13552   1.468   3.303   2.715  1.5696  0.3890  2.5582
  127OSM    C5F13553   1.497   3.495   2.786 -0.3889  0.5849 -0.1735
  127OSM    H5F13554   1.406   3.541   2.743  0.7167  2.3197 -0.7856
  127OSM    H5G13555   1.573   3.576   2.787  1.3522 -0.9554 -1.2007
  127OSM    C6F13556   1.492   3.429   2.923  0.4556  0.1675  0.6175
  127OSM    H6F13557   1.593   3.384   2.929  1.4578  2.1033 -0.4806
  127OSM    H6G13558   1.412   3.353   2.919 -0.5614  1.2475 -2.0567
  127OSM    C7F13559   1.481   3.518   3.042  1.1043  0.3034  0.4489
  127OSM    H7F13560   1.372   3.540   3.049  0.7977 -0.7193 -0.8077
  127OSM    H7G13561   1.538   3.612   3.022  1.9057 -0.3167 -0.2054
  127OSM    C8F13562   1.546   3.472   3.182  0.0619  0.1805 -0.0990
  127OSM    H8F13563   1.498   3.545   3.251  0.7445  0.3794  0.1768
  127OSM    H8G13564   1.657   3.479   3.172  0.0109 -0.7188 -1.6598
  127OSM    C9F13565   1.500   3.333   3.215  0.1546  0.4118 -0.5523
  127OSM    H9F13566   1.499   3.272   3.124  0.4527  1.5614 -1.3421
  127OSM   C10F13567   1.447   3.293   3.338  0.2880  0.0151  1.4218
  127OSM   H10F13568   1.413   3.189   3.332  2.2280 -0.7145  2.2146
  127OSM   C11F13569   1.446   3.377   3.459 -0.1008  0.0918 -0.9632
  127OSM   H11F13570   1.374   3.461   3.452 -0.8208 -0.3852  0.3748
  127OSM   H11G13571   1.546   3.419   3.481 -0.3851  0.0818  0.4575
  127OSM   C12F13572   1.399   3.296   3.576 -0.0758  0.0442 -0.1702
  127OSM   H12F13573   1.478   3.222   3.601  1.6502  2.3255  1.5296
  127OSM   H12G13574   1.293   3.263   3.570  0.1308 -0.7110  0.2117
  127OSM   C13F13575   1.379   3.374   3.707 -0.5894  0.4062 -0.5482
  127OSM   H13F13576   1.321   3.468   3.699  1.8272  1.9998 -0.3604
  127OSM   H13G13577   1.474   3.417   3.744 -0.7096  0.3995 -0.2232
  127OSM   C14F13578   1.322   3.280   3.815  0.2971  0.2083 -0.2801
  127OSM   H14F13579   1.392   3.198   3.841 -1.8001 -1.7278 -0.5315
  127OSM   H14G13580   1.231   3.223   3.788  1.2832 -1.4328 -0.2659
  127OSM   C15F13581   1.271   3.365   3.938  0.0187  0.0492  0.9539
  127OSM   H15F13582   1.217   3.446   3.885  0.0491 -0.6523 -0.1943
  127OSM   H15G13583   1.352   3.417   3.993 -2.1696  1.6446  2.8571
  127OSM   C16F13584   1.180   3.291   4.031  0.1215  0.6418  0.5269
  127OSM   H16F13585   1.089   3.245   3.988  0.3400  1.1033 -0.4386
  127OSM   H16G13586   1.143   3.360   4.109 -0.7517  1.4727 -0.6067
  127OSM   C17F13587   1.256   3.176   4.110  0.8260  0.1230 -0.6128
  127OSM   H17F13588   1.290   3.107   4.030  3.3079  0.4003  0.1149
  127OSM   H17G13589   1.186   3.107   4.162  0.2669  1.1255  0.0055
  127OSM   C18F13590   1.361   3.222   4.214  0.1657  0.0420  0.2388
  127OSM   H18F13591   1.302   3.275   4.292 -0.4931  1.3780 -1.1372
  127OSM   H18G13592   1.436   3.295   4.179  1.0746 -0.2660  1.4830
  127OSM   H18H13593   1.415   3.134   4.257  0.1761  0.9269  2.1185
  128OSM      N13594   1.267   0.813   1.882 -0.2645  0.0241 -0.3581
  128OSM    C1513595   1.155   0.722   1.836 -0.4482 -0.6321 -0.4889
  128OSM   H15A13596   1.172   0.622   1.874 -0.1532  0.5761  2.8794
  128OSM   H15B13597   1.135   0.718   1.730 -1.5885  0.1505 -0.3245
  128OSM   H15C13598   1.065   0.762   1.881  0.3234 -0.5481  1.0305
  128OSM    C1413599   1.397   0.748   1.839  0.5613  0.4388  0.5683
  128OSM   H14A13600   1.475   0.819   1.865 -0.7702  2.1545  0.0453
  128OSM   H14B13601   1.397   0.746   1.731  2.4730  1.1194  0.5066
  128OSM   H14C13602   1.420   0.649   1.877 -0.5896 -0.2637 -0.4733
  128OSM    C1313603   1.237   0.950   1.819  0.1649  0.2827 -0.0090
  128OSM   H13A13604   1.271   0.952   1.717  0.8051 -1.5431  0.1391
  128OSM   H13B13605   1.301   1.021   1.870 -0.5361 -0.7613  2.5126
  128OSM   H13C13606   1.131   0.969   1.818  0.3288  1.2566 -0.1848
  128OSM    C1213607   1.266   0.813   2.035  0.3106  0.4043  0.9296
  128OSM   H12A13608   1.289   0.715   2.074 -1.0704  0.0877  1.0025
  128OSM   H12B13609   1.165   0.823   2.071 -0.1474 -2.8830  0.8486
  128OSM    C1113610   1.359   0.912   2.106 -0.2043 -0.1904  0.1378
  128OSM   H11A13611   1.339   0.913   2.216  1.2159 -0.1160  0.4135
  128OSM   H11B13612   1.325   1.012   2.069  2.0459  0.6350  0.1611
  128OSM      P13613   1.597   1.015   2.051  0.2953 -0.0370  0.2367
  128OSM    O1313614   1.732   0.977   2.011 -0.1748  0.5577  1.1203
  128OSM    O1413615   1.527   1.107   1.961 -0.1757  0.3828 -0.4195
  128OSM    O1113616   1.608   1.071   2.192 -0.3639 -0.5448  0.1874
  128OSM    O1213617   1.499   0.887   2.085 -0.0174 -0.4880 -0.3171
  128OSM    C1S13618   1.621   0.976   2.302 -0.2524 -0.2941  0.4650
  128OSM    H1S13619   1.672   0.882   2.270  0.3182 -0.2575  1.2471
  128OSM    H1T13620   1.523   0.960   2.353 -0.4881 -0.1026  0.0804
  128OSM     NF13621   1.726   0.962   2.526  0.3492 -0.0454  0.0818
  128OSM    HNF13622   1.670   0.988   2.605  1.6506 -1.1402  1.4110
  128OSM    C2S13623   1.714   1.041   2.409  0.1712 -0.1857 -0.9191
  128OSM    H2S13624   1.813   1.055   2.362 -0.2711  1.1417 -1.4985
  128OSM    C3S13625   1.668   1.184   2.465  0.0034 -0.2725  0.2296
  128OSM    H3S13626   1.561   1.163   2.486 -0.4899 -0.9091 -2.5755
  128OSM     O313627   1.666   1.282   2.360  0.3604 -0.3213  0.0979
  128OSM    HO313628   1.648   1.243   2.274  0.8565  3.7988 -2.1621
  128OSM    C4S13629   1.741   1.236   2.592  0.2986 -0.1872 -0.3038
  128OSM    H4S13630   1.848   1.261   2.580  0.8143 -0.7105  2.4520
  128OSM    C5S13631   1.687   1.282   2.706 -0.1914  0.4087 -0.9377
  128OSM    H5S13632   1.578   1.293   2.714  0.0311  1.8027  0.9293
  128OSM    C6S13633   1.756   1.344   2.823  0.1741  0.3324  0.0767
  128OSM    H6S13634   1.723   1.278   2.907  0.3376 -0.1605 -0.2414
  128OSM    H6T13635   1.722   1.449   2.836 -0.5906  0.0350  0.6168
  128OSM    C7S13636   1.908   1.329   2.825 -0.6681 -0.1281  0.2308
  128OSM    H7S13637   1.946   1.385   2.737  2.0801 -0.3899  1.1588
  128OSM    H7T13638   1.923   1.219   2.832 -1.4964 -0.2842 -0.3683
  128OSM    C8S13639   1.990   1.379   2.952  0.6851  0.4588 -0.5660
  128OSM    H8S13640   1.970   1.488   2.966 -0.6769  0.0898  0.5766
  128OSM    H8T13641   2.097   1.372   2.926  0.5518 -2.1443 -0.6717
  128OSM    C9S13642   1.963   1.302   3.083  0.2966 -0.2272 -0.7345
  128OSM    H9S13643   1.982   1.194   3.073 -1.1643 -0.4703 -1.0889
  128OSM    H9T13644   1.855   1.300   3.109  0.3877  0.0581 -0.3194
  128OSM   C10S13645   2.028   1.380   3.197  0.0126  0.3700 -0.1822
  128OSM   H10S13646   2.017   1.489   3.181  1.0466  0.7967  1.6986
  128OSM   H10T13647   2.137   1.359   3.203 -0.1558 -0.3903  0.4215
  128OSM   C11S13648   1.968   1.346   3.335 -0.7993 -0.3459 -0.0913
  128OSM   H11S13649   1.969   1.236   3.353 -1.6484 -0.2524  0.6141
  128OSM   H11T13650   1.861   1.378   3.333 -0.3709  1.1491 -1.2615
  128OSM   C12S13651   2.035   1.421   3.454 -0.0464  0.4012 -0.5238
  128OSM   H12S13652   2.005   1.528   3.460  1.6344  0.8341  3.8219
  128OSM   H12T13653   2.146   1.423   3.449  0.0685 -0.5522  1.0932
  128OSM   C13S13654   2.008   1.346   3.590  0.1863  0.4016 -0.2075
  128OSM   H13S13655   2.021   1.236   3.581  0.2915  0.0954  2.6310
  128OSM   H13T13656   1.899   1.354   3.613 -0.0276  0.4115 -1.1869
  128OSM   C14S13657   2.093   1.394   3.711  0.0401 -0.3732 -0.5126
  128OSM   H14S13658   2.107   1.504   3.698  0.3019 -0.6008 -2.5859
  128OSM   H14T13659   2.195   1.349   3.703  0.5175  0.6292 -0.2445
  128OSM   C15S13660   2.022   1.361   3.842 -0.4482  0.4987 -0.0155
  128OSM   H15S13661   1.924   1.413   3.845  0.3167  2.1184 -1.2776
  128OSM   H15T13662   2.082   1.396   3.929  3.4381 -3.2164 -0.8585
  128OSM   C16S13663   2.014   1.206   3.852 -0.1970 -0.9949  0.2634
  128OSM   H16S13664   2.111   1.160   3.824 -1.1489 -2.9262  0.0026
  128OSM   H16T13665   1.944   1.160   3.779  0.1615  0.4714 -1.0762
  128OSM   C17S13666   1.980   1.149   3.988  1.1698  0.5298 -0.0726
  128OSM   H17S13667   1.885   1.196   4.021 -0.4337 -0.0543 -3.4240
  128OSM   H17T13668   2.057   1.183   4.061  0.1549  0.3695  1.1189
  128OSM   C18S13669   1.976   0.991   3.984  0.3293 -0.1032 -0.3270
  128OSM   H18S13670   1.963   0.948   4.085  4.1052 -1.3563 -0.2029
  128OSM   H18T13671   2.074   0.959   3.940  0.0780 -1.7100  0.2315
  128OSM   H18U13672   1.899   0.953   3.913  1.0735 -1.0687 -0.6498
  128OSM    C1F13673   1.814   0.855   2.527 -1.0456  0.2374  0.2424
  128OSM     OF13674   1.891   0.836   2.430 -0.1472  0.2476 -0.1895
  128OSM    C2F13675   1.823   0.773   2.647  0.2738  0.3720 -1.0018
  128OSM    H2F13676   1.827   0.666   2.618  0.8412  0.5397 -1.5730
  128OSM    H2G13677   1.742   0.792   2.720 -0.2057 -0.8617 -1.1768
  128OSM    C3F13678   1.950   0.815   2.723  0.5662  0.4721  0.2910
  128OSM    H3F13679   1.945   0.925   2.739 -2.2864  0.1262  2.4484
  128OSM    H3G13680   2.047   0.799   2.671 -0.9370 -1.0304 -2.2887
  128OSM    C4F13681   1.967   0.748   2.856  0.6588 -0.5252  0.1647
  128OSM    H4F13682   1.975   0.638   2.845  2.0554 -0.3370 -0.9628
  128OSM    H4G13683   1.871   0.762   2.911  0.7634 -0.9663  0.4691
  128OSM    C5F13684   2.072   0.809   2.948 -0.3393 -0.1169 -0.2100
  128OSM    H5F13685   2.061   0.918   2.970 -1.0869 -0.1051 -0.6020
  128OSM    H5G13686   2.173   0.801   2.903 -0.0502  0.8363  0.2413
  128OSM    C6F13687   2.064   0.732   3.085 -0.2009  0.8200 -0.2998
  128OSM    H6F13688   2.158   0.745   3.142  0.5488 -0.9847 -1.0738
  128OSM    H6G13689   2.061   0.623   3.068 -1.8443  0.4057  2.1466
  128OSM    C7F13690   1.937   0.769   3.165  0.0094 -0.6398 -0.0949
  128OSM    H7F13691   1.932   0.691   3.244 -1.3941  1.0526  1.5665
  128OSM    H7G13692   1.842   0.742   3.114  0.2075  0.0193 -0.8319
  128OSM    C8F13693   1.935   0.911   3.229 -0.2753 -0.4375  0.6067
  128OSM    H8F13694   1.902   0.987   3.155 -0.5091  0.5133  1.6711
  128OSM    H8G13695   2.039   0.937   3.257 -0.1205 -2.1864  1.8130
  128OSM    C9F13696   1.844   0.920   3.347 -0.0438  0.0770 -0.0226
  128OSM    H9F13697   1.736   0.933   3.328 -0.0378 -2.1482 -2.0395
  128OSM   C10F13698   1.864   0.927   3.484  0.3078 -0.6578  0.5987
  128OSM   H10F13699   1.783   0.930   3.558  1.9261  1.8209  2.4426
  128OSM   C11F13700   1.996   0.928   3.554 -0.1861  0.1427 -0.4009
  128OSM   H11F13701   1.984   1.011   3.626  0.0569  0.3337 -0.5788
  128OSM   H11G13702   2.071   0.959   3.479 -2.0453 -0.1632 -2.4938
  128OSM   C12F13703   2.041   0.805   3.626  0.4176 -0.5383  0.6188
  128OSM   H12F13704   1.951   0.763   3.676 -0.8748 -1.0167 -1.9569
  128OSM   H12G13705   2.122   0.838   3.695  2.8423 -2.4891 -1.1210
  128OSM   C13F13706   2.091   0.701   3.526  0.2091  0.0652 -0.3212
  128OSM   H13F13707   2.176   0.739   3.466 -0.6574  0.8472 -1.1074
  128OSM   H13G13708   2.007   0.679   3.456  0.1569 -2.8198  0.5434
  128OSM   C14F13709   2.139   0.573   3.587 -0.1010 -0.5130 -0.6306
  128OSM   H14F13710   2.219   0.594   3.661 -1.8088  1.0996  0.8353
  128OSM   H14G13711   2.188   0.518   3.504 -0.0534  1.0908 -1.7024
  128OSM   C15F13712   2.022   0.486   3.640  0.6219 -0.1268 -0.6295
  128OSM   H15F13713   1.947   0.476   3.559 -0.5022  0.6464  0.2868
  128OSM   H15G13714   1.975   0.533   3.730 -0.4263  0.9828 -1.7192
  128OSM   C16F13715   2.065   0.343   3.688  0.4571 -0.8820  0.3263
  128OSM   H16F13716   2.160   0.356   3.744 -0.1105 -1.4889  1.4528
  128OSM   H16G13717   2.078   0.275   3.601  2.7729  1.6850 -1.5108
  128OSM   C17F13718   1.975   0.278   3.794 -0.6020 -0.0968  0.3824
  128OSM   H17F13719   1.866   0.285   3.772 -0.5295 -1.3321 -0.5270
  128OSM   H17G13720   1.995   0.334   3.888  0.5967  0.4589 -0.1758
  128OSM   C18F13721   2.012   0.131   3.817  0.5836  0.4288  0.6541
  128OSM   H18F13722   2.115   0.123   3.856 -0.0087 -0.6645  2.0702
  128OSM   H18G13723   2.001   0.071   3.724 -1.7171  3.2629 -1.1021
  128OSM   H18H13724   1.948   0.089   3.898  1.7268 -1.7203  0.4976
  129OSM      N13725   3.310   0.769   2.018  0.7343 -0.3311  0.1408
  129OSM    C1513726   3.343   0.632   1.959  0.5123 -0.2141 -0.1704
  129OSM   H15A13727   3.354   0.561   2.040 -0.2289  0.1814  0.2904
  129OSM   H15B13728   3.437   0.630   1.905  0.6638 -1.6823  0.0968
  129OSM   H15C13729   3.259   0.612   1.893  0.7479  0.9607 -0.8610
  129OSM    C1413730   3.412   0.796   2.117 -0.4313 -0.5431 -0.3597
  129OSM   H14A13731   3.414   0.715   2.189 -1.3420 -1.6055 -1.4829
  129OSM   H14B13732   3.403   0.887   2.176 -2.6007 -1.4399  0.8311
  129OSM   H14C13733   3.509   0.803   2.070  0.3281 -2.1063  0.9056
  129OSM    C1313734   3.330   0.869   1.906 -0.1469 -0.3282 -0.4122
  129OSM   H13A13735   3.426   0.861   1.857 -0.4106 -4.0225 -0.6004
  129OSM   H13B13736   3.310   0.968   1.944 -0.8956 -0.4917 -0.3746
  129OSM   H13C13737   3.250   0.857   1.835  0.0531  1.1349 -0.9187
  129OSM    C1213738   3.171   0.778   2.085  0.0186  0.6227 -0.5096
  129OSM   H12A13739   3.089   0.765   2.015 -0.4484  1.1625 -0.0723
  129OSM   H12B13740   3.158   0.877   2.124  0.1110  0.2399  0.5297
  129OSM    C1113741   3.147   0.668   2.202 -0.1240 -0.5454  0.2584
  129OSM   H11A13742   3.041   0.671   2.233  0.4375 -1.2236  2.4348
  129OSM   H11B13743   3.208   0.698   2.290  2.6802 -2.0866 -0.9875
  129OSM      P13744   3.226   0.421   2.259  0.5426  0.0502  0.0213
  129OSM    O1313745   3.115   0.337   2.294  0.6126 -0.5475  0.2386
  129OSM    O1413746   3.331   0.358   2.184  0.4272  0.3543  0.3148
  129OSM    O1113747   3.287   0.500   2.379  0.7877  0.2233  0.5637
  129OSM    O1213748   3.182   0.536   2.164 -0.0153 -0.2531 -0.5832
  129OSM    C1S13749   3.237   0.498   2.513 -0.1891 -0.1770  0.4364
  129OSM    H1S13750   3.240   0.395   2.553  2.3689 -0.5223 -0.4121
  129OSM    H1T13751   3.133   0.535   2.518  0.4334  2.1177 -1.7010
  129OSM     NF13752   3.270   0.565   2.754  0.3353  0.4344  0.1447
  129OSM    HNF13753   3.248   0.649   2.804  0.2979  1.3204 -1.3106
  129OSM    C2S13754   3.321   0.577   2.618 -0.3342  0.4327  0.1811
  129OSM    H2S13755   3.419   0.526   2.623 -0.0569  1.0693  1.5810
  129OSM    C3S13756   3.344   0.718   2.560  0.2587  0.4273  1.0595
  129OSM    H3S13757   3.241   0.753   2.540 -1.2572 -3.5283  1.0667
  129OSM     O313758   3.424   0.724   2.441 -0.4770 -0.0687 -0.1211
  129OSM    HO313759   3.417   0.633   2.414  1.4538  0.3529 -2.3579
  129OSM    C4S13760   3.406   0.792   2.667 -0.1714  0.5349  0.1992
  129OSM    H4S13761   3.328   0.833   2.733 -1.0268  0.0900 -0.5240
  129OSM    C5S13762   3.540   0.797   2.702 -0.0039 -0.9126  0.1347
  129OSM    H5S13763   3.615   0.751   2.636 -1.2657 -1.9207 -0.6458
  129OSM    C6S13764   3.596   0.865   2.823 -1.0956  0.1397 -0.3785
  129OSM    H6S13765   3.624   0.971   2.802 -2.9353  0.6410 -0.5265
  129OSM    H6T13766   3.692   0.818   2.850 -0.6377 -0.8485 -3.3516
  129OSM    C7S13767   3.513   0.879   2.961  0.0332 -0.4097  0.1064
  129OSM    H7S13768   3.414   0.925   2.941  0.6790  0.6352 -0.7793
  129OSM    H7T13769   3.574   0.936   3.034  0.4602 -0.9512  0.1826
  129OSM    C8S13770   3.495   0.742   3.030  0.3408  0.7108 -0.5215
  129OSM    H8S13771   3.596   0.704   3.056  0.8769  2.2939 -0.1491
  129OSM    H8T13772   3.456   0.678   2.948  0.5653  1.3927 -1.1700
  129OSM    C9S13773   3.405   0.751   3.158 -0.2275  0.7300 -0.3704
  129OSM    H9S13774   3.295   0.754   3.141 -0.5099  1.9158  1.3886
  129OSM    H9T13775   3.442   0.834   3.221 -0.6588  0.5936  0.0662
  129OSM   C10S13776   3.439   0.636   3.240 -0.0099  0.9361  0.6141
  129OSM   H10S13777   3.546   0.637   3.271  0.1435  0.4243  0.1070
  129OSM   H10T13778   3.435   0.544   3.179  0.5797  1.6492 -0.5257
  129OSM   C11S13779   3.363   0.624   3.370 -0.2034  0.2663 -0.0193
  129OSM   H11S13780   3.257   0.597   3.352  0.4290 -2.0682 -0.5667
  129OSM   H11T13781   3.354   0.719   3.427 -2.5770  0.2642 -0.2884
  129OSM   C12S13782   3.435   0.522   3.464 -0.2528 -0.1866 -0.0440
  129OSM   H12S13783   3.545   0.523   3.449 -0.1383 -1.0584  0.6696
  129OSM   H12T13784   3.405   0.420   3.431  0.8181 -0.5417  0.0283
  129OSM   C13S13785   3.412   0.540   3.614 -0.3610  0.2955  0.4908
  129OSM   H13S13786   3.423   0.648   3.640 -0.2152  0.1266  1.1554
  129OSM   H13T13787   3.489   0.483   3.670 -0.0655  0.8236  0.6341
  129OSM   C14S13788   3.280   0.497   3.662 -1.3038  0.2282 -0.0800
  129OSM   H14S13789   3.266   0.392   3.630 -1.1156  0.2435 -0.2145
  129OSM   H14T13790   3.202   0.562   3.616 -0.5087  1.6817  0.5346
  129OSM   C15S13791   3.272   0.498   3.814  0.1111  0.5864 -0.6155
  129OSM   H15S13792   3.167   0.475   3.842  0.7179 -2.4719 -0.4131
  129OSM   H15T13793   3.299   0.601   3.843  1.0190  0.5524 -1.2997
  129OSM   C16S13794   3.367   0.399   3.887 -0.4487  0.8596 -0.0157
  129OSM   H16S13795   3.452   0.452   3.937 -1.6692  1.7810  1.1585
  129OSM   H16T13796   3.413   0.333   3.811  0.2979 -1.1816  2.1051
  129OSM   C17S13797   3.300   0.331   4.002  0.1130 -0.0653 -0.0885
  129OSM   H17S13798   3.376   0.263   4.046 -0.0267 -1.2770 -1.6156
  129OSM   H17T13799   3.222   0.259   3.967  1.2609 -0.0055 -3.0616
  129OSM   C18S13800   3.252   0.427   4.114 -0.6659  0.2890  0.6663
  129OSM   H18S13801   3.153   0.468   4.087 -1.8176 -2.1739  0.8787
  129OSM   H18T13802   3.324   0.510   4.132 -0.7589  0.6580 -0.5439
  129OSM   H18U13803   3.238   0.377   4.212 -4.4612 -3.9150 -1.6236
  129OSM    C1F13804   3.260   0.455   2.817  0.0820  0.1947  0.6727
  129OSM     OF13805   3.311   0.354   2.771 -0.4082  0.3147  0.2715
  129OSM    C2F13806   3.192   0.448   2.944 -0.0804  0.1691 -0.7239
  129OSM    H2F13807   3.096   0.505   2.949 -0.0386  0.3095 -1.4332
  129OSM    H2G13808   3.263   0.499   3.013  1.0278 -1.7425 -0.3958
  129OSM    C3F13809   3.165   0.300   2.991  0.1424 -0.2646  0.5685
  129OSM    H3F13810   3.237   0.226   2.950 -0.8464 -0.4983 -0.8295
  129OSM    H3G13811   3.073   0.271   2.936 -0.0629  1.8583 -0.3182
  129OSM    C4F13812   3.137   0.288   3.145  0.5137  0.0639 -0.4191
  129OSM    H4F13813   3.082   0.191   3.147  1.2798 -0.4390 -1.8962
  129OSM    H4G13814   3.072   0.373   3.172 -0.0327 -1.3510  3.3258
  129OSM    C5F13815   3.256   0.286   3.244  0.7277  0.5923  0.7313
  129OSM    H5F13816   3.231   0.299   3.351  1.9138 -1.4354  1.2850
  129OSM    H5G13817   3.322   0.371   3.216  0.9877 -0.1693 -1.1210
  129OSM    C6F13818   3.337   0.156   3.239  1.0255  0.3008 -0.0836
  129OSM    H6F13819   3.353   0.144   3.130 -0.0218  4.0017 -0.7882
  129OSM    H6G13820   3.264   0.080   3.275 -0.6720  1.6382 -0.6102
  129OSM    C7F13821   3.467   0.146   3.320 -0.3686 -0.2886  0.0741
  129OSM    H7F13822   3.536   0.233   3.322  2.3144 -2.2750  0.6363
  129OSM    H7G13823   3.537   0.068   3.283 -0.0708  0.1286 -0.2565
  129OSM    C8F13824   3.434   0.113   3.470 -0.5307 -0.5296  0.0126
  129OSM    H8F13825   3.387   0.012   3.473  2.1828 -1.9313 -1.3896
  129OSM    H8G13826   3.370   0.193   3.514  0.8888  0.1225  0.9508
  129OSM    C9F13827   3.555   0.113   3.557  0.2573  0.1239  1.1431
  129OSM    H9F13828   3.641   0.169   3.518 -1.1935  0.7859 -1.2759
  129OSM   C10F13829   3.562   0.066   3.680  0.8180  0.5517 -0.6284
  129OSM   H10F13830   3.657   0.066   3.736  0.3339 -2.9832  0.4286
  129OSM   C11F13831   3.453  -0.003   3.752 -0.7053 -0.5340  0.2826
  129OSM   H11F13832   3.411  -0.089   3.696 -1.0073 -0.6171  0.6324
  129OSM   H11G13833   3.365   0.065   3.759 -1.9188 -1.9883 -0.2053
  129OSM   C12F13834   3.505  -0.055   3.886 -0.2987  0.9285 -0.0196
  129OSM   H12F13835   3.556   0.020   3.950  1.8408 -2.0427  2.0059
  129OSM   H12G13836   3.591  -0.124   3.871 -1.3694 -0.5343  0.2733
  129OSM   C13F13837   3.401  -0.143   3.959  0.0866  0.9485 -0.4511
  129OSM   H13F13838   3.396  -0.235   3.897 -1.2729  0.9225 -0.3363
  129OSM   H13G13839   3.302  -0.092   3.963 -0.8839 -0.7935 -1.0687
  129OSM   C14F13840   3.436  -0.201   4.098 -0.3317 -0.1471 -0.1548
  129OSM   H14F13841   3.518  -0.276   4.092 -1.3081 -1.3333  0.8147
  129OSM   H14G13842   3.349  -0.251   4.145 -1.7848  2.6443  0.3545
  129OSM   C15F13843   3.496  -0.089   4.191  0.1544  0.3726  0.1986
  129OSM   H15F13844   3.418  -0.010   4.190  0.8276  1.0495 -0.1601
  129OSM   H15G13845   3.587  -0.043   4.147  1.6442  0.1086  2.8094
  129OSM   C16F13846   3.533  -0.134   4.335  0.5337 -0.2701  0.7056
  129OSM   H16F13847   3.593  -0.052   4.381 -1.4890  0.9104  1.3623
  129OSM   H16G13848   3.575  -0.236   4.326 -1.3725 -1.0303 -0.1229
  129OSM   C17F13849   3.401  -0.141   4.423  0.1220 -0.0981  0.9693
  129OSM   H17F13850   3.310  -0.160   4.363  1.3844  2.2274 -1.9599
  129OSM   H17G13851   3.386  -0.039   4.463 -0.7131  0.9687 -1.8342
  129OSM   C18F13852   3.404  -0.250   4.534 -0.3162 -0.3200 -0.1856
  129OSM   H18F13853   3.418  -0.348   4.484  2.6554 -0.2997  0.4019
  129OSM   H18G13854   3.313  -0.237   4.596  1.1542  0.4433  1.9523
  129OSM   H18H13855   3.493  -0.232   4.599 -1.6272 -1.8426  2.1695
  130OSM      N13856   3.255   4.984   2.469  0.0187  0.2200 -0.7497
  130OSM    C1513857   3.353   5.098   2.475 -0.2448 -0.3602 -0.3728
  130OSM   H15A13858   3.339   5.180   2.543  0.3399  1.4710 -2.3515
  130OSM   H15B13859   3.360   5.152   2.382 -0.4918 -0.1520 -0.2706
  130OSM   H15C13860   3.452   5.056   2.489 -0.6306 -1.7008 -1.4325
  130OSM    C1413861   3.299   4.892   2.576 -0.3238 -0.1116  1.0677
  130OSM   H14A13862   3.384   4.841   2.533  0.1224  0.0727  1.7125
  130OSM   H14B13863   3.232   4.815   2.610  1.0190 -0.9979  1.7971
  130OSM   H14C13864   3.324   4.948   2.665 -0.6504  1.0806  0.4277
  130OSM    C1313865   3.118   5.031   2.500 -0.0909  0.2513  0.8418
  130OSM   H13A13866   3.065   5.081   2.420  1.3903  0.2847 -0.1776
  130OSM   H13B13867   3.112   5.097   2.585  0.8470  0.8081  0.5010
  130OSM   H13C13868   3.061   4.948   2.537  0.0447  0.8635  2.4810
  130OSM    C1213869   3.258   4.915   2.334  0.8524 -0.3536  0.1583
  130OSM   H12A13870   3.238   4.988   2.257  0.9216 -0.6858 -0.1822
  130OSM   H12B13871   3.181   4.838   2.329  0.2437  0.1202  1.7242
  130OSM    C1113872   3.398   4.853   2.299  0.1268 -0.6128  0.0979
  130OSM   H11A13873   3.483   4.920   2.325  1.1097 -1.5163 -0.6587
  130OSM   H11B13874   3.399   4.859   2.188 -1.0709  1.5559  0.1448
  130OSM      P13875   3.353   4.589   2.312 -0.1743  0.0409  0.5116
  130OSM    O1313876   3.219   4.618   2.262 -0.3890  0.3430  0.0040
  130OSM    O1413877   3.448   4.504   2.237  0.0342 -0.0973  0.3278
  130OSM    O1113878   3.341   4.524   2.455  0.1369  0.2180  0.3107
  130OSM    O1213879   3.420   4.725   2.353  0.1478  0.1965 -0.0315
  130OSM    C1S13880   3.443   4.539   2.553  0.9731 -0.2798 -0.4947
  130OSM    H1S13881   3.438   4.641   2.596  0.0632 -0.9898  1.1887
  130OSM    H1T13882   3.541   4.533   2.502  1.4491  2.1403  0.0136
  130OSM     NF13883   3.533   4.452   2.772 -0.3994  0.6433 -0.0703
  130OSM    HNF13884   3.606   4.385   2.781 -0.7430  0.3799  0.8725
  130OSM    C2S13885   3.438   4.426   2.660 -0.1476 -0.4315 -0.2362
  130OSM    H2S13886   3.335   4.443   2.699 -0.4565  0.3228 -1.3426
  130OSM    C3S13887   3.439   4.281   2.601  0.1951 -0.3227 -0.0189
  130OSM    H3S13888   3.544   4.271   2.567 -0.1379 -1.4833 -0.7411
  130OSM     O313889   3.357   4.271   2.484 -0.3442  0.0235 -0.0333
  130OSM    HO313890   3.346   4.363   2.457  0.3157  0.4625  1.1291
  130OSM    C4S13891   3.426   4.163   2.691  0.3199  0.2992 -0.7214
  130OSM    H4S13892   3.515   4.099   2.696 -0.2015 -0.3653  0.6340
  130OSM    C5S13893   3.313   4.116   2.750 -0.9920  0.0199 -0.7104
  130OSM    H5S13894   3.222   4.178   2.750  0.2109  1.8738 -0.3168
  130OSM    C6S13895   3.298   4.000   2.851 -0.2658  0.3214 -0.8012
  130OSM    H6S13896   3.311   3.900   2.806 -1.1143 -1.0668  1.7814
  130OSM    H6T13897   3.190   3.988   2.877 -0.2363 -0.4951 -1.0403
  130OSM    C7S13898   3.378   4.007   2.984 -0.1663  0.6035  0.0226
  130OSM    H7S13899   3.487   4.002   2.960 -0.2144 -0.0854 -0.0620
  130OSM    H7T13900   3.361   3.908   3.031  2.1162  0.3342  0.4103
  130OSM    C8S13901   3.355   4.113   3.089 -0.2641 -1.2096  0.6585
  130OSM    H8S13902   3.247   4.136   3.095 -0.2716 -0.9579 -0.3583
  130OSM    H8T13903   3.413   4.208   3.088  0.7061 -1.7750 -0.9595
  130OSM    C9S13904   3.397   4.044   3.222 -0.5338 -0.4611 -0.2309
  130OSM    H9S13905   3.505   4.019   3.226 -0.6050 -0.6004  1.5608
  130OSM    H9T13906   3.341   3.948   3.229  0.0900 -0.7201  1.4506
  130OSM   C10S13907   3.365   4.124   3.346 -0.0240  0.4711  0.3505
  130OSM   H10S13908   3.256   4.143   3.339 -0.2396 -1.2030 -2.3245
  130OSM   H10T13909   3.415   4.223   3.348  2.2371 -0.5894  0.1423
  130OSM   C11S13910   3.408   4.048   3.478  0.4560  0.2134 -0.3494
  130OSM   H11S13911   3.519   4.043   3.485  0.2934 -1.0380  2.8113
  130OSM   H11T13912   3.373   3.943   3.463 -0.3365  0.3309  0.6078
  130OSM   C12S13913   3.344   4.101   3.603 -0.3640  0.4087  0.1008
  130OSM   H12S13914   3.235   4.108   3.588 -0.1915  4.1685 -0.2489
  130OSM   H12T13915   3.380   4.199   3.641  0.2138  0.0176  0.5880
  130OSM   C13S13916   3.377   4.010   3.723  0.3164 -0.0084 -0.8050
  130OSM   H13S13917   3.480   3.970   3.705 -0.0221 -1.7159  0.7855
  130OSM   H13T13918   3.307   3.927   3.745  1.8825 -1.0832  0.4057
  130OSM   C14S13919   3.375   4.080   3.847 -0.0317  0.3426 -0.3925
  130OSM   H14S13920   3.457   4.155   3.843  0.0921  0.2613  0.5113
  130OSM   H14T13921   3.408   4.017   3.933  0.3458 -0.2874 -0.9844
  130OSM   C15S13922   3.253   4.156   3.887  0.4544  0.6881  0.3407
  130OSM   H15S13923   3.157   4.101   3.896  0.2091  1.1151  0.3618
  130OSM   H15T13924   3.225   4.238   3.818  0.1611  0.6002  0.3527
  130OSM   C16S13925   3.273   4.236   4.021  0.3973  0.3687  0.7674
  130OSM   H16S13926   3.349   4.316   4.008 -0.6395  1.2770  0.0221
  130OSM   H16T13927   3.310   4.168   4.100  0.9376  1.3737  1.3981
  130OSM   C17S13928   3.144   4.301   4.074 -0.1201 -0.4719 -0.3601
  130OSM   H17S13929   3.167   4.368   4.160  1.1315  0.6199 -1.4915
  130OSM   H17T13930   3.085   4.218   4.116 -0.9733 -0.3692 -1.3107
  130OSM   C18S13931   3.060   4.386   3.976  0.1018  0.3971 -0.5449
  130OSM   H18S13932   3.112   4.469   3.924 -0.3686  1.2152  0.2565
  130OSM   H18T13933   2.985   4.433   4.044  1.3993 -0.6723  1.7500
  130OSM   H18U13934   3.013   4.318   3.903  1.0710 -2.1921  1.0955
  130OSM    C1F13935   3.524   4.553   2.852 -1.0886  0.1834  0.0806
  130OSM     OF13936   3.432   4.629   2.833  0.3584 -0.2806  0.1771
  130OSM    C2F13937   3.616   4.558   2.967  0.4022 -0.2197  0.1784
  130OSM    H2F13938   3.705   4.619   2.940  0.1992 -0.1286 -0.2965
  130OSM    H2G13939   3.641   4.452   2.989  0.2438 -0.2129  0.3964
  130OSM    C3F13940   3.556   4.614   3.101  0.0723  0.4010 -0.2637
  130OSM    H3F13941   3.450   4.582   3.106 -0.2568  1.5457  0.2062
  130OSM    H3G13942   3.551   4.723   3.082 -0.1019  0.2909 -0.8864
  130OSM    C4F13943   3.625   4.588   3.232 -0.4245 -0.3965  0.3490
  130OSM    H4F13944   3.564   4.648   3.303 -2.2591 -2.2672  0.4548
  130OSM    H4G13945   3.727   4.630   3.239 -0.6165 -0.1068  1.8475
  130OSM    C5F13946   3.620   4.444   3.285  0.0531  0.9224  0.1887
  130OSM    H5F13947   3.687   4.380   3.223 -2.2072 -3.0334  1.4690
  130OSM    H5G13948   3.519   4.400   3.286  0.5065 -0.1520  0.5487
  130OSM    C6F13949   3.685   4.445   3.425 -0.1848  0.7207  0.2595
  130OSM    H6F13950   3.764   4.522   3.418  0.7748 -0.1708  0.9402
  130OSM    H6G13951   3.722   4.342   3.447  0.1903  0.7563 -0.1858
  130OSM    C7F13952   3.588   4.480   3.534 -0.0926  0.3879 -0.0458
  130OSM    H7F13953   3.521   4.394   3.551  0.9740 -0.5033 -0.1973
  130OSM    H7G13954   3.523   4.567   3.510 -0.3647  0.4181  0.7634
  130OSM    C8F13955   3.652   4.514   3.676 -0.5859 -0.5465  0.2522
  130OSM    H8F13956   3.707   4.610   3.664 -2.0233  0.2064 -0.6959
  130OSM    H8G13957   3.728   4.439   3.706  1.2377  0.6342 -1.1763
  130OSM    C9F13958   3.540   4.527   3.773  0.0562 -0.0826  1.4737
  130OSM    H9F13959   3.453   4.467   3.743  2.1638 -1.6678 -1.9841
  130OSM   C10F13960   3.555   4.587   3.897  0.4459 -0.1615 -0.1934
  130OSM   H10F13961   3.468   4.604   3.962  0.6856  1.1371 -0.1895
  130OSM   C11F13962   3.676   4.666   3.952  0.3519 -0.0621 -0.2080
  130OSM   H11F13963   3.647   4.772   3.964 -0.8823 -0.4989  0.8571
  130OSM   H11G13964   3.764   4.668   3.884  0.6380  1.2384  0.1840
  130OSM   C12F13965   3.716   4.616   4.091  0.2851  0.2533  0.2556
  130OSM   H12F13966   3.826   4.606   4.080  0.3908  1.4699 -0.0045
  130OSM   H12G13967   3.672   4.515   4.100 -0.6427  0.6623  0.4677
  130OSM   C13F13968   3.669   4.697   4.218 -0.0662 -0.5915  0.6525
  130OSM   H13F13969   3.563   4.727   4.217 -0.2431 -1.1308  1.7145
  130OSM   H13G13970   3.721   4.794   4.230 -0.0784 -0.4340 -0.5070
  130OSM   C14F13971   3.694   4.622   4.342  0.1422  0.5053  0.2019
  130OSM   H14F13972   3.789   4.566   4.332 -0.6149 -1.0772  1.3076
  130OSM   H14G13973   3.618   4.541   4.348  3.4266 -3.2071 -2.7986
  130OSM   C15F13974   3.688   4.700   4.469  0.4168  0.0372  0.1722
  130OSM   H15F13975   3.766   4.779   4.456 -0.9229  1.1035 -2.2780
  130OSM   H15G13976   3.690   4.638   4.561 -3.4129  0.7238  0.9004
  130OSM   C16F13977   3.546   4.759   4.478  0.5640  0.4419  0.3746
  130OSM   H16F13978   3.479   4.672   4.463  0.7026  0.2723  0.7401
  130OSM   H16G13979   3.525   4.840   4.405  1.5135  0.1626 -0.2286
  130OSM   C17F13980   3.516   4.823   4.614  0.1426  0.6651 -0.5067
  130OSM   H17F13981   3.528   4.754   4.700  0.0714  0.6758 -0.4888
  130OSM   H17G13982   3.407   4.843   4.611 -0.1818 -0.8275  0.5248
  130OSM   C18F13983   3.583   4.950   4.655  0.0115 -0.1166  0.3805
  130OSM   H18F13984   3.564   5.036   4.588 -2.7067  1.0642  2.5012
  130OSM   H18G13985   3.691   4.922   4.654 -0.2037 -1.0250  1.2555
  130OSM   H18H13986   3.551   4.994   4.751 -0.7665  1.1701 -0.4491
  131OSM      N13987   0.636   0.763   1.699 -0.6215  0.5579 -0.1982
  131OSM    C1513988   0.666   0.901   1.655  0.3997  0.1549  0.3568
  131OSM   H15A13989   0.612   0.970   1.718  1.3690  0.6404  0.6803
  131OSM   H15B13990   0.652   0.923   1.550  1.1847 -0.1870  0.1731
  131OSM   H15C13991   0.767   0.936   1.673 -0.1994  2.2203 -0.0922
  131OSM    C1413992   0.505   0.721   1.641  0.1230  0.1068 -0.1227
  131OSM   H14A13993   0.421   0.760   1.696 -0.8553  0.2937 -1.6979
  131OSM   H14B13994   0.502   0.613   1.647  0.2976  0.1436  0.8964
  131OSM   H14C13995   0.496   0.753   1.539 -2.1377  1.8494  0.5497
  131OSM    C1313996   0.736   0.669   1.642 -0.1067  0.2872  0.2549
  131OSM   H13A13997   0.749   0.692   1.537 -0.7014  1.6662  0.4592
  131OSM   H13B13998   0.702   0.567   1.633 -2.7505  1.1500 -0.4397
  131OSM   H13C13999   0.829   0.693   1.691 -0.0923 -1.8936  1.3971
  131OSM    C1214000   0.637   0.750   1.849  0.4100 -0.3710 -0.6075
  131OSM   H12A14001   0.589   0.658   1.881  0.9482 -0.1157  1.0717
  131OSM   H12B14002   0.589   0.842   1.880  1.5102  0.1082 -0.2680
  131OSM    C1114003   0.768   0.745   1.923 -0.5411  1.0132  0.1590
  131OSM   H11A14004   0.813   0.646   1.902  2.3451  1.4956  3.2724
  131OSM   H11B14005   0.759   0.741   2.033  1.0645 -2.8192  0.3021
  131OSM      P14006   0.892   0.962   1.975 -0.0609 -0.5172  0.1099
  131OSM    O1314007   0.973   1.071   1.911 -0.3693 -0.2976  0.3993
  131OSM    O1414008   0.760   1.011   2.016 -0.0059  0.3521 -0.2705
  131OSM    O1114009   0.976   0.903   2.105 -0.1641  0.1515 -0.6338
  131OSM    O1214010   0.867   0.838   1.875  0.1028 -0.4957  0.0032
  131OSM    C1S14011   0.980   0.990   2.217  0.0721  0.5771 -0.7890
  131OSM    H1S14012   0.894   1.060   2.212  0.9903  1.6779 -1.7261
  131OSM    H1T14013   1.074   1.048   2.205  0.7966 -0.7593 -1.8944
  131OSM     NF14014   0.984   1.020   2.469 -1.1178 -0.4267  0.0800
  131OSM    HNF14015   1.072   1.027   2.516 -1.9038  2.5770  1.3536
  131OSM    C2S14016   0.969   0.923   2.362 -0.4938 -0.5816  0.3486
  131OSM    H2S14017   0.864   0.888   2.369 -0.3855 -0.8762  0.4983
  131OSM    C3S14018   1.065   0.800   2.376 -0.2646 -0.1188  0.5595
  131OSM    H3S14019   1.163   0.850   2.362  0.7428 -1.3505  2.7689
  131OSM     O314020   1.053   0.710   2.265 -0.7397  0.2694  0.4734
  131OSM    HO314021   1.006   0.765   2.202 -0.3701 -0.8083 -0.7705
  131OSM    C4S14022   1.084   0.734   2.508  0.0251 -0.1073  0.3605
  131OSM    H4S14023   1.117   0.810   2.581 -1.3122  1.3822 -0.5029
  131OSM    C5S14024   1.041   0.613   2.541 -0.0310  0.2386 -0.4109
  131OSM    H5S14025   0.984   0.556   2.467  2.2207 -0.8584 -1.4081
  131OSM    C6S14026   1.067   0.540   2.672 -0.0774  0.3588 -1.0078
  131OSM    H6S14027   1.141   0.460   2.652  1.1432  0.9646  0.7995
  131OSM    H6T14028   0.977   0.484   2.703  0.0102 -1.0545 -3.1094
  131OSM    C7S14029   1.115   0.622   2.796  0.9763  0.0781  0.1864
  131OSM    H7S14030   1.064   0.721   2.800  0.6872  0.0636 -1.8066
  131OSM    H7T14031   1.223   0.645   2.795  0.8669  0.7734  1.5817
  131OSM    C8S14032   1.090   0.536   2.921 -0.3672  0.5446 -0.0307
  131OSM    H8S14033   1.178   0.468   2.925  1.5438  2.8165 -1.1129
  131OSM    H8T14034   0.992   0.484   2.921  1.5772 -3.5183 -0.8910
  131OSM    C9S14035   1.091   0.627   3.042  0.3484  0.9801 -0.4924
  131OSM    H9S14036   1.018   0.710   3.041  0.4742  1.1285  0.9103
  131OSM    H9T14037   1.194   0.668   3.049  0.4574  0.4357  2.6110
  131OSM   C10S14038   1.064   0.548   3.167 -0.0166  0.1162 -0.5191
  131OSM   H10S14039   1.131   0.459   3.166 -1.5221 -1.1186  1.2931
  131OSM   H10T14040   0.958   0.514   3.165  0.2271 -0.6884 -0.4598
  131OSM   C11S14041   1.082   0.634   3.291 -0.6543 -0.1511 -0.5940
  131OSM   H11S14042   1.027   0.731   3.290 -0.9417 -0.3118 -0.5836
  131OSM   H11T14043   1.191   0.655   3.299 -0.7590  0.7764 -1.3746
  131OSM   C12S14044   1.033   0.570   3.423  0.5034 -0.5289  0.7194
  131OSM   H12S14045   1.049   0.461   3.437 -1.8795 -0.9947  0.2334
  131OSM   H12T14046   0.922   0.574   3.425  0.4044 -1.1639  4.8360
  131OSM   C13S14047   1.084   0.644   3.546 -0.2717  0.1354  0.7732
  131OSM   H13S14048   1.063   0.752   3.527  0.4964  0.0087 -1.0282
  131OSM   H13T14049   1.194   0.636   3.558 -0.0320  1.8765  0.0569
  131OSM   C14S14050   1.015   0.583   3.666 -0.2488  0.8444  1.1290
  131OSM   H14S14051   1.049   0.477   3.665  1.5935  1.4054  0.9311
  131OSM   H14T14052   0.905   0.593   3.655  0.0405  0.9078 -2.9722
  131OSM   C15S14053   1.078   0.632   3.791  0.3193 -0.8820  0.3699
  131OSM   H15S14054   1.091   0.741   3.774  1.9753 -1.3959 -2.1492
  131OSM   H15T14055   1.178   0.583   3.798 -0.2262 -2.1843 -0.6409
  131OSM   C16S14056   0.985   0.621   3.910 -0.3250 -0.3707  1.0449
  131OSM   H16S14057   0.883   0.657   3.887 -0.2808 -0.9874 -0.2233
  131OSM   H16T14058   1.026   0.685   3.990  0.1335 -2.0557  2.2044
  131OSM   C17S14059   0.969   0.479   3.973 -0.4890  0.6780  0.7259
  131OSM   H17S14060   1.071   0.441   3.993  0.1509  0.7969 -1.9107
  131OSM   H17T14061   0.928   0.400   3.905  2.5559 -1.7405  1.4620
  131OSM   C18S14062   0.894   0.479   4.100  0.0182  0.0116 -0.5141
  131OSM   H18S14063   0.796   0.531   4.090 -0.0805 -0.3777 -1.8135
  131OSM   H18T14064   0.948   0.543   4.173  0.1293 -1.0713  0.3751
  131OSM   H18U14065   0.891   0.375   4.138  1.2860 -0.0012 -0.4094
  131OSM    C1F14066   0.900   1.119   2.494 -0.5621 -0.0909  0.2552
  131OSM     OF14067   0.798   1.119   2.427  0.3540  0.9417 -0.3088
  131OSM    C2F14068   0.939   1.214   2.608 -0.1215 -0.7237  0.8751
  131OSM    H2F14069   1.038   1.258   2.583 -0.5241 -0.3478 -0.1052
  131OSM    H2G14070   0.948   1.149   2.698 -2.7089 -0.4585  1.3887
  131OSM    C3F14071   0.841   1.324   2.652  0.1386 -0.8593  0.1826
  131OSM    H3F14072   0.822   1.393   2.567  1.0378 -1.4578 -0.5267
  131OSM    H3G14073   0.887   1.370   2.742 -2.4197 -0.8493  1.5888
  131OSM    C4F14074   0.707   1.267   2.709 -0.0719 -0.5864  0.3846
  131OSM    H4F14075   0.745   1.190   2.780 -0.7917  1.0559  2.6369
  131OSM    H4G14076   0.644   1.231   2.624  0.4883 -1.4849  0.3345
  131OSM    C5F14077   0.635   1.378   2.786 -0.6274  0.5060 -0.3413
  131OSM    H5F14078   0.587   1.445   2.711  0.5448 -1.1507 -2.7290
  131OSM    H5G14079   0.703   1.439   2.849 -1.3046  1.3554 -0.4061
  131OSM    C6F14080   0.517   1.323   2.863 -0.0846 -0.2498  0.5808
  131OSM    H6F14081   0.558   1.234   2.916 -1.0104  0.6107  2.8472
  131OSM    H6G14082   0.444   1.291   2.786 -0.9874 -0.8357  1.6439
  131OSM    C7F14083   0.471   1.421   2.972  0.4797 -0.3186  0.2530
  131OSM    H7F14084   0.422   1.513   2.935 -0.6920 -0.7409  0.7061
  131OSM    H7G14085   0.563   1.470   3.011 -0.6089  1.5230  0.5810
  131OSM    C8F14086   0.400   1.359   3.093  0.7935 -0.0946  0.3991
  131OSM    H8F14087   0.459   1.273   3.133 -1.1063 -0.4821  2.5564
  131OSM    H8G14088   0.299   1.316   3.076  0.4868  0.3083  1.1368
  131OSM    C9F14089   0.377   1.475   3.189  0.8204  0.1001  0.0399
  131OSM    H9F14090   0.328   1.566   3.150  1.2576  0.6821  0.8192
  131OSM   C10F14091   0.406   1.472   3.317 -0.3401 -0.6060 -0.5672
  131OSM   H10F14092   0.381   1.566   3.370 -1.1834 -0.0361 -1.9155
  131OSM   C11F14093   0.482   1.362   3.394 -0.7006  0.1205 -0.1202
  131OSM   H11F14094   0.585   1.361   3.351 -0.7442 -1.3259 -0.2579
  131OSM   H11G14095   0.452   1.259   3.364  1.5368 -0.6687  0.1126
  131OSM   C12F14096   0.497   1.388   3.544  0.1391  0.2818 -0.0142
  131OSM   H12F14097   0.559   1.479   3.558  0.5091 -0.0793  0.7338
  131OSM   H12G14098   0.554   1.305   3.591 -0.7728 -0.4902 -0.2494
  131OSM   C13F14099   0.363   1.384   3.617  0.0928 -0.1283 -0.0019
  131OSM   H13F14100   0.314   1.287   3.594  0.9355 -0.6371  0.2883
  131OSM   H13G14101   0.291   1.464   3.591 -1.8466 -1.8778 -0.2396
  131OSM   C14F14102   0.370   1.411   3.772  0.4023  0.0545  0.1178
  131OSM   H14F14103   0.385   1.520   3.791  0.2329  0.0610  0.2083
  131OSM   H14G14104   0.468   1.371   3.806  1.8232  2.5628 -0.7118
  131OSM   C15F14105   0.253   1.354   3.849 -0.0063  0.0052  0.6619
  131OSM   H15F14106   0.164   1.416   3.823 -1.5877 -1.5000  2.2221
  131OSM   H15G14107   0.272   1.379   3.956  0.5640  0.5574  0.4388
  131OSM   C16F14108   0.227   1.201   3.832 -0.6555 -0.2732 -0.2488
  131OSM   H16F14109   0.321   1.157   3.793  0.4183  1.7311 -0.0586
  131OSM   H16G14110   0.149   1.189   3.755 -1.5455  2.7432  0.0390
  131OSM   C17F14111   0.195   1.141   3.959  0.7424 -0.2893 -0.2001
  131OSM   H17F14112   0.095   1.175   3.996  1.6357  0.6512  1.4787
  131OSM   H17G14113   0.270   1.176   4.033  0.7246 -0.8090  0.0668
  131OSM   C18F14114   0.197   0.984   3.955  0.0956  0.2802 -0.1226
  131OSM   H18F14115   0.158   0.937   4.047  1.5151 -2.3793 -0.7853
  131OSM   H18G14116   0.299   0.940   3.953  0.5020  1.0353  1.9628
  131OSM   H18H14117   0.137   0.953   3.866 -0.3629  0.9968 -0.0708
  132OSM      N14118   6.172   0.066   1.641 -0.5585 -0.2190  0.6293
  132OSM    C1514119   6.188   0.218   1.615  0.4085 -0.4115 -0.0008
  132OSM   H15A14120   6.122   0.272   1.682  0.6124  0.3656 -0.4205
  132OSM   H15B14121   6.165   0.245   1.513  3.2129 -1.7301 -1.0891
  132OSM   H15C14122   6.286   0.251   1.643 -0.0381 -0.7885  2.2335
  132OSM    C1414123   6.035   0.023   1.602 -0.1650 -0.4893  0.1119
  132OSM   H14A14124   5.967   0.075   1.668 -0.1506 -0.3113 -0.0132
  132OSM   H14B14125   6.006  -0.078   1.626 -3.1811  0.1351 -0.4348
  132OSM   H14C14126   6.014   0.031   1.497  3.8768  1.4582 -0.7424
  132OSM    C1314127   6.263   0.001   1.547  0.1089  0.1950  0.0548
  132OSM   H13A14128   6.240   0.030   1.446 -1.4008 -1.6733 -0.2092
  132OSM   H13B14129   6.273  -0.107   1.550 -0.3986  0.0838 -1.3750
  132OSM   H13C14130   6.362   0.039   1.565  0.4488  0.1623 -1.5945
  132OSM    C1214131   6.204   0.035   1.783 -0.8037 -0.2443 -0.7822
  132OSM   H12A14132   6.312   0.036   1.794 -0.7571 -0.0422 -1.2245
  132OSM   H12B14133   6.179  -0.068   1.803 -0.3907 -0.9345 -3.3906
  132OSM    C1114134   6.128   0.118   1.893  0.1581 -0.5023  0.5927
  132OSM   H11A14135   6.148   0.228   1.890 -0.2363 -0.3218  2.9103
  132OSM   H11B14136   6.169   0.075   1.987 -2.1321 -0.3980  1.7119
  132OSM      P14137   5.893   0.210   1.895  0.3879  0.3283  0.4341
  132OSM    O1314138   5.952   0.319   1.808  0.6877  0.3374  0.8241
  132OSM    O1414139   5.768   0.147   1.856 -0.2375  0.0893 -0.0480
  132OSM    O1114140   5.878   0.255   2.045  0.1137  0.3466  0.3256
  132OSM    O1214141   5.987   0.095   1.891  0.0633 -0.0262  0.1321
  132OSM    C1S14142   5.872   0.155   2.147  0.1485  0.3747 -0.0286
  132OSM    H1S14143   5.948   0.075   2.147  2.1088  2.0402  2.8785
  132OSM    H1T14144   5.775   0.104   2.129  0.3419  0.0142 -0.0468
  132OSM     NF14145   5.882   0.105   2.394  0.1132 -0.2825 -0.0664
  132OSM    HNF14146   5.814   0.100   2.467  0.6823 -0.9516  0.4325
  132OSM    C2S14147   5.865   0.211   2.294 -0.3604 -0.0100 -0.0310
  132OSM    H2S14148   5.954   0.275   2.312 -0.1688 -1.0093  3.2956
  132OSM    C3S14149   5.742   0.297   2.317 -0.6955 -0.3471 -0.1610
  132OSM    H3S14150   5.650   0.239   2.342 -0.6844 -1.0096 -1.5808
  132OSM     O314151   5.708   0.396   2.217  0.3254  0.5636 -0.0863
  132OSM    HO314152   5.778   0.378   2.155  0.7301 -2.2231  1.0005
  132OSM    C4S14153   5.755   0.369   2.452  0.2646  0.2237  0.2899
  132OSM    H4S14154   5.731   0.314   2.544 -3.3376 -0.7448 -1.0782
  132OSM    C5S14155   5.801   0.489   2.480 -0.0899  0.2232  0.4141
  132OSM    H5S14156   5.848   0.545   2.398 -0.2645  0.2335  0.3224
  132OSM    C6S14157   5.823   0.550   2.615 -0.7592 -0.6748  0.2333
  132OSM    H6S14158   5.769   0.645   2.636  0.2722 -0.0155  0.0137
  132OSM    H6T14159   5.927   0.589   2.623 -1.0737 -0.1250  1.9837
  132OSM    C7S14160   5.812   0.456   2.736  0.3154 -0.4141 -0.0492
  132OSM    H7S14161   5.882   0.371   2.747  2.6913  1.6572  2.0052
  132OSM    H7T14162   5.710   0.412   2.727 -0.1686  0.5784  0.4154
  132OSM    C8S14163   5.818   0.517   2.882 -0.3716 -1.3529 -0.2309
  132OSM    H8S14164   5.755   0.608   2.873 -0.9072 -1.7030 -0.0019
  132OSM    H8T14165   5.922   0.546   2.910  0.1985 -1.7907 -1.7466
  132OSM    C9S14166   5.768   0.425   2.996 -0.4454  0.6760  0.6989
  132OSM    H9S14167   5.823   0.329   2.985 -1.5276 -0.0065  1.1354
  132OSM    H9T14168   5.661   0.412   2.970  0.0216 -0.3653 -0.8644
  132OSM   C10S14169   5.783   0.484   3.135 -0.3021  0.3914  0.1885
  132OSM   H10S14170   5.741   0.587   3.134  0.4251  0.7215  1.4602
  132OSM   H10T14171   5.889   0.504   3.163 -0.2762  0.7333 -0.1453
  132OSM   C11S14172   5.704   0.401   3.243  0.2846 -0.0406  0.0191
  132OSM   H11S14173   5.745   0.299   3.228 -1.0851 -0.5148 -0.6801
  132OSM   H11T14174   5.597   0.393   3.213  0.3615  1.4350 -0.7622
  132OSM   C12S14175   5.743   0.456   3.381 -0.1903 -0.1594  0.1107
  132OSM   H12S14176   5.726   0.564   3.396 -0.0068 -0.1690  0.4022
  132OSM   H12T14177   5.852   0.446   3.401 -0.2727 -2.6470 -0.3727
  132OSM   C13S14178   5.671   0.385   3.500 -0.2790  0.2221  0.8225
  132OSM   H13S14179   5.703   0.279   3.488 -0.3816 -0.1957  3.6559
  132OSM   H13T14180   5.563   0.386   3.471  0.0007 -1.6431 -0.4869
  132OSM   C14S14181   5.693   0.436   3.645  0.1879 -0.6905  1.1873
  132OSM   H14S14182   5.671   0.545   3.640 -2.6587 -1.2023  0.9429
  132OSM   H14T14183   5.794   0.404   3.680  0.1789 -1.0170  0.9276
  132OSM   C15S14184   5.605   0.359   3.737  0.2632 -0.2287  0.4701
  132OSM   H15S14185   5.644   0.256   3.726 -0.5813 -1.0883  4.2223
  132OSM   H15T14186   5.499   0.374   3.706  0.6582  0.7540 -0.4981
  132OSM   C16S14187   5.611   0.394   3.884  0.5236 -0.0187 -0.0783
  132OSM   H16S14188   5.561   0.489   3.910  0.2779  0.0829 -0.8882
  132OSM   H16T14189   5.716   0.402   3.919  0.3257  1.1268  0.2823
  132OSM   C17S14190   5.540   0.276   3.960 -0.2002 -0.1170  0.9341
  132OSM   H17S14191   5.590   0.180   3.936  0.0415  0.7733 -2.5772
  132OSM   H17T14192   5.432   0.267   3.936 -0.4817  1.1080  1.6296
  132OSM   C18S14193   5.546   0.295   4.114  0.1108 -0.9088 -0.7918
  132OSM   H18S14194   5.647   0.299   4.160 -0.3685  1.1702  0.1746
  132OSM   H18T14195   5.483   0.219   4.166 -0.3748  0.0058 -0.0169
  132OSM   H18U14196   5.491   0.390   4.133 -2.2155 -2.2649 -0.2585
  132OSM    C1F14197   5.984   0.025   2.405 -0.3084 -0.0102 -0.3112
  132OSM     OF14198   6.079   0.038   2.328  0.4233 -0.0510 -0.0827
  132OSM    C2F14199   5.986  -0.072   2.522  0.6213 -0.5637 -0.2352
  132OSM    H2F14200   5.891  -0.131   2.528  1.0319 -1.0911  1.3357
  132OSM    H2G14201   5.995  -0.015   2.616  1.2902  0.2729 -0.7882
  132OSM    C3F14202   6.102  -0.167   2.511 -0.7735  0.2803 -0.3297
  132OSM    H3F14203   6.189  -0.099   2.494 -0.0448 -0.2500  1.1489
  132OSM    H3G14204   6.084  -0.239   2.429  1.0491 -1.6520  0.8635
  132OSM    C4F14205   6.129  -0.249   2.640  0.2505  0.8285  0.3229
  132OSM    H4F14206   6.163  -0.350   2.608 -0.2517  0.4313  1.0133
  132OSM    H4G14207   6.028  -0.271   2.680 -0.1895 -1.5346 -1.8216
  132OSM    C5F14208   6.219  -0.195   2.744  0.1775  0.1821 -0.5091
  132OSM    H5F14209   6.196  -0.087   2.755 -1.0691  0.0931 -1.9921
  132OSM    H5G14210   6.320  -0.201   2.698 -0.1179  0.3957 -1.1987
  132OSM    C6F14211   6.221  -0.282   2.871 -0.1798  0.5496  0.0827
  132OSM    H6F14212   6.248  -0.384   2.837 -2.1823  0.3849 -1.1724
  132OSM    H6G14213   6.124  -0.277   2.925 -0.8776 -2.2771 -0.7582
  132OSM    C7F14214   6.315  -0.229   2.973  0.3936  0.7339 -0.2090
  132OSM    H7F14215   6.269  -0.130   2.997 -1.3505  0.0250 -0.4936
  132OSM    H7G14216   6.413  -0.193   2.933  0.5977  1.2496  0.7104
  132OSM    C8F14217   6.328  -0.310   3.103 -0.5647 -0.8083  0.2109
  132OSM    H8F14218   6.360  -0.413   3.078 -0.3395 -0.7966  0.4458
  132OSM    H8G14219   6.222  -0.319   3.135 -0.9561 -2.1000 -1.3401
  132OSM    C9F14220   6.397  -0.247   3.221  0.5175 -0.7174 -0.1887
  132OSM    H9F14221   6.343  -0.166   3.272  1.5001  0.3107 -0.7289
  132OSM   C10F14222   6.512  -0.286   3.268 -1.1108 -0.1855  0.2550
  132OSM   H10F14223   6.562  -0.225   3.345 -0.3932  1.0366 -1.1371
  132OSM   C11F14224   6.593  -0.406   3.219  0.3357 -0.2413  0.0183
  132OSM   H11F14225   6.530  -0.488   3.177 -0.3524  0.7972 -1.0271
  132OSM   H11G14226   6.643  -0.460   3.302  1.5403  1.0795  0.1905
  132OSM   C12F14227   6.694  -0.372   3.105 -0.2627 -0.0166  0.2203
  132OSM   H12F14228   6.641  -0.337   3.014 -0.8997 -1.1972  0.1185
  132OSM   H12G14229   6.758  -0.460   3.087  0.1103  0.3224 -0.1305
  132OSM   C13F14230   6.802  -0.267   3.143  0.4174 -0.0728 -0.2043
  132OSM   H13F14231   6.851  -0.299   3.237  2.8045 -0.4206 -1.4949
  132OSM   H13G14232   6.755  -0.169   3.166  1.2850  0.1293  0.7575
  132OSM   C14F14233   6.905  -0.241   3.029  0.2356  0.6250  0.1652
  132OSM   H14F14234   6.864  -0.179   2.946  1.6956  1.1603 -0.1912
  132OSM   H14G14235   6.941  -0.337   2.986  0.0367 -0.0330  1.4253
  132OSM   C15F14236   7.026  -0.173   3.090 -0.4032 -0.2014 -0.2552
  132OSM   H15F14237   7.074  -0.239   3.164 -1.3936 -0.8254 -0.1436
  132OSM   H15G14238   6.990  -0.086   3.150  1.8792  0.8774 -0.3537
  132OSM   C16F14239   7.131  -0.131   2.986  0.3255  0.2428  1.1338
  132OSM   H16F14240   7.082  -0.061   2.915 -0.6237 -1.9277 -0.4704
  132OSM   H16G14241   7.164  -0.226   2.938 -3.0285 -0.8943  0.8049
  132OSM   C17F14242   7.248  -0.047   3.041 -0.3435  0.7993 -0.6408
  132OSM   H17F14243   7.214   0.041   3.098 -1.0759 -1.7005  3.1451
  132OSM   H17G14244   7.311  -0.017   2.954  1.6035 -0.4423  0.2680
  132OSM   C18F14245   7.341  -0.133   3.125  0.1985  0.5895 -0.1062
  132OSM   H18F14246   7.429  -0.077   3.166 -1.0941  1.5427  1.4661
  132OSM   H18G14247   7.381  -0.220   3.069  0.0182 -0.1799  0.9213
  132OSM   H18H14248   7.287  -0.179   3.210  2.8662 -1.3827  0.6641
  133OSM      N14249   3.977   2.868   2.148 -0.1777  0.0605  1.1334
  133OSM    C1514250   3.859   2.817   2.230  0.6234 -0.7272 -0.3350
  133OSM   H15A14251   3.781   2.785   2.162  1.7711  1.2103 -2.7127
  133OSM   H15B14252   3.828   2.890   2.303  3.1114 -0.0556  0.1221
  133OSM   H15C14253   3.895   2.728   2.279  3.4081  1.6062  2.2436
  133OSM    C1414254   4.041   2.742   2.091  0.1873 -0.2695  0.3799
  133OSM   H14A14255   3.972   2.670   2.050  1.2084 -2.3486  2.1225
  133OSM   H14B14256   4.095   2.687   2.166 -0.1867 -0.2230  0.6882
  133OSM   H14C14257   4.115   2.766   2.015  1.8131 -1.5520  1.4791
  133OSM    C1314258   3.928   2.953   2.038 -0.6853  0.1046 -0.0737
  133OSM   H13A14259   3.996   2.983   1.960  0.5022  4.4207  2.2965
  133OSM   H13B14260   3.890   3.040   2.090 -0.4687 -0.3422  0.8496
  133OSM   H13C14261   3.851   2.901   1.983 -0.1101  0.9212 -1.7288
  133OSM    C1214262   4.070   2.951   2.229  0.3370 -0.0585 -0.0374
  133OSM   H12A14263   4.012   3.039   2.254  0.6943  0.5565 -1.3323
  133OSM   H12B14264   4.155   2.977   2.169  1.6748 -1.1160  1.3244
  133OSM    C1114265   4.124   2.905   2.369  0.0797  0.7506  0.9207
  133OSM   H11A14266   4.031   2.888   2.428 -0.9488  4.4911  0.6630
  133OSM   H11B14267   4.180   2.982   2.427 -0.7351  2.0405  0.0669
  133OSM      P14268   4.356   2.816   2.313 -0.3628 -0.5628  0.0420
  133OSM    O1314269   4.417   2.681   2.293 -0.9550  0.3815 -0.7171
  133OSM    O1414270   4.364   2.917   2.204 -0.3353  0.2408  0.6577
  133OSM    O1114271   4.423   2.876   2.442 -0.1485 -0.2807 -0.2138
  133OSM    O1214272   4.203   2.785   2.356  0.1554  0.9196  0.4701
  133OSM    C1S14273   4.398   2.813   2.566  0.4373 -0.2211 -0.8046
  133OSM    H1S14274   4.457   2.720   2.580  1.0747 -0.0059 -1.9402
  133OSM    H1T14275   4.287   2.807   2.577  0.4289  0.7638 -0.3244
  133OSM     NF14276   4.448   2.838   2.802  0.2563 -0.1199 -0.7949
  133OSM    HNF14277   4.372   2.828   2.866  1.1867  1.8155  0.6914
  133OSM    C2S14278   4.430   2.913   2.679  0.2444  0.7206  0.1122
  133OSM    H2S14279   4.529   2.955   2.654  2.5292 -3.4809  1.0447
  133OSM    C3S14280   4.317   3.022   2.687 -0.3167 -0.0201 -0.3681
  133OSM    H3S14281   4.216   2.976   2.674  0.1410 -1.0334 -0.4341
  133OSM     O314282   4.340   3.130   2.594  0.2261  0.2563  0.1677
  133OSM    HO314283   4.399   3.095   2.527 -1.3214  0.3719 -1.3212
  133OSM    C4S14284   4.322   3.079   2.828  0.0734 -0.1401  0.1331
  133OSM    H4S14285   4.249   3.045   2.903  0.5682 -0.3365  0.5359
  133OSM    C5S14286   4.409   3.171   2.877  0.6870  0.4306  0.1636
  133OSM    H5S14287   4.497   3.200   2.818  0.4701  1.3775  0.2849
  133OSM    C6S14288   4.404   3.208   3.024 -0.5606  0.0924  0.3670
  133OSM    H6S14289   4.396   3.317   3.039  2.5863  0.4898 -0.2443
  133OSM    H6T14290   4.506   3.189   3.064  0.3135 -0.3819 -1.9405
  133OSM    C7S14291   4.289   3.155   3.124 -0.3604 -0.0901 -0.2184
  133OSM    H7S14292   4.305   3.046   3.128  0.4668 -0.0488 -1.8058
  133OSM    H7T14293   4.186   3.172   3.085 -1.0323 -2.1195  0.5677
  133OSM    C8S14294   4.308   3.216   3.265 -0.3630  0.2295 -0.1826
  133OSM    H8S14295   4.265   3.318   3.270 -2.5564 -0.5510 -1.7130
  133OSM    H8T14296   4.417   3.239   3.265 -0.1439 -0.7418  0.1204
  133OSM    C9S14297   4.254   3.131   3.376 -0.8896 -0.1321  0.0292
  133OSM    H9S14298   4.302   3.161   3.472  0.4541 -2.9921  0.3550
  133OSM    H9T14299   4.286   3.028   3.351 -0.8537 -0.2190  0.4239
  133OSM   C10S14300   4.103   3.140   3.380  0.3895  0.3011 -0.4027
  133OSM   H10S14301   4.054   3.043   3.405 -1.9273  1.0438 -1.8013
  133OSM   H10T14302   4.068   3.187   3.286  1.7123 -0.8743 -1.5270
  133OSM   C11S14303   4.044   3.233   3.491 -0.5163  0.2975 -0.6818
  133OSM   H11S14304   3.938   3.256   3.467 -0.9253  0.7446  1.3308
  133OSM   H11T14305   4.097   3.331   3.500 -1.4382  0.6128  2.7241
  133OSM   C12S14306   4.036   3.167   3.629 -0.2060 -0.8692 -0.4965
  133OSM   H12S14307   4.135   3.133   3.665 -1.5003 -3.7832  0.6432
  133OSM   H12T14308   3.973   3.076   3.616 -2.1287  0.3403 -0.1428
  133OSM   C13S14309   3.966   3.255   3.735 -0.2973 -0.3570  0.3921
  133OSM   H13S14310   3.871   3.297   3.696  0.7858  3.2929  1.3296
  133OSM   H13T14311   4.039   3.334   3.761  5.9440 -4.4660 -2.0821
  133OSM   C14S14312   3.942   3.171   3.868  0.1425 -0.5549  0.0966
  133OSM   H14S14313   4.035   3.124   3.908 -0.1344 -0.3668  0.9931
  133OSM   H14T14314   3.876   3.086   3.840  0.1201 -0.2496 -0.7881
  133OSM   C15S14315   3.869   3.261   3.973  0.0660 -0.5807  0.0658
  133OSM   H15S14316   3.770   3.296   3.937  1.5487  2.5130 -1.3996
  133OSM   H15T14317   3.929   3.355   3.970 -0.1414 -0.4748 -1.6593
  133OSM   C16S14318   3.860   3.190   4.114  0.1246 -0.3037  0.1921
  133OSM   H16S14319   3.809   3.262   4.182  0.2505  0.3343 -0.3865
  133OSM   H16T14320   3.961   3.186   4.160  1.3736 -1.9399 -2.4712
  133OSM   C17S14321   3.793   3.046   4.118 -0.7870 -0.6424 -0.1668
  133OSM   H17S14322   3.870   2.978   4.077 -0.6257 -2.2025  2.4952
  133OSM   H17T14323   3.696   3.037   4.064 -0.6604  1.4892 -0.8477
  133OSM   C18S14324   3.782   2.998   4.263  0.2695  0.3381  0.0129
  133OSM   H18S14325   3.707   3.062   4.315 -0.1418  1.2772 -1.6717
  133OSM   H18T14326   3.881   3.004   4.315  1.2056 -2.4180 -1.2687
  133OSM   H18U14327   3.745   2.894   4.272  1.5426 -0.2621 -1.2540
  133OSM    C1F14328   4.556   2.765   2.823 -0.0754  0.3217  0.2696
  133OSM     OF14329   4.655   2.774   2.752  0.0387 -0.1339 -0.2517
  133OSM    C2F14330   4.550   2.661   2.934 -0.3365 -1.1358 -0.6002
  133OSM    H2F14331   4.627   2.583   2.917  2.2578  1.0808  0.2515
  133OSM    H2G14332   4.442   2.638   2.935 -1.8376  4.3100  1.1174
  133OSM    C3F14333   4.586   2.730   3.072 -0.1458  0.1051 -0.1969
  133OSM    H3F14334   4.685   2.779   3.077 -0.1004  0.1092 -0.9685
  133OSM    H3G14335   4.594   2.639   3.135 -4.4804 -0.1115  0.3309
  133OSM    C4F14336   4.485   2.832   3.131 -0.0798  0.0991  0.1551
  133OSM    H4F14337   4.384   2.787   3.117 -0.2883  0.0673  1.6031
  133OSM    H4G14338   4.494   2.929   3.077 -0.4150  1.1299  1.8488
  133OSM    C5F14339   4.518   2.849   3.282  0.0887  0.1557  0.5213
  133OSM    H5F14340   4.487   2.954   3.300 -2.5004 -0.5649  0.6498
  133OSM    H5G14341   4.626   2.840   3.308  0.7010  0.3000 -1.7761
  133OSM    C6F14342   4.405   2.780   3.363 -0.0506  0.0440 -0.3895
  133OSM    H6F14343   4.418   2.670   3.365  1.1884  0.1559 -1.0256
  133OSM    H6G14344   4.303   2.814   3.336  0.5415  1.3892 -1.0341
  133OSM    C7F14345   4.434   2.807   3.512  0.3704 -0.6196  0.2262
  133OSM    H7F14346   4.433   2.915   3.539 -1.2858 -0.4701 -0.3079
  133OSM    H7G14347   4.538   2.772   3.527  0.3912 -1.0845 -0.9062
  133OSM    C8F14348   4.343   2.724   3.596  0.8793 -0.2864 -0.2727
  133OSM    H8F14349   4.394   2.711   3.694  2.2107  2.1917 -0.5501
  133OSM    H8G14350   4.335   2.625   3.545  1.0877  0.4259 -1.7359
  133OSM    C9F14351   4.207   2.800   3.610  0.3520 -0.5042 -0.2867
  133OSM    H9F14352   4.175   2.872   3.533  0.5884 -0.4123 -0.2990
  133OSM   C10F14353   4.123   2.794   3.719  0.2750 -0.3377 -0.5946
  133OSM   H10F14354   4.031   2.854   3.718 -0.9058 -1.9441  2.2640
  133OSM   C11F14355   4.153   2.711   3.843  0.3536  0.3319  0.3866
  133OSM   H11F14356   4.226   2.628   3.830  1.2849  0.9776  1.3096
  133OSM   H11G14357   4.059   2.658   3.872  1.2396 -0.6254  1.6469
  133OSM   C12F14358   4.189   2.798   3.962  0.3401 -0.7474 -0.2909
  133OSM   H12F14359   4.105   2.866   3.985 -0.1566 -1.2108 -0.7148
  133OSM   H12G14360   4.282   2.856   3.942 -0.2714  0.7014  0.8932
  133OSM   C13F14361   4.222   2.711   4.084  0.2288  0.1358 -0.1748
  133OSM   H13F14362   4.291   2.628   4.056  0.9938  0.3246  1.0705
  133OSM   H13G14363   4.130   2.661   4.122  1.7865 -1.5357  1.6343
  133OSM   C14F14364   4.284   2.785   4.204 -0.0104 -0.1368 -0.4713
  133OSM   H14F14365   4.216   2.865   4.242  3.4281  2.6347  0.4717
  133OSM   H14G14366   4.381   2.834   4.177  0.2452  0.0277  0.6800
  133OSM   C15F14367   4.324   2.690   4.314 -0.4894 -0.0669  0.6866
  133OSM   H15F14368   4.243   2.618   4.337  0.5893 -1.0313  1.5941
  133OSM   H15G14369   4.328   2.733   4.417 -0.1760  0.5228  0.4379
  133OSM   C16F14370   4.454   2.611   4.296  0.4479  0.0619 -0.6158
  133OSM   H16F14371   4.541   2.680   4.291  1.3895 -0.8686  1.6267
  133OSM   H16G14372   4.457   2.557   4.199  2.3741 -1.0042 -0.0199
  133OSM   C17F14373   4.484   2.514   4.408  0.2991  0.2270  0.3282
  133OSM   H17F14374   4.408   2.433   4.415 -1.1536  1.6734  2.5859
  133OSM   H17G14375   4.481   2.560   4.509  0.9078  0.6738  0.1536
  133OSM   C18F14376   4.626   2.458   4.383  0.7877  0.5770 -0.2248
  133OSM   H18F14377   4.630   2.420   4.279  1.8550 -0.8467  0.3101
  133OSM   H18G14378   4.644   2.370   4.447  1.3946  1.6161  1.0971
  133OSM   H18H14379   4.702   2.537   4.403 -1.8608  3.2007  0.2523
  134OSM      N14380   5.113   5.362   1.794  0.5095  0.9371 -0.5685
  134OSM    C1514381   5.129   5.249   1.711  0.4402 -0.3660 -0.3814
  134OSM   H15A14382   5.064   5.252   1.625  0.2802 -1.2582 -0.3022
  134OSM   H15B14383   5.114   5.155   1.762 -2.6585  1.2652  2.1211
  134OSM   H15C14384   5.229   5.248   1.672  1.2507 -1.0762  1.5703
  134OSM    C1414385   5.127   5.482   1.707  0.6193 -0.5192 -0.2634
  134OSM   H14A14386   5.220   5.485   1.654  0.7443  3.0113 -0.0639
  134OSM   H14B14387   5.122   5.570   1.769 -3.1419 -1.5846  1.2463
  134OSM   H14C14388   5.048   5.485   1.633  0.6527 -2.3548 -0.4126
  134OSM    C1314389   4.970   5.360   1.844 -0.1188 -0.2089  0.5062
  134OSM   H13A14390   4.955   5.269   1.902  2.0047  0.5897  2.4676
  134OSM   H13B14391   4.901   5.366   1.761  0.4726  1.7887  0.1151
  134OSM   H13C14392   4.947   5.448   1.903 -2.2487 -1.2125  1.2969
  134OSM    C1214393   5.210   5.357   1.911  0.3428  0.5955 -0.5828
  134OSM   H12A14394   5.310   5.358   1.869  0.6921  1.7682  0.2073
  134OSM   H12B14395   5.193   5.262   1.957  0.0271  0.3994 -1.0942
  134OSM    C1114396   5.215   5.467   2.015  0.8968 -0.1735  0.0089
  134OSM   H11A14397   5.289   5.426   2.087  0.8776 -0.4899 -0.1524
  134OSM   H11B14398   5.121   5.478   2.074  0.5899  2.1529 -0.8133
  134OSM      P14399   5.408   5.618   1.948  0.2141  0.7505  0.0945
  134OSM    O1314400   5.479   5.485   1.946  0.7671 -0.4630 -0.4664
  134OSM    O1414401   5.428   5.706   1.833 -0.0086 -0.1101 -0.0628
  134OSM    O1114402   5.448   5.686   2.082 -0.4350 -0.3355 -0.7388
  134OSM    O1214403   5.256   5.589   1.964 -0.6971 -0.2402 -0.1174
  134OSM    C1S14404   5.364   5.711   2.200  0.1549 -0.1422  0.2203
  134OSM    H1S14405   5.273   5.647   2.209  2.2148 -3.0280  2.0413
  134OSM    H1T14406   5.340   5.819   2.201 -0.5018 -0.2779  1.4752
  134OSM     NF14407   5.368   5.702   2.447  0.2903  0.5501 -0.1528
  134OSM    HNF14408   5.393   5.776   2.509  0.0593  1.6949 -1.3630
  134OSM    C2S14409   5.446   5.684   2.326 -0.2394  0.8171  0.2910
  134OSM    H2S14410   5.471   5.577   2.316 -0.2117  0.7790  0.7269
  134OSM    C3S14411   5.588   5.755   2.330  0.0880  0.1901 -0.3951
  134OSM    H3S14412   5.564   5.863   2.343 -3.0186 -0.2531 -1.6784
  134OSM     O314413   5.665   5.761   2.208  0.2435 -0.0755 -0.0512
  134OSM    HO314414   5.606   5.713   2.150 -0.8505  1.0301  0.1020
  134OSM    C4S14415   5.675   5.706   2.437  0.3101  0.5591 -0.6534
  134OSM    H4S14416   5.679   5.597   2.427  0.1816  0.4547  0.4046
  134OSM    C5S14417   5.742   5.770   2.531 -0.3948  0.0988 -0.6283
  134OSM    H5S14418   5.742   5.880   2.529  1.2536  0.1286 -0.3457
  134OSM    C6S14419   5.832   5.697   2.640 -0.2487 -0.2760  0.2207
  134OSM    H6S14420   5.938   5.714   2.613 -0.6013  0.2474 -0.9179
  134OSM    H6T14421   5.821   5.587   2.624  1.2430 -0.3403 -0.5182
  134OSM    C7S14422   5.792   5.726   2.786  0.5487  0.8146  0.1562
  134OSM    H7S14423   5.693   5.679   2.807  1.4505 -2.6291 -2.3658
  134OSM    H7T14424   5.785   5.836   2.799 -1.4206  0.5014  2.5473
  134OSM    C8S14425   5.886   5.662   2.891  0.1123 -0.8186  0.5169
  134OSM    H8S14426   5.994   5.677   2.869 -0.0557  0.6718  0.5875
  134OSM    H8T14427   5.873   5.552   2.901 -1.0442 -0.5293  2.9667
  134OSM    C9S14428   5.857   5.724   3.036 -0.2369 -0.1124 -0.4761
  134OSM    H9S14429   5.755   5.693   3.067  0.2895 -2.6689 -1.0188
  134OSM    H9T14430   5.860   5.834   3.024 -0.3765 -0.1344 -0.7127
  134OSM   C10S14431   5.962   5.672   3.138  0.7163 -0.1096  0.1094
  134OSM   H10S14432   6.056   5.718   3.101 -0.0180  0.5674 -0.9556
  134OSM   H10T14433   5.971   5.561   3.142  0.3636 -0.1361  0.2155
  134OSM   C11S14434   5.925   5.736   3.276  1.0183  0.0438  0.8339
  134OSM   H11S14435   5.816   5.728   3.291  0.6932  0.5306 -1.0165
  134OSM   H11T14436   5.959   5.840   3.258 -0.2885  0.1410 -1.3979
  134OSM   C12S14437   5.993   5.663   3.385  0.4848 -0.0271 -0.5833
  134OSM   H12S14438   6.100   5.649   3.357  0.2822 -1.0034 -0.9157
  134OSM   H12T14439   5.950   5.561   3.397  1.9143 -0.7412 -1.2227
  134OSM   C13S14440   5.981   5.738   3.523  0.3354 -0.1181 -0.0037
  134OSM   H13S14441   5.872   5.744   3.544  0.7397  0.2415  2.2384
  134OSM   H13T14442   6.020   5.839   3.499 -3.1113  1.0184 -1.4952
  134OSM   C14S14443   6.056   5.676   3.643 -0.1223 -0.1293  0.3169
  134OSM   H14S14444   6.160   5.660   3.609 -0.3631 -0.1708 -0.4263
  134OSM   H14T14445   6.014   5.574   3.656  0.3894 -0.6704 -1.8800
  134OSM   C15S14446   6.043   5.752   3.777 -0.6582 -0.1038  0.0790
  134OSM   H15S14447   6.064   5.686   3.864 -0.3683 -0.9402 -0.6075
  134OSM   H15T14448   5.934   5.771   3.782 -0.8049 -1.1818  1.8141
  134OSM   C16S14449   6.114   5.891   3.773 -0.0394  0.1378  0.3248
  134OSM   H16S14450   6.106   5.941   3.675 -2.4956 -0.3951  0.1738
  134OSM   H16T14451   6.222   5.879   3.796  0.0258 -0.5108 -0.2966
  134OSM   C17S14452   6.061   5.997   3.864 -0.1958  0.4492  0.3240
  134OSM   H17S14453   5.957   6.033   3.852  0.2038  1.4852 -0.0829
  134OSM   H17T14454   6.129   6.083   3.848 -0.5275  0.1649 -3.6081
  134OSM   C18S14455   6.061   5.950   4.011  0.4471 -0.1387  1.2640
  134OSM   H18S14456   5.989   5.867   4.032 -1.1455  0.5872 -0.8978
  134OSM   H18T14457   6.051   6.046   4.065  1.9541  1.6103 -1.3336
  134OSM   H18U14458   6.162   5.909   4.031  0.6683  0.0247  0.5257
  134OSM    C1F14459   5.252   5.639   2.467 -0.5428 -0.5943 -0.0264
  134OSM     OF14460   5.220   5.539   2.402 -0.2709  0.9404  0.5035
  134OSM    C2F14461   5.166   5.704   2.568  0.0580  0.6028  0.4026
  134OSM    H2F14462   5.091   5.759   2.508  0.5894  0.7819 -0.0983
  134OSM    H2G14463   5.231   5.781   2.616  2.4781 -0.9353 -0.2388
  134OSM    C3F14464   5.109   5.604   2.666 -0.5718  0.1388  0.2404
  134OSM    H3F14465   5.190   5.538   2.703 -0.0770 -0.6035 -2.0131
  134OSM    H3G14466   5.040   5.535   2.613  1.5064 -1.8113 -0.1042
  134OSM    C4F14467   5.020   5.678   2.770 -0.0689 -0.2389 -0.3260
  134OSM    H4F14468   4.945   5.727   2.704  1.0601 -2.2400 -3.3151
  134OSM    H4G14469   5.067   5.765   2.820 -0.2035 -0.5703  0.3896
  134OSM    C5F14470   4.961   5.593   2.880  0.0522 -0.1590 -0.0466
  134OSM    H5F14471   4.867   5.544   2.847 -0.8328  1.1932  0.3565
  134OSM    H5G14472   4.929   5.676   2.947  1.8432  1.0250 -0.5885
  134OSM    C6F14473   5.050   5.486   2.949 -0.1495  0.0496 -0.0427
  134OSM    H6F14474   5.138   5.539   2.992 -1.2489  1.2505  0.8114
  134OSM    H6G14475   5.064   5.408   2.871 -1.8727 -0.1138 -0.2379
  134OSM    C7F14476   4.978   5.425   3.073  0.4280  0.2144 -0.0294
  134OSM    H7F14477   4.880   5.379   3.048  0.6930 -0.1183 -0.4497
  134OSM    H7G14478   4.944   5.507   3.140 -1.9244 -0.7657  0.0883
  134OSM    C8F14479   5.064   5.332   3.155 -0.5852  0.2735  0.0710
  134OSM    H8F14480   5.153   5.387   3.192 -1.0414  0.8796  0.2962
  134OSM    H8G14481   5.092   5.247   3.089 -2.4601  0.8157 -1.5023
  134OSM    C9F14482   4.981   5.272   3.271 -0.7503  0.5829 -1.1322
  134OSM    H9F14483   4.925   5.180   3.251 -0.3751  0.0868  0.0195
  134OSM   C10F14484   4.971   5.324   3.395 -0.3783  0.8931 -0.5295
  134OSM   H10F14485   4.918   5.261   3.467  1.3543 -0.4005 -0.3333
  134OSM   C11F14486   5.026   5.450   3.447 -0.6042  0.1125 -0.2113
  134OSM   H11F14487   4.949   5.512   3.497  1.1041  1.5400  0.7962
  134OSM   H11G14488   5.070   5.509   3.364 -1.2218 -1.5733 -1.8064
  134OSM   C12F14489   5.138   5.424   3.556 -0.3917  0.7796  0.5488
  134OSM   H12F14490   5.169   5.527   3.585 -0.7938  0.4606  2.2068
  134OSM   H12G14491   5.221   5.363   3.516 -1.1316 -0.5790  1.0114
  134OSM   C13F14492   5.076   5.360   3.674 -0.0125 -0.4761  0.3208
  134OSM   H13F14493   5.028   5.261   3.662  0.3798 -0.6811  0.4303
  134OSM   H13G14494   4.988   5.422   3.700  0.2891 -0.0481  0.3393
  134OSM   C14F14495   5.176   5.339   3.791 -0.6339  0.3424  0.4342
  134OSM   H14F14496   5.215   5.438   3.822 -3.7714  0.9315  3.0592
  134OSM   H14G14497   5.255   5.271   3.752 -1.3492 -1.2689  1.6907
  134OSM   C15F14498   5.120   5.274   3.917 -0.5359  0.5902 -1.3275
  134OSM   H15F14499   5.202   5.236   3.982 -2.0102  0.0442  0.2811
  134OSM   H15G14500   5.071   5.177   3.894 -1.6256  0.9079 -0.4133
  134OSM   C16F14501   5.017   5.364   3.983 -0.0881 -0.0210 -0.5066
  134OSM   H16F14502   4.923   5.374   3.924 -1.3643 -0.9044  1.2981
  134OSM   H16G14503   5.069   5.460   4.006  0.8116 -0.5911 -0.1164
  134OSM   C17F14504   4.986   5.312   4.121  0.1678 -0.0784 -0.0383
  134OSM   H17F14505   4.946   5.208   4.117 -1.2654  0.4612 -0.0282
  134OSM   H17G14506   4.914   5.383   4.166 -0.5554 -0.0388 -1.2140
  134OSM   C18F14507   5.101   5.318   4.222 -1.0900 -0.4918  0.1567
  134OSM   H18F14508   5.141   5.421   4.218  0.7286 -1.0856  1.3610
  134OSM   H18G14509   5.190   5.252   4.207 -1.4078 -1.6743  2.8620
  134OSM   H18H14510   5.059   5.285   4.320 -1.1488 -0.2039  0.2279
  135OSM      N14511   0.379   1.540   1.860  0.4570 -0.7133 -0.3987
  135OSM    C1514512   0.235   1.570   1.829 -0.3199 -0.3385 -0.5543
  135OSM   H15A14513   0.172   1.553   1.915  1.5767 -1.7491  0.6280
  135OSM   H15B14514   0.202   1.511   1.745  0.8379 -2.4914  0.4373
  135OSM   H15C14515   0.223   1.674   1.802  1.3809  0.7643  2.4895
  135OSM    C1414516   0.401   1.396   1.885  0.2210  0.1002  0.1399
  135OSM   H14A14517   0.381   1.341   1.794 -1.4506  0.4032  0.3005
  135OSM   H14B14518   0.330   1.368   1.961  0.5843  2.8475  1.6302
  135OSM   H14C14519   0.502   1.378   1.920 -0.4388 -0.8821  1.6425
  135OSM    C1314520   0.457   1.590   1.745  0.0409  0.2899 -0.4588
  135OSM   H13A14521   0.558   1.551   1.747  1.2553  3.2013 -0.0100
  135OSM   H13B14522   0.466   1.698   1.743  0.1803  0.4433  2.8584
  135OSM   H13C14523   0.422   1.559   1.647  1.0655  1.3816 -1.2020
  135OSM    C1214524   0.413   1.625   1.981  0.0571 -0.7791  0.4482
  135OSM   H12A14525   0.409   1.724   1.937 -1.6412 -0.4916  1.1816
  135OSM   H12B14526   0.514   1.597   2.004 -0.0832 -1.1791  0.5758
  135OSM    C1114527   0.320   1.622   2.100 -0.0797  0.1280 -0.3478
  135OSM   H11A14528   0.365   1.674   2.187 -0.2203  1.3061 -0.9501
  135OSM   H11B14529   0.303   1.518   2.134  4.9878 -0.4459  1.2923
  135OSM      P14530   0.158   1.830   2.080  0.1616  0.1831 -0.3973
  135OSM    O1314531   0.225   1.885   2.198  0.3393 -0.0004  0.2860
  135OSM    O1414532   0.190   1.891   1.951 -0.3094  0.4147  0.1452
  135OSM    O1114533   0.005   1.844   2.105 -0.3532 -0.1806 -0.2190
  135OSM    O1214534   0.190   1.681   2.070  0.3074 -0.0426  0.6857
  135OSM    C1S14535  -0.082   1.740   2.157 -0.0076  0.4124 -0.2252
  135OSM    H1S14536  -0.059   1.636   2.125 -1.2505 -0.5301  1.7655
  135OSM    H1T14537  -0.183   1.757   2.113  0.3336  0.7419 -0.8843
  135OSM     NF14538  -0.183   1.638   2.364  0.8180  0.1576  0.0730
  135OSM    HNF14539  -0.279   1.657   2.386  1.5527  1.6824  2.3229
  135OSM    C2S14540  -0.099   1.751   2.310  0.0628 -0.1657 -1.0028
  135OSM    H2S14541  -0.001   1.732   2.359 -0.7533  0.0298  0.8043
  135OSM    C3S14542  -0.158   1.890   2.350  0.2569 -0.7820  0.0761
  135OSM    H3S14543  -0.262   1.900   2.315  0.3314  1.7036  0.4016
  135OSM     O314544  -0.105   2.000   2.273 -0.2830  0.4590  0.0805
  135OSM    HO314545  -0.046   1.946   2.219 -1.7696 -2.1472  0.8812
  135OSM    C4S14546  -0.160   1.918   2.499 -0.2989  0.1987  0.1939
  135OSM    H4S14547  -0.235   1.848   2.538 -1.0710  1.7160  1.5468
  135OSM    C5S14548  -0.092   2.008   2.573  0.0013 -0.3586 -0.2511
  135OSM    H5S14549  -0.028   2.082   2.522 -2.2182  1.0245 -1.1534
  135OSM    C6S14550  -0.107   2.016   2.723  0.6151  0.0294  0.2527
  135OSM    H6S14551  -0.120   2.126   2.737  1.4172 -0.0964  2.5181
  135OSM    H6T14552  -0.016   1.984   2.779  1.6361  0.6931 -0.9858
  135OSM    C7S14553  -0.237   1.957   2.785 -0.0465 -0.1966 -0.5384
  135OSM    H7S14554  -0.223   1.847   2.775  1.6546  0.0973 -1.8238
  135OSM    H7T14555  -0.337   1.986   2.745 -0.4948  1.2039  1.4499
  135OSM    C8S14556  -0.230   1.981   2.938  0.0210 -0.6179  0.0344
  135OSM    H8S14557  -0.276   2.076   2.973  0.3969 -0.6056  0.5065
  135OSM    H8T14558  -0.123   1.969   2.965 -0.1809 -1.3430  0.5331
  135OSM    C9S14559  -0.302   1.876   3.021 -0.1635  1.5041  0.0687
  135OSM    H9S14560  -0.279   1.777   2.977 -0.4879  1.4856 -0.0606
  135OSM    H9T14561  -0.408   1.893   2.995  0.0298  0.7149 -1.3154
  135OSM   C10S14562  -0.268   1.878   3.172  0.5375  0.5437  1.1148
  135OSM   H10S14563  -0.163   1.874   3.205  1.3653 -2.0733 -1.4049
  135OSM   H10T14564  -0.309   1.785   3.217  0.2756 -0.2851 -0.7110
  135OSM   C11S14565  -0.340   1.996   3.238  0.0211 -0.7951  0.5084
  135OSM   H11S14566  -0.450   1.984   3.227 -0.2011 -4.2131  3.9641
  135OSM   H11T14567  -0.308   2.089   3.188  0.7608  1.6440  5.0248
  135OSM   C12S14568  -0.306   2.022   3.385 -0.4816 -0.2270  0.0170
  135OSM   H12S14569  -0.342   2.125   3.404  0.2344  0.3968 -1.8152
  135OSM   H12T14570  -0.196   2.022   3.397 -0.6099 -0.8442  1.3488
  135OSM   C13S14571  -0.357   1.923   3.481  0.1736  0.8164  0.8084
  135OSM   H13S14572  -0.316   1.823   3.457  3.3247  2.4533 -1.3225
  135OSM   H13T14573  -0.467   1.914   3.466  0.0168  4.1117 -1.3084
  135OSM   C14S14574  -0.320   1.964   3.622 -0.3524  0.2719  0.4224
  135OSM   H14S14575  -0.331   2.073   3.644 -0.1574  0.8787 -2.2368
  135OSM   H14T14576  -0.214   1.937   3.641 -0.7252 -1.4260  0.2556
  135OSM   C15S14577  -0.388   1.872   3.729 -0.5195 -0.7663 -0.2189
  135OSM   H15S14578  -0.361   1.766   3.712  1.4952 -0.5031  0.9642
  135OSM   H15T14579  -0.495   1.893   3.712 -0.2480  1.1034  0.1002
  135OSM   C16S14580  -0.360   1.908   3.878 -0.0933 -0.4614 -0.4670
  135OSM   H16S14581  -0.340   2.016   3.894  0.4343 -0.7285  0.7545
  135OSM   H16T14582  -0.263   1.859   3.904 -0.5638 -0.5909  1.1171
  135OSM   C17S14583  -0.467   1.866   3.985  0.2036 -0.2581  0.2129
  135OSM   H17S14584  -0.562   1.921   3.969  0.3499  0.4097  1.5372
  135OSM   H17T14585  -0.425   1.900   4.082 -2.0130  1.1095  0.7608
  135OSM   C18S14586  -0.495   1.715   3.994  0.2759  0.0947  0.0127
  135OSM   H18S14587  -0.402   1.659   4.018 -0.4188 -2.0137 -1.9681
  135OSM   H18T14588  -0.553   1.672   3.910 -0.9237 -1.0326  1.3722
  135OSM   H18U14589  -0.563   1.695   4.079  0.3696 -1.5905 -0.2829
  135OSM    C1F14590  -0.144   1.509   2.361  0.2837 -0.6979  0.1037
  135OSM     OF14591  -0.035   1.469   2.318 -0.1445 -0.1464  0.4647
  135OSM    C2F14592  -0.245   1.408   2.401  0.5340  0.3063 -0.8442
  135OSM    H2F14593  -0.277   1.344   2.315 -0.8400 -1.7342  1.0618
  135OSM    H2G14594  -0.326   1.467   2.448  2.0400  0.7291  1.3571
  135OSM    C3F14595  -0.201   1.294   2.500  0.0952 -0.0225 -0.3906
  135OSM    H3F14596  -0.178   1.339   2.599 -0.4108  1.7750 -1.0539
  135OSM    H3G14597  -0.128   1.224   2.454  1.4531  0.2216  1.2922
  135OSM    C4F14598  -0.324   1.201   2.536 -0.0645  0.0039 -0.5276
  135OSM    H4F14599  -0.370   1.156   2.446 -0.6791 -0.6309  0.0887
  135OSM    H4G14600  -0.400   1.266   2.585  1.0862  1.1358 -0.2126
  135OSM    C5F14601  -0.291   1.085   2.624 -0.2036  0.2364 -0.0219
  135OSM    H5F14602  -0.198   1.036   2.589 -0.7195 -1.6039  1.0294
  135OSM    H5G14603  -0.366   1.005   2.613  0.2314 -0.0384 -1.1493
  135OSM    C6F14604  -0.263   1.123   2.774  0.3693  0.3817 -0.6556
  135OSM    H6F14605  -0.180   1.197   2.765 -0.1487  1.1377  0.5162
  135OSM    H6G14606  -0.220   1.029   2.815 -0.0147  1.2549  1.9398
  135OSM    C7F14607  -0.378   1.171   2.859  0.1903 -0.4432  0.3887
  135OSM    H7F14608  -0.465   1.101   2.857 -0.9559  0.9213  0.5304
  135OSM    H7G14609  -0.414   1.270   2.821  0.6057 -0.7893 -0.9668
  135OSM    C8F14610  -0.342   1.194   3.005  1.0264  0.0427  0.7959
  135OSM    H8F14611  -0.440   1.233   3.040  0.6861  0.0299 -0.1245
  135OSM    H8G14612  -0.261   1.269   3.015  0.3502  0.8335  0.4671
  135OSM    C9F14613  -0.312   1.061   3.056  0.4641  0.3659  0.5645
  135OSM    H9F14614  -0.216   1.022   3.019  0.0679 -0.3649  0.2983
  135OSM   C10F14615  -0.389   0.984   3.135  0.4121  0.1989 -0.0205
  135OSM   H10F14616  -0.346   0.887   3.163  1.2653  0.1366 -1.4682
  135OSM   C11F14617  -0.528   1.012   3.185  0.0936  0.1471  0.0734
  135OSM   H11F14618  -0.576   0.913   3.201 -1.3992  0.4090 -2.3068
  135OSM   H11G14619  -0.593   1.070   3.116  0.1684  0.3234  0.1513
  135OSM   C12F14620  -0.521   1.089   3.319  0.5252  0.3984  1.2351
  135OSM   H12F14621  -0.623   1.101   3.362 -0.4544 -1.3812 -0.4650
  135OSM   H12G14622  -0.486   1.194   3.308 -1.0408  0.8998  0.7348
  135OSM   C13F14623  -0.447   1.017   3.429 -0.1659  0.0370  0.0426
  135OSM   H13F14624  -0.340   0.993   3.409  0.2146  1.5571  0.0703
  135OSM   H13G14625  -0.500   0.922   3.450 -0.9132  0.1659 -1.1714
  135OSM   C14F14626  -0.427   1.108   3.558 -0.5073 -0.0076 -0.3198
  135OSM   H14F14627  -0.525   1.138   3.600  0.0380 -0.0356  1.0334
  135OSM   H14G14628  -0.358   1.192   3.534 -1.5399  0.5502 -1.4465
  135OSM   C15F14629  -0.363   1.034   3.677  0.1243 -0.1456  0.0242
  135OSM   H15F14630  -0.323   1.111   3.746  2.6286  0.2577 -1.7525
  135OSM   H15G14631  -0.269   0.982   3.649  0.2009 -0.6940  1.2212
  135OSM   C16F14632  -0.463   0.935   3.748 -1.0549  0.2971  0.7257
  135OSM   H16F14633  -0.522   0.878   3.673 -1.0149 -0.1002  0.9932
  135OSM   H16G14634  -0.527   0.995   3.817 -0.3447  1.7058  0.2053
  135OSM   C17F14635  -0.395   0.825   3.840 -0.2840 -0.4912  0.2012
  135OSM   H17F14636  -0.321   0.763   3.785 -0.5172  0.2555 -1.0047
  135OSM   H17G14637  -0.463   0.757   3.895 -0.0384  0.0156  1.1408
  135OSM   C18F14638  -0.316   0.891   3.959  0.1571 -0.0727  0.1865
  135OSM   H18F14639  -0.282   0.824   4.041  2.0785  0.3110 -0.2536
  135OSM   H18G14640  -0.381   0.974   3.993 -1.4497 -1.3041  0.2253
  135OSM   H18H14641  -0.229   0.943   3.914 -0.2020  2.7941  2.5226
  136OSM      N14642   2.196   4.658   1.915  0.2677 -0.0643 -0.1697
  136OSM    C1514643   2.065   4.704   1.854  0.4890  0.0283  0.2614
  136OSM   H15A14644   1.989   4.634   1.885  1.6771 -0.2440  2.8058
  136OSM   H15B14645   2.061   4.699   1.746 -0.4760  1.4713  0.1965
  136OSM   H15C14646   2.048   4.804   1.891 -0.5376 -1.5969  4.8606
  136OSM    C1414647   2.231   4.526   1.856 -0.2122  0.4345  0.3893
  136OSM   H14A14648   2.253   4.538   1.751  0.9840 -0.2356  0.5470
  136OSM   H14B14649   2.156   4.451   1.870  1.8868 -1.8088  0.2881
  136OSM   H14C14650   2.325   4.488   1.894 -0.0013  0.2533 -0.2906
  136OSM    C1314651   2.299   4.754   1.874  0.1059 -0.3588 -0.1971
  136OSM   H13A14652   2.318   4.752   1.767  1.8848 -2.2918  0.1124
  136OSM   H13B14653   2.394   4.741   1.922  0.2549  0.2043 -0.3295
  136OSM   H13C14654   2.263   4.855   1.889 -2.7907 -1.5948  2.0564
  136OSM    C1214655   2.183   4.662   2.069  0.3023 -0.0519 -0.6903
  136OSM   H12A14656   2.106   4.593   2.098  1.0521 -0.3335  0.7360
  136OSM   H12B14657   2.157   4.760   2.104  2.8858 -0.2695  2.2107
  136OSM    C1114658   2.310   4.627   2.153  0.7807  0.0213  0.2197
  136OSM   H11A14659   2.349   4.530   2.118  0.5261  0.2147 -0.6173
  136OSM   H11B14660   2.281   4.618   2.260  1.9495  1.2971  0.6734
  136OSM      P14661   2.402   4.864   2.211 -0.0054  0.1101  0.1219
  136OSM    O1314662   2.506   4.962   2.166  0.3998  0.6551  0.3057
  136OSM    O1414663   2.263   4.911   2.201 -0.0686  0.9016  0.9441
  136OSM    O1114664   2.444   4.811   2.359  0.1250  0.2031  0.7745
  136OSM    O1214665   2.410   4.728   2.132 -0.1205 -0.4771  0.2869
  136OSM    C1S14666   2.345   4.813   2.468 -0.0777 -0.4234  1.2072
  136OSM    H1S14667   2.253   4.761   2.433 -0.6439  2.0645 -1.4093
  136OSM    H1T14668   2.326   4.919   2.498  1.2079  0.5731 -1.2664
  136OSM     NF14669   2.316   4.741   2.699 -0.3667 -0.3392 -0.1382
  136OSM    HNF14670   2.347   4.789   2.781 -2.8484  1.2876 -0.0269
  136OSM    C2S14671   2.412   4.739   2.591 -0.1153  0.1121 -0.0795
  136OSM    H2S14672   2.419   4.632   2.562 -1.3722  0.1745 -0.6778
  136OSM    C3S14673   2.557   4.790   2.626  0.2682  0.0279 -0.2132
  136OSM    H3S14674   2.552   4.900   2.642  0.9766 -0.3885  3.9824
  136OSM     O314675   2.652   4.778   2.524  0.3490  0.9398  0.0471
  136OSM    HO314676   2.597   4.788   2.446 -2.3733 -0.5013  1.6454
  136OSM    C4S14677   2.603   4.736   2.753 -0.2885 -0.0485  0.0755
  136OSM    H4S14678   2.569   4.810   2.828 -1.7252 -0.6209  0.0187
  136OSM    C5S14679   2.658   4.623   2.794  0.4047  0.0509  0.4325
  136OSM    H5S14680   2.675   4.539   2.725 -2.8650  0.4984 -1.0968
  136OSM    C6S14681   2.653   4.584   2.938 -0.5746 -0.8496 -0.1691
  136OSM    H6S14682   2.656   4.674   3.004  1.4398 -2.1858  1.6987
  136OSM    H6T14683   2.746   4.526   2.958 -0.2778  0.0511  1.2427
  136OSM    C7S14684   2.536   4.502   2.998  0.1008  0.2062  0.0127
  136OSM    H7S14685   2.511   4.413   2.937  0.1163  0.1011  0.1600
  136OSM    H7T14686   2.451   4.572   2.987 -1.1819 -0.8320  2.6844
  136OSM    C8S14687   2.541   4.453   3.145 -0.0900 -0.0432 -0.2952
  136OSM    H8S14688   2.520   4.540   3.211 -0.4043  0.7733 -1.4304
  136OSM    H8T14689   2.644   4.415   3.162 -0.9714 -1.5789  2.0387
  136OSM    C9S14690   2.437   4.346   3.187 -0.3318 -0.5429 -0.1841
  136OSM    H9S14691   2.458   4.246   3.144  1.7747 -0.1812 -0.0802
  136OSM    H9T14692   2.335   4.376   3.156 -0.4078  0.9499  1.3263
  136OSM   C10S14693   2.439   4.330   3.340 -0.5911  0.1783 -0.3083
  136OSM   H10S14694   2.532   4.368   3.387 -0.5593  0.5325 -0.6499
  136OSM   H10T14695   2.411   4.225   3.364  0.0130  0.0385 -0.2033
  136OSM   C11S14696   2.332   4.415   3.396  0.7095  0.9167 -0.4854
  136OSM   H11S14697   2.241   4.375   3.347  2.1742  0.4626 -3.0229
  136OSM   H11T14698   2.357   4.520   3.373  0.0937  0.6872 -2.3679
  136OSM   C12S14699   2.317   4.409   3.550  0.6581 -0.0026  0.3842
  136OSM   H12S14700   2.267   4.505   3.578 -0.5677 -0.4732 -0.1211
  136OSM   H12T14701   2.423   4.393   3.579  0.1075 -1.6447  1.5733
  136OSM   C13S14702   2.233   4.292   3.591  0.4813  0.3137  0.6257
  136OSM   H13S14703   2.264   4.193   3.552 -0.5208  0.5323 -0.8209
  136OSM   H13T14704   2.123   4.289   3.574  0.7697 -1.8404 -1.4903
  136OSM   C14S14705   2.226   4.266   3.746  0.0075 -0.0549 -0.4121
  136OSM   H14S14706   2.331   4.270   3.783  0.4378  2.9281 -1.6436
  136OSM   H14T14707   2.185   4.163   3.753  0.9207 -0.4238 -0.3799
  136OSM   C15S14708   2.118   4.356   3.808  0.2827  0.0514  0.8358
  136OSM   H15S14709   2.028   4.328   3.750  1.2125  1.5434 -1.4913
  136OSM   H15T14710   2.138   4.461   3.777 -0.4313 -0.1078 -0.2019
  136OSM   C16S14711   2.106   4.328   3.957 -0.2494  0.2243  0.0485
  136OSM   H16S14712   2.042   4.411   3.994 -0.6840  1.6872 -3.4852
  136OSM   H16T14713   2.207   4.348   3.998  1.4501 -1.1309 -3.1249
  136OSM   C17S14714   2.037   4.195   3.996  0.7183  0.2134  0.2272
  136OSM   H17S14715   2.057   4.119   3.917 -1.9169  0.2469 -0.5764
  136OSM   H17T14716   1.928   4.218   3.994  1.0084  1.7517  1.0161
  136OSM   C18S14717   2.077   4.143   4.143 -0.5554  0.2378  0.2641
  136OSM   H18S14718   2.174   4.191   4.168 -0.3176  0.4979 -1.0618
  136OSM   H18T14719   2.076   4.032   4.137  0.6867  0.2832 -2.3458
  136OSM   H18U14720   1.991   4.179   4.204 -0.8904 -0.5032  0.2397
  136OSM    C1F14721   2.200   4.677   2.697 -0.8027 -0.4876  0.2094
  136OSM     OF14722   2.174   4.598   2.609  0.1079  0.1934  0.3509
  136OSM    C2F14723   2.105   4.707   2.813 -0.1645  0.0226  0.2671
  136OSM    H2F14724   2.009   4.727   2.761  0.1056  0.4391 -0.0775
  136OSM    H2G14725   2.127   4.805   2.862 -0.1939  0.1991 -0.0718
  136OSM    C3F14726   2.092   4.609   2.923 -0.4513  0.1516  0.2403
  136OSM    H3F14727   2.195   4.589   2.960 -0.6111  1.0954  1.2508
  136OSM    H3G14728   2.054   4.510   2.891 -0.0207  0.0018  0.1840
  136OSM    C4F14729   2.004   4.662   3.038 -0.0302 -0.0959  0.2342
  136OSM    H4F14730   1.896   4.674   3.017 -0.3238 -0.9736  1.1663
  136OSM    H4G14731   2.044   4.762   3.068  1.7665 -0.9440  0.8366
  136OSM    C5F14732   2.016   4.585   3.172 -0.4924  0.3642 -0.3449
  136OSM    H5F14733   2.125   4.597   3.189 -0.2203 -1.2253 -0.7933
  136OSM    H5G14734   1.987   4.479   3.153 -1.2357  0.2471  1.2489
  136OSM    C6F14735   1.942   4.643   3.292  0.8549 -0.3577 -0.5190
  136OSM    H6F14736   1.834   4.657   3.270 -0.0095 -2.0653  2.1284
  136OSM    H6G14737   1.982   4.745   3.312 -0.2286 -0.0527  0.1492
  136OSM    C7F14738   1.950   4.560   3.414 -0.4376 -0.0931 -0.1156
  136OSM    H7F14739   2.056   4.533   3.434  0.8894  2.0807 -3.4020
  136OSM    H7G14740   1.892   4.465   3.416 -0.6704  0.0366 -0.5190
  136OSM    C8F14741   1.901   4.628   3.549 -0.5175 -0.3479 -0.6233
  136OSM    H8F14742   1.938   4.733   3.549  2.3098 -1.2236  1.1973
  136OSM    H8G14743   1.955   4.577   3.631 -1.6712 -1.9209 -0.8082
  136OSM    C9F14744   1.752   4.616   3.571  0.4497 -0.3512  0.8448
  136OSM    H9F14745   1.707   4.710   3.533 -0.7414 -1.0434  0.4766
  136OSM   C10F14746   1.681   4.523   3.627 -0.5830  0.2773  0.0429
  136OSM   H10F14747   1.572   4.532   3.633 -0.5826  0.0035  0.4924
  136OSM   C11F14748   1.733   4.398   3.703 -0.1168  0.1436  0.2387
  136OSM   H11F14749   1.843   4.390   3.690  0.1703 -1.8916  3.0363
  136OSM   H11G14750   1.700   4.307   3.647  2.9058 -1.0439  0.1974
  136OSM   C12F14751   1.682   4.387   3.848  0.5958 -0.5145 -0.3053
  136OSM   H12F14752   1.707   4.285   3.883  0.5087 -1.1029 -1.8564
  136OSM   H12G14753   1.571   4.382   3.850  0.6002 -0.3268  1.1179
  136OSM   C13F14754   1.733   4.496   3.938  0.1116  0.1147  0.1848
  136OSM   H13F14755   1.693   4.594   3.904  0.1877  0.1069  0.0697
  136OSM   H13G14756   1.842   4.479   3.927 -0.1997 -3.6441  1.5577
  136OSM   C14F14757   1.679   4.480   4.081 -0.9369 -0.8404 -0.3773
  136OSM   H14F14758   1.720   4.383   4.116 -1.4747 -0.6863  0.7439
  136OSM   H14G14759   1.569   4.464   4.075 -0.7386 -2.9103  0.6136
  136OSM   C15F14760   1.721   4.602   4.171 -0.3650  0.5676 -0.0229
  136OSM   H15F14761   1.659   4.591   4.262  1.2142  1.1212  1.1596
  136OSM   H15G14762   1.698   4.695   4.114  4.5732  1.8807 -0.3704
  136OSM   C16F14763   1.873   4.615   4.204 -0.0108 -0.2053  0.2972
  136OSM   H16F14764   1.874   4.713   4.258  0.8169  0.2115 -0.4496
  136OSM   H16G14765   1.938   4.643   4.118  0.2379  0.6071  0.7352
  136OSM   C17F14766   1.918   4.510   4.296 -0.1303  0.2332  0.3642
  136OSM   H17F14767   1.919   4.415   4.238 -2.1813  0.7249 -0.5835
  136OSM   H17G14768   1.849   4.507   4.383 -2.1242  2.5266 -0.9995
  136OSM   C18F14769   2.065   4.534   4.339 -0.4683  0.1615 -0.1931
  136OSM   H18F14770   2.132   4.555   4.253 -0.8537  3.6199  0.2018
  136OSM   H18G14771   2.104   4.442   4.386  0.7048  0.4176 -0.6326
  136OSM   H18H14772   2.072   4.615   4.416  1.9685 -1.6195  1.6069
  137OSM      N14773   0.579   2.612   1.809  0.0770 -0.0739  0.1451
  137OSM    C1514774   0.548   2.529   1.695 -0.2970 -0.2840 -0.3066
  137OSM   H15A14775   0.627   2.540   1.622 -1.3618 -1.5260 -1.7018
  137OSM   H15B14776   0.462   2.562   1.638  0.9650  0.8689 -1.6105
  137OSM   H15C14777   0.537   2.423   1.714  1.1650 -0.5831 -1.0092
  137OSM    C1414778   0.591   2.758   1.773 -0.5399  0.7636 -0.1219
  137OSM   H14A14779   0.677   2.792   1.719  0.6096 -1.2601  0.3255
  137OSM   H14B14780   0.569   2.828   1.853 -3.6225  1.2128 -1.2280
  137OSM   H14C14781   0.512   2.781   1.703 -0.2392 -0.0139 -0.7391
  137OSM    C1314782   0.454   2.602   1.893  0.6628 -0.1207  0.1000
  137OSM   H13A14783   0.472   2.652   1.987 -0.5458 -0.3967  0.4889
  137OSM   H13B14784   0.445   2.495   1.908  1.6123 -0.0099  1.6333
  137OSM   H13C14785   0.367   2.646   1.848 -0.9090  0.8248  3.7261
  137OSM    C1214786   0.707   2.564   1.876 -0.5344  0.1851  0.0143
  137OSM   H12A14787   0.709   2.587   1.982 -1.2598 -3.4311  0.9286
  137OSM   H12B14788   0.792   2.619   1.836  0.4686 -1.4626 -0.1991
  137OSM    C1114789   0.743   2.408   1.871 -0.1438 -0.7832 -0.1519
  137OSM   H11A14790   0.848   2.408   1.908 -0.9725  1.5943  2.5539
  137OSM   H11B14791   0.735   2.374   1.765  2.7880 -2.0091 -0.0683
  137OSM      P14792   0.641   2.333   2.108  0.0862  0.1026  0.0512
  137OSM    O1314793   0.506   2.280   2.145 -0.3652  0.2131 -0.2758
  137OSM    O1414794   0.758   2.262   2.168  0.7052 -0.5583  0.4485
  137OSM    O1114795   0.654   2.492   2.137 -0.0582 -0.1012 -0.0134
  137OSM    O1214796   0.652   2.327   1.950 -0.2604 -0.1181 -0.4888
  137OSM    C1S14797   0.607   2.544   2.263  0.5264  0.2805  0.1980
  137OSM    H1S14798   0.531   2.482   2.315 -1.5324  1.8584 -0.7758
  137OSM    H1T14799   0.541   2.633   2.250 -1.9502 -1.1693  2.0121
  137OSM     NF14800   0.688   2.594   2.495  0.1251  0.3621 -0.3091
  137OSM    HNF14801   0.689   2.691   2.519  1.8866  0.9782 -2.5110
  137OSM    C2S14802   0.728   2.572   2.353 -0.2233 -0.7363  0.1762
  137OSM    H2S14803   0.794   2.483   2.367  0.4902 -0.3056 -0.4089
  137OSM    C3S14804   0.817   2.689   2.296  0.2356  0.0573  0.2920
  137OSM    H3S14805   0.748   2.777   2.298 -0.6830 -0.6115 -0.5984
  137OSM     O314806   0.863   2.674   2.160 -0.2101  0.4133  0.6104
  137OSM    HO314807   0.806   2.601   2.132 -0.5792  1.1945 -0.7768
  137OSM    C4S14808   0.934   2.714   2.384  0.3696  0.1325 -0.0636
  137OSM    H4S14809   0.917   2.769   2.478  2.0899  1.7514 -0.6302
  137OSM    C5S14810   1.059   2.672   2.380  0.3524 -1.0417 -0.0014
  137OSM    H5S14811   1.088   2.617   2.290 -2.5371 -0.1553 -1.6165
  137OSM    C6S14812   1.165   2.697   2.484 -1.1513  0.6269  0.5161
  137OSM    H6S14813   1.145   2.794   2.533 -1.7135  1.3661 -1.1154
  137OSM    H6T14814   1.266   2.700   2.439 -0.7665  0.2676  1.3273
  137OSM    C7S14815   1.185   2.587   2.589 -0.8022 -0.5064  0.7213
  137OSM    H7S14816   1.292   2.579   2.618 -0.1561 -2.1020 -1.7822
  137OSM    H7T14817   1.147   2.491   2.548 -2.9556  0.8039 -0.5509
  137OSM    C8S14818   1.099   2.615   2.708  0.1387 -0.1847  0.1219
  137OSM    H8S14819   0.992   2.604   2.678  0.4834  0.8742 -1.6523
  137OSM    H8T14820   1.132   2.715   2.742 -0.6464 -0.3269  1.3991
  137OSM    C9S14821   1.131   2.517   2.823  0.0433  0.1290  0.1380
  137OSM    H9S14822   1.240   2.496   2.814  0.0657  0.0789  0.5174
  137OSM    H9T14823   1.084   2.419   2.799 -1.1940  0.2138  1.9395
  137OSM   C10S14824   1.075   2.545   2.958 -0.0913 -0.0348  0.1301
  137OSM   H10S14825   1.119   2.462   3.018  2.2748  1.0977  0.0787
  137OSM   H10T14826   0.964   2.540   2.962 -0.1918  1.3710 -0.5519
  137OSM   C11S14827   1.123   2.680   3.014 -0.0139 -0.5878 -0.1033
  137OSM   H11S14828   1.078   2.768   2.964 -0.9639  0.8981  3.1639
  137OSM   H11T14829   1.234   2.669   3.003 -0.0583 -1.1017 -0.0841
  137OSM   C12S14830   1.098   2.694   3.169 -0.6319  0.3136  0.2275
  137OSM   H12S14831   1.142   2.791   3.201  2.6153 -0.3877 -1.6933
  137OSM   H12T14832   1.169   2.619   3.208  0.7878  1.2489 -0.4766
  137OSM   C13S14833   0.944   2.686   3.204 -0.4191 -0.3897 -0.6222
  137OSM   H13S14834   0.920   2.578   3.199 -0.1818 -0.3912 -2.3109
  137OSM   H13T14835   0.872   2.738   3.137  1.2500  0.9958 -1.4096
  137OSM   C14S14836   0.925   2.723   3.352  0.1055 -0.0688  0.4023
  137OSM   H14S14837   0.957   2.829   3.365 -0.7493  0.3588 -0.7335
  137OSM   H14T14838   0.990   2.654   3.408 -1.3564 -0.2119  1.9960
  137OSM   C15S14839   0.783   2.691   3.403 -0.0911 -0.2990 -0.1975
  137OSM   H15S14840   0.752   2.590   3.368 -3.1113  0.3374  0.2892
  137OSM   H15T14841   0.719   2.770   3.358  1.3369  0.7824 -0.3820
  137OSM   C16S14842   0.784   2.689   3.559 -0.3840 -0.7865 -0.0128
  137OSM   H16S14843   0.835   2.783   3.588  1.5925  0.0355 -5.0718
  137OSM   H16T14844   0.857   2.613   3.596  0.2619 -1.0093 -1.6490
  137OSM   C17S14845   0.650   2.679   3.617  0.6895 -0.1824  0.0781
  137OSM   H17S14846   0.608   2.579   3.593  0.5036  0.0562 -0.6149
  137OSM   H17T14847   0.591   2.754   3.560 -0.0409 -1.0454 -0.3271
  137OSM   C18S14848   0.649   2.696   3.767 -0.1930  0.6193 -0.0496
  137OSM   H18S14849   0.545   2.690   3.805 -0.3802 -1.7619 -0.7754
  137OSM   H18T14850   0.682   2.800   3.792  0.8727  0.2406  0.2066
  137OSM   H18U14851   0.713   2.624   3.824  0.5112  0.0609 -1.4943
  137OSM    C1F14852   0.632   2.509   2.575  0.6573 -0.6386  0.2903
  137OSM     OF14853   0.618   2.393   2.539 -0.0887  0.2722  0.3925
  137OSM    C2F14854   0.578   2.560   2.704  1.0582 -0.4481  0.1663
  137OSM    H2F14855   0.478   2.516   2.723  0.9993 -1.5864 -2.3904
  137OSM    H2G14856   0.543   2.665   2.692  1.6394 -0.1256  1.1867
  137OSM    C3F14857   0.677   2.547   2.828 -0.8584 -0.5767  0.2543
  137OSM    H3F14858   0.777   2.586   2.798 -0.7894 -0.4123  0.6857
  137OSM    H3G14859   0.679   2.439   2.851 -1.5310 -1.0971 -1.8828
  137OSM    C4F14860   0.633   2.623   2.958 -0.1710 -0.2660 -0.4047
  137OSM    H4F14861   0.616   2.731   2.936  3.0179 -0.1344 -2.8941
  137OSM    H4G14862   0.724   2.618   3.021 -1.3380  2.1032  1.6697
  137OSM    C5F14863   0.520   2.568   3.039  0.6434 -0.6299  0.4923
  137OSM    H5F14864   0.428   2.554   2.980 -1.6297  0.3523  3.5499
  137OSM    H5G14865   0.475   2.648   3.101 -0.2250 -0.1628 -0.7298
  137OSM    C6F14866   0.548   2.435   3.111 -0.6070 -0.5291  0.2131
  137OSM    H6F14867   0.644   2.430   3.167 -0.7522 -0.2376  0.4969
  137OSM    H6G14868   0.549   2.353   3.037 -1.1273 -1.5144  1.2698
  137OSM    C7F14869   0.438   2.388   3.218  0.0988 -0.6771  0.3937
  137OSM    H7F14870   0.415   2.280   3.205  2.9247 -1.4085  0.6900
  137OSM    H7G14871   0.341   2.441   3.206 -0.6049 -2.0716 -0.3271
  137OSM    C8F14872   0.477   2.425   3.363 -0.4071 -0.3573  0.5724
  137OSM    H8F14873   0.381   2.423   3.418  0.4741 -0.7526  2.1695
  137OSM    H8G14874   0.513   2.530   3.369  1.4364 -0.8545 -0.7089
  137OSM    C9F14875   0.569   2.339   3.442  0.5575  0.2570 -0.2453
  137OSM    H9F14876   0.663   2.314   3.390  0.4320 -0.5113 -0.1188
  137OSM   C10F14877   0.555   2.286   3.566 -0.2898  0.8924  0.1654
  137OSM   H10F14878   0.631   2.216   3.604 -1.0811 -0.3648 -0.4980
  137OSM   C11F14879   0.438   2.301   3.664 -0.0730 -0.2892  0.1344
  137OSM   H11F14880   0.373   2.211   3.667  0.8133 -1.1611 -2.9500
  137OSM   H11G14881   0.380   2.388   3.626  0.3580 -0.0967 -0.0945
  137OSM   C12F14882   0.487   2.345   3.800 -0.6258 -0.4123 -0.7831
  137OSM   H12F14883   0.397   2.402   3.832  0.1982  1.8476 -2.2731
  137OSM   H12G14884   0.565   2.423   3.797 -0.4795 -0.5597 -0.8318
  137OSM   C13F14885   0.518   2.235   3.903 -0.2453 -0.0447  0.5736
  137OSM   H13F14886   0.617   2.190   3.878  0.4812  2.7318 -2.0567
  137OSM   H13G14887   0.433   2.163   3.897  0.7369 -1.2986  1.2599
  137OSM   C14F14888   0.532   2.290   4.048  0.5145  0.2360 -0.4595
  137OSM   H14F14889   0.555   2.209   4.120  1.3597  0.5797 -0.3364
  137OSM   H14G14890   0.439   2.337   4.085  0.1805 -0.4336 -0.4358
  137OSM   C15F14891   0.646   2.386   4.063  0.1077 -0.1470  0.0537
  137OSM   H15F14892   0.650   2.464   3.985 -0.8521 -1.0801 -0.9679
  137OSM   H15G14893   0.745   2.337   4.067 -0.4352 -1.3005  3.9623
  137OSM   C16F14894   0.624   2.466   4.194 -0.0315 -0.5555  0.0751
  137OSM   H16F14895   0.595   2.389   4.270 -3.3881  0.0640 -0.4219
  137OSM   H16G14896   0.532   2.527   4.189  0.7736  0.8027  1.1004
  137OSM   C17F14897   0.741   2.561   4.216  0.3409 -0.3503  0.0452
  137OSM   H17F14898   0.760   2.640   4.139 -0.5720  1.2587  1.3936
  137OSM   H17G14899   0.836   2.504   4.223  0.8070  0.6011  2.7397
  137OSM   C18F14900   0.735   2.651   4.344  0.0727 -0.6572  0.7612
  137OSM   H18F14901   0.809   2.733   4.333 -0.5517 -0.0285  1.1544
  137OSM   H18G14902   0.762   2.598   4.438  0.4406 -0.8188  0.5645
  137OSM   H18H14903   0.632   2.691   4.350  0.7944  1.3517  0.5880
  138OSM      N14904   5.177   6.375   1.913  0.3749 -0.0485 -0.5041
  138OSM    C1514905   5.163   6.433   1.782 -0.4840 -0.6746 -0.3213
  138OSM   H15A14906   5.058   6.421   1.759 -0.4054  0.6016 -1.4866
  138OSM   H15B14907   5.224   6.369   1.720  1.1756  1.0959 -0.5887
  138OSM   H15C14908   5.202   6.533   1.785  1.6338 -1.3484  4.8564
  138OSM    C1414909   5.114   6.237   1.905 -0.5815 -0.1705 -0.3995
  138OSM   H14A14910   5.009   6.244   1.880 -0.7355  3.3149  0.6438
  138OSM   H14B14911   5.117   6.185   2.000 -1.4158  0.4683 -0.0049
  138OSM   H14C14912   5.174   6.174   1.842  1.8416  0.0077  1.5777
  138OSM    C1314913   5.318   6.350   1.953  0.0239  0.3869 -0.1418
  138OSM   H13A14914   5.374   6.310   1.870  1.0389  2.0232 -0.2955
  138OSM   H13B14915   5.332   6.282   2.036 -0.1911  0.5425  0.0270
  138OSM   H13C14916   5.368   6.436   1.996 -1.5662  0.3509  2.0014
  138OSM    C1214917   5.103   6.457   2.021 -0.2712  0.0617 -0.6742
  138OSM   H12A14918   5.120   6.415   2.119 -0.9296  1.1508 -0.0782
  138OSM   H12B14919   4.997   6.460   2.003 -0.7274  0.9919  1.8564
  138OSM    C1114920   5.153   6.603   2.043  0.6344  0.1738  0.4025
  138OSM   H11A14921   5.083   6.653   2.113 -1.6599 -0.5193 -1.2350
  138OSM   H11B14922   5.142   6.649   1.942 -2.5638 -2.8855 -0.9079
  138OSM      P14923   5.359   6.738   2.135  0.0289  0.3078 -0.2712
  138OSM    O1314924   5.457   6.686   2.239 -0.0693  0.5844  0.2686
  138OSM    O1414925   5.417   6.810   2.017  0.0380  0.2005 -0.5739
  138OSM    O1114926   5.250   6.840   2.212 -0.9562 -0.1637  0.0986
  138OSM    O1214927   5.287   6.612   2.075 -0.2561  0.3949  1.0127
  138OSM    C1S14928   5.178   6.800   2.331 -0.7102 -0.3383  0.8988
  138OSM    H1S14929   5.169   6.689   2.336 -1.4306 -0.3850 -0.7243
  138OSM    H1T14930   5.075   6.841   2.316 -0.6472  0.4020  2.3593
  138OSM     NF14931   5.150   6.821   2.565 -0.3201  1.4026 -0.0082
  138OSM    HNF14932   5.067   6.870   2.591 -1.6279 -1.1499  0.9670
  138OSM    C2S14933   5.233   6.863   2.460  0.5962  0.2470 -0.8575
  138OSM    H2S14934   5.335   6.829   2.484 -0.7310 -3.2438  0.5201
  138OSM    C3S14935   5.224   7.026   2.450 -0.4601  0.1947 -0.2430
  138OSM    H3S14936   5.116   7.051   2.440 -0.1891  1.8164  0.6257
  138OSM     O314937   5.292   7.085   2.338 -0.1896  0.2013 -0.3200
  138OSM    HO314938   5.293   7.016   2.270 -0.6557  0.7364 -0.8826
  138OSM    C4S14939   5.263   7.089   2.581 -0.5891  0.1544 -0.2997
  138OSM    H4S14940   5.368   7.065   2.603 -0.2118  1.7930 -0.1822
  138OSM    C5S14941   5.200   7.178   2.663 -0.4740 -0.2945  0.0250
  138OSM    H5S14942   5.098   7.207   2.634 -0.3686  0.0760  0.0242
  138OSM    C6S14943   5.261   7.206   2.800 -0.5218  0.0053  0.8775
  138OSM    H6S14944   5.201   7.294   2.832 -0.2220  0.7656 -0.5444
  138OSM    H6T14945   5.370   7.229   2.796 -0.3849 -0.6680  0.5631
  138OSM    C7S14946   5.247   7.100   2.915  0.1819 -1.3206 -0.5138
  138OSM    H7S14947   5.285   7.159   3.002 -1.7970  0.7529 -0.9604
  138OSM    H7T14948   5.317   7.014   2.905  1.3996 -0.3017 -1.0202
  138OSM    C8S14949   5.099   7.057   2.938  0.0972  0.4404 -0.3508
  138OSM    H8S14950   5.068   7.003   2.846 -1.5194  0.3482  0.2227
  138OSM    H8T14951   5.040   7.151   2.947  0.1463  0.7116 -2.3813
  138OSM    C9S14952   5.067   6.959   3.059  0.3348  0.1525  0.7863
  138OSM    H9S14953   5.129   6.868   3.047 -2.4550 -1.5819 -2.0194
  138OSM    H9T14954   4.959   6.932   3.051  0.3810 -0.1595  1.1750
  138OSM   C10S14955   5.105   7.034   3.190  1.0009  0.4986 -0.8488
  138OSM   H10S14956   5.034   7.120   3.197 -1.9642 -1.8080 -0.8098
  138OSM   H10T14957   5.211   7.067   3.187  1.6629 -1.3158  0.6287
  138OSM   C11S14958   5.101   6.939   3.315  0.2343 -0.0446 -0.2384
  138OSM   H11S14959   5.190   6.875   3.302 -0.0054 -0.2096 -1.2084
  138OSM   H11T14960   5.010   6.876   3.308 -0.4326  0.9877 -1.3406
  138OSM   C12S14961   5.109   7.014   3.445 -0.0626  0.7392  0.3003
  138OSM   H12S14962   5.012   7.067   3.458 -0.8612 -1.1853  3.5767
  138OSM   H12T14963   5.196   7.082   3.433  2.2422 -1.7549  1.7515
  138OSM   C13S14964   5.130   6.930   3.574 -0.4938  0.0236  0.0645
  138OSM   H13S14965   5.237   6.898   3.570 -0.5632 -0.9572  3.4581
  138OSM   H13T14966   5.066   6.839   3.566 -0.4802 -0.0167  0.4014
  138OSM   C14S14967   5.116   7.009   3.712  0.0376  0.5644  0.2649
  138OSM   H14S14968   5.018   7.061   3.713 -1.5760 -2.0483 -2.6307
  138OSM   H14T14969   5.204   7.076   3.721 -0.4677  1.2316  0.2964
  138OSM   C15S14970   5.133   6.927   3.835  0.5807 -0.2981  0.0998
  138OSM   H15S14971   5.229   6.871   3.835  0.0479 -1.2916 -2.0177
  138OSM   H15T14972   5.044   6.862   3.838  1.0450 -1.0990 -2.1525
  138OSM   C16S14973   5.131   7.020   3.961 -0.4595 -0.0745 -0.8164
  138OSM   H16S14974   5.030   7.065   3.969 -0.9573 -1.4785  1.8698
  138OSM   H16T14975   5.201   7.104   3.944 -0.4432 -0.1039 -0.8957
  138OSM   C17S14976   5.165   6.971   4.098  0.0708  0.3291 -0.3212
  138OSM   H17S14977   5.267   6.928   4.102 -0.0617  0.0459  0.2216
  138OSM   H17T14978   5.107   6.880   4.125  2.0056 -0.3030  2.1304
  138OSM   C18S14979   5.161   7.069   4.212  0.2923  0.4308  1.0384
  138OSM   H18S14980   5.219   7.045   4.303  0.6329 -0.0079  0.7114
  138OSM   H18T14981   5.054   7.094   4.230 -0.3346  0.8231 -2.4389
  138OSM   H18U14982   5.204   7.167   4.182 -0.6771  0.8641  1.0435
  138OSM    C1F14983   5.163   6.696   2.606 -0.5267 -0.0822 -0.5305
  138OSM     OF14984   5.251   6.629   2.562 -0.7146  0.1169 -0.2226
  138OSM    C2F14985   5.073   6.650   2.719 -0.1887 -0.2493 -0.5720
  138OSM    H2F14986   4.970   6.652   2.676 -0.3715  1.6305 -0.1245
  138OSM    H2G14987   5.083   6.726   2.799 -0.3979  0.7542 -1.4792
  138OSM    C3F14988   5.107   6.509   2.766  0.8944 -0.1857 -0.7628
  138OSM    H3F14989   5.200   6.509   2.826  0.0037  3.2246  0.8601
  138OSM    H3G14990   5.114   6.435   2.683  2.4607  1.2054 -1.9241
  138OSM    C4F14991   4.998   6.461   2.860 -0.2307 -0.7585 -0.5690
  138OSM    H4F14992   5.004   6.351   2.873  0.2185 -0.9891 -2.3526
  138OSM    H4G14993   4.903   6.485   2.807 -0.4686  0.2508  0.2904
  138OSM    C5F14994   4.980   6.518   3.001  0.1296 -0.5497 -1.0785
  138OSM    H5F14995   4.875   6.495   3.031 -0.1376 -0.9306 -2.2571
  138OSM    H5G14996   4.973   6.627   3.023 -1.0351 -1.0766  1.5446
  138OSM    C6F14997   5.081   6.463   3.108 -0.5148  0.5746 -0.3167
  138OSM    H6F14998   5.186   6.474   3.074  0.7991 -0.9800  2.8389
  138OSM    H6G14999   5.067   6.353   3.112  1.2188  0.2669 -1.5434
  138OSM    C7F15000   5.064   6.530   3.247 -0.0244  0.6811 -0.9335
  138OSM    H7F15001   4.964   6.510   3.292  0.6827 -0.3588  0.2618
  138OSM    H7G15002   5.073   6.640   3.237  1.6358  0.6615 -0.0322
  138OSM    C8F15003   5.168   6.486   3.352  0.6228 -0.0721 -0.3777
  138OSM    H8F15004   5.156   6.557   3.437  0.8479  0.4293 -0.7528
  138OSM    H8G15005   5.267   6.511   3.306  0.9271 -1.9217 -0.7878
  138OSM    C9F15006   5.153   6.343   3.399 -0.2120  0.3387 -0.5815
  138OSM    H9F15007   5.172   6.261   3.327  1.8336  0.3604 -0.1264
  138OSM   C10F15008   5.107   6.298   3.520  0.1802 -0.4848 -0.0621
  138OSM   H10F15009   5.101   6.190   3.540 -0.0253 -0.3278  0.7623
  138OSM   C11F15010   5.060   6.388   3.631 -0.2975  0.0595  0.2285
  138OSM   H11F15011   4.956   6.421   3.612 -0.0270  0.4247 -0.6522
  138OSM   H11G15012   5.144   6.460   3.644 -1.2348  1.3128 -0.4430
  138OSM   C12F15013   5.066   6.322   3.774  0.1490  0.0100  0.1857
  138OSM   H12F15014   5.161   6.266   3.786  0.2463  0.1039 -0.1502
  138OSM   H12G15015   4.979   6.253   3.779  0.9063 -1.0422 -0.6805
  138OSM   C13F15016   5.084   6.427   3.881  0.0481  0.4519 -0.6134
  138OSM   H13F15017   5.007   6.507   3.875 -0.3282  0.0595 -1.1083
  138OSM   H13G15018   5.184   6.471   3.863  0.3838 -0.1791 -0.3099
  138OSM   C14F15019   5.083   6.369   4.023 -0.2788 -0.1759  0.1193
  138OSM   H14F15020   4.992   6.317   4.058  1.4057 -2.8092  0.8570
  138OSM   H14G15021   5.091   6.446   4.103 -0.6730 -1.4306  1.3948
  138OSM   C15F15022   5.205   6.275   4.051  0.4632 -0.1373 -0.6313
  138OSM   H15F15023   5.297   6.325   4.013  1.3535 -0.9537  0.3787
  138OSM   H15G15024   5.193   6.185   3.987 -1.3091  0.0222 -0.5590
  138OSM   C16F15025   5.201   6.242   4.196 -0.1593 -0.1266 -0.4055
  138OSM   H16F15026   5.110   6.181   4.217 -2.3011  2.9613  0.0722
  138OSM   H16G15027   5.195   6.338   4.251 -0.3279  0.5773 -1.6088
  138OSM   C17F15028   5.321   6.173   4.256  0.1745 -0.3038  0.6258
  138OSM   H17F15029   5.413   6.228   4.226  0.1907 -1.6009 -1.9502
  138OSM   H17G15030   5.331   6.069   4.219  0.4495  0.6616 -2.2583
  138OSM   C18F15031   5.309   6.178   4.404  0.6265  0.6603 -0.4625
  138OSM   H18F15032   5.385   6.111   4.449  0.1647  0.4516  0.0135
  138OSM   H18G15033   5.209   6.142   4.435 -0.6463  3.7206 -0.6009
  138OSM   H18H15034   5.334   6.280   4.441 -2.5073  1.0290  0.9319
  139OSM      N15035   0.827   1.911   2.021 -0.4858  0.0875  0.8121
  139OSM    C1515036   0.871   2.032   1.947  0.2489 -0.0747  0.1993
  139OSM   H15A15037   0.845   2.023   1.842 -0.7067  4.6607 -0.1995
  139OSM   H15B15038   0.974   2.055   1.967  0.1601  0.7606 -0.2466
  139OSM   H15C15039   0.799   2.110   1.970  1.1257  0.9906 -0.5196
  139OSM    C1415040   0.828   1.943   2.169  0.0854  0.9250  0.1401
  139OSM   H14A15041   0.775   2.034   2.194  2.2585  2.2200  0.2483
  139OSM   H14B15042   0.932   1.956   2.195  0.1279  2.2191 -0.6023
  139OSM   H14C15043   0.786   1.859   2.222  0.5449  0.3844 -0.3513
  139OSM    C1315044   0.691   1.866   1.979 -0.1192 -0.1186 -0.1907
  139OSM   H13A15045   0.612   1.933   2.009 -0.2499 -0.7275  0.8889
  139OSM   H13B15046   0.679   1.769   2.026  0.5415  0.5410  1.4155
  139OSM   H13C15047   0.670   1.862   1.874 -1.3951 -1.0674  0.0690
  139OSM    C1215048   0.926   1.794   1.996  0.0023  0.5008  0.2464
  139OSM   H12A15049   1.029   1.823   2.008 -0.1282  0.4732  1.5065
  139OSM   H12B15050   0.922   1.770   1.890  1.5649  3.3109 -0.5316
  139OSM    C1115051   0.894   1.670   2.085  0.2284 -0.7148  0.7031
  139OSM   H11A15052   0.895   1.695   2.193 -2.1556 -0.8416  0.8015
  139OSM   H11B15053   0.986   1.607   2.078  0.6098 -0.1656  0.7343
  139OSM      P15054   0.750   1.477   2.145 -0.0322 -0.2821  0.3233
  139OSM    O1315055   0.622   1.418   2.122  0.1493  0.5536 -0.8566
  139OSM    O1415056   0.871   1.388   2.132  0.4384 -0.1217  0.6977
  139OSM    O1115057   0.753   1.539   2.290  0.2988  0.2406  0.0643
  139OSM    O1215058   0.778   1.597   2.052  0.0299 -0.7426  0.0026
  139OSM    C1S15059   0.636   1.621   2.330 -0.7266  0.1857  0.1138
  139OSM    H1S15060   0.550   1.551   2.329  0.0529 -0.8098 -0.4143
  139OSM    H1T15061   0.619   1.705   2.260 -1.4580 -0.7674 -0.8975
  139OSM     NF15062   0.505   1.730   2.514  0.0957  0.2271 -0.6367
  139OSM    HNF15063   0.489   1.829   2.510  0.8231  0.3189 -1.7956
  139OSM    C2S15064   0.639   1.677   2.479 -0.1032 -0.0338  0.4673
  139OSM    H2S15065   0.661   1.584   2.535  2.2036  1.3548  2.0698
  139OSM    C3S15066   0.759   1.773   2.507  0.2154  0.4920  0.7680
  139OSM    H3S15067   0.728   1.870   2.461 -0.1879  0.6344  1.3404
  139OSM     O315068   0.884   1.748   2.435 -0.3238  0.1601  0.0971
  139OSM    HO315069   0.861   1.686   2.365  0.4545  0.2502 -0.2537
  139OSM    C4S15070   0.779   1.798   2.659  0.3170  0.4703  0.7567
  139OSM    H4S15071   0.743   1.894   2.699 -1.3030  0.7880 -1.2760
  139OSM    C5S15072   0.838   1.714   2.745 -0.7038 -0.1081 -0.3222
  139OSM    H5S15073   0.884   1.621   2.708 -0.6342 -0.2502  0.1137
  139OSM    C6S15074   0.863   1.751   2.890  0.6910 -0.0535 -0.5656
  139OSM    H6S15075   0.867   1.861   2.905  0.7051  0.1696 -2.0133
  139OSM    H6T15076   0.967   1.722   2.915  0.2379 -1.1616  0.0689
  139OSM    C7S15077   0.763   1.698   2.995  0.0745 -0.1657  0.1730
  139OSM    H7S15078   0.773   1.588   3.012  0.8104  0.0817  1.4473
  139OSM    H7T15079   0.660   1.719   2.961  0.9029  0.7857 -1.9522
  139OSM    C8S15080   0.789   1.763   3.137 -0.3703  0.4243  0.1021
  139OSM    H8S15081   0.771   1.873   3.135 -1.3011  0.3261  1.3124
  139OSM    H8T15082   0.898   1.760   3.155 -0.2422  0.8895 -0.5795
  139OSM    C9S15083   0.718   1.691   3.250  0.3808  0.4911 -0.5329
  139OSM    H9S15084   0.742   1.582   3.253 -0.8167  0.0602 -3.3802
  139OSM    H9T15085   0.610   1.694   3.223  0.2320 -1.6092 -0.4068
  139OSM   C10S15086   0.739   1.737   3.396  0.2812 -0.3745 -0.2081
  139OSM   H10S15087   0.839   1.783   3.414  0.5253 -0.9429 -0.0879
  139OSM   H10T15088   0.736   1.645   3.458 -1.7058  0.5315  1.1521
  139OSM   C11S15089   0.645   1.830   3.455  0.9632  0.4880 -0.8113
  139OSM   H11S15090   0.547   1.779   3.451 -0.8856  3.6698  0.3007
  139OSM   H11T15091   0.645   1.924   3.396 -0.9710  0.6091 -0.6681
  139OSM   C12S15092   0.660   1.874   3.599  0.0870  0.0079 -0.4150
  139OSM   H12S15093   0.582   1.952   3.608  0.5706  0.5070 -0.4882
  139OSM   H12T15094   0.764   1.911   3.611 -0.0641 -0.1517  1.8646
  139OSM   C13S15095   0.636   1.750   3.693 -0.1096 -0.7093 -0.3239
  139OSM   H13S15096   0.709   1.669   3.670 -0.7946 -1.3924 -0.1534
  139OSM   H13T15097   0.536   1.704   3.678 -0.3988 -0.9356  1.9936
  139OSM   C14S15098   0.645   1.784   3.849  0.4797  0.3508  0.1491
  139OSM   H14S15099   0.574   1.864   3.879  2.5824  2.4718 -0.1842
  139OSM   H14T15100   0.744   1.833   3.861  0.9750 -0.7481  0.7056
  139OSM   C15S15101   0.615   1.659   3.934 -0.2721  0.1763  0.6957
  139OSM   H15S15102   0.687   1.589   3.886 -1.3024 -1.1732  1.0634
  139OSM   H15T15103   0.512   1.625   3.909 -0.0878  1.6552 -2.6004
  139OSM   C16S15104   0.616   1.665   4.089  0.1070  0.3843  0.3681
  139OSM   H16S15105   0.534   1.735   4.119  0.6298  0.4860  1.6377
  139OSM   H16T15106   0.712   1.711   4.121  0.3343 -1.0704  1.8912
  139OSM   C17S15107   0.583   1.534   4.153  0.0150  0.4428 -0.0797
  139OSM   H17S15108   0.660   1.458   4.128  0.6680  1.2339 -0.5052
  139OSM   H17T15109   0.482   1.500   4.119  0.0181  1.7719 -1.5660
  139OSM   C18S15110   0.593   1.556   4.305 -0.2238 -0.3339 -0.4715
  139OSM   H18S15111   0.545   1.469   4.354  0.1477 -0.8602 -1.0417
  139OSM   H18T15112   0.544   1.651   4.335 -1.7135 -1.7788  2.0018
  139OSM   H18U15113   0.696   1.576   4.342 -0.8755  1.9742  0.3175
  139OSM    C1F15114   0.396   1.653   2.525 -0.0309 -0.0402  1.0038
  139OSM     OF15115   0.411   1.534   2.525 -0.1292  0.4172 -0.2094
  139OSM    C2F15116   0.258   1.719   2.504  0.8425  0.1936 -0.4333
  139OSM    H2F15117   0.247   1.730   2.394 -1.2571  0.3502 -0.2421
  139OSM    H2G15118   0.264   1.819   2.553  1.5729  1.6587 -3.2585
  139OSM    C3F15119   0.147   1.642   2.586 -0.2953  0.4833  0.0364
  139OSM    H3F15120   0.151   1.541   2.540 -2.6972  1.1940 -1.9383
  139OSM    H3G15121   0.043   1.672   2.558 -0.3418  1.9093  1.5417
  139OSM    C4F15122   0.164   1.648   2.737  0.1309  0.1442 -0.5471
  139OSM    H4F15123   0.173   1.753   2.771 -2.6978  0.6354 -1.0594
  139OSM    H4G15124   0.263   1.606   2.766  0.1407  0.5391 -0.0101
  139OSM    C5F15125   0.050   1.570   2.800 -0.2569  0.3886  0.1088
  139OSM    H5F15126   0.029   1.484   2.734 -1.4365  0.4217  0.4287
  139OSM    H5G15127  -0.037   1.639   2.803  2.1212  3.6770 -0.4549
  139OSM    C6F15128   0.086   1.513   2.944  0.6390 -0.3651  0.7114
  139OSM    H6F15129   0.162   1.580   2.989 -1.6251  1.7001  1.6661
  139OSM    H6G15130   0.137   1.417   2.921  1.5825  0.3659 -0.3289
  139OSM    C7F15131  -0.038   1.495   3.035 -0.0612  0.3966 -0.5180
  139OSM    H7F15132  -0.101   1.414   2.994  0.8450 -0.9343  0.6454
  139OSM    H7G15133  -0.096   1.587   3.060  2.0844  0.9270  3.3003
  139OSM    C8F15134   0.014   1.438   3.174  0.1412  0.1071 -0.0684
  139OSM    H8F15135   0.037   1.527   3.238 -0.5837  0.8766 -0.8625
  139OSM    H8G15136   0.110   1.383   3.162  0.0991 -0.2849  1.2482
  139OSM    C9F15137  -0.083   1.345   3.243  0.2465  0.2708  0.5174
  139OSM    H9F15138  -0.076   1.242   3.206  0.2551  0.8743 -1.2634
  139OSM   C10F15139  -0.169   1.376   3.337  0.8116  0.5056  0.3560
  139OSM   H10F15140  -0.235   1.293   3.367  2.3722 -0.9942 -0.2296
  139OSM   C11F15141  -0.197   1.516   3.382  0.3761 -0.0445 -0.5342
  139OSM   H11F15142  -0.303   1.535   3.408  0.5830  2.3948 -1.2406
  139OSM   H11G15143  -0.174   1.592   3.304 -0.1427 -0.0148 -0.6590
  139OSM   C12F15144  -0.124   1.558   3.515 -0.0929  0.2679 -0.9071
  139OSM   H12F15145  -0.162   1.657   3.548 -1.6033 -0.6881  0.3788
  139OSM   H12G15146  -0.018   1.582   3.495  0.5163 -1.8785 -0.4910
  139OSM   C13F15147  -0.141   1.465   3.636  0.0308 -1.0227  1.1749
  139OSM   H13F15148  -0.057   1.395   3.617  1.8148  1.1289  0.7832
  139OSM   H13G15149  -0.241   1.415   3.632  0.4388 -1.7731 -0.4424
  139OSM   C14F15150  -0.112   1.534   3.767  0.2875 -0.7640  0.0218
  139OSM   H14F15151  -0.155   1.636   3.774  0.9804 -0.5584  1.7671
  139OSM   H14G15152  -0.003   1.554   3.766 -0.1007  1.5056 -0.9245
  139OSM   C15F15153  -0.145   1.445   3.892  0.3831  0.3102 -0.2698
  139OSM   H15F15154  -0.099   1.345   3.879 -0.4768 -0.1598  0.1520
  139OSM   H15G15155  -0.252   1.419   3.875  0.6154 -0.6038 -0.3728
  139OSM   C16F15156  -0.112   1.515   4.024 -0.0290  0.6684  0.3852
  139OSM   H16F15157  -0.130   1.625   4.020 -0.6633  0.5787  0.6331
  139OSM   H16G15158  -0.005   1.494   4.042 -0.2579  0.0920  1.1315
  139OSM   C17F15159  -0.198   1.457   4.137  0.6566  0.5720 -0.3631
  139OSM   H17F15160  -0.301   1.463   4.096  1.0949  1.6777 -1.3562
  139OSM   H17G15161  -0.177   1.529   4.219  1.3058  0.9743 -0.8707
  139OSM   C18F15162  -0.189   1.308   4.175 -0.3217 -0.3336  0.0783
  139OSM   H18F15163  -0.085   1.279   4.148 -1.6257 -2.9012 -2.7257
  139OSM   H18G15164  -0.259   1.249   4.113 -2.6358  0.6320  1.6093
  139OSM   H18H15165  -0.201   1.293   4.285 -0.2574  1.4156  0.3614
  140OSM      N15166   5.064   0.336   2.002  0.3021  0.3841 -0.1073
  140OSM    C1515167   4.962   0.288   1.911  0.1813 -0.2576  0.2005
  140OSM   H15A15168   4.959   0.337   1.814  2.6791  0.1534  0.2656
  140OSM   H15B15169   4.867   0.290   1.963  1.1212 -0.9239  2.0207
  140OSM   H15C15170   4.984   0.185   1.889 -1.1142 -0.6327  0.5601
  140OSM    C1415171   5.200   0.281   1.972  0.9123  0.0508 -0.4257
  140OSM   H14A15172   5.278   0.341   2.017  0.4164 -0.2291  0.8536
  140OSM   H14B15173   5.219   0.282   1.866  0.5993  2.3765 -0.4998
  140OSM   H14C15174   5.208   0.182   2.014 -2.6699  0.2925  1.1769
  140OSM    C1315175   5.084   0.487   1.987 -0.0834  0.1016  0.3860
  140OSM   H13A15176   5.104   0.519   1.886 -0.6973  2.8181  1.0387
  140OSM   H13B15177   5.165   0.524   2.049  0.6420 -0.7786 -0.0184
  140OSM   H13C15178   4.989   0.529   2.019 -1.0202 -1.5904 -0.0744
  140OSM    C1215179   5.023   0.312   2.145 -0.1536  0.2312  0.3803
  140OSM   H12A15180   5.121   0.301   2.189  0.1282 -2.2348 -0.7476
  140OSM   H12B15181   4.961   0.224   2.140  1.5748 -0.9346 -2.8230
  140OSM    C1115182   4.928   0.425   2.218  0.8740 -0.5946  0.0796
  140OSM   H11A15183   4.999   0.507   2.244 -0.0285  0.3460 -0.3700
  140OSM   H11B15184   4.903   0.378   2.315  1.1810 -0.4890  0.2119
  140OSM      P15185   4.681   0.391   2.139  0.0417 -0.1819  0.2995
  140OSM    O1315186   4.569   0.475   2.088  0.1200 -0.5142 -0.1910
  140OSM    O1415187   4.699   0.258   2.073 -0.1590 -0.2280 -0.7066
  140OSM    O1115188   4.648   0.367   2.288 -0.0995  0.4245 -0.6634
  140OSM    O1215189   4.818   0.466   2.144  0.0743  0.2169  0.0429
  140OSM    C1S15190   4.588   0.247   2.343 -0.0350 -0.0770  0.2777
  140OSM    H1S15191   4.653   0.158   2.332  0.2339 -0.3360  3.1205
  140OSM    H1T15192   4.494   0.221   2.289  1.5090 -1.2749 -1.9729
  140OSM     NF15193   4.495   0.125   2.527  0.1101 -0.3331 -0.4108
  140OSM    HNF15194   4.396   0.126   2.540  0.2263  0.2078  0.5122
  140OSM    C2S15195   4.557   0.258   2.492  0.9702  0.6566  0.3655
  140OSM    H2S15196   4.653   0.262   2.548  1.3129 -2.2434  0.1595
  140OSM    C3S15197   4.467   0.378   2.527 -0.5005 -0.3677 -0.1768
  140OSM    H3S15198   4.369   0.354   2.480 -0.5700 -0.4312 -0.0028
  140OSM     O315199   4.504   0.507   2.488  0.3619  0.1128  0.0352
  140OSM    HO315200   4.566   0.483   2.419 -1.2260  0.7727 -1.7050
  140OSM    C4S15201   4.440   0.374   2.678 -0.8128  0.0726  0.8042
  140OSM    H4S15202   4.357   0.308   2.709 -0.9138  0.0693  0.5282
  140OSM    C5S15203   4.497   0.459   2.770 -0.6941 -0.2516  0.1765
  140OSM    H5S15204   4.586   0.517   2.742  2.0469 -4.1365  0.0378
  140OSM    C6S15205   4.463   0.474   2.912 -0.4827  0.1794 -0.4604
  140OSM    H6S15206   4.355   0.500   2.915 -0.7239 -0.7198  2.5337
  140OSM    H6T15207   4.532   0.550   2.954  0.3572 -1.1593  0.6616
  140OSM    C7S15208   4.493   0.344   2.993  0.1919  0.3210  0.7187
  140OSM    H7S15209   4.593   0.295   2.990 -1.4516 -3.3595 -1.0032
  140OSM    H7T15210   4.419   0.267   2.962  0.3727 -0.1820  1.5283
  140OSM    C8S15211   4.484   0.364   3.143 -0.2105  0.0220  0.0747
  140OSM    H8S15212   4.544   0.454   3.169 -2.0031  0.6751  2.3301
  140OSM    H8T15213   4.536   0.283   3.199  0.5709 -0.0305 -0.7148
  140OSM    C9S15214   4.347   0.408   3.199 -0.1100  1.0557 -0.6060
  140OSM    H9S15215   4.274   0.329   3.173  2.0857 -1.3687  0.2196
  140OSM    H9T15216   4.317   0.496   3.138  0.0250  0.8384 -0.9882
  140OSM   C10S15217   4.361   0.464   3.341 -0.0599  0.1509 -0.0035
  140OSM   H10S15218   4.270   0.523   3.363 -0.1794 -0.3674  0.9257
  140OSM   H10T15219   4.447   0.534   3.344 -1.0118  1.4514 -1.5294
  140OSM   C11S15220   4.389   0.352   3.448  0.1483  0.2363  0.8878
  140OSM   H11S15221   4.498   0.328   3.449 -0.1837 -2.2745 -2.8276
  140OSM   H11T15222   4.341   0.265   3.399  0.8592 -0.2370  1.0204
  140OSM   C12S15223   4.335   0.382   3.585 -0.0675 -0.0642 -0.3421
  140OSM   H12S15224   4.370   0.298   3.649  4.0706  0.2796 -1.8657
  140OSM   H12T15225   4.224   0.386   3.589  0.0173  1.8916  1.5599
  140OSM   C13S15226   4.384   0.511   3.641 -0.4245 -0.6162  0.2235
  140OSM   H13S15227   4.337   0.598   3.590 -2.7944 -1.6046  0.5881
  140OSM   H13T15228   4.490   0.515   3.608  0.0395 -1.1984  1.5730
  140OSM   C14S15229   4.375   0.533   3.792 -0.0474  0.0070 -0.0379
  140OSM   H14S15230   4.427   0.626   3.821 -1.3876  0.6735  0.2972
  140OSM   H14T15231   4.414   0.439   3.838  1.1950  1.4025  1.8958
  140OSM   C15S15232   4.230   0.534   3.848 -0.5096 -0.5025 -0.0189
  140OSM   H15S15233   4.186   0.439   3.809 -0.6197  0.5648 -2.7467
  140OSM   H15T15234   4.185   0.625   3.803 -2.3979 -1.3184  0.1043
  140OSM   C16S15235   4.214   0.546   4.004 -0.1565 -0.2118 -0.5233
  140OSM   H16S15236   4.108   0.538   4.036 -1.7522 -1.7170 -5.2825
  140OSM   H16T15237   4.247   0.648   4.033 -2.6700 -0.0211  2.0905
  140OSM   C17S15238   4.286   0.437   4.086 -0.9135  1.0839 -0.4509
  140OSM   H17S15239   4.389   0.472   4.108 -0.5440 -0.8230  1.0839
  140OSM   H17T15240   4.287   0.343   4.027 -0.6922 -0.2598  1.6093
  140OSM   C18S15241   4.224   0.406   4.217 -0.6013  0.6299 -0.7163
  140OSM   H18S15242   4.280   0.322   4.263 -0.0563  0.3937 -1.7615
  140OSM   H18T15243   4.123   0.361   4.205  0.2028 -1.3893 -0.2695
  140OSM   H18U15244   4.223   0.499   4.276 -1.2104  0.3009 -0.1902
  140OSM    C1F15245   4.555   0.007   2.543 -0.2973  0.1088  0.2264
  140OSM     OF15246   4.667  -0.012   2.500  0.1151 -0.2387  0.7618
  140OSM    C2F15247   4.475  -0.111   2.590 -0.7498 -1.0733 -0.6169
  140OSM    H2F15248   4.547  -0.195   2.602  0.3992  0.0650  0.7910
  140OSM    H2G15249   4.395  -0.141   2.519 -2.2934 -1.7700  1.3233
  140OSM    C3F15250   4.386  -0.094   2.717 -0.7345 -0.3453 -0.3676
  140OSM    H3F15251   4.344  -0.196   2.730  1.3121 -1.1237  0.4618
  140OSM    H3G15252   4.305  -0.018   2.705 -0.3695  0.0939 -0.0878
  140OSM    C4F15253   4.481  -0.076   2.836 -0.2394 -0.2070  1.0348
  140OSM    H4F15254   4.529   0.024   2.829 -0.2661 -0.2445  0.2003
  140OSM    H4G15255   4.566  -0.146   2.819  1.5405  1.4209  2.7461
  140OSM    C5F15256   4.407  -0.080   2.965 -1.3344  0.5155  0.3324
  140OSM    H5F15257   4.363  -0.181   2.978 -0.7694  0.1895 -0.2241
  140OSM    H5G15258   4.322  -0.009   2.969 -0.3085  1.7958  0.0707
  140OSM    C6F15259   4.497  -0.061   3.087 -0.5541 -0.5020 -0.2741
  140OSM    H6F15260   4.574   0.019   3.073 -0.1849 -0.5604  1.2274
  140OSM    H6G15261   4.556  -0.146   3.127 -0.6269  0.3468  1.7756
  140OSM    C7F15262   4.408  -0.019   3.204 -0.7457  0.4150  0.0896
  140OSM    H7F15263   4.334  -0.099   3.224 -1.9367  1.4543 -0.0643
  140OSM    H7G15264   4.360   0.079   3.180 -2.4274 -0.8357 -1.9658
  140OSM    C8F15265   4.486   0.013   3.329 -0.1435  1.1168 -0.4256
  140OSM    H8F15266   4.412   0.045   3.406 -0.6770  0.0250 -0.4552
  140OSM    H8G15267   4.554   0.098   3.307  3.0919 -1.2258 -0.1398
  140OSM    C9F15268   4.560  -0.104   3.394 -0.1931  0.3488  0.5677
  140OSM    H9F15269   4.522  -0.204   3.369  1.4801 -0.5073  1.3072
  140OSM   C10F15270   4.668  -0.097   3.475  0.5718 -0.1117 -0.3981
  140OSM   H10F15271   4.704  -0.181   3.537 -1.4315 -0.9903 -0.3614
  140OSM   C11F15272   4.746   0.031   3.515  0.9129 -0.6268 -0.2554
  140OSM   H11F15273   4.738   0.109   3.437 -2.9217 -0.4193  0.1650
  140OSM   H11G15274   4.853   0.004   3.529  0.8390  0.1639  2.4273
  140OSM   C12F15275   4.696   0.094   3.649  0.4963 -0.0513  0.0154
  140OSM   H12F15276   4.589   0.120   3.630  0.2826 -2.0380 -1.9583
  140OSM   H12G15277   4.752   0.188   3.664 -1.0076  0.9754 -0.6090
  140OSM   C13F15278   4.695   0.005   3.771  0.0919 -0.1125 -0.5582
  140OSM   H13F15279   4.785  -0.060   3.779 -1.9007 -2.9194  0.6836
  140OSM   H13G15280   4.620  -0.076   3.757  0.9348 -1.1948  0.9056
  140OSM   C14F15281   4.666   0.083   3.896  0.1916 -0.1107  0.2171
  140OSM   H14F15282   4.564   0.128   3.892  0.3734  0.2637 -0.3799
  140OSM   H14G15283   4.744   0.161   3.900 -0.9221  1.1476 -1.3235
  140OSM   C15F15284   4.681   0.001   4.030 -0.2572 -0.5673 -0.5565
  140OSM   H15F15285   4.603  -0.078   4.026  1.4921 -2.3073 -2.5181
  140OSM   H15G15286   4.660   0.077   4.109  0.3771 -1.6362  0.6882
  140OSM   C16F15287   4.827  -0.057   4.046  0.8400  0.2275 -0.4960
  140OSM   H16F15288   4.906   0.020   4.032  0.6065  0.4406 -0.6278
  140OSM   H16G15289   4.852  -0.139   3.976  2.4928 -3.0707  3.5152
  140OSM   C17F15290   4.841  -0.121   4.192 -0.0802 -0.4580 -0.0900
  140OSM   H17F15291   4.942  -0.166   4.189  0.8395  1.5461 -1.0498
  140OSM   H17G15292   4.755  -0.190   4.204 -2.1854  1.7199 -1.6432
  140OSM   C18F15293   4.840  -0.025   4.313 -0.7503  0.3436  0.7179
  140OSM   H18F15294   4.912   0.052   4.279  0.2170 -0.6242  0.4866
  140OSM   H18G15295   4.883  -0.079   4.400 -0.7086  1.8290  1.6568
  140OSM   H18H15296   4.739   0.014   4.337 -2.6088 -1.4981 -3.1563
  141OSM      N15297   0.423   4.809   1.638 -0.5070 -0.0140 -0.1239
  141OSM    C1515298   0.287   4.767   1.637  1.0320  0.2343 -0.2363
  141OSM   H15A15299   0.216   4.836   1.680 -0.8348 -0.7310 -1.6395
  141OSM   H15B15300   0.268   4.670   1.681 -0.3742  0.4216 -0.3840
  141OSM   H15C15301   0.253   4.757   1.535 -0.1549 -1.2879  0.2624
  141OSM    C1415302   0.502   4.702   1.571  0.3970  0.3064 -0.2865
  141OSM   H14A15303   0.495   4.614   1.633 -1.9564  1.5865  1.4554
  141OSM   H14B15304   0.607   4.728   1.566  0.3135  0.5727 -0.7173
  141OSM   H14C15305   0.481   4.672   1.469 -0.0273 -2.7664  0.6197
  141OSM    C1315306   0.436   4.932   1.559 -0.1278 -0.4205 -0.5904
  141OSM   H13A15307   0.362   5.005   1.588 -1.4145 -1.6298 -0.7132
  141OSM   H13B15308   0.411   4.900   1.459 -0.0336 -1.2234 -0.3571
  141OSM   H13C15309   0.536   4.972   1.553 -0.4769  0.3086 -1.9287
  141OSM    C1215310   0.484   4.838   1.776 -0.1239 -0.5070  0.4576
  141OSM   H12A15311   0.453   4.939   1.796  0.4642 -0.2433  0.0567
  141OSM   H12B15312   0.591   4.847   1.766 -0.2352 -0.9180 -1.4036
  141OSM    C1115313   0.459   4.733   1.888 -0.5982  0.1753  0.1206
  141OSM   H11A15314   0.351   4.718   1.908 -0.6361  2.2072  1.8227
  141OSM   H11B15315   0.502   4.771   1.983  0.0368  1.9197 -0.8107
  141OSM      P15316   0.653   4.557   1.876  0.1101  0.0105 -0.3937
  141OSM    O1315317   0.664   4.422   1.823  0.1539  0.1317 -0.7246
  141OSM    O1415318   0.730   4.664   1.812 -0.6907  0.3062 -0.0202
  141OSM    O1115319   0.687   4.561   2.035  0.3197 -0.2289  0.0509
  141OSM    O1215320   0.500   4.599   1.863 -0.4631  0.0052  0.7647
  141OSM    C1S15321   0.613   4.480   2.129  0.3311 -0.1932  0.1372
  141OSM    H1S15322   0.634   4.371   2.120 -2.1823 -0.8495  1.2919
  141OSM    H1T15323   0.504   4.482   2.107  0.5632 -0.6751 -1.0964
  141OSM     NF15324   0.590   4.415   2.374  0.4291 -0.2477 -0.2536
  141OSM    HNF15325   0.501   4.431   2.417  0.7929  1.6560 -0.1610
  141OSM    C2S15326   0.631   4.520   2.276 -0.2349 -0.2735  0.1290
  141OSM    H2S15327   0.736   4.542   2.307 -0.3878  1.9749 -0.7097
  141OSM    C3S15328   0.567   4.662   2.296 -0.2100  0.4572 -0.3644
  141OSM    H3S15329   0.460   4.648   2.269  0.0607 -2.4655 -0.2180
  141OSM     O315330   0.625   4.753   2.211 -0.5568  0.1640  0.2694
  141OSM    HO315331   0.668   4.693   2.150  0.7167 -0.5072  1.7568
  141OSM    C4S15332   0.573   4.705   2.444 -0.5637 -0.3531 -0.2014
  141OSM    H4S15333   0.524   4.631   2.508  0.4096  0.0719  1.0882
  141OSM    C5S15334   0.633   4.813   2.498  0.3798  0.4101  0.1494
  141OSM    H5S15335   0.684   4.886   2.433  0.1465 -2.3270 -3.3782
  141OSM    C6S15336   0.630   4.836   2.647 -0.2079 -0.1324  0.3357
  141OSM    H6S15337   0.595   4.941   2.654  0.8300  0.3572 -1.2222
  141OSM    H6T15338   0.734   4.842   2.686  0.4259 -1.2785 -1.0492
  141OSM    C7S15339   0.547   4.740   2.736  0.1235  0.2883  0.0128
  141OSM    H7S15340   0.579   4.634   2.741  0.0851  0.3334  3.5395
  141OSM    H7T15341   0.441   4.745   2.704  0.2064 -0.7412 -0.4582
  141OSM    C8S15342   0.548   4.795   2.880  0.4080  0.0570 -0.4146
  141OSM    H8S15343   0.540   4.906   2.890 -0.0956 -0.0627  0.6124
  141OSM    H8T15344   0.647   4.775   2.926  0.9077 -0.3739 -1.6543
  141OSM    C9S15345   0.446   4.722   2.969  0.2212 -0.0372  0.1595
  141OSM    H9S15346   0.443   4.613   2.950  0.6518  0.0664 -0.5410
  141OSM    H9T15347   0.353   4.768   2.929 -0.4579 -1.8665 -0.4594
  141OSM   C10S15348   0.448   4.746   3.119  0.3234 -0.1038  0.2984
  141OSM   H10S15349   0.475   4.852   3.140  0.3304  0.2117 -1.2143
  141OSM   H10T15350   0.531   4.680   3.153 -0.2097 -0.8070  0.2478
  141OSM   C11S15351   0.326   4.685   3.195 -0.4744  0.1365  0.0301
  141OSM   H11S15352   0.295   4.586   3.153 -1.5858  0.4443  0.0857
  141OSM   H11T15353   0.224   4.729   3.183 -1.8685 -1.9895  2.7651
  141OSM   C12S15354   0.371   4.660   3.344  0.7397 -0.2394 -0.2664
  141OSM   H12S15355   0.418   4.748   3.393  0.1772 -0.0012 -0.1491
  141OSM   H12T15356   0.458   4.591   3.335  1.1369  0.2938 -0.5386
  141OSM   C13S15357   0.245   4.616   3.422 -0.8604 -0.2472  0.5557
  141OSM   H13S15358   0.204   4.524   3.374  0.0776 -1.1993  1.5350
  141OSM   H13T15359   0.171   4.692   3.390  0.9530  0.9119 -1.0856
  141OSM   C14S15360   0.261   4.620   3.568  0.1978  0.6743  0.4324
  141OSM   H14S15361   0.299   4.724   3.575 -0.1108  0.8613 -0.5156
  141OSM   H14T15362   0.345   4.562   3.612 -0.4468 -0.4990  0.1490
  141OSM   C15S15363   0.129   4.619   3.647  0.8564  0.2316  0.2947
  141OSM   H15S15364   0.087   4.516   3.640  0.6882  0.2137  1.3782
  141OSM   H15T15365   0.051   4.681   3.597  0.9518 -0.0614 -0.2249
  141OSM   C16S15366   0.137   4.663   3.794  0.3262 -0.4924  1.0127
  141OSM   H16S15367   0.230   4.623   3.840  0.3716 -0.4918  0.9197
  141OSM   H16T15368   0.045   4.637   3.851  0.8540  1.3288  2.7997
  141OSM   C17S15369   0.157   4.812   3.804 -0.2204 -0.0101  0.5747
  141OSM   H17S15370   0.225   4.858   3.729  0.3790 -0.4734  0.8261
  141OSM   H17T15371   0.217   4.832   3.896  1.4193  0.3018 -0.5144
  141OSM   C18S15372   0.032   4.898   3.807 -1.2421  0.5200  0.7855
  141OSM   H18S15373  -0.037   4.883   3.721  0.5581  1.1526 -0.8274
  141OSM   H18T15374   0.063   5.003   3.796  1.5088 -0.5130 -3.7928
  141OSM   H18U15375  -0.024   4.872   3.900 -1.5620 -1.5731  0.0742
  141OSM    C1F15376   0.653   4.300   2.394 -0.1075 -0.2850 -0.0889
  141OSM     OF15377   0.744   4.268   2.323  0.1723 -0.9089  0.3818
  141OSM    C2F15378   0.604   4.220   2.514 -0.1046 -0.2423 -0.3295
  141OSM    H2F15379   0.648   4.118   2.515 -1.5700 -0.9213  1.1518
  141OSM    H2G15380   0.493   4.212   2.506 -0.2299  1.1125 -0.1490
  141OSM    C3F15381   0.645   4.283   2.640  0.0163 -0.5110 -0.3559
  141OSM    H3F15382   0.650   4.394   2.632 -1.9045 -0.4462 -1.1396
  141OSM    H3G15383   0.749   4.252   2.662  1.0265  1.9669 -1.2177
  141OSM    C4F15384   0.552   4.238   2.764 -0.0873 -0.3869  0.3740
  141OSM    H4F15385   0.586   4.134   2.784 -1.0066 -0.6758  0.4697
  141OSM    H4G15386   0.442   4.239   2.746  0.1422  0.1181 -1.1937
  141OSM    C5F15387   0.589   4.313   2.894  0.6825  0.2346 -0.1921
  141OSM    H5F15388   0.544   4.414   2.877 -4.2473 -2.0573 -2.8878
  141OSM    H5G15389   0.698   4.329   2.911  0.9715 -2.2357  0.6552
  141OSM    C6F15390   0.537   4.249   3.027  0.1382 -0.2954 -0.4946
  141OSM    H6F15391   0.582   4.147   3.037 -0.1389 -0.4517 -0.8364
  141OSM    H6G15392   0.427   4.243   3.015 -0.2735  1.1388  1.8316
  141OSM    C7F15393   0.573   4.331   3.156  0.6715  0.0309  0.9370
  141OSM    H7F15394   0.500   4.413   3.168  1.1337  0.6837 -0.4867
  141OSM    H7G15395   0.669   4.376   3.123  0.5143  0.7895  1.4847
  141OSM    C8F15396   0.572   4.246   3.284 -0.6412 -0.6734 -0.2259
  141OSM    H8F15397   0.631   4.309   3.354 -0.5538  0.9965 -1.7328
  141OSM    H8G15398   0.619   4.146   3.271 -0.3693 -0.7926  1.4527
  141OSM    C9F15399   0.435   4.231   3.355  0.0569 -0.5983 -0.0949
  141OSM    H9F15400   0.354   4.206   3.285 -1.7561 -0.0256  1.6839
  141OSM   C10F15401   0.411   4.250   3.483  0.2964 -0.0972 -0.7555
  141OSM   H10F15402   0.310   4.229   3.521  0.4430 -0.8842 -0.7657
  141OSM   C11F15403   0.504   4.294   3.588  0.0321 -0.3821 -0.5885
  141OSM   H11F15404   0.501   4.404   3.573  0.0657 -0.1502  0.9166
  141OSM   H11G15405   0.601   4.243   3.573  0.4666  1.0406 -3.3436
  141OSM   C12F15406   0.459   4.276   3.737 -0.5966  0.1445  0.2866
  141OSM   H12F15407   0.468   4.168   3.761 -0.6067 -0.2069 -1.1956
  141OSM   H12G15408   0.355   4.316   3.739 -0.2916  1.0340 -0.5996
  141OSM   C13F15409   0.547   4.348   3.839  0.3231  0.4920 -0.2139
  141OSM   H13F15410   0.559   4.454   3.808 -1.3418  0.3882 -1.3333
  141OSM   H13G15411   0.647   4.300   3.836 -0.8190 -2.0109 -2.7906
  141OSM   C14F15412   0.478   4.344   3.973  0.3148  0.2787  0.1550
  141OSM   H14F15413   0.557   4.383   4.041  0.1102 -1.6714  1.6083
  141OSM   H14G15414   0.472   4.235   3.994  3.9389 -0.4919 -1.8611
  141OSM   C15F15415   0.341   4.420   3.991  0.1728 -0.6013 -0.3181
  141OSM   H15F15416   0.262   4.378   3.925 -1.3225  1.8153 -0.2119
  141OSM   H15G15417   0.354   4.523   3.950  0.0025 -0.5397 -0.2189
  141OSM   C16F15418   0.294   4.419   4.135  1.5285 -0.0302 -0.2544
  141OSM   H16F15419   0.207   4.485   4.156  2.0827  1.4538 -2.2861
  141OSM   H16G15420   0.376   4.457   4.200  1.7517  0.5541 -0.8593
  141OSM   C17F15421   0.264   4.268   4.191  0.0939 -0.2813 -0.3996
  141OSM   H17F15422   0.349   4.202   4.164 -0.9859 -0.9696 -2.2763
  141OSM   H17G15423   0.174   4.240   4.132 -0.1792  1.5633 -0.9459
  141OSM   C18F15424   0.238   4.256   4.346  0.6696  0.3947  0.2607
  141OSM   H18F15425   0.141   4.306   4.366  0.8415  1.2180 -0.8699
  141OSM   H18G15426   0.316   4.309   4.405 -0.3064 -1.5397  3.5555
  141OSM   H18H15427   0.228   4.150   4.377 -1.8030  0.7927  1.0452
  142OSM      N15428   1.939   5.603   2.168 -0.6578  0.0661 -0.0980
  142OSM    C1515429   1.792   5.616   2.175 -0.1241 -1.1014  0.6913
  142OSM   H15A15430   1.751   5.689   2.107 -0.0027  0.2008  1.9508
  142OSM   H15B15431   1.769   5.657   2.273 -2.5771  0.9588 -0.6368
  142OSM   H15C15432   1.739   5.522   2.170  0.8373 -1.5848 -0.9254
  142OSM    C1415433   1.960   5.492   2.070 -1.1493 -0.0978  0.0311
  142OSM   H14A15434   1.896   5.409   2.097 -1.3625 -1.1267 -3.2188
  142OSM   H14B15435   2.066   5.474   2.061 -1.3014 -0.0933 -2.1920
  142OSM   H14C15436   1.936   5.525   1.970 -0.3128  3.3358  0.8259
  142OSM    C1315437   2.003   5.733   2.132 -0.3754  0.1843 -0.3731
  142OSM   H13A15438   2.002   5.799   2.217  2.3009 -0.1703  0.0350
  142OSM   H13B15439   1.963   5.781   2.044  1.8071  0.9129 -1.0300
  142OSM   H13C15440   2.106   5.716   2.102 -0.4645 -1.1233  0.0246
  142OSM    C1215441   1.976   5.558   2.317  0.4051 -0.2267  0.2396
  142OSM   H12A15442   2.083   5.545   2.309  0.2515 -0.4535 -2.5856
  142OSM   H12B15443   1.941   5.457   2.331  0.8944 -0.8814 -2.5838
  142OSM    C1115444   1.933   5.643   2.438 -0.3791  0.6204  0.1891
  142OSM   H11A15445   1.983   5.594   2.525  0.7718  0.3772 -0.5835
  142OSM   H11B15446   1.823   5.641   2.450 -0.6978  0.6950 -2.2556
  142OSM      P15447   1.883   5.902   2.446 -0.0397  0.0514 -0.5743
  142OSM    O1315448   1.949   6.013   2.372 -0.4000 -0.4278  0.3120
  142OSM    O1415449   1.739   5.876   2.417 -0.9564  0.1402  0.1168
  142OSM    O1115450   1.890   5.935   2.604  0.4815  0.0510  0.3019
  142OSM    O1215451   1.979   5.771   2.426  0.3960 -0.0644 -0.0750
  142OSM    C1S15452   1.971   5.868   2.692  0.1879  0.3056 -0.0114
  142OSM    H1S15453   2.076   5.901   2.676  0.5561 -0.8967 -0.1868
  142OSM    H1T15454   1.967   5.757   2.690 -0.6331  0.3017  0.9886
  142OSM     NF15455   2.037   5.855   2.926 -0.0957  0.4702  0.9212
  142OSM    HNF15456   2.029   5.769   2.977  2.4222  0.8518  2.1151
  142OSM    C2S15457   1.929   5.895   2.836 -0.0336 -0.0764  0.1199
  142OSM    H2S15458   1.930   6.005   2.827 -0.1514 -0.0640  0.2607
  142OSM    C3S15459   1.793   5.836   2.877 -0.5608 -0.3219 -0.2396
  142OSM    H3S15460   1.811   5.726   2.870  0.2539 -0.1281 -1.5402
  142OSM     O315461   1.683   5.861   2.789 -0.6866  0.0293 -0.0100
  142OSM    HO315462   1.722   5.926   2.728  0.0643  0.0633  0.4922
  142OSM    C4S15463   1.759   5.886   3.010  0.4264  1.0305 -0.2689
  142OSM    H4S15464   1.752   5.994   3.026 -0.3397  1.2379 -1.8847
  142OSM    C5S15465   1.744   5.810   3.109 -0.1271  0.1859  0.2395
  142OSM    H5S15466   1.742   5.702   3.087 -2.9387  0.2411 -0.0627
  142OSM    C6S15467   1.723   5.843   3.250 -0.2954  0.3936 -0.2236
  142OSM    H6S15468   1.747   5.950   3.272  0.6470  0.0833  0.2743
  142OSM    H6T15469   1.774   5.782   3.327 -1.5587  0.8747  1.0479
  142OSM    C7S15470   1.570   5.831   3.290  0.4310 -0.5697  0.2678
  142OSM    H7S15471   1.525   5.731   3.274  1.3065 -0.9380  0.0323
  142OSM    H7T15472   1.524   5.912   3.228  2.3691 -0.0673 -0.5981
  142OSM    C8S15473   1.553   5.860   3.438  0.4229 -0.3339  0.8189
  142OSM    H8S15474   1.449   5.896   3.457  0.6048  0.9786 -0.5562
  142OSM    H8T15475   1.620   5.944   3.463 -1.5694  1.7669 -0.5468
  142OSM    C9S15476   1.573   5.743   3.528 -0.1406  0.4361  0.1498
  142OSM    H9S15477   1.671   5.701   3.499 -0.0733  0.4657  0.3373
  142OSM    H9T15478   1.499   5.664   3.504 -0.8917  1.5954 -1.5739
  142OSM   C10S15479   1.577   5.786   3.675 -0.4702  0.7917 -0.0558
  142OSM   H10S15480   1.484   5.844   3.690 -1.3118 -0.4769 -0.2255
  142OSM   H10T15481   1.661   5.852   3.705 -0.4124  0.2286  1.0684
  142OSM   C11S15482   1.569   5.663   3.770 -0.1368 -0.4410 -0.8094
  142OSM   H11S15483   1.643   5.586   3.740  3.1040  1.9206  0.5463
  142OSM   H11T15484   1.465   5.628   3.753  0.1176 -1.6377 -0.0321
  142OSM   C12S15485   1.585   5.703   3.916  0.4558  0.5818  0.5462
  142OSM   H12S15486   1.509   5.780   3.940 -0.0988  0.5182 -0.8895
  142OSM   H12T15487   1.683   5.751   3.937  0.3771  0.9399  0.1138
  142OSM   C13S15488   1.545   5.592   4.012 -0.0865  0.5389 -0.1690
  142OSM   H13S15489   1.618   5.509   4.006 -0.7331 -0.0378 -0.0804
  142OSM   H13T15490   1.451   5.548   3.972  0.4779  0.9754 -2.1192
  142OSM   C14S15491   1.530   5.648   4.155 -0.1916 -0.6949  0.4279
  142OSM   H14S15492   1.451   5.723   4.176  1.7814  1.1204  1.8444
  142OSM   H14T15493   1.621   5.710   4.171 -0.0865 -0.8574  0.4651
  142OSM   C15S15494   1.529   5.539   4.261 -0.1660 -0.4890 -0.3505
  142OSM   H15S15495   1.603   5.457   4.253  0.3118 -0.1262  0.1859
  142OSM   H15T15496   1.432   5.488   4.245 -2.1457  3.0540 -0.8705
  142OSM   C16S15497   1.533   5.581   4.410  0.1622  0.7153 -0.3476
  142OSM   H16S15498   1.465   5.666   4.430  0.7662  1.1287 -0.0129
  142OSM   H16T15499   1.636   5.603   4.446 -1.1145  2.2297  2.7456
  142OSM   C17S15500   1.486   5.464   4.498  0.3718 -0.0881  0.3895
  142OSM   H17S15501   1.563   5.385   4.493 -0.0180 -0.4027 -1.4825
  142OSM   H17T15502   1.390   5.424   4.459  0.8103 -2.5904  1.6937
  142OSM   C18S15503   1.462   5.511   4.639  0.0438  0.7845 -0.1106
  142OSM   H18S15504   1.558   5.551   4.679  1.0789 -1.8548  0.2452
  142OSM   H18T15505   1.426   5.426   4.701  1.0440  0.9204  0.6876
  142OSM   H18U15506   1.384   5.590   4.647 -2.4046 -1.2584 -2.1825
  142OSM    C1F15507   2.148   5.930   2.935 -0.4634 -0.2212  0.6376
  142OSM     OF15508   2.154   6.043   2.879 -0.6077  0.1043  0.1189
  142OSM    C2F15509   2.266   5.864   3.013  0.6135  0.0724  0.9696
  142OSM    H2F15510   2.338   5.811   2.947 -0.3748 -1.1457  0.8251
  142OSM    H2G15511   2.226   5.787   3.084  1.4240  0.6996  2.1423
  142OSM    C3F15512   2.345   5.973   3.091 -0.3408  0.2922  0.6216
  142OSM    H3F15513   2.395   6.041   3.019 -0.3730 -2.2905 -2.0070
  142OSM    H3G15514   2.415   5.905   3.145  0.3503  0.4143 -0.0994
  142OSM    C4F15515   2.255   6.051   3.183 -0.3151  0.0147 -0.0813
  142OSM    H4F15516   2.192   6.119   3.123  2.9670  1.7661 -1.8157
  142OSM    H4G15517   2.327   6.122   3.229  1.9249 -3.0167  1.5448
  142OSM    C5F15518   2.194   5.985   3.311  0.1717  0.3523  0.1270
  142OSM    H5F15519   2.269   5.935   3.376  0.4964 -2.2452 -2.0458
  142OSM    H5G15520   2.135   5.895   3.283  2.6243 -1.7180  1.2611
  142OSM    C6F15521   2.116   6.078   3.404 -0.3863  0.3987 -0.0398
  142OSM    H6F15522   2.174   6.167   3.436  0.7248  0.8321 -2.8878
  142OSM    H6G15523   2.080   6.018   3.490  0.5708  1.1185  0.8806
  142OSM    C7F15524   1.987   6.129   3.338 -0.5025  0.4212  0.9377
  142OSM    H7F15525   1.943   6.041   3.286 -2.5590  1.1812  1.3068
  142OSM    H7G15526   2.020   6.195   3.255 -1.5849 -1.3708 -1.0103
  142OSM    C8F15527   1.895   6.200   3.437  0.0246  0.3606 -0.2725
  142OSM    H8F15528   1.803   6.237   3.387  1.1232  0.4671 -2.2929
  142OSM    H8G15529   1.946   6.288   3.482 -1.2726  0.4574  1.0869
  142OSM    C9F15530   1.847   6.116   3.551 -0.6552  0.1061 -0.2629
  142OSM    H9F15531   1.802   6.019   3.525 -0.0553 -0.1425 -0.3972
  142OSM   C10F15532   1.857   6.146   3.684 -0.5628  0.0986  0.2977
  142OSM   H10F15533   1.809   6.091   3.766  3.4169 -2.0304  1.4587
  142OSM   C11F15534   1.919   6.277   3.741 -0.4044  0.2710 -0.2028
  142OSM   H11F15535   1.908   6.356   3.664  2.4023  2.3951  1.3920
  142OSM   H11G15536   2.029   6.273   3.752 -0.3346  0.1283 -0.9045
  142OSM   C12F15537   1.844   6.337   3.863 -0.3096  0.1910  0.5680
  142OSM   H12F15538   1.736   6.347   3.841 -0.3877  0.3949  1.0294
  142OSM   H12G15539   1.883   6.442   3.864 -1.2934  0.8227 -4.2190
  142OSM   C13F15540   1.862   6.262   3.990 -0.2075  0.4733 -0.4285
  142OSM   H13F15541   1.968   6.227   3.987 -0.9466 -1.8484 -1.8610
  142OSM   H13G15542   1.789   6.178   3.990 -0.0395  0.3248 -0.4550
  142OSM   C14F15543   1.854   6.342   4.123 -0.1529 -0.5501  0.4399
  142OSM   H14F15544   1.755   6.392   4.113 -0.3827 -1.2078 -0.9185
  142OSM   H14G15545   1.929   6.423   4.114 -0.1758 -0.7751 -3.6689
  142OSM   C15F15546   1.863   6.253   4.249 -0.7961  0.1096 -0.0837
  142OSM   H15F15547   1.793   6.168   4.233  0.0537 -0.1831 -2.9007
  142OSM   H15G15548   1.831   6.323   4.330 -1.7640 -1.0795  0.5897
  142OSM   C16F15549   2.002   6.187   4.273  0.3334 -0.3374  0.1774
  142OSM   H16F15550   2.058   6.169   4.178  1.8858  0.1958  0.9598
  142OSM   H16G15551   1.964   6.097   4.324 -1.8506  0.6510  0.4044
  142OSM   C17F15552   2.088   6.278   4.365 -0.0922 -0.6746 -0.4328
  142OSM   H17F15553   2.111   6.375   4.315  0.1985 -0.5251 -0.0124
  142OSM   H17G15554   2.189   6.235   4.383 -0.0022 -0.3728 -0.1993
  142OSM   C18F15555   2.029   6.309   4.505  0.7269 -0.2890  0.0462
  142OSM   H18F15556   1.990   6.413   4.507  0.6928 -0.3069  2.0849
  142OSM   H18G15557   2.108   6.310   4.584  0.7722 -0.8473  0.0102
  142OSM   H18H15558   1.958   6.234   4.544  2.2509 -1.1748  1.2329
  143OSM      N15559   1.501   4.941   1.901  0.6607 -0.2481  0.4411
  143OSM    C1515560   1.448   5.082   1.871 -0.0557 -0.6672 -0.7841
  143OSM   H15A15561   1.431   5.145   1.957 -0.1563 -0.2320 -1.1200
  143OSM   H15B15562   1.348   5.062   1.835  0.0464  0.1852 -1.5664
  143OSM   H15C15563   1.505   5.126   1.790  2.1618 -2.3497 -0.2396
  143OSM    C1415564   1.494   4.858   1.774 -0.4688  0.3562 -0.5158
  143OSM   H14A15565   1.570   4.882   1.701 -2.2745 -1.8597 -3.3547
  143OSM   H14B15566   1.397   4.866   1.729 -0.3357  0.1100 -0.8500
  143OSM   H14C15567   1.518   4.757   1.806 -1.3758  0.0650 -0.7245
  143OSM    C1315568   1.640   4.938   1.957 -0.5239 -0.4009  0.2146
  143OSM   H13A15569   1.697   4.984   1.877 -0.6051  0.4264  0.6183
  143OSM   H13B15570   1.673   4.842   1.994 -0.5319 -0.3582  0.3331
  143OSM   H13C15571   1.645   5.016   2.032 -0.0033  1.4574 -1.6584
  143OSM    C1215572   1.400   4.882   2.009 -0.2622 -0.6133 -0.1568
  143OSM   H12A15573   1.402   4.950   2.092  0.8374  2.0575 -2.2111
  143OSM   H12B15574   1.435   4.791   2.055  1.5521 -0.9922 -2.0782
  143OSM    C1115575   1.249   4.846   1.975 -0.6344  0.0168  0.7642
  143OSM   H11A15576   1.192   4.824   2.068 -2.3583 -0.3928 -0.3497
  143OSM   H11B15577   1.240   4.750   1.919 -2.0864 -1.1352  2.8439
  143OSM      P15578   1.089   5.061   1.975 -0.1130 -0.0115  0.2677
  143OSM    O1315579   1.080   5.170   1.877  0.7165  0.4907  0.9118
  143OSM    O1415580   0.956   4.999   2.012  0.3434  0.4316 -0.3132
  143OSM    O1115581   1.177   5.121   2.090  0.4311 -0.1466  0.1887
  143OSM    O1215582   1.187   4.954   1.908 -0.1292 -0.5848  0.3224
  143OSM    C1S15583   1.123   5.204   2.197  0.8870 -0.1997  0.0898
  143OSM    H1S15584   1.013   5.189   2.207  0.8911 -0.3857 -0.1429
  143OSM    H1T15585   1.145   5.312   2.181 -0.0785 -0.0292 -0.1730
  143OSM     NF15586   1.084   5.220   2.442 -0.3513 -0.3200  0.0168
  143OSM    HNF15587   1.117   5.306   2.479 -3.5361 -0.1135  2.8851
  143OSM    C2S15588   1.169   5.156   2.341  0.7068 -0.5908  0.0724
  143OSM    H2S15589   1.149   5.047   2.335  0.0138 -0.4563 -0.1866
  143OSM    C3S15590   1.320   5.166   2.358 -1.0056 -0.5432 -0.6044
  143OSM    H3S15591   1.348   5.272   2.379  1.6602 -1.3689  0.4125
  143OSM     O315592   1.400   5.126   2.241 -0.3071 -0.2201  0.2300
  143OSM    HO315593   1.323   5.116   2.184 -0.1700  0.5088 -0.0931
  143OSM    C4S15594   1.370   5.101   2.486  0.3183  0.1955 -0.0780
  143OSM    H4S15595   1.414   5.176   2.555 -0.6886  0.7944 -0.0688
  143OSM    C5S15596   1.384   4.973   2.512 -0.2164 -0.6610  0.2935
  143OSM    H5S15597   1.348   4.911   2.428 -2.5262  0.4571  0.3841
  143OSM    C6S15598   1.461   4.910   2.624 -0.5185 -0.3838 -0.0676
  143OSM    H6S15599   1.564   4.951   2.633 -1.0496  0.8992  0.4761
  143OSM    H6T15600   1.471   4.800   2.614 -1.2284 -0.3616 -1.1145
  143OSM    C7S15601   1.399   4.937   2.760  0.0241 -0.3720  0.2316
  143OSM    H7S15602   1.289   4.950   2.765  0.0708  0.3657 -0.4768
  143OSM    H7T15603   1.432   5.038   2.790  0.9047 -0.4976 -0.2957
  143OSM    C8S15604   1.442   4.845   2.875  0.4980 -0.5929  0.2315
  143OSM    H8S15605   1.553   4.843   2.870  0.5051 -0.9382  0.5030
  143OSM    H8T15606   1.413   4.740   2.855 -1.4613  0.0594 -0.5184
  143OSM    C9S15607   1.401   4.909   3.005  0.0382  0.1517  0.0923
  143OSM    H9S15608   1.295   4.937   2.992 -0.5768 -1.8339  0.4894
  143OSM    H9T15609   1.464   4.999   3.022 -0.0849 -0.1516  2.5557
  143OSM   C10S15610   1.420   4.825   3.123 -0.6359  0.4244 -0.2406
  143OSM   H10S15611   1.520   4.777   3.110  0.0825  1.8794 -0.3367
  143OSM   H10T15612   1.344   4.745   3.117  0.1135 -0.2078 -2.1558
  143OSM   C11S15613   1.407   4.906   3.256 -0.3063  0.1685  0.4060
  143OSM   H11S15614   1.303   4.945   3.257 -1.1498 -1.9500 -0.0113
  143OSM   H11T15615   1.474   4.995   3.258  0.0230 -0.0748  0.0961
  143OSM   C12S15616   1.419   4.822   3.375  0.6866 -0.3529  0.2341
  143OSM   H12S15617   1.526   4.800   3.397 -0.0086 -2.7697  1.5246
  143OSM   H12T15618   1.372   4.724   3.351 -3.6141  1.8627 -1.4631
  143OSM   C13S15619   1.358   4.886   3.505  0.2744 -0.0902 -0.2325
  143OSM   H13S15620   1.249   4.896   3.487 -0.1386 -0.6161  1.7063
  143OSM   H13T15621   1.394   4.988   3.528  1.6667 -0.6359  0.1315
  143OSM   C14S15622   1.381   4.791   3.628  0.5589  0.4503 -0.6799
  143OSM   H14S15623   1.491   4.788   3.645  0.6497  0.8581 -1.1566
  143OSM   H14T15624   1.349   4.694   3.587  2.4980  0.0046 -1.2477
  143OSM   C15S15625   1.303   4.820   3.758 -0.5252 -0.7695  0.1649
  143OSM   H15S15626   1.200   4.784   3.736 -1.4219  1.9270 -0.4305
  143OSM   H15T15627   1.285   4.928   3.776 -0.8654 -0.8012  0.0259
  143OSM   C16S15628   1.356   4.735   3.875 -0.5329  0.2058 -0.0022
  143OSM   H16S15629   1.456   4.776   3.900 -0.8572  0.6086  0.6660
  143OSM   H16T15630   1.375   4.633   3.835  3.0554  0.7017  0.0956
  143OSM   C17S15631   1.264   4.750   4.000 -0.3721 -0.1877 -0.1575
  143OSM   H17S15632   1.311   4.693   4.083  0.0176  2.2173  1.3844
  143OSM   H17T15633   1.167   4.708   3.966 -1.8274  1.0544  2.2103
  143OSM   C18S15634   1.242   4.897   4.046 -0.8133 -0.9774  0.6791
  143OSM   H18S15635   1.239   4.912   4.156 -1.8369 -0.3003  0.5708
  143OSM   H18T15636   1.146   4.940   4.012  0.6506  0.1878 -2.3408
  143OSM   H18U15637   1.301   4.965   3.981 -2.1056  0.8557  1.3552
  143OSM    C1F15638   0.959   5.181   2.458 -0.4191  1.5298  0.6035
  143OSM     OF15639   0.918   5.073   2.408  0.6524 -0.3544 -0.5287
  143OSM    C2F15640   0.875   5.262   2.548  0.1534 -0.1558  0.5384
  143OSM    H2F15641   0.837   5.354   2.498  0.6717  0.3692  1.0989
  143OSM    H2G15642   0.942   5.288   2.632  3.1240 -1.3622 -1.2865
  143OSM    C3F15643   0.762   5.189   2.609  0.1586  0.4073  0.5372
  143OSM    H3F15644   0.795   5.087   2.639  1.0362  0.6002  0.2617
  143OSM    H3G15645   0.688   5.170   2.529  2.3623  0.0077 -1.5160
  143OSM    C4F15646   0.687   5.261   2.725  0.2777 -0.5350 -0.5558
  143OSM    H4F15647   0.605   5.192   2.753  0.3132 -0.4506 -0.2410
  143OSM    H4G15648   0.634   5.356   2.701 -2.5721 -1.6071  0.9894
  143OSM    C5F15649   0.779   5.275   2.850 -0.3248  0.3453 -0.8010
  143OSM    H5F15650   0.844   5.365   2.842  0.4686 -0.1123  0.3298
  143OSM    H5G15651   0.844   5.186   2.864 -1.4693 -0.2621  0.9697
  143OSM    C6F15652   0.698   5.267   2.977 -0.0754  0.4256  0.4683
  143OSM    H6F15653   0.617   5.191   2.971  2.2718 -2.1216 -2.4098
  143OSM    H6G15654   0.655   5.369   2.980  1.9998  1.3654  0.5103
  143OSM    C7F15655   0.789   5.229   3.095  0.1670 -0.0395 -0.1360
  143OSM    H7F15656   0.851   5.320   3.109  0.6269  0.0902 -2.5843
  143OSM    H7G15657   0.865   5.156   3.061  0.4592  1.0552 -1.9963
  143OSM    C8F15658   0.722   5.191   3.227  0.2567 -0.5976  0.3478
  143OSM    H8F15659   0.645   5.269   3.246  3.1270  2.4338  0.3906
  143OSM    H8G15660   0.792   5.207   3.311  0.9833 -0.3378 -0.3018
  143OSM    C9F15661   0.670   5.052   3.243 -0.2833 -0.4575 -0.6227
  143OSM    H9F15662   0.674   4.975   3.165 -2.5136 -0.7899 -0.4768
  143OSM   C10F15663   0.605   5.012   3.357 -0.0351 -0.3795  0.4160
  143OSM   H10F15664   0.583   4.905   3.371  0.5783 -0.5705 -0.0625
  143OSM   C11F15665   0.554   5.097   3.478  0.2887  0.6235 -0.0495
  143OSM   H11F15666   0.444   5.087   3.483  0.2484  1.6153  3.6140
  143OSM   H11G15667   0.576   5.205   3.463 -0.2583  0.4152 -3.0540
  143OSM   C12F15668   0.615   5.054   3.614  0.8268 -0.7685 -0.1182
  143OSM   H12F15669   0.726   5.060   3.606  1.1444 -0.3195  3.2095
  143OSM   H12G15670   0.595   4.951   3.653 -0.0756 -0.3507  0.5503
  143OSM   C13F15671   0.581   5.155   3.727 -0.2600  0.4899  0.6369
  143OSM   H13F15672   0.593   5.262   3.700  2.3345  0.2346  0.4910
  143OSM   H13G15673   0.665   5.150   3.800  0.2845  1.7476  0.1222
  143OSM   C14F15674   0.439   5.129   3.781 -0.5513 -0.2817 -0.3958
  143OSM   H14F15675   0.428   5.027   3.823  2.3080  0.0929  1.5610
  143OSM   H14G15676   0.377   5.147   3.691  1.8179  0.3373 -1.9889
  143OSM   C15F15677   0.398   5.230   3.885 -0.2736  0.2230 -0.1692
  143OSM   H15F15678   0.395   5.333   3.845 -0.6380  0.1475 -0.3394
  143OSM   H15G15679   0.477   5.228   3.963 -1.5472  1.9749  1.2463
  143OSM   C16F15680   0.254   5.200   3.939 -0.2336  0.2838 -0.6554
  143OSM   H16F15681   0.226   5.093   3.955  0.2035 -0.0609 -2.0404
  143OSM   H16G15682   0.182   5.231   3.860 -2.6908 -2.0552  0.4922
  143OSM   C17F15683   0.216   5.272   4.075 -0.3286  0.5319  0.9352
  143OSM   H17F15684   0.204   5.379   4.048  0.4949 -0.1407 -2.4635
  143OSM   H17G15685   0.296   5.250   4.149  1.6447 -0.7763 -1.4285
  143OSM   C18F15686   0.090   5.213   4.127 -0.3615 -0.1293 -0.7767
  143OSM   H18F15687   0.048   5.286   4.199  0.3372 -0.7667  0.2910
  143OSM   H18G15688   0.115   5.118   4.178 -2.4112  0.0753  0.7291
  143OSM   H18H15689   0.018   5.194   4.045 -1.7014  1.1796  0.0474
  144OSM      N15690   1.260   5.911   1.775  0.9169 -0.0128 -0.1920
  144OSM    C1515691   1.148   6.010   1.752 -0.1851 -0.2402 -0.4013
  144OSM   H15A15692   1.048   5.970   1.740 -0.9087  2.0131 -2.9331
  144OSM   H15B15693   1.176   6.086   1.681  1.0210  0.7268  1.0496
  144OSM   H15C15694   1.135   6.060   1.847  0.2245 -1.1263  0.1361
  144OSM    C1415695   1.260   5.805   1.657  0.0651  0.0913 -0.6416
  144OSM   H14A15696   1.275   5.859   1.564  0.7108  0.4378 -0.3387
  144OSM   H14B15697   1.171   5.743   1.659  0.7062 -0.8074  1.1521
  144OSM   H14C15698   1.337   5.731   1.670  0.8634  1.0971  0.6394
  144OSM    C1315699   1.392   5.979   1.770 -0.9106 -0.8140  0.6658
  144OSM   H13A15700   1.400   6.048   1.852 -1.9138  1.1437 -0.7923
  144OSM   H13B15701   1.400   6.032   1.676 -0.5597 -1.2504  0.4461
  144OSM   H13C15702   1.480   5.916   1.774  0.1956  0.7596  2.4131
  144OSM    C1215703   1.239   5.840   1.907  0.3489  0.3660 -0.9140
  144OSM   H12A15704   1.311   5.761   1.917 -0.8498 -0.7241 -0.5888
  144OSM   H12B15705   1.142   5.792   1.909  0.2484  0.2249  4.1381
  144OSM    C1115706   1.261   5.925   2.038 -0.1343 -0.4372  0.5568
  144OSM   H11A15707   1.358   5.979   2.043  1.4918 -2.7484 -2.6375
  144OSM   H11B15708   1.270   5.858   2.126 -0.3004 -0.5117  0.5180
  144OSM      P15709   1.012   5.977   2.124 -0.2263 -0.3421  0.3244
  144OSM    O1315710   0.914   6.086   2.092  0.8167  0.4017 -0.0850
  144OSM    O1415711   0.980   5.838   2.081  0.2265  0.0464 -0.2034
  144OSM    O1115712   1.057   5.984   2.278  0.3599  0.1979  0.0167
  144OSM    O1215713   1.151   6.019   2.051 -0.0067 -0.3566 -0.4110
  144OSM    C1S15714   1.119   6.109   2.321 -0.1801 -0.0161 -0.7563
  144OSM    H1S15715   1.081   6.203   2.278  1.4162  1.8793  1.6733
  144OSM    H1T15716   1.227   6.105   2.296 -0.0008 -2.3402  0.1127
  144OSM     NF15717   1.174   6.257   2.505  0.0582  0.6706  0.0286
  144OSM    HNF15718   1.252   6.257   2.567 -1.4843 -0.5233  2.1320
  144OSM    C2S15719   1.119   6.128   2.479  1.3629  0.2197 -0.0626
  144OSM    H2S15720   1.014   6.125   2.516  2.0983 -3.2627  2.3172
  144OSM    C3S15721   1.182   5.995   2.541  0.0809 -0.2712 -0.1740
  144OSM    H3S15722   1.284   5.989   2.496  0.0957 -1.8582  0.0201
  144OSM     O315723   1.126   5.874   2.503  0.4546 -0.2876 -0.3330
  144OSM    HO315724   1.075   5.888   2.423 -0.7238 -0.6426  0.3379
  144OSM    C4S15725   1.182   6.000   2.694  0.7167  0.1281  0.3521
  144OSM    H4S15726   1.079   6.014   2.731 -0.5031 -2.5894 -1.6838
  144OSM    C5S15727   1.296   5.987   2.766  0.2126  0.0166 -0.0428
  144OSM    H5S15728   1.382   5.951   2.708 -0.1080  0.3062 -0.7184
  144OSM    C6S15729   1.311   5.997   2.913  0.1534  0.6267  0.3878
  144OSM    H6S15730   1.384   6.073   2.948 -0.6997  0.2167  3.3467
  144OSM    H6T15731   1.353   5.899   2.942 -0.0615 -0.4694 -2.6475
  144OSM    C7S15732   1.174   6.028   2.994 -0.5514  0.1473 -0.2134
  144OSM    H7S15733   1.094   5.953   2.973 -0.7827  0.2130  0.4085
  144OSM    H7T15734   1.137   6.130   2.970  0.2796  0.4159 -0.3656
  144OSM    C8S15735   1.228   6.029   3.137 -0.0847 -0.2013  0.4099
  144OSM    H8S15736   1.313   6.101   3.144  1.0230 -1.1846 -1.8727
  144OSM    H8T15737   1.265   5.929   3.165 -1.1456 -0.6613  0.2250
  144OSM    C9S15738   1.133   6.084   3.244  0.3938 -0.5409  0.1178
  144OSM    H9S15739   1.060   6.156   3.201 -1.4800 -2.6597 -0.4386
  144OSM    H9T15740   1.183   6.137   3.328 -1.6009  1.6162  0.0529
  144OSM   C10S15741   1.055   5.978   3.304 -0.4182  0.4950  0.3899
  144OSM   H10S15742   1.123   5.896   3.332 -1.7040 -0.9424 -0.5339
  144OSM   H10T15743   0.978   5.940   3.233 -0.2777  1.5533 -0.3483
  144OSM   C11S15744   0.977   6.029   3.428  0.6921 -0.0281 -0.4681
  144OSM   H11S15745   0.928   6.123   3.396 -1.5884 -0.8487  0.3485
  144OSM   H11T15746   1.056   6.066   3.497  0.3280 -0.3777  0.1429
  144OSM   C12S15747   0.882   5.925   3.481 -0.5878 -0.2613 -0.0579
  144OSM   H12S15748   0.934   5.831   3.507 -2.2338 -1.0661  0.4206
  144OSM   H12T15749   0.807   5.903   3.402  0.0342 -0.1684 -0.6845
  144OSM   C13S15750   0.808   5.970   3.610 -0.3319  0.5075  0.5092
  144OSM   H13S15751   0.736   5.893   3.646 -2.2922  1.7269 -0.6609
  144OSM   H13T15752   0.752   6.061   3.579  3.2250  2.1961 -1.5749
  144OSM   C14S15753   0.903   6.004   3.734 -0.3057  0.3333 -0.4642
  144OSM   H14S15754   0.840   6.033   3.820 -1.7697 -0.1807 -1.3329
  144OSM   H14T15755   0.984   6.080   3.724  0.7486 -0.7225 -0.1465
  144OSM   C15S15756   0.989   5.875   3.771  0.0732  0.4954 -0.4875
  144OSM   H15S15757   1.074   5.851   3.704  0.9082  0.5687  0.5262
  144OSM   H15T15758   0.927   5.784   3.782  1.1775 -0.1402  0.7506
  144OSM   C16S15759   1.054   5.893   3.908  0.5167  0.0206  0.8004
  144OSM   H16S15760   0.970   5.903   3.980 -1.5390 -0.3793 -1.3700
  144OSM   H16T15761   1.108   5.990   3.904  0.6149 -0.0200  1.1587
  144OSM   C17S15762   1.129   5.774   3.948  0.4223 -0.1846 -0.0895
  144OSM   H17S15763   1.216   5.763   3.880  1.4305  3.1365  0.4813
  144OSM   H17T15764   1.070   5.681   3.935 -0.4143  0.4938 -1.4129
  144OSM   C18S15765   1.181   5.771   4.097 -0.0747 -0.7576  0.5027
  144OSM   H18S15766   1.249   5.855   4.121  3.5261 -3.0475 -0.9515
  144OSM   H18T15767   1.244   5.682   4.117  1.8043  0.9989  3.0232
  144OSM   H18U15768   1.096   5.771   4.169 -0.0580 -0.1596  0.5247
  144OSM    C1F15769   1.112   6.372   2.468  0.3754 -0.2238 -0.3510
  144OSM     OF15770   0.994   6.373   2.426 -0.0515 -0.1263  0.3915
  144OSM    C2F15771   1.196   6.496   2.493  0.0758  0.3827  0.1505
  144OSM    H2F15772   1.260   6.504   2.402 -2.1144 -2.0549 -1.7537
  144OSM    H2G15773   1.262   6.464   2.577 -1.5120 -2.2842  0.4545
  144OSM    C3F15774   1.128   6.634   2.520 -0.3455 -0.1047  0.4553
  144OSM    H3F15775   1.061   6.659   2.435 -2.3481  0.5371  2.1155
  144OSM    H3G15776   1.200   6.719   2.520  1.9497 -1.9300 -1.1304
  144OSM    C4F15777   1.064   6.641   2.656  0.0871 -0.1243  0.0942
  144OSM    H4F15778   1.134   6.614   2.737  1.1833  0.1505 -0.7331
  144OSM    H4G15779   0.994   6.556   2.663  1.1178 -1.1142 -1.0293
  144OSM    C5F15780   1.007   6.779   2.700 -0.0301  1.0961 -0.2465
  144OSM    H5F15781   0.930   6.818   2.630 -0.8861  3.0248  1.6455
  144OSM    H5G15782   1.091   6.852   2.693  1.4719  0.0291  3.5281
  144OSM    C6F15783   0.951   6.789   2.841 -0.3892 -0.5682  0.5507
  144OSM    H6F15784   1.026   6.753   2.915  1.8517 -0.9134 -1.7705
  144OSM    H6G15785   0.864   6.720   2.848 -1.0034  0.1305 -0.0637
  144OSM    C7F15786   0.906   6.933   2.875 -0.6082 -0.1114 -0.1078
  144OSM    H7F15787   0.844   6.965   2.789 -1.9783 -0.2312  0.8111
  144OSM    H7G15788   0.996   6.998   2.868 -1.3067  0.8411 -0.3478
  144OSM    C8F15789   0.829   6.942   3.013  0.4391  0.3030  0.8786
  144OSM    H8F15790   0.906   6.912   3.087  1.9211  2.5337  0.3555
  144OSM    H8G15791   0.749   6.867   2.997 -0.2193  1.2164 -0.3412
  144OSM    C9F15792   0.783   7.081   3.048 -0.0100 -0.0564 -0.0018
  144OSM    H9F15793   0.779   7.148   2.960 -0.2641 -1.1245 -0.8231
  144OSM   C10F15794   0.736   7.124   3.167 -0.1230  0.0597  0.2528
  144OSM   H10F15795   0.704   7.229   3.173 -0.2975  0.2722 -2.8793
  144OSM   C11F15796   0.717   7.032   3.293  0.7521  0.4703 -0.2277
  144OSM   H11F15797   0.721   6.924   3.266 -2.0758 -0.3904  2.2096
  144OSM   H11G15798   0.611   7.048   3.324  0.3164 -0.1898 -1.3234
  144OSM   C12F15799   0.807   7.061   3.420 -0.3324  1.0035 -0.3463
  144OSM   H12F15800   0.807   7.168   3.447 -0.8432  0.5379  1.6124
  144OSM   H12G15801   0.912   7.035   3.393 -0.2622  0.4240  0.4573
  144OSM   C13F15802   0.774   6.971   3.544 -0.7479  0.9187  0.8317
  144OSM   H13F15803   0.745   6.867   3.518  0.0527  0.3627  2.0616
  144OSM   H13G15804   0.678   6.999   3.592  0.3949  1.1304  3.1191
  144OSM   C14F15805   0.890   6.965   3.642 -0.2968  0.1413 -0.8881
  144OSM   H14F15806   0.922   7.068   3.668  0.4573 -0.9433  3.0142
  144OSM   H14G15807   0.982   6.928   3.592 -0.2897 -2.1028  0.6457
  144OSM   C15F15808   0.863   6.877   3.767  0.8636  0.2987  0.6107
  144OSM   H15F15809   0.953   6.856   3.829 -0.0376 -3.3225  0.9008
  144OSM   H15G15810   0.831   6.780   3.722 -2.0850  1.6337 -0.4456
  144OSM   C16F15811   0.747   6.927   3.864 -0.8219 -0.5588  0.2986
  144OSM   H16F15812   0.650   6.908   3.813 -0.4932 -0.8460 -0.2249
  144OSM   H16G15813   0.766   7.032   3.895  0.1705 -1.1721  1.9244
  144OSM   C17F15814   0.744   6.858   4.001  0.1588  0.4112 -0.1309
  144OSM   H17F15815   0.835   6.876   4.062 -2.0224  2.5729  2.7594
  144OSM   H17G15816   0.736   6.750   3.976 -1.8004  0.1602  1.3735
  144OSM   C18F15817   0.626   6.909   4.092  0.6785  0.0747  0.2803
  144OSM   H18F15818   0.631   6.865   4.194  0.5178 -1.6180 -0.4211
  144OSM   H18G15819   0.525   6.896   4.049 -0.0478  1.1047  1.6015
  144OSM   H18H15820   0.636   7.019   4.106  3.3299 -0.0754  0.0560
  145SAPE     N15821   0.364   0.947   6.396  1.0236  0.6236 -0.1076
  145SAPE   HN115822   0.292   0.886   6.441 -0.0233  0.3599 -2.0274
  145SAPE   HN215823   0.417   0.992   6.473  0.2689 -0.7400  1.2808
  145SAPE   HN315824   0.315   1.019   6.339  0.2226 -1.1471 -1.8056
  145SAPE   C1215825   0.449   0.848   6.318  0.4591  0.4427 -0.3356
  145SAPE  H12A15826   0.476   0.772   6.394 -3.0907  0.0158  0.6504
  145SAPE  H12B15827   0.540   0.898   6.278  2.1991 -1.7830  0.6298
  145SAPE   C1115828   0.372   0.780   6.204  0.2163 -1.2737 -0.1445
  145SAPE  H11A15829   0.445   0.733   6.135  2.3810  0.1656  1.0693
  145SAPE  H11B15830   0.336   0.862   6.139  0.4733 -0.8207  0.2779
  145SAPE     P15831   0.279   0.549   6.251 -0.1988  0.3635  0.5233
  145SAPE   O1315832   0.414   0.516   6.302 -0.2888  0.4767 -0.2541
  145SAPE   O1415833   0.164   0.503   6.330  0.2382 -0.4086 -0.0906
  145SAPE   O1215834   0.262   0.705   6.250  0.4172  0.1768  0.6571
  145SAPE   O1115835   0.264   0.505   6.099 -0.5552  0.2820  0.2540
  145SAPE    C115836   0.144   0.554   6.034  0.0274 -0.2734 -0.8590
  145SAPE    HA15837   0.054   0.498   6.066 -1.0176  2.6261  1.7738
  145SAPE    HB15838   0.109   0.655   6.065 -1.6359 -1.5545  1.7960
  145SAPE    C215839   0.155   0.538   5.883 -0.3864 -0.2159 -0.2518
  145SAPE    HS15840   0.172   0.432   5.856 -0.7415 -0.0313 -1.2323
  145SAPE   O2115841   0.266   0.627   5.840  0.7547  0.7594  0.6410
  145SAPE   C2115842   0.347   0.572   5.741 -0.4487  0.0954  0.0761
  145SAPE   O2215843   0.328   0.464   5.693  0.1254 -0.0618  0.4296
  145SAPE   C2215844   0.458   0.671   5.689 -0.3239 -0.3704 -0.2653
  145SAPE   H2R15845   0.395   0.737   5.626 -0.2874 -1.1895 -1.1884
  145SAPE   H2S15846   0.503   0.741   5.762 -0.7195  2.9803 -2.9788
  145SAPE    C315847   0.027   0.582   5.803  0.9250 -0.2761  0.1152
  145SAPE    HX15848  -0.004   0.683   5.838 -1.4906 -1.0496  0.3552
  145SAPE    HY15849  -0.059   0.521   5.836 -0.9255  1.3594 -1.3962
  145SAPE   O3115850   0.037   0.574   5.659  0.1464  0.1482 -0.0622
  145SAPE   C3115851   0.070   0.684   5.598 -0.1911 -0.0690  0.1222
  145SAPE   O3215852   0.072   0.797   5.646 -0.7797  0.4125 -0.6996
  145SAPE   C3215853   0.115   0.645   5.461  0.1928 -0.0352 -0.0460
  145SAPE   H2X15854   0.026   0.603   5.409  1.1142 -0.7291 -1.1303
  145SAPE   H2Y15855   0.196   0.572   5.483  1.1185  1.4869  1.9045
  145SAPE   C2315856   0.576   0.589   5.617  0.7564 -0.1079  0.6663
  145SAPE   H3R15857   0.537   0.497   5.567 -0.1519  0.3631  0.4858
  145SAPE   H3S15858   0.647   0.556   5.696  0.6398  1.2657  1.3784
  145SAPE   C2415859   0.645   0.676   5.514  1.0763 -0.5490  0.0551
  145SAPE   H4R15860   0.655   0.769   5.573 -1.7626 -0.7967  1.0938
  145SAPE   H4S15861   0.573   0.698   5.432  0.6423 -4.9039 -0.9689
  145SAPE   C2515862   0.784   0.637   5.467 -0.5236 -0.1046  0.3661
  145SAPE   H5R15863   0.858   0.606   5.543 -0.8900  0.2863  0.8851
  145SAPE   C2615864   0.830   0.640   5.341 -0.5637  0.5255  0.2326
  145SAPE   H6R15865   0.935   0.608   5.325 -0.2493  1.4938  0.2727
  145SAPE   C2715866   0.750   0.679   5.213 -0.0320  0.5246 -1.2393
  145SAPE   H7R15867   0.649   0.717   5.241 -0.5086 -0.6621 -1.3054
  145SAPE   H7S15868   0.736   0.590   5.149  1.5217  0.3063 -1.3108
  145SAPE   C2815869   0.827   0.784   5.136 -0.2469  0.5526 -0.2098
  145SAPE   H8R15870   0.881   0.854   5.201  1.7069 -0.3308 -0.8074
  145SAPE   C2915871   0.853   0.787   4.999  0.2329 -0.0676 -0.8637
  145SAPE   H9R15872   0.925   0.865   4.971  1.4013 -0.4465  0.9126
  145SAPE  C21015873   0.798   0.692   4.896 -0.2964  0.4200 -0.6125
  145SAPE  H10R15874   0.704   0.641   4.925 -0.0357 -1.7846 -3.2070
  145SAPE  H10S15875   0.872   0.611   4.882  1.1261  1.5397  0.1757
  145SAPE  C21115876   0.774   0.770   4.773 -0.5428 -0.8250 -0.3937
  145SAPE  H11R15877   0.687   0.837   4.771  1.3683  1.8354 -2.4786
  145SAPE  C21215878   0.844   0.767   4.661  0.0477 -0.1761  0.4903
  145SAPE  H12R15879   0.810   0.837   4.584 -0.4228  0.6866  1.4696
  145SAPE  C21315880   0.973   0.692   4.629 -0.2667  0.2046 -0.3412
  145SAPE  H13R15881   0.961   0.589   4.668 -2.3202  0.8551  0.8760
  145SAPE  H13S15882   1.053   0.741   4.688 -1.9401  0.5339  1.7790
  145SAPE  C21415883   1.016   0.699   4.482  0.0459  0.1696  0.4360
  145SAPE  H14R15884   0.959   0.637   4.411  1.0327  0.5998 -0.7732
  145SAPE  C21515885   1.110   0.780   4.430  0.1338  0.1333  0.1905
  145SAPE  H15R15886   1.117   0.774   4.320 -0.9710 -0.1041  0.1215
  145SAPE  C21615887   1.203   0.875   4.500  0.0009  0.0501  0.3072
  145SAPE  H16R15888   1.303   0.849   4.458 -0.3568  0.2381 -0.6736
  145SAPE  H16S15889   1.220   0.846   4.606  0.1083  1.2344  0.6239
  145SAPE  C21715890   1.175   1.024   4.480  0.2314 -0.6062  0.0396
  145SAPE  H17R15891   1.178   1.052   4.372  2.1241 -0.8408 -0.0018
  145SAPE  H17S15892   1.254   1.084   4.529 -0.6325  2.8524 -2.3526
  145SAPE  C21815893   1.027   1.068   4.521 -0.6666  0.5258 -0.1065
  145SAPE  H18R15894   1.025   1.075   4.632  1.8944 -1.4235  0.1612
  145SAPE  H18S15895   0.955   0.990   4.488 -1.1562  0.9358 -0.0233
  145SAPE  C21915896   0.984   1.198   4.464  0.2099 -1.1780 -0.4824
  145SAPE  H19R15897   0.882   1.232   4.492  0.1736 -2.2351  0.7906
  145SAPE  H19S15898   0.985   1.189   4.353  0.4021 -0.5162 -0.5351
  145SAPE  C22015899   1.066   1.308   4.520  0.0660 -0.0497 -0.6362
  145SAPE  H20R15900   1.173   1.278   4.511  0.3477  0.0970  1.7653
  145SAPE  H20S15901   1.043   1.315   4.628 -0.9020  0.7253 -0.8828
  145SAPE  H20T15902   1.052   1.413   4.487  2.9388  0.4632 -0.5130
  145SAPE   C3315903   0.144   0.756   5.361  0.9614  0.0385  0.1369
  145SAPE   H3X15904   0.238   0.804   5.396 -0.4279  0.6635  3.3398
  145SAPE   H3Y15905   0.059   0.828   5.363  1.2533  0.3835  0.1889
  145SAPE   C3415906   0.156   0.704   5.220 -0.3146  0.4641  0.4806
  145SAPE   H4X15907   0.146   0.790   5.150 -1.2662 -0.1333 -0.1437
  145SAPE   H4Y15908   0.065   0.643   5.202 -1.0078  1.4351  0.6077
  145SAPE   C3515909   0.284   0.630   5.189 -0.9631  0.3188 -0.0693
  145SAPE   H5X15910   0.279   0.534   5.244 -0.2530  0.6183  0.5269
  145SAPE   H5Y15911   0.372   0.680   5.234 -2.2613  1.6124  1.1433
  145SAPE   C3615912   0.314   0.627   5.042 -0.1159 -0.2640  0.6366
  145SAPE   H6X15913   0.422   0.602   5.030  0.2215  1.5863 -0.6157
  145SAPE   H6Y15914   0.297   0.723   4.988  0.4413  0.6463  2.0203
  145SAPE   C3715915   0.237   0.529   4.959 -0.0969 -0.4444  0.6212
  145SAPE   H7X15916   0.129   0.520   4.983 -0.8704 -0.3131 -2.3778
  145SAPE   H7Y15917   0.272   0.425   4.978  1.5816  0.1983  1.1644
  145SAPE   C3815918   0.255   0.551   4.804  0.3315  0.2121 -0.4781
  145SAPE   H8X15919   0.362   0.546   4.777  0.6765  1.1927  0.6105
  145SAPE   H8Y15920   0.216   0.655   4.797 -0.6741  0.1420  2.6288
  145SAPE   C3915921   0.188   0.452   4.700  0.2375  0.4733  0.5985
  145SAPE   H9X15922   0.085   0.432   4.737  0.6910 -1.1539  1.0501
  145SAPE   H9Y15923   0.244   0.357   4.710  1.0664  1.0797  2.0445
  145SAPE  C31015924   0.181   0.490   4.553  0.1060  0.2871  0.1749
  145SAPE  H10X15925   0.284   0.520   4.522  0.2657 -1.1474 -0.7672
  145SAPE  H10Y15926   0.119   0.581   4.544 -0.6742  0.0702  2.5148
  145SAPE  C31115927   0.130   0.380   4.452 -0.1955 -0.8619 -0.8756
  145SAPE  H11X15928   0.153   0.427   4.355 -0.0986  0.8189 -0.0618
  145SAPE  H11Y15929   0.021   0.368   4.471 -0.1342  0.4690  0.5130
  145SAPE  C31215930   0.195   0.245   4.471  0.2447 -0.6223  0.0535
  145SAPE  H12X15931   0.159   0.194   4.563 -0.9158  0.1042  0.0093
  145SAPE  H12Y15932   0.301   0.277   4.483 -0.5583  1.9987  0.7204
  145SAPE  C31315933   0.165   0.155   4.351 -0.4280  0.3505 -0.3735
  145SAPE  H13X15934   0.226   0.203   4.272 -0.4848  1.5173  0.2820
  145SAPE  H13Y15935   0.056   0.150   4.327 -0.3679 -1.1931 -0.4182
  145SAPE  C31415936   0.237   0.023   4.365 -0.2753  0.3028 -0.3363
  145SAPE  H14X15937   0.172  -0.050   4.417  0.7153 -0.6895 -0.4623
  145SAPE  H14Y15938   0.329   0.022   4.427 -0.3503 -3.0667 -0.0788
  145SAPE  C31515939   0.262  -0.041   4.223  0.5463  0.0044 -0.0605
  145SAPE  H15X15940   0.283   0.042   4.152 -1.3532  0.5185 -0.0809
  145SAPE  H15Y15941   0.167  -0.093   4.199 -0.5891  2.0163 -0.1919
  145SAPE  C31615942   0.387  -0.135   4.227 -0.5518 -0.3600  0.2631
  145SAPE  H16X15943   0.366  -0.214   4.302 -0.4753 -1.3566 -0.7541
  145SAPE  H16Y15944   0.470  -0.074   4.270 -0.0217 -1.2596  0.5266
  145SAPE  C31715945   0.424  -0.198   4.084 -0.0378 -0.1302 -0.4769
  145SAPE  H17X15946   0.435  -0.110   4.017  0.8499  0.7719  0.8138
  145SAPE  H17Y15947   0.330  -0.255   4.064 -1.5962  1.1785  2.4844
  145SAPE  C31815948   0.554  -0.274   4.081 -0.1022  0.0555 -0.1114
  145SAPE  H18X15949   0.580  -0.306   3.978  2.5992 -1.0741  0.8408
  145SAPE  H18Y15950   0.547  -0.362   4.148 -0.4800  0.1687 -0.0025
  145SAPE  H18Z15951   0.639  -0.205   4.101 -1.5006  2.3117 -1.4808
  146SAPE     N15952   3.393   0.032   7.024 -0.1243  0.2979  0.3673
  146SAPE   HN115953   3.417   0.128   7.059 -0.5219 -0.1082  1.8464
  146SAPE   HN215954   3.305   0.045   6.969  1.4564 -0.2713 -2.4643
  146SAPE   HN315955   3.384  -0.043   7.096  0.4149  0.2719  0.4108
  146SAPE   C1215956   3.497  -0.027   6.931  0.7673 -0.2879 -0.1140
  146SAPE  H12A15957   3.457  -0.114   6.875  1.4600  0.8132 -2.4471
  146SAPE  H12B15958   3.581  -0.056   6.998 -1.2852 -1.0781  2.2487
  146SAPE   C1115959   3.549   0.074   6.825  0.2328  0.3209  0.3055
  146SAPE  H11A15960   3.640   0.034   6.777 -0.4672 -1.3178  0.2632
  146SAPE  H11B15961   3.571   0.160   6.891  2.1327 -0.1572  0.3534
  146SAPE     P15962   3.489   0.206   6.613 -0.1864 -0.4955 -0.0127
  146SAPE   O1315963   3.381   0.221   6.512 -0.1641  0.0006 -0.2362
  146SAPE   O1415964   3.540   0.329   6.686 -0.5101 -0.0899  0.3196
  146SAPE   O1215965   3.449   0.106   6.726 -0.3055  0.1806 -0.0439
  146SAPE   O1115966   3.620   0.134   6.548  0.1566  0.6187 -0.3505
  146SAPE    C115967   3.610  -0.001   6.497 -0.5053 -1.5529 -0.2506
  146SAPE    HA15968   3.630  -0.080   6.573  1.2275 -0.7066  0.2275
  146SAPE    HB15969   3.511  -0.023   6.453 -0.3084 -1.5513 -0.6940
  146SAPE    C215970   3.716  -0.024   6.380 -0.2592  0.7024 -1.0041
  146SAPE    HS15971   3.814  -0.036   6.430 -1.1631  1.6765  1.1290
  146SAPE   O2115972   3.699   0.096   6.302 -0.1778 -0.2790 -0.1246
  146SAPE   C2115973   3.775   0.200   6.325  0.7772 -0.0744  0.0067
  146SAPE   O2215974   3.867   0.196   6.405  0.1019 -0.2079 -0.0068
  146SAPE   C2215975   3.729   0.310   6.244  0.2284  0.1238  0.2772
  146SAPE   H2R15976   3.794   0.323   6.154 -0.9702  0.7098 -0.5211
  146SAPE   H2S15977   3.629   0.298   6.199 -1.2067  1.6899  2.8183
  146SAPE    C315978   3.679  -0.150   6.290 -0.2383 -0.4210 -0.3589
  146SAPE    HX15979   3.570  -0.150   6.267 -0.8175  1.5918  1.9068
  146SAPE    HY15980   3.697  -0.244   6.346 -3.5599 -1.9756 -1.6335
  146SAPE   O3115981   3.758  -0.143   6.168  0.1510 -0.2151  0.1990
  146SAPE   C3115982   3.880  -0.147   6.182  0.3285  0.4717  0.0832
  146SAPE   O3215983   3.946  -0.168   6.286  0.4610  0.1844  0.3377
  146SAPE   C3215984   3.944  -0.128   6.040  0.1295 -0.1526 -0.3915
  146SAPE   H2X15985   3.906  -0.030   6.004 -1.6123 -0.4925  0.4172
  146SAPE   H2Y15986   3.906  -0.207   5.971 -1.7227  1.6466 -1.5368
  146SAPE   C2315987   3.743   0.458   6.303 -0.0904 -0.1257  0.4481
  146SAPE   H3R15988   3.847   0.460   6.343  0.1320  1.3276 -0.1309
  146SAPE   H3S15989   3.666   0.457   6.383 -0.9093 -1.0678 -0.3321
  146SAPE   C2415990   3.710   0.568   6.198 -0.0342 -0.5148 -0.4137
  146SAPE   H4R15991   3.783   0.556   6.115  0.0680 -0.0704 -0.3864
  146SAPE   H4S15992   3.744   0.657   6.255 -0.3729  0.3924 -1.6038
  146SAPE   C2515993   3.568   0.560   6.152  0.0162 -0.3967 -0.2736
  146SAPE   H5R15994   3.489   0.558   6.229 -1.6085  0.5423 -1.8461
  146SAPE   C2615995   3.527   0.562   6.020  0.0864 -0.1452  0.5602
  146SAPE   H6R15996   3.420   0.555   5.999  0.2508 -0.6774 -0.1101
  146SAPE   C2715997   3.616   0.576   5.897  0.5332 -0.3212 -0.1071
  146SAPE   H7R15998   3.724   0.583   5.925  0.3984 -0.8290  0.5645
  146SAPE   H7S15999   3.588   0.672   5.850  0.2533  0.2615  1.1934
  146SAPE   C2816000   3.594   0.469   5.793  0.7252 -0.0631  0.1042
  146SAPE   H8R16001   3.535   0.380   5.821  0.1232  0.2297 -0.1982
  146SAPE   C2916002   3.605   0.490   5.660 -0.4069  0.1810 -0.1764
  146SAPE   H9R16003   3.580   0.403   5.597 -0.1516  1.0986 -1.6060
  146SAPE  C21016004   3.659   0.605   5.582  0.2427  0.3166  0.7366
  146SAPE  H10R16005   3.733   0.575   5.505  0.4407  1.5640  0.4154
  146SAPE  H10S16006   3.721   0.659   5.657  0.5084 -2.2202  2.4645
  146SAPE  C21116007   3.560   0.695   5.518 -0.0824  1.2794 -0.4541
  146SAPE  H11R16008   3.455   0.662   5.518  0.0990  0.4362 -3.6602
  146SAPE  C21216009   3.591   0.802   5.443 -0.0538 -0.3067 -0.0369
  146SAPE  H12R16010   3.504   0.868   5.426 -0.7391 -0.8946  1.0051
  146SAPE  C21316011   3.727   0.864   5.408  0.4009 -0.1692 -0.0929
  146SAPE  H13R16012   3.757   0.828   5.307 -0.8749  0.0617 -0.5629
  146SAPE  H13S16013   3.814   0.828   5.466 -1.3080 -2.3264  1.2849
  146SAPE  C21416014   3.726   1.007   5.433 -0.5815 -0.8717  0.1638
  146SAPE  H14R16015   3.732   1.025   5.541  2.6741 -0.7220  0.0612
  146SAPE  C21516016   3.716   1.111   5.348  0.1076 -0.2389 -0.4618
  146SAPE  H15R16017   3.741   1.213   5.383  2.5343 -0.8922 -0.1198
  146SAPE  C21616018   3.700   1.105   5.197  0.3886  0.4343  0.4012
  146SAPE  H16R16019   3.628   1.172   5.147  1.5474 -1.7544 -4.8986
  146SAPE  H16S16020   3.656   1.008   5.167 -2.4262  2.2758 -1.8720
  146SAPE  C21716021   3.825   1.128   5.113 -1.2215  0.5906 -0.6047
  146SAPE  H17R16022   3.820   1.083   5.011  1.2662  2.7076 -1.7893
  146SAPE  H17S16023   3.906   1.066   5.157 -2.2998  0.5810  1.4756
  146SAPE  C21816024   3.874   1.273   5.119  0.7351 -0.2491  0.1317
  146SAPE  H18R16025   3.887   1.305   5.225 -0.1686  0.6304 -0.0109
  146SAPE  H18S16026   3.790   1.336   5.084  2.1489  0.8754 -1.3946
  146SAPE  C21916027   3.999   1.317   5.041 -0.5061 -0.2215 -0.1091
  146SAPE  H19R16028   4.080   1.319   5.118 -1.1884  2.5436  0.6355
  146SAPE  H19S16029   3.995   1.423   5.008 -0.8616  0.2885  1.4621
  146SAPE  C22016030   4.033   1.245   4.915 -0.0032  0.3604 -0.3963
  146SAPE  H20R16031   4.111   1.308   4.868 -1.2653  1.1064 -1.6070
  146SAPE  H20S16032   3.944   1.232   4.849 -0.0607 -0.7782 -0.1177
  146SAPE  H20T16033   4.066   1.140   4.927 -2.1059 -0.1599  1.6001
  146SAPE   C3316034   4.098  -0.116   6.023 -0.6963 -0.3215  0.3146
  146SAPE   H3X16035   4.144  -0.083   6.119  0.3129 -0.6569 -0.0339
  146SAPE   H3Y16036   4.126  -0.039   5.947  3.5891 -2.4938 -0.6110
  146SAPE   C3416037   4.178  -0.238   5.969  0.3173 -0.1909 -0.2896
  146SAPE   H4X16038   4.137  -0.335   6.006 -2.9710  0.5991 -1.5026
  146SAPE   H4Y16039   4.285  -0.230   5.997  0.2108  0.5596 -0.0798
  146SAPE   C3516040   4.178  -0.237   5.812  0.4846  0.0094  0.2458
  146SAPE   H5X16041   4.203  -0.136   5.773 -2.5541  1.0132  0.6448
  146SAPE   H5Y16042   4.077  -0.261   5.773 -0.0206  0.3688  1.2787
  146SAPE   C3616043   4.259  -0.349   5.756 -0.3454 -0.4602 -0.4180
  146SAPE   H6X16044   4.226  -0.443   5.805 -0.1590  0.0904  0.7958
  146SAPE   H6Y16045   4.366  -0.339   5.784 -0.6597 -2.3646  1.7916
  146SAPE   C3716046   4.246  -0.376   5.604  0.1113 -0.1417  0.3779
  146SAPE   H7X16047   4.267  -0.278   5.556  0.0622  1.0404  2.6358
  146SAPE   H7Y16048   4.145  -0.411   5.574  0.1595  0.9841 -1.2358
  146SAPE   C3816049   4.352  -0.471   5.548 -0.5269 -0.0581 -0.2608
  146SAPE   H8X16050   4.374  -0.559   5.613 -2.5063 -0.3635  0.0792
  146SAPE   H8Y16051   4.450  -0.419   5.539 -1.7144  2.0751 -1.7110
  146SAPE   C3916052   4.321  -0.517   5.404  0.6074 -1.4678  0.1174
  146SAPE   H9X16053   4.222  -0.567   5.402 -0.1913  0.0827 -0.8510
  146SAPE   H9Y16054   4.404  -0.583   5.372  1.0146 -0.2834 -1.3733
  146SAPE  C31016055   4.302  -0.400   5.305  0.0790 -0.0889 -0.2228
  146SAPE  H10X16056   4.371  -0.321   5.344 -0.2664  0.6851 -1.1334
  146SAPE  H10Y16057   4.202  -0.354   5.318  0.4007  0.4331  0.5145
  146SAPE  C31116058   4.342  -0.424   5.156  0.5507 -0.1249 -0.1141
  146SAPE  H11X16059   4.264  -0.497   5.127  0.0803 -1.8831  4.6789
  146SAPE  H11Y16060   4.438  -0.479   5.146  0.0222 -1.1094  0.0853
  146SAPE  C31216061   4.327  -0.308   5.063 -0.7742  0.5042  0.1141
  146SAPE  H12X16062   4.399  -0.228   5.092  0.2053 -0.5842  0.7469
  146SAPE  H12Y16063   4.224  -0.268   5.074 -0.2089  2.2601 -0.6222
  146SAPE  C31316064   4.350  -0.339   4.913  0.5413  0.1930 -0.3697
  146SAPE  H13X16065   4.262  -0.404   4.893  1.8384 -1.4245 -1.0383
  146SAPE  H13Y16066   4.446  -0.392   4.897  0.7512  0.8481 -1.3686
  146SAPE  C31416067   4.341  -0.212   4.825  0.1619 -0.2796 -0.4260
  146SAPE  H14X16068   4.434  -0.155   4.846 -0.2483 -0.3163  1.7762
  146SAPE  H14Y16069   4.253  -0.149   4.846 -1.5380 -2.1478 -1.5530
  146SAPE  C31516070   4.316  -0.234   4.673  0.1657 -0.0996 -0.8221
  146SAPE  H15X16071   4.335  -0.133   4.630  0.0335  0.1107 -0.3918
  146SAPE  H15Y16072   4.210  -0.265   4.667 -0.1415 -0.1891  2.8716
  146SAPE  C31616073   4.395  -0.354   4.615 -0.1052 -0.3935 -0.4646
  146SAPE  H16X16074   4.355  -0.383   4.515 -1.1828 -0.6219  0.0212
  146SAPE  H16Y16075   4.371  -0.448   4.668 -0.5607 -0.8551 -1.4648
  146SAPE  C31716076   4.548  -0.337   4.590 -0.2124  0.4199  0.4366
  146SAPE  H17X16077   4.584  -0.431   4.543 -0.6772  0.2919  0.3367
  146SAPE  H17Y16078   4.609  -0.316   4.681  2.1928 -0.5292 -0.8675
  146SAPE  C31816079   4.595  -0.217   4.504 -0.7105  0.3720  0.1464
  146SAPE  H18X16080   4.702  -0.225   4.475 -0.6071  0.2479  0.5472
  146SAPE  H18Y16081   4.576  -0.127   4.567 -1.8366 -1.1761  2.1733
  146SAPE  H18Z16082   4.532  -0.215   4.413 -2.3708  0.0621  1.2407
  147SAPE     N16083   4.033   5.638   7.251 -0.2434 -0.1080  0.0179
  147SAPE   HN116084   4.128   5.606   7.225 -0.7081 -1.1003 -0.5186
  147SAPE   HN216085   4.036   5.734   7.291  2.3586 -0.4131  0.6926
  147SAPE   HN316086   3.985   5.572   7.316  0.3865 -1.4780 -0.8728
  147SAPE   C1216087   3.955   5.651   7.123  1.0826  0.0711  0.4397
  147SAPE  H12A16088   3.857   5.700   7.145  1.5485  0.3850  1.9313
  147SAPE  H12B16089   3.935   5.546   7.094  1.1322 -0.8600  3.4463
  147SAPE   C1116090   4.034   5.719   7.013  0.4089 -0.2582 -0.2662
  147SAPE  H11A16091   4.046   5.822   7.053  0.5742  0.1378 -1.2910
  147SAPE  H11B16092   3.965   5.730   6.926 -1.1516  1.0369  1.0739
  147SAPE     P16093   4.203   5.601   6.848 -0.4056  0.4055 -0.2034
  147SAPE   O1316094   4.249   5.712   6.765 -0.2909  0.1333 -0.4724
  147SAPE   O1416095   4.304   5.494   6.877  0.2611 -0.1870  0.5956
  147SAPE   O1216096   4.158   5.648   6.991  1.4436  0.8107 -0.2537
  147SAPE   O1116097   4.068   5.537   6.782 -0.1307  0.0450  0.1910
  147SAPE    C116098   4.065   5.400   6.748  0.4153  0.3831  0.0993
  147SAPE    HA16099   4.082   5.336   6.838 -2.4713 -1.2146 -0.3874
  147SAPE    HB16100   3.962   5.375   6.717 -0.1876  1.3026  1.2659
  147SAPE    C216101   4.156   5.368   6.629  0.1956  0.3197  0.2160
  147SAPE    HS16102   4.258   5.370   6.672  0.9372 -1.8536 -1.2568
  147SAPE   O2116103   4.142   5.473   6.524 -0.1838 -0.4867  0.5967
  147SAPE   C2116104   4.259   5.508   6.457  0.2732  0.2395 -0.0383
  147SAPE   O2216105   4.365   5.450   6.471  0.0906  0.7140 -0.1939
  147SAPE   C2216106   4.228   5.627   6.373  0.2937 -0.1469  0.2834
  147SAPE   H2R16107   4.143   5.602   6.306 -0.1788 -0.3006  0.9229
  147SAPE   H2S16108   4.189   5.702   6.444 -1.7740 -1.0706  0.2011
  147SAPE    C316109   4.125   5.228   6.576 -0.8632 -0.4259  0.2563
  147SAPE    HX16110   4.017   5.219   6.553 -0.7347 -1.2016 -0.0935
  147SAPE    HY16111   4.157   5.150   6.649  0.9142 -0.5708 -0.6141
  147SAPE   O3116112   4.192   5.203   6.450  0.1426 -0.0964  0.2475
  147SAPE   C3116113   4.310   5.148   6.459  0.5844  0.0612 -0.2259
  147SAPE   O3216114   4.372   5.121   6.562  0.1547 -0.3075 -0.0451
  147SAPE   C3216115   4.339   5.098   6.317  0.7691  0.2312  0.4389
  147SAPE   H2X16116   4.252   5.126   6.254 -0.3403 -1.8554  0.9621
  147SAPE   H2Y16117   4.345   4.987   6.326  1.5546  0.4015  2.6304
  147SAPE   C2316118   4.349   5.681   6.293  0.0757 -0.0669  0.3143
  147SAPE   H3R16119   4.434   5.702   6.360  0.1724 -0.7504  0.4147
  147SAPE   H3S16120   4.315   5.778   6.252  0.3589  0.0249  0.2950
  147SAPE   C2416121   4.391   5.593   6.174 -0.9710  0.3888  0.0875
  147SAPE   H4R16122   4.304   5.580   6.106 -1.3818 -1.4578  0.8877
  147SAPE   H4S16123   4.400   5.486   6.205 -0.2898  0.5895  0.6035
  147SAPE   C2516124   4.507   5.639   6.091  0.1808  0.0561 -0.8015
  147SAPE   H5R16125   4.603   5.658   6.141 -0.4923  2.6949 -0.3290
  147SAPE   C2616126   4.499   5.669   5.964  0.3607 -0.2887  0.0599
  147SAPE   H6R16127   4.595   5.702   5.921  0.3196 -0.1046  0.1123
  147SAPE   C2716128   4.385   5.642   5.871 -0.8225  0.5376  0.0536
  147SAPE   H7R16129   4.291   5.685   5.913 -2.6519 -1.8886 -1.2423
  147SAPE   H7S16130   4.382   5.532   5.856  0.8852  0.1352  2.3513
  147SAPE   C2816131   4.402   5.700   5.729  0.9022 -0.5206 -0.6276
  147SAPE   H8R16132   4.370   5.805   5.721 -1.7017 -1.0446  1.5053
  147SAPE   C2916133   4.471   5.645   5.622  0.1881 -0.6342 -0.4802
  147SAPE   H9R16134   4.469   5.699   5.525 -2.6134 -0.0942 -0.2176
  147SAPE  C21016135   4.534   5.508   5.625  0.1110  0.1979 -0.0028
  147SAPE  H10R16136   4.464   5.441   5.570  1.5374  0.4160 -2.1942
  147SAPE  H10S16137   4.547   5.462   5.726 -1.4440 -0.2311  0.0230
  147SAPE  C21116138   4.671   5.515   5.554 -0.3517  1.0549 -0.4881
  147SAPE  H11R16139   4.754   5.563   5.608 -0.7168  1.0773  0.0589
  147SAPE  C21216140   4.692   5.472   5.428 -0.0691  0.7696 -0.1922
  147SAPE  H12R16141   4.794   5.478   5.388 -0.1624 -1.7108 -0.9705
  147SAPE  C21316142   4.590   5.406   5.338  0.1798  0.3756 -0.4586
  147SAPE  H13R16143   4.549   5.316   5.389  3.0152 -1.4983 -1.2554
  147SAPE  H13S16144   4.643   5.359   5.252 -2.8471 -0.4527 -1.9905
  147SAPE  C21416145   4.488   5.498   5.286  0.0431  0.1074  0.2171
  147SAPE  H14R16146   4.484   5.590   5.346 -0.3957 -1.4562  2.7310
  147SAPE  C21516147   4.412   5.485   5.175 -0.1461  0.6083  0.2996
  147SAPE  H15R16148   4.342   5.561   5.137  0.0534  0.2354 -0.8737
  147SAPE  C21616149   4.412   5.365   5.087  0.0834 -0.0739 -1.1083
  147SAPE  H16R16150   4.310   5.319   5.088  0.3501 -0.6614 -0.5239
  147SAPE  H16S16151   4.483   5.283   5.110 -1.4583 -1.1483  0.0474
  147SAPE  C21716152   4.445   5.390   4.937 -0.3262 -0.5842  1.0583
  147SAPE  H17R16153   4.443   5.289   4.892  1.7263 -0.3744  0.3872
  147SAPE  H17S16154   4.545   5.438   4.927 -1.2760  1.0521 -2.0577
  147SAPE  C21816155   4.340   5.475   4.870  0.0643  0.1772  0.2023
  147SAPE  H18R16156   4.340   5.582   4.899 -1.8425 -0.3970  2.7209
  147SAPE  H18S16157   4.236   5.438   4.886  0.7495 -2.4688 -0.8488
  147SAPE  C21916158   4.348   5.484   4.710 -0.8161  0.4175 -0.5739
  147SAPE  H19R16159   4.450   5.517   4.679  0.5260 -1.8151  1.1275
  147SAPE  H19S16160   4.282   5.567   4.677  1.3568  1.9421 -1.3460
  147SAPE  C22016161   4.306   5.349   4.643 -0.9641 -0.8657 -0.1576
  147SAPE  H20R16162   4.398   5.288   4.630  0.4564  1.1000  0.1161
  147SAPE  H20S16163   4.270   5.371   4.540  2.9570  1.8262 -1.1883
  147SAPE  H20T16164   4.218   5.296   4.685 -1.5692 -2.5900 -3.2780
  147SAPE   C3316165   4.465   5.135   6.241  0.0778  0.0596 -0.3619
  147SAPE   H3X16166   4.544   5.116   6.316 -2.0115 -3.4833  1.1968
  147SAPE   H3Y16167   4.472   5.240   6.207  0.7302  0.0740 -0.1976
  147SAPE   C3416168   4.500   5.050   6.113  0.6059  0.2273 -0.2383
  147SAPE   H4X16169   4.473   4.943   6.114  1.5050 -0.0174  1.1449
  147SAPE   H4Y16170   4.602   5.072   6.075  0.7590 -2.0574 -1.2859
  147SAPE   C3516171   4.416   5.121   6.003  0.1079 -0.4857 -0.0519
  147SAPE   H5X16172   4.432   5.231   6.008  0.4557 -0.5241 -0.2542
  147SAPE   H5Y16173   4.310   5.093   6.019 -0.2124 -1.0337 -2.6814
  147SAPE   C3616174   4.455   5.066   5.869  0.8572 -0.1929 -0.0642
  147SAPE   H6X16175   4.437   4.957   5.869  0.9693 -0.2261  1.3780
  147SAPE   H6Y16176   4.562   5.081   5.846  1.2999  0.9373  2.4005
  147SAPE   C3716177   4.357   5.123   5.762 -0.8419 -0.1984  0.2576
  147SAPE   H7X16178   4.348   5.233   5.772  0.3340 -0.1518  0.9865
  147SAPE   H7Y16179   4.254   5.090   5.788 -0.2180 -2.1587  0.3654
  147SAPE   C3816180   4.394   5.099   5.612 -0.6281 -0.0145  0.0225
  147SAPE   H8X16181   4.394   4.991   5.587  1.3751  0.1873 -0.9954
  147SAPE   H8Y16182   4.498   5.133   5.594 -1.0523  0.6574 -1.2559
  147SAPE   C3916183   4.288   5.164   5.520  0.0908 -0.6965  0.7393
  147SAPE   H9X16184   4.301   5.274   5.531 -0.7427 -0.6598  1.5234
  147SAPE   H9Y16185   4.187   5.137   5.559  0.1887 -0.9128  0.8457
  147SAPE  C31016186   4.298   5.118   5.376 -0.1936 -0.3673  0.1483
  147SAPE  H10X16187   4.316   5.008   5.366 -0.9811 -0.4849  0.0003
  147SAPE  H10Y16188   4.389   5.168   5.335  0.9283 -1.1386  1.6066
  147SAPE  C31116189   4.184   5.167   5.287 -0.0013  0.1181 -0.1671
  147SAPE  H11X16190   4.210   5.274   5.272  1.5218 -0.0360  1.0519
  147SAPE  H11Y16191   4.083   5.159   5.331 -0.3386 -0.3337 -1.0156
  147SAPE  C31216192   4.198   5.096   5.158 -0.0759  0.4101  0.2973
  147SAPE  H12X16193   4.193   4.988   5.183  0.8785  0.1654 -0.5065
  147SAPE  H12Y16194   4.295   5.115   5.106  0.6803  1.3034  1.9581
  147SAPE  C31316195   4.086   5.143   5.060  0.4204 -0.4746 -0.2688
  147SAPE  H13X16196   4.100   5.252   5.044 -0.8064  0.1124  2.1499
  147SAPE  H13Y16197   3.994   5.129   5.121  0.3033  2.7184  0.4927
  147SAPE  C31416198   4.106   5.066   4.932  0.4251  0.9671  1.0686
  147SAPE  H14X16199   4.119   4.958   4.953 -0.6989  0.4878 -0.5011
  147SAPE  H14Y16200   4.196   5.097   4.874  0.4453 -1.6995 -0.4653
  147SAPE  C31516201   3.978   5.079   4.848  0.8223 -0.6749  0.7598
  147SAPE  H15X16202   3.897   5.015   4.891 -0.6178  0.5471 -0.0320
  147SAPE  H15Y16203   4.002   5.047   4.744 -1.9877 -0.6820  0.0255
  147SAPE  C31616204   3.921   5.225   4.839  0.2540 -0.3025  1.0304
  147SAPE  H16X16205   4.005   5.289   4.807  0.3118  0.8668  3.3084
  147SAPE  H16Y16206   3.895   5.253   4.943 -0.0801 -2.0340  1.4565
  147SAPE  C31716207   3.804   5.261   4.740 -0.5203  0.6205  0.3523
  147SAPE  H17X16208   3.714   5.227   4.796 -0.4394 -1.5493 -0.7594
  147SAPE  H17Y16209   3.821   5.213   4.642  1.2974  5.2528 -1.8816
  147SAPE  C31816210   3.786   5.409   4.710  0.2178 -0.7326  0.1205
  147SAPE  H18X16211   3.681   5.437   4.686  0.9888  2.2531 -0.1722
  147SAPE  H18Y16212   3.851   5.448   4.629 -0.5202  0.4478  0.0662
  147SAPE  H18Z16213   3.804   5.466   4.803  0.8107  0.9294 -0.9692
  148SAPE     N16214   1.158   0.288   6.436 -0.2373 -0.2296  0.5435
  148SAPE   HN116215   1.155   0.362   6.363 -1.4977 -1.0858 -0.3087
  148SAPE   HN216216   1.061   0.280   6.474 -0.3117  0.2528  0.4733
  148SAPE   HN316217   1.229   0.321   6.505  0.7404  2.2358 -1.4806
  148SAPE   C1216218   1.217   0.166   6.379 -0.1446 -0.1591 -0.7259
  148SAPE  H12A16219   1.325   0.165   6.404 -0.7882 -0.4238  2.4499
  148SAPE  H12B16220   1.205   0.166   6.268  0.5334  0.3923 -0.8069
  148SAPE   C1116221   1.152   0.032   6.430 -0.3470  0.0219 -0.4192
  148SAPE  H11A16222   1.193  -0.051   6.370 -0.2426 -2.8131  3.2567
  148SAPE  H11B16223   1.046   0.027   6.395 -0.4278 -3.2823 -0.0063
  148SAPE     P16224   1.309  -0.025   6.630 -0.3333 -0.0835  0.6000
  148SAPE   O1316225   1.395   0.099   6.644  0.2957  0.8968 -0.0952
  148SAPE   O1416226   1.290  -0.096   6.760 -0.0343  0.3877 -0.7380
  148SAPE   O1216227   1.159   0.004   6.572 -0.3183 -0.1559  0.3048
  148SAPE   O1116228   1.385  -0.115   6.528  0.3878  0.1651 -0.1947
  148SAPE    C116229   1.331  -0.246   6.498  0.5370  0.2506  0.1354
  148SAPE    HA16230   1.341  -0.306   6.591  3.7426 -0.8734 -0.7834
  148SAPE    HB16231   1.220  -0.245   6.495  0.4681 -1.9076 -0.1174
  148SAPE    C216232   1.385  -0.311   6.366  0.4600  0.3365  0.0758
  148SAPE    HS16233   1.495  -0.303   6.363  0.5716 -0.9491  0.3541
  148SAPE   O2116234   1.319  -0.244   6.255 -0.1545  0.3367 -0.5044
  148SAPE   C2116235   1.399  -0.201   6.159 -0.2020  0.2498 -0.1338
  148SAPE   O2216236   1.518  -0.214   6.150 -0.5595  0.0549 -0.6155
  148SAPE   C2216237   1.317  -0.121   6.065  0.4760 -0.1073  0.1711
  148SAPE   H2R16238   1.273  -0.186   5.987 -0.0487  1.0390 -0.5104
  148SAPE   H2S16239   1.235  -0.068   6.118  0.3464 -2.1127  2.1368
  148SAPE    C316240   1.344  -0.458   6.360  0.1363  0.7393 -0.4665
  148SAPE    HX16241   1.236  -0.476   6.376  0.6091 -0.9789  1.2060
  148SAPE    HY16242   1.387  -0.505   6.452 -1.2217  2.0766  0.9161
  148SAPE   O3116243   1.388  -0.517   6.241  0.1553  0.2047 -0.3957
  148SAPE   C3116244   1.514  -0.537   6.232 -0.3149 -0.0149  0.4026
  148SAPE   O3216245   1.598  -0.514   6.313  0.5417 -0.2049 -0.3152
  148SAPE   C3216246   1.552  -0.605   6.094 -0.1531  0.1170 -0.3375
  148SAPE   H2X16247   1.560  -0.713   6.121  0.4664  0.7846  2.5514
  148SAPE   H2Y16248   1.654  -0.573   6.064  0.7459 -1.5963  0.7046
  148SAPE   C2316249   1.410  -0.025   5.980 -0.1851  0.5160 -0.5788
  148SAPE   H3R16250   1.473  -0.103   5.931 -1.3797 -0.0285 -1.2975
  148SAPE   H3S16251   1.476   0.043   6.038 -1.3803  1.0735  0.1504
  148SAPE   C2416252   1.332   0.061   5.883 -0.7871  0.3411  0.0145
  148SAPE   H4R16253   1.388   0.150   5.849 -2.6408  2.2802  1.7546
  148SAPE   H4S16254   1.244   0.100   5.938  0.0389  2.0817  0.1325
  148SAPE   C2516255   1.289  -0.025   5.768 -0.0148 -0.1287 -0.7141
  148SAPE   H5R16256   1.220  -0.106   5.795 -2.1435  1.2969 -1.6569
  148SAPE   C2616257   1.305  -0.002   5.639 -0.2954  0.7548  0.5521
  148SAPE   H6R16258   1.261  -0.079   5.575 -1.2943  1.5265  0.3041
  148SAPE   C2716259   1.387   0.111   5.581  0.4520  0.3737 -0.4147
  148SAPE   H7R16260   1.362   0.205   5.633  0.0646 -0.8616  1.7600
  148SAPE   H7S16261   1.349   0.121   5.477 -0.9786 -0.3555  0.0115
  148SAPE   C2816262   1.540   0.090   5.577  0.2157  0.1040 -0.1735
  148SAPE   H8R16263   1.591   0.074   5.673 -2.0088 -1.6377  0.8311
  148SAPE   C2916264   1.610   0.085   5.463  0.5898 -0.6785 -0.3140
  148SAPE   H9R16265   1.714   0.050   5.466 -0.0298 -2.5324  0.8939
  148SAPE  C21016266   1.563   0.096   5.323  0.3465 -0.3057 -0.3851
  148SAPE  H10R16267   1.486   0.175   5.313  2.8303  2.2797 -0.5569
  148SAPE  H10S16268   1.528  -0.007   5.302  0.6881 -0.4428 -0.2928
  148SAPE  C21116269   1.679   0.119   5.229 -0.4091 -0.0715  0.5209
  148SAPE  H11R16270   1.708   0.225   5.221 -1.0723  0.1930  1.4188
  148SAPE  C21216271   1.759   0.027   5.167  0.5475  1.0065 -0.2317
  148SAPE  H12R16272   1.846   0.065   5.113  0.8580  1.9226  0.8627
  148SAPE  C21316273   1.731  -0.118   5.170  0.2690  0.8252 -0.0373
  148SAPE  H13R16274   1.702  -0.163   5.073  1.9455 -0.2115 -0.1140
  148SAPE  H13S16275   1.654  -0.147   5.245  0.9809 -0.9024  0.0880
  148SAPE  C21416276   1.857  -0.201   5.217  0.2759  0.1002  0.4262
  148SAPE  H14R16277   1.863  -0.197   5.326 -4.0151 -2.0693  0.9391
  148SAPE  C21516278   1.939  -0.276   5.146  0.0465  0.9259  0.9999
  148SAPE  H15R16279   2.029  -0.312   5.197  1.2098 -2.8963 -3.1418
  148SAPE  C21616280   1.944  -0.290   4.997  0.2179  0.7728  0.0830
  148SAPE  H16R16281   1.845  -0.271   4.951  0.4348  2.9330  0.4120
  148SAPE  H16S16282   1.981  -0.390   4.965  2.0071  1.6140 -0.6395
  148SAPE  C21716283   2.042  -0.198   4.923 -0.5003  0.5446  0.6310
  148SAPE  H17R16284   2.129  -0.187   4.991 -1.2280  0.5407  1.5964
  148SAPE  H17S16285   2.000  -0.097   4.904  3.0463  2.3026  1.3440
  148SAPE  C21816286   2.090  -0.251   4.791 -0.3560 -0.0125 -0.2132
  148SAPE  H18R16287   2.000  -0.241   4.727 -0.5278  0.7887  0.1288
  148SAPE  H18S16288   2.127  -0.355   4.804 -1.8953 -0.4736  0.8074
  148SAPE  C21916289   2.193  -0.160   4.727  0.1116 -0.4642  0.3824
  148SAPE  H19R16290   2.146  -0.060   4.727  1.9480  0.4476  0.0434
  148SAPE  H19S16291   2.207  -0.188   4.620  2.1671  1.6379  0.0157
  148SAPE  C22016292   2.330  -0.152   4.788 -0.0088 -0.1304  0.6234
  148SAPE  H20R16293   2.398  -0.240   4.784  0.0522 -0.1162  1.2466
  148SAPE  H20S16294   2.328  -0.121   4.895 -1.2762  0.4473  0.4478
  148SAPE  H20T16295   2.377  -0.068   4.733  1.2818 -0.7271  0.7775
  148SAPE   C3316296   1.448  -0.582   5.980  0.2618 -0.1160  0.6179
  148SAPE   H3X16297   1.348  -0.553   6.018 -1.1270 -2.5487 -0.8963
  148SAPE   H3Y16298   1.441  -0.673   5.915  0.3727 -0.0717  0.5419
  148SAPE   C3416299   1.499  -0.471   5.883 -0.2545  0.1159  0.0048
  148SAPE   H4X16300   1.607  -0.492   5.869 -0.1707  0.6267 -0.1273
  148SAPE   H4Y16301   1.500  -0.370   5.930  3.5227  1.0363 -1.6460
  148SAPE   C3516302   1.412  -0.463   5.757 -0.3201  0.1238 -0.3018
  148SAPE   H5X16303   1.307  -0.444   5.788  0.3733  1.6966  1.2508
  148SAPE   H5Y16304   1.409  -0.559   5.702  0.4238 -1.1331  1.7459
  148SAPE   C3616305   1.468  -0.352   5.666  0.2600 -0.2926  0.2499
  148SAPE   H6X16306   1.578  -0.363   5.654  0.6272  1.4223  1.6602
  148SAPE   H6Y16307   1.455  -0.252   5.712 -2.5322 -0.1288 -0.6702
  148SAPE   C3716308   1.399  -0.344   5.530  0.0463 -0.2632 -0.2182
  148SAPE   H7X16309   1.413  -0.242   5.488  0.8404  0.9301  2.7152
  148SAPE   H7Y16310   1.295  -0.380   5.541  1.4426 -4.3966  1.4061
  148SAPE   C3816311   1.447  -0.447   5.423 -0.9689 -0.2254  0.4500
  148SAPE   H8X16312   1.399  -0.544   5.447 -0.8534 -0.0549  1.4503
  148SAPE   H8Y16313   1.556  -0.458   5.441 -0.8423 -0.0332 -0.1945
  148SAPE   C3916314   1.426  -0.394   5.280 -0.4801 -0.5125 -0.2346
  148SAPE   H9X16315   1.508  -0.325   5.252 -1.0053  1.0511  1.8587
  148SAPE   H9Y16316   1.330  -0.346   5.252 -0.6236 -1.3060 -1.1579
  148SAPE  C31016317   1.450  -0.511   5.178 -0.5297 -0.5535 -0.0068
  148SAPE  H10X16318   1.375  -0.592   5.188 -0.5677 -0.2574  3.1399
  148SAPE  H10Y16319   1.546  -0.562   5.201  0.1644  0.9600  0.6040
  148SAPE  C31116320   1.462  -0.463   5.032  0.6923 -0.2943  0.3212
  148SAPE  H11X16321   1.526  -0.373   5.024  0.3955  0.0050  1.1788
  148SAPE  H11Y16322   1.362  -0.438   4.991  1.6010  2.4261 -0.4526
  148SAPE  C31216323   1.520  -0.557   4.929 -0.1614  0.0554 -0.2293
  148SAPE  H12X16324   1.497  -0.523   4.826 -2.4044  1.1221  0.5670
  148SAPE  H12Y16325   1.485  -0.662   4.936 -1.7709  0.2850 -3.2742
  148SAPE  C31316326   1.677  -0.565   4.935 -0.2319  0.3666 -0.4281
  148SAPE  H13X16327   1.723  -0.625   5.017 -0.5923  2.3919  1.3700
  148SAPE  H13Y16328   1.720  -0.464   4.956  1.2302  0.1256 -2.0832
  148SAPE  C31416329   1.741  -0.602   4.799 -0.1141  0.2221  0.8064
  148SAPE  H14X16330   1.850  -0.587   4.813 -0.0905  1.3321 -0.4096
  148SAPE  H14Y16331   1.705  -0.530   4.723  0.4310 -0.5474 -0.2120
  148SAPE  C31516332   1.705  -0.737   4.744 -0.5615 -0.1028  0.5023
  148SAPE  H15X16333   1.598  -0.756   4.723 -0.9374  1.0932  1.2695
  148SAPE  H15Y16334   1.732  -0.812   4.822 -0.1998  0.1200  0.5952
  148SAPE  C31616335   1.771  -0.767   4.607 -0.1728 -0.1447  0.6211
  148SAPE  H16X16336   1.880  -0.761   4.628 -0.0445  1.6465 -0.3119
  148SAPE  H16Y16337   1.754  -0.681   4.538  1.7523  0.5890  0.9813
  148SAPE  C31716338   1.735  -0.908   4.561 -0.4845 -0.2330 -0.7181
  148SAPE  H17X16339   1.626  -0.925   4.555 -0.7983  1.2101  0.4305
  148SAPE  H17Y16340   1.786  -0.972   4.636  0.4914 -1.2824 -2.2138
  148SAPE  C31816341   1.798  -0.936   4.423 -0.2821  0.1543 -0.3773
  148SAPE  H18X16342   1.742  -0.883   4.344 -1.2720  0.7193  0.6770
  148SAPE  H18Y16343   1.809  -1.045   4.402  0.9928  0.3306 -0.7151
  148SAPE  H18Z16344   1.901  -0.895   4.413  0.6258 -2.0713 -0.8295
  149SAPE     N16345   1.143   1.984   6.661  0.2446 -0.0736 -0.0499
  149SAPE   HN116346   1.122   1.913   6.734  1.8605 -2.2439 -1.5736
  149SAPE   HN216347   1.152   2.075   6.712 -1.7336  0.5612 -0.7479
  149SAPE   HN316348   1.051   1.993   6.615 -0.0532  2.8113  0.8751
  149SAPE   C1216349   1.255   1.942   6.570  0.0212 -1.0437  0.4743
  149SAPE  H12A16350   1.353   1.980   6.608 -0.3258  0.2769  0.1002
  149SAPE  H12B16351   1.239   1.991   6.472  2.6928 -1.5562 -0.3199
  149SAPE   C1116352   1.265   1.787   6.555 -0.1657 -0.2627 -0.5146
  149SAPE  H11A16353   1.352   1.762   6.491 -0.3038  0.4409 -0.9995
  149SAPE  H11B16354   1.166   1.750   6.520 -0.0883 -1.4348  0.4263
  149SAPE     P16355   1.302   1.579   6.710 -0.3456 -0.0703  0.1145
  149SAPE   O1316356   1.447   1.574   6.720 -0.3934  0.3640  0.5555
  149SAPE   O1416357   1.222   1.527   6.821 -0.1716 -0.5705 -0.7137
  149SAPE   O1216358   1.260   1.731   6.684 -1.0932 -0.2854  0.3719
  149SAPE   O1116359   1.254   1.512   6.572  0.9219  0.1659  0.3289
  149SAPE    C116360   1.124   1.455   6.562 -0.3448  0.0807 -0.8561
  149SAPE    HA16361   1.122   1.367   6.630  1.7509  1.4218  1.1029
  149SAPE    HB16362   1.052   1.528   6.605 -0.1508 -0.8965  1.2173
  149SAPE    C216363   1.082   1.416   6.421  0.6198  0.0481 -0.0414
  149SAPE    HS16364   1.030   1.318   6.430 -0.9867  0.6708 -1.8068
  149SAPE   O2116365   1.201   1.400   6.335  0.7491 -0.1169  0.3184
  149SAPE   C2116366   1.263   1.282   6.351  0.2398 -0.2587 -0.6803
  149SAPE   O2216367   1.227   1.193   6.426  0.2905  0.1271 -0.1978
  149SAPE   C2216368   1.378   1.275   6.256 -0.0827  0.0856  0.3234
  149SAPE   H2R16369   1.335   1.302   6.157  2.2881  2.4327 -0.1878
  149SAPE   H2S16370   1.447   1.362   6.263  2.2926 -1.2212 -3.5007
  149SAPE    C316371   0.994   1.527   6.360 -0.4171 -0.5419  1.2751
  149SAPE    HX16372   1.049   1.623   6.348 -0.8268 -0.3971  0.4630
  149SAPE    HY16373   0.910   1.551   6.429  0.4023 -0.1361  2.1598
  149SAPE   O3116374   0.929   1.477   6.238 -0.3877  0.2887 -0.0542
  149SAPE   C3116375   0.928   1.556   6.130  0.2657  0.1069 -0.2709
  149SAPE   O3216376   0.975   1.670   6.126 -0.1286  0.6152  0.3486
  149SAPE   C3216377   0.846   1.490   6.020 -0.1666 -0.0842  0.0703
  149SAPE   H2X16378   0.744   1.535   6.022 -0.5840 -0.9246  2.8945
  149SAPE   H2Y16379   0.839   1.379   6.030  0.3029 -0.2049 -0.8860
  149SAPE   C2316380   1.457   1.144   6.248  0.1418 -0.3712 -0.0734
  149SAPE   H3R16381   1.381   1.064   6.252 -0.2653  0.0249  0.1231
  149SAPE   H3S16382   1.526   1.146   6.335  0.4600 -0.9116 -0.3043
  149SAPE   C2416383   1.537   1.139   6.121  1.1865 -0.0998 -0.0474
  149SAPE   H4R16384   1.615   1.218   6.126 -1.2709  2.4261  0.6431
  149SAPE   H4S16385   1.470   1.176   6.041 -0.4823 -2.4519  0.1571
  149SAPE   C2516386   1.601   1.004   6.085  0.3741 -0.5923  1.2252
  149SAPE   H5R16387   1.664   0.963   6.166  1.0377 -0.2425  0.8964
  149SAPE   C2616388   1.592   0.944   5.963 -0.0194 -0.2446 -0.4042
  149SAPE   H6R16389   1.642   0.848   5.941 -1.5951 -1.2856  0.3864
  149SAPE   C2716390   1.514   1.007   5.847 -0.5557  0.1825  0.6711
  149SAPE   H7R16391   1.551   1.110   5.827 -2.1370  1.1314  2.3239
  149SAPE   H7S16392   1.406   1.008   5.873 -0.3045 -1.5698  1.9555
  149SAPE   C2816393   1.508   0.923   5.721  0.1068  0.1474 -0.2107
  149SAPE   H8R16394   1.482   0.817   5.739  0.1215  0.2560  0.5023
  149SAPE   C2916395   1.550   0.962   5.600 -0.5753  0.0330  0.9518
  149SAPE   H9R16396   1.529   0.895   5.515  2.2130 -0.5704  0.6367
  149SAPE  C21016397   1.599   1.093   5.543  0.1255 -0.1057  0.2046
  149SAPE  H10R16398   1.541   1.168   5.601 -1.8877  0.7737 -2.7186
  149SAPE  H10S16399   1.562   1.094   5.439  2.7366  1.5723 -0.7987
  149SAPE  C21116400   1.745   1.125   5.546  0.5373  0.2020 -0.6315
  149SAPE  H11R16401   1.812   1.074   5.618 -1.8325  0.1987  1.7500
  149SAPE  C21216402   1.805   1.201   5.452 -0.4878 -0.0502 -0.0997
  149SAPE  H12R16403   1.914   1.214   5.464 -0.5449 -0.9067  1.8459
  149SAPE  C21316404   1.737   1.281   5.345 -0.3708 -0.4078  0.1851
  149SAPE  H13R16405   1.795   1.372   5.319 -1.8486  0.9195  1.3309
  149SAPE  H13S16406   1.641   1.327   5.376  0.6036  1.1250  1.0954
  149SAPE  C21416407   1.721   1.189   5.223  0.4210  0.0743 -0.1426
  149SAPE  H14R16408   1.709   1.085   5.255  1.8986 -0.1045 -0.1245
  149SAPE  C21516409   1.735   1.230   5.097 -0.1050  0.4405  0.3123
  149SAPE  H15R16410   1.749   1.152   5.021 -0.1238  0.5318  0.2151
  149SAPE  C21616411   1.758   1.365   5.036 -0.4713 -0.0128 -0.1170
  149SAPE  H16R16412   1.755   1.445   5.113 -2.9421 -2.4518  2.5703
  149SAPE  H16S16413   1.688   1.381   4.951 -2.9974 -1.3082  1.5825
  149SAPE  C21716414   1.901   1.355   4.971 -0.1742  0.2487  0.7555
  149SAPE  H17R16415   1.903   1.434   4.892  0.8374 -0.5577 -0.0544
  149SAPE  H17S16416   1.921   1.254   4.930  1.0656 -1.0208  4.1575
  149SAPE  C21816417   2.020   1.395   5.068  0.1352  0.7848  0.5350
  149SAPE  H18R16418   2.115   1.377   5.013 -0.0054  1.2966  0.1168
  149SAPE  H18S16419   2.005   1.331   5.157 -0.2228 -2.3692 -1.6135
  149SAPE  C21916420   2.029   1.545   5.116 -0.6381 -0.1467 -0.7229
  149SAPE  H19R16421   1.944   1.546   5.187 -0.6914 -1.4276 -0.7392
  149SAPE  H19S16422   2.010   1.615   5.032 -1.2125 -0.8970 -1.2299
  149SAPE  C22016423   2.168   1.593   5.176 -0.6001  0.0385 -0.3423
  149SAPE  H20R16424   2.146   1.680   5.242 -0.2570  1.1677 -1.6445
  149SAPE  H20S16425   2.242   1.632   5.103  0.8664 -0.6384  0.7358
  149SAPE  H20T16426   2.219   1.507   5.225  1.8880  0.2867 -2.2636
  149SAPE   C3316427   0.896   1.525   5.879  0.5913  0.5285 -0.2476
  149SAPE   H3X16428   0.992   1.470   5.866 -0.2432 -1.1831  0.5580
  149SAPE   H3Y16429   0.907   1.636   5.872 -0.8699  0.8228  1.4524
  149SAPE   C3416430   0.811   1.472   5.764 -0.3132  0.2725  0.0221
  149SAPE   H4X16431   0.704   1.502   5.765 -1.3294 -2.9444 -0.7093
  149SAPE   H4Y16432   0.817   1.362   5.774  1.1187  0.4578  1.6699
  149SAPE   C3516433   0.855   1.506   5.619  1.1071  0.1275  0.3291
  149SAPE   H5X16434   0.957   1.465   5.603  1.3181 -1.3707  4.2649
  149SAPE   H5Y16435   0.863   1.616   5.606 -1.9761  1.1009  4.3058
  149SAPE   C3616436   0.749   1.443   5.530  0.1161 -0.4030  0.4428
  149SAPE   H6X16437   0.643   1.453   5.562 -0.0084 -0.0981 -0.0482
  149SAPE   H6Y16438   0.768   1.335   5.543 -1.3115 -0.8444 -0.8634
  149SAPE   C3716439   0.765   1.490   5.385 -0.3202  0.4755 -0.4587
  149SAPE   H7X16440   0.793   1.597   5.381  0.1848  0.3448 -0.6085
  149SAPE   H7Y16441   0.666   1.482   5.335 -0.8783 -0.8609  0.8040
  149SAPE   C3816442   0.849   1.389   5.303  0.8824  0.4455  0.3064
  149SAPE   H8X16443   0.805   1.287   5.300 -1.8019  1.4529  1.9013
  149SAPE   H8Y16444   0.944   1.379   5.359  2.8368  2.9146 -2.2767
  149SAPE   C3916445   0.893   1.432   5.162  0.0766 -0.1269  0.7557
  149SAPE   H9X16446   0.910   1.541   5.176  2.2471 -0.4164  0.5942
  149SAPE   H9Y16447   0.812   1.433   5.086 -0.1818  3.1451  0.9474
  149SAPE  C31016448   1.026   1.376   5.111 -0.2542 -0.3598 -0.0625
  149SAPE  H10X16449   1.017   1.266   5.096  1.2203 -0.2231 -2.4345
  149SAPE  H10Y16450   1.113   1.391   5.178  1.8518 -0.1603 -2.6716
  149SAPE  C31116451   1.056   1.428   4.974  0.0778  0.3014 -0.1472
  149SAPE  H11X16452   1.083   1.535   4.983  1.8574 -0.0044 -1.3433
  149SAPE  H11Y16453   0.972   1.408   4.903  0.7136 -1.7592 -0.4059
  149SAPE  C31216454   1.179   1.354   4.911  0.4139  0.4381  0.3802
  149SAPE  H12X16455   1.152   1.262   4.855  0.2666  0.8047 -0.1524
  149SAPE  H12Y16456   1.250   1.318   4.989  1.0291 -2.6250 -1.4295
  149SAPE  C31316457   1.268   1.434   4.806  0.5206  0.3082 -0.6001
  149SAPE  H13X16458   1.316   1.518   4.862  3.0277 -0.0874 -1.9710
  149SAPE  H13Y16459   1.210   1.480   4.723  2.1166  2.9801 -0.3472
  149SAPE  C31416460   1.378   1.351   4.744 -0.4849 -0.8350 -0.0067
  149SAPE  H14X16461   1.336   1.275   4.674 -1.1322 -1.3018  0.8643
  149SAPE  H14Y16462   1.432   1.296   4.823  0.0623 -0.3111 -0.0129
  149SAPE  C31516463   1.472   1.430   4.660 -0.1819 -0.4130  0.3919
  149SAPE  H15X16464   1.553   1.356   4.642 -0.5737 -0.8319  0.3121
  149SAPE  H15Y16465   1.521   1.510   4.718  0.5390  0.3415 -1.2031
  149SAPE  C31616466   1.426   1.489   4.523  0.3553  0.2539  0.2326
  149SAPE  H16X16467   1.327   1.539   4.529 -0.0707 -0.1889 -2.1198
  149SAPE  H16Y16468   1.422   1.411   4.443  1.7807 -1.5484  1.8205
  149SAPE  C31716469   1.516   1.606   4.467 -0.2197 -0.0573 -0.0820
  149SAPE  H17X16470   1.490   1.615   4.360 -0.3293  2.5623  0.1050
  149SAPE  H17Y16471   1.625   1.596   4.486 -0.4869  1.1601  2.6778
  149SAPE  C31816472   1.478   1.739   4.529 -0.0874  0.0008  0.2011
  149SAPE  H18X16473   1.379   1.766   4.486 -0.0585 -1.6495 -1.0258
  149SAPE  H18Y16474   1.545   1.819   4.490 -4.5812  3.7112 -0.7885
  149SAPE  H18Z16475   1.464   1.743   4.639 -2.0466  0.6820 -0.0257
  150SAPE     N16476   4.239   3.206   6.774  0.3924  0.1803 -0.0196
  150SAPE   HN116477   4.276   3.303   6.766  1.5071 -0.0678  1.6527
  150SAPE   HN216478   4.285   3.133   6.716 -0.1119 -1.2985  1.3921
  150SAPE   HN316479   4.138   3.198   6.753 -0.0884  0.4850  1.9814
  150SAPE   C1216480   4.269   3.176   6.920 -0.4022  0.2872  0.2560
  150SAPE  H12A16481   4.234   3.265   6.976 -1.1729 -1.0157  1.9415
  150SAPE  H12B16482   4.380   3.171   6.921 -0.4578 -3.1129  0.0476
  150SAPE   C1116483   4.217   3.046   6.966 -0.2408 -0.3179 -0.6495
  150SAPE  H11A16484   4.108   3.042   6.944 -0.0915  1.5263 -1.9256
  150SAPE  H11B16485   4.240   3.036   7.075 -2.2243 -1.1282 -0.2615
  150SAPE     P16486   4.240   2.790   6.964 -0.2566  0.0243 -0.0125
  150SAPE   O1316487   4.332   2.760   7.072 -0.2962  0.0443 -0.1293
  150SAPE   O1416488   4.097   2.797   6.999  0.8223 -0.0537 -0.5572
  150SAPE   O1216489   4.282   2.932   6.906 -0.1262 -0.0223 -0.4907
  150SAPE   O1116490   4.264   2.684   6.851 -0.2360 -0.1826 -0.0657
  150SAPE    C116491   4.268   2.732   6.713 -0.3363  0.2732 -0.6410
  150SAPE    HA16492   4.166   2.771   6.690 -0.5048  1.7281  2.1319
  150SAPE    HB16493   4.336   2.818   6.698  0.5039 -0.3752 -0.6101
  150SAPE    C216494   4.309   2.614   6.630  0.3353 -0.1893  0.4316
  150SAPE    HS16495   4.319   2.524   6.694  1.2886 -0.2175  0.2707
  150SAPE   O2116496   4.445   2.629   6.578 -0.0450  0.3044 -0.4281
  150SAPE   C2116497   4.496   2.527   6.513 -0.8310  0.6314  0.1117
  150SAPE   O2216498   4.444   2.421   6.499 -0.3560  0.6121  0.3325
  150SAPE   C2216499   4.629   2.570   6.445  0.9182  0.0840  0.1558
  150SAPE   H2R16500   4.698   2.582   6.531 -1.3904  1.3168  1.9420
  150SAPE   H2S16501   4.667   2.490   6.378 -0.9361  0.6747 -1.7113
  150SAPE    C316502   4.193   2.572   6.518 -0.0445 -0.3664  0.1914
  150SAPE    HX16503   4.098   2.582   6.574  0.6916  0.6588  1.3248
  150SAPE    HY16504   4.198   2.465   6.489 -1.6160 -0.5149  0.4069
  150SAPE   O3116505   4.201   2.664   6.402 -0.2126  0.0398 -0.1061
  150SAPE   C3116506   4.111   2.630   6.305 -0.6579 -1.0232  0.3044
  150SAPE   O3216507   4.020   2.551   6.315 -0.4021 -0.6359  0.3368
  150SAPE   C3216508   4.143   2.715   6.182 -0.0093 -0.4102 -0.0147
  150SAPE   H2X16509   4.244   2.682   6.147  0.9051  3.1318 -1.1143
  150SAPE   H2Y16510   4.147   2.824   6.203  0.6237 -0.4004 -0.1435
  150SAPE   C2316511   4.621   2.701   6.362  0.7836 -1.1676 -0.1366
  150SAPE   H3R16512   4.721   2.734   6.327 -0.1887 -1.1107 -3.1683
  150SAPE   H3S16513   4.579   2.778   6.431 -1.3042 -2.8016  0.5411
  150SAPE   C2416514   4.541   2.696   6.235  0.2869  0.3715  0.2481
  150SAPE   H4R16515   4.439   2.669   6.268  1.0168 -0.0480  2.3531
  150SAPE   H4S16516   4.574   2.607   6.177 -1.5199 -0.0955 -0.1283
  150SAPE   C2516517   4.554   2.816   6.143  0.0324  0.1579 -0.8312
  150SAPE   H5R16518   4.583   2.908   6.196 -0.6219  0.1154 -0.3810
  150SAPE   C2616519   4.518   2.808   6.011  0.4707  0.3971  0.1968
  150SAPE   H6R16520   4.510   2.905   5.959  3.5754  0.9928  0.5909
  150SAPE   C2716521   4.484   2.676   5.943  0.4977  0.1524  0.3098
  150SAPE   H7R16522   4.382   2.688   5.901 -1.7530 -0.0782  5.1088
  150SAPE   H7S16523   4.480   2.584   6.005  0.8432 -0.4732 -0.5744
  150SAPE   C2816524   4.583   2.657   5.827  0.4635 -0.7054  0.5723
  150SAPE   H8R16525   4.688   2.638   5.853  1.1744  3.1300  1.0543
  150SAPE   C2916526   4.562   2.694   5.700 -0.5021  0.4788 -0.2933
  150SAPE   H9R16527   4.638   2.665   5.627 -1.0087 -3.3950  0.5040
  150SAPE  C21016528   4.429   2.734   5.635  0.0512 -0.0883  0.9936
  150SAPE  H10R16529   4.338   2.722   5.698  0.8025 -1.1217  1.9074
  150SAPE  H10S16530   4.404   2.676   5.544 -0.4103  1.7218 -0.0881
  150SAPE  C21116531   4.436   2.878   5.590  0.1425  0.4141 -1.5332
  150SAPE  H11R16532   4.417   2.947   5.674  1.9901  2.1427 -2.4367
  150SAPE  C21216533   4.472   2.936   5.479 -0.1569  0.0746 -0.3031
  150SAPE  H12R16534   4.439   3.039   5.458  0.5827 -0.1456 -2.8843
  150SAPE  C21316535   4.506   2.862   5.347  0.5807  0.6793 -0.1616
  150SAPE  H13R16536   4.534   2.755   5.362 -3.4131 -0.6558 -1.1026
  150SAPE  H13S16537   4.594   2.912   5.301  0.0070  0.3899 -1.6299
  150SAPE  C21416538   4.379   2.856   5.256 -0.6967  0.0856  0.2433
  150SAPE  H14R16539   4.293   2.812   5.310 -1.5918  1.6130  0.1057
  150SAPE  C21516540   4.359   2.912   5.137  0.7575 -1.0577  0.3078
  150SAPE  H15R16541   4.264   2.897   5.082  0.3520  2.0055  0.0037
  150SAPE  C21616542   4.463   3.001   5.058 -0.1001 -0.4069 -0.0123
  150SAPE  H16R16543   4.567   2.972   5.085 -0.8192 -1.3940  1.8448
  150SAPE  H16S16544   4.438   3.107   5.080 -3.1717 -0.7339 -1.4205
  150SAPE  C21716545   4.444   2.990   4.896  0.0950 -0.4711 -0.8485
  150SAPE  H17R16546   4.489   3.079   4.848  2.0230 -1.1730 -0.4294
  150SAPE  H17S16547   4.335   2.975   4.879 -0.1314 -0.7935  0.7314
  150SAPE  C21816548   4.512   2.864   4.845 -0.1107 -0.3720 -0.4430
  150SAPE  H18R16549   4.461   2.771   4.875  0.1801 -0.2643  0.4222
  150SAPE  H18S16550   4.610   2.860   4.897 -0.4045  0.0757  0.1586
  150SAPE  C21916551   4.523   2.866   4.694 -0.3758  0.2008  0.0003
  150SAPE  H19R16552   4.424   2.865   4.644  0.0942 -1.0399 -0.9624
  150SAPE  H19S16553   4.574   2.768   4.684  1.0712  0.7324  1.5512
  150SAPE  C22016554   4.617   2.961   4.628 -0.0248 -0.0871  0.2392
  150SAPE  H20R16555   4.716   2.971   4.676 -0.5461  0.5193  1.2288
  150SAPE  H20S16556   4.565   3.058   4.645 -1.6227 -0.9006  0.2303
  150SAPE  H20T16557   4.632   2.941   4.520  1.1092  0.4889  0.2795
  150SAPE   C3316558   4.034   2.692   6.076 -0.0357 -0.5624  0.1781
  150SAPE   H3X16559   3.933   2.709   6.120  1.0044 -1.7052  3.3025
  150SAPE   H3Y16560   4.026   2.582   6.068 -1.1249 -0.5334  0.6929
  150SAPE   C3416561   4.064   2.767   5.943 -0.1715  0.4610 -0.2965
  150SAPE   H4X16562   4.174   2.759   5.928 -0.1262  0.0444  0.2239
  150SAPE   H4Y16563   4.047   2.876   5.960  0.5967  0.6729 -0.8681
  150SAPE   C3516564   3.966   2.722   5.833 -0.4120  1.2404 -0.6470
  150SAPE   H5X16565   3.880   2.793   5.828 -1.2789  0.2865  0.3402
  150SAPE   H5Y16566   3.941   2.614   5.841  0.5738  0.8104 -2.6310
  150SAPE   C3616567   4.035   2.728   5.699 -0.4849 -0.2380 -0.8461
  150SAPE   H6X16568   4.103   2.641   5.694 -0.5838 -0.3805  0.1000
  150SAPE   H6Y16569   4.096   2.819   5.682  3.4740 -2.3272  0.8643
  150SAPE   C3716570   3.935   2.724   5.583  0.0025  0.3440  0.4289
  150SAPE   H7X16571   3.901   2.828   5.562 -0.9333 -0.2054 -0.9368
  150SAPE   H7Y16572   3.855   2.652   5.610  1.5954 -2.3060 -1.4187
  150SAPE   C3816573   4.013   2.657   5.464 -0.2614 -0.1994 -0.0962
  150SAPE   H8X16574   4.015   2.546   5.467  0.3881 -0.1876 -0.0932
  150SAPE   H8Y16575   4.117   2.692   5.477 -0.6832  0.6970  1.0711
  150SAPE   C3916576   3.972   2.720   5.328 -0.8681  0.0358 -0.5244
  150SAPE   H9X16577   3.868   2.692   5.302 -0.2854 -1.4189 -1.4153
  150SAPE   H9Y16578   4.029   2.671   5.246  1.4250  1.7089 -0.0043
  150SAPE  C31016579   3.986   2.875   5.315  0.2198 -1.1151  0.0574
  150SAPE  H10X16580   4.059   2.918   5.387 -1.7253 -0.6382  1.8639
  150SAPE  H10Y16581   3.895   2.917   5.364  1.9045  1.8820  0.8509
  150SAPE  C31116582   3.998   2.940   5.178 -0.1282 -0.1730 -0.0028
  150SAPE  H11X16583   4.089   2.900   5.130 -0.4735 -0.2281 -0.6125
  150SAPE  H11Y16584   4.025   3.047   5.191  1.8302 -0.6712  0.2844
  150SAPE  C31216585   3.872   2.936   5.083  0.2850 -0.1906 -0.1397
  150SAPE  H12X16586   3.776   2.966   5.131  0.3602  0.1380 -0.1942
  150SAPE  H12Y16587   3.861   2.834   5.040 -0.1568 -0.0596 -0.3417
  150SAPE  C31316588   3.890   3.042   4.973  0.6992 -0.1363  0.3520
  150SAPE  H13X16589   3.994   3.033   4.934 -0.6004  1.5636 -4.1973
  150SAPE  H13Y16590   3.885   3.143   5.019 -2.9404  0.3198 -0.6707
  150SAPE  C31416591   3.803   3.047   4.847 -0.5395 -0.4575  0.6235
  150SAPE  H14X16592   3.832   3.132   4.782 -0.0005 -1.0099  0.1322
  150SAPE  H14Y16593   3.699   3.061   4.883 -1.1516 -1.2113 -0.7986
  150SAPE  C31516594   3.810   2.912   4.772 -0.0276 -0.2555  0.0212
  150SAPE  H15X16595   3.778   2.823   4.831 -0.5719  0.3335  0.6220
  150SAPE  H15Y16596   3.916   2.886   4.750  0.5899  0.2669  2.1494
  150SAPE  C31616597   3.731   2.912   4.637 -0.4285  0.0760  0.1473
  150SAPE  H16X16598   3.769   2.829   4.573  1.1550  1.5687 -0.9603
  150SAPE  H16Y16599   3.755   3.005   4.581 -0.2696 -0.4041 -0.5960
  150SAPE  C31716600   3.580   2.891   4.654 -0.2427 -0.9066  0.0020
  150SAPE  H17X16601   3.541   2.960   4.731 -1.8172 -1.3355 -0.3835
  150SAPE  H17Y16602   3.553   2.793   4.699  0.8335 -0.3810  1.8702
  150SAPE  C31816603   3.520   2.910   4.519 -0.2924  0.1077  0.8196
  150SAPE  H18X16604   3.586   2.977   4.459  0.1443 -1.9373 -1.1381
  150SAPE  H18Y16605   3.419   2.954   4.529  0.9934  4.0319 -1.0494
  150SAPE  H18Z16606   3.523   2.811   4.469  0.5632  0.0403  0.9864
  151SAPE     N16607   4.765   0.645   6.998 -0.2715 -0.1077  0.3424
  151SAPE   HN116608   4.774   0.748   6.999  2.9827 -0.2763 -0.3763
  151SAPE   HN216609   4.743   0.601   7.090 -1.0518 -2.5623 -0.9033
  151SAPE   HN316610   4.858   0.612   6.963 -1.1269 -0.3037 -1.8929
  151SAPE   C1216611   4.655   0.609   6.903 -0.1751  0.2196 -0.3173
  151SAPE  H12A16612   4.700   0.599   6.802 -0.8615  0.1337 -0.6160
  151SAPE  H12B16613   4.578   0.689   6.911 -0.2517  0.0089  1.4226
  151SAPE   C1116614   4.597   0.475   6.928  0.2248  0.7260  0.0663
  151SAPE  H11A16615   4.539   0.455   6.835  0.2222  3.9306 -0.7223
  151SAPE  H11B16616   4.521   0.493   7.006  0.6901  0.6855  0.5316
  151SAPE     P16617   4.613   0.222   6.965 -0.0410 -0.2690 -0.0964
  151SAPE   O1316618   4.706   0.116   7.015 -0.4134 -0.3625 -1.0528
  151SAPE   O1416619   4.487   0.234   7.039  0.3886  0.1615 -0.3126
  151SAPE   O1216620   4.683   0.361   6.964  0.1511 -0.9007 -0.0031
  151SAPE   O1116621   4.570   0.201   6.814  0.6989 -0.1979 -0.4286
  151SAPE    C116622   4.655   0.243   6.707 -0.1414  0.5998 -0.1488
  151SAPE    HA16623   4.660   0.354   6.699  0.4302  0.5058 -1.3158
  151SAPE    HB16624   4.761   0.209   6.714 -0.8818 -1.7637  0.4135
  151SAPE    C216625   4.606   0.172   6.566 -0.3154 -0.4496  0.1166
  151SAPE    HS16626   4.686   0.191   6.492 -1.0688 -0.5347 -0.7333
  151SAPE   O2116627   4.483   0.223   6.525  0.5430 -0.0012  0.4394
  151SAPE   C2116628   4.468   0.347   6.481  0.2807 -0.4842  0.3555
  151SAPE   O2216629   4.558   0.427   6.469 -0.1437  0.2693 -0.0838
  151SAPE   C2216630   4.319   0.372   6.445 -0.7171  0.2628  0.3327
  151SAPE   H2R16631   4.250   0.369   6.532 -0.2919 -0.1610  0.6592
  151SAPE   H2S16632   4.308   0.475   6.405 -3.1675 -0.3202 -0.6836
  151SAPE    C316633   4.583   0.020   6.583  0.1356  0.1066  0.3985
  151SAPE    HX16634   4.509   0.009   6.665 -0.3971 -1.3291 -0.2398
  151SAPE    HY16635   4.676  -0.030   6.619  1.1598  2.3659  1.0647
  151SAPE   O3116636   4.533  -0.025   6.458  0.3471 -0.3195 -0.4351
  151SAPE   C3116637   4.512  -0.159   6.463  0.2538 -0.8867 -0.2953
  151SAPE   O3216638   4.557  -0.233   6.551  0.2379 -0.1787  0.3508
  151SAPE   C3216639   4.446  -0.205   6.333  0.7745  0.3418 -0.4980
  151SAPE   H2X16640   4.342  -0.171   6.314 -0.1395 -1.9070  0.2007
  151SAPE   H2Y16641   4.438  -0.315   6.338  0.6917  0.4039  1.9869
  151SAPE   C2316642   4.279   0.272   6.323  0.0313 -0.3251 -1.1454
  151SAPE   H3R16643   4.276   0.169   6.362  4.7999  0.4219  1.9486
  151SAPE   H3S16644   4.353   0.267   6.241  1.1172  1.1317 -0.2974
  151SAPE   C2416645   4.152   0.333   6.260 -0.1426 -0.4077  0.4696
  151SAPE   H4R16646   4.171   0.433   6.214 -1.1142 -0.9662 -1.2370
  151SAPE   H4S16647   4.077   0.357   6.339  1.0289  1.9777  0.9528
  151SAPE   C2516648   4.105   0.230   6.160 -0.4955 -0.1863  0.2619
  151SAPE   H5R16649   4.112   0.124   6.190 -0.7500 -0.8946 -1.9848
  151SAPE   C2616650   4.073   0.245   6.029  1.0898 -0.5802  0.5847
  151SAPE   H6R16651   4.046   0.158   5.968 -0.0543 -0.7604  1.3186
  151SAPE   C2716652   4.067   0.377   5.959 -0.2186  0.3842 -0.2806
  151SAPE   H7R16653   4.173   0.393   5.932 -0.2575  1.5344  0.1775
  151SAPE   H7S16654   4.037   0.465   6.020 -0.5077  1.2706 -1.6452
  151SAPE   C2816655   3.977   0.387   5.836  0.1198 -0.5782  0.1229
  151SAPE   H8R16656   3.875   0.417   5.864 -0.7592 -1.9815 -1.4007
  151SAPE   C2916657   3.998   0.331   5.717  0.7996 -0.0028  0.2539
  151SAPE   H9R16658   3.916   0.352   5.647  0.4530  3.9204  1.5807
  151SAPE  C21016659   4.124   0.266   5.653  0.2141  1.4569 -0.1166
  151SAPE  H10R16660   4.104   0.219   5.554  0.7282 -0.3334  0.6018
  151SAPE  H10S16661   4.179   0.190   5.712  0.4974  0.5721 -1.4823
  151SAPE  C21116662   4.220   0.378   5.613 -0.4220  0.3191 -0.8791
  151SAPE  H11R16663   4.297   0.402   5.687 -1.2674  0.8574 -0.1521
  151SAPE  C21216664   4.220   0.450   5.503  0.1646  0.1777  0.7020
  151SAPE  H12R16665   4.287   0.537   5.491  2.9729 -2.1663 -3.2331
  151SAPE  C21316666   4.123   0.439   5.384 -0.8820  0.0844 -0.9016
  151SAPE  H13R16667   4.107   0.333   5.353 -1.8367 -0.3359  0.8788
  151SAPE  H13S16668   4.183   0.491   5.307  2.3145 -0.9323  0.7282
  151SAPE  C21416669   3.997   0.517   5.402  0.1294  0.1989 -0.0160
  151SAPE  H14R16670   3.965   0.543   5.504  2.0797 -1.3903  1.0667
  151SAPE  C21516671   3.922   0.553   5.298  0.0816 -0.1200  0.0329
  151SAPE  H15R16672   3.838   0.622   5.316  1.3855  1.7726 -0.8140
  151SAPE  C21616673   3.958   0.530   5.155 -0.0388 -0.8875  0.7886
  151SAPE  H16R16674   3.932   0.423   5.140 -0.2384 -0.8210  0.6471
  151SAPE  H16S16675   4.066   0.525   5.132 -0.2872 -4.3302 -0.1517
  151SAPE  C21716676   3.893   0.626   5.052 -0.4628 -0.1704 -0.7798
  151SAPE  H17R16677   3.949   0.603   4.959 -0.4855 -1.0831 -0.5832
  151SAPE  H17S16678   3.906   0.728   5.094  0.0044 -0.1055 -1.0807
  151SAPE  C21816679   3.744   0.609   5.035  0.8509 -0.3494  0.1544
  151SAPE  H18R16680   3.694   0.587   5.132 -0.9054 -0.2127 -0.6798
  151SAPE  H18S16681   3.732   0.520   4.971 -1.6438 -1.1225  1.5382
  151SAPE  C21916682   3.686   0.733   4.965 -0.2120 -0.5637  0.1825
  151SAPE  H19R16683   3.732   0.738   4.864 -1.0278  0.1583 -0.1708
  151SAPE  H19S16684   3.723   0.824   5.017 -2.1849  0.1308  0.4584
  151SAPE  C22016685   3.534   0.725   4.941 -0.7204 -0.2058  0.0874
  151SAPE  H20R16686   3.514   0.653   4.859  0.3186 -0.8084  0.3476
  151SAPE  H20S16687   3.497   0.824   4.904 -2.7696  0.0789  2.6119
  151SAPE  H20T16688   3.479   0.704   5.035 -1.5021 -1.7306 -0.6793
  151SAPE   C3316689   4.530  -0.151   6.211 -0.1275  0.1737  0.4866
  151SAPE   H3X16690   4.502  -0.230   6.138 -3.2168  0.6221  1.0292
  151SAPE   H3Y16691   4.638  -0.158   6.235 -0.2335  1.7941  1.6005
  151SAPE   C3416692   4.478  -0.018   6.161  0.5197  0.0198  0.4910
  151SAPE   H4X16693   4.507   0.059   6.236 -0.4430 -1.4801  2.5155
  151SAPE   H4Y16694   4.368  -0.013   6.151  0.7096  1.6442 -1.2569
  151SAPE   C3516695   4.527   0.022   6.020 -0.3249  0.5370  0.6525
  151SAPE   H5X16696   4.496  -0.059   5.951  2.1082  0.8940 -0.9647
  151SAPE   H5Y16697   4.638   0.021   6.020 -0.2549  2.7659  1.6239
  151SAPE   C3616698   4.473   0.152   5.978 -0.4838 -0.5276  0.0176
  151SAPE   H6X16699   4.518   0.229   6.044  0.5586 -0.5998 -0.5915
  151SAPE   H6Y16700   4.362   0.161   5.981 -0.3777  1.5677 -0.6387
  151SAPE   C3716701   4.505   0.178   5.828  0.7055 -0.7640  0.1778
  151SAPE   H7X16702   4.615   0.190   5.816  0.4192  1.0865 -1.0586
  151SAPE   H7Y16703   4.466   0.281   5.813  2.5095 -0.0622 -0.0227
  151SAPE   C3816704   4.454   0.076   5.726 -0.2172 -0.7740  0.0592
  151SAPE   H8X16705   4.348   0.059   5.755  0.3711 -0.8854  2.3759
  151SAPE   H8Y16706   4.494  -0.026   5.746 -0.7763 -0.6764  1.8224
  151SAPE   C3916707   4.470   0.110   5.577 -0.0127 -0.1695 -0.2421
  151SAPE   H9X16708   4.577   0.119   5.550  0.5160  2.2436  2.2007
  151SAPE   H9Y16709   4.421   0.206   5.550  1.5214  0.3331 -1.3151
  151SAPE  C31016710   4.407  -0.007   5.493  0.0109  0.3123 -0.7700
  151SAPE  H10X16711   4.301  -0.003   5.527  0.8464 -0.1097  2.2457
  151SAPE  H10Y16712   4.455  -0.102   5.524 -0.4406  0.4959  0.5542
  151SAPE  C31116713   4.433  -0.005   5.343  0.0896 -0.3727 -0.0841
  151SAPE  H11X16714   4.445  -0.105   5.297  1.4511  0.8038 -2.4705
  151SAPE  H11Y16715   4.530   0.049   5.333 -0.6866  1.4131  1.3752
  151SAPE  C31216716   4.319   0.060   5.262 -0.6115  0.1327 -0.5908
  151SAPE  H12X16717   4.311   0.165   5.299  2.8957  0.4231 -0.3369
  151SAPE  H12Y16718   4.224   0.013   5.297  0.2848 -0.1285  1.7064
  151SAPE  C31316719   4.338   0.062   5.111 -0.0798 -0.0320  0.5320
  151SAPE  H13X16720   4.357  -0.034   5.058 -2.5936 -0.4972  0.3269
  151SAPE  H13Y16721   4.431   0.122   5.098  0.0499 -0.1133  1.0705
  151SAPE  C31416722   4.214   0.119   5.043  0.0094  0.0332 -0.1748
  151SAPE  H14X16723   4.195   0.208   5.106  0.2806  0.2937 -0.4501
  151SAPE  H14Y16724   4.132   0.045   5.051 -0.4388  0.5976  0.4712
  151SAPE  C31516725   4.233   0.167   4.895 -0.9276  0.4783 -0.1865
  151SAPE  H15X16726   4.253   0.074   4.837  1.0322 -0.5465  1.9573
  151SAPE  H15Y16727   4.322   0.230   4.876 -0.5075  0.2313  0.8683
  151SAPE  C31616728   4.103   0.217   4.831  0.0300  1.1543 -0.2748
  151SAPE  H16X16729   4.094   0.323   4.861  0.5878  1.0225  0.3801
  151SAPE  H16Y16730   4.015   0.161   4.870 -0.3858  1.1738 -1.1472
  151SAPE  C31716731   4.115   0.200   4.683 -0.2008  0.1484  0.3542
  151SAPE  H17X16732   4.127   0.091   4.663 -0.9093  0.4013 -1.6744
  151SAPE  H17Y16733   4.206   0.254   4.649  0.5928  1.2081  3.7697
  151SAPE  C31816734   3.988   0.250   4.602 -0.0656 -0.3838 -0.0486
  151SAPE  H18X16735   4.014   0.253   4.494 -0.3443 -0.1362 -0.1079
  151SAPE  H18Y16736   3.962   0.355   4.625 -1.0804 -0.8752  1.1557
  151SAPE  H18Z16737   3.900   0.190   4.634 -0.0157 -1.0643 -1.1299
  152SAPE     N16738   6.324   2.312   6.676 -0.5272  0.1019  0.4519
  152SAPE   HN116739   6.337   2.209   6.689 -0.2776  0.0616 -0.0799
  152SAPE   HN216740   6.409   2.366   6.701  0.0683 -0.9265  0.7434
  152SAPE   HN316741   6.240   2.349   6.724 -1.2315  2.0809 -2.1234
  152SAPE   C1216742   6.306   2.314   6.532  0.3893  0.4111  0.5312
  152SAPE  H12A16743   6.400   2.350   6.486  1.1771  2.5846  3.5164
  152SAPE  H12B16744   6.217   2.373   6.501  1.7381  1.6933 -1.0904
  152SAPE   C1116745   6.283   2.175   6.484  0.3734 -0.7131 -0.0184
  152SAPE  H11A16746   6.266   2.187   6.375 -0.7338 -1.6515  0.0209
  152SAPE  H11B16747   6.185   2.134   6.518  0.4076 -2.2146 -1.5524
  152SAPE     P16748   6.413   1.953   6.446 -0.0932 -0.0217 -0.1470
  152SAPE   O1316749   6.547   1.909   6.488  0.3821  0.4349 -0.4402
  152SAPE   O1416750   6.299   1.871   6.487 -0.2000 -0.6510 -0.1693
  152SAPE   O1216751   6.393   2.092   6.514 -0.1555  1.2063 -0.1327
  152SAPE   O1116752   6.399   1.987   6.292 -0.1265  0.7449  0.3789
  152SAPE    C116753   6.512   2.056   6.240  0.8378 -0.0807  0.1111
  152SAPE    HA16754   6.497   2.161   6.272 -1.4738 -0.6009  0.8932
  152SAPE    HB16755   6.612   2.017   6.270  1.4303  2.9369  2.5535
  152SAPE    C216756   6.505   2.073   6.086 -0.5303 -0.3915  0.7274
  152SAPE    HS16757   6.402   2.102   6.056  0.1072 -0.6238 -1.9144
  152SAPE   O2116758   6.551   1.964   6.014 -0.2982 -0.1676  0.0531
  152SAPE   C2116759   6.466   1.884   5.960  0.3840 -0.0146  0.5163
  152SAPE   O2216760   6.347   1.880   5.973 -0.2372  0.1234 -0.9604
  152SAPE   C2216761   6.540   1.796   5.860 -0.3508 -0.2488  0.2690
  152SAPE   H2R16762   6.643   1.835   5.843 -0.2826 -0.8848 -0.8629
  152SAPE   H2S16763   6.541   1.699   5.914 -2.5356  1.0128  2.8207
  152SAPE    C316764   6.598   2.200   6.050  0.5099  0.0989 -0.1686
  152SAPE    HX16765   6.683   2.184   6.119 -1.2765 -0.9860  1.8833
  152SAPE    HY16766   6.552   2.296   6.081 -0.1042 -0.7793  1.7121
  152SAPE   O3116767   6.636   2.207   5.910  0.1975 -0.2389 -0.3565
  152SAPE   C3116768   6.541   2.253   5.826  0.3713  0.3436  0.1069
  152SAPE   O3216769   6.427   2.281   5.864  0.0990  0.3514 -0.3430
  152SAPE   C3216770   6.596   2.292   5.688  0.3351 -0.9520 -0.5297
  152SAPE   H2X16771   6.591   2.194   5.635  0.1779 -0.1634 -2.0273
  152SAPE   H2Y16772   6.697   2.336   5.674  0.2680 -0.5551  0.2021
  152SAPE   C2316773   6.460   1.767   5.727  0.5724  0.1173  0.2897
  152SAPE   H3R16774   6.415   1.859   5.683  2.2563 -0.5609 -3.1980
  152SAPE   H3S16775   6.371   1.713   5.764 -0.3314  0.4931 -1.2471
  152SAPE   C2416776   6.537   1.692   5.624 -0.2809  0.2314  0.6146
  152SAPE   H4R16777   6.457   1.648   5.562 -0.3563  1.0567  0.1003
  152SAPE   H4S16778   6.592   1.598   5.647  0.6758  0.2119 -1.4563
  152SAPE   C2516779   6.618   1.782   5.533  0.3417  0.4418  0.6725
  152SAPE   H5R16780   6.719   1.813   5.564  2.1248 -2.2210 -1.9593
  152SAPE   C2616781   6.591   1.824   5.408 -0.0327  0.0865  0.1984
  152SAPE   H6R16782   6.665   1.890   5.359  0.9482 -0.8331  0.3988
  152SAPE   C2716783   6.466   1.806   5.336  0.3177  0.0669  0.3540
  152SAPE   H7R16784   6.372   1.787   5.392 -0.1308 -0.1709 -0.4799
  152SAPE   H7S16785   6.471   1.717   5.270  2.9564 -0.4324  1.0969
  152SAPE   C2816786   6.447   1.945   5.268  0.1113 -0.2031 -0.3516
  152SAPE   H8R16787   6.470   2.038   5.321 -0.5016 -0.3594  0.2126
  152SAPE   C2916788   6.419   1.958   5.140  0.7411 -1.2301  0.8442
  152SAPE   H9R16789   6.420   2.059   5.097  2.2952 -1.1816  0.9649
  152SAPE  C21016790   6.395   1.845   5.041 -0.2463 -0.6654 -0.8247
  152SAPE  H10R16791   6.291   1.811   5.063 -0.0088 -1.3805 -0.7658
  152SAPE  H10S16792   6.466   1.761   5.062  0.9137  0.2760 -0.8903
  152SAPE  C21116793   6.420   1.865   4.897 -0.0186 -0.8234  1.0880
  152SAPE  H11R16794   6.374   1.954   4.852 -0.4040 -1.8500 -0.6372
  152SAPE  C21216795   6.506   1.798   4.814 -0.7147 -0.3504 -0.6382
  152SAPE  H12R16796   6.510   1.826   4.707 -1.6342  0.2146 -0.5410
  152SAPE  C21316797   6.589   1.676   4.851  0.1042 -0.5929  0.4913
  152SAPE  H13R16798   6.559   1.596   4.780 -2.2916  1.4174 -0.9404
  152SAPE  H13S16799   6.569   1.642   4.954 -1.2484 -0.2334  0.3671
  152SAPE  C21416800   6.735   1.710   4.844  0.1018 -0.2541  0.6178
  152SAPE  H14R16801   6.780   1.808   4.866  1.6221 -0.3842 -1.5607
  152SAPE  C21516802   6.832   1.620   4.814  0.3190 -0.1590 -0.3191
  152SAPE  H15R16803   6.937   1.653   4.810 -0.1867  1.4774 -0.8528
  152SAPE  C21616804   6.807   1.472   4.785 -0.1081  0.6208  0.4757
  152SAPE  H16R16805   6.700   1.444   4.796  0.0984 -0.3002  0.1733
  152SAPE  H16S16806   6.866   1.407   4.852 -0.4795  1.0113  1.2027
  152SAPE  C21716807   6.836   1.431   4.644  0.0856 -0.4376 -0.0343
  152SAPE  H17R16808   6.767   1.476   4.569  1.7696  2.5055  0.0488
  152SAPE  H17S16809   6.807   1.323   4.645 -2.1415  0.0702  2.2224
  152SAPE  C21816810   6.984   1.442   4.590 -0.4250  0.2393 -0.4254
  152SAPE  H18R16811   7.067   1.430   4.663  0.4359  3.0136 -0.8337
  152SAPE  H18S16812   7.002   1.543   4.546  1.4380  0.5969  1.0312
  152SAPE  C21916813   7.010   1.348   4.476 -0.1846  1.7444  0.2978
  152SAPE  H19R16814   7.026   1.245   4.515 -0.9531  2.0093  1.3499
  152SAPE  H19S16815   7.101   1.375   4.418  0.4433  1.1662  0.9909
  152SAPE  C22016816   6.901   1.342   4.368 -0.2890  0.5530 -0.1531
  152SAPE  H20R16817   6.803   1.317   4.413 -1.4037  3.8241 -0.4609
  152SAPE  H20S16818   6.931   1.266   4.293  4.3134  3.7320 -1.9979
  152SAPE  H20T16819   6.875   1.439   4.319 -0.7682 -0.2941 -1.6408
  152SAPE   C3316820   6.504   2.387   5.619  0.3901 -0.3644  0.6165
  152SAPE   H3X16821   6.480   2.466   5.693 -1.7419 -0.7602  0.3905
  152SAPE   H3Y16822   6.406   2.339   5.601  0.1044  0.4745 -0.1409
  152SAPE   C3416823   6.560   2.422   5.479  0.3466 -0.4787  0.0174
  152SAPE   H4X16824   6.571   2.328   5.421  1.0748  0.2906 -1.1254
  152SAPE   H4Y16825   6.662   2.466   5.487  0.2771 -0.2303 -0.4543
  152SAPE   C3516826   6.479   2.517   5.392 -0.2460 -0.0966 -0.3540
  152SAPE   H5X16827   6.502   2.625   5.409  0.1039  0.3719 -3.2261
  152SAPE   H5Y16828   6.369   2.501   5.398 -0.1401 -1.3186 -1.2708
  152SAPE   C3616829   6.526   2.490   5.252  0.0744 -0.1430 -0.3410
  152SAPE   H6X16830   6.632   2.456   5.249  0.0117 -0.2819 -1.0903
  152SAPE   H6Y16831   6.503   2.580   5.190 -0.6432 -0.5873 -0.7261
  152SAPE   C3716832   6.434   2.380   5.190  0.1260  0.6574  0.3254
  152SAPE   H7X16833   6.327   2.403   5.205 -0.3255 -1.3002  0.4277
  152SAPE   H7Y16834   6.466   2.283   5.235  2.6070  1.1585 -0.1781
  152SAPE   C3816835   6.430   2.364   5.036  0.6986  0.0161 -0.7134
  152SAPE   H8X16836   6.360   2.281   5.015  0.1378  0.5107 -0.8366
  152SAPE   H8Y16837   6.532   2.326   5.015  2.1705  1.6475  2.5702
  152SAPE   C3916838   6.382   2.483   4.948 -0.1421 -0.4869 -0.4255
  152SAPE   H9X16839   6.464   2.556   4.966  0.6785 -1.1351 -1.4037
  152SAPE   H9Y16840   6.289   2.527   4.990  0.2834  0.0986 -0.0749
  152SAPE  C31016841   6.378   2.452   4.803 -0.1565  0.4062 -0.4312
  152SAPE  H10X16842   6.315   2.361   4.794  1.4216 -1.0426  2.0405
  152SAPE  H10Y16843   6.481   2.424   4.771  0.8339  0.7398  2.2247
  152SAPE  C31116844   6.330   2.573   4.714 -0.3553 -0.2784  0.3066
  152SAPE  H11X16845   6.404   2.653   4.735  1.2333 -1.1698 -1.5723
  152SAPE  H11Y16846   6.227   2.594   4.752 -1.2412 -1.5250 -1.3009
  152SAPE  C31216847   6.326   2.541   4.563 -0.0977 -0.0542  0.5700
  152SAPE  H12X16848   6.275   2.447   4.532 -0.0013 -0.3212  1.2105
  152SAPE  H12Y16849   6.427   2.527   4.518  0.2841  1.7899  0.7674
  152SAPE  C31316850   6.253   2.653   4.491  0.2270  0.0860  0.1537
  152SAPE  H13X16851   6.292   2.750   4.529  1.3939 -0.4238  0.2747
  152SAPE  H13Y16852   6.144   2.665   4.512  0.2449  0.7790 -0.1364
  152SAPE  C31416853   6.275   2.665   4.336 -0.2769 -0.2635  1.0984
  152SAPE  H14X16854   6.188   2.704   4.278  0.1167  1.4772  1.6377
  152SAPE  H14Y16855   6.285   2.562   4.294 -1.7475  0.8497 -2.4122
  152SAPE  C31516856   6.402   2.748   4.294  0.0654  0.3301  0.1484
  152SAPE  H15X16857   6.471   2.728   4.379 -0.0714 -1.6474 -0.1700
  152SAPE  H15Y16858   6.371   2.855   4.286  2.6381  0.9951 -3.5513
  152SAPE  C31616859   6.472   2.691   4.171  0.4012 -0.8457 -0.4414
  152SAPE  H16X16860   6.402   2.657   4.092  0.7205 -3.4998  0.3010
  152SAPE  H16Y16861   6.549   2.616   4.201  0.6754 -1.1244 -1.7658
  152SAPE  C31716862   6.549   2.809   4.104  0.0385  0.0305 -0.2904
  152SAPE  H17X16863   6.474   2.884   4.069 -0.6793 -0.1257  0.8670
  152SAPE  H17Y16864   6.615   2.769   4.024  0.4475  0.8700 -0.3810
  152SAPE  C31816865   6.648   2.882   4.194 -0.6040 -0.6711 -0.3836
  152SAPE  H18X16866   6.736   2.818   4.214 -0.1627  0.3138  0.9964
  152SAPE  H18Y16867   6.614   2.892   4.300 -0.2056 -2.3176 -0.0730
  152SAPE  H18Z16868   6.666   2.987   4.163  0.5006  0.3114  3.1579
  153SAPE     N16869   6.130   1.864   6.203  0.3445  0.0734  0.5263
  153SAPE   HN116870   6.137   1.804   6.117  1.5499  0.0877  0.5905
  153SAPE   HN216871   6.218   1.919   6.214  0.3559  0.5617 -1.5815
  153SAPE   HN316872   6.111   1.808   6.288 -0.1769  0.5802  0.7451
  153SAPE   C1216873   6.023   1.967   6.195 -0.4498  0.1636  1.1017
  153SAPE  H12A16874   6.063   2.041   6.123 -0.6180  0.1849  1.0290
  153SAPE  H12B16875   6.013   2.019   6.292  0.9512  1.5624  0.5464
  153SAPE   C1116876   5.900   1.896   6.135 -0.1436 -0.3512  0.0411
  153SAPE  H11A16877   5.933   1.863   6.034 -4.3996 -0.6496 -1.4316
  153SAPE  H11B16878   5.824   1.977   6.131  0.6333  0.3621 -0.9487
  153SAPE     P16879   5.740   1.795   6.322  0.1606  0.1567  0.1239
  153SAPE   O1316880   5.732   1.662   6.391 -0.4280 -0.1556  0.4803
  153SAPE   O1416881   5.774   1.908   6.408  0.0266 -0.6615 -0.3164
  153SAPE   O1216882   5.852   1.786   6.209 -0.3594  0.0182  0.1350
  153SAPE   O1116883   5.618   1.810   6.223  0.9069  0.4204 -0.3857
  153SAPE    C116884   5.561   1.706   6.142 -0.5892 -0.9169  0.0286
  153SAPE    HA16885   5.591   1.603   6.170 -0.4036 -0.4128  1.8202
  153SAPE    HB16886   5.451   1.717   6.150 -0.4571 -0.3177  1.4983
  153SAPE    C216887   5.601   1.721   5.989  0.1859 -0.0441  0.0155
  153SAPE    HS16888   5.711   1.733   5.988  0.2503  0.2049 -3.6291
  153SAPE   O2116889   5.529   1.832   5.930 -0.1150 -0.2289 -0.1453
  153SAPE   C2116890   5.610   1.900   5.848  0.4711  0.4226  0.0077
  153SAPE   O2216891   5.718   1.865   5.810  0.3612  0.3829 -0.3726
  153SAPE   C2216892   5.532   2.022   5.810  0.0518 -0.3665 -0.4836
  153SAPE   H2R16893   5.437   1.980   5.769 -0.5767 -0.2925  0.8529
  153SAPE   H2S16894   5.503   2.081   5.899  0.7418  1.3149 -1.3351
  153SAPE    C316895   5.576   1.585   5.912  0.5212  0.3032  0.6515
  153SAPE    HX16896   5.465   1.572   5.913 -0.2538  3.0220 -5.4369
  153SAPE    HY16897   5.624   1.505   5.972  0.7227  0.1956  0.3488
  153SAPE   O3116898   5.600   1.587   5.771 -0.5001 -0.1735 -0.1203
  153SAPE   C3116899   5.722   1.541   5.730  0.7080 -0.0280  0.5165
  153SAPE   O3216900   5.802   1.495   5.805  0.5581  0.1799  0.0021
  153SAPE   C3216901   5.738   1.567   5.580 -0.2771  0.4340 -1.2269
  153SAPE   H2X16902   5.838   1.534   5.544  0.1541  1.1547 -0.7077
  153SAPE   H2Y16903   5.725   1.676   5.567 -0.8450  0.5458  0.1613
  153SAPE   C2316904   5.598   2.105   5.700 -0.4035  0.0690 -0.1845
  153SAPE   H3R16905   5.610   2.050   5.604 -0.1628 -0.9708  0.4282
  153SAPE   H3S16906   5.703   2.123   5.733 -0.5399  0.2139  0.1785
  153SAPE   C2416907   5.514   2.240   5.671 -0.0794  0.0840 -0.1273
  153SAPE   H4R16908   5.561   2.292   5.585 -2.2843 -0.1667 -1.5695
  153SAPE   H4S16909   5.522   2.307   5.759 -1.1892  0.2449 -0.1366
  153SAPE   C2516910   5.371   2.208   5.632  0.0799 -0.0706 -0.0409
  153SAPE   H5R16911   5.313   2.185   5.722  0.3187  2.1005  0.7386
  153SAPE   C2616912   5.310   2.221   5.517  0.4393 -0.0379  0.2014
  153SAPE   H6R16913   5.201   2.206   5.505  0.5585 -0.7313 -0.0402
  153SAPE   C2716914   5.374   2.270   5.392 -0.7024  0.5271  0.7030
  153SAPE   H7R16915   5.376   2.188   5.317 -0.9412  3.9873 -3.4675
  153SAPE   H7S16916   5.481   2.296   5.409 -0.1247 -0.5905 -1.0118
  153SAPE   C2816917   5.317   2.384   5.315  0.5752  0.1110 -0.3976
  153SAPE   H8R16918   5.294   2.474   5.374 -0.0857  0.7976 -1.6588
  153SAPE   C2916919   5.271   2.383   5.189 -0.0873  0.0707  0.4591
  153SAPE   H9R16920   5.226   2.478   5.157  3.6103  1.2228 -1.9145
  153SAPE  C21016921   5.268   2.269   5.086 -0.5283 -0.2868  0.1670
  153SAPE  H10R16922   5.169   2.255   5.037 -0.8290  0.0153  0.6836
  153SAPE  H10S16923   5.286   2.167   5.126 -0.5668  0.1682  1.3868
  153SAPE  C21116924   5.368   2.292   4.981 -0.4087 -0.1243  0.2595
  153SAPE  H11R16925   5.463   2.238   4.993 -0.4540 -0.3264 -0.2406
  153SAPE  C21216926   5.363   2.372   4.867  0.5686 -0.2728 -1.6038
  153SAPE  H12R16927   5.448   2.379   4.798  0.3693 -1.8927 -2.0469
  153SAPE  C21316928   5.253   2.470   4.836 -0.4266 -0.0233  0.8648
  153SAPE  H13R16929   5.295   2.570   4.861  0.4500 -0.1082 -0.2174
  153SAPE  H13S16930   5.163   2.453   4.900 -0.5748  1.3617  1.0716
  153SAPE  C21416931   5.219   2.468   4.684  0.7076  0.1814  0.0908
  153SAPE  H14R16932   5.111   2.459   4.662  0.8871  0.8646 -1.2053
  153SAPE  C21516933   5.301   2.519   4.587  0.0545 -0.7023 -0.6015
  153SAPE  H15R16934   5.278   2.527   4.480  0.4915 -0.0032 -0.6528
  153SAPE  C21616935   5.440   2.570   4.617 -0.5131 -0.2532 -0.0325
  153SAPE  H16R16936   5.512   2.496   4.576 -2.9976 -1.5922 -2.2891
  153SAPE  H16S16937   5.462   2.597   4.722 -0.4478  1.8098 -0.5216
  153SAPE  C21716938   5.463   2.699   4.532  0.4456 -0.0010 -0.5676
  153SAPE  H17R16939   5.394   2.780   4.562  2.4371  1.1086  1.3322
  153SAPE  H17S16940   5.446   2.688   4.422  1.2545  1.2936 -0.8575
  153SAPE  C21816941   5.604   2.749   4.549  0.1853 -0.0524  0.5356
  153SAPE  H18R16942   5.671   2.661   4.534 -1.0749 -1.1943  1.3499
  153SAPE  H18S16943   5.608   2.783   4.655  0.0259  2.3813 -0.1906
  153SAPE  C21916944   5.638   2.871   4.460 -0.2479  0.2007 -0.1078
  153SAPE  H19R16945   5.580   2.965   4.474  0.2978  0.3658  1.1812
  153SAPE  H19S16946   5.609   2.838   4.358 -0.0534 -2.9448  0.7565
  153SAPE  C22016947   5.782   2.909   4.462 -0.1400  0.2954 -0.3365
  153SAPE  H20R16948   5.809   2.942   4.564  1.1341  1.3584 -0.9825
  153SAPE  H20S16949   5.791   2.993   4.390  1.1295  1.8816  1.5692
  153SAPE  H20T16950   5.847   2.823   4.435 -1.5594 -0.4820 -1.3837
  153SAPE   C3316951   5.615   1.503   5.509  0.8262  0.1175  0.2335
  153SAPE   H3X16952   5.519   1.545   5.544  0.3226 -1.0766  0.3160
  153SAPE   H3Y16953   5.633   1.397   5.539  2.4557  0.4142  0.3951
  153SAPE   C3416954   5.620   1.519   5.357  0.2550 -0.1986 -0.5289
  153SAPE   H4X16955   5.712   1.472   5.316  0.3348  1.5828 -2.5849
  153SAPE   H4Y16956   5.634   1.628   5.340  1.7299 -0.1128  0.9301
  153SAPE   C3516957   5.490   1.476   5.283  0.1134 -0.0526 -0.1443
  153SAPE   H5X16958   5.403   1.523   5.334  0.6992  0.0176  0.8130
  153SAPE   H5Y16959   5.483   1.368   5.305  0.5568  0.1684  1.1452
  153SAPE   C3616960   5.488   1.509   5.127 -0.1359  0.5082 -0.8114
  153SAPE   H6X16961   5.519   1.614   5.106  2.0994  0.4127  1.5768
  153SAPE   H6Y16962   5.386   1.493   5.085 -2.0015  2.7434  2.3928
  153SAPE   C3716963   5.599   1.424   5.047  0.6935 -0.5341  0.0656
  153SAPE   H7X16964   5.595   1.322   5.092  0.7240  0.2128  1.8624
  153SAPE   H7Y16965   5.695   1.474   5.071  1.9528 -1.8861 -1.8526
  153SAPE   C3816966   5.580   1.430   4.899 -0.3513  0.4477  0.5974
  153SAPE   H8X16967   5.567   1.538   4.874  1.0333  1.2008  2.8754
  153SAPE   H8Y16968   5.490   1.378   4.859  0.7020  0.0020 -1.3266
  153SAPE   C3916969   5.703   1.400   4.805 -0.0180  0.0713 -0.8456
  153SAPE   H9X16970   5.719   1.290   4.796  0.9957  0.2207 -1.0935
  153SAPE   H9Y16971   5.799   1.425   4.856  1.9375 -1.2472 -3.5886
  153SAPE  C31016972   5.684   1.460   4.664  0.0561 -0.2611  0.3188
  153SAPE  H10X16973   5.662   1.569   4.670  1.2713  0.0501 -0.6006
  153SAPE  H10Y16974   5.600   1.415   4.607 -0.5845 -0.2019  1.1793
  153SAPE  C31116975   5.813   1.449   4.579 -0.2450 -0.3212  0.3453
  153SAPE  H11X16976   5.832   1.342   4.561  1.6017 -0.8697  4.3779
  153SAPE  H11Y16977   5.906   1.485   4.628  0.8988 -1.4262 -0.9544
  153SAPE  C31216978   5.808   1.517   4.438  0.9806 -0.4018  0.4422
  153SAPE  H12X16979   5.771   1.619   4.460 -0.3647 -1.2031  2.1851
  153SAPE  H12Y16980   5.724   1.464   4.389  0.7771  0.3377 -0.0156
  153SAPE  C31316981   5.927   1.496   4.350 -0.6080 -0.3491 -0.2038
  153SAPE  H13X16982   5.976   1.402   4.383  2.3472  0.7823 -1.0262
  153SAPE  H13Y16983   6.006   1.573   4.368 -2.0289  0.6034  2.4753
  153SAPE  C31416984   5.908   1.512   4.199  0.1516  0.5527 -0.3169
  153SAPE  H14X16985   5.832   1.443   4.157  0.7354  0.2656 -0.9066
  153SAPE  H14Y16986   6.002   1.483   4.147 -0.0933  0.0985 -0.5062
  153SAPE  C31516987   5.853   1.647   4.150  0.9471  0.1367 -0.0401
  153SAPE  H15X16988   5.919   1.723   4.198 -1.9547  3.0618 -0.3236
  153SAPE  H15Y16989   5.746   1.658   4.178  0.8472 -0.1080 -0.3219
  153SAPE  C31616990   5.859   1.665   3.994 -0.7091  0.7255 -0.0089
  153SAPE  H16X16991   5.948   1.609   3.961  0.1934  1.3945  1.2076
  153SAPE  H16Y16992   5.869   1.770   3.957  0.0550  1.1237  1.2547
  153SAPE  C31716993   5.738   1.607   3.922  0.1176 -0.0217  0.1098
  153SAPE  H17X16994   5.650   1.646   3.977 -0.2187 -1.5596  0.7373
  153SAPE  H17Y16995   5.733   1.499   3.948  0.2496  0.1480  0.8836
  153SAPE  C31816996   5.735   1.627   3.776  0.0754 -0.5123 -0.0945
  153SAPE  H18X16997   5.822   1.578   3.727  0.5004 -0.2326  0.3666
  153SAPE  H18Y16998   5.744   1.736   3.758 -0.5878 -0.4847 -0.3005
  153SAPE  H18Z16999   5.639   1.595   3.731 -0.1876  1.3509 -0.9366
  154SAPE     N17000   2.846   0.766   6.561  0.3910 -0.0572  0.3585
  154SAPE   HN117001   2.756   0.718   6.541  1.8158 -1.7821 -2.7194
  154SAPE   HN217002   2.821   0.865   6.577 -0.9443 -0.4783  0.9826
  154SAPE   HN317003   2.906   0.758   6.477  0.1030  1.1061  0.0309
  154SAPE   C1217004   2.915   0.720   6.688 -0.2981 -0.2448  0.0231
  154SAPE  H12A17005   2.922   0.609   6.680 -2.2899 -0.3772 -0.4410
  154SAPE  H12B17006   2.860   0.748   6.781 -0.4066 -0.8887  0.1603
  154SAPE   C1117007   3.059   0.770   6.694 -0.4010  0.5145  0.2607
  154SAPE  H11A17008   3.105   0.721   6.783  0.4385  0.4785 -0.1797
  154SAPE  H11B17009   3.055   0.880   6.706 -1.4890  0.6193 -0.9015
  154SAPE     P17010   3.221   0.628   6.527 -0.0247 -0.0777 -0.1217
  154SAPE   O1317011   3.346   0.631   6.603 -0.5104 -0.3751  0.1157
  154SAPE   O1417012   3.141   0.503   6.531  0.0992 -0.2193  0.1529
  154SAPE   O1217013   3.131   0.753   6.570 -0.1793 -0.1450  0.3453
  154SAPE   O1117014   3.251   0.674   6.378  0.4579  0.3368  0.0180
  154SAPE    C117015   3.296   0.803   6.335  0.0172 -0.1688  0.4826
  154SAPE    HA17016   3.364   0.845   6.412 -1.5400  0.9746  1.2844
  154SAPE    HB17017   3.360   0.777   6.248  1.1907 -2.3172  1.8934
  154SAPE    C217018   3.185   0.896   6.300  0.8854 -0.5138  0.3490
  154SAPE    HS17019   3.111   0.910   6.382  1.1333 -1.4346  0.7311
  154SAPE   O2117020   3.114   0.850   6.182 -0.2058 -0.1424 -0.0565
  154SAPE   C2117021   3.022   0.755   6.206  0.2449 -0.0511  0.0329
  154SAPE   O2217022   2.944   0.744   6.302  0.6613  0.0333 -0.8347
  154SAPE   C2217023   3.011   0.665   6.076 -0.4567 -0.0769 -0.4374
  154SAPE   H2R17024   2.929   0.596   6.105  0.3918 -0.5603  0.9772
  154SAPE   H2S17025   2.982   0.727   5.989 -1.5991 -0.2683 -0.2068
  154SAPE    C317026   3.253   1.036   6.265  0.9438 -0.4319 -0.4585
  154SAPE    HX17027   3.326   1.073   6.340  0.0634  1.6886 -0.5793
  154SAPE    HY17028   3.172   1.112   6.265 -0.8998 -2.2191 -2.8542
  154SAPE   O3117029   3.334   1.028   6.144  0.5551  0.2102 -0.1256
  154SAPE   C3117030   3.283   1.074   6.027  0.0289  0.2273 -0.4109
  154SAPE   O3217031   3.171   1.114   6.020  0.1557 -0.4854 -0.1912
  154SAPE   C3217032   3.391   1.068   5.921 -0.0776 -0.0723 -0.2927
  154SAPE   H2X17033   3.483   1.123   5.946  1.1162 -0.6062 -3.1083
  154SAPE   H2Y17034   3.356   1.111   5.825 -0.2122 -0.7533 -0.5568
  154SAPE   C2317035   3.152   0.599   6.049  0.6257 -0.5707  0.1134
  154SAPE   H3R17036   3.178   0.530   6.133  1.6780 -0.9332 -0.4833
  154SAPE   H3S17037   3.233   0.676   6.053 -0.2633  0.4379 -0.8197
  154SAPE   C2417038   3.152   0.530   5.912  0.2807 -0.4183  0.3222
  154SAPE   H4R17039   3.250   0.482   5.895 -0.2012 -1.6870  0.9612
  154SAPE   H4S17040   3.151   0.615   5.840  0.7811  0.1126  0.9385
  154SAPE   C2517041   3.037   0.440   5.892 -0.2923  0.1002 -0.0665
  154SAPE   H5R17042   2.938   0.488   5.890  0.3133  1.3720  0.1019
  154SAPE   C2617043   3.040   0.307   5.876  0.2008  0.3989 -0.9130
  154SAPE   H6R17044   2.942   0.257   5.869  0.5280 -0.2977 -0.6333
  154SAPE   C2717045   3.160   0.218   5.871 -0.1106  0.1945 -0.0748
  154SAPE   H7R17046   3.167   0.153   5.961  2.0439  0.3799 -0.0621
  154SAPE   H7S17047   3.257   0.271   5.869  0.5334 -0.9693 -1.7211
  154SAPE   C2817048   3.161   0.134   5.744 -0.2295 -0.1542  0.6088
  154SAPE   H8R17049   3.107   0.038   5.754  0.1189 -0.3450  0.6659
  154SAPE   C2917050   3.239   0.156   5.636  0.0542  0.1637  0.6637
  154SAPE   H9R17051   3.242   0.089   5.548  1.1949 -0.4292  1.1376
  154SAPE  C21017052   3.317   0.282   5.602  0.6286  0.2779 -0.1100
  154SAPE  H10R17053   3.426   0.269   5.616  0.3512 -2.0583  0.2993
  154SAPE  H10S17054   3.293   0.354   5.684 -0.0243 -1.5752  1.3886
  154SAPE  C21117055   3.295   0.357   5.471 -0.1074  0.2753 -0.4448
  154SAPE  H11R17056   3.234   0.449   5.476 -0.8294 -0.1200 -1.5973
  154SAPE  C21217057   3.360   0.325   5.357  0.4824  0.0668 -0.0573
  154SAPE  H12R17058   3.339   0.377   5.262  0.1041 -0.1491 -0.0924
  154SAPE  C21317059   3.459   0.212   5.339 -0.3804 -0.8359 -0.0959
  154SAPE  H13R17060   3.408   0.137   5.276  0.0838 -3.1226  2.0897
  154SAPE  H13S17061   3.474   0.170   5.441  4.1152  0.0230 -0.1735
  154SAPE  C21417062   3.597   0.243   5.278  0.1796 -0.0061  0.1797
  154SAPE  H14R17063   3.686   0.241   5.341  0.3308 -1.0492 -0.0498
  154SAPE  C21517064   3.629   0.259   5.145  0.0187 -0.0488 -0.5383
  154SAPE  H15R17065   3.731   0.282   5.112 -0.6098  4.0773 -0.1848
  154SAPE  C21617066   3.534   0.256   5.029  0.2809  0.3485  0.2094
  154SAPE  H16R17067   3.558   0.339   4.959  2.9459  0.1658  0.8198
  154SAPE  H16S17068   3.433   0.286   5.064  0.6441 -0.2390  1.8136
  154SAPE  C21717069   3.516   0.124   4.946 -0.2292  0.1318  0.1460
  154SAPE  H17R17070   3.419   0.121   4.892 -0.5478  3.2457  0.3431
  154SAPE  H17S17071   3.520   0.039   5.017 -0.7858 -0.0182  0.0008
  154SAPE  C21817072   3.630   0.099   4.849  0.2310 -0.4063  0.5959
  154SAPE  H18R17073   3.728   0.142   4.879  0.1496  1.5997 -1.6596
  154SAPE  H18S17074   3.618   0.159   4.756  0.9284  2.3083  2.1630
  154SAPE  C21917075   3.655  -0.050   4.819  0.7847 -0.0576 -0.3073
  154SAPE  H19R17076   3.564  -0.111   4.802  0.5956 -0.7266  2.5191
  154SAPE  H19S17077   3.702  -0.098   4.907  0.6444  2.2510  1.1186
  154SAPE  C22017078   3.739  -0.065   4.702 -0.5373  0.3434 -0.0859
  154SAPE  H20R17079   3.735  -0.170   4.666 -2.5928  1.1514 -2.5067
  154SAPE  H20S17080   3.845  -0.031   4.712 -0.4058  0.0069 -0.2965
  154SAPE  H20T17081   3.707   0.001   4.618 -0.6887  2.3025  1.4189
  154SAPE   C3317082   3.429   0.919   5.899 -0.1689 -0.4912 -0.0727
  154SAPE   H3X17083   3.453   0.858   5.988 -0.1713  0.3986  0.5371
  154SAPE   H3Y17084   3.521   0.929   5.837 -0.3306  2.6134  0.0426
  154SAPE   C3417085   3.318   0.840   5.827  0.2835 -0.1134  0.4693
  154SAPE   H4X17086   3.216   0.841   5.871 -0.4139 -1.4147 -1.0206
  154SAPE   H4Y17087   3.363   0.739   5.834 -1.0166 -0.6753  1.0092
  154SAPE   C3517088   3.290   0.882   5.679 -0.0705 -0.1667  0.4620
  154SAPE   H5X17089   3.391   0.890   5.634 -0.0057 -0.4861  0.5446
  154SAPE   H5Y17090   3.248   0.984   5.685 -0.9889 -0.5827  1.3941
  154SAPE   C3617091   3.185   0.796   5.611  0.0294  0.1797  0.3135
  154SAPE   H6X17092   3.087   0.840   5.637 -0.1945 -0.0453 -0.1234
  154SAPE   H6Y17093   3.187   0.693   5.653 -2.0726 -0.5302 -1.1502
  154SAPE   C3717094   3.212   0.797   5.457  0.5698 -0.4361  0.4221
  154SAPE   H7X17095   3.301   0.737   5.428  0.4811 -0.4333  0.1365
  154SAPE   H7Y17096   3.233   0.902   5.429 -2.7879 -0.2372 -1.9338
  154SAPE   C3817097   3.095   0.736   5.380 -0.1260 -0.1734 -0.9228
  154SAPE   H8X17098   3.009   0.807   5.388 -0.3589 -0.5831  0.5987
  154SAPE   H8Y17099   3.075   0.641   5.433 -2.8109  0.3029 -0.9071
  154SAPE   C3917100   3.126   0.703   5.239 -0.1034  0.0129  0.6457
  154SAPE   H9X17101   3.220   0.645   5.236  1.3883  2.1509 -4.4201
  154SAPE   H9Y17102   3.153   0.795   5.183  0.2557 -0.0803  0.6651
  154SAPE  C31017103   3.002   0.634   5.171  0.3926  0.6236  0.0304
  154SAPE  H10X17104   2.979   0.693   5.080  1.7202  2.5095  0.8468
  154SAPE  H10Y17105   2.915   0.643   5.240 -0.7022  0.6661 -1.3173
  154SAPE  C31117106   3.028   0.488   5.132  0.3290 -0.4703 -0.0263
  154SAPE  H11X17107   2.933   0.435   5.111 -0.2425 -0.9159  3.2305
  154SAPE  H11Y17108   3.083   0.441   5.216  0.5490  0.4348  0.3524
  154SAPE  C31217109   3.117   0.469   5.012  0.4044  0.0735 -0.2010
  154SAPE  H12X17110   3.216   0.512   5.039  0.3565 -1.0045  1.9060
  154SAPE  H12Y17111   3.071   0.527   4.929 -0.1446 -0.1199 -0.0362
  154SAPE  C31317112   3.146   0.323   4.970  0.4062 -0.4895 -0.0577
  154SAPE  H13X17113   3.180   0.260   5.055  0.1489 -1.6609 -0.8073
  154SAPE  H13Y17114   3.225   0.319   4.892  0.1840 -3.1720 -0.2312
  154SAPE  C31417115   3.020   0.257   4.910 -0.5391  0.3968 -0.0499
  154SAPE  H14X17116   2.965   0.346   4.871 -0.2893  1.4977  1.9377
  154SAPE  H14Y17117   2.957   0.212   4.990  0.1007 -0.7689 -0.1938
  154SAPE  C31517118   3.033   0.145   4.804 -0.3135  0.4289  0.3369
  154SAPE  H15X17119   2.932   0.114   4.769  0.0134  1.5959 -1.8140
  154SAPE  H15Y17120   3.097   0.064   4.845 -0.3186  0.6395  0.7662
  154SAPE  C31617121   3.117   0.193   4.682 -0.0984 -0.4207 -0.1657
  154SAPE  H16X17122   3.224   0.215   4.704 -0.3248  0.4754  0.0746
  154SAPE  H16Y17123   3.071   0.291   4.657  0.9622 -0.1185 -0.9765
  154SAPE  C31717124   3.103   0.100   4.562 -0.4584 -0.2123  0.1983
  154SAPE  H17X17125   2.994   0.097   4.536 -0.2272 -1.3290 -0.7446
  154SAPE  H17Y17126   3.132  -0.001   4.597  0.9757  0.4368  0.9458
  154SAPE  C31817127   3.183   0.142   4.431  0.3334  0.0243 -0.4120
  154SAPE  H18X17128   3.133   0.217   4.367 -0.8145 -1.6419 -1.5550
  154SAPE  H18Y17129   3.208   0.054   4.367 -0.0482 -0.7590  0.4874
  154SAPE  H18Z17130   3.282   0.177   4.468 -0.3430  3.0147 -1.2087
  155SAPE     N17131   4.564   5.520   6.793 -0.4791 -0.0906 -0.1634
  155SAPE   HN117132   4.623   5.444   6.832 -0.9221  0.5222  1.7901
  155SAPE   HN217133   4.574   5.607   6.849 -0.4523 -1.6427  2.3770
  155SAPE   HN317134   4.463   5.495   6.794 -1.4159  3.1537  0.3063
  155SAPE   C1217135   4.600   5.537   6.654 -0.7297 -0.0419 -0.4160
  155SAPE  H12A17136   4.581   5.446   6.592 -1.0961  0.7028 -1.4340
  155SAPE  H12B17137   4.710   5.547   6.648 -0.7659 -0.2812 -1.7952
  155SAPE   C1117138   4.551   5.665   6.589 -0.9428  0.0989 -0.1636
  155SAPE  H11A17139   4.442   5.669   6.569 -0.6875  0.6130 -1.5366
  155SAPE  H11B17140   4.607   5.675   6.494  1.4316 -1.8737  0.8967
  155SAPE     P17141   4.716   5.868   6.658 -0.2220 -0.3372  0.0313
  155SAPE   O1317142   4.673   6.003   6.626 -0.6698  0.0756 -0.2469
  155SAPE   O1417143   4.800   5.847   6.782 -0.0381  0.3725 -0.0939
  155SAPE   O1217144   4.591   5.776   6.671 -0.1281 -0.6476  0.4652
  155SAPE   O1117145   4.798   5.808   6.537 -0.4182  0.1651 -0.2308
  155SAPE    C117146   4.936   5.849   6.528  0.1557 -0.5423 -0.3542
  155SAPE    HA17147   4.979   5.915   6.606 -0.4056 -1.0159  0.3656
  155SAPE    HB17148   4.999   5.757   6.531 -0.6962 -1.1444 -0.6437
  155SAPE    C217149   4.973   5.914   6.392  0.2693 -0.4035  0.2276
  155SAPE    HS17150   5.082   5.900   6.381  0.4056 -0.1022  1.1732
  155SAPE   O2117151   4.916   6.044   6.386 -0.2386 -0.4088 -0.1689
  155SAPE   C2117152   5.003   6.144   6.400 -0.5571 -0.5129 -0.0495
  155SAPE   O2217153   5.120   6.137   6.426  0.0273  0.1868 -0.4702
  155SAPE   C2217154   4.942   6.273   6.360  0.1311 -0.1771  0.6710
  155SAPE   H2R17155   4.839   6.270   6.320  1.3894  1.5711 -3.1610
  155SAPE   H2S17156   4.945   6.338   6.450  1.2587  2.1799 -0.9664
  155SAPE    C317157   4.925   5.829   6.273  0.3962 -0.4877 -0.2451
  155SAPE    HX17158   4.814   5.822   6.279  0.2541  1.0217 -0.5091
  155SAPE    HY17159   4.969   5.728   6.286  1.6409  0.1162  0.4551
  155SAPE   O3117160   4.960   5.884   6.144  0.1767  0.1276 -0.1570
  155SAPE   C3117161   4.939   5.801   6.049 -0.6548 -0.8604  0.3380
  155SAPE   O3217162   4.896   5.689   6.055  0.6646  0.6065 -0.3416
  155SAPE   C3217163   4.983   5.865   5.918 -0.0275 -0.0022  0.8667
  155SAPE   H2X17164   5.085   5.904   5.934 -0.2031 -0.0275  2.1949
  155SAPE   H2Y17165   4.923   5.957   5.900  1.2937  0.4934 -1.3476
  155SAPE   C2317166   5.032   6.330   6.241  0.8011  0.6020  0.1172
  155SAPE   H3R17167   5.044   6.248   6.167 -1.1951 -0.3292  0.7689
  155SAPE   H3S17168   5.136   6.352   6.274  1.2562 -1.2436  0.0515
  155SAPE   C2417169   4.979   6.455   6.164 -0.7715 -0.2423 -0.6398
  155SAPE   H4R17170   5.048   6.496   6.088 -1.4271 -1.0763 -1.7136
  155SAPE   H4S17171   4.970   6.535   6.240  0.4310  0.4719 -1.2259
  155SAPE   C2517172   4.839   6.435   6.100 -0.2720 -0.6982 -0.1565
  155SAPE   H5R17173   4.763   6.387   6.163  1.4415 -0.4422  2.2530
  155SAPE   C2617174   4.809   6.483   5.977 -0.7237 -0.3518  0.2100
  155SAPE   H6R17175   4.722   6.448   5.919 -1.7639  0.6942  1.0860
  155SAPE   C2717176   4.911   6.569   5.891 -0.1419 -0.0982  0.3741
  155SAPE   H7R17177   4.976   6.507   5.826 -2.9807 -1.6875 -1.1807
  155SAPE   H7S17178   4.977   6.633   5.953  0.2338  2.3109 -2.2883
  155SAPE   C2817179   4.843   6.650   5.796 -0.1231 -0.2629 -0.1250
  155SAPE   H8R17180   4.823   6.748   5.842 -1.1155 -0.3997 -0.2414
  155SAPE   C2917181   4.785   6.614   5.678  0.5353 -0.6330  0.1145
  155SAPE   H9R17182   4.722   6.686   5.624  1.9648  0.2762 -0.3976
  155SAPE  C21017183   4.801   6.486   5.602 -0.2137  0.1583  0.2954
  155SAPE  H10R17184   4.704   6.440   5.574  0.3775 -0.1278 -1.3850
  155SAPE  H10S17185   4.858   6.419   5.670  0.5610  2.0322  1.5869
  155SAPE  C21117186   4.886   6.498   5.481  0.0928  0.4582  0.4381
  155SAPE  H11R17187   4.992   6.479   5.508  0.1205  0.4590  0.3283
  155SAPE  C21217188   4.858   6.511   5.353 -0.1147  0.5469 -0.3137
  155SAPE  H12R17189   4.934   6.525   5.275  0.2905 -0.5047 -0.1248
  155SAPE  C21317190   4.721   6.536   5.302 -0.3485 -0.7741  0.5757
  155SAPE  H13R17191   4.696   6.644   5.307 -1.8201 -1.1571  2.4132
  155SAPE  H13S17192   4.639   6.500   5.367  1.9680  0.3877  4.4563
  155SAPE  C21417193   4.688   6.494   5.160  0.6443  0.1527  0.1089
  155SAPE  H14R17194   4.647   6.392   5.148  1.1938 -0.0958  0.3245
  155SAPE  C21517195   4.697   6.575   5.049 -0.1640 -0.1020  0.8932
  155SAPE  H15R17196   4.653   6.542   4.954  0.6169 -2.3385  1.2267
  155SAPE  C21617197   4.731   6.724   5.046  0.4842 -0.7173 -0.5270
  155SAPE  H16R17198   4.760   6.759   5.148 -2.7637 -0.3419  0.3720
  155SAPE  H16S17199   4.638   6.779   5.021  0.3712 -1.3111 -1.4457
  155SAPE  C21717200   4.837   6.749   4.938 -0.1908  0.4743  0.0508
  155SAPE  H17R17201   4.821   6.692   4.844  3.4102  0.2215 -0.5581
  155SAPE  H17S17202   4.932   6.709   4.979  0.2224  0.5087 -0.8501
  155SAPE  C21817203   4.873   6.899   4.908 -0.3700  0.5191  0.5073
  155SAPE  H18R17204   4.906   6.944   5.004 -1.7469  1.2760  0.6543
  155SAPE  H18S17205   4.774   6.947   4.895  0.2182  1.8368  0.7882
  155SAPE  C21917206   4.976   6.920   4.792  0.1464 -0.5745  0.0475
  155SAPE  H19R17207   4.924   6.889   4.699 -1.3869  0.2828  0.5741
  155SAPE  H19S17208   5.071   6.869   4.815  0.0621  0.3062  2.6580
  155SAPE  C22017209   5.005   7.074   4.772 -0.2709  0.3772 -0.2089
  155SAPE  H20R17210   5.046   7.124   4.862  1.7581 -1.4667 -0.0252
  155SAPE  H20S17211   4.913   7.123   4.733 -0.1467 -1.2111 -2.7631
  155SAPE  H20T17212   5.083   7.089   4.695  1.0189 -1.5985  0.6221
  155SAPE   C3317213   4.974   5.786   5.789  0.5675  0.3628  0.3340
  155SAPE   H3X17214   4.868   5.798   5.758 -0.3207 -2.1800  1.9669
  155SAPE   H3Y17215   4.994   5.678   5.808 -1.0787  0.1376  0.9814
  155SAPE   C3417216   5.051   5.838   5.670  0.2198 -0.0439 -0.1624
  155SAPE   H4X17217   5.153   5.843   5.713 -0.1486 -0.1274  0.7304
  155SAPE   H4Y17218   5.018   5.940   5.643 -0.7870 -0.3759 -0.2369
  155SAPE   C3517219   5.057   5.751   5.545 -0.0590 -0.5490 -0.2062
  155SAPE   H5X17220   4.952   5.720   5.526 -0.0538  0.0758 -1.3342
  155SAPE   H5Y17221   5.109   5.655   5.563  0.1038 -0.6092 -0.9698
  155SAPE   C3617222   5.105   5.819   5.413 -0.1778  0.3217 -0.0744
  155SAPE   H6X17223   5.213   5.834   5.434  0.3761 -0.2738 -2.1691
  155SAPE   H6Y17224   5.052   5.914   5.390  0.2333  0.8825  1.2162
  155SAPE   C3717225   5.086   5.728   5.285 -0.2287  0.5588 -0.0570
  155SAPE   H7X17226   5.132   5.628   5.302  0.0120  1.0782  2.8361
  155SAPE   H7Y17227   5.159   5.763   5.210 -0.3334 -1.7061 -1.3298
  155SAPE   C3817228   4.952   5.723   5.215  0.2881  0.6226  0.7221
  155SAPE   H8X17229   4.911   5.825   5.199 -1.6800 -0.2471 -0.2172
  155SAPE   H8Y17230   4.868   5.677   5.271 -2.1633  1.2075 -2.1863
  155SAPE   C3917231   4.963   5.662   5.069  0.4140  0.7644 -0.3735
  155SAPE   H9X17232   5.051   5.595   5.060 -0.4395 -0.3795 -0.5552
  155SAPE   H9Y17233   4.978   5.740   4.992  3.1672  1.2922  0.5918
  155SAPE  C31017234   4.833   5.574   5.038  0.3456 -0.6203 -0.9656
  155SAPE  H10X17235   4.739   5.625   5.070  1.9552  0.8850  1.7271
  155SAPE  H10Y17236   4.827   5.485   5.104 -1.1088  1.0748  1.3411
  155SAPE  C31117237   4.826   5.522   4.897  0.2622  0.7683  0.8135
  155SAPE  H11X17238   4.741   5.450   4.897 -0.7631  1.9383  0.5068
  155SAPE  H11Y17239   4.922   5.468   4.885 -0.1517 -0.0899  1.2667
  155SAPE  C31217240   4.816   5.618   4.781 -0.5961 -0.8093  0.8814
  155SAPE  H12X17241   4.904   5.685   4.774 -1.8131  0.8083  0.3359
  155SAPE  H12Y17242   4.726   5.683   4.787 -0.0533  0.2087 -1.1014
  155SAPE  C31317243   4.816   5.546   4.641 -0.0345 -0.4162  0.1856
  155SAPE  H13X17244   4.721   5.489   4.629  0.9603 -2.0056 -0.3497
  155SAPE  H13Y17245   4.907   5.487   4.618 -0.6518 -0.7310 -1.6630
  155SAPE  C31417246   4.807   5.653   4.530  0.2915  0.0818  0.0390
  155SAPE  H14X17247   4.886   5.730   4.536 -0.3053  0.6385  1.1287
  155SAPE  H14Y17248   4.711   5.705   4.553  0.5297  0.4154  0.2870
  155SAPE  C31517249   4.804   5.593   4.389  0.6529  0.0302  0.8803
  155SAPE  H15X17250   4.716   5.528   4.372  0.9262 -0.1153 -0.0629
  155SAPE  H15Y17251   4.894   5.531   4.368  0.3034 -0.6434  1.3420
  155SAPE  C31617252   4.797   5.700   4.281 -0.1519  0.2243  0.7620
  155SAPE  H16X17253   4.902   5.734   4.289  0.6742 -1.9844  0.1230
  155SAPE  H16Y17254   4.729   5.787   4.296 -1.2097 -0.1534 -1.4111
  155SAPE  C31717255   4.763   5.625   4.148  0.6540  0.8137  0.1220
  155SAPE  H17X17256   4.770   5.516   4.170  0.1770  0.9023  0.7595
  155SAPE  H17Y17257   4.837   5.652   4.070  0.8778 -1.1454 -0.3944
  155SAPE  C31817258   4.615   5.650   4.103 -0.2063 -0.0120 -0.4859
  155SAPE  H18X17259   4.593   5.758   4.088  1.3693  0.1369 -1.9819
  155SAPE  H18Y17260   4.546   5.619   4.185  0.4916 -0.1234  0.0649
  155SAPE  H18Z17261   4.596   5.589   4.012  1.6013 -2.1759  0.5018
  156SAPE     N17262   0.077   0.235   6.275  0.6528  0.7940 -0.5976
  156SAPE   HN117263   0.135   0.170   6.331 -1.2883 -1.6736 -1.2781
  156SAPE   HN217264   0.117   0.250   6.180 -0.4304  2.5918 -0.8289
  156SAPE   HN317265   0.080   0.328   6.321 -0.3252  0.2914  0.5468
  156SAPE   C1217266  -0.066   0.196   6.261  0.0125 -1.5128  0.3082
  156SAPE  H12A17267  -0.100   0.183   6.366  0.1383 -2.4658  0.2418
  156SAPE  H12B17268  -0.068   0.099   6.206 -1.0636 -0.4246 -1.6739
  156SAPE   C1117269  -0.143   0.314   6.198  0.1162  0.3567 -0.4672
  156SAPE  H11A17270  -0.241   0.268   6.171  1.1431 -1.4213 -1.4428
  156SAPE  H11B17271  -0.096   0.343   6.102  0.2877 -0.2862 -0.5838
  156SAPE     P17272  -0.268   0.458   6.366  0.4440 -0.0794  0.2455
  156SAPE   O1317273  -0.284   0.348   6.470 -0.3079  0.4065  0.6020
  156SAPE   O1417274  -0.255   0.597   6.417 -0.5041  0.0904  0.2507
  156SAPE   O1217275  -0.142   0.432   6.277 -0.2067 -0.8704  0.4983
  156SAPE   O1117276  -0.382   0.451   6.257 -0.6762 -0.6969  0.3596
  156SAPE    C117277  -0.408   0.549   6.159 -0.0739  0.5094  0.5897
  156SAPE    HA17278  -0.506   0.599   6.175 -0.9887 -0.9898 -0.0123
  156SAPE    HB17279  -0.331   0.628   6.154  0.7603 -0.2965  0.3356
  156SAPE    C217280  -0.391   0.493   6.009 -0.1211 -0.4158  0.0456
  156SAPE    HS17281  -0.281   0.485   5.995 -0.1739  0.1661 -0.7480
  156SAPE   O2117282  -0.456   0.581   5.910 -0.5884  0.0454  0.0412
  156SAPE   C2117283  -0.390   0.694   5.884  0.1015  0.4459 -0.2812
  156SAPE   O2217284  -0.281   0.725   5.926  0.5466  0.5737 -0.0940
  156SAPE   C2217285  -0.465   0.773   5.778  0.6530  0.0365 -0.2186
  156SAPE   H2R17286  -0.527   0.700   5.721 -1.5833  2.0169 -0.5155
  156SAPE   H2S17287  -0.536   0.842   5.829 -0.1395  0.3793 -1.7075
  156SAPE    C317288  -0.456   0.359   5.986 -0.3710 -0.2334 -0.0516
  156SAPE    HX17289  -0.566   0.364   5.998 -0.4516 -0.0270 -0.8358
  156SAPE    HY17290  -0.429   0.284   6.063 -1.0970 -1.0932 -0.6105
  156SAPE   O3117291  -0.418   0.295   5.862  0.3532 -0.4708 -0.2298
  156SAPE   C3117292  -0.505   0.302   5.761  0.6310  0.0831  0.3387
  156SAPE   O3217293  -0.622   0.324   5.768 -0.1212  0.3429 -0.3260
  156SAPE   C3217294  -0.428   0.277   5.627  0.1256  0.7286  0.1416
  156SAPE   H2X17295  -0.501   0.251   5.547 -0.7305  1.5303  0.6352
  156SAPE   H2Y17296  -0.357   0.194   5.648  0.7298  0.9348 -1.0352
  156SAPE   C2317297  -0.382   0.860   5.683  0.1130 -0.2225  0.1454
  156SAPE   H3R17298  -0.324   0.930   5.747  0.4237 -0.8995  0.6221
  156SAPE   H3S17299  -0.455   0.924   5.629  0.6061  0.3939  0.2009
  156SAPE   C2417300  -0.299   0.780   5.583 -0.2822  0.4208  0.6505
  156SAPE   H4R17301  -0.371   0.711   5.532 -0.0096 -1.2701  2.4272
  156SAPE   H4S17302  -0.221   0.714   5.626 -1.3274 -1.2528  0.0801
  156SAPE   C2517303  -0.232   0.852   5.469  0.5540  0.0052  0.0913
  156SAPE   H5R17304  -0.148   0.912   5.506  1.4669 -2.4405  2.2414
  156SAPE   C2617305  -0.277   0.859   5.342 -0.1373 -0.4730 -0.7400
  156SAPE   H6R17306  -0.218   0.919   5.272  1.5701 -0.4080  0.6648
  156SAPE   C2717307  -0.391   0.776   5.283  0.3902  0.0527  0.3732
  156SAPE   H7R17308  -0.402   0.681   5.340 -0.8321 -0.1474 -0.1620
  156SAPE   H7S17309  -0.358   0.745   5.182  0.2138 -0.7652  0.5602
  156SAPE   C2817310  -0.518   0.855   5.270 -0.0330 -0.7480  0.1924
  156SAPE   H8R17311  -0.514   0.943   5.336  2.3777 -0.8511  0.2720
  156SAPE   C2917312  -0.632   0.839   5.204 -0.0693 -0.6819  0.6456
  156SAPE   H9R17313  -0.710   0.917   5.205  0.4988 -0.1053  0.4896
  156SAPE  C21017314  -0.663   0.722   5.117  0.0909 -1.0832  0.1570
  156SAPE  H10R17315  -0.659   0.635   5.186 -0.9193  1.2971  3.4814
  156SAPE  H10S17316  -0.582   0.714   5.042  1.1082  4.3018  0.2393
  156SAPE  C21117317  -0.791   0.723   5.041  0.5540  0.3612 -0.0609
  156SAPE  H11R17318  -0.881   0.754   5.096  0.6752  1.8367 -0.6454
  156SAPE  C21217319  -0.806   0.685   4.912 -0.2966  0.5471  0.4404
  156SAPE  H12R17320  -0.907   0.695   4.868 -0.0568 -1.7288 -0.7723
  156SAPE  C21317321  -0.697   0.634   4.820 -0.6952 -0.0032 -0.5457
  156SAPE  H13R17322  -0.596   0.633   4.866 -1.4253 -1.0585  1.1191
  156SAPE  H13S17323  -0.680   0.714   4.744  0.3785 -0.3724 -0.7162
  156SAPE  C21417324  -0.707   0.504   4.737  0.0135 -0.9126 -0.1870
  156SAPE  H14R17325  -0.669   0.412   4.782  1.0664 -0.6188 -0.4556
  156SAPE  C21517326  -0.747   0.504   4.605  0.2535 -0.2391 -0.3440
  156SAPE  H15R17327  -0.751   0.405   4.557  1.0750 -0.7742  0.6805
  156SAPE  C21617328  -0.792   0.620   4.520 -0.5082 -0.8484 -0.1032
  156SAPE  H16R17329  -0.705   0.689   4.519  1.3600 -3.0705 -0.2071
  156SAPE  H16S17330  -0.878   0.667   4.572  0.3987 -0.2636  0.9193
  156SAPE  C21717331  -0.818   0.576   4.371 -0.3021 -0.4647 -0.2862
  156SAPE  H17R17332  -0.888   0.489   4.374 -2.2848  1.0093  3.4482
  156SAPE  H17S17333  -0.723   0.544   4.325 -0.9114 -1.0797 -1.1364
  156SAPE  C21817334  -0.885   0.685   4.293  0.7786 -0.2568 -0.4590
  156SAPE  H18R17335  -0.816   0.771   4.280  1.9190 -1.3295 -1.8442
  156SAPE  H18S17336  -0.973   0.719   4.351  0.9527 -0.3015 -0.1644
  156SAPE  C21917337  -0.938   0.643   4.153 -0.0340 -1.0182 -0.2956
  156SAPE  H19R17338  -0.997   0.551   4.171 -0.0871 -0.7094  1.1898
  156SAPE  H19S17339  -0.859   0.618   4.079 -1.7628  1.5858 -3.2963
  156SAPE  C22017340  -1.021   0.758   4.093  0.4758 -0.2806 -0.3234
  156SAPE  H20R17341  -0.962   0.851   4.082 -0.2241  0.1670 -0.3868
  156SAPE  H20S17342  -1.102   0.787   4.164  1.4973  1.7594  0.0718
  156SAPE  H20T17343  -1.063   0.738   3.992  1.0710  2.2666 -1.1342
  156SAPE   C3317344  -0.339   0.391   5.569  0.6580  0.6704 -0.2032
  156SAPE   H3X17345  -0.270   0.445   5.637  1.4510  0.2452 -0.6400
  156SAPE   H3Y17346  -0.411   0.466   5.530  0.2385  0.2870 -0.1777
  156SAPE   C3417347  -0.252   0.341   5.454 -0.1270 -0.5240  0.2654
  156SAPE   H4X17348  -0.312   0.265   5.400  0.7774  1.1039 -3.3358
  156SAPE   H4Y17349  -0.160   0.291   5.493  0.4306  0.8768  0.8022
  156SAPE   C3517350  -0.220   0.451   5.346  0.4114  0.7001  0.1256
  156SAPE   H5X17351  -0.161   0.536   5.387 -1.3245  1.7340  0.5678
  156SAPE   H5Y17352  -0.317   0.500   5.322  0.7919  1.5601  0.3212
  156SAPE   C3617353  -0.161   0.386   5.222 -0.2790  0.4942 -0.6508
  156SAPE   H6X17354  -0.202   0.286   5.198  2.2441 -0.7332 -0.2547
  156SAPE   H6Y17355  -0.051   0.376   5.241 -0.0176  0.7600 -1.9607
  156SAPE   C3717356  -0.175   0.478   5.097 -0.0294  0.0463  0.4887
  156SAPE   H7X17357  -0.105   0.563   5.107  0.4689 -0.4350  1.1231
  156SAPE   H7Y17358  -0.277   0.522   5.086 -0.0593  0.6238  2.7342
  156SAPE   C3817359  -0.142   0.416   4.957  0.6583  0.0026 -0.1210
  156SAPE   H8X17360  -0.212   0.331   4.941 -0.9205  1.2717 -0.2945
  156SAPE   H8Y17361  -0.046   0.364   4.974 -0.6074 -2.3357  0.3197
  156SAPE   C3917362  -0.146   0.495   4.831  0.4849 -0.5248 -0.1960
  156SAPE   H9X17363  -0.121   0.435   4.741 -0.9347  0.9585 -1.6497
  156SAPE   H9Y17364  -0.065   0.571   4.829  0.2234 -0.1540  1.7374
  156SAPE  C31017365  -0.289   0.558   4.805  1.4357 -0.2575 -0.1093
  156SAPE  H10X17366  -0.315   0.626   4.888  0.1604  1.8791 -2.1202
  156SAPE  H10Y17367  -0.359   0.471   4.806  1.2339 -0.0919  1.4715
  156SAPE  C31117368  -0.298   0.621   4.666 -0.6926  0.0591 -0.3490
  156SAPE  H11X17369  -0.301   0.542   4.588 -2.2054  0.5238 -0.7829
  156SAPE  H11Y17370  -0.199   0.668   4.650  0.7436 -2.5179  0.3359
  156SAPE  C31217371  -0.404   0.735   4.647 -0.3489 -0.3960 -0.3780
  156SAPE  H12X17372  -0.423   0.801   4.733  0.5850 -0.9234  0.2545
  156SAPE  H12Y17373  -0.496   0.675   4.629 -0.8821  0.3169 -0.0348
  156SAPE  C31317374  -0.383   0.813   4.521 -0.2341  0.3435 -0.3393
  156SAPE  H13X17375  -0.386   0.736   4.441 -1.0257 -3.2224  2.8177
  156SAPE  H13Y17376  -0.283   0.860   4.529 -0.5207  0.8082  0.7423
  156SAPE  C31417377  -0.476   0.939   4.497 -0.2474  0.2913 -0.0606
  156SAPE  H14X17378  -0.423   1.019   4.552 -1.2033  1.0995 -0.2837
  156SAPE  H14Y17379  -0.576   0.919   4.542  0.2731 -0.1998  0.8905
  156SAPE  C31517380  -0.496   0.989   4.353  0.6689  0.1251 -0.5440
  156SAPE  H15X17381  -0.564   0.925   4.293  0.9688 -0.7715  0.0650
  156SAPE  H15Y17382  -0.403   1.000   4.293  1.6030  2.5940  1.1816
  156SAPE  C31617383  -0.566   1.125   4.360 -0.1657 -0.7858  0.7435
  156SAPE  H16X17384  -0.492   1.190   4.413  2.2065 -1.5110 -1.4795
  156SAPE  H16Y17385  -0.640   1.124   4.443  1.5287 -1.2025  2.3345
  156SAPE  C31717386  -0.630   1.181   4.231  0.3308  0.0253 -0.4380
  156SAPE  H17X17387  -0.552   1.196   4.153  0.3124 -0.0404 -0.4697
  156SAPE  H17Y17388  -0.657   1.286   4.253  0.0863 -0.2964  0.8899
  156SAPE  C31817389  -0.741   1.096   4.178  0.7041 -0.0486  0.2832
  156SAPE  H18X17390  -0.830   1.084   4.242  0.6151  2.4009  0.6995
  156SAPE  H18Y17391  -0.700   1.004   4.130  1.1611  1.3628 -2.2223
  156SAPE  H18Z17392  -0.781   1.143   4.086 -0.6154 -2.0152 -0.2115
  157SAPE     N17393   0.007   6.177   6.652  0.7167 -0.7095 -0.0673
  157SAPE   HN117394  -0.026   6.274   6.636 -0.8807 -0.8252  2.0072
  157SAPE   HN217395  -0.079   6.130   6.689 -0.1603  1.0123  0.2007
  157SAPE   HN317396   0.089   6.182   6.715  1.5759  4.5662 -1.1479
  157SAPE   C1217397   0.046   6.123   6.520 -0.1957  0.0303 -0.1582
  157SAPE  H12A17398   0.052   6.012   6.529 -1.6166 -0.0636 -0.2248
  157SAPE  H12B17399   0.148   6.155   6.490 -0.0940 -1.3378 -1.3908
  157SAPE   C1117400  -0.059   6.161   6.418  0.0906 -0.7661  0.4119
  157SAPE  H11A17401  -0.156   6.112   6.441 -0.4690  1.5674  3.7622
  157SAPE  H11B17402  -0.034   6.139   6.312  0.8602  0.4130  0.3303
  157SAPE     P17403  -0.043   6.409   6.347 -0.4198 -0.3006  0.0807
  157SAPE   O1317404  -0.159   6.498   6.308  0.0468 -0.0212  0.1174
  157SAPE   O1417405   0.077   6.464   6.417 -0.3599  0.1834  0.1149
  157SAPE   O1217406  -0.089   6.294   6.439 -0.4299  0.4134 -0.3343
  157SAPE   O1117407   0.010   6.336   6.213 -0.1090  1.0388  0.2409
  157SAPE    C117408  -0.024   6.396   6.088  0.1364 -0.2294  0.1413
  157SAPE    HA17409   0.004   6.332   6.001 -2.6682 -0.8717 -0.3790
  157SAPE    HB17410  -0.132   6.419   6.081 -0.1486 -0.5280  2.7165
  157SAPE    C217411   0.035   6.541   6.069 -0.7938 -0.0679 -0.3793
  157SAPE    HS17412  -0.031   6.610   6.127 -0.8824  0.0451 -0.6135
  157SAPE   O2117413   0.025   6.578   5.932 -0.3519 -0.5059  0.0876
  157SAPE   C2117414  -0.092   6.608   5.879  0.1335 -0.7598 -0.6713
  157SAPE   O2217415  -0.200   6.592   5.931 -0.4562 -0.3759 -0.1735
  157SAPE   C2217416  -0.056   6.666   5.738  0.3726 -0.1385  0.0005
  157SAPE   H2R17417  -0.150   6.704   5.692  0.5342 -0.2322 -0.4095
  157SAPE   H2S17418   0.021   6.740   5.767  0.5862 -0.5380  0.4640
  157SAPE    C317419   0.183   6.550   6.116  0.0011 -0.7962  0.4855
  157SAPE    HX17420   0.189   6.533   6.225 -0.0406 -1.8396  0.3328
  157SAPE    HY17421   0.241   6.643   6.096  1.9603 -1.7942  1.2588
  157SAPE   O3117422   0.252   6.440   6.052 -0.5105 -0.2396  0.0592
  157SAPE   C3117423   0.323   6.466   5.948 -0.7488  0.2685  0.5377
  157SAPE   O3217424   0.357   6.575   5.907 -0.5968 -0.3183  0.0585
  157SAPE   C3217425   0.348   6.334   5.878 -0.5995  0.7089  0.0054
  157SAPE   H2X17426   0.253   6.287   5.845  0.1327  1.3651 -3.3450
  157SAPE   H2Y17427   0.403   6.266   5.946 -2.5507 -0.9214  0.0420
  157SAPE   C2317428   0.002   6.540   5.666  0.4714 -0.3214  0.2472
  157SAPE   H3R17429   0.081   6.496   5.729  0.2296 -3.3724 -1.4080
  157SAPE   H3S17430   0.061   6.577   5.580 -0.1178 -1.3190 -0.6035
  157SAPE   C2417431  -0.102   6.446   5.613  0.0869 -0.0805  0.1442
  157SAPE   H4R17432  -0.176   6.496   5.547  1.0501 -1.6240 -2.2386
  157SAPE   H4S17433  -0.151   6.393   5.697 -1.7122  0.4141 -0.5459
  157SAPE   C2517434  -0.024   6.346   5.540 -0.0408  0.0919  0.4837
  157SAPE   H5R17435   0.016   6.266   5.605  1.8029 -0.0105 -0.7023
  157SAPE   C2617436  -0.005   6.328   5.406 -0.9386  0.4456 -0.2221
  157SAPE   H6R17437   0.056   6.243   5.371 -0.3581  0.2320  1.2530
  157SAPE   C2717438  -0.050   6.423   5.299 -0.2688  0.1042  0.0385
  157SAPE   H7R17439  -0.047   6.522   5.348  2.9457  0.4156 -0.5394
  157SAPE   H7S17440  -0.154   6.397   5.272  0.2690 -0.6233 -1.4653
  157SAPE   C2817441   0.032   6.433   5.173  0.0877 -0.1561  0.3203
  157SAPE   H8R17442   0.098   6.346   5.162  2.0420  1.2699  0.0235
  157SAPE   C2917443   0.029   6.537   5.087 -1.0019 -0.0723  0.6113
  157SAPE   H9R17444   0.105   6.545   5.007 -1.1394  0.3451  0.5156
  157SAPE  C21017445  -0.046   6.666   5.110 -0.1797  0.8699  0.7968
  157SAPE  H10R17446  -0.062   6.685   5.218  0.4740  1.4157  0.8031
  157SAPE  H10S17447  -0.146   6.651   5.064  0.7180 -1.4410 -0.6251
  157SAPE  C21117448   0.007   6.798   5.059 -0.1856  0.2652 -0.2373
  157SAPE  H11R17449   0.054   6.872   5.126 -0.9247  0.8195 -0.3170
  157SAPE  C21217450   0.002   6.836   4.928 -0.0539  0.1598  0.3144
  157SAPE  H12R17451   0.046   6.935   4.906  1.7891 -0.0593  2.6265
  157SAPE  C21317452  -0.075   6.758   4.823 -0.1552 -0.6779  0.1814
  157SAPE  H13R17453  -0.182   6.788   4.827  0.1477  0.7745 -1.5514
  157SAPE  H13S17454  -0.074   6.650   4.848 -0.3201 -1.0030 -1.1468
  157SAPE  C21417455  -0.029   6.771   4.677 -0.3475  0.8660 -0.7269
  157SAPE  H14R17456   0.074   6.808   4.669  0.9989 -2.6032 -1.3014
  157SAPE  C21517457  -0.098   6.735   4.567  0.2443 -0.4926 -0.9546
  157SAPE  H15R17458  -0.059   6.769   4.470  0.7702  1.7354 -0.0329
  157SAPE  C21617459  -0.229   6.666   4.559 -0.5127 -0.1983  0.4248
  157SAPE  H16R17460  -0.308   6.744   4.546  0.8479  1.1482  0.0315
  157SAPE  H16S17461  -0.260   6.621   4.656  0.0871  0.7548  1.0758
  157SAPE  C21717462  -0.228   6.559   4.446 -0.3937 -0.5958  0.1772
  157SAPE  H17R17463  -0.316   6.495   4.470 -1.8731  1.7488  1.3663
  157SAPE  H17S17464  -0.139   6.496   4.468 -0.1282  0.0374  0.9425
  157SAPE  C21817465  -0.232   6.607   4.300 -0.7404  0.2700  0.3629
  157SAPE  H18R17466  -0.231   6.516   4.237 -2.8647  0.6386 -0.2951
  157SAPE  H18S17467  -0.137   6.659   4.275 -0.7239 -0.4615 -1.2112
  157SAPE  C21917468  -0.362   6.685   4.280  0.5115  0.1335 -0.1293
  157SAPE  H19R17469  -0.331   6.776   4.336  2.1368 -1.1319  1.1389
  157SAPE  H19S17470  -0.446   6.647   4.341  1.3554 -0.0642  0.9451
  157SAPE  C22017471  -0.387   6.725   4.134 -0.2068 -0.0669 -0.8254
  157SAPE  H20R17472  -0.426   6.646   4.067  1.0526 -0.4283 -1.1420
  157SAPE  H20S17473  -0.295   6.771   4.093 -1.1082  1.3326 -1.3950
  157SAPE  H20T17474  -0.455   6.813   4.145  1.9884  2.0252 -2.6388
  157SAPE   C3317475   0.429   6.340   5.746 -0.0578  0.6744  0.4968
  157SAPE   H3X17476   0.468   6.238   5.727  0.5936  0.9247  0.4830
  157SAPE   H3Y17477   0.515   6.406   5.767  0.0902  0.5196  0.3768
  157SAPE   C3417478   0.336   6.386   5.639 -0.2834 -0.3565 -0.1659
  157SAPE   H4X17479   0.279   6.480   5.656  1.2920  1.4455 -3.8257
  157SAPE   H4Y17480   0.263   6.304   5.621 -0.7047 -0.2327  0.9014
  157SAPE   C3517481   0.409   6.423   5.507  0.8601  0.0087  0.1887
  157SAPE   H5X17482   0.483   6.504   5.527  0.0628  1.2268 -1.6220
  157SAPE   H5Y17483   0.328   6.457   5.439 -0.7365 -0.5527  1.7292
  157SAPE   C3617484   0.483   6.300   5.449  1.2571 -1.0727 -0.1408
  157SAPE   H6X17485   0.405   6.223   5.430  0.9253 -1.2638  1.7733
  157SAPE   H6Y17486   0.549   6.257   5.527 -1.6364 -0.2320  3.0370
  157SAPE   C3717487   0.560   6.331   5.322 -0.0976  0.6475  0.4880
  157SAPE   H7X17488   0.632   6.249   5.302 -1.5248 -0.2666 -1.1426
  157SAPE   H7Y17489   0.619   6.417   5.360 -0.7858  1.5099 -0.3316
  157SAPE   C3817490   0.487   6.387   5.199 -0.1221  0.6041  0.1401
  157SAPE   H8X17491   0.439   6.479   5.238 -0.4398  0.3608  0.3306
  157SAPE   H8Y17492   0.407   6.315   5.172  0.5211  0.1842 -0.6819
  157SAPE   C3917493   0.565   6.410   5.069 -0.6209 -0.3296  0.3959
  157SAPE   H9X17494   0.612   6.316   5.031  1.3294 -0.6701  3.3825
  157SAPE   H9Y17495   0.658   6.470   5.078  0.8742 -2.1806 -1.5105
  157SAPE  C31017496   0.479   6.478   4.964  0.2965  0.5173 -0.3537
  157SAPE  H10X17497   0.544   6.505   4.878  0.5226  0.4692 -0.1970
  157SAPE  H10Y17498   0.432   6.573   4.999  2.5033  1.2682  0.8179
  157SAPE  C31117499   0.378   6.384   4.907 -0.9079 -0.4063 -0.1832
  157SAPE  H11X17500   0.297   6.389   4.982  0.9196 -2.7026  2.1120
  157SAPE  H11Y17501   0.420   6.281   4.900  0.4862  0.1299  0.1607
  157SAPE  C31217502   0.303   6.433   4.777  0.5465  0.3567 -0.1411
  157SAPE  H12X17503   0.376   6.476   4.705  0.3713 -1.8035 -1.7181
  157SAPE  H12Y17504   0.228   6.512   4.797  1.0300  0.9599 -0.6751
  157SAPE  C31317505   0.245   6.321   4.686  0.4008 -0.8112 -0.5133
  157SAPE  H13X17506   0.188   6.252   4.753  1.1496 -1.0615 -0.1240
  157SAPE  H13Y17507   0.334   6.262   4.658  1.1567  0.4594 -0.8250
  157SAPE  C31417508   0.179   6.371   4.562  0.2698  1.3715  0.2427
  157SAPE  H14X17509   0.252   6.442   4.518 -0.2724  1.2399 -0.9307
  157SAPE  H14Y17510   0.091   6.431   4.594 -1.5154 -1.1423  0.3199
  157SAPE  C31517511   0.136   6.268   4.455 -0.0543  0.3607  0.0894
  157SAPE  H15X17512   0.047   6.211   4.489  0.6597 -1.0352 -0.3389
  157SAPE  H15Y17513   0.221   6.198   4.445 -0.2343  0.0490  0.7196
  157SAPE  C31617514   0.112   6.337   4.315  0.5377  0.7026 -0.3738
  157SAPE  H16X17515   0.157   6.439   4.315  0.2912  0.8126 -0.0456
  157SAPE  H16Y17516   0.003   6.355   4.307  0.7865  1.7711 -1.6346
  157SAPE  C31717517   0.152   6.246   4.196 -0.4732 -1.0479 -0.5805
  157SAPE  H17X17518   0.099   6.289   4.108  1.7610  1.5800 -0.7824
  157SAPE  H17Y17519   0.113   6.143   4.207  0.2356 -1.4744 -1.9247
  157SAPE  C31817520   0.300   6.248   4.155  0.2997 -0.2711 -0.2321
  157SAPE  H18X17521   0.333   6.156   4.102 -0.8498  0.7466 -2.9391
  157SAPE  H18Y17522   0.361   6.263   4.246 -0.9783  0.2132  0.5647
  157SAPE  H18Z17523   0.321   6.329   4.082  0.5847  0.5069  0.7062
  158SAPE     N17524   3.017   4.743   6.828  0.0668  0.0631  0.2579
  158SAPE   HN117525   2.935   4.681   6.816  0.0120  0.2556 -0.3774
  158SAPE   HN217526   3.073   4.708   6.747  0.7223  0.2035  0.6418
  158SAPE   HN317527   3.064   4.721   6.918 -1.9261  0.3778  1.4207
  158SAPE   C1217528   2.995   4.886   6.821 -0.2530  0.8632 -0.3989
  158SAPE  H12A17529   3.091   4.938   6.802 -0.4253  1.3113 -0.0588
  158SAPE  H12B17530   2.944   4.918   6.914 -0.5433 -1.6499  0.3891
  158SAPE   C1117531   2.896   4.912   6.702  0.2494 -0.3122  0.2612
  158SAPE  H11A17532   2.817   4.837   6.722 -0.4338  0.6010  1.0984
  158SAPE  H11B17533   2.932   4.888   6.600 -0.7327 -1.0619  0.0781
  158SAPE     P17534   2.920   5.167   6.669 -0.1834 -0.0480  0.2520
  158SAPE   O1317535   2.882   5.282   6.756 -0.5388 -0.1198  0.0237
  158SAPE   O1417536   3.066   5.132   6.665  0.0406  0.2617 -0.4059
  158SAPE   O1217537   2.840   5.043   6.716  0.2364 -0.3892  0.0454
  158SAPE   O1117538   2.864   5.184   6.515 -0.4643 -0.3687  0.0470
  158SAPE    C117539   2.756   5.277   6.493  0.5483 -0.3075  0.1667
  158SAPE    HA17540   2.686   5.237   6.417  2.5805 -4.0145 -0.0191
  158SAPE    HB17541   2.698   5.291   6.587  2.0022 -0.2737  1.0855
  158SAPE    C217542   2.799   5.410   6.443 -0.0110 -0.6119  0.2889
  158SAPE    HS17543   2.851   5.456   6.530 -2.5903 -2.3916  2.9653
  158SAPE   O2117544   2.674   5.476   6.408  0.0929  0.4861  0.0103
  158SAPE   C2117545   2.677   5.608   6.419  0.2061 -0.0486  0.7152
  158SAPE   O2217546   2.768   5.672   6.462 -0.1927 -0.6144 -0.8897
  158SAPE   C2217547   2.543   5.669   6.374  0.4944  1.2376 -0.4776
  158SAPE   H2R17548   2.560   5.779   6.376  0.7686  1.1901  0.3865
  158SAPE   H2S17549   2.525   5.630   6.272 -0.0563  2.3494 -0.8194
  158SAPE    C317550   2.883   5.416   6.320  0.4430  0.0216 -0.0819
  158SAPE    HX17551   2.978   5.364   6.343 -0.4409 -0.5741  2.6298
  158SAPE    HY17552   2.907   5.523   6.300 -1.1875  0.0590 -2.2329
  158SAPE   O3117553   2.822   5.355   6.205  0.3633  0.3124 -0.6339
  158SAPE   C3117554   2.827   5.432   6.098  0.6745  0.4925 -0.0021
  158SAPE   O3217555   2.890   5.531   6.089  0.3346  0.2308 -0.3393
  158SAPE   C3217556   2.734   5.372   5.992  0.0971 -0.4207 -0.6817
  158SAPE   H2X17557   2.636   5.368   6.043 -0.1237 -3.3122 -1.1557
  158SAPE   H2Y17558   2.766   5.272   5.957 -2.4813 -2.4553  2.3067
  158SAPE   C2317559   2.434   5.630   6.470  0.0565  0.5135 -0.0995
  158SAPE   H3R17560   2.454   5.644   6.578  2.2271  0.8325 -0.4875
  158SAPE   H3S17561   2.424   5.520   6.454  2.7368  0.6987 -4.7003
  158SAPE   C2417562   2.298   5.697   6.449  0.6273  0.1364 -0.2781
  158SAPE   H4R17563   2.226   5.665   6.528  1.2953  0.5563  0.5142
  158SAPE   H4S17564   2.254   5.675   6.349  1.4290  0.4294 -0.6996
  158SAPE   C2517565   2.313   5.845   6.461  0.0563 -0.0278  0.2130
  158SAPE   H5R17566   2.393   5.875   6.530 -0.9405 -1.6123  2.1326
  158SAPE   C2617567   2.257   5.941   6.378  0.3513  0.4215  0.5514
  158SAPE   H6R17568   2.277   6.047   6.402  0.9150  1.0160 -2.2019
  158SAPE   C2717569   2.162   5.925   6.268 -0.0232 -0.7246  0.7832
  158SAPE   H7R17570   2.109   6.020   6.245  2.1127  0.4998  0.6193
  158SAPE   H7S17571   2.088   5.844   6.285 -0.7328 -0.6001 -1.4114
  158SAPE   C2817572   2.234   5.880   6.141 -0.4439  0.3422  0.4748
  158SAPE   H8R17573   2.331   5.830   6.154 -0.5221  0.0175 -0.1294
  158SAPE   C2917574   2.178   5.871   6.020 -0.9221 -0.6374  0.8115
  158SAPE   H9R17575   2.246   5.843   5.939 -0.1769 -0.6920  1.4457
  158SAPE  C21017576   2.039   5.916   5.992 -0.2774  0.1740  0.0771
  158SAPE  H10R17577   2.040   6.025   5.967 -0.8326  0.2504  0.3847
  158SAPE  H10S17578   1.969   5.904   6.077 -2.0913  0.8062 -1.2819
  158SAPE  C21117579   1.976   5.849   5.874  0.7248  0.9357  0.0605
  158SAPE  H11R17580   1.954   5.743   5.893 -0.6245  1.1022 -0.4856
  158SAPE  C21217581   1.953   5.897   5.746  1.1983  0.6043 -0.2362
  158SAPE  H12R17582   1.933   5.821   5.669  1.1384  1.1832 -0.8015
  158SAPE  C21317583   1.993   6.031   5.689 -0.1577 -0.0261  0.3634
  158SAPE  H13R17584   2.070   6.011   5.612 -0.7546 -1.0243  0.0121
  158SAPE  H13S17585   2.039   6.089   5.772 -1.0537  0.3649  0.5959
  158SAPE  C21417586   1.877   6.116   5.646 -0.2547  0.1691 -0.5560
  158SAPE  H14R17587   1.794   6.111   5.718 -1.2569  0.1098 -1.6763
  158SAPE  C21517588   1.859   6.180   5.534  1.3258 -0.1251  1.5954
  158SAPE  H15R17589   1.754   6.213   5.521  0.7459 -2.4520 -0.2930
  158SAPE  C21617590   1.938   6.199   5.412  0.3959  0.6036 -0.0925
  158SAPE  H16R17591   2.045   6.222   5.432  0.0203  1.5589  0.9533
  158SAPE  H16S17592   1.893   6.283   5.354 -1.7025 -1.2123 -1.2126
  158SAPE  C21717593   1.934   6.078   5.323  0.7330  0.1370  0.3040
  158SAPE  H17R17594   1.834   6.062   5.277  0.0205 -0.5089  1.9956
  158SAPE  H17S17595   1.949   5.982   5.377  1.6265 -0.4729 -0.9834
  158SAPE  C21817596   2.029   6.083   5.206  0.1332 -0.1252 -0.3903
  158SAPE  H18R17597   2.130   6.110   5.242  0.7570 -0.7471 -1.6257
  158SAPE  H18S17598   1.987   6.155   5.132 -3.2788 -0.9953  0.4969
  158SAPE  C21917599   2.046   5.944   5.148 -0.7431  0.2733 -0.7069
  158SAPE  H19R17600   2.007   5.867   5.218 -1.0714  2.6274  1.8578
  158SAPE  H19S17601   2.156   5.928   5.142 -0.5183  1.6668 -0.7424
  158SAPE  C22017602   1.996   5.931   5.004 -0.1436 -0.1025  0.6653
  158SAPE  H20R17603   1.899   5.982   4.988 -0.1497 -0.3969 -0.2874
  158SAPE  H20S17604   1.992   5.821   4.987  0.0738 -0.2701  1.6396
  158SAPE  H20T17605   2.080   5.977   4.947  1.3461 -1.3495  1.7352
  158SAPE   C3317606   2.727   5.467   5.872 -0.4867  0.1202  0.1696
  158SAPE   H3X17607   2.829   5.482   5.831 -0.4283 -0.6077  0.0260
  158SAPE   H3Y17608   2.678   5.563   5.898 -0.5311 -0.1277  1.0592
  158SAPE   C3417609   2.659   5.403   5.745  0.0845  0.0795  0.5902
  158SAPE   H4X17610   2.549   5.405   5.758 -0.0469  0.5996 -0.4822
  158SAPE   H4Y17611   2.685   5.295   5.737  2.5481  0.6591 -0.0846
  158SAPE   C3517612   2.714   5.462   5.615  0.1326  0.3515  0.2371
  158SAPE   H5X17613   2.825   5.457   5.611  0.0577 -3.0506 -0.6517
  158SAPE   H5Y17614   2.677   5.566   5.609  0.7510  0.5382 -0.3474
  158SAPE   C3617615   2.662   5.393   5.491  0.1089  0.1109 -0.5701
  158SAPE   H6X17616   2.670   5.465   5.407 -0.8608 -0.8873 -1.5360
  158SAPE   H6Y17617   2.559   5.357   5.509  0.8018 -1.9940 -0.6210
  158SAPE   C3717618   2.737   5.271   5.444  0.5182 -0.2924  0.1317
  158SAPE   H7X17619   2.735   5.201   5.530  1.3199 -0.0515  0.3580
  158SAPE   H7Y17620   2.847   5.289   5.444  0.2930  1.1733 -0.3377
  158SAPE   C3817621   2.683   5.212   5.315  0.1684  0.6329  0.4601
  158SAPE   H8X17622   2.710   5.293   5.244 -0.9203  1.4781  0.9817
  158SAPE   H8Y17623   2.575   5.187   5.311  0.5598 -1.6533  2.0996
  158SAPE   C3917624   2.757   5.079   5.279  0.3000  0.3449 -0.7361
  158SAPE   H9X17625   2.727   4.998   5.350 -0.2246  0.6499 -0.6052
  158SAPE   H9Y17626   2.866   5.095   5.288  0.2325  0.8600 -0.8516
  158SAPE  C31017627   2.727   5.032   5.135  0.1407 -0.1670  0.6965
  158SAPE  H10X17628   2.619   5.012   5.125 -0.2488  0.5958  2.7451
  158SAPE  H10Y17629   2.784   4.938   5.115  0.7200  0.1809  0.6712
  158SAPE  C31117630   2.751   5.143   5.023 -0.0298  0.6139 -0.0868
  158SAPE  H11X17631   2.852   5.188   5.031  0.1238  0.0710  1.3072
  158SAPE  H11Y17632   2.681   5.226   5.048 -1.6834 -0.8974  0.5133
  158SAPE  C31217633   2.727   5.087   4.890  0.0122  0.6485  0.4544
  158SAPE  H12X17634   2.637   5.022   4.887  0.6329 -0.2927  1.5625
  158SAPE  H12Y17635   2.817   5.026   4.867  1.1549  2.1844  0.6510
  158SAPE  C31317636   2.718   5.192   4.769 -0.5584 -0.0277  0.5446
  158SAPE  H13X17637   2.764   5.290   4.793 -3.6664  1.1441  2.2454
  158SAPE  H13Y17638   2.612   5.221   4.757 -0.0430  1.8916  0.2974
  158SAPE  C31417639   2.769   5.135   4.635  0.1993 -0.1909  0.1699
  158SAPE  H14X17640   2.875   5.102   4.633  0.8948  1.8319 -2.5639
  158SAPE  H14Y17641   2.757   5.208   4.553 -0.8972 -0.8275 -0.2567
  158SAPE  C31517642   2.667   5.024   4.578  0.2962  0.0386 -0.4149
  158SAPE  H15X17643   2.560   5.042   4.602 -0.0043 -0.9808 -0.9114
  158SAPE  H15Y17644   2.705   4.931   4.626  3.8394  0.3981 -2.1709
  158SAPE  C31617645   2.672   5.002   4.427  0.6791 -0.9545 -0.1371
  158SAPE  H16X17646   2.771   4.954   4.411  1.4001  0.6585 -0.8076
  158SAPE  H16Y17647   2.656   5.102   4.380 -0.5019 -1.0754 -0.0175
  158SAPE  C31717648   2.569   4.903   4.371  0.1431  0.2877 -0.0523
  158SAPE  H17X17649   2.471   4.953   4.388  0.2383  0.9160 -1.1879
  158SAPE  H17Y17650   2.571   4.816   4.440 -0.6829  0.7167  0.5324
  158SAPE  C31817651   2.579   4.871   4.226  0.4793  0.7707 -0.5139
  158SAPE  H18X17652   2.684   4.874   4.190  0.8443  2.2089  0.5776
  158SAPE  H18Y17653   2.520   4.951   4.177 -2.0966  0.4710  1.8063
  158SAPE  H18Z17654   2.526   4.776   4.203  2.8279 -0.8805  0.5380
  159SAPE     N17655   4.866   2.755   2.604  0.3060  0.2606  0.4420
  159SAPE   HN117656   4.924   2.681   2.648  0.1637  1.1034  2.1590
  159SAPE   HN217657   4.925   2.841   2.602  0.3785  0.2777  2.0586
  159SAPE   HN317658   4.785   2.762   2.669  1.9138  2.9841  2.3738
  159SAPE   C1217659   4.835   2.723   2.460  0.3395  0.3654 -0.4221
  159SAPE  H12A17660   4.762   2.639   2.457 -0.1695  0.7770  0.1783
  159SAPE  H12B17661   4.928   2.688   2.410  1.2249 -1.5063  2.2861
  159SAPE   C1117662   4.755   2.842   2.396 -0.1649 -0.2880  0.3131
  159SAPE  H11A17663   4.664   2.883   2.445  0.9204  1.0246  1.3396
  159SAPE  H11B17664   4.720   2.808   2.297 -1.9102  0.8499  0.4954
  159SAPE     P17665   4.887   3.038   2.268 -0.1807 -0.0152  0.0135
  159SAPE   O1317666   4.823   2.984   2.144 -0.0660 -0.2680  0.5332
  159SAPE   O1417667   4.851   3.171   2.313 -0.1294 -0.1966 -0.2906
  159SAPE   O1217668   4.858   2.941   2.384  0.3037 -0.5009 -0.9454
  159SAPE   O1117669   5.046   3.020   2.266 -0.0952  0.3792 -0.3597
  159SAPE    C117670   5.128   2.957   2.362  0.2912 -0.6110 -0.6440
  159SAPE    HA17671   5.070   2.879   2.416 -0.0670  0.4424  0.5488
  159SAPE    HB17672   5.216   2.904   2.319  0.4804  0.3239 -1.4249
  159SAPE    C217673   5.192   3.057   2.472  0.1247  0.6243 -0.2040
  159SAPE    HS17674   5.238   3.000   2.556 -0.5439 -1.3116 -1.0871
  159SAPE   O2117675   5.102   3.157   2.513  0.1904 -0.1403 -0.8251
  159SAPE   C2117676   5.021   3.101   2.603 -0.2619 -0.0269  0.8166
  159SAPE   O2217677   5.024   2.983   2.630  0.5633  0.0030 -0.0819
  159SAPE   C2217678   4.925   3.205   2.662  0.1337  0.5993  0.1171
  159SAPE   H2R17679   4.986   3.281   2.715 -2.2205  0.9904  2.4569
  159SAPE   H2S17680   4.894   3.262   2.572  0.6160 -0.3759 -0.6998
  159SAPE    C317681   5.312   3.126   2.399  0.2608  0.3200 -0.7076
  159SAPE    HX17682   5.269   3.184   2.315 -0.1420  0.6628 -0.2716
  159SAPE    HY17683   5.381   3.057   2.347  3.0134  3.2415 -1.2830
  159SAPE   O3117684   5.385   3.216   2.480  0.0457  0.2413  0.3550
  159SAPE   C3117685   5.485   3.161   2.556  0.2742  0.3149  0.2336
  159SAPE   O3217686   5.507   3.042   2.570 -0.0570  0.7037 -0.7880
  159SAPE   C3217687   5.542   3.281   2.632  0.3109  0.0500 -0.5189
  159SAPE   H2X17688   5.469   3.317   2.707  0.7291  0.5833 -0.3643
  159SAPE   H2Y17689   5.548   3.365   2.560 -2.9203 -0.5775 -1.6948
  159SAPE   C2317690   4.813   3.148   2.750  0.0620  0.4078 -0.5028
  159SAPE   H3R17691   4.787   3.043   2.723 -2.0844  0.8720 -0.4260
  159SAPE   H3S17692   4.723   3.211   2.731 -0.1180  0.2978 -0.0326
  159SAPE   C2417693   4.855   3.156   2.911 -1.1353 -0.4931 -0.9199
  159SAPE   H4R17694   4.753   3.162   2.954 -0.4465 -0.4901  0.7871
  159SAPE   H4S17695   4.906   3.253   2.931  1.0406 -1.5836 -0.9682
  159SAPE   C2517696   4.924   3.041   2.967  0.7734  0.1646 -0.5741
  159SAPE   H5R17697   4.966   2.972   2.893  0.4702 -1.7259  0.9282
  159SAPE   C2617698   4.930   3.003   3.100  0.2132 -0.2521 -0.0416
  159SAPE   H6R17699   4.977   2.908   3.128  2.1215  0.8266  0.5717
  159SAPE   C2717700   4.871   3.071   3.216  0.5487  0.0031  0.3153
  159SAPE   H7R17701   4.810   3.001   3.278  2.6900 -0.0510  2.5409
  159SAPE   H7S17702   4.809   3.158   3.187  1.0655 -0.3304 -2.0539
  159SAPE   C2817703   4.977   3.131   3.302  0.2844 -0.5179 -0.1216
  159SAPE   H8R17704   5.075   3.140   3.253  0.2258  0.9277 -0.0355
  159SAPE   C2917705   4.969   3.173   3.434  0.3036  0.3106 -0.9266
  159SAPE   H9R17706   5.056   3.219   3.484 -0.5508  0.8874  0.0870
  159SAPE  C21017707   4.843   3.191   3.514 -0.1284  0.6132  1.0213
  159SAPE  H10R17708   4.855   3.137   3.611  1.4402  0.5926  0.8324
  159SAPE  H10S17709   4.759   3.153   3.452  0.8344  1.8243 -1.0972
  159SAPE  C21117710   4.816   3.339   3.549 -0.1264 -0.3302  0.2499
  159SAPE  H11R17711   4.870   3.414   3.489  1.1919 -1.6071 -0.2267
  159SAPE  C21217712   4.723   3.376   3.634 -0.2200  0.2144  0.5095
  159SAPE  H12R17713   4.719   3.486   3.644 -0.7778  0.5267 -2.3052
  159SAPE  C21317714   4.628   3.297   3.713  0.3919  0.2662 -0.1005
  159SAPE  H13R17715   4.638   3.320   3.821 -0.4920  2.7159 -0.4642
  159SAPE  H13S17716   4.655   3.193   3.686  0.7923  0.0430  1.1115
  159SAPE  C21417717   4.478   3.304   3.674  0.3989 -0.7267 -0.2689
  159SAPE  H14R17718   4.461   3.344   3.573 -3.8960  0.9662  0.8844
  159SAPE  C21517719   4.376   3.258   3.743  0.2101 -0.3385  0.1404
  159SAPE  H15R17720   4.290   3.251   3.676 -0.2643 -1.8155  0.8701
  159SAPE  C21617721   4.377   3.174   3.862  0.7298  0.1558 -0.3609
  159SAPE  H16R17722   4.462   3.103   3.864  0.2947 -0.4102 -1.1587
  159SAPE  H16S17723   4.286   3.109   3.866  0.3872  0.6790  0.5457
  159SAPE  C21717724   4.386   3.247   4.001 -0.8521 -0.7793 -0.5433
  159SAPE  H17R17725   4.462   3.327   3.991 -0.0988 -1.1062  1.8659
  159SAPE  H17S17726   4.419   3.172   4.076 -0.8657 -1.0899 -0.8446
  159SAPE  C21817727   4.252   3.309   4.052  0.2719 -0.2752 -0.4818
  159SAPE  H18R17728   4.176   3.233   4.081 -2.7073  3.0121  0.9351
  159SAPE  H18S17729   4.210   3.375   3.974  0.4071  2.5811  1.7163
  159SAPE  C21917730   4.272   3.403   4.174 -0.9185  0.0450  0.3949
  159SAPE  H19R17731   4.334   3.483   4.127 -2.1247  0.1640 -1.1041
  159SAPE  H19S17732   4.322   3.342   4.252 -0.4023  0.1351  0.1402
  159SAPE  C22017733   4.140   3.466   4.227 -0.6110  0.9055 -0.2181
  159SAPE  H20R17734   4.080   3.500   4.140 -0.0057  1.0733 -0.5769
  159SAPE  H20S17735   4.163   3.565   4.273  0.5015  1.5435 -2.0496
  159SAPE  H20T17736   4.080   3.387   4.276 -0.9305 -0.4341 -2.6385
  159SAPE   C3317737   5.680   3.257   2.695  0.6042 -0.1408  0.4894
  159SAPE   H3X17738   5.751   3.213   2.622 -0.2949  0.2439 -0.6453
  159SAPE   H3Y17739   5.665   3.183   2.777  0.0630  2.0036  2.4335
  159SAPE   C3417740   5.747   3.377   2.760  0.2409 -0.0263  0.4964
  159SAPE   H4X17741   5.795   3.456   2.698 -1.5582  0.4764 -0.3109
  159SAPE   H4Y17742   5.830   3.342   2.826  0.3305 -0.0546  0.3687
  159SAPE   C3517743   5.647   3.449   2.845 -0.2137 -0.7084 -1.0398
  159SAPE   H5X17744   5.591   3.389   2.920 -0.9817 -1.1428 -1.9538
  159SAPE   H5Y17745   5.579   3.493   2.769 -0.1397 -0.4467 -0.9583
  159SAPE   C3617746   5.709   3.571   2.930  0.3564 -0.2674  0.3017
  159SAPE   H6X17747   5.731   3.521   3.026  0.4846 -1.7045 -0.4406
  159SAPE   H6Y17748   5.622   3.639   2.935 -0.3060 -1.0089 -0.6673
  159SAPE   C3717749   5.830   3.644   2.866 -0.1157  0.0173  0.1818
  159SAPE   H7X17750   5.782   3.689   2.777 -4.5213 -0.3152  2.1305
  159SAPE   H7Y17751   5.913   3.575   2.838 -1.7266 -0.4735 -4.2287
  159SAPE   C3817752   5.901   3.749   2.953 -0.3357  0.4770  0.0022
  159SAPE   H8X17753   5.961   3.684   3.020  0.5288  0.9589 -0.2825
  159SAPE   H8Y17754   5.822   3.810   3.001 -0.1398  1.7221 -1.2050
  159SAPE   C3917755   6.001   3.835   2.878  0.2669 -0.1102  0.3476
  159SAPE   H9X17756   5.942   3.921   2.840  0.8337 -0.5920 -1.7605
  159SAPE   H9Y17757   6.049   3.774   2.799 -1.4884  0.4919 -1.2394
  159SAPE  C31017758   6.124   3.886   2.964  0.1085 -0.1988 -0.5118
  159SAPE  H10X17759   6.085   3.967   3.029 -2.0021  2.0161 -4.1668
  159SAPE  H10Y17760   6.194   3.938   2.895  1.6681 -1.8182 -0.2156
  159SAPE  C31117761   6.219   3.790   3.045  0.4915 -0.7635  0.7504
  159SAPE  H11X17762   6.307   3.752   2.990 -1.2732 -1.4413 -1.8080
  159SAPE  H11Y17763   6.149   3.704   3.059 -3.4557  2.1227  0.3955
  159SAPE  C31217764   6.271   3.857   3.166 -0.1299 -0.1339 -0.4081
  159SAPE  H12X17765   6.187   3.909   3.216  0.1453 -0.1503  0.0707
  159SAPE  H12Y17766   6.340   3.944   3.159 -0.8423  0.6472  1.7725
  159SAPE  C31317767   6.327   3.756   3.270 -0.1967  0.0346 -0.3200
  159SAPE  H13X17768   6.411   3.697   3.228  1.2234  0.1107  2.2526
  159SAPE  H13Y17769   6.250   3.677   3.282  0.7635 -1.4164 -2.9161
  159SAPE  C31417770   6.383   3.822   3.400  0.6015 -1.2395 -0.2559
  159SAPE  H14X17771   6.299   3.859   3.462 -1.0139 -1.7661 -2.0434
  159SAPE  H14Y17772   6.457   3.902   3.376  0.5976 -1.9025 -2.7365
  159SAPE  C31517773   6.455   3.724   3.489  1.3432  0.1222  0.3888
  159SAPE  H15X17774   6.499   3.796   3.561  0.4705  0.7583  0.3131
  159SAPE  H15Y17775   6.542   3.681   3.437  1.8783  2.1187 -0.4859
  159SAPE  C31617776   6.357   3.627   3.551 -0.4372  0.2165 -0.0280
  159SAPE  H16X17777   6.320   3.558   3.473  0.4003 -0.3454  0.0631
  159SAPE  H16Y17778   6.265   3.681   3.585  0.2498  1.9492 -0.7761
  159SAPE  C31717779   6.426   3.548   3.666 -0.0972 -0.1775  0.8395
  159SAPE  H17X17780   6.534   3.535   3.644  0.2280  0.1591  2.1853
  159SAPE  H17Y17781   6.363   3.457   3.673 -0.9532  0.4545  1.5396
  159SAPE  C31817782   6.400   3.611   3.799 -0.4847 -0.4722 -0.5092
  159SAPE  H18X17783   6.456   3.706   3.807  0.5466 -1.1769  1.4805
  159SAPE  H18Y17784   6.441   3.545   3.880  1.1824  1.4085  0.2756
  159SAPE  H18Z17785   6.290   3.623   3.807 -0.3805  3.3638 -2.6260
  160SAPE     N17786   4.992   1.930   2.418  0.2865  0.5989 -0.4993
  160SAPE   HN117787   4.896   1.959   2.390  0.1455  0.3294 -0.2943
  160SAPE   HN217788   5.060   1.928   2.339  0.1711 -0.3808 -0.5942
  160SAPE   HN317789   4.997   1.834   2.459  2.2469  1.1799  0.7864
  160SAPE   C1217790   5.033   2.039   2.521 -0.0359  0.1531 -0.0316
  160SAPE  H12A17791   5.074   2.128   2.469 -0.3400  1.4278  1.8014
  160SAPE  H12B17792   5.116   1.995   2.581 -0.5458  1.4505  1.7184
  160SAPE   C1117793   4.907   2.073   2.594 -0.2721  0.3257 -0.5018
  160SAPE  H11A17794   4.916   2.147   2.677 -0.6606 -1.5411  1.2902
  160SAPE  H11B17795   4.896   1.984   2.659  2.1226  0.3136  0.0091
  160SAPE     P17796   4.662   2.002   2.518  0.1600 -0.1972 -0.2126
  160SAPE   O1317797   4.534   2.073   2.474  0.0401  0.2889 -0.0330
  160SAPE   O1417798   4.693   1.877   2.449  0.1452 -0.8299 -0.1360
  160SAPE   O1217799   4.792   2.093   2.508  0.1071  0.1143 -0.3070
  160SAPE   O1117800   4.648   1.967   2.674 -0.1764  0.5396 -0.5631
  160SAPE    C117801   4.627   2.073   2.771  0.5638 -0.2018  1.1386
  160SAPE    HA17802   4.712   2.143   2.780  0.3546 -0.1311  3.2571
  160SAPE    HB17803   4.531   2.126   2.753  0.9185  0.5222  1.3255
  160SAPE    C217804   4.609   2.019   2.914  0.0908 -0.2780  0.0499
  160SAPE    HS17805   4.624   2.102   2.986  0.8964  2.6220 -3.2188
  160SAPE   O2117806   4.713   1.921   2.930 -0.6370  0.5874  0.2308
  160SAPE   C2117807   4.836   1.970   2.966  0.6223  0.0869 -0.1291
  160SAPE   O2217808   4.866   2.089   2.960  0.5599  0.0670  0.2449
  160SAPE   C2217809   4.931   1.857   3.004  1.1413  0.4043 -0.3682
  160SAPE   H2R17810   4.980   1.816   2.913  0.6848  0.4218 -0.6263
  160SAPE   H2S17811   5.011   1.890   3.074  0.8878  0.5285 -0.1382
  160SAPE    C317812   4.468   1.953   2.933  1.0819  0.0014 -0.1762
  160SAPE    HX17813   4.453   1.896   2.839 -1.2070 -2.1361  1.3524
  160SAPE    HY17814   4.385   2.027   2.922  1.1157 -0.0476 -0.7915
  160SAPE   O3117815   4.443   1.880   3.057 -0.2283  0.2284  0.0144
  160SAPE   C3117816   4.435   1.750   3.057 -0.7512 -0.1603  0.3883
  160SAPE   O3217817   4.452   1.665   2.968 -0.4040 -0.0889 -0.1332
  160SAPE   C3217818   4.392   1.719   3.208 -0.5337  0.2615  0.9978
  160SAPE   H2X17819   4.465   1.765   3.278 -1.4098  0.0011  2.1226
  160SAPE   H2Y17820   4.404   1.609   3.222 -0.2901  0.0798 -0.4959
  160SAPE   C2317821   4.857   1.738   3.077  0.5180  0.2855  0.0280
  160SAPE   H3R17822   4.917   1.646   3.065  0.4222  0.1680  0.4523
  160SAPE   H3S17823   4.753   1.714   3.043  0.8638  0.4841 -1.2020
  160SAPE   C2417824   4.855   1.759   3.228 -0.1880  0.4150 -0.1811
  160SAPE   H4R17825   4.956   1.784   3.267  0.3783  0.3579 -1.5467
  160SAPE   H4S17826   4.826   1.662   3.274 -3.8708  0.5401 -1.8852
  160SAPE   C2517827   4.756   1.852   3.277  0.2838  0.1695  0.1475
  160SAPE   H5R17828   4.714   1.923   3.204  0.9044  1.9203  1.4015
  160SAPE   C2617829   4.714   1.863   3.404 -0.2864  0.1021  0.3343
  160SAPE   H6R17830   4.624   1.925   3.418  0.3823  1.4528 -1.1478
  160SAPE   C2717831   4.764   1.791   3.518 -0.1415  0.6773 -1.3780
  160SAPE   H7R17832   4.871   1.816   3.531  0.0045 -1.2636  2.1544
  160SAPE   H7S17833   4.773   1.682   3.502  2.7040  0.4282  1.0387
  160SAPE   C2817834   4.702   1.806   3.654 -0.5094  0.8162  0.5408
  160SAPE   H8R17835   4.610   1.746   3.659 -1.0403  1.6174  0.5483
  160SAPE   C2917836   4.744   1.873   3.763  0.1464  0.2163  0.1123
  160SAPE   H9R17837   4.683   1.876   3.855 -0.3877 -0.3051 -0.2209
  160SAPE  C21017838   4.866   1.961   3.768 -0.7932  0.3625 -0.0646
  160SAPE  H10R17839   4.949   1.937   3.699 -1.5499  1.5297 -1.4321
  160SAPE  H10S17840   4.911   1.943   3.868  1.7061 -6.0747 -1.8264
  160SAPE  C21117841   4.836   2.110   3.749  0.4388  0.0369  0.2203
  160SAPE  H11R17842   4.772   2.140   3.664  0.8736 -1.8819 -0.8621
  160SAPE  C21217843   4.856   2.216   3.830  0.1169  0.6180 -0.0260
  160SAPE  H12R17844   4.809   2.312   3.805  0.9835  1.4363  1.3299
  160SAPE  C21317845   4.925   2.218   3.956  0.5356 -0.3747 -0.7491
  160SAPE  H13R17846   5.001   2.298   3.946  0.9895 -0.6703  0.2254
  160SAPE  H13S17847   4.981   2.124   3.973  0.3022 -0.3978 -0.0751
  160SAPE  C21417848   4.833   2.255   4.070 -0.4178 -0.0046  0.0605
  160SAPE  H14R17849   4.737   2.300   4.041  0.7740  2.7008  0.0541
  160SAPE  C21517850   4.872   2.244   4.201  0.0707  0.2460  0.1889
  160SAPE  H15R17851   4.797   2.267   4.278 -0.9730 -0.5147 -0.5716
  160SAPE  C21617852   5.012   2.213   4.256 -0.3891 -0.0734  0.1213
  160SAPE  H16R17853   5.086   2.182   4.179 -0.2265 -1.9965  0.9848
  160SAPE  H16S17854   4.998   2.124   4.322 -1.3349  0.1608  0.2535
  160SAPE  C21717855   5.075   2.338   4.329 -0.1154 -0.1513 -0.0296
  160SAPE  H17R17856   5.167   2.323   4.391 -0.4673  0.1974  0.5950
  160SAPE  H17S17857   4.994   2.373   4.397  0.1886  0.9231 -0.1912
  160SAPE  C21817858   5.106   2.449   4.229 -0.0982  0.0196 -0.5578
  160SAPE  H18R17859   5.124   2.538   4.293 -1.8314  0.6717 -0.9177
  160SAPE  H18S17860   5.017   2.463   4.164  1.1820 -1.5768 -2.7814
  160SAPE  C21917861   5.222   2.425   4.129  0.1850 -0.3063  0.1734
  160SAPE  H19R17862   5.237   2.510   4.060 -1.1279 -0.2366 -0.0661
  160SAPE  H19S17863   5.187   2.339   4.067 -0.6487 -1.1073  1.7037
  160SAPE  C22017864   5.353   2.394   4.193 -0.8103 -0.6868  0.2984
  160SAPE  H20R17865   5.392   2.475   4.257  1.8231 -1.7264  0.1360
  160SAPE  H20S17866   5.425   2.391   4.108 -0.1083  2.3776  0.6921
  160SAPE  H20T17867   5.361   2.299   4.250  0.3517 -1.0301 -0.3886
  160SAPE   C3317868   4.246   1.751   3.245  0.6659  0.5835 -0.4617
  160SAPE   H3X17869   4.177   1.708   3.169  0.7982 -1.0239  0.2893
  160SAPE   H3Y17870   4.227   1.860   3.240  1.0813  0.6315 -1.2432
  160SAPE   C3417871   4.207   1.679   3.374 -0.0246  0.0341 -0.0732
  160SAPE   H4X17872   4.211   1.569   3.354  1.9525  0.3024 -1.4130
  160SAPE   H4Y17873   4.099   1.694   3.396 -0.6934 -4.1342  0.3971
  160SAPE   C3517874   4.294   1.696   3.502 -0.4013  0.0987 -0.1381
  160SAPE   H5X17875   4.300   1.802   3.533 -0.5047 -0.2412  1.0919
  160SAPE   H5Y17876   4.400   1.663   3.489 -0.7330 -0.1118 -3.0789
  160SAPE   C3617877   4.240   1.624   3.622 -0.8891  0.5172  0.1925
  160SAPE   H6X17878   4.275   1.519   3.612  0.7921  1.0120  0.5482
  160SAPE   H6Y17879   4.131   1.629   3.641 -1.0987  1.7935 -1.1066
  160SAPE   C3717880   4.303   1.676   3.754 -0.0296 -0.4206  0.5210
  160SAPE   H7X17881   4.277   1.783   3.764 -1.5883 -0.9151  2.2477
  160SAPE   H7Y17882   4.409   1.649   3.774 -0.2793  0.2059  3.0007
  160SAPE   C3817883   4.223   1.612   3.873 -0.3079  0.2090 -0.2838
  160SAPE   H8X17884   4.220   1.501   3.868  0.7199  0.2395 -3.7340
  160SAPE   H8Y17885   4.119   1.648   3.853 -0.3519 -0.5210 -1.4689
  160SAPE   C3917886   4.267   1.662   4.013  0.2844 -0.3528 -0.1892
  160SAPE   H9X17887   4.274   1.772   4.029  2.6203 -0.5243  0.4072
  160SAPE   H9Y17888   4.367   1.616   4.030  0.2035 -0.1871  0.8013
  160SAPE  C31017889   4.178   1.603   4.128  0.5424 -0.4514  0.8853
  160SAPE  H10X17890   4.185   1.492   4.129  0.3142 -0.5173 -0.8888
  160SAPE  H10Y17891   4.074   1.637   4.108  1.2784  2.4598  1.4811
  160SAPE  C31117892   4.214   1.637   4.272 -0.6451  0.4064 -0.2609
  160SAPE  H11X17893   4.204   1.746   4.290  1.5891  0.5447  0.4990
  160SAPE  H11Y17894   4.316   1.605   4.301 -0.4312  0.9162 -0.4433
  160SAPE  C31217895   4.130   1.550   4.368 -0.0795 -0.7068 -0.5006
  160SAPE  H12X17896   4.183   1.553   4.465 -3.7521  2.0755  1.6885
  160SAPE  H12Y17897   4.113   1.444   4.340  0.8158 -0.6589 -1.2818
  160SAPE  C31317898   3.995   1.622   4.391 -0.5299  0.9501 -0.4319
  160SAPE  H13X17899   3.931   1.625   4.300  0.6290  3.4965 -1.2537
  160SAPE  H13Y17900   4.011   1.729   4.414 -2.3590  1.6629 -2.1815
  160SAPE  C31417901   3.913   1.557   4.503  0.0829 -0.0605 -0.2210
  160SAPE  H14X17902   3.991   1.535   4.580 -0.3894 -1.8503 -0.2108
  160SAPE  H14Y17903   3.852   1.470   4.473  0.3616 -1.1056  1.9905
  160SAPE  C31517904   3.815   1.656   4.562  0.0782 -0.1982  0.1425
  160SAPE  H15X17905   3.748   1.703   4.485 -0.2322 -1.3654 -0.3194
  160SAPE  H15Y17906   3.876   1.736   4.609 -2.1393  0.7614  1.5533
  160SAPE  C31617907   3.730   1.615   4.682  0.2468 -0.0346  0.0055
  160SAPE  H16X17908   3.631   1.665   4.671  0.1982 -0.5320 -2.2832
  160SAPE  H16Y17909   3.760   1.659   4.780 -1.3769  2.6000 -0.5804
  160SAPE  C31717910   3.736   1.466   4.715  0.4795  0.1653  0.9417
  160SAPE  H17X17911   3.838   1.424   4.708  0.2502 -0.1482 -1.8748
  160SAPE  H17Y17912   3.683   1.425   4.626  1.2614  1.3935 -0.1341
  160SAPE  C31817913   3.667   1.432   4.844 -0.2364  0.1316  0.3340
  160SAPE  H18X17914   3.723   1.472   4.931 -0.9020 -1.6517  1.6398
  160SAPE  H18Y17915   3.659   1.323   4.863 -1.2759  0.1281 -0.0602
  160SAPE  H18Z17916   3.565   1.476   4.846  0.1350  0.9921  1.4753
  161SAPE     N17917   2.556   3.971   1.755  0.3598  0.5849 -0.4439
  161SAPE   HN117918   2.633   3.904   1.779  1.3931  2.5029  2.0354
  161SAPE   HN217919   2.525   3.953   1.658 -0.2907 -1.8013  0.1299
  161SAPE   HN317920   2.597   4.066   1.762 -1.2783  1.3113 -0.3129
  161SAPE   C1217921   2.433   3.955   1.835 -0.6303  0.2147 -0.3799
  161SAPE  H12A17922   2.389   3.853   1.833 -0.7822  0.1340  2.8888
  161SAPE  H12B17923   2.355   4.025   1.799 -0.8069  1.1869  1.7817
  161SAPE   C1117924   2.459   3.990   1.983 -0.1021  0.4884  0.0591
  161SAPE  H11A17925   2.508   3.901   2.029 -0.1058 -0.1449 -1.1162
  161SAPE  H11B17926   2.354   3.995   2.019 -1.8110 -0.2625 -4.1714
  161SAPE     P17927   2.468   4.248   2.017 -0.0660 -0.4474 -0.0934
  161SAPE   O1317928   2.583   4.347   2.011  0.3309  0.2719 -0.3643
  161SAPE   O1417929   2.349   4.263   1.936  0.1142 -0.2579  0.3209
  161SAPE   O1217930   2.541   4.110   1.987  0.3561 -0.1737 -0.4055
  161SAPE   O1117931   2.417   4.222   2.164 -0.1719 -0.1208 -0.5777
  161SAPE    C117932   2.486   4.148   2.273  0.5222 -0.0697  1.0311
  161SAPE    HA17933   2.412   4.111   2.347  0.4652  1.1642  1.6141
  161SAPE    HB17934   2.550   4.067   2.233 -1.8294 -0.9331 -1.2524
  161SAPE    C217935   2.575   4.243   2.352  0.4611  0.7857 -0.0076
  161SAPE    HS17936   2.664   4.262   2.289  0.1336  0.4016 -0.5919
  161SAPE   O2117937   2.613   4.184   2.471 -0.5903  0.0310  0.2537
  161SAPE   C2117938   2.709   4.092   2.459  0.0486 -0.5778  0.0904
  161SAPE   O2217939   2.756   4.049   2.357  0.2418 -0.3032  0.9248
  161SAPE   C2217940   2.753   4.042   2.596  0.0056  0.6026  0.2280
  161SAPE   H2R17941   2.686   3.956   2.619 -0.9172  1.6418  1.5545
  161SAPE   H2S17942   2.859   4.014   2.574  0.4143  2.6229 -0.5544
  161SAPE    C317943   2.517   4.382   2.384  0.3166 -0.2611  0.6055
  161SAPE    HX17944   2.502   4.435   2.287  2.1566 -0.6199  0.0822
  161SAPE    HY17945   2.597   4.439   2.437  0.5923 -0.4927  0.4452
  161SAPE   O3117946   2.398   4.362   2.454  0.0841 -0.0089 -0.3105
  161SAPE   C3117947   2.396   4.349   2.591 -0.3838  0.4556  0.0472
  161SAPE   O3217948   2.482   4.395   2.663 -0.0245 -0.1417  0.8014
  161SAPE   C3217949   2.276   4.267   2.640  0.1493 -0.8564 -0.1703
  161SAPE   H2X17950   2.299   4.171   2.587  0.0934 -0.0528 -1.6971
  161SAPE   H2Y17951   2.184   4.311   2.597  0.8737  0.2240 -0.6699
  161SAPE   C2317952   2.731   4.140   2.713  0.0464  0.3133 -0.1556
  161SAPE   H3R17953   2.622   4.161   2.716 -0.1100 -0.5012 -0.0314
  161SAPE   H3S17954   2.782   4.238   2.699 -1.9107  1.6108  1.2916
  161SAPE   C2417955   2.785   4.069   2.837 -0.2326 -0.1150 -0.1358
  161SAPE   H4R17956   2.895   4.068   2.854 -0.2621  0.7920  0.1766
  161SAPE   H4S17957   2.758   3.962   2.850  1.1926 -0.4080  0.6556
  161SAPE   C2517958   2.711   4.133   2.955  0.0927 -0.1119  0.1130
  161SAPE   H5R17959   2.624   4.192   2.922 -0.7900 -1.0945  0.6435
  161SAPE   C2617960   2.731   4.117   3.087  0.7320  0.2297  1.0573
  161SAPE   H6R17961   2.664   4.180   3.147 -2.4430 -0.0425 -1.8796
  161SAPE   C2717962   2.836   4.034   3.158 -0.1684  0.1802 -0.1741
  161SAPE   H7R17963   2.887   4.091   3.239  1.5480 -0.2466 -0.8953
  161SAPE   H7S17964   2.924   4.011   3.093  0.1117  1.4984 -0.2827
  161SAPE   C2817965   2.775   3.915   3.213 -0.3778  0.5810  0.2739
  161SAPE   H8R17966   2.721   3.845   3.147  1.3653  0.9610 -1.6385
  161SAPE   C2917967   2.756   3.891   3.341  0.5449 -0.0496  0.1234
  161SAPE   H9R17968   2.704   3.802   3.377 -0.4198  1.6097  3.1962
  161SAPE  C21017969   2.801   3.981   3.447 -0.5145  0.6284  0.3361
  161SAPE  H10R17970   2.726   3.979   3.529 -0.4347  0.7045  0.4117
  161SAPE  H10S17971   2.783   4.084   3.409  0.8350  0.6892 -0.1880
  161SAPE  C21117972   2.947   3.965   3.482  0.1792  0.5098 -0.3356
  161SAPE  H11R17973   3.010   3.929   3.399  1.5374  1.1066  0.4043
  161SAPE  C21217974   2.989   3.957   3.612  0.3051  0.4333  0.5586
  161SAPE  H12R17975   3.093   3.944   3.644  0.0699 -0.1413  1.1038
  161SAPE  C21317976   2.898   3.995   3.723 -0.5663  0.5625 -0.4044
  161SAPE  H13R17977   2.810   4.060   3.702  0.5860  1.5462 -2.5496
  161SAPE  H13S17978   2.969   4.053   3.786  1.6707 -2.3447 -0.0178
  161SAPE  C21417979   2.858   3.872   3.799 -0.4587 -0.7226 -0.9464
  161SAPE  H14R17980   2.946   3.808   3.817 -0.3514 -0.0716  1.1646
  161SAPE  C21517981   2.740   3.847   3.859  0.8951 -0.4365  0.1200
  161SAPE  H15R17982   2.717   3.753   3.913  0.3098 -0.5161 -0.2614
  161SAPE  C21617983   2.615   3.936   3.839 -1.1596  0.0247 -0.0747
  161SAPE  H16R17984   2.583   3.920   3.734 -2.5397 -2.1121  0.6081
  161SAPE  H16S17985   2.640   4.044   3.832 -1.3122  0.0710  0.0756
  161SAPE  C21717986   2.497   3.901   3.914 -1.0131  0.3905 -0.1955
  161SAPE  H17R17987   2.483   3.791   3.920  3.1085 -0.2500  0.9002
  161SAPE  H17S17988   2.401   3.951   3.888 -0.7637  0.9206 -0.0987
  161SAPE  C21817989   2.523   3.930   4.063 -0.3829 -0.3105 -0.2744
  161SAPE  H18R17990   2.551   4.036   4.080 -1.4191  0.4586 -2.8607
  161SAPE  H18S17991   2.604   3.865   4.104 -0.8881  0.2073  1.5879
  161SAPE  C21917992   2.405   3.921   4.151  0.1773  0.1567 -0.8004
  161SAPE  H19R17993   2.363   3.822   4.120 -0.1446  0.7900 -2.5118
  161SAPE  H19S17994   2.331   3.995   4.114 -1.2942 -0.5428  0.6369
  161SAPE  C22017995   2.419   3.917   4.300  0.2037  0.5211  0.2774
  161SAPE  H20R17996   2.336   3.860   4.349  0.1644 -0.5384 -0.9643
  161SAPE  H20S17997   2.420   4.021   4.339 -1.5194  1.1030 -1.0841
  161SAPE  H20T17998   2.510   3.867   4.338 -1.0860 -1.6378  0.7252
  161SAPE   C3317999   2.267   4.272   2.797  0.9365 -0.2982  0.1106
  161SAPE   H3X18000   2.265   4.378   2.829  0.6966  0.4069 -2.1023
  161SAPE   H3Y18001   2.360   4.228   2.839 -0.5009 -1.2987  2.4378
  161SAPE   C3418002   2.141   4.205   2.849 -0.2649  0.3270 -0.0859
  161SAPE   H4X18003   2.131   4.105   2.803 -1.0854  0.1634  0.4285
  161SAPE   H4Y18004   2.062   4.277   2.820  0.1755  1.3357  1.1293
  161SAPE   C3518005   2.146   4.198   3.000  0.2104  1.3714 -0.0237
  161SAPE   H5X18006   2.173   4.298   3.039 -0.4778  1.4640  0.2340
  161SAPE   H5Y18007   2.228   4.136   3.042 -0.8954  0.2700  0.5808
  161SAPE   C3618008   2.023   4.144   3.077  0.0336 -0.0771 -0.3428
  161SAPE   H6X18009   2.018   4.034   3.061  0.6359 -0.5904  2.4887
  161SAPE   H6Y18010   1.935   4.198   3.036 -0.8586  0.9289  2.6755
  161SAPE   C3718011   2.023   4.161   3.228  0.3743 -0.5977  0.4597
  161SAPE   H7X18012   2.037   4.265   3.265  0.9134 -0.3718 -0.3567
  161SAPE   H7Y18013   2.109   4.108   3.273  1.8438  1.1639 -0.1955
  161SAPE   C3818014   1.898   4.108   3.306 -0.4498  0.0396  0.0397
  161SAPE   H8X18015   1.884   3.999   3.289  0.4404  0.3819 -3.9473
  161SAPE   H8Y18016   1.805   4.159   3.276 -0.4066 -0.6069 -1.2622
  161SAPE   C3918017   1.913   4.139   3.453  0.5786 -0.1490 -0.9347
  161SAPE   H9X18018   1.895   4.247   3.475 -2.6367 -1.0398  1.8303
  161SAPE   H9Y18019   2.015   4.103   3.478 -0.2469 -1.2545  1.1046
  161SAPE  C31018020   1.816   4.055   3.543  0.4507  0.5612  0.5224
  161SAPE  H10X18021   1.819   3.954   3.497  1.2167  0.1115  1.5369
  161SAPE  H10Y18022   1.716   4.091   3.511 -0.3302  0.3818  2.6667
  161SAPE  C31118023   1.846   4.056   3.688  0.7386  0.3811  0.4153
  161SAPE  H11X18024   1.862   4.160   3.724  0.1443  0.4449  0.4949
  161SAPE  H11Y18025   1.942   4.001   3.699  0.1852 -1.3695 -2.4040
  161SAPE  C31218026   1.729   3.994   3.765 -0.2088  0.5398 -0.1416
  161SAPE  H12X18027   1.718   3.892   3.723  1.1350  0.4294 -0.2583
  161SAPE  H12Y18028   1.642   4.062   3.752  0.0685  0.9321  0.0490
  161SAPE  C31318029   1.773   3.983   3.909  1.2253  0.2517 -0.2343
  161SAPE  H13X18030   1.815   4.084   3.925  1.3052  0.8221 -3.3840
  161SAPE  H13Y18031   1.851   3.905   3.919  1.0639  0.1884  0.6342
  161SAPE  C31418032   1.661   3.964   4.005  0.1277 -0.0105 -0.9030
  161SAPE  H14X18033   1.626   3.859   4.003  0.8032 -0.4745  2.9065
  161SAPE  H14Y18034   1.582   4.037   3.977  1.6834  2.5826  0.9771
  161SAPE  C31518035   1.699   4.005   4.151  0.4643  0.4257  0.3651
  161SAPE  H15X18036   1.735   4.109   4.138 -1.2124  1.0355  0.4316
  161SAPE  H15Y18037   1.786   3.947   4.190  1.0202 -0.2467 -1.7131
  161SAPE  C31618038   1.590   4.002   4.252 -0.1619 -0.3551  0.8773
  161SAPE  H16X18039   1.557   3.896   4.261 -1.1854  0.0414  2.1731
  161SAPE  H16Y18040   1.499   4.054   4.216 -1.5248 -1.9446  1.8611
  161SAPE  C31718041   1.629   4.045   4.397 -0.5277 -0.8726 -0.3164
  161SAPE  H17X18042   1.705   3.985   4.451 -0.6898  2.3543  4.1146
  161SAPE  H17Y18043   1.538   4.019   4.456  0.3548 -1.0998  0.9753
  161SAPE  C31818044   1.651   4.196   4.407 -0.5066 -0.0429  0.2978
  161SAPE  H18X18045   1.719   4.228   4.325 -1.8697  4.0577  0.5255
  161SAPE  H18Y18046   1.682   4.229   4.508 -1.6590 -1.8543  1.2974
  161SAPE  H18Z18047   1.554   4.242   4.377 -0.9822 -1.0747  0.1965
  162SAPE     N18048   2.015   6.564   1.964 -1.0195  0.1215  0.1501
  162SAPE   HN118049   2.118   6.555   1.981 -0.8008  0.2319 -1.0664
  162SAPE   HN218050   1.972   6.503   2.037  1.0960 -0.4996  0.9885
  162SAPE   HN318051   1.997   6.530   1.868  0.2569 -1.5501  0.4474
  162SAPE   C1218052   1.976   6.703   1.979  0.5882  0.1905 -0.1632
  162SAPE  H12A18053   1.865   6.708   1.980  0.4520 -1.8359 -0.5004
  162SAPE  H12B18054   2.016   6.766   1.896 -0.0573 -0.4474 -0.9781
  162SAPE   C1118055   2.030   6.763   2.115 -0.2409 -0.0979 -0.2849
  162SAPE  H11A18056   2.028   6.690   2.198  1.9408  1.6168  1.3956
  162SAPE  H11B18057   1.959   6.846   2.139 -0.6576 -0.6115  0.2837
  162SAPE     P18058   2.296   6.746   2.130  0.3927 -0.0763 -0.1198
  162SAPE   O1318059   2.295   6.627   2.045  0.3364 -0.3075 -0.3599
  162SAPE   O1418060   2.410   6.834   2.115  0.1561  0.6172  0.6699
  162SAPE   O1218061   2.157   6.820   2.103  0.4223 -0.4647  1.1640
  162SAPE   O1118062   2.272   6.708   2.280 -0.1643  0.3955 -0.1321
  162SAPE    C118063   2.326   6.789   2.381 -0.2998 -0.1121  0.1858
  162SAPE    HA18064   2.432   6.766   2.402 -1.0298 -1.8139  2.4203
  162SAPE    HB18065   2.314   6.897   2.354 -0.5047 -0.5900 -1.7259
  162SAPE    C218066   2.258   6.779   2.521  0.2421  0.6306 -0.1401
  162SAPE    HS18067   2.274   6.678   2.564  0.7829  0.3999 -0.8710
  162SAPE   O2118068   2.116   6.793   2.504  0.0200 -0.1543 -0.3447
  162SAPE   C2118069   2.024   6.752   2.595 -0.2269 -0.5211 -0.4414
  162SAPE   O2218070   2.057   6.708   2.701 -0.0360 -0.2473  0.2656
  162SAPE   C2218071   1.884   6.783   2.547  0.2291 -0.0582 -0.0914
  162SAPE   H2R18072   1.864   6.700   2.477  0.2198 -1.4185  1.4574
  162SAPE   H2S18073   1.813   6.772   2.632  0.8661 -2.1285  0.2361
  162SAPE    C318074   2.305   6.893   2.625  0.1056 -0.7099  0.2999
  162SAPE    HX18075   2.247   6.887   2.720  2.0774 -1.0600  1.5274
  162SAPE    HY18076   2.280   6.990   2.578 -0.0659 -2.1947 -2.9672
  162SAPE   O3118077   2.450   6.878   2.648  0.1852  0.0860 -0.3356
  162SAPE   C3118078   2.491   6.790   2.741  0.5228  0.0965 -0.4114
  162SAPE   O3218079   2.418   6.711   2.798  0.4855 -0.4187  0.2308
  162SAPE   C3218080   2.645   6.791   2.746  0.3691 -0.2378  0.6452
  162SAPE   H2X18081   2.686   6.845   2.659 -2.1361  3.4846  1.5111
  162SAPE   H2Y18082   2.678   6.685   2.738 -0.6366 -0.4922 -0.2524
  162SAPE   C2318083   1.879   6.916   2.467 -0.0254 -0.0448 -0.4832
  162SAPE   H3R18084   1.782   6.899   2.414 -1.3026  0.4723  1.5591
  162SAPE   H3S18085   1.962   6.919   2.393  1.3139 -1.7439  0.8829
  162SAPE   C2418086   1.859   7.038   2.554 -0.0754 -0.1493 -0.6875
  162SAPE   H4R18087   1.777   7.027   2.627  0.0506 -1.4058 -0.7178
  162SAPE   H4S18088   1.831   7.121   2.485 -1.4315 -0.8888 -1.0562
  162SAPE   C2518089   1.984   7.082   2.625  0.4519 -0.2014  0.3630
  162SAPE   H5R18090   2.064   7.121   2.561 -0.9394  0.6798 -0.9168
  162SAPE   C2618091   2.009   7.075   2.763 -0.0043 -0.5598 -0.1173
  162SAPE   H6R18092   2.105   7.111   2.802 -0.3352  0.9962 -0.6663
  162SAPE   C2718093   1.918   7.012   2.869  0.0922 -0.9710 -0.0630
  162SAPE   H7R18094   1.831   6.963   2.822 -1.0195  0.8786 -0.0080
  162SAPE   H7S18095   1.871   7.095   2.926  1.6261  1.4378 -2.0984
  162SAPE   C2818096   1.983   6.905   2.958 -0.4388 -0.1207  0.0530
  162SAPE   H8R18097   2.028   6.816   2.911 -1.6638 -0.7919  0.1136
  162SAPE   C2918098   1.999   6.916   3.091  0.2814  0.3370  0.3028
  162SAPE   H9R18099   2.053   6.841   3.151  1.7190 -0.3972 -1.7977
  162SAPE  C21018100   1.948   7.028   3.179 -0.4840  0.4890 -0.3415
  162SAPE  H10R18101   1.839   7.014   3.160 -0.8072  1.0588  0.9520
  162SAPE  H10S18102   1.979   7.132   3.155 -0.0046  0.5206  0.4075
  162SAPE  C21118103   1.968   7.005   3.334  1.2034 -0.3808  0.0814
  162SAPE  H11R18104   2.043   7.077   3.371  0.1867  1.5136 -1.4058
  162SAPE  C21218105   1.889   6.941   3.420 -0.3867  0.6848 -0.8028
  162SAPE  H12R18106   1.923   6.939   3.524  1.4307 -0.6832 -1.3679
  162SAPE  C21318107   1.783   6.849   3.385 -0.3302 -0.1483  0.0752
  162SAPE  H13R18108   1.823   6.745   3.390  0.7476  0.3002  1.4647
  162SAPE  H13S18109   1.754   6.861   3.279  0.7390 -2.1954 -0.4952
  162SAPE  C21418110   1.663   6.876   3.467 -0.3745 -0.4567 -0.0270
  162SAPE  H14R18111   1.600   6.955   3.423  1.6931  0.6074 -1.2734
  162SAPE  C21518112   1.636   6.832   3.589 -0.3083  0.0557  0.3325
  162SAPE  H15R18113   1.539   6.854   3.636 -0.2287  0.7671  0.1715
  162SAPE  C21618114   1.713   6.735   3.672  0.4947 -0.5008 -0.4005
  162SAPE  H16R18115   1.799   6.787   3.719  0.1442  0.6547 -0.9903
  162SAPE  H16S18116   1.768   6.658   3.614  1.2019  0.4167 -0.9881
  162SAPE  C21718117   1.623   6.661   3.771  0.5536  0.1077  0.0230
  162SAPE  H17R18118   1.667   6.565   3.806 -1.2657 -0.1524  1.8230
  162SAPE  H17S18119   1.526   6.631   3.727  0.6403 -0.0667 -0.0517
  162SAPE  C21818120   1.600   6.738   3.903  0.4413 -0.1648  0.9037
  162SAPE  H18R18121   1.525   6.819   3.889  0.3587 -0.3935 -0.0173
  162SAPE  H18S18122   1.694   6.789   3.934  1.2398  0.1264 -1.8102
  162SAPE  C21918123   1.557   6.646   4.015 -0.3710 -0.2502 -0.4435
  162SAPE  H19R18124   1.573   6.693   4.114 -0.4030 -0.1929 -0.4661
  162SAPE  H19S18125   1.619   6.554   4.020  1.1316  0.7811  1.2301
  162SAPE  C22018126   1.414   6.627   3.999 -0.0129 -0.3915 -0.0308
  162SAPE  H20R18127   1.380   6.564   4.084  1.7152  0.4863  1.3874
  162SAPE  H20S18128   1.395   6.572   3.904  0.5497 -2.0738  0.7946
  162SAPE  H20T18129   1.360   6.723   4.013 -0.3689 -0.5798 -0.0998
  162SAPE   C3318130   2.705   6.850   2.879  0.1371  0.3847  0.7776
  162SAPE   H3X18131   2.665   6.953   2.888  0.0405  0.3954  0.2512
  162SAPE   H3Y18132   2.816   6.858   2.879  0.1162  0.8287  1.8632
  162SAPE   C3418133   2.659   6.775   3.003 -0.3103  0.3657 -0.4793
  162SAPE   H4X18134   2.691   6.670   2.993  0.6552  0.5123  0.9393
  162SAPE   H4Y18135   2.548   6.766   3.005 -0.2073 -0.7822  0.3627
  162SAPE   C3518136   2.715   6.819   3.139  0.5204 -0.3172 -0.0126
  162SAPE   H5X18137   2.631   6.866   3.194 -0.4586 -0.8687 -1.0072
  162SAPE   H5Y18138   2.794   6.896   3.120 -1.6962  2.3122  0.7410
  162SAPE   C3618139   2.761   6.704   3.230 -0.0117  0.3492 -0.0640
  162SAPE   H6X18140   2.841   6.741   3.299 -1.7382 -0.5493  2.5882
  162SAPE   H6Y18141   2.802   6.619   3.172  3.7915 -0.4371  3.2816
  162SAPE   C3718142   2.647   6.669   3.330  0.5986  0.1267 -0.4262
  162SAPE   H7X18143   2.556   6.653   3.268 -0.2366  1.5879  0.3602
  162SAPE   H7Y18144   2.619   6.752   3.399 -4.4408 -1.5146 -0.0930
  162SAPE   C3818145   2.677   6.547   3.415  0.3692  0.1198 -0.4534
  162SAPE   H8X18146   2.768   6.570   3.474 -0.4968 -0.1510  1.0179
  162SAPE   H8Y18147   2.714   6.464   3.350  1.0387  0.6003 -0.7012
  162SAPE   C3918148   2.565   6.506   3.516  0.4412 -0.3083  0.4686
  162SAPE   H9X18149   2.490   6.440   3.467  1.7471 -1.0336 -0.6193
  162SAPE   H9Y18150   2.506   6.591   3.556 -0.6691 -0.2898 -1.1010
  162SAPE  C31018151   2.624   6.435   3.636  0.0787  1.0340 -0.5276
  162SAPE  H10X18152   2.663   6.509   3.709  0.7124 -1.3746  1.7118
  162SAPE  H10Y18153   2.715   6.380   3.606  0.6743  1.7421 -0.0397
  162SAPE  C31118154   2.529   6.347   3.711  0.6344  0.3366  0.2356
  162SAPE  H11X18155   2.435   6.406   3.713 -0.0355 -0.6533 -1.0576
  162SAPE  H11Y18156   2.556   6.334   3.818 -0.9928  1.1034  0.7756
  162SAPE  C31218157   2.508   6.208   3.648  0.1152 -0.0247  0.1991
  162SAPE  H12X18158   2.608   6.159   3.642 -1.0481 -2.5066 -0.3573
  162SAPE  H12Y18159   2.476   6.219   3.542  0.2347  0.2864  0.1935
  162SAPE  C31318160   2.401   6.120   3.722  0.8452 -0.4330 -0.2504
  162SAPE  H13X18161   2.345   6.069   3.642 -1.2773 -0.5345  1.2277
  162SAPE  H13Y18162   2.332   6.184   3.781 -0.6503 -1.3244 -1.0059
  162SAPE  C31418163   2.461   6.019   3.813  0.1721  0.2140  0.4160
  162SAPE  H14X18164   2.490   6.070   3.907  0.7776 -0.4734  0.6122
  162SAPE  H14Y18165   2.556   5.985   3.766  0.0015  1.7360 -1.1039
  162SAPE  C31518166   2.362   5.903   3.848 -0.1910 -0.2936 -0.7535
  162SAPE  H15X18167   2.427   5.824   3.892 -1.2995 -1.0029 -0.3441
  162SAPE  H15Y18168   2.319   5.870   3.752 -3.3643  0.5932  0.2289
  162SAPE  C31618169   2.246   5.951   3.943 -0.1501  0.3413 -0.1220
  162SAPE  H16X18170   2.187   6.032   3.894 -0.6693  0.2841  0.3991
  162SAPE  H16Y18171   2.303   6.006   4.020 -1.7057  0.3890  1.0443
  162SAPE  C31718172   2.148   5.844   3.997 -0.2691  0.7862 -0.1800
  162SAPE  H17X18173   2.203   5.761   4.046  1.1190  1.4542 -0.5276
  162SAPE  H17Y18174   2.101   5.801   3.907  0.9638 -0.7790 -0.1132
  162SAPE  C31818175   2.046   5.898   4.095 -0.5707 -0.6636  1.4178
  162SAPE  H18X18176   1.974   5.972   4.056 -0.8403 -0.5116  2.1829
  162SAPE  H18Y18177   2.103   5.934   4.183  0.9065 -2.2155  1.1476
  162SAPE  H18Z18178   1.976   5.821   4.134 -2.1622  0.4433  0.8675
  163SAPE     N18179   0.947   3.382   1.727  0.2216 -0.0884 -0.5351
  163SAPE   HN118180   0.990   3.288   1.741  1.2886  0.8141  3.2261
  163SAPE   HN218181   0.914   3.397   1.629 -2.6806  2.2744  0.6635
  163SAPE   HN318182   1.023   3.452   1.736  1.3989 -1.0575 -2.3954
  163SAPE   C1218183   0.833   3.410   1.822 -0.0123  0.4598 -0.5543
  163SAPE  H12A18184   0.750   3.338   1.805  0.1452  0.1604 -0.0781
  163SAPE  H12B18185   0.788   3.510   1.803 -3.0300 -0.3580  1.6306
  163SAPE   C1118186   0.879   3.411   1.968  0.2658  0.0981 -0.7541
  163SAPE  H11A18187   0.908   3.309   2.001  0.2896  0.7424  1.3797
  163SAPE  H11B18188   0.805   3.453   2.039 -0.3412 -2.4174  0.2069
  163SAPE     P18189   1.045   3.565   2.111  0.6091 -0.2525  0.6137
  163SAPE   O1318190   1.189   3.574   2.135  0.0593  0.7555  0.8902
  163SAPE   O1418191   0.979   3.698   2.122 -0.1179  0.2702  0.1405
  163SAPE   O1218192   1.001   3.483   1.979 -0.0689 -0.4481 -0.6809
  163SAPE   O1118193   0.984   3.475   2.222  0.3387  0.0957  0.4117
  163SAPE    C118194   0.891   3.530   2.317 -0.6157  0.3387 -0.0312
  163SAPE    HA18195   0.817   3.600   2.273 -1.1338  1.6705  2.7183
  163SAPE    HB18196   0.828   3.444   2.348 -1.1848  0.5483 -0.5969
  163SAPE    C218197   0.966   3.579   2.453  0.3780  0.3547 -0.2701
  163SAPE    HS18198   0.890   3.591   2.532  0.7180 -0.2405  0.1499
  163SAPE   O2118199   1.027   3.710   2.435  0.2818 -0.1121 -0.3073
  163SAPE   C2118200   0.946   3.813   2.450 -0.2647 -0.4346 -0.5209
  163SAPE   O2218201   0.836   3.804   2.498  0.4229  0.0719 -0.3844
  163SAPE   C2218202   1.005   3.934   2.377  0.1357  0.2793  0.2962
  163SAPE   H2R18203   1.089   3.898   2.314 -1.2442 -0.3259 -1.2813
  163SAPE   H2S18204   0.923   3.972   2.313  0.6017  1.5079  0.4000
  163SAPE    C318205   1.072   3.472   2.491 -0.3120  0.1126 -1.0956
  163SAPE    HX18206   1.152   3.481   2.413 -1.9116 -1.4039 -3.0002
  163SAPE    HY18207   1.032   3.371   2.472 -1.1862  0.2932 -0.2821
  163SAPE   O3118208   1.128   3.496   2.618 -0.6164 -0.6676 -0.5763
  163SAPE   C3118209   1.050   3.454   2.723 -0.4856 -0.3742  0.0368
  163SAPE   O3218210   0.955   3.379   2.712 -0.3575 -0.3921 -0.0761
  163SAPE   C3218211   1.111   3.507   2.855  0.6715 -0.1432  0.9158
  163SAPE   H2X18212   1.187   3.584   2.829  0.0985 -0.3729 -1.7621
  163SAPE   H2Y18213   1.170   3.418   2.883  1.4346 -0.3429 -1.1067
  163SAPE   C2318214   1.035   4.049   2.471 -0.3317 -0.5732 -0.1600
  163SAPE   H3R18215   0.950   4.059   2.542 -0.3456  1.5137 -0.4008
  163SAPE   H3S18216   1.033   4.141   2.409 -3.5082 -0.7452 -0.4568
  163SAPE   C2418217   1.170   4.036   2.550  0.1068  0.2374 -0.2407
  163SAPE   H4R18218   1.249   4.033   2.471  0.0190  0.8791 -0.3643
  163SAPE   H4S18219   1.183   3.940   2.603  2.1117  0.6196  0.0541
  163SAPE   C2518220   1.184   4.158   2.640 -0.3905 -0.1143  0.5120
  163SAPE   H5R18221   1.194   4.255   2.588 -0.9453  1.3692  3.0111
  163SAPE   C2618222   1.173   4.165   2.775 -0.5841 -0.1359 -0.1547
  163SAPE   H6R18223   1.190   4.261   2.825  0.9898  0.3803 -1.5635
  163SAPE   C2718224   1.139   4.045   2.862 -0.3629 -0.4744 -0.2201
  163SAPE   H7R18225   1.202   4.055   2.952 -1.8409 -0.9687  0.9262
  163SAPE   H7S18226   1.175   3.950   2.816  1.4658  0.9210 -1.8196
  163SAPE   C2818227   0.995   4.047   2.887  0.4064  0.0694 -0.2675
  163SAPE   H8R18228   0.929   4.024   2.801 -0.5692 -0.7117  0.6615
  163SAPE   C2918229   0.933   4.062   3.005 -0.2335 -0.2633  0.2525
  163SAPE   H9R18230   0.823   4.072   2.996 -0.3130  0.2483  1.6002
  163SAPE  C21018231   0.994   4.072   3.143 -0.4042 -0.1443  0.5772
  163SAPE  H10R18232   0.929   4.123   3.218  0.1728 -0.4384  1.2897
  163SAPE  H10S18233   1.090   4.128   3.143 -0.9281  0.8688  2.3755
  163SAPE  C21118234   1.019   3.929   3.184 -0.6080 -0.4920 -0.0745
  163SAPE  H11R18235   1.061   3.867   3.103  1.0161  1.1468 -0.5763
  163SAPE  C21218236   1.007   3.875   3.305 -0.1932  0.2486 -0.8517
  163SAPE  H12R18237   1.027   3.768   3.319 -0.7533  0.2019 -0.3861
  163SAPE  C21318238   0.962   3.942   3.438 -0.2455 -0.1187  0.9026
  163SAPE  H13R18239   1.000   4.046   3.425  2.1044 -1.0913 -0.7645
  163SAPE  H13S18240   1.015   3.905   3.529  0.5548 -1.7802 -0.1801
  163SAPE  C21418241   0.818   3.963   3.451  0.7663 -0.0627  0.0862
  163SAPE  H14R18242   0.764   3.924   3.364  1.1834 -0.9473  0.2120
  163SAPE  C21518243   0.757   4.008   3.566 -0.8513  0.5638 -0.0113
  163SAPE  H15R18244   0.648   4.023   3.565 -1.1407 -1.1524 -2.6285
  163SAPE  C21618245   0.837   4.048   3.691  0.6639  0.4685 -0.8390
  163SAPE  H16R18246   0.833   4.156   3.717  2.4996 -0.0014  1.7295
  163SAPE  H16S18247   0.946   4.023   3.689  0.3887 -0.9814  0.5886
  163SAPE  C21718248   0.789   3.970   3.818  0.2106  0.3403 -0.2001
  163SAPE  H17R18249   0.824   3.865   3.810 -0.1880  0.2282 -0.4697
  163SAPE  H17S18250   0.679   3.969   3.833  0.2503  0.1577  0.0918
  163SAPE  C21818251   0.850   4.029   3.951 -0.4110 -0.0509 -0.4156
  163SAPE  H18R18252   0.830   4.137   3.968  0.3328  0.2646 -1.5072
  163SAPE  H18S18253   0.959   4.017   3.932  0.1249 -0.4290  2.4460
  163SAPE  C21918254   0.805   3.965   4.078  0.7007 -0.2603 -0.2268
  163SAPE  H19R18255   0.815   3.855   4.087  1.4087 -0.3690 -2.0564
  163SAPE  H19S18256   0.701   3.997   4.102  0.9848  0.0184  0.7165
  163SAPE  C22018257   0.888   4.030   4.188 -0.3755  0.1562  0.1193
  163SAPE  H20R18258   0.994   4.031   4.154 -0.4551 -2.8391 -0.4408
  163SAPE  H20S18259   0.873   3.991   4.291 -3.0724 -1.1969 -0.6908
  163SAPE  H20T18260   0.863   4.138   4.186  0.6613  0.4053  0.0153
  163SAPE   C3318261   1.008   3.563   2.951  0.1563 -0.5171  1.0908
  163SAPE   H3X18262   0.919   3.497   2.957  1.0102 -1.7168  1.1477
  163SAPE   H3Y18263   0.972   3.660   2.912 -0.0185  0.3585  3.2905
  163SAPE   C3418264   1.063   3.583   3.092 -0.6297 -0.5788  0.0872
  163SAPE   H4X18265   0.981   3.636   3.145 -1.0127  1.0431 -2.0395
  163SAPE   H4Y18266   1.155   3.645   3.086  0.3258 -2.0543 -1.5085
  163SAPE   C3518267   1.096   3.461   3.172  0.0321  0.0767 -0.7332
  163SAPE   H5X18268   1.204   3.444   3.153  0.5744 -0.3675  2.2138
  163SAPE   H5Y18269   1.022   3.385   3.139 -2.6855  2.4699 -0.5818
  163SAPE   C3618270   1.101   3.487   3.324 -0.3489 -0.2566  0.3063
  163SAPE   H6X18271   1.157   3.582   3.335  0.1058 -0.2686 -1.5762
  163SAPE   H6Y18272   1.148   3.398   3.370  0.7152 -0.6497 -1.4353
  163SAPE   C3718273   0.964   3.504   3.391  0.3391  0.0755 -0.7396
  163SAPE   H7X18274   0.916   3.405   3.376 -0.7291  0.7919 -2.4373
  163SAPE   H7Y18275   0.905   3.589   3.350  2.6647  1.1568 -1.9813
  163SAPE   C3818276   0.993   3.530   3.544  0.3505 -0.8385  0.1806
  163SAPE   H8X18277   1.017   3.639   3.545 -1.2119 -0.4616 -0.6128
  163SAPE   H8Y18278   1.086   3.478   3.575  1.2551  0.4848 -0.2049
  163SAPE   C3918279   0.881   3.502   3.649  0.2204  0.2432 -0.1082
  163SAPE   H9X18280   0.841   3.400   3.631 -1.0963  1.0925 -2.2191
  163SAPE   H9Y18281   0.789   3.561   3.632 -1.3393 -2.0875 -0.2435
  163SAPE  C31018282   0.930   3.511   3.798 -0.0283  0.9319  0.4202
  163SAPE  H10X18283   0.982   3.609   3.802 -0.0638  0.9182  3.2321
  163SAPE  H10Y18284   1.006   3.432   3.813 -0.8286 -0.2826 -1.5374
  163SAPE  C31118285   0.819   3.503   3.902 -0.3537 -0.2374  0.3321
  163SAPE  H11X18286   0.783   3.399   3.897  0.3186 -0.4069 -2.2988
  163SAPE  H11Y18287   0.742   3.576   3.869 -0.9130 -1.5574 -1.4296
  163SAPE  C31218288   0.862   3.547   4.041  0.1874  0.4612  0.0952
  163SAPE  H12X18289   0.903   3.649   4.031 -0.5891  0.7324 -0.4367
  163SAPE  H12Y18290   0.942   3.476   4.071 -0.2901 -0.5946 -1.0523
  163SAPE  C31318291   0.747   3.551   4.146 -0.1084 -0.0812  0.6408
  163SAPE  H13X18292   0.684   3.460   4.140  0.7683 -0.6032 -3.8106
  163SAPE  H13Y18293   0.679   3.631   4.109 -1.3418 -0.3803  2.1390
  163SAPE  C31418294   0.784   3.602   4.285  0.4734 -0.0111 -0.1697
  163SAPE  H14X18295   0.691   3.628   4.339  0.5883  0.2662 -0.1028
  163SAPE  H14Y18296   0.846   3.694   4.284 -0.9826  1.0745 -3.4360
  163SAPE  C31518297   0.869   3.501   4.370  0.0474 -0.2452 -0.0847
  163SAPE  H15X18298   0.927   3.562   4.442 -1.0625  0.7352  0.0144
  163SAPE  H15Y18299   0.929   3.439   4.300 -2.7346 -1.6941 -1.3642
  163SAPE  C31618300   0.774   3.409   4.455  0.1697  0.0846 -0.3296
  163SAPE  H16X18301   0.704   3.470   4.516  0.4178 -1.3217  1.4140
  163SAPE  H16Y18302   0.837   3.360   4.531 -0.1815 -0.4258 -0.3669
  163SAPE  C31718303   0.705   3.301   4.373  0.1258  0.1856  0.5863
  163SAPE  H17X18304   0.775   3.238   4.314 -2.2586 -1.5295 -0.6128
  163SAPE  H17Y18305   0.639   3.352   4.300  0.9939  0.7897  0.2011
  163SAPE  C31818306   0.612   3.198   4.448 -0.2480  0.7198  0.9943
  163SAPE  H18X18307   0.529   3.265   4.479 -0.0802  1.0044  0.8349
  163SAPE  H18Y18308   0.661   3.146   4.533  3.4474 -0.2507 -1.4484
  163SAPE  H18Z18309   0.581   3.122   4.373  1.0674  0.0904  1.0653
  164SAPE     N18310   6.464   4.314   1.885 -0.1692  0.0767 -0.1202
  164SAPE   HN118311   6.482   4.263   1.974 -0.1565  1.9795  1.0225
  164SAPE   HN218312   6.437   4.407   1.922 -1.7245 -1.1970  2.2263
  164SAPE   HN318313   6.381   4.276   1.834  0.9513  1.6669 -3.4394
  164SAPE   C1218314   6.578   4.331   1.796  0.4549  0.1020  0.4417
  164SAPE  H12A18315   6.552   4.408   1.719 -1.2941  2.4147  3.1589
  164SAPE  H12B18316   6.605   4.232   1.752  1.9204  0.3026  0.8475
  164SAPE   C1118317   6.709   4.393   1.858 -0.3394  0.4879  0.4488
  164SAPE  H11A18318   6.762   4.436   1.771 -0.1019 -1.8009 -0.6112
  164SAPE  H11B18319   6.776   4.314   1.899  1.4208  1.2801 -0.7996
  164SAPE     P18320   6.792   4.582   2.004 -0.1056 -0.5819 -0.1752
  164SAPE   O1318321   6.925   4.519   1.984  0.1842 -0.2302 -0.0777
  164SAPE   O1418322   6.772   4.712   1.934  0.3166 -0.1528  0.3784
  164SAPE   O1218323   6.679   4.488   1.956 -0.2780 -0.4803 -0.8754
  164SAPE   O1118324   6.762   4.602   2.158  0.3137 -0.1043 -0.2038
  164SAPE    C118325   6.859   4.677   2.230 -0.9197 -0.0256  0.1636
  164SAPE    HA18326   6.928   4.605   2.281  1.7540  0.5745 -2.3171
  164SAPE    HB18327   6.936   4.734   2.173  0.6596 -0.5254  1.6959
  164SAPE    C218328   6.799   4.784   2.324  1.2051 -0.1050  0.3396
  164SAPE    HS18329   6.882   4.842   2.368 -0.3367  1.0816  1.8395
  164SAPE   O2118330   6.720   4.740   2.438  0.1851 -0.5270  0.7455
  164SAPE   C2118331   6.794   4.679   2.529 -0.2893 -0.9898 -0.2746
  164SAPE   O2218332   6.915   4.659   2.528 -0.2655 -0.5186 -0.5269
  164SAPE   C2218333   6.699   4.619   2.636  0.0276 -0.3080  0.9919
  164SAPE   H2R18334   6.597   4.604   2.594  1.2808 -3.3435 -1.3551
  164SAPE   H2S18335   6.731   4.518   2.669  0.9060 -0.7828 -1.1793
  164SAPE    C318336   6.714   4.880   2.235  0.1858  0.0478 -0.0259
  164SAPE    HX18337   6.637   4.821   2.181 -1.6607 -0.8564  3.2711
  164SAPE    HY18338   6.775   4.930   2.158  0.4895 -0.2330  0.0276
  164SAPE   O3118339   6.657   4.988   2.310 -0.9023 -0.1052  0.1982
  164SAPE   C3118340   6.525   4.986   2.337  0.1938 -0.4834  0.2056
  164SAPE   O3218341   6.446   4.902   2.314  0.4107  0.0175 -0.4121
  164SAPE   C3218342   6.491   5.107   2.419 -0.5310 -0.1789  0.1709
  164SAPE   H2X18343   6.463   5.183   2.343 -0.9940 -1.2737 -0.7935
  164SAPE   H2Y18344   6.578   5.152   2.471 -1.3074  0.9613  0.5117
  164SAPE   C2318345   6.696   4.717   2.756 -0.3993  0.1964  0.4979
  164SAPE   H3R18346   6.607   4.691   2.818  0.1317  0.0391  1.2072
  164SAPE   H3S18347   6.672   4.819   2.717 -1.5683  0.0987  0.9090
  164SAPE   C2418348   6.814   4.716   2.849 -0.6810 -0.0618  0.4753
  164SAPE   H4R18349   6.809   4.801   2.921  2.5698 -1.2319  2.3163
  164SAPE   H4S18350   6.914   4.737   2.804  0.5901  1.2004  3.5522
  164SAPE   C2518351   6.807   4.587   2.925 -0.1816 -0.1481  0.8471
  164SAPE   H5R18352   6.837   4.493   2.878 -1.8416 -0.5637  0.5584
  164SAPE   C2618353   6.760   4.564   3.047  0.3989 -0.7422 -0.0924
  164SAPE   H6R18354   6.762   4.462   3.089  0.7152 -0.3888  0.7807
  164SAPE   C2718355   6.730   4.674   3.142 -0.0955 -0.1730  0.2404
  164SAPE   H7R18356   6.773   4.773   3.115  0.7380 -0.5432  0.2038
  164SAPE   H7S18357   6.782   4.646   3.235  1.7177  0.4760 -0.5387
  164SAPE   C2818358   6.587   4.700   3.156 -0.0498  0.0427  0.4472
  164SAPE   H8R18359   6.530   4.694   3.062 -2.3851  1.7440  1.6459
  164SAPE   C2918360   6.521   4.722   3.273 -0.4548 -0.3726  0.0549
  164SAPE   H9R18361   6.411   4.725   3.275 -0.4596 -0.6756  0.3529
  164SAPE  C21018362   6.585   4.724   3.408 -0.2622 -0.2300 -0.0919
  164SAPE  H10R18363   6.696   4.730   3.408 -0.2937  0.7018  0.5284
  164SAPE  H10S18364   6.566   4.622   3.446  0.5893 -0.3449  0.0304
  164SAPE  C21118365   6.521   4.825   3.502  0.3537 -0.2001  0.2977
  164SAPE  H11R18366   6.508   4.920   3.447  0.1522  0.4967  1.5200
  164SAPE  C21218367   6.473   4.814   3.629 -0.4591  0.0675 -0.1780
  164SAPE  H12R18368   6.411   4.894   3.671 -0.2001 -0.4331  1.2192
  164SAPE  C21318369   6.466   4.691   3.722  0.0841  0.1941  0.9283
  164SAPE  H13R18370   6.498   4.717   3.825 -0.3708  0.2716  1.0533
  164SAPE  H13S18371   6.529   4.604   3.692  0.4159  0.9597 -0.7208
  164SAPE  C21418372   6.319   4.646   3.721  1.1441 -0.1715  0.6065
  164SAPE  H14R18373   6.288   4.628   3.617  1.9833 -1.0914  0.5051
  164SAPE  C21518374   6.230   4.632   3.821  0.2369  0.4942  0.4303
  164SAPE  H15R18375   6.128   4.600   3.797  0.5875  0.7619 -1.6255
  164SAPE  C21618376   6.253   4.663   3.962 -0.4040 -0.1952 -0.8582
  164SAPE  H16R18377   6.350   4.718   3.971 -1.8058  2.5823 -1.6249
  164SAPE  H16S18378   6.262   4.566   4.015 -0.6606  0.1149 -0.2396
  164SAPE  C21718379   6.153   4.752   4.027  0.4799 -0.2065  0.5815
  164SAPE  H17R18380   6.052   4.706   4.023 -0.3160  1.2959  2.2593
  164SAPE  H17S18381   6.152   4.856   3.986  0.1021 -0.2635  0.4476
  164SAPE  C21818382   6.177   4.785   4.181  0.1172  0.5125 -0.0368
  164SAPE  H18R18383   6.286   4.798   4.199  0.3426 -1.5438  0.4306
  164SAPE  H18S18384   6.152   4.690   4.234  2.1594  0.4444  0.9168
  164SAPE  C21918385   6.088   4.893   4.247 -0.0286 -0.3409 -1.0117
  164SAPE  H19R18386   5.982   4.866   4.228 -0.2643 -0.7752  0.7139
  164SAPE  H19S18387   6.112   4.990   4.200  2.3938 -0.5912 -0.4196
  164SAPE  C22018388   6.124   4.917   4.392 -0.8385 -0.6166  0.1984
  164SAPE  H20R18389   6.142   4.821   4.445  0.2969 -1.3571 -1.4214
  164SAPE  H20S18390   6.042   4.967   4.447 -1.0657 -1.2684  0.4597
  164SAPE  H20T18391   6.222   4.970   4.389 -0.5291 -1.0854  1.3632
  164SAPE   C3318392   6.382   5.076   2.524 -0.0254  0.7585 -0.0297
  164SAPE   H3X18393   6.291   5.032   2.478 -0.4918  2.1341 -0.4493
  164SAPE   H3Y18394   6.357   5.173   2.571  1.2892  1.1730 -0.1589
  164SAPE   C3418395   6.427   4.987   2.640 -0.0022 -0.0382  0.4696
  164SAPE   H4X18396   6.513   5.034   2.693  0.0478  2.1766 -1.3860
  164SAPE   H4Y18397   6.465   4.889   2.602  2.9121  0.1968  2.4679
  164SAPE   C3518398   6.311   4.941   2.723 -0.0356  0.3218 -0.8748
  164SAPE   H5X18399   6.236   4.897   2.654 -0.9356 -0.8909  0.7995
  164SAPE   H5Y18400   6.260   5.035   2.752  0.0427  0.4628 -1.1919
  164SAPE   C3618401   6.336   4.858   2.850 -0.4768 -0.4465  0.0493
  164SAPE   H6X18402   6.413   4.897   2.919 -0.7219 -0.6490  0.4395
  164SAPE   H6Y18403   6.366   4.755   2.819 -0.2599 -0.5988  0.7559
  164SAPE   C3718404   6.209   4.861   2.937 -0.0514 -0.3503  0.5875
  164SAPE   H7X18405   6.123   4.815   2.883  0.2127  0.0974 -0.2425
  164SAPE   H7Y18406   6.185   4.969   2.951  1.5788  0.6932 -3.1648
  164SAPE   C3818407   6.218   4.785   3.067 -0.4675 -0.4959  0.5546
  164SAPE   H8X18408   6.281   4.848   3.134 -0.1911  0.3292 -0.4628
  164SAPE   H8Y18409   6.253   4.682   3.047 -0.0164 -0.0961 -0.8055
  164SAPE   C3918410   6.077   4.765   3.125  0.3629 -0.5192  0.7003
  164SAPE   H9X18411   6.023   4.689   3.063  0.5318 -0.1947  0.1473
  164SAPE   H9Y18412   6.020   4.859   3.115  1.2468 -0.1952 -2.7422
  164SAPE  C31018413   6.077   4.741   3.276  0.4981  0.5193 -0.0801
  164SAPE  H10X18414   6.129   4.651   3.315 -1.9895 -0.8036  0.4565
  164SAPE  H10Y18415   5.970   4.720   3.301  1.7681 -2.2076  4.1234
  164SAPE  C31118416   6.103   4.873   3.346  0.3573  0.2680 -0.1194
  164SAPE  H11X18417   6.024   4.948   3.324  0.8430  0.6602 -0.5555
  164SAPE  H11Y18418   6.205   4.910   3.320  0.2750  0.4777 -0.1441
  164SAPE  C31218419   6.100   4.863   3.503  0.2844  0.2488 -0.5192
  164SAPE  H12X18420   6.199   4.816   3.523  0.1760 -0.8120 -2.3266
  164SAPE  H12Y18421   6.027   4.785   3.534  0.6020 -0.6126 -1.8736
  164SAPE  C31318422   6.090   5.002   3.567 -0.3895  0.6135  0.0903
  164SAPE  H13X18423   6.002   5.053   3.522  0.4582  0.7512 -1.4739
  164SAPE  H13Y18424   6.176   5.065   3.538 -0.1475  0.1933 -0.1233
  164SAPE  C31418425   6.093   4.995   3.716  0.3896  0.4556 -0.0384
  164SAPE  H14X18426   6.178   4.931   3.748  0.0356 -1.3377 -2.4595
  164SAPE  H14Y18427   6.003   4.930   3.732  1.4234 -1.1070 -0.3143
  164SAPE  C31518428   6.074   5.131   3.775 -0.0847 -0.2373  0.2068
  164SAPE  H15X18429   5.973   5.173   3.757 -0.3001 -1.0067 -0.4314
  164SAPE  H15Y18430   6.145   5.203   3.727  1.0210 -0.6685  1.1469
  164SAPE  C31618431   6.095   5.152   3.922  0.6176 -0.0654 -0.5155
  164SAPE  H16X18432   6.202   5.142   3.953 -0.1884  1.0704  3.1719
  164SAPE  H16Y18433   6.046   5.070   3.978 -0.5289  1.4886  0.8774
  164SAPE  C31718434   6.050   5.291   3.963  0.5143 -0.0438  0.2963
  164SAPE  H17X18435   5.950   5.311   3.920  0.7351  1.3833  0.3979
  164SAPE  H17Y18436   6.131   5.353   3.918  2.0091 -0.9521  1.6138
  164SAPE  C31818437   6.025   5.318   4.114 -0.8669  0.5179 -0.1255
  164SAPE  H18X18438   6.113   5.278   4.170 -1.1864  0.5891  0.4267
  164SAPE  H18Y18439   5.942   5.251   4.142 -0.0066 -1.4377 -1.9680
  164SAPE  H18Z18440   6.015   5.424   4.144  0.4035  0.7210 -0.3637
  165SAPE     N18441   4.428   1.235   1.887  0.2288  0.3201 -0.5175
  165SAPE   HN118442   4.419   1.270   1.984  1.6160 -0.3782 -0.1131
  165SAPE   HN218443   4.503   1.291   1.842  0.6020 -1.8884 -2.9456
  165SAPE   HN318444   4.337   1.244   1.837  0.2303 -1.4520 -0.9252
  165SAPE   C1218445   4.487   1.100   1.874 -0.0757  0.1088 -0.1619
  165SAPE  H12A18446   4.454   1.051   1.780  0.9288  1.0822 -1.0447
  165SAPE  H12B18447   4.451   1.034   1.956 -0.6424  0.1111 -0.4021
  165SAPE   C1118448   4.641   1.108   1.882 -0.1383  1.0632 -0.6153
  165SAPE  H11A18449   4.698   1.162   1.804 -0.0610  1.6795 -0.1437
  165SAPE  H11B18450   4.660   1.000   1.869 -4.3413  0.1056 -0.2574
  165SAPE     P18451   4.814   1.133   2.078 -0.1772  0.1050 -0.2544
  165SAPE   O1318452   4.921   1.188   1.991  0.1479  0.6841 -0.5088
  165SAPE   O1418453   4.809   1.188   2.212 -0.5602 -0.3567 -0.5192
  165SAPE   O1218454   4.672   1.154   2.009  0.6305 -0.4232 -0.1298
  165SAPE   O1118455   4.830   0.974   2.082  0.4111 -0.9256  0.0882
  165SAPE    C118456   4.755   0.889   2.171 -0.0067  0.1026  0.0944
  165SAPE    HA18457   4.649   0.924   2.166 -0.5025 -1.3627 -0.1306
  165SAPE    HB18458   4.756   0.788   2.126  0.3776  0.9822 -1.9810
  165SAPE    C218459   4.812   0.878   2.313 -0.4320  0.1506  0.6229
  165SAPE    HS18460   4.803   0.971   2.373  0.7083 -0.6256  2.0496
  165SAPE   O2118461   4.951   0.843   2.299  0.6568  0.4751 -0.2896
  165SAPE   C2118462   5.033   0.906   2.383 -0.7857  0.2099  0.8307
  165SAPE   O2218463   4.998   0.983   2.467  1.1016  0.3634  0.5489
  165SAPE   C2218464   5.174   0.848   2.360 -0.0712  0.1413  0.1666
  165SAPE   H2R18465   5.176   0.737   2.368  3.2503  0.1213  0.4434
  165SAPE   H2S18466   5.214   0.870   2.259  3.0806  0.7478  1.4406
  165SAPE    C318467   4.737   0.768   2.392 -0.3157 -0.1812  0.4232
  165SAPE    HX18468   4.776   0.670   2.356  0.3841  0.5642 -0.9177
  165SAPE    HY18469   4.630   0.773   2.362 -0.4504 -0.1002  0.9176
  165SAPE   O3118470   4.750   0.772   2.533 -0.0813  0.0721  0.0289
  165SAPE   C3118471   4.848   0.707   2.598 -0.2333  0.0289  0.3622
  165SAPE   O3218472   4.924   0.625   2.546  0.0190 -0.4026 -0.1022
  165SAPE   C3218473   4.840   0.731   2.754  0.2335 -0.9332 -0.2615
  165SAPE   H2X18474   4.734   0.747   2.782  0.2389 -0.1064 -0.6725
  165SAPE   H2Y18475   4.889   0.827   2.782 -0.1277 -0.4395 -1.2461
  165SAPE   C2318476   5.272   0.906   2.460  0.2359  0.1003  0.1731
  165SAPE   H3R18477   5.229   0.894   2.562 -1.6571  1.2007 -0.4558
  165SAPE   H3S18478   5.273   1.014   2.436 -1.1742 -0.3653 -2.3642
  165SAPE   C2418479   5.413   0.846   2.446  0.0308  0.4468 -0.3597
  165SAPE   H4R18480   5.470   0.907   2.520 -0.4455  0.9131 -0.3718
  165SAPE   H4S18481   5.449   0.871   2.343 -1.1370  0.2800 -0.8150
  165SAPE   C2518482   5.429   0.705   2.487  0.2301 -0.1676  0.0549
  165SAPE   H5R18483   5.390   0.634   2.413 -1.9297  3.2714 -2.4180
  165SAPE   C2618484   5.471   0.656   2.609  0.2831  1.0758  0.3967
  165SAPE   H6R18485   5.497   0.550   2.622  3.0539  1.9182  2.6952
  165SAPE   C2718486   5.519   0.722   2.736  0.1604 -0.7175 -0.9549
  165SAPE   H7R18487   5.615   0.775   2.716  1.1050 -1.4988  1.2805
  165SAPE   H7S18488   5.543   0.639   2.805 -0.7288  0.5108  0.8944
  165SAPE   C2818489   5.425   0.820   2.803  0.2053 -0.1458 -0.0789
  165SAPE   H8R18490   5.378   0.891   2.734  1.0726 -0.6184 -1.1817
  165SAPE   C2918491   5.374   0.821   2.926 -0.2575 -0.5267 -0.4390
  165SAPE   H9R18492   5.303   0.901   2.952 -0.6152  0.2086 -3.3906
  165SAPE  C21018493   5.411   0.741   3.049 -0.3662  0.5071 -0.8404
  165SAPE  H10R18494   5.435   0.818   3.125 -0.4411  0.1751 -0.4741
  165SAPE  H10S18495   5.497   0.672   3.031 -0.7585 -0.1290 -0.3209
  165SAPE  C21118496   5.294   0.662   3.101 -0.5428 -0.2259  0.6340
  165SAPE  H11R18497   5.199   0.658   3.046 -1.1551 -2.3891  1.7286
  165SAPE  C21218498   5.291   0.596   3.217 -0.3461  0.1035 -0.0382
  165SAPE  H12R18499   5.201   0.549   3.261  0.2206 -1.9184 -0.9137
  165SAPE  C21318500   5.406   0.581   3.313  0.0648  0.0567 -0.2373
  165SAPE  H13R18501   5.502   0.562   3.261 -0.7943  1.4332 -2.5119
  165SAPE  H13S18502   5.390   0.492   3.378 -1.0828  1.3764  1.3505
  165SAPE  C21418503   5.425   0.704   3.396 -0.4620 -0.0385  0.6569
  165SAPE  H14R18504   5.468   0.777   3.325  0.7336  0.5455  1.9344
  165SAPE  C21518505   5.428   0.735   3.526  0.2100  0.5444  0.6265
  165SAPE  H15R18506   5.436   0.842   3.550  0.9284  0.4165  0.9628
  165SAPE  C21618507   5.381   0.642   3.641 -0.0850 -0.2804  0.1472
  165SAPE  H16R18508   5.469   0.624   3.706 -0.1677  1.4043  0.7545
  165SAPE  H16S18509   5.352   0.541   3.604  0.8804 -1.3579  2.1636
  165SAPE  C21718510   5.269   0.689   3.735 -0.3289 -0.2857  0.4001
  165SAPE  H17R18511   5.169   0.681   3.686  0.5822 -1.9510 -1.3296
  165SAPE  H17S18512   5.294   0.795   3.754  2.8248 -0.3728 -2.4028
  165SAPE  C21818513   5.250   0.617   3.866  0.7672 -0.0140 -0.6086
  165SAPE  H18R18514   5.352   0.601   3.906  1.9417  1.1627 -2.9314
  165SAPE  H18S18515   5.206   0.517   3.844 -0.3512  0.5442 -1.0169
  165SAPE  C21918516   5.158   0.681   3.968 -0.1425  0.1384 -0.4098
  165SAPE  H19R18517   5.083   0.601   3.988 -0.0254 -0.2517 -1.4415
  165SAPE  H19S18518   5.104   0.766   3.922  1.1682  0.8704 -0.6300
  165SAPE  C22018519   5.223   0.733   4.096 -0.0137  0.4342  0.3257
  165SAPE  H20R18520   5.304   0.664   4.128 -0.0707  0.6215  0.8793
  165SAPE  H20S18521   5.152   0.731   4.181  1.1955 -1.9485  1.3699
  165SAPE  H20T18522   5.279   0.828   4.088 -0.4513  0.6799  0.1403
  165SAPE   C3318523   4.887   0.617   2.853 -0.1138 -0.5659 -0.2311
  165SAPE   H3X18524   4.998   0.621   2.862 -0.1844 -0.2515  0.5451
  165SAPE   H3Y18525   4.860   0.518   2.809 -1.9599  0.6090 -1.8565
  165SAPE   C3418526   4.823   0.639   2.990 -0.7147  0.3358  0.1264
  165SAPE   H4X18527   4.715   0.615   3.002 -1.1701  2.1893  0.1159
  165SAPE   H4Y18528   4.839   0.744   3.025 -1.0841 -0.4675  3.0174
  165SAPE   C3518529   4.891   0.560   3.110  0.2733 -0.1060  0.0497
  165SAPE   H5X18530   5.000   0.582   3.116  0.1123  0.2567  4.2468
  165SAPE   H5Y18531   4.888   0.450   3.094  0.3055 -0.1789  0.5356
  165SAPE   C3618532   4.824   0.594   3.240 -0.0208  0.2996 -0.2897
  165SAPE   H6X18533   4.714   0.587   3.224 -0.1935  1.5325  0.1961
  165SAPE   H6Y18534   4.846   0.700   3.264 -2.0620  0.3795  1.5973
  165SAPE   C3718535   4.864   0.516   3.360 -0.2902 -0.5324 -0.3657
  165SAPE   H7X18536   4.970   0.548   3.372 -1.2103  2.0757  1.6249
  165SAPE   H7Y18537   4.850   0.406   3.353 -0.6178 -0.4068 -2.3184
  165SAPE   C3818538   4.777   0.563   3.485 -0.6841 -0.4234  0.0638
  165SAPE   H8X18539   4.673   0.529   3.467 -0.7849  0.3492 -0.9042
  165SAPE   H8Y18540   4.785   0.674   3.490  0.8237 -0.5362  0.8458
  165SAPE   C3918541   4.830   0.500   3.613  0.0176 -0.0709 -0.0508
  165SAPE   H9X18542   4.936   0.526   3.634  0.7284 -1.4170 -1.7577
  165SAPE   H9Y18543   4.823   0.389   3.600 -0.8353  0.0424 -0.6515
  165SAPE  C31018544   4.758   0.552   3.738  0.0440  0.2476 -0.4343
  165SAPE  H10X18545   4.649   0.534   3.725  0.2024 -0.0587 -1.4683
  165SAPE  H10Y18546   4.775   0.661   3.736  1.6712  0.0237 -1.2337
  165SAPE  C31118547   4.806   0.496   3.873 -0.0471  0.0106  0.2584
  165SAPE  H11X18548   4.917   0.504   3.878 -0.0554  0.2272  0.0927
  165SAPE  H11Y18549   4.782   0.389   3.889 -0.2054 -0.0017 -0.0404
  165SAPE  C31218550   4.758   0.584   3.985 -0.0218  0.3024 -0.3788
  165SAPE  H12X18551   4.647   0.588   3.985 -0.0577 -0.4396  0.3278
  165SAPE  H12Y18552   4.804   0.680   3.955  0.2864 -0.4375 -2.4004
  165SAPE  C31318553   4.801   0.536   4.126 -0.5078 -0.1880 -0.1222
  165SAPE  H13X18554   4.787   0.621   4.197 -1.1299 -1.1049  0.8756
  165SAPE  H13Y18555   4.908   0.506   4.126 -0.7576 -1.1296  0.5245
  165SAPE  C31418556   4.718   0.418   4.170 -0.8335 -0.1764 -0.7452
  165SAPE  H14X18557   4.740   0.316   4.133 -0.8470 -0.0923 -0.9857
  165SAPE  H14Y18558   4.610   0.440   4.158 -1.1026 -0.9420  0.1128
  165SAPE  C31518559   4.727   0.410   4.324  0.2567  0.0299 -0.2271
  165SAPE  H15X18560   4.696   0.509   4.366 -0.3966 -0.9539  1.7410
  165SAPE  H15Y18561   4.829   0.381   4.355  0.2746 -0.9681 -1.1890
  165SAPE  C31618562   4.633   0.302   4.383  0.0422 -0.8123  0.6242
  165SAPE  H16X18563   4.637   0.213   4.315  2.6704  0.5687 -1.2348
  165SAPE  H16Y18564   4.528   0.334   4.366  0.3786 -0.9766 -2.1997
  165SAPE  C31718565   4.654   0.265   4.528 -0.5615 -0.2987  0.1899
  165SAPE  H17X18566   4.690   0.354   4.584 -2.3106 -0.2150  1.2424
  165SAPE  H17Y18567   4.737   0.191   4.522  0.4374  0.8114 -0.1967
  165SAPE  C31818568   4.536   0.195   4.603 -0.3765 -0.0834  0.1208
  165SAPE  H18X18569   4.490   0.104   4.557 -1.8130  0.9433 -0.5623
  165SAPE  H18Y18570   4.454   0.271   4.601  1.5117  2.0767 -3.0632
  165SAPE  H18Z18571   4.562   0.184   4.711 -0.8076  2.3341  0.5255
  166SAPE     N18572   0.668   6.202   2.110  0.4149 -0.4309 -0.1670
  166SAPE   HN118573   0.666   6.280   2.179  0.1881  0.8891 -1.6192
  166SAPE   HN218574   0.610   6.126   2.150  1.8391 -0.0173  2.9657
  166SAPE   HN318575   0.763   6.160   2.100 -0.2885 -1.9743 -0.8005
  166SAPE   C1218576   0.598   6.253   1.986  0.1245 -0.8697 -0.1709
  166SAPE  H12A18577   0.590   6.166   1.917  1.8282 -1.2094 -0.0057
  166SAPE  H12B18578   0.669   6.328   1.944  0.5139 -0.8157  0.5610
  166SAPE   C1118579   0.468   6.317   1.998  0.9236 -0.0435 -0.6797
  166SAPE  H11A18580   0.398   6.248   2.050  0.7328  1.2645  0.8659
  166SAPE  H11B18581   0.426   6.355   1.903  0.0895  0.8841  0.0376
  166SAPE     P18582   0.518   6.571   2.052 -0.0261 -0.3159 -0.0271
  166SAPE   O1318583   0.646   6.565   1.981  0.5582  0.2522 -0.0506
  166SAPE   O1418584   0.412   6.636   1.970  0.3013 -0.0958 -0.3799
  166SAPE   O1218585   0.477   6.426   2.094  0.0948 -0.2289 -0.3989
  166SAPE   O1118586   0.539   6.650   2.182  0.3796 -0.1958 -0.0541
  166SAPE    C118587   0.418   6.670   2.271 -1.1741 -0.8158  0.6254
  166SAPE    HA18588   0.363   6.758   2.234  0.8233 -0.0866 -0.7811
  166SAPE    HB18589   0.342   6.590   2.258 -0.5526 -1.7323  2.2035
  166SAPE    C218590   0.446   6.679   2.424  0.4446 -0.1521 -0.2912
  166SAPE    HS18591   0.521   6.761   2.422 -0.3841  0.7067 -3.9992
  166SAPE   O2118592   0.508   6.560   2.473  0.1604 -0.3508 -0.7138
  166SAPE   C2118593   0.578   6.569   2.591 -0.1849 -0.4943  0.4567
  166SAPE   O2218594   0.600   6.675   2.650 -0.0691 -0.0688 -0.0313
  166SAPE   C2218595   0.630   6.428   2.623 -0.0066  0.2325 -0.3048
  166SAPE   H2R18596   0.552   6.353   2.598  0.6110 -0.8773  0.9444
  166SAPE   H2S18597   0.719   6.399   2.562  0.9382  0.9999  0.6570
  166SAPE    C318598   0.325   6.709   2.509  0.2124  0.4602 -0.5354
  166SAPE    HX18599   0.291   6.810   2.478  2.6394  1.4452 -0.2242
  166SAPE    HY18600   0.340   6.717   2.619  1.0471 -0.5157 -0.5650
  166SAPE   O3118601   0.224   6.617   2.479 -0.6064 -0.3487  0.0560
  166SAPE   C3118602   0.223   6.509   2.551  1.0608  0.2423  0.3323
  166SAPE   O3218603   0.299   6.478   2.638  0.8212  0.1159 -0.3626
  166SAPE   C3218604   0.097   6.429   2.511 -0.2760 -0.7723 -0.2171
  166SAPE   H2X18605   0.128   6.327   2.541 -0.8046 -1.0754 -0.6964
  166SAPE   H2Y18606   0.094   6.431   2.400  0.1573  0.5522 -0.2244
  166SAPE   C2318607   0.686   6.417   2.762 -0.1195  0.1060  0.5695
  166SAPE   H3R18608   0.596   6.395   2.824 -1.2047 -0.4605 -1.1390
  166SAPE   H3S18609   0.730   6.515   2.790 -2.1656  1.0961  0.5221
  166SAPE   C2418610   0.793   6.308   2.770  0.4863 -1.1272  0.3312
  166SAPE   H4R18611   0.832   6.329   2.872 -0.5535 -0.0487  0.5305
  166SAPE   H4S18612   0.879   6.323   2.702  0.8778 -0.4696  0.9618
  166SAPE   C2518613   0.736   6.167   2.782 -0.0982  0.5213  0.7594
  166SAPE   H5R18614   0.688   6.124   2.693 -0.8436  2.4352  0.1934
  166SAPE   C2618615   0.735   6.088   2.891  0.4169 -0.2463  0.3322
  166SAPE   H6R18616   0.692   5.986   2.889  0.8268 -0.4173 -1.1450
  166SAPE   C2718617   0.771   6.136   3.031  0.2535  0.1411  0.5349
  166SAPE   H7R18618   0.726   6.237   3.039  0.0698  0.2210 -1.1448
  166SAPE   H7S18619   0.878   6.163   3.039  0.4249 -0.5850  0.7532
  166SAPE   C2818620   0.728   6.041   3.148 -0.2581  0.1221  0.7485
  166SAPE   H8R18621   0.765   5.938   3.147  0.4174  0.3594 -0.3787
  166SAPE   C2918622   0.626   6.065   3.234 -0.0070  0.3364  0.4266
  166SAPE   H9R18623   0.614   6.007   3.327 -1.4515 -0.4204 -0.1981
  166SAPE  C21018624   0.556   6.199   3.242  0.3914 -0.0126 -0.9457
  166SAPE  H10R18625   0.617   6.288   3.220  0.1281  0.2191 -0.7418
  166SAPE  H10S18626   0.526   6.208   3.348 -0.2460  3.0825 -1.3002
  166SAPE  C21118627   0.436   6.215   3.164 -0.3659  0.4224 -0.2195
  166SAPE  H11R18628   0.453   6.235   3.057  1.0607  2.8125  0.3873
  166SAPE  C21218629   0.309   6.224   3.210 -0.4035  0.1005  0.2795
  166SAPE  H12R18630   0.230   6.230   3.135 -0.2111 -0.0157  0.0671
  166SAPE  C21318631   0.261   6.200   3.356 -0.6502  0.1388  0.0076
  166SAPE  H13R18632   0.328   6.125   3.403 -0.6774 -0.4108 -0.8129
  166SAPE  H13S18633   0.163   6.148   3.352 -1.2669  1.2821 -0.2804
  166SAPE  C21418634   0.247   6.330   3.434 -0.2036 -0.0534 -0.5527
  166SAPE  H14R18635   0.263   6.424   3.378 -0.4170  0.5451  0.3653
  166SAPE  C21518636   0.220   6.345   3.568 -0.3478  0.1297 -0.0557
  166SAPE  H15R18637   0.220   6.441   3.621 -2.1679 -1.3100  2.8503
  166SAPE  C21618638   0.188   6.236   3.663 -0.4086 -0.1317  0.3079
  166SAPE  H16R18639   0.096   6.183   3.629 -1.0342 -0.4778  2.4136
  166SAPE  H16S18640   0.162   6.268   3.766  3.8754 -1.6424  2.0715
  166SAPE  C21718641   0.299   6.136   3.689 -0.3148  0.0291  0.4725
  166SAPE  H17R18642   0.358   6.096   3.604  0.5175  0.8660  0.6406
  166SAPE  H17S18643   0.250   6.044   3.728  0.4871 -1.0720 -0.9991
  166SAPE  C21818644   0.407   6.182   3.791  0.5342 -0.1389  0.0346
  166SAPE  H18R18645   0.350   6.207   3.882 -0.2274 -1.1500 -0.1432
  166SAPE  H18S18646   0.447   6.273   3.742 -2.4361  1.1854 -0.1177
  166SAPE  C21918647   0.517   6.084   3.826 -0.5685  0.1405 -0.1822
  166SAPE  H19R18648   0.559   6.053   3.727 -0.0678  0.1707  0.0157
  166SAPE  H19S18649   0.465   6.000   3.876 -1.2647  1.3005  1.0929
  166SAPE  C22018650   0.614   6.147   3.926  0.4429  0.0655 -0.1234
  166SAPE  H20R18651   0.675   6.076   3.985 -0.3502 -0.1122  0.5072
  166SAPE  H20S18652   0.575   6.218   4.003 -1.4261 -1.6430  0.5738
  166SAPE  H20T18653   0.688   6.206   3.868  0.3628 -0.8221 -1.1560
  166SAPE   C3318654  -0.032   6.462   2.588 -0.0090  0.3858  0.4021
  166SAPE   H3X18655  -0.074   6.561   2.560  2.2067  1.5876  1.0495
  166SAPE   H3Y18656  -0.008   6.460   2.696 -0.4875 -0.4471  0.4956
  166SAPE   C3418657  -0.140   6.361   2.554  0.4636 -0.1352 -0.3365
  166SAPE   H4X18658  -0.102   6.272   2.499  1.0669  0.2093 -0.4894
  166SAPE   H4Y18659  -0.223   6.405   2.494  0.0891  2.0943  1.6446
  166SAPE   C3518660  -0.191   6.302   2.684  0.4455  0.3349  0.0364
  166SAPE   H5X18661  -0.287   6.248   2.677  1.5224 -1.4594 -1.8705
  166SAPE   H5Y18662  -0.219   6.385   2.753 -1.1034 -0.0056 -0.1573
  166SAPE   C3618663  -0.099   6.203   2.763  0.2280  0.4420 -0.4255
  166SAPE   H6X18664  -0.013   6.264   2.800  0.8165 -0.3618 -0.4530
  166SAPE   H6Y18665  -0.079   6.141   2.672 -3.1350 -1.6340  0.0941
  166SAPE   C3718666  -0.167   6.127   2.882 -0.0482  0.2464  0.0777
  166SAPE   H7X18667  -0.261   6.082   2.844  0.3580  0.0144 -0.6718
  166SAPE   H7Y18668  -0.205   6.211   2.944 -3.3268  0.3112 -1.8028
  166SAPE   C3818669  -0.074   6.040   2.970  0.4061  0.0575  0.0117
  166SAPE   H8X18670   0.020   6.097   2.986  1.2243 -0.5175 -2.3343
  166SAPE   H8Y18671  -0.046   5.947   2.916 -0.7135 -0.1430 -0.2583
  166SAPE   C3918672  -0.134   5.996   3.109 -0.5487 -0.1743 -0.4337
  166SAPE   H9X18673  -0.219   5.933   3.076 -0.1123  0.3202 -2.6950
  166SAPE   H9Y18674  -0.183   6.086   3.152 -2.5371 -1.0608 -0.7180
  166SAPE  C31018675  -0.035   5.928   3.216 -0.1143  0.6717  0.0991
  166SAPE  H10X18676   0.055   5.988   3.240  0.1920  0.2491  0.0142
  166SAPE  H10Y18677  -0.014   5.828   3.174  1.8579  1.8617 -1.9549
  166SAPE  C31118678  -0.106   5.900   3.351 -0.0207 -0.9119 -0.2570
  166SAPE  H11X18679  -0.067   5.808   3.401 -0.9662 -2.3653 -2.0818
  166SAPE  H11Y18680  -0.207   5.863   3.324 -0.8842  1.5272 -0.5796
  166SAPE  C31218681  -0.110   6.008   3.458  0.4482  0.1285  0.0551
  166SAPE  H12X18682  -0.157   6.097   3.410 -1.8779 -1.8945 -1.6462
  166SAPE  H12Y18683  -0.004   6.026   3.486  0.7730 -1.9282  0.2728
  166SAPE  C31318684  -0.201   5.984   3.581 -0.5930 -0.8575  0.1951
  166SAPE  H13X18685  -0.168   5.894   3.637 -0.0168 -0.3282  0.7084
  166SAPE  H13Y18686  -0.305   5.959   3.549 -0.4645 -1.9491  0.5778
  166SAPE  C31418687  -0.193   6.100   3.680 -0.2547 -0.3217  0.2934
  166SAPE  H14X18688  -0.206   6.202   3.636  3.2236  1.1845  2.3567
  166SAPE  H14Y18689  -0.088   6.096   3.715 -0.1403 -3.7139 -0.1153
  166SAPE  C31518690  -0.290   6.084   3.793  0.4080  0.5264 -0.3666
  166SAPE  H15X18691  -0.263   5.991   3.846 -0.9550  1.3231  1.8597
  166SAPE  H15Y18692  -0.395   6.073   3.760  0.7477 -1.0278 -1.0104
  166SAPE  C31618693  -0.272   6.204   3.887  0.0485 -0.0084 -0.5744
  166SAPE  H16X18694  -0.294   6.296   3.830 -0.0504  0.5916  0.4214
  166SAPE  H16Y18695  -0.166   6.205   3.922  0.2612  1.0259 -1.2074
  166SAPE  C31718696  -0.366   6.191   4.014 -0.4035 -0.1994  0.2356
  166SAPE  H17X18697  -0.360   6.103   4.081  2.3415 -1.7782 -1.8954
  166SAPE  H17Y18698  -0.469   6.184   3.972 -0.5186 -0.8652  0.6031
  166SAPE  C31818699  -0.357   6.318   4.105 -0.1865  0.1970  0.8601
  166SAPE  H18X18700  -0.268   6.303   4.171 -0.2505  1.1282  1.1789
  166SAPE  H18Y18701  -0.449   6.315   4.167 -0.9199 -2.2185 -0.2198
  166SAPE  H18Z18702  -0.360   6.412   4.045 -0.2113 -0.4458 -0.1792
  167SAPE     N18703   6.007   4.267   2.343 -0.3404  0.2733  0.1292
  167SAPE   HN118704   5.933   4.213   2.294  2.1880 -1.3998 -2.1740
  167SAPE   HN218705   6.077   4.200   2.379  1.1061  0.8045 -1.5145
  167SAPE   HN318706   5.961   4.332   2.409 -2.6156 -0.1794 -0.9118
  167SAPE   C1218707   6.079   4.345   2.233 -0.1045  0.4993  0.1203
  167SAPE  H12A18708   6.150   4.409   2.289  2.2905 -0.7163 -1.3829
  167SAPE  H12B18709   6.001   4.413   2.190  0.3412  0.1085 -1.3659
  167SAPE   C1118710   6.148   4.240   2.143  0.1009 -0.6893 -0.6294
  167SAPE  H11A18711   6.208   4.289   2.064  1.4902 -0.7940  0.3328
  167SAPE  H11B18712   6.064   4.183   2.098 -3.2607  2.3691  1.1322
  167SAPE     P18713   6.335   4.068   2.142 -0.0914  0.1985  0.1872
  167SAPE   O1318714   6.268   3.987   2.032 -0.2083 -0.2256  0.4528
  167SAPE   O1418715   6.449   4.154   2.107  0.0822 -0.2726 -0.0041
  167SAPE   O1218716   6.236   4.158   2.219 -0.3822 -0.4573 -0.1976
  167SAPE   O1118717   6.386   3.969   2.253 -0.0831 -0.0958  0.1797
  167SAPE    C118718   6.329   3.844   2.295 -0.1555  0.0561 -0.2531
  167SAPE    HA18719   6.275   3.813   2.203 -2.3877  3.8256 -0.4218
  167SAPE    HB18720   6.414   3.774   2.310 -0.0336  0.4809  1.1824
  167SAPE    C218721   6.227   3.853   2.405 -0.3000 -0.4276  0.1224
  167SAPE    HS18722   6.135   3.908   2.373 -1.1707 -0.9332  1.6402
  167SAPE   O2118723   6.298   3.914   2.509 -0.1557 -0.0110 -0.6844
  167SAPE   C2118724   6.269   4.037   2.537 -0.1632 -0.6572  0.6453
  167SAPE   O2218725   6.180   4.108   2.486 -0.0581 -0.0117 -0.1469
  167SAPE   C2218726   6.361   4.085   2.650 -0.3746 -0.1608  0.2016
  167SAPE   H2R18727   6.301   4.117   2.738  0.5844  0.2559  0.7298
  167SAPE   H2S18728   6.419   3.998   2.688 -0.0423 -0.2697 -0.5345
  167SAPE    C318729   6.155   3.726   2.462  0.3972  0.5031  0.1848
  167SAPE    HX18730   6.107   3.697   2.367 -0.7595  2.5348  0.1019
  167SAPE    HY18731   6.086   3.750   2.546  2.4178  0.7661  1.8703
  167SAPE   O3118732   6.255   3.634   2.504  0.8412  0.9302 -0.1892
  167SAPE   C3118733   6.201   3.516   2.532 -0.4748 -0.0392  0.3396
  167SAPE   O3218734   6.082   3.490   2.542  0.0752  0.0684  0.0713
  167SAPE   C3218735   6.314   3.415   2.554  0.0144 -0.3925 -0.4138
  167SAPE   H2X18736   6.371   3.443   2.645  1.2385 -2.7190 -0.3852
  167SAPE   H2Y18737   6.386   3.420   2.469  0.7802  0.0833  0.2541
  167SAPE   C2318738   6.456   4.196   2.599 -0.0909  0.1336  0.5886
  167SAPE   H3R18739   6.400   4.268   2.536 -2.2002 -1.3646  0.6319
  167SAPE   H3S18740   6.539   4.151   2.541 -2.4111 -1.3610 -1.7832
  167SAPE   C2418741   6.539   4.274   2.700 -0.3020  0.6304 -0.2163
  167SAPE   H4R18742   6.639   4.313   2.672 -0.4661  0.0530 -1.6619
  167SAPE   H4S18743   6.556   4.202   2.783 -2.1125 -1.4806 -1.5505
  167SAPE   C2518744   6.458   4.387   2.754 -0.1893 -0.6172  0.2964
  167SAPE   H5R18745   6.463   4.479   2.694 -1.9002 -0.2295  0.6820
  167SAPE   C2618746   6.396   4.402   2.875  0.3266  0.0746  0.2104
  167SAPE   H6R18747   6.345   4.496   2.901  0.2808 -0.6831  3.1589
  167SAPE   C2718748   6.382   4.291   2.979 -0.0363  0.3310 -0.4402
  167SAPE   H7R18749   6.405   4.196   2.927 -1.4221  1.3236 -3.0696
  167SAPE   H7S18750   6.278   4.271   3.014  0.9553 -1.1986  1.8497
  167SAPE   C2818751   6.482   4.316   3.087 -0.4028  0.3450 -0.4858
  167SAPE   H8R18752   6.582   4.342   3.049  0.6355 -2.7016 -0.0631
  167SAPE   C2918753   6.473   4.317   3.219 -0.1437  0.6542 -0.5293
  167SAPE   H9R18754   6.563   4.327   3.282 -0.4667  1.4726 -0.1857
  167SAPE  C21018755   6.352   4.284   3.296  0.1464 -0.2098 -0.0611
  167SAPE  H10R18756   6.320   4.181   3.270 -1.5259  0.5948 -1.4289
  167SAPE  H10S18757   6.271   4.344   3.249 -2.2079 -2.4000  0.9577
  167SAPE  C21118758   6.356   4.310   3.445  0.4216  0.0296 -0.8907
  167SAPE  H11R18759   6.422   4.396   3.467 -0.7270  1.0906 -1.4898
  167SAPE  C21218760   6.293   4.245   3.545  0.1536 -0.7367  0.7525
  167SAPE  H12R18761   6.300   4.286   3.647 -0.3616  1.4373 -0.0279
  167SAPE  C21318762   6.196   4.125   3.528 -0.6653 -0.9207 -0.3248
  167SAPE  H13R18763   6.230   4.077   3.434  0.3640 -1.8463  0.4989
  167SAPE  H13S18764   6.095   4.165   3.504 -0.2313  0.6439  0.2896
  167SAPE  C21418765   6.187   4.031   3.646 -0.4883  0.0128  0.2916
  167SAPE  H14R18766   6.287   4.011   3.688  0.3886 -0.9771 -2.1329
  167SAPE  C21518767   6.076   3.969   3.697  0.0218 -0.2675 -0.0040
  167SAPE  H15R18768   6.093   3.885   3.766 -0.2159 -0.5553 -0.2944
  167SAPE  C21618769   5.926   3.979   3.657 -0.1948  0.6712  0.5179
  167SAPE  H16R18770   5.903   4.079   3.613  1.8012  0.5780 -0.9226
  167SAPE  H16S18771   5.863   3.973   3.748  0.4530 -0.6975  0.8879
  167SAPE  C21718772   5.882   3.866   3.569 -0.0114 -0.2059  0.7200
  167SAPE  H17R18773   5.771   3.863   3.565  0.0256 -0.5083 -0.7026
  167SAPE  H17S18774   5.908   3.763   3.602 -0.8800 -1.6834 -2.6918
  167SAPE  C21818775   5.934   3.884   3.422 -0.2205  0.3729  0.1612
  167SAPE  H18R18776   6.030   3.831   3.402 -1.1653 -0.9511 -1.0933
  167SAPE  H18S18777   5.942   3.989   3.388  0.6514  0.2528 -0.0192
  167SAPE  C21918778   5.842   3.839   3.322  0.2205 -0.1055  0.2558
  167SAPE  H19R18779   5.873   3.860   3.217 -0.1001 -0.6277  0.0489
  167SAPE  H19S18780   5.744   3.889   3.327  0.3399  0.3095 -1.0037
  167SAPE  C22018781   5.796   3.691   3.331 -0.6064 -0.4123 -0.0829
  167SAPE  H20R18782   5.714   3.675   3.258 -0.0094  2.3280 -1.4957
  167SAPE  H20S18783   5.762   3.662   3.433 -0.1777  0.6558  0.3807
  167SAPE  H20T18784   5.880   3.631   3.292  2.2499  3.2756 -0.1767
  167SAPE   C3318785   6.263   3.269   2.562 -0.2372  0.6099  0.8781
  167SAPE   H3X18786   6.356   3.209   2.554 -0.9289 -0.6294  1.7261
  167SAPE   H3Y18787   6.206   3.242   2.471  1.3777  0.4806 -0.1349
  167SAPE   C3418788   6.175   3.232   2.679  0.4056  0.4532  0.5914
  167SAPE   H4X18789   6.181   3.123   2.694  0.3285  0.1536 -1.3121
  167SAPE   H4Y18790   6.068   3.254   2.654  0.0537 -0.5950  1.1357
  167SAPE   C3518791   6.219   3.301   2.808 -0.1719 -0.0378 -0.6392
  167SAPE   H5X18792   6.170   3.401   2.800  1.4806  0.9859  1.1191
  167SAPE   H5Y18793   6.326   3.332   2.815  0.4260 -1.9364 -0.7547
  167SAPE   C3618794   6.165   3.236   2.934  0.5230 -0.2848  0.0411
  167SAPE   H6X18795   6.220   3.148   2.972 -0.5993 -0.5720  1.0485
  167SAPE   H6Y18796   6.062   3.195   2.927  0.2484  0.5128 -0.8101
  167SAPE   C3718797   6.166   3.328   3.065 -0.2846  0.8941  0.9352
  167SAPE   H7X18798   6.106   3.420   3.049  1.8573  1.9201 -2.2700
  167SAPE   H7Y18799   6.269   3.364   3.085 -0.0625  1.8886 -1.5853
  167SAPE   C3818800   6.120   3.257   3.193 -0.3418 -0.0877 -0.0418
  167SAPE   H8X18801   6.186   3.174   3.224  0.8668 -0.7078 -3.8615
  167SAPE   H8Y18802   6.025   3.202   3.174 -2.2536  2.0092  2.6513
  167SAPE   C3918803   6.097   3.355   3.310 -0.2502  0.2913 -0.1293
  167SAPE   H9X18804   6.034   3.445   3.299 -1.1447  0.2979  3.6550
  167SAPE   H9Y18805   6.199   3.389   3.339 -1.2630  2.1616  1.4331
  167SAPE  C31018806   6.045   3.284   3.442  0.9185 -0.4514  0.3510
  167SAPE  H10X18807   6.081   3.179   3.447  0.5267 -0.5861  0.3682
  167SAPE  H10Y18808   5.935   3.277   3.436  0.8829  1.0241 -1.7842
  167SAPE  C31118809   6.089   3.355   3.566  0.2738  0.1477  1.0384
  167SAPE  H11X18810   6.184   3.411   3.552 -0.0665  0.2638 -1.0494
  167SAPE  H11Y18811   6.101   3.272   3.639  0.5773  0.5888  1.5023
  167SAPE  C31218812   5.983   3.457   3.615  0.2144  0.3356  0.2039
  167SAPE  H12X18813   5.881   3.414   3.614  1.3332 -2.5841 -1.6034
  167SAPE  H12Y18814   5.988   3.552   3.557  0.4020  1.8212  2.5076
  167SAPE  C31318815   6.001   3.487   3.763 -0.9302  0.1927 -0.2383
  167SAPE  H13X18816   6.101   3.535   3.771 -0.9490  0.9560 -3.1539
  167SAPE  H13Y18817   6.024   3.387   3.804  1.4685  0.0542 -1.7043
  167SAPE  C31418818   5.885   3.570   3.827 -0.3105 -0.0005 -0.0060
  167SAPE  H14X18819   5.788   3.519   3.810 -0.0057 -1.3758  2.0231
  167SAPE  H14Y18820   5.887   3.671   3.781  0.0910  1.0368  2.1809
  167SAPE  C31518821   5.904   3.600   3.975 -0.5803  0.0186  0.5367
  167SAPE  H15X18822   5.992   3.667   3.981  0.0811 -0.7355 -0.4398
  167SAPE  H15Y18823   5.925   3.518   4.047  0.9187 -0.2504 -0.1763
  167SAPE  C31618824   5.787   3.690   4.017  0.0422 -0.0506  0.3846
  167SAPE  H16X18825   5.690   3.641   3.993 -0.9092  1.7896  0.2773
  167SAPE  H16Y18826   5.799   3.788   3.965  1.0184 -0.4455 -0.1461
  167SAPE  C31718827   5.790   3.728   4.169 -0.2820  0.5729  0.2214
  167SAPE  H17X18828   5.800   3.629   4.218  1.9238  0.2357 -0.7859
  167SAPE  H17Y18829   5.691   3.765   4.201 -1.3769 -2.0407  0.1405
  167SAPE  C31818830   5.902   3.821   4.213  0.6409 -0.3416 -0.5611
  167SAPE  H18X18831   5.893   3.840   4.322  2.3968 -3.6388  0.2985
  167SAPE  H18Y18832   5.888   3.920   4.165  2.4264 -0.1696 -0.7973
  167SAPE  H18Z18833   6.004   3.783   4.188  1.5374  0.7265  1.2955
  168SAPE     N18834   2.634   5.173   2.329  0.3347  0.4972  0.1354
  168SAPE   HN118835   2.563   5.154   2.256  0.3540 -1.1002  0.4999
  168SAPE   HN218836   2.669   5.271   2.334  1.9173 -0.0892  1.4252
  168SAPE   HN318837   2.713   5.106   2.323  2.6859  2.9312  1.5206
  168SAPE   C1218838   2.567   5.127   2.459  0.7757 -0.4285 -0.4190
  168SAPE  H12A18839   2.629   5.053   2.513 -0.2912 -0.6700  0.5147
  168SAPE  H12B18840   2.481   5.066   2.423 -0.3848 -0.0525  1.5472
  168SAPE   C1118841   2.522   5.242   2.557  0.2086  0.2380  0.2506
  168SAPE  H11A18842   2.615   5.284   2.602 -1.5673 -0.1300  4.8565
  168SAPE  H11B18843   2.464   5.191   2.638  0.0808 -0.6612 -0.3888
  168SAPE     P18844   2.292   5.358   2.510 -0.3809 -0.0818  0.0290
  168SAPE   O1318845   2.248   5.443   2.399 -0.3638 -0.5511  0.7294
  168SAPE   O1418846   2.246   5.213   2.502  0.1910 -0.3136 -0.3260
  168SAPE   O1218847   2.447   5.353   2.497 -0.2383 -0.0440 -0.7408
  168SAPE   O1118848   2.267   5.428   2.655 -0.0244 -0.1677  0.2221
  168SAPE    C118849   2.366   5.406   2.759  1.1389 -0.5185 -0.0308
  168SAPE    HA18850   2.370   5.299   2.788 -0.0811 -1.0224 -1.5681
  168SAPE    HB18851   2.461   5.453   2.726  0.9483 -1.0630 -1.4452
  168SAPE    C218852   2.322   5.460   2.904  0.2909  0.4774  0.0623
  168SAPE    HS18853   2.300   5.568   2.890 -0.6217  0.4293  1.0267
  168SAPE   O2118854   2.433   5.432   2.991 -0.4854  0.7010  0.7060
  168SAPE   C2118855   2.508   5.528   3.026 -0.4040 -0.5922  0.0584
  168SAPE   O2218856   2.508   5.642   2.981  0.0753 -0.8904 -0.0127
  168SAPE   C2218857   2.605   5.479   3.138 -0.2188 -0.3667 -0.0592
  168SAPE   H2R18858   2.563   5.392   3.192 -0.3447  1.6163  3.3132
  168SAPE   H2S18859   2.690   5.437   3.079 -0.5651 -0.8089 -0.2503
  168SAPE    C318860   2.199   5.380   2.946  0.0697  1.0130  0.0552
  168SAPE    HX18861   2.218   5.272   2.929  3.0535  1.5490 -0.5317
  168SAPE    HY18862   2.123   5.423   2.878  1.0479  1.1886 -0.9454
  168SAPE   O3118863   2.176   5.401   3.086 -0.1757  0.0632  0.1381
  168SAPE   C3118864   2.104   5.502   3.126  0.3385 -0.1854 -0.3561
  168SAPE   O3218865   2.062   5.593   3.062  0.2709  0.0669 -0.4715
  168SAPE   C3218866   2.109   5.495   3.282  0.2082 -0.2224 -0.1290
  168SAPE   H2X18867   2.215   5.495   3.316  0.4141  4.6734 -0.0434
  168SAPE   H2Y18868   2.058   5.404   3.318 -0.5035  0.1231 -0.2377
  168SAPE   C2318869   2.660   5.584   3.232 -0.6110  0.0102 -0.3554
  168SAPE   H3R18870   2.704   5.666   3.171 -0.9465 -0.0940 -0.7366
  168SAPE   H3S18871   2.747   5.537   3.283  0.5836  2.4897  0.0360
  168SAPE   C2418872   2.558   5.607   3.344  0.0824  0.6485 -0.0618
  168SAPE   H4R18873   2.544   5.517   3.408  0.5705  0.6629  0.0729
  168SAPE   H4S18874   2.473   5.630   3.277  0.1496 -1.0640 -0.8047
  168SAPE   C2518875   2.590   5.727   3.428  0.9068 -0.1966 -0.5082
  168SAPE   H5R18876   2.620   5.812   3.365 -0.7031 -0.7728 -2.1559
  168SAPE   C2618877   2.606   5.743   3.562  0.0612  0.0864  0.6315
  168SAPE   H6R18878   2.624   5.844   3.601 -3.6896  2.3024 -2.6495
  168SAPE   C2718879   2.580   5.634   3.664 -0.1003 -0.6949  0.5630
  168SAPE   H7R18880   2.606   5.534   3.622 -1.1578 -0.3773 -0.9566
  168SAPE   H7S18881   2.470   5.616   3.670 -0.3307  0.7311  0.8297
  168SAPE   C2818882   2.646   5.661   3.796 -0.1060 -0.0593 -0.0003
  168SAPE   H8R18883   2.722   5.740   3.803 -0.4265  0.5453 -2.4213
  168SAPE   C2918884   2.614   5.598   3.908 -0.7699  0.3992 -0.2631
  168SAPE   H9R18885   2.661   5.628   4.003 -2.6067  0.9660  0.5002
  168SAPE  C21018886   2.508   5.490   3.918  0.0443  0.3124  0.0277
  168SAPE  H10R18887   2.471   5.450   3.821  0.7820 -1.2064  0.3418
  168SAPE  H10S18888   2.428   5.523   3.988  0.6567  1.1943  0.3193
  168SAPE  C21118889   2.574   5.369   3.982 -0.6134 -0.2773 -0.2334
  168SAPE  H11R18890   2.661   5.331   3.926  2.8045  1.7078  3.2000
  168SAPE  C21218891   2.542   5.295   4.088  0.5105 -0.4591 -0.8988
  168SAPE  H12R18892   2.599   5.205   4.113  2.0427  0.4105 -1.1237
  168SAPE  C21318893   2.432   5.341   4.179 -0.3395  0.0644  0.3556
  168SAPE  H13R18894   2.331   5.313   4.142 -1.8635  0.9215  3.4844
  168SAPE  H13S18895   2.429   5.451   4.190  0.9413  0.4325 -2.3761
  168SAPE  C21418896   2.460   5.268   4.311 -0.2298  0.1007  0.1165
  168SAPE  H14R18897   2.437   5.160   4.316  3.1809 -0.8001 -0.7958
  168SAPE  C21518898   2.497   5.333   4.429  0.0737 -0.2684 -0.5492
  168SAPE  H15R18899   2.530   5.273   4.516 -0.8005  0.1267  0.0678
  168SAPE  C21618900   2.532   5.477   4.445  0.2538  0.2827 -0.2046
  168SAPE  H16R18901   2.477   5.520   4.531 -1.4446 -0.7991 -0.7199
  168SAPE  H16S18902   2.501   5.538   4.357  1.0946 -1.3982 -1.7445
  168SAPE  C21718903   2.682   5.492   4.472 -1.2014  0.0373 -0.0183
  168SAPE  H17R18904   2.710   5.572   4.401 -2.3134  1.0237  0.6192
  168SAPE  H17S18905   2.741   5.401   4.446 -0.2738  0.7095 -0.3242
  168SAPE  C21818906   2.724   5.523   4.619  0.5753 -0.2726 -0.1895
  168SAPE  H18R18907   2.699   5.451   4.699  0.4271  1.2442  1.1659
  168SAPE  H18S18908   2.666   5.615   4.641 -1.0286 -1.6817  1.8778
  168SAPE  C21918909   2.875   5.555   4.625 -0.2873  0.6350 -0.2222
  168SAPE  H19R18910   2.901   5.602   4.722  3.3299  1.4970 -1.4215
  168SAPE  H19S18911   2.892   5.639   4.555  2.0854  1.7779  1.5812
  168SAPE  C22018912   2.979   5.445   4.592  0.5447  0.4253  0.3576
  168SAPE  H20R18913   2.979   5.426   4.483  0.7578 -0.6286  0.5280
  168SAPE  H20S18914   2.961   5.357   4.658 -0.8709  1.4062  1.3517
  168SAPE  H20T18915   3.077   5.489   4.622 -0.1253  2.8997 -0.8068
  168SAPE   C3318916   2.064   5.623   3.357  0.0376 -0.5400 -1.0308
  168SAPE   H3X18917   1.966   5.649   3.313 -0.2369  0.7711  0.2658
  168SAPE   H3Y18918   2.145   5.697   3.338  0.7530 -0.9724  0.1876
  168SAPE   C3418919   2.046   5.609   3.509  0.2584  0.2742 -0.5078
  168SAPE   H4X18920   1.953   5.554   3.533  0.6307  0.3586  1.2977
  168SAPE   H4Y18921   2.034   5.710   3.555 -2.6413 -0.1352 -0.1641
  168SAPE   C3518922   2.158   5.535   3.591 -0.0478  0.6860 -0.2846
  168SAPE   H5X18923   2.252   5.585   3.560  0.9789 -0.4516  0.9167
  168SAPE   H5Y18924   2.169   5.431   3.554 -1.8162  0.2287  0.3559
  168SAPE   C3618925   2.159   5.555   3.740  0.5469 -0.0963 -0.2518
  168SAPE   H6X18926   2.199   5.654   3.769  0.4805  0.0960 -0.8047
  168SAPE   H6Y18927   2.229   5.478   3.780 -1.9094 -3.4601 -1.8635
  168SAPE   C3718928   2.014   5.530   3.800 -0.7401 -0.0805 -0.3620
  168SAPE   H7X18929   1.974   5.443   3.743 -0.9801 -0.0750 -0.2029
  168SAPE   H7Y18930   1.952   5.619   3.778 -1.2571  0.3524  2.4674
  168SAPE   C3818931   2.026   5.495   3.951 -0.6526 -0.3343  0.6773
  168SAPE   H8X18932   2.041   5.592   4.003  2.8277 -0.0539 -0.5831
  168SAPE   H8Y18933   2.111   5.429   3.977  1.6872  1.4791 -1.8669
  168SAPE   C3918934   1.899   5.437   4.010 -0.1542 -0.0517  0.2057
  168SAPE   H9X18935   1.885   5.344   3.952 -0.3687  0.9235 -1.3815
  168SAPE   H9Y18936   1.818   5.509   3.983  1.8815  1.9370 -0.8873
  168SAPE  C31018937   1.912   5.385   4.154  0.0489 -0.9481  0.0247
  168SAPE  H10X18938   1.978   5.296   4.148 -1.7029 -2.2256 -2.5684
  168SAPE  H10Y18939   1.814   5.351   4.195  0.2255  0.3772  1.6253
  168SAPE  C31118940   1.986   5.482   4.249  0.0622  0.3511  0.2419
  168SAPE  H11X18941   1.958   5.585   4.220  1.1219  0.2156 -1.3833
  168SAPE  H11Y18942   2.096   5.480   4.233 -0.0316 -0.0699 -0.3869
  168SAPE  C31218943   1.953   5.454   4.395  0.0402  0.9279 -0.2224
  168SAPE  H12X18944   1.980   5.349   4.418 -2.9801 -0.2778 -1.7180
  168SAPE  H12Y18945   1.844   5.468   4.405 -0.1736 -0.9025  0.3306
  168SAPE  C31318946   2.031   5.535   4.489 -0.1731 -0.6384  0.1255
  168SAPE  H13X18947   2.021   5.645   4.481  2.0108 -0.3313  0.7748
  168SAPE  H13Y18948   2.137   5.502   4.474  0.7088  1.0862  2.0211
  168SAPE  C31418949   1.994   5.484   4.639  0.3413 -0.7462  0.1465
  168SAPE  H14X18950   2.005   5.374   4.643 -1.0567 -1.0408 -2.1261
  168SAPE  H14Y18951   1.889   5.511   4.667  1.6673  2.9276  2.3519
  168SAPE  C31518952   2.072   5.558   4.750 -0.4642  0.9329  0.4197
  168SAPE  H15X18953   2.034   5.534   4.852  1.3744 -1.3134  0.6431
  168SAPE  H15Y18954   2.052   5.664   4.725  0.0849  0.9564  0.0708
  168SAPE  C31618955   2.226   5.549   4.749  0.9086 -0.6534 -0.4092
  168SAPE  H16X18956   2.256   5.627   4.823 -2.1113 -2.0385  2.4969
  168SAPE  H16Y18957   2.263   5.578   4.648  1.1717 -0.8156 -0.3590
  168SAPE  C31718958   2.274   5.413   4.793 -0.1221  0.4756 -0.3469
  168SAPE  H17X18959   2.379   5.419   4.758  0.0413  1.8645  0.3425
  168SAPE  H17Y18960   2.214   5.331   4.747  2.0587 -1.2485 -0.3033
  168SAPE  C31818961   2.270   5.393   4.943 -0.7408  0.7611 -0.2042
  168SAPE  H18X18962   2.340   5.466   4.989 -0.6220  1.0097 -0.7722
  168SAPE  H18Y18963   2.304   5.291   4.974  0.2143  1.0816 -0.1604
  168SAPE  H18Z18964   2.170   5.408   4.987 -0.9899 -2.0608  0.3619
  169SAPE     N18965   6.268   2.782   2.010 -0.1098 -0.3182 -0.1676
  169SAPE   HN118966   6.294   2.833   1.923  1.2836  1.4066  1.1977
  169SAPE   HN218967   6.273   2.852   2.087 -0.8965 -1.5244  1.0163
  169SAPE   HN318968   6.332   2.700   2.014 -0.1812 -0.3309  1.0060
  169SAPE   C1218969   6.124   2.738   1.997 -0.3928 -0.6282 -0.3169
  169SAPE  H12A18970   6.115   2.669   2.084 -0.4403  1.1054  1.1364
  169SAPE  H12B18971   6.119   2.684   1.901  0.8475 -0.7651 -0.3201
  169SAPE   C1118972   6.035   2.865   2.008  0.4514 -0.3343  0.1888
  169SAPE  H11A18973   5.941   2.842   1.951  0.8566 -0.5202 -0.4155
  169SAPE  H11B18974   6.091   2.944   1.953  1.6930 -2.1305 -1.2386
  169SAPE     P18975   6.092   2.983   2.232  0.0796 -0.6556 -0.1464
  169SAPE   O1318976   6.235   2.967   2.193  0.6151  0.5513  0.5518
  169SAPE   O1418977   6.027   3.118   2.216 -0.7441 -0.0195  0.0521
  169SAPE   O1218978   6.001   2.892   2.144 -0.3336  0.0625  0.4334
  169SAPE   O1118979   6.066   2.924   2.373 -0.1782 -0.4073  0.2189
  169SAPE    C118980   6.092   2.787   2.411  0.2331  0.1149  0.3021
  169SAPE    HA18981   5.999   2.728   2.396 -0.1945  0.4308  1.5885
  169SAPE    HB18982   6.167   2.738   2.345 -0.3249 -1.8414  1.0568
  169SAPE    C218983   6.135   2.775   2.559  0.1084  0.0651  0.0732
  169SAPE    HS18984   6.152   2.665   2.567  0.8785  0.1741  0.0004
  169SAPE   O2118985   6.035   2.816   2.652  0.2860  0.5777 -0.0517
  169SAPE   C2118986   5.923   2.735   2.662 -0.1304  1.0400 -0.2669
  169SAPE   O2218987   5.932   2.617   2.637 -0.1790  0.2880 -0.1529
  169SAPE   C2218988   5.791   2.800   2.697 -0.1221 -0.5919 -0.2210
  169SAPE   H2R18989   5.805   2.903   2.657  3.9343 -0.4236  1.1891
  169SAPE   H2S18990   5.723   2.736   2.637  1.9643 -2.9464 -0.2121
  169SAPE    C318991   6.268   2.847   2.585 -0.3464  0.4415 -0.8911
  169SAPE    HX18992   6.252   2.954   2.560 -0.0622  0.9409  0.8888
  169SAPE    HY18993   6.342   2.806   2.512 -0.1637 -2.5905  0.8105
  169SAPE   O3118994   6.308   2.842   2.724  0.2009 -0.0524 -0.1298
  169SAPE   C3118995   6.418   2.911   2.745 -0.8251 -0.0148 -0.6837
  169SAPE   O3218996   6.477   2.985   2.669 -0.6875  0.3552 -0.5147
  169SAPE   C3218997   6.432   2.927   2.898 -0.1399 -0.5135  0.7894
  169SAPE   H2X18998   6.341   2.970   2.944 -1.1872 -2.7483  0.9562
  169SAPE   H2Y18999   6.514   3.002   2.908 -1.1154  0.5829  0.7516
  169SAPE   C2319000   5.749   2.803   2.844 -0.1941 -0.2109  0.1164
  169SAPE   H3R19001   5.790   2.712   2.894  1.0601  0.9532  1.2876
  169SAPE   H3S19002   5.642   2.825   2.864  0.1643  1.0129  0.7632
  169SAPE   C2419003   5.815   2.914   2.934  0.4872 -0.0172  1.0344
  169SAPE   H4R19004   5.784   3.012   2.891  0.6230 -0.4685 -0.1492
  169SAPE   H4S19005   5.925   2.913   2.923  0.4558  1.9540  0.1994
  169SAPE   C2519006   5.779   2.904   3.077 -0.1620 -0.3785 -0.0620
  169SAPE   H5R19007   5.680   2.945   3.101 -0.3521 -0.0337 -1.3194
  169SAPE   C2619008   5.852   2.841   3.178  0.3286  0.4264 -0.1468
  169SAPE   H6R19009   5.804   2.831   3.277  0.3886  0.9474 -0.0643
  169SAPE   C2719010   5.984   2.762   3.169  0.3599 -0.3412 -0.3648
  169SAPE   H7R19011   5.997   2.729   3.064 -1.3954 -2.3183 -0.0238
  169SAPE   H7S19012   5.976   2.664   3.220 -0.7612  0.2439  0.6248
  169SAPE   C2819013   6.110   2.832   3.223  0.7697 -0.4245 -0.0007
  169SAPE   H8R19014   6.166   2.883   3.143  1.6515  1.0025  1.4559
  169SAPE   C2919015   6.162   2.834   3.346  0.1001  0.2014 -0.0910
  169SAPE   H9R19016   6.262   2.877   3.360 -0.1910  0.5447  1.1445
  169SAPE  C21019017   6.090   2.786   3.470 -0.2313 -0.2245 -0.0466
  169SAPE  H10R19018   6.152   2.716   3.531 -0.7395  0.4777  1.2945
  169SAPE  H10S19019   5.997   2.729   3.449 -0.0173 -0.8915  0.7502
  169SAPE  C21119020   6.048   2.902   3.565 -0.6188 -0.2134  0.8181
  169SAPE  H11R19021   6.001   2.988   3.516  1.9628 -0.3232 -2.1711
  169SAPE  C21219022   6.069   2.922   3.701 -0.1078  0.1184  1.0806
  169SAPE  H12R19023   6.038   3.020   3.738  1.4115  0.4591  1.4996
  169SAPE  C21319024   6.141   2.826   3.793 -0.1287 -0.4386 -0.0785
  169SAPE  H13R19025   6.247   2.857   3.805  0.4028 -2.2857  0.3316
  169SAPE  H13S19026   6.145   2.730   3.738  1.4103 -0.5948  0.2475
  169SAPE  C21419027   6.064   2.817   3.923  0.7331 -0.9096  0.8406
  169SAPE  H14R19028   5.984   2.741   3.913  0.0240  0.0899 -2.4404
  169SAPE  C21519029   6.091   2.883   4.039 -0.0080  0.7392  0.4540
  169SAPE  H15R19030   6.026   2.851   4.121  0.3830  0.2721  0.5847
  169SAPE  C21619031   6.177   2.999   4.070 -0.1806  0.3377 -0.0337
  169SAPE  H16R19032   6.244   3.023   3.985 -0.6700  1.5371 -0.1128
  169SAPE  H16S19033   6.234   2.979   4.163 -0.7735 -0.1633  0.2188
  169SAPE  C21719034   6.114   3.141   4.091 -0.3738 -0.0926  0.1530
  169SAPE  H17R19035   6.059   3.131   4.188  0.0368  0.6999  0.4807
  169SAPE  H17S19036   6.035   3.160   4.016 -0.0714 -0.0001 -0.1435
  169SAPE  C21819037   6.223   3.253   4.091  0.2697  0.7412  0.5750
  169SAPE  H18R19038   6.239   3.290   3.988  1.0570  0.5452  0.6137
  169SAPE  H18S19039   6.324   3.214   4.119 -0.8689 -2.7272  0.3436
  169SAPE  C21919040   6.183   3.380   4.168  0.3107 -0.1892 -0.2929
  169SAPE  H19R19041   6.178   3.352   4.276  0.3244  2.2991  0.4234
  169SAPE  H19S19042   6.085   3.417   4.132  0.3284  0.0898 -0.0585
  169SAPE  C22019043   6.282   3.495   4.145  0.1581  0.2859 -0.3141
  169SAPE  H20R19044   6.257   3.576   4.217  1.7684  1.4413 -1.0061
  169SAPE  H20S19045   6.273   3.541   4.044 -1.9556 -1.7373 -1.1416
  169SAPE  H20T19046   6.390   3.472   4.153  0.1709  0.0986 -0.9851
  169SAPE   C3319047   6.456   2.803   2.976 -0.3341 -0.4831  0.2248
  169SAPE   H3X19048   6.370   2.733   2.970 -0.9099  0.1617  0.7952
  169SAPE   H3Y19049   6.474   2.832   3.082 -0.2980 -2.0965  0.6864
  169SAPE   C3419050   6.580   2.724   2.925 -0.8728 -0.3109  0.4138
  169SAPE   H4X19051   6.665   2.793   2.905 -0.4065 -0.3425  2.1412
  169SAPE   H4Y19052   6.560   2.676   2.827 -0.5053 -0.0589  0.2091
  169SAPE   C3519053   6.629   2.618   3.023 -0.3052  0.0395 -0.4944
  169SAPE   H5X19054   6.550   2.550   3.062 -0.5213  0.9730  0.7325
  169SAPE   H5Y19055   6.665   2.666   3.116  0.9084  0.2814 -1.0703
  169SAPE   C3619056   6.749   2.538   2.961 -0.3182 -0.2967 -0.1757
  169SAPE   H6X19057   6.825   2.595   2.905 -0.0409  0.3016  0.7898
  169SAPE   H6Y19058   6.712   2.468   2.883  0.0989 -0.1555 -0.4966
  169SAPE   C3719059   6.836   2.452   3.058  0.0025 -0.0523  0.2394
  169SAPE   H7X19060   6.897   2.514   3.127  1.0080 -2.6303  1.8122
  169SAPE   H7Y19061   6.915   2.404   2.995 -1.3368 -1.3762 -0.4956
  169SAPE   C3819062   6.760   2.344   3.135  0.2443 -0.1423 -0.3820
  169SAPE   H8X19063   6.688   2.297   3.065  0.7692  0.7830 -1.5816
  169SAPE   H8Y19064   6.711   2.379   3.229 -0.8732 -3.3493  0.3372
  169SAPE   C3919065   6.837   2.237   3.195 -0.1366 -0.6218 -0.9720
  169SAPE   H9X19066   6.917   2.203   3.125 -1.8714 -2.7658 -2.0302
  169SAPE   H9Y19067   6.779   2.144   3.212  2.8435 -2.2120  1.3639
  169SAPE  C31019068   6.887   2.281   3.340  0.1456 -0.3658 -0.3887
  169SAPE  H10X19069   6.884   2.392   3.332 -0.0144 -0.3999 -0.8563
  169SAPE  H10Y19070   6.992   2.243   3.337 -0.0379 -0.8528 -0.7887
  169SAPE  C31119071   6.806   2.224   3.454  0.5028  0.3757 -0.7330
  169SAPE  H11X19072   6.829   2.116   3.454  3.4821  0.8984 -2.7442
  169SAPE  H11Y19073   6.698   2.239   3.432 -0.0282  0.7546  1.8368
  169SAPE  C31219074   6.828   2.294   3.586 -0.6410 -0.5670 -0.0720
  169SAPE  H12X19075   6.811   2.404   3.578  0.5939 -0.3945 -0.4271
  169SAPE  H12Y19076   6.932   2.294   3.623 -0.9541  0.0405  0.8601
  169SAPE  C31319077   6.739   2.232   3.690 -0.5087  0.0155 -0.0872
  169SAPE  H13X19078   6.753   2.122   3.687 -0.5071 -0.0094  0.7022
  169SAPE  H13Y19079   6.634   2.248   3.658 -0.3489  0.5022 -0.3683
  169SAPE  C31419080   6.754   2.284   3.832 -0.7577  0.4721 -0.5474
  169SAPE  H14X19081   6.709   2.386   3.833 -2.1953 -0.1268  1.3423
  169SAPE  H14Y19082   6.862   2.287   3.861 -0.0477  0.3323 -2.9703
  169SAPE  C31519083   6.679   2.190   3.932  0.8853  0.3358  0.2279
  169SAPE  H15X19084   6.725   2.090   3.921  2.0922  0.9434 -0.5721
  169SAPE  H15Y19085   6.578   2.188   3.886  1.4599  0.8046 -1.1218
  169SAPE  C31619086   6.690   2.246   4.075  0.2249  0.6600  1.0286
  169SAPE  H16X19087   6.652   2.350   4.065  0.7474  0.6582 -1.8191
  169SAPE  H16Y19088   6.796   2.247   4.109  0.4213 -3.2490  1.0010
  169SAPE  C31719089   6.593   2.177   4.182  0.2257  0.6720  0.5613
  169SAPE  H17X19090   6.488   2.170   4.147 -0.0418  1.4896  1.1638
  169SAPE  H17Y19091   6.588   2.244   4.271  1.7665  2.4752 -0.6278
  169SAPE  C31819092   6.635   2.041   4.235 -0.0065  0.7475 -0.2773
  169SAPE  H18X19093   6.643   1.972   4.148  0.6503  2.0347 -1.2747
  169SAPE  H18Y19094   6.567   1.999   4.312 -0.2264  1.0621 -0.2998
  169SAPE  H18Z19095   6.739   2.054   4.274 -0.6805 -0.8216  2.2549
  170SAPE     N19096   6.314   3.813   1.827 -0.4577 -0.6634  0.4084
  170SAPE   HN119097   6.382   3.862   1.765  0.4625 -1.5648  0.6696
  170SAPE   HN219098   6.229   3.801   1.768 -0.9042 -1.0057  1.1103
  170SAPE   HN319099   6.303   3.880   1.906 -2.9250  0.6473 -0.9617
  170SAPE   C1219100   6.369   3.673   1.877 -0.1958  0.1726  0.3133
  170SAPE  H12A19101   6.409   3.630   1.783  0.6325 -1.6186  1.4181
  170SAPE  H12B19102   6.292   3.599   1.906  2.4688 -2.8573  0.2241
  170SAPE   C1119103   6.472   3.681   1.989  0.0202 -0.0027 -0.3136
  170SAPE  H11A19104   6.442   3.754   2.068  1.1136 -1.5663  1.6329
  170SAPE  H11B19105   6.570   3.721   1.955 -0.2722  1.9994  1.0052
  170SAPE     P19106   6.453   3.465   2.154  0.5218  0.1201 -0.1120
  170SAPE   O1319107   6.309   3.483   2.179  0.0949  0.7302 -0.1760
  170SAPE   O1419108   6.505   3.332   2.128  0.8567  0.4833 -0.2918
  170SAPE   O1219109   6.504   3.546   2.034  0.0428  0.7768  0.1891
  170SAPE   O1119110   6.538   3.549   2.264  0.3713  0.4295 -0.5513
  170SAPE    C119111   6.665   3.499   2.306  0.1624  0.8267 -0.0558
  170SAPE    HA19112   6.664   3.431   2.394 -1.1897 -1.1600 -1.5200
  170SAPE    HB19113   6.712   3.440   2.225 -2.3655 -0.0742 -0.9521
  170SAPE    C219114   6.761   3.618   2.343 -0.5443 -0.1912 -0.1026
  170SAPE    HS19115   6.854   3.568   2.377 -0.3611 -0.6238 -1.1999
  170SAPE   O2119116   6.704   3.713   2.436 -0.1121  0.2785  0.3615
  170SAPE   C2119117   6.659   3.669   2.551 -1.2747 -0.3118  0.5748
  170SAPE   O2219118   6.678   3.560   2.597  0.0801  0.6906 -0.0794
  170SAPE   C2219119   6.556   3.764   2.619 -0.6756  0.0612 -0.3427
  170SAPE   H2R19120   6.594   3.868   2.618  0.6832 -0.3976  0.3645
  170SAPE   H2S19121   6.463   3.756   2.559 -1.5450 -0.2877  1.0070
  170SAPE    C319122   6.807   3.698   2.216  0.8353 -0.0549 -0.0733
  170SAPE    HX19123   6.713   3.741   2.176  1.3940 -0.1659 -1.5738
  170SAPE    HY19124   6.845   3.626   2.141  0.6518  0.6158 -0.8293
  170SAPE   O3119125   6.906   3.804   2.248 -0.0616  0.1937  0.5100
  170SAPE   C3119126   7.036   3.769   2.255  0.6354 -1.0042  0.3757
  170SAPE   O3219127   7.079   3.660   2.220  0.3537 -0.7481 -0.2609
  170SAPE   C3219128   7.125   3.884   2.305 -0.2014 -0.1119 -0.9378
  170SAPE   H2X19129   7.160   3.935   2.213 -1.1783  1.6554 -0.3702
  170SAPE   H2Y19130   7.202   3.849   2.377 -0.5490 -0.5462 -0.7730
  170SAPE   C2319131   6.524   3.723   2.762  0.3420 -0.5615 -0.3914
  170SAPE   H3R19132   6.489   3.617   2.759 -1.1957 -0.0512 -1.7051
  170SAPE   H3S19133   6.436   3.779   2.801  0.9951  0.3228 -0.1551
  170SAPE   C2419134   6.637   3.746   2.861  0.0092 -0.0076  0.6459
  170SAPE   H4R19135   6.650   3.856   2.875 -0.6341 -0.2417  4.0502
  170SAPE   H4S19136   6.733   3.704   2.824 -0.2865  0.4164 -0.6430
  170SAPE   C2519137   6.615   3.701   3.003  0.4396  0.5965  0.4360
  170SAPE   H5R19138   6.619   3.786   3.073 -1.3186  2.2097 -1.2899
  170SAPE   C2619139   6.593   3.575   3.058  0.2376 -0.6445 -0.1129
  170SAPE   H6R19140   6.595   3.575   3.167 -2.3081 -0.0755  0.0017
  170SAPE   C2719141   6.580   3.450   2.980  0.4830 -0.5382  0.0667
  170SAPE   H7R19142   6.583   3.468   2.871  1.2645 -1.8224 -0.1442
  170SAPE   H7S19143   6.483   3.400   3.001 -1.6094  2.8183 -0.9221
  170SAPE   C2819144   6.697   3.365   3.014 -0.5622  0.6575 -0.4601
  170SAPE   H8R19145   6.794   3.408   2.983 -0.1598 -0.3191 -0.5831
  170SAPE   C2919146   6.697   3.243   3.076  0.2387 -0.0084  0.3327
  170SAPE   H9R19147   6.792   3.192   3.096  0.1491 -0.0853  0.5654
  170SAPE  C21019148   6.577   3.173   3.132 -0.2002  0.7245  1.1946
  170SAPE  H10R19149   6.589   3.063   3.132  1.5838  0.8864  0.2400
  170SAPE  H10S19150   6.496   3.190   3.058  1.4938  1.9408 -0.4960
  170SAPE  C21119151   6.525   3.229   3.264 -0.3346  0.5043 -0.1010
  170SAPE  H11R19152   6.515   3.338   3.260  1.2851  0.6596 -1.1943
  170SAPE  C21219153   6.507   3.162   3.379 -0.0565 -0.6274  0.3152
  170SAPE  H12R19154   6.473   3.223   3.464  0.5348  0.4812 -0.2210
  170SAPE  C21319155   6.516   3.011   3.402  0.1648 -0.2320 -0.3503
  170SAPE  H13R19156   6.511   2.960   3.304 -1.9905  0.9087 -0.8978
  170SAPE  H13S19157   6.426   2.971   3.454  0.1269  0.4965  0.1606
  170SAPE  C21419158   6.642   2.983   3.477  0.2342 -0.8307 -0.1018
  170SAPE  H14R19159   6.733   3.005   3.419 -0.4220 -1.1893 -1.2953
  170SAPE  C21519160   6.653   2.933   3.604 -0.0872  0.1041 -0.3123
  170SAPE  H15R19161   6.753   2.935   3.650 -0.0385 -0.8946 -0.3667
  170SAPE  C21619162   6.553   2.898   3.708  0.0735 -0.4769 -0.9894
  170SAPE  H16R19163   6.606   2.838   3.785  1.5263  2.9164  0.8793
  170SAPE  H16S19164   6.466   2.839   3.672 -0.4141  1.5731 -3.4647
  170SAPE  C21719165   6.509   3.014   3.795 -0.0932  0.6792 -0.0834
  170SAPE  H17R19166   6.429   2.978   3.863 -0.8251  0.1876 -1.1724
  170SAPE  H17S19167   6.456   3.081   3.724 -0.1805  2.1873  1.3477
  170SAPE  C21819168   6.614   3.101   3.858 -0.1216  0.1594  0.3333
  170SAPE  H18R19169   6.666   3.154   3.776  2.2068 -0.2294  1.4857
  170SAPE  H18S19170   6.689   3.036   3.908  1.4137  1.2100 -0.5315
  170SAPE  C21919171   6.558   3.210   3.958  0.1688  0.5747  0.2090
  170SAPE  H19R19172   6.512   3.152   4.040  1.2321 -0.0712  0.3664
  170SAPE  H19S19173   6.477   3.253   3.895  0.4272 -1.7902 -1.9214
  170SAPE  C22019174   6.639   3.325   4.014  0.0101 -0.0443 -0.3398
  170SAPE  H20R19175   6.642   3.355   4.121  0.7968  1.8909 -0.8584
  170SAPE  H20S19176   6.609   3.420   3.965 -0.9829  1.4789  2.9198
  170SAPE  H20T19177   6.739   3.295   3.977 -0.5747 -0.8164 -1.3294
  170SAPE   C3319178   7.049   3.993   2.378 -0.4773 -0.6613 -0.9000
  170SAPE   H3X19179   6.952   4.026   2.336 -1.6529  0.0797  2.1709
  170SAPE   H3Y19180   7.112   4.084   2.366 -1.1482 -0.2126 -1.0701
  170SAPE   C3419181   7.016   3.969   2.525  0.5959  0.1385 -0.3545
  170SAPE   H4X19182   7.110   3.980   2.583  1.1730 -2.8698 -0.5607
  170SAPE   H4Y19183   6.982   3.865   2.538  0.8443  0.0839 -0.1250
  170SAPE   C3519184   6.908   4.064   2.580 -0.3758 -0.1784 -0.5961
  170SAPE   H5X19185   6.819   4.065   2.514 -0.3733  1.2771 -0.6073
  170SAPE   H5Y19186   6.942   4.170   2.578  2.0970 -0.7610  2.5045
  170SAPE   C3619187   6.861   4.020   2.722  0.5753 -0.6273 -0.4348
  170SAPE   H6X19188   6.859   3.908   2.719  2.5469 -0.6783 -1.6697
  170SAPE   H6Y19189   6.763   4.071   2.733  0.1163 -1.8595  1.5553
  170SAPE   C3719190   6.963   4.066   2.835 -0.5036  0.5739 -0.2739
  170SAPE   H7X19191   6.956   4.177   2.840 -0.0133  0.5870  0.1637
  170SAPE   H7Y19192   7.068   4.047   2.807 -0.3863  1.9923 -0.9128
  170SAPE   C3819193   6.928   4.007   2.973  0.1343  0.0302  0.8578
  170SAPE   H8X19194   7.010   4.034   3.044 -0.0023  1.6527  0.4569
  170SAPE   H8Y19195   6.900   3.900   2.983 -1.2286  0.2754 -0.0667
  170SAPE   C3919196   6.808   4.086   3.025 -1.3619 -0.4898  0.1626
  170SAPE   H9X19197   6.724   4.080   2.953 -1.9375 -0.5850  0.8347
  170SAPE   H9Y19198   6.826   4.195   3.032 -3.4046 -0.0831 -0.2692
  170SAPE  C31019199   6.738   4.052   3.158 -0.6723 -0.5458  0.3156
  170SAPE  H10X19200   6.740   3.942   3.164 -1.0008 -0.7748 -2.5732
  170SAPE  H10Y19201   6.632   4.086   3.154 -0.9154 -0.9606  2.1635
  170SAPE  C31119202   6.808   4.123   3.279 -0.1315 -0.1123 -1.0644
  170SAPE  H11X19203   6.803   4.229   3.249 -0.8602  0.0441 -0.4224
  170SAPE  H11Y19204   6.917   4.104   3.277  0.7311  3.9332 -0.5050
  170SAPE  C31219205   6.737   4.095   3.415 -0.2871 -0.0263  0.1356
  170SAPE  H12X19206   6.748   3.985   3.422  0.2672  0.0850  1.0876
  170SAPE  H12Y19207   6.634   4.133   3.399 -0.0950  0.0744 -1.0032
  170SAPE  C31319208   6.791   4.160   3.545  0.2401  1.1506 -0.5746
  170SAPE  H13X19209   6.788   4.271   3.541  2.7068  1.2545 -1.0405
  170SAPE  H13Y19210   6.899   4.136   3.557 -0.4681 -1.9655  0.6044
  170SAPE  C31419211   6.745   4.087   3.674 -0.0347 -0.0236  0.2920
  170SAPE  H14X19212   6.813   4.127   3.752 -1.2348 -3.8401  3.5942
  170SAPE  H14Y19213   6.777   3.981   3.664  1.8870  0.4136  1.3222
  170SAPE  C31519214   6.604   4.104   3.704 -0.0905  0.6653  0.3799
  170SAPE  H15X19215   6.543   4.096   3.611  0.4278  1.4177 -0.0306
  170SAPE  H15Y19216   6.599   4.207   3.743  1.3096  0.7453  0.4033
  170SAPE  C31619217   6.564   4.002   3.813  0.5656  0.0857  0.2823
  170SAPE  H16X19218   6.660   3.958   3.844 -1.1197 -2.8613  1.7646
  170SAPE  H16Y19219   6.505   3.924   3.760 -1.3409  1.0639  0.8529
  170SAPE  C31719220   6.470   4.063   3.922 -0.5214 -0.0964 -0.2591
  170SAPE  H17X19221   6.372   4.092   3.880 -1.0839  0.9097  1.6235
  170SAPE  H17Y19222   6.516   4.152   3.970 -0.8543  0.2510 -0.5818
  170SAPE  C31819223   6.440   3.966   4.037  0.4158  0.4194  0.0838
  170SAPE  H18X19224   6.370   4.016   4.107 -3.6341 -2.3013 -1.6734
  170SAPE  H18Y19225   6.531   3.920   4.082 -0.9117 -0.8307  1.6179
  170SAPE  H18Z19226   6.381   3.878   4.004 -0.3819  0.4524  1.3661
  171SAPE     N19227   6.494   3.073   2.195 -0.1998  0.2178  0.1390
  171SAPE   HN119228   6.487   3.168   2.154 -1.6955  0.5357  1.0281
  171SAPE   HN219229   6.527   3.011   2.118  1.1580  1.0592  0.0130
  171SAPE   HN319230   6.400   3.034   2.218  0.4542 -1.1812  0.4894
  171SAPE   C1219231   6.589   3.062   2.314  0.7013  0.1311 -0.4671
  171SAPE  H12A19232   6.592   2.959   2.354  2.8724  0.3188  0.0119
  171SAPE  H12B19233   6.563   3.136   2.392 -0.9055  0.7408 -1.5292
  171SAPE   C1119234   6.739   3.104   2.271  0.9840  0.1600 -0.2788
  171SAPE  H11A19235   6.805   3.091   2.359  0.5697 -4.7381 -0.3701
  171SAPE  H11B19236   6.736   3.212   2.248  1.2664  0.8328  2.4760
  171SAPE     P19237   6.850   2.893   2.154 -0.2260  0.0546  0.3626
  171SAPE   O1319238   6.735   2.795   2.133  0.8877 -0.0194 -0.2849
  171SAPE   O1419239   6.952   2.898   2.045  0.3373 -0.2104 -0.1685
  171SAPE   O1219240   6.788   3.035   2.160 -0.4822  0.0376 -0.4277
  171SAPE   O1119241   6.911   2.867   2.303  0.4062  0.2465  0.0097
  171SAPE    C119242   7.045   2.810   2.311 -0.0048 -0.3997 -0.4892
  171SAPE    HA19243   7.052   2.712   2.257 -1.4573 -0.6998 -0.1767
  171SAPE    HB19244   7.128   2.873   2.272  0.4692  0.2707  1.5104
  171SAPE    C219245   7.071   2.775   2.455  0.2024 -0.4043 -0.4965
  171SAPE    HS19246   7.166   2.719   2.463 -0.7099 -1.7400  3.3118
  171SAPE   O2119247   6.964   2.696   2.508 -0.7069  0.2824  0.5736
  171SAPE   C2119248   6.964   2.565   2.470 -0.3701 -0.5550  0.5291
  171SAPE   O2219249   7.050   2.513   2.401 -0.0421 -0.8437  0.0783
  171SAPE   C2219250   6.839   2.497   2.517 -0.3155  0.6727 -0.2280
  171SAPE   H2R19251   6.777   2.547   2.594  1.3430  1.3080  0.7419
  171SAPE   H2S19252   6.774   2.502   2.427 -0.8409  2.0014  0.2013
  171SAPE    C319253   7.091   2.904   2.543  0.6441 -0.2208  0.8236
  171SAPE    HX19254   7.000   2.968   2.536  1.1256  0.3327 -1.0317
  171SAPE    HY19255   7.169   2.955   2.483  0.3204 -1.2173 -0.5087
  171SAPE   O3119256   7.130   2.878   2.680 -0.6098  0.1896 -0.1535
  171SAPE   C3119257   7.035   2.879   2.770  0.5852  0.0427  0.2736
  171SAPE   O3219258   6.914   2.899   2.749 -0.9708  0.0334  0.0281
  171SAPE   C3219259   7.080   2.870   2.914  0.1804  0.3578  0.0953
  171SAPE   H2X19260   7.161   2.942   2.935  2.6788 -2.4997  0.9380
  171SAPE   H2Y19261   7.121   2.767   2.926 -1.2903 -0.2567  0.1711
  171SAPE   C2319262   6.850   2.344   2.538  0.2082  0.0566 -0.7343
  171SAPE   H3R19263   6.914   2.295   2.461  1.2847 -3.2480  1.9822
  171SAPE   H3S19264   6.748   2.303   2.521  0.1749 -0.3594  0.3667
  171SAPE   C2419265   6.890   2.296   2.680  0.6643 -0.1689  0.9266
  171SAPE   H4R19266   6.887   2.185   2.683  0.3030 -0.1325  2.6720
  171SAPE   H4S19267   6.810   2.335   2.746  0.4258 -1.4931  1.4459
  171SAPE   C2519268   7.019   2.357   2.724  0.5868  0.7867 -0.3271
  171SAPE   H5R19269   7.012   2.466   2.737  0.1878  0.9373 -1.7112
  171SAPE   C2619270   7.129   2.287   2.747 -0.3269 -0.3103  0.5057
  171SAPE   H6R19271   7.213   2.338   2.796 -0.0409  2.0631 -2.2317
  171SAPE   C2719272   7.132   2.133   2.734 -0.8352  0.1932  0.0955
  171SAPE   H7R19273   7.084   2.107   2.638 -0.2303  2.0844 -0.7691
  171SAPE   H7S19274   7.060   2.104   2.813  0.1714 -1.6829  0.3957
  171SAPE   C2819275   7.258   2.069   2.766 -0.1157  0.6039  0.1824
  171SAPE   H8R19276   7.340   2.099   2.699  0.1535  0.8980  0.6397
  171SAPE   C2919277   7.278   1.990   2.867  1.1364  0.0262 -0.5505
  171SAPE   H9R19278   7.380   1.956   2.890  0.8796 -2.3088 -2.4203
  171SAPE  C21019279   7.169   1.929   2.958  0.4247 -0.3369  0.1508
  171SAPE  H10R19280   7.189   1.826   2.994 -0.5953 -0.9329 -0.9298
  171SAPE  H10S19281   7.072   1.913   2.906 -0.9856  0.7247  2.3294
  171SAPE  C21119282   7.138   2.016   3.076  0.5492 -0.1787  0.2290
  171SAPE  H11R19283   7.152   2.124   3.060  0.3994  0.0018  1.2209
  171SAPE  C21219284   7.087   1.984   3.200  0.5028 -0.4007  0.4569
  171SAPE  H12R19285   7.052   2.069   3.260  0.1955 -0.1017 -0.1317
  171SAPE  C21319286   7.074   1.845   3.252  0.0376 -0.0335 -0.0189
  171SAPE  H13R19287   7.128   1.842   3.349  1.8187  1.8661 -0.8697
  171SAPE  H13S19288   7.131   1.771   3.193 -0.0664  0.3483 -0.6097
  171SAPE  C21419289   6.934   1.797   3.265 -0.0326  0.0126 -0.2366
  171SAPE  H14R19290   6.893   1.739   3.182 -1.6240 -0.6039  0.9438
  171SAPE  C21519291   6.864   1.796   3.382  0.2622 -0.9209 -0.0367
  171SAPE  H15R19292   6.758   1.769   3.379 -0.0098  0.0593  0.3982
  171SAPE  C21619293   6.899   1.870   3.504 -0.0128 -1.0952 -0.1526
  171SAPE  H16R19294   6.811   1.934   3.526 -0.1327 -0.1750 -2.8744
  171SAPE  H16S19295   6.990   1.931   3.489 -1.0234 -0.1464 -3.1149
  171SAPE  C21719296   6.928   1.776   3.621  0.6457  0.0949  0.1656
  171SAPE  H17R19297   7.013   1.709   3.597  1.2833  1.3921 -1.3934
  171SAPE  H17S19298   6.833   1.721   3.638 -0.3334  0.8738 -2.2489
  171SAPE  C21819299   6.953   1.858   3.747  0.1327 -0.4407  0.5069
  171SAPE  H18R19300   6.880   1.941   3.761 -0.6226 -0.5188 -2.3712
  171SAPE  H18S19301   7.051   1.910   3.744  0.1395 -0.2902  2.2820
  171SAPE  C21919302   6.944   1.790   3.876 -0.4229  0.7662 -1.0123
  171SAPE  H19R19303   7.023   1.712   3.884 -1.3325 -0.0796 -0.0024
  171SAPE  H19S19304   6.851   1.728   3.874 -0.7296  1.1408  0.5433
  171SAPE  C22019305   6.953   1.879   4.002  0.5458 -0.7310  0.2201
  171SAPE  H20R19306   6.860   1.938   4.013  1.4710  0.9639 -0.5648
  171SAPE  H20S19307   7.036   1.952   3.987  0.1933  0.7107  3.9862
  171SAPE  H20T19308   6.967   1.809   4.087  1.0265  0.1147  0.8580
  171SAPE   C3319309   6.974   2.876   3.022  0.0281 -0.0107 -0.1965
  171SAPE   H3X19310   6.880   2.830   2.987 -0.2892 -0.0820  0.7231
  171SAPE   H3Y19311   6.949   2.981   3.047  3.1011  0.6535  0.5417
  171SAPE   C3419312   7.012   2.797   3.151  0.2623  0.3214  0.1220
  171SAPE   H4X19313   7.118   2.828   3.165  0.5798 -0.6828  0.0134
  171SAPE   H4Y19314   7.025   2.690   3.122 -1.0279  0.4059 -0.8570
  171SAPE   C3519315   6.923   2.799   3.278 -0.7811  0.1198 -0.1479
  171SAPE   H5X19316   6.823   2.755   3.259 -0.5392 -0.4407 -0.1292
  171SAPE   H5Y19317   6.901   2.903   3.310  0.5927  0.6061 -0.6855
  171SAPE   C3619318   7.004   2.730   3.388 -0.2076  0.0747  0.2482
  171SAPE   H6X19319   7.112   2.757   3.391  0.8140 -3.1882 -2.1113
  171SAPE   H6Y19320   6.993   2.620   3.374 -3.6951  0.6036 -2.6151
  171SAPE   C3719321   6.951   2.762   3.533  0.3123  0.1942 -0.4648
  171SAPE   H7X19322   6.843   2.739   3.531  0.8379 -2.5476 -0.9135
  171SAPE   H7Y19323   6.957   2.871   3.557 -5.9880  1.1842 -1.6550
  171SAPE   C3819324   7.009   2.685   3.654 -0.4039  0.3585  0.0016
  171SAPE   H8X19325   7.117   2.706   3.672 -0.2561 -1.9781  2.4002
  171SAPE   H8Y19326   6.999   2.577   3.631  0.7045  0.2976 -0.2280
  171SAPE   C3919327   6.931   2.714   3.786  0.3513  0.4927  0.3659
  171SAPE   H9X19328   6.826   2.687   3.763  0.1749  2.1215 -0.9009
  171SAPE   H9Y19329   6.932   2.823   3.807  1.6721  0.5778  0.0065
  171SAPE  C31019330   7.002   2.650   3.906 -0.0904  0.0881 -0.1702
  171SAPE  H10X19331   7.110   2.679   3.909 -0.0977  0.1075 -0.0906
  171SAPE  H10Y19332   6.998   2.539   3.904  0.3823 -0.0809  2.9712
  171SAPE  C31119333   6.950   2.700   4.040 -0.3087  0.2432  0.0663
  171SAPE  H11X19334   6.841   2.699   4.062 -0.8771  2.2726 -2.2095
  171SAPE  H11Y19335   6.993   2.802   4.051  3.6964 -1.4156  2.0963
  171SAPE  C31219336   7.025   2.614   4.149  0.0754  0.4002 -0.3424
  171SAPE  H12X19337   7.019   2.678   4.239  0.0475 -0.1400  0.0404
  171SAPE  H12Y19338   7.131   2.613   4.113 -0.5342 -0.4795 -2.2891
  171SAPE  C31319339   6.968   2.471   4.161 -0.0471 -0.0941 -0.0871
  171SAPE  H13X19340   6.977   2.408   4.070 -1.3764  0.0044 -0.3060
  171SAPE  H13Y19341   6.863   2.493   4.189 -0.1633  0.2037 -0.7344
  171SAPE  C31419342   7.031   2.405   4.280 -0.2640  0.7735 -0.0231
  171SAPE  H14X19343   7.023   2.477   4.364  2.0592  2.9545 -1.5244
  171SAPE  H14Y19344   7.141   2.390   4.266 -0.6132 -1.0708 -1.1675
  171SAPE  C31519345   6.976   2.266   4.301  0.5103  0.4379 -0.5103
  171SAPE  H15X19346   6.999   2.193   4.220  0.3531 -1.3565  0.9933
  171SAPE  H15Y19347   6.865   2.268   4.302  0.3959 -1.2871 -2.7752
  171SAPE  C31619348   7.023   2.196   4.432  0.3549  0.4727 -0.4209
  171SAPE  H16X19349   7.006   2.261   4.520  1.4075 -0.0535  0.1920
  171SAPE  H16Y19350   7.133   2.178   4.424  0.2287 -0.4043 -0.2645
  171SAPE  C31719351   6.941   2.066   4.449 -0.2562  0.4718  0.3051
  171SAPE  H17X19352   6.834   2.097   4.438 -0.1237  1.1244  0.8211
  171SAPE  H17Y19353   6.955   2.028   4.552  0.4385 -1.7060 -0.5484
  171SAPE  C31819354   6.980   1.951   4.354  0.3007  0.5547 -0.3774
  171SAPE  H18X19355   6.958   1.971   4.247 -2.7437  0.7343  0.1614
  171SAPE  H18Y19356   6.925   1.858   4.380 -1.4698  0.7576 -2.9636
  171SAPE  H18Z19357   7.089   1.934   4.360  0.5433  2.0132 -0.2641
  172SAPE     N19358   0.528   5.601   1.717  0.2479 -0.4745 -0.7548
  172SAPE   HN119359   0.555   5.673   1.788 -0.2748  1.1096 -2.0930
  172SAPE   HN219360   0.535   5.508   1.763 -3.7827 -0.5168  0.1524
  172SAPE   HN319361   0.594   5.601   1.637  0.4315 -0.0729 -0.6056
  172SAPE   C1219362   0.381   5.616   1.674 -0.6007  0.3480 -0.1866
  172SAPE  H12A19363   0.355   5.552   1.587 -1.2522  0.5422 -0.1397
  172SAPE  H12B19364   0.373   5.719   1.634 -0.0088 -0.3846 -2.3342
  172SAPE   C1119365   0.280   5.588   1.795  0.1636 -0.0596 -0.3121
  172SAPE  H11A19366   0.257   5.480   1.798  1.1649 -0.2623  0.5674
  172SAPE  H11B19367   0.184   5.643   1.786 -0.3173 -0.7956  0.2231
  172SAPE     P19368   0.280   5.620   2.065 -0.4134  0.0388 -0.0268
  172SAPE   O1319369   0.137   5.650   2.071 -0.8446  0.4187 -0.4758
  172SAPE   O1419370   0.322   5.487   2.118  0.2598 -0.1960 -0.6600
  172SAPE   O1219371   0.343   5.631   1.917  0.1936  0.0390 -0.2194
  172SAPE   O1119372   0.374   5.732   2.121 -0.0742  0.5532 -0.2418
  172SAPE    C119373   0.512   5.713   2.117 -0.0944 -0.5125  1.0886
  172SAPE    HA19374   0.542   5.620   2.065 -1.9028 -1.2540  1.3098
  172SAPE    HB19375   0.547   5.802   2.060 -0.5047 -0.5439  0.7807
  172SAPE    C219376   0.584   5.708   2.259  0.0067 -0.1929  0.2569
  172SAPE    HS19377   0.582   5.606   2.303  1.0616  0.0057  0.8068
  172SAPE   O2119378   0.515   5.793   2.349  0.1410 -0.1175  0.0043
  172SAPE   C2119379   0.474   5.916   2.308  0.2815 -0.9958 -1.1019
  172SAPE   O2219380   0.519   5.977   2.214  0.0709 -0.6123 -0.5811
  172SAPE   C2219381   0.368   5.979   2.407  0.5668  0.4844  0.0887
  172SAPE   H2R19382   0.313   6.052   2.344  2.2937  0.0716 -2.0521
  172SAPE   H2S19383   0.309   5.891   2.439 -0.4654  0.7126 -1.0929
  172SAPE    C319384   0.736   5.747   2.254 -0.6967 -0.2421 -0.5071
  172SAPE    HX19385   0.757   5.855   2.240  1.6576 -0.7388 -1.1532
  172SAPE    HY19386   0.776   5.693   2.165  2.9368 -0.1322  0.8943
  172SAPE   O3119387   0.808   5.698   2.367  0.4325 -0.3672  0.3596
  172SAPE   C3119388   0.804   5.766   2.483  0.2246 -0.3516 -0.0028
  172SAPE   O3219389   0.794   5.887   2.494  0.2860  0.0774  0.5182
  172SAPE   C3219390   0.814   5.670   2.600  0.0284  0.3426  0.6473
  172SAPE   H2X19391   0.898   5.604   2.568 -1.0286  0.1248 -1.9014
  172SAPE   H2Y19392   0.719   5.612   2.602 -0.0191  0.2271 -1.8975
  172SAPE   C2319393   0.430   6.041   2.533  0.4489  0.2583  0.0430
  172SAPE   H3R19394   0.488   6.134   2.511 -0.3488  0.6559 -0.4171
  172SAPE   H3S19395   0.494   5.965   2.583  0.2497  0.7236  1.0293
  172SAPE   C2419396   0.333   6.090   2.632 -0.0151 -0.1536 -0.1841
  172SAPE   H4R19397   0.251   6.149   2.586  0.5611  0.9842  0.2098
  172SAPE   H4S19398   0.385   6.153   2.708  1.4801 -1.5171 -0.0194
  172SAPE   C2519399   0.268   5.962   2.697  0.2279 -0.0201 -0.0414
  172SAPE   H5R19400   0.186   5.919   2.637 -0.3921 -0.5960  1.1826
  172SAPE   C2619401   0.283   5.910   2.822 -0.0572 -0.5552  0.2105
  172SAPE   H6R19402   0.235   5.812   2.838 -2.4986  0.7167  1.0259
  172SAPE   C2719403   0.365   5.963   2.937  1.0407  0.4246 -0.8735
  172SAPE   H7R19404   0.299   6.000   3.019  0.9477 -0.2487 -0.6344
  172SAPE   H7S19405   0.434   6.041   2.899  5.0988 -1.7016  1.4449
  172SAPE   C2819406   0.440   5.844   2.983  0.7317 -0.8298 -0.4891
  172SAPE   H8R19407   0.531   5.818   2.927  1.6148 -0.1109  0.5873
  172SAPE   C2919408   0.417   5.768   3.090 -0.2490 -0.7593  0.1887
  172SAPE   H9R19409   0.489   5.689   3.114  0.6016  0.7241  2.9683
  172SAPE  C21019410   0.302   5.775   3.186  0.7816 -0.4929 -0.0184
  172SAPE  H10R19411   0.281   5.670   3.215  0.8071 -0.2635  0.8549
  172SAPE  H10S19412   0.212   5.809   3.130 -0.0918 -1.5559  0.6927
  172SAPE  C21119413   0.323   5.869   3.305  0.4991  0.2306  0.3576
  172SAPE  H11R19414   0.375   5.963   3.283  0.5201 -0.0480 -0.8749
  172SAPE  C21219415   0.288   5.846   3.436 -0.2674  0.0200 -0.1591
  172SAPE  H12R19416   0.311   5.917   3.517 -1.3216  0.0959  0.0799
  172SAPE  C21319417   0.213   5.723   3.482  0.5478 -0.4695  0.2355
  172SAPE  H13R19418   0.147   5.684   3.402 -2.8967  2.4942  1.3637
  172SAPE  H13S19419   0.142   5.747   3.564  1.7447  0.9723  0.9197
  172SAPE  C21419420   0.305   5.611   3.537  0.3032  0.1056  0.9824
  172SAPE  H14R19421   0.379   5.580   3.461  0.1895 -1.8687  1.6240
  172SAPE  C21519422   0.309   5.558   3.660  0.3611 -0.6327 -0.2949
  172SAPE  H15R19423   0.385   5.481   3.684  0.5178 -0.0524  1.1915
  172SAPE  C21619424   0.219   5.588   3.774  0.5010  0.4430  0.1073
  172SAPE  H16R19425   0.230   5.509   3.852  2.4376 -1.9374 -2.3925
  172SAPE  H16S19426   0.110   5.578   3.755  0.5824 -1.3504  0.4178
  172SAPE  C21719427   0.259   5.712   3.840 -0.2769 -0.1285  0.0472
  172SAPE  H17R19428   0.230   5.796   3.773  0.1046 -0.1282 -0.1173
  172SAPE  H17S19429   0.369   5.728   3.845 -0.1077 -0.3539 -2.0342
  172SAPE  C21819430   0.184   5.718   3.977 -1.1956 -0.1480 -0.4452
  172SAPE  H18R19431   0.244   5.661   4.051 -1.6737 -1.1303 -0.8080
  172SAPE  H18S19432   0.080   5.681   3.979 -1.6086  0.9681  1.2899
  172SAPE  C21919433   0.160   5.865   4.018  0.7513  0.9027 -0.0830
  172SAPE  H19R19434   0.252   5.922   3.991 -0.2810  3.4532  1.3639
  172SAPE  H19S19435   0.141   5.867   4.128  1.0073 -2.5584  0.1446
  172SAPE  C22019436   0.042   5.917   3.934 -0.3294 -0.2378 -0.1981
  172SAPE  H20R19437  -0.050   5.869   3.972 -1.2481  2.0516  0.6988
  172SAPE  H20S19438   0.060   5.908   3.825 -0.0144 -1.2936 -0.0670
  172SAPE  H20T19439   0.023   6.023   3.963  1.4754 -0.1244  0.7577
  172SAPE   C3319440   0.840   5.743   2.733  0.4355 -0.2492 -0.3183
  172SAPE   H3X19441   0.753   5.810   2.748 -0.1983 -0.9408 -0.8676
  172SAPE   H3Y19442   0.927   5.812   2.740  0.5100 -0.4904  1.6263
  172SAPE   C3419443   0.834   5.646   2.846  0.1027  0.0439 -0.4129
  172SAPE   H4X19444   0.923   5.579   2.842  0.2986 -0.2178  4.0643
  172SAPE   H4Y19445   0.735   5.599   2.830 -0.0976  0.5254 -0.6234
  172SAPE   C3519446   0.839   5.700   2.989  0.3070 -0.2578 -0.9273
  172SAPE   H5X19447   0.753   5.770   3.000  0.9044  0.5508 -1.2481
  172SAPE   H5Y19448   0.925   5.770   2.997 -0.5922  0.8025 -0.1890
  172SAPE   C3619449   0.824   5.598   3.104 -0.1521 -0.0698 -1.2345
  172SAPE   H6X19450   0.916   5.535   3.102  0.2124  0.1916  2.0651
  172SAPE   H6Y19451   0.732   5.536   3.093  1.0241 -1.8083 -1.7065
  172SAPE   C3719452   0.827   5.636   3.250  1.0669 -0.2292 -0.1165
  172SAPE   H7X19453   0.763   5.726   3.269  0.4558 -0.4823 -0.8935
  172SAPE   H7Y19454   0.923   5.675   3.288  0.1201  1.3339  0.7995
  172SAPE   C3819455   0.783   5.523   3.340 -0.0147 -0.4195  0.0531
  172SAPE   H8X19456   0.842   5.432   3.317  2.4259  0.5213  2.0202
  172SAPE   H8Y19457   0.679   5.491   3.319 -0.3912  0.7874 -0.0467
  172SAPE   C3919458   0.791   5.566   3.486 -0.2060 -1.0422 -0.6024
  172SAPE   H9X19459   0.750   5.669   3.499 -0.0911 -1.0891  0.2223
  172SAPE   H9Y19460   0.896   5.575   3.524 -0.0415  0.6493 -1.3452
  172SAPE  C31019461   0.730   5.461   3.586 -0.5311  0.1712 -0.2482
  172SAPE  H10X19462   0.768   5.362   3.551  1.2022  0.5202  0.5422
  172SAPE  H10Y19463   0.619   5.460   3.578 -0.5422  0.0091 -0.0895
  172SAPE  C31119464   0.763   5.491   3.734  0.6780 -0.1350 -0.0659
  172SAPE  H11X19465   0.873   5.499   3.746  0.9277 -2.5968 -0.1770
  172SAPE  H11Y19466   0.754   5.389   3.777  0.3819  1.4854  4.2880
  172SAPE  C31219467   0.687   5.604   3.797  0.3007  0.4555 -0.3858
  172SAPE  H12X19468   0.578   5.584   3.805  0.3855  0.2098  0.2581
  172SAPE  H12Y19469   0.715   5.696   3.742  1.3909 -0.3033 -1.1666
  172SAPE  C31319470   0.731   5.644   3.946  0.3239  0.4639 -0.2256
  172SAPE  H13X19471   0.840   5.652   3.960  0.5467 -0.2872 -1.3925
  172SAPE  H13Y19472   0.686   5.563   4.008  0.8589 -0.2912 -0.8056
  172SAPE  C31419473   0.661   5.781   3.984  0.7475 -0.1769  0.9414
  172SAPE  H14X19474   0.552   5.759   3.985  0.4518  1.1725  0.4943
  172SAPE  H14Y19475   0.683   5.857   3.906  0.0604 -1.1327 -0.2156
  172SAPE  C31519476   0.690   5.836   4.125  0.4108 -0.4006 -0.3062
  172SAPE  H15X19477   0.638   5.931   4.148 -0.0388 -0.2271 -1.8841
  172SAPE  H15Y19478   0.795   5.872   4.138  0.2045  0.1121 -0.0206
  172SAPE  C31619479   0.668   5.741   4.239  0.2756  0.0923 -0.1739
  172SAPE  H16X19480   0.666   5.640   4.193 -0.0316  1.1558 -2.6055
  172SAPE  H16Y19481   0.568   5.754   4.284  1.4899  0.4944  2.6620
  172SAPE  C31719482   0.776   5.748   4.353  0.0501 -0.4503  0.9901
  172SAPE  H17X19483   0.763   5.853   4.387 -0.3041 -0.1445 -0.0368
  172SAPE  H17Y19484   0.880   5.729   4.320  0.4316  0.8747  1.4001
  172SAPE  C31819485   0.764   5.652   4.467  1.2578 -0.2416  0.2915
  172SAPE  H18X19486   0.781   5.546   4.439  0.2454 -0.3737  0.1295
  172SAPE  H18Y19487   0.658   5.648   4.501  1.5004 -0.7479  0.9988
  172SAPE  H18Z19488   0.810   5.672   4.566  0.3300 -1.1843  0.9337
  173SLPC     N19489   5.415   6.150   6.617 -0.3232 -0.0941  0.3591
  173SLPC   C1319490   5.512   6.222   6.703  0.3813 -0.6352  0.1295
  173SLPC  H13A19491   5.614   6.203   6.676  0.5268 -0.2594  0.4055
  173SLPC  H13B19492   5.490   6.327   6.692  2.8297 -0.2275 -1.3803
  173SLPC  H13C19493   5.503   6.191   6.807  1.0346 -0.3377  0.2774
  173SLPC   C1419494   5.279   6.158   6.677  0.2583  0.0473  0.3839
  173SLPC  H14A19495   5.266   6.131   6.780 -1.4354  2.5961  0.9369
  173SLPC  H14B19496   5.231   6.255   6.670 -0.0829 -0.1225  0.3316
  173SLPC  H14C19497   5.211   6.094   6.622 -0.1255  0.9532 -0.2324
  173SLPC   C1519498   5.449   6.000   6.612  0.0145 -0.5880 -0.1426
  173SLPC  H15A19499   5.442   5.976   6.717 -0.6829 -0.6280 -0.1902
  173SLPC  H15B19500   5.376   5.936   6.565 -0.7839 -0.2931  0.6480
  173SLPC  H15C19501   5.547   5.968   6.580  0.1695 -0.5489  0.2755
  173SLPC   C1219502   5.416   6.201   6.468 -0.2609  0.4747 -0.4858
  173SLPC  H12A19503   5.350   6.139   6.409  0.4801  1.1755 -2.1275
  173SLPC  H12B19504   5.514   6.180   6.430 -0.5363 -1.6040 -0.1444
  173SLPC   C1119505   5.384   6.352   6.439  0.0330 -0.4964  0.2229
  173SLPC  H11A19506   5.310   6.391   6.512  0.4379  0.7065  0.0112
  173SLPC  H11B19507   5.346   6.347   6.335 -0.3969  3.2267  0.0704
  173SLPC     P19508   5.599   6.445   6.333  0.2223  0.2804  0.0287
  173SLPC   O1319509   5.732   6.484   6.387  0.2238 -0.1527  0.1793
  173SLPC   O1419510   5.589   6.312   6.268  0.3488 -0.1222 -0.0043
  173SLPC   O1219511   5.494   6.438   6.452  0.0692  0.1445 -0.0490
  173SLPC   O1119512   5.540   6.560   6.241 -0.5464 -0.4988 -0.3238
  173SLPC    C119513   5.417   6.630   6.251  0.3407  0.4184 -0.3308
  173SLPC    HA19514   5.335   6.572   6.204 -0.3537  1.6634 -0.7156
  173SLPC    HB19515   5.397   6.660   6.357  0.9282 -1.0887  0.2264
  173SLPC    C219516   5.420   6.769   6.181  0.4001  1.0008 -0.3428
  173SLPC    HS19517   5.323   6.823   6.193  0.4101  0.9864 -0.1904
  173SLPC   O2119518   5.447   6.758   6.040  0.2530  0.4466  0.1896
  173SLPC   C2119519   5.353   6.713   5.969  0.1815  0.1989 -0.9012
  173SLPC   O2219520   5.239   6.702   6.011  0.5972  0.0667 -0.2355
  173SLPC   C2219521   5.400   6.683   5.825 -0.2739 -0.0962 -0.0914
  173SLPC   H2R19522   5.459   6.775   5.803  0.4183 -0.2000  1.2420
  173SLPC   H2S19523   5.467   6.595   5.833 -2.5299 -1.7988  1.8965
  173SLPC    C319524   5.529   6.867   6.229  0.3079  0.1760 -0.3287
  173SLPC    HX19525   5.630   6.822   6.240  0.9053  0.7477 -2.9099
  173SLPC    HY19526   5.494   6.884   6.334 -0.0939 -1.4308 -0.1817
  173SLPC   O3119527   5.533   6.989   6.152  0.5816 -0.6272 -1.0568
  173SLPC   C3119528   5.442   7.090   6.184 -0.0218  0.0993  0.3921
  173SLPC   O3219529   5.338   7.070   6.236  0.7854 -0.1062  0.3513
  173SLPC   C3219530   5.491   7.224   6.133 -0.1272  0.3987 -0.2860
  173SLPC   H2X19531   5.588   7.224   6.186 -0.2684 -0.3606 -0.0089
  173SLPC   H2Y19532   5.431   7.311   6.168  1.2579  1.1680  0.2636
  173SLPC   C2319533   5.291   6.648   5.718  1.0421 -0.0566  0.3495
  173SLPC   H3R19534   5.199   6.705   5.745 -0.1122 -1.2957 -0.8070
  173SLPC   H3S19535   5.268   6.541   5.736  2.6718 -0.8660 -1.9149
  173SLPC   C2419536   5.335   6.673   5.575 -0.2456  0.4243  0.6785
  173SLPC   H4R19537   5.431   6.628   5.546 -0.5079 -0.1522  0.6906
  173SLPC   H4S19538   5.341   6.784   5.565 -2.5416  0.6540  1.2465
  173SLPC   C2519539   5.230   6.629   5.474  0.1602  0.1170  0.0631
  173SLPC   H5R19540   5.145   6.698   5.490  1.0614  0.8670  1.8887
  173SLPC   H5S19541   5.205   6.525   5.506  1.2807 -0.4275 -0.7519
  173SLPC   C2619542   5.277   6.638   5.328  0.2435  0.3943 -0.1237
  173SLPC   H6R19543   5.339   6.547   5.312 -0.6574 -0.1617 -0.5135
  173SLPC   H6S19544   5.334   6.732   5.317 -0.6739  1.1131  1.0823
  173SLPC   C2719545   5.170   6.642   5.223  0.0795  0.3465  0.7111
  173SLPC   H7R19546   5.086   6.713   5.239  0.7134  1.8344 -2.0254
  173SLPC   H7S19547   5.121   6.543   5.230  0.5031 -0.0796 -1.5038
  173SLPC   C2819548   5.222   6.670   5.087 -0.8613  0.1582 -0.0302
  173SLPC   H8R19549   5.144   6.640   5.014 -0.5876 -3.8264  1.1108
  173SLPC   H8S19550   5.305   6.601   5.061  0.9251  2.5802 -1.2149
  173SLPC   C2919551   5.256   6.816   5.070  0.5146 -0.1436  0.7003
  173SLPC   H9R19552   5.168   6.881   5.079  0.1232 -0.6078  0.3060
  173SLPC  C21019553   5.375   6.869   5.027  0.4432 -0.2495 -0.4492
  173SLPC  H10R19554   5.384   6.977   5.013 -2.7704  0.2920  0.8423
  173SLPC  C21119555   5.496   6.785   4.981  0.0277 -0.2663 -0.2927
  173SLPC  H11R19556   5.461   6.686   4.945 -0.2110 -0.0978 -0.5284
  173SLPC  H11S19557   5.565   6.774   5.068 -1.0343  0.1453  0.6318
  173SLPC  C21219558   5.569   6.850   4.869  0.0002  0.2787 -0.3473
  173SLPC  H12R19559   5.506   6.908   4.801 -0.3635 -1.6755 -1.7677
  173SLPC  C21319560   5.695   6.839   4.836 -0.4725  0.1279 -0.6726
  173SLPC  H13R19561   5.729   6.878   4.739  0.9334  1.1710  0.2136
  173SLPC  C21419562   5.797   6.752   4.911  0.3123  0.0866  1.4784
  173SLPC  H14R19563   5.778   6.766   5.019  0.7478  2.8228  1.2715
  173SLPC  H14S19564   5.899   6.787   4.884 -1.3502  1.9059 -3.7236
  173SLPC  C21519565   5.779   6.608   4.866 -0.6138  0.5406 -0.3941
  173SLPC  H15R19566   5.674   6.584   4.838 -0.7582 -0.5120  0.9152
  173SLPC  H15S19567   5.794   6.537   4.951  1.1593 -0.4933 -1.5162
  173SLPC  C21619568   5.878   6.549   4.755  0.0245 -0.1941 -0.2109
  173SLPC  H16R19569   5.849   6.582   4.653  1.4741  2.5220  0.1822
  173SLPC  H16S19570   5.864   6.439   4.760  1.9784 -0.4266  1.0498
  173SLPC  C21719571   6.026   6.574   4.773 -0.2883  0.4340  0.4301
  173SLPC  H17R19572   6.067   6.542   4.871  2.3984  0.9588 -0.4401
  173SLPC  H17S19573   6.034   6.685   4.764  0.2268  0.3625 -0.0981
  173SLPC  C21819574   6.115   6.517   4.663  0.2538  0.6485  0.5220
  173SLPC  H18R19575   6.076   6.557   4.567  1.5213  0.1385 -0.2246
  173SLPC  H18S19576   6.115   6.406   4.667  3.3332  0.6027  1.3111
  173SLPC  H18T19577   6.216   6.561   4.676  0.7463 -0.5962  1.0557
  173SLPC   C3319578   5.499   7.217   5.983 -0.3494 -0.2110  0.1521
  173SLPC   H3X19579   5.421   7.148   5.944 -1.0834  1.1264 -0.7839
  173SLPC   H3Y19580   5.597   7.174   5.952  0.4100  1.9096 -0.5346
  173SLPC   C3419581   5.491   7.344   5.902 -0.8189  0.1769 -0.1641
  173SLPC   H4X19582   5.545   7.419   5.963  1.7000 -1.9029  0.3850
  173SLPC   H4Y19583   5.384   7.373   5.902 -1.2201 -1.1532  0.8397
  173SLPC   C3519584   5.545   7.352   5.762 -0.0932  0.0871 -0.5305
  173SLPC   H5X19585   5.468   7.302   5.700  0.4287 -1.3464 -0.0680
  173SLPC   H5Y19586   5.641   7.299   5.740  0.5785  0.6950  0.8193
  173SLPC   C3619587   5.546   7.496   5.713 -0.3489  0.3361 -0.3222
  173SLPC   H6X19588   5.626   7.552   5.766 -0.2308  0.0660 -0.2145
  173SLPC   H6Y19589   5.456   7.550   5.750 -0.5143  0.2035 -0.5279
  173SLPC   C3719590   5.546   7.504   5.560  0.1684  0.1530 -0.2886
  173SLPC   H7X19591   5.451   7.461   5.521  0.5858 -0.2375 -0.9132
  173SLPC   H7Y19592   5.635   7.450   5.521  0.0142 -0.7777  0.6209
  173SLPC   C3819593   5.547   7.644   5.506 -0.0982 -0.0945  0.3895
  173SLPC   H8X19594   5.624   7.712   5.548 -1.2283  1.9129 -0.6615
  173SLPC   H8Y19595   5.454   7.697   5.535  0.9501  1.8219  0.4172
  173SLPC   C3919596   5.543   7.641   5.353 -0.2792 -0.8321  0.0185
  173SLPC   H9X19597   5.464   7.574   5.311  1.7087 -1.1846 -3.5105
  173SLPC   H9Y19598   5.636   7.589   5.321 -0.3256 -0.0680 -1.4639
  173SLPC  C31019599   5.527   7.779   5.285  0.6186 -0.3065  0.2855
  173SLPC  H10X19600   5.604   7.849   5.325  1.3310 -0.2523 -1.1146
  173SLPC  H10Y19601   5.439   7.828   5.330  1.6269  1.1898  0.7125
  173SLPC  C31119602   5.537   7.786   5.132  0.7370 -0.3139  0.0065
  173SLPC  H11X19603   5.545   7.893   5.103 -0.1300  0.1636  1.3980
  173SLPC  H11Y19604   5.448   7.743   5.082  0.4760 -0.7245  0.7952
  173SLPC  C31219605   5.660   7.704   5.078  0.2537 -0.3713  0.4840
  173SLPC  H12X19606   5.640   7.595   5.088  1.7861 -0.6937  0.2518
  173SLPC  H12Y19607   5.750   7.720   5.140  1.1071 -5.1749  0.9214
  173SLPC  C31319608   5.696   7.739   4.932 -0.4074  0.3748  0.3159
  173SLPC  H13X19609   5.767   7.662   4.895  0.0520  2.3605 -3.3529
  173SLPC  H13Y19610   5.746   7.838   4.929 -0.1506  0.2164 -0.9543
  173SLPC  C31419611   5.587   7.728   4.824 -0.3380 -0.1849  0.1678
  173SLPC  H14X19612   5.504   7.796   4.849  0.0333  0.2013  0.3701
  173SLPC  H14Y19613   5.546   7.625   4.811  0.2943 -0.2812 -1.1528
  173SLPC  C31519614   5.637   7.789   4.695 -0.3935  0.5497  0.3525
  173SLPC  H15X19615   5.695   7.883   4.701  0.7688 -0.0615 -0.6476
  173SLPC  H15Y19616   5.556   7.817   4.624  0.0509  0.1319 -0.3380
  173SLPC  C31619617   5.727   7.690   4.609  0.6520 -0.2131 -0.3110
  173SLPC  H16X19618   5.666   7.651   4.525  1.9854  1.6748 -2.2675
  173SLPC  H16Y19619   5.736   7.597   4.670 -1.2662 -0.0640  0.2607
  173SLPC  C31719620   5.864   7.750   4.569  0.1813  0.7097 -0.3028
  173SLPC  H17X19621   5.852   7.844   4.511  1.1195 -0.0366 -1.7742
  173SLPC  H17Y19622   5.915   7.671   4.510 -0.5953 -0.5612  0.6732
  173SLPC  C31819623   5.962   7.782   4.679  0.2478 -0.7028  0.4234
  173SLPC  H18X19624   6.044   7.851   4.650  1.6282 -1.6405  1.9048
  173SLPC  H18Y19625   6.012   7.694   4.725 -2.0884 -1.7637  1.0837
  173SLPC  H18Z19626   5.911   7.839   4.760 -0.2976  0.6121 -0.8062
  174SLPC     N19627   2.102   2.067   7.038 -0.0452 -0.1389 -0.2299
  174SLPC   C1319628   2.231   1.998   7.087 -0.1703 -0.5223 -0.1554
  174SLPC  H13A19629   2.285   1.964   6.999 -1.4963  1.1459 -1.6880
  174SLPC  H13B19630   2.300   2.064   7.136  1.1210  0.1366 -2.6873
  174SLPC  H13C19631   2.202   1.908   7.140  1.8287 -1.7925 -1.0879
  174SLPC   C1419632   2.006   2.091   7.150  0.5299 -0.5196  0.1363
  174SLPC  H14A19633   1.966   1.998   7.189 -1.9406  0.5004  0.2042
  174SLPC  H14B19634   2.066   2.138   7.227 -0.8203  0.5931  0.5493
  174SLPC  H14C19635   1.920   2.150   7.123 -0.4536 -1.4831  1.0590
  174SLPC   C1519636   2.045   1.972   6.939  0.3647 -0.0809  0.2962
  174SLPC  H15A19637   1.950   2.008   6.903  0.3637  1.3487  1.6283
  174SLPC  H15B19638   2.107   1.939   6.856 -0.9055 -1.4040 -0.1621
  174SLPC  H15C19639   2.039   1.880   6.994  0.9299  0.0096  0.5219
  174SLPC   C1219640   2.153   2.199   6.967  0.4996  0.5364 -0.0881
  174SLPC  H12A19641   2.246   2.223   7.016  0.2579 -0.6687  1.0222
  174SLPC  H12B19642   2.085   2.279   6.990  0.3949  0.0858  1.2637
  174SLPC   C1119643   2.193   2.200   6.814  0.7121 -0.8354  0.4298
  174SLPC  H11A19644   2.226   2.304   6.793  0.0657 -0.6298  0.4338
  174SLPC  H11B19645   2.103   2.183   6.751  0.4622  2.6762 -0.3710
  174SLPC     P19646   2.447   2.176   6.777  0.0721  0.2261 -0.1285
  174SLPC   O1319647   2.476   2.252   6.900 -0.3899  0.5755  0.3452
  174SLPC   O1419648   2.536   2.062   6.754 -0.5778  0.4482 -0.0936
  174SLPC   O1219649   2.297   2.111   6.789 -0.2758 -0.2475  0.2065
  174SLPC   O1119650   2.429   2.273   6.657  0.6166 -0.1278 -0.0620
  174SLPC    C119651   2.446   2.232   6.519 -0.2424 -0.5811 -0.8481
  174SLPC    HA19652   2.455   2.121   6.511 -3.0180 -1.1535  2.1084
  174SLPC    HB19653   2.353   2.259   6.465  1.2758 -1.1130 -3.9948
  174SLPC    C219654   2.558   2.305   6.439 -0.3353  0.6804 -0.5199
  174SLPC    HS19655   2.520   2.405   6.406  0.4604  0.9380 -0.6801
  174SLPC   O2119656   2.597   2.219   6.330  0.0819 -0.4633  1.0511
  174SLPC   C2119657   2.507   2.218   6.230  0.1690 -0.0197  0.4046
  174SLPC   O2219658   2.403   2.283   6.223  0.1803 -0.0218 -0.3255
  174SLPC   C2219659   2.580   2.145   6.115 -0.4122  0.2068  0.9257
  174SLPC   H2R19660   2.682   2.184   6.099 -0.3446 -0.6060 -0.8106
  174SLPC   H2S19661   2.586   2.037   6.140 -0.1856  0.5426  2.4439
  174SLPC    C319662   2.680   2.335   6.524 -0.6714  0.2118  0.1214
  174SLPC    HX19663   2.712   2.237   6.566  0.3837  0.5552  0.1441
  174SLPC    HY19664   2.646   2.395   6.611 -0.3493  0.9507 -0.2531
  174SLPC   O3119665   2.778   2.402   6.446  0.0536  0.5039  0.2225
  174SLPC   C3119666   2.762   2.534   6.451  0.3978  0.2025 -0.2869
  174SLPC   O3219667   2.669   2.592   6.496 -0.0760 -0.3292 -0.3702
  174SLPC   C3219668   2.881   2.612   6.402  0.3118 -0.3995 -0.0498
  174SLPC   H2X19669   2.965   2.590   6.472  0.6047 -1.6608 -0.7698
  174SLPC   H2Y19670   2.851   2.718   6.414  0.2432 -0.5003  0.6739
  174SLPC   C2319671   2.501   2.166   5.978 -0.4486  0.6423 -0.4665
  174SLPC   H3R19672   2.493   2.275   5.960 -0.4893  1.1363  2.0769
  174SLPC   H3S19673   2.401   2.122   5.999 -0.4159  0.8739  0.2305
  174SLPC   C2419674   2.565   2.086   5.869  0.4767 -0.7506  0.5271
  174SLPC   H4R19675   2.560   1.976   5.886  2.7598 -1.1657 -1.0216
  174SLPC   H4S19676   2.671   2.119   5.869  0.8933 -1.9825  1.8478
  174SLPC   C2519677   2.497   2.119   5.738 -0.1730 -0.2117 -0.1277
  174SLPC   H5R19678   2.463   2.225   5.733  1.5405  0.3761  0.0743
  174SLPC   H5S19679   2.406   2.058   5.725  1.4131 -2.9624  0.9270
  174SLPC   C2619680   2.578   2.090   5.618 -0.0746  0.6032 -0.0880
  174SLPC   H6R19681   2.614   1.985   5.628  1.1529  1.1433  1.3532
  174SLPC   H6S19682   2.662   2.162   5.619  0.0496  0.7742 -4.2038
  174SLPC   C2719683   2.506   2.122   5.489 -0.6883  0.3679  0.6246
  174SLPC   H7R19684   2.431   2.203   5.497 -1.2897 -0.3609  3.1116
  174SLPC   H7S19685   2.435   2.038   5.473  1.0770 -1.3270  1.2614
  174SLPC   C2819686   2.593   2.147   5.359  0.0189 -0.0430 -0.3006
  174SLPC   H8R19687   2.648   2.239   5.385 -0.6108 -0.1891  1.7516
  174SLPC   H8S19688   2.517   2.167   5.280  0.4702  0.4454 -0.6185
  174SLPC   C2919689   2.685   2.027   5.332 -0.4452  0.6014 -0.5801
  174SLPC   H9R19690   2.774   2.011   5.394  0.9748  2.1850 -2.1183
  174SLPC  C21019691   2.668   1.936   5.233 -0.3086 -0.1741  0.3293
  174SLPC  H10R19692   2.738   1.852   5.238  0.8262  0.8259  2.3156
  174SLPC  C21119693   2.575   1.942   5.120  0.0594 -0.6180 -0.1043
  174SLPC  H11R19694   2.643   1.964   5.035  1.7988 -0.4924  1.2802
  174SLPC  H11S19695   2.505   2.029   5.116 -0.2420 -0.8644 -0.3061
  174SLPC  C21219696   2.489   1.818   5.103 -0.6023  0.0287 -0.7564
  174SLPC  H12R19697   2.407   1.809   5.176  1.3714  1.3108  1.7525
  174SLPC  C21319698   2.496   1.731   4.999  0.1130 -0.0231 -0.2200
  174SLPC  H13R19699   2.432   1.641   4.997 -0.1094  0.1450 -1.6006
  174SLPC  C21419700   2.600   1.749   4.888  0.0370  0.0543 -0.0910
  174SLPC  H14R19701   2.701   1.704   4.901  0.1641 -0.2054 -1.7502
  174SLPC  H14S19702   2.600   1.860   4.878 -4.3214  0.1078 -1.6547
  174SLPC  C21519703   2.555   1.695   4.753 -0.4837  0.1895  0.0954
  174SLPC  H15R19704   2.624   1.742   4.680  0.3385  0.6431  1.1561
  174SLPC  H15S19705   2.454   1.713   4.711 -0.4480 -3.0705 -1.7914
  174SLPC  C21619706   2.585   1.545   4.747 -0.0394  0.2916  0.5384
  174SLPC  H16R19707   2.510   1.488   4.807  1.7320  0.4106  3.0055
  174SLPC  H16S19708   2.688   1.534   4.787  0.3893  2.8475  0.3081
  174SLPC  C21719709   2.583   1.501   4.600  0.7825  0.5029 -0.6428
  174SLPC  H17R19710   2.631   1.578   4.535 -2.7734  2.0371 -1.7386
  174SLPC  H17S19711   2.478   1.502   4.562 -0.9372  0.4956  3.6291
  174SLPC  C21819712   2.641   1.364   4.576 -0.2005  0.1745  0.0369
  174SLPC  H18R19713   2.617   1.331   4.473  2.0660  2.2005 -1.2634
  174SLPC  H18S19714   2.589   1.296   4.646 -0.4015  2.1319  1.9008
  174SLPC  H18T19715   2.751   1.354   4.587 -0.2361 -0.2690  0.0087
  174SLPC   C3319716   2.920   2.573   6.256 -0.2126 -0.6973  0.0978
  174SLPC   H3X19717   2.923   2.462   6.251 -0.4089 -0.7751  1.3837
  174SLPC   H3Y19718   3.026   2.603   6.241 -0.8588  2.1263  0.5922
  174SLPC   C3419719   2.821   2.631   6.146  0.2583 -0.2043  0.4318
  174SLPC   H4X19720   2.840   2.740   6.132 -0.1995 -0.0911  0.6725
  174SLPC   H4Y19721   2.722   2.613   6.192 -0.4101 -0.4487 -1.0381
  174SLPC   C3519722   2.816   2.551   6.019 -0.7073  0.5626  0.3016
  174SLPC   H5X19723   2.780   2.448   6.040  2.0687 -0.4590  0.5000
  174SLPC   H5Y19724   2.922   2.547   5.986 -1.1479  1.6571 -1.3507
  174SLPC   C3619725   2.739   2.607   5.894 -0.3243  0.2407  0.1583
  174SLPC   H6X19726   2.784   2.708   5.895  1.2163 -0.4102 -0.4543
  174SLPC   H6Y19727   2.629   2.617   5.906 -0.2646  1.0820  0.0222
  174SLPC   C3719728   2.776   2.543   5.759 -0.4721 -0.1917 -0.6455
  174SLPC   H7X19729   2.738   2.439   5.769  2.0306 -1.1237 -0.1066
  174SLPC   H7Y19730   2.886   2.532   5.749 -0.4648 -0.6870 -0.0449
  174SLPC   C3819731   2.716   2.604   5.633  0.2272 -0.0591 -0.9434
  174SLPC   H8X19732   2.781   2.695   5.624 -0.1016  0.2098 -0.6344
  174SLPC   H8Y19733   2.613   2.644   5.648 -0.8595 -3.3727  1.4396
  174SLPC   C3919734   2.727   2.511   5.505 -0.1974  0.6061  0.3009
  174SLPC   H9X19735   2.646   2.435   5.506  1.7349 -1.5919 -0.8924
  174SLPC   H9Y19736   2.827   2.463   5.513 -0.5043  0.0091  0.6366
  174SLPC  C31019737   2.728   2.590   5.372  0.4919  0.0498  0.4412
  174SLPC  H10X19738   2.825   2.644   5.372  2.5246 -3.2409 -1.6330
  174SLPC  H10Y19739   2.650   2.668   5.359  0.7698  0.1778 -0.5383
  174SLPC  C31119740   2.733   2.492   5.255 -0.3404  0.2499  0.8212
  174SLPC  H11X19741   2.638   2.437   5.234  0.8513 -1.8218  0.5999
  174SLPC  H11Y19742   2.805   2.416   5.292 -0.1518  0.0386  0.0342
  174SLPC  C31219743   2.796   2.549   5.124 -0.2983  0.6028 -0.5011
  174SLPC  H12X19744   2.884   2.615   5.139 -0.6628  0.9413  0.2054
  174SLPC  H12Y19745   2.711   2.610   5.086 -0.2168  0.9276 -0.1727
  174SLPC  C31319746   2.846   2.447   5.018 -0.2221 -0.0339 -0.2281
  174SLPC  H13X19747   2.930   2.394   5.068  0.3766 -0.4653 -1.6452
  174SLPC  H13Y19748   2.886   2.497   4.927 -1.2014  0.2387 -0.5147
  174SLPC  C31419749   2.737   2.334   4.992 -0.3481 -0.1033  0.1574
  174SLPC  H14X19750   2.645   2.385   4.959 -0.1343 -0.4402 -0.9996
  174SLPC  H14Y19751   2.712   2.278   5.084 -0.6946 -0.4485 -0.1486
  174SLPC  C31519752   2.777   2.237   4.876  0.0499 -0.3104  0.6394
  174SLPC  H15X19753   2.853   2.165   4.912 -1.0272 -1.7846  0.0826
  174SLPC  H15Y19754   2.822   2.308   4.804 -1.3731 -0.0797 -0.0724
  174SLPC  C31619755   2.653   2.166   4.818 -0.3406 -0.1646 -1.0527
  174SLPC  H16X19756   2.586   2.230   4.757 -1.3919 -0.3006 -0.0603
  174SLPC  H16Y19757   2.595   2.124   4.903  0.4761  2.1716  0.7637
  174SLPC  C31719758   2.697   2.050   4.731 -0.6095 -0.0453  0.5333
  174SLPC  H17X19759   2.615   1.976   4.717  0.7165 -1.3034 -0.8459
  174SLPC  H17Y19760   2.785   1.998   4.775 -1.7238 -3.1497 -0.6619
  174SLPC  C31819761   2.730   2.087   4.587 -0.0337 -0.0153  0.3283
  174SLPC  H18X19762   2.723   2.000   4.519 -2.1942 -0.4915  1.0718
  174SLPC  H18Y19763   2.820   2.150   4.570 -0.4727  0.3291 -0.8221
  174SLPC  H18Z19764   2.648   2.156   4.556 -1.1601 -0.9771  1.1078
  175SLPC     N19765   5.261   2.954   7.155 -0.2117 -0.3408  0.2503
  175SLPC   C1319766   5.134   2.922   7.231 -0.4478 -1.0819  0.0629
  175SLPC  H13A19767   5.141   2.832   7.291  0.4506 -1.3328 -0.4071
  175SLPC  H13B19768   5.105   3.005   7.294 -0.9534 -0.4157 -1.0268
  175SLPC  H13C19769   5.051   2.910   7.163 -0.0307  2.9306 -1.4116
  175SLPC   C1419770   5.317   2.829   7.105 -0.3222 -0.4440 -0.6653
  175SLPC  H14A19771   5.269   2.805   7.011 -0.5772 -1.9763 -0.1860
  175SLPC  H14B19772   5.421   2.841   7.075 -0.3499  0.1866 -0.5117
  175SLPC  H14C19773   5.307   2.745   7.173  0.7113  1.2399  1.7056
  175SLPC   C1519774   5.361   3.006   7.257  0.1795 -0.8160 -0.3121
  175SLPC  H15A19775   5.336   3.110   7.275  1.0577 -0.2851 -1.9289
  175SLPC  H15B19776   5.366   2.941   7.342 -2.1097 -2.1455 -1.0984
  175SLPC  H15C19777   5.459   3.019   7.215 -0.4867  0.5780 -1.5397
  175SLPC   C1219778   5.238   3.060   7.050  0.5084 -0.4544  0.3810
  175SLPC  H12A19779   5.240   3.156   7.099  0.1916  0.2141 -0.8590
  175SLPC  H12B19780   5.143   3.048   7.000 -0.8009 -3.1887  3.2028
  175SLPC   C1119781   5.332   3.060   6.924  0.2882  0.1548  0.3545
  175SLPC  H11A19782   5.301   3.147   6.862  0.6186 -0.6143 -0.9194
  175SLPC  H11B19783   5.326   2.968   6.862 -0.2301  0.5794 -0.2414
  175SLPC     P19784   5.592   3.020   6.898 -0.2393  0.0954  0.5231
  175SLPC   O1319785   5.714   3.075   6.962 -0.2488  0.1178  0.3439
  175SLPC   O1419786   5.565   2.872   6.895 -0.2351 -0.5191  0.3351
  175SLPC   O1219787   5.469   3.085   6.967 -0.6288 -0.0390 -0.0322
  175SLPC   O1119788   5.592   3.063   6.747  0.1428  0.4089  0.4816
  175SLPC    C119789   5.536   2.976   6.647  0.2957  1.0732  0.1219
  175SLPC    HA19790   5.614   2.901   6.622 -3.9840 -3.0655 -2.5674
  175SLPC    HB19791   5.445   2.924   6.686  1.3912 -0.2150  1.0709
  175SLPC    C219792   5.497   3.051   6.518 -0.2948 -0.4315  0.0553
  175SLPC    HS19793   5.441   2.994   6.440 -1.0772 -0.6306  0.7417
  175SLPC   O2119794   5.614   3.109   6.454  0.2197 -0.1625 -0.0247
  175SLPC   C2119795   5.683   3.021   6.383 -0.4905  0.4242 -0.6734
  175SLPC   O2219796   5.653   2.903   6.364 -0.3210  0.1295  0.5747
  175SLPC   C2219797   5.808   3.080   6.326  0.4400 -0.5312  0.0954
  175SLPC   H2R19798   5.800   3.191   6.328 -2.2260 -0.6702  1.5247
  175SLPC   H2S19799   5.882   3.053   6.405 -0.1608 -2.1853  0.1218
  175SLPC    C319800   5.393   3.158   6.556  0.4868 -0.0439 -0.3492
  175SLPC    HX19801   5.432   3.216   6.642 -0.6712  1.1620 -0.6133
  175SLPC    HY19802   5.310   3.109   6.611  0.7375  1.8540  1.8560
  175SLPC   O3119803   5.347   3.232   6.446 -0.0984  0.6064  0.1123
  175SLPC   C3119804   5.395   3.356   6.438 -0.0081  0.1276 -1.0086
  175SLPC   O3219805   5.469   3.407   6.515  0.4494 -0.0046 -0.4056
  175SLPC   C3219806   5.324   3.424   6.318  0.2640  0.1535 -0.7646
  175SLPC   H2X19807   5.297   3.526   6.351  1.6419 -0.2905  1.9868
  175SLPC   H2Y19808   5.238   3.358   6.293 -0.0757  0.0552  0.6297
  175SLPC   C2319809   5.861   3.019   6.186  0.5354  0.1528  0.0380
  175SLPC   H3R19810   5.860   2.909   6.198  0.6953  0.1639  0.1557
  175SLPC   H3S19811   5.965   3.056   6.169 -0.4210  3.3618  0.5467
  175SLPC   C2419812   5.786   3.053   6.056  0.4053 -0.0660  0.1742
  175SLPC   H4R19813   5.755   3.160   6.058  1.3131  0.2508 -1.2697
  175SLPC   H4S19814   5.687   3.003   6.047 -0.6644  2.0622 -0.8810
  175SLPC   C2519815   5.882   3.051   5.937  0.0391  0.0975 -0.7772
  175SLPC   H5R19816   5.941   2.958   5.948 -0.0547  0.1244  0.0891
  175SLPC   H5S19817   5.950   3.139   5.942 -1.5822  1.4044 -0.6872
  175SLPC   C2619818   5.805   3.050   5.807 -0.1781 -0.0600 -0.4549
  175SLPC   H6R19819   5.756   3.149   5.796 -0.1179 -0.1283 -1.4807
  175SLPC   H6S19820   5.727   2.971   5.795 -2.0329  1.5344  0.4601
  175SLPC   C2719821   5.906   3.035   5.690  0.1927  0.0309  1.0373
  175SLPC   H7R19822   5.954   2.935   5.691  1.2943  0.4886 -1.0843
  175SLPC   H7S19823   5.992   3.103   5.710  1.0514 -0.2650 -1.3691
  175SLPC   C2819824   5.856   3.056   5.547 -0.2905 -0.3517 -0.1737
  175SLPC   H8R19825   5.774   2.982   5.535  1.3272 -2.2097 -0.2741
  175SLPC   H8S19826   5.932   3.015   5.478  1.3076  0.8065  0.8098
  175SLPC   C2919827   5.801   3.196   5.518 -0.3450  0.8407 -0.1850
  175SLPC   H9R19828   5.726   3.227   5.592 -1.1448 -0.8806 -0.2229
  175SLPC  C21019829   5.835   3.267   5.405  0.1554 -0.1874  0.6044
  175SLPC  H10R19830   5.787   3.364   5.387  1.2705 -0.0316 -1.9147
  175SLPC  C21119831   5.930   3.227   5.292 -0.8394 -0.5056  0.2001
  175SLPC  H11R19832   6.025   3.182   5.326  0.3046  0.8564 -1.0782
  175SLPC  H11S19833   5.980   3.313   5.242  0.1960  0.4866  2.7674
  175SLPC  C21219834   5.865   3.134   5.192 -0.9142  0.7303  0.3473
  175SLPC  H12R19835   5.824   3.039   5.231  2.0534 -1.1189 -0.7395
  175SLPC  C21319836   5.867   3.166   5.062  0.5548 -0.4916  0.0528
  175SLPC  H13R19837   5.809   3.090   5.008 -0.8935 -0.2037  1.1440
  175SLPC  C21419838   5.921   3.286   4.991  0.4189  0.1765 -0.2072
  175SLPC  H14R19839   6.028   3.309   5.010  0.3683  1.8159 -1.6121
  175SLPC  H14S19840   5.858   3.373   5.017  1.9252  1.1763  0.2151
  175SLPC  C21519841   5.914   3.272   4.839 -0.3219  0.2856  0.6207
  175SLPC  H15R19842   5.980   3.194   4.797  0.0117  0.9380 -0.0951
  175SLPC  H15S19843   5.953   3.370   4.805 -0.2477 -0.7053 -2.4255
  175SLPC  C21619844   5.769   3.266   4.781  0.5818  0.0548 -0.7090
  175SLPC  H16R19845   5.702   3.325   4.848  0.1159 -1.4617  0.2081
  175SLPC  H16S19846   5.743   3.158   4.784  1.5557 -0.1787  1.3960
  175SLPC  C21719847   5.750   3.325   4.639 -0.6009 -0.1141  0.3056
  175SLPC  H17R19848   5.802   3.248   4.579 -0.9889  0.8607 -1.3366
  175SLPC  H17S19849   5.791   3.426   4.617 -3.8940  0.9476 -1.6794
  175SLPC  C21819850   5.601   3.339   4.603  0.7466  0.2791  0.0136
  175SLPC  H18R19851   5.553   3.242   4.577  2.5008 -0.5731 -0.2072
  175SLPC  H18S19852   5.590   3.403   4.513  0.5994 -1.0693 -0.9686
  175SLPC  H18T19853   5.553   3.372   4.698  2.2595  0.6512  0.6762
  175SLPC   C3319854   5.405   3.453   6.187  0.8013 -0.8966 -1.2601
  175SLPC   H3X19855   5.476   3.538   6.194  0.0712  0.0483 -4.0956
  175SLPC   H3Y19856   5.326   3.481   6.114 -0.0770 -1.0666 -0.4148
  175SLPC   C3419857   5.492   3.335   6.147 -0.5254 -0.3343  0.0664
  175SLPC   H4X19858   5.575   3.324   6.221  0.4171  0.3518 -0.8656
  175SLPC   H4Y19859   5.537   3.364   6.050 -2.3713  0.6588 -0.5338
  175SLPC   C3519860   5.427   3.200   6.116  0.6059  0.4043  0.5417
  175SLPC   H5X19861   5.368   3.167   6.204  0.4940  0.0562  0.3375
  175SLPC   H5Y19862   5.508   3.124   6.116  0.5737  0.2452 -2.7135
  175SLPC   C3619863   5.350   3.195   5.986  0.5270  0.5967 -0.6152
  175SLPC   H6X19864   5.275   3.276   5.995 -0.1305  0.0890 -1.3682
  175SLPC   H6Y19865   5.287   3.104   5.999  0.7490  0.6951  1.4788
  175SLPC   C3719866   5.425   3.183   5.854  0.4791  0.0673 -0.3448
  175SLPC   H7X19867   5.473   3.083   5.853 -1.1944 -0.7701 -1.4159
  175SLPC   H7Y19868   5.493   3.270   5.864 -1.1157  1.6278 -2.1072
  175SLPC   C3819869   5.321   3.196   5.744 -1.1260  0.1043  0.7247
  175SLPC   H8X19870   5.284   3.299   5.722 -0.9212 -0.2902 -1.7310
  175SLPC   H8Y19871   5.236   3.126   5.754 -1.5751  0.4551 -0.4271
  175SLPC   C3919872   5.389   3.172   5.604 -0.4620 -0.4483  0.4543
  175SLPC   H9X19873   5.439   3.073   5.612 -3.7599 -2.1385  2.5485
  175SLPC   H9Y19874   5.474   3.242   5.588 -1.6996  0.6319 -2.0451
  175SLPC  C31019875   5.285   3.171   5.487  0.5693 -0.3877  0.5669
  175SLPC  H10X19876   5.210   3.249   5.512 -1.4655 -2.1175  0.1864
  175SLPC  H10Y19877   5.229   3.075   5.494 -1.7008  0.5481 -2.4240
  175SLPC  C31119878   5.338   3.166   5.339  1.0874  0.3650 -0.1407
  175SLPC  H11X19879   5.264   3.120   5.270  0.8430 -1.5945  1.3362
  175SLPC  H11Y19880   5.435   3.113   5.327  1.1669  1.1284 -3.9378
  175SLPC  C31219881   5.360   3.301   5.269  0.4675  0.3658 -0.3876
  175SLPC  H12X19882   5.397   3.377   5.341 -1.1890  0.8734 -0.0070
  175SLPC  H12Y19883   5.261   3.337   5.234 -1.4378 -2.6507  1.3625
  175SLPC  C31319884   5.470   3.293   5.160 -0.8637  0.7153 -0.0851
  175SLPC  H13X19885   5.542   3.209   5.172 -2.5128 -0.5520  1.3719
  175SLPC  H13Y19886   5.525   3.390   5.158  0.8920 -0.2125  0.8363
  175SLPC  C31419887   5.413   3.263   5.020 -0.0777 -0.2163 -0.2291
  175SLPC  H14X19888   5.493   3.286   4.946 -0.1878  1.1067  0.0322
  175SLPC  H14Y19889   5.327   3.332   5.006  2.0033  2.6717  0.4028
  175SLPC  C31519890   5.373   3.116   4.988 -0.0526 -0.0313  0.0635
  175SLPC  H15X19891   5.284   3.086   5.048  0.0228 -1.8288 -0.6642
  175SLPC  H15Y19892   5.459   3.050   5.011  1.1225  1.7014  0.8679
  175SLPC  C31619893   5.335   3.101   4.844 -0.1817 -0.1022  0.2978
  175SLPC  H16X19894   5.405   3.151   4.774  0.2704 -0.2103  0.6743
  175SLPC  H16Y19895   5.233   3.145   4.838 -0.7533 -1.3041  0.8932
  175SLPC  C31719896   5.322   2.959   4.791 -0.2460  0.4376 -0.3892
  175SLPC  H17X19897   5.418   2.903   4.796 -2.2251 -3.2139  0.2145
  175SLPC  H17Y19898   5.294   2.978   4.686 -3.2270 -1.2611 -0.0076
  175SLPC  C31819899   5.212   2.876   4.858  0.4706  0.4886  0.0919
  175SLPC  H18X19900   5.114   2.927   4.858  1.1547  1.9010 -1.4571
  175SLPC  H18Y19901   5.248   2.838   4.956  2.7738 -0.6651 -1.1295
  175SLPC  H18Z19902   5.195   2.782   4.801 -1.1434  1.7734 -1.6469
  176SLPC     N19903   5.770   1.611   6.763  0.1046 -0.1524 -0.0403
  176SLPC   C1319904   5.854   1.684   6.663  0.4358 -0.2394 -0.3100
  176SLPC  H13A19905   5.805   1.696   6.567  1.0159  2.4102 -0.3590
  176SLPC  H13B19906   5.898   1.775   6.700  4.1274 -1.9036 -0.1529
  176SLPC  H13C19907   5.942   1.622   6.650 -0.1929 -1.1389 -0.3172
  176SLPC   C1419908   5.673   1.714   6.826 -0.2283  0.1629  0.1448
  176SLPC  H14A19909   5.611   1.756   6.748  0.5398  0.6487 -0.2235
  176SLPC  H14B19910   5.618   1.664   6.903  0.9071  0.2933  1.0784
  176SLPC  H14C19911   5.725   1.800   6.866  2.2429 -0.6386 -1.1086
  176SLPC   C1519912   5.843   1.556   6.880 -0.7699  0.5337  0.0198
  176SLPC  H15A19913   5.782   1.521   6.962  0.0068 -1.2333 -0.1064
  176SLPC  H15B19914   5.919   1.482   6.860 -0.9805  0.5436 -0.8591
  176SLPC  H15C19915   5.907   1.631   6.925 -0.9741  0.4779  0.4137
  176SLPC   C1219916   5.691   1.500   6.699  0.0054 -0.4071  0.1095
  176SLPC  H12A19917   5.748   1.417   6.660 -2.3910 -2.7073  1.1432
  176SLPC  H12B19918   5.642   1.535   6.609 -0.0389 -2.0308 -0.5477
  176SLPC   C1119919   5.580   1.430   6.780  0.0106 -0.6336  0.1421
  176SLPC  H11A19920   5.615   1.369   6.866  1.2023  0.5895  0.5558
  176SLPC  H11B19921   5.536   1.351   6.715 -4.2084  0.1566  1.7308
  176SLPC     P19922   5.329   1.500   6.777  0.0262  0.3222  0.4257
  176SLPC   O1319923   5.283   1.359   6.791  0.6070 -0.2669 -0.0015
  176SLPC   O1419924   5.240   1.606   6.829  0.6196  0.0545  0.0287
  176SLPC   O1219925   5.475   1.520   6.829  0.1295 -0.0094  0.2273
  176SLPC   O1119926   5.361   1.535   6.628 -0.0980 -0.4942 -0.0916
  176SLPC    C119927   5.245   1.542   6.539 -1.0085  0.0572  0.1220
  176SLPC    HA19928   5.159   1.473   6.554 -0.4852 -1.5061 -3.1074
  176SLPC    HB19929   5.208   1.646   6.527  0.8592  0.5554 -2.2410
  176SLPC    C219930   5.297   1.481   6.405  0.1980 -0.4190  0.0947
  176SLPC    HS19931   5.384   1.541   6.370  0.1566 -0.9214 -0.9167
  176SLPC   O2119932   5.186   1.483   6.308  0.1915 -0.0394  0.0723
  176SLPC   C2119933   5.156   1.611   6.273 -0.2049  0.0669 -0.3641
  176SLPC   O2219934   5.215   1.705   6.306  0.1392 -0.1168 -0.1367
  176SLPC   C2219935   5.044   1.618   6.175 -0.1374 -0.3311  0.1734
  176SLPC   H2R19936   4.955   1.585   6.233  0.5875  0.0377  1.5496
  176SLPC   H2S19937   5.008   1.721   6.151 -0.6145  0.0473  2.3105
  176SLPC    C319938   5.350   1.333   6.430 -0.4029  0.6376 -0.0665
  176SLPC    HX19939   5.284   1.293   6.510  0.3971 -0.1448  0.2127
  176SLPC    HY19940   5.444   1.332   6.490 -0.7218  1.4838  0.4740
  176SLPC   O3119941   5.353   1.243   6.324 -0.4431  0.4955 -0.3054
  176SLPC   C3119942   5.442   1.270   6.220  0.3094  0.4392  0.3402
  176SLPC   O3219943   5.519   1.364   6.213  0.1772  0.0910  0.3707
  176SLPC   C3219944   5.419   1.172   6.109  0.1898 -0.1646 -0.0971
  176SLPC   H2X19945   5.341   1.223   6.049  0.1177 -0.4717 -0.2645
  176SLPC   H2Y19946   5.375   1.083   6.158  0.9534 -1.3320 -1.4715
  176SLPC   C2319947   5.061   1.524   6.055 -0.1005 -0.3291  0.2665
  176SLPC   H3R19948   4.962   1.510   6.008 -0.6932  0.3800  1.2717
  176SLPC   H3S19949   5.088   1.423   6.093 -0.5760 -0.7782 -0.5499
  176SLPC   C2419950   5.158   1.571   5.950 -0.6534  0.2055  0.0742
  176SLPC   H4R19951   5.190   1.493   5.878  1.4702  1.6563 -0.6415
  176SLPC   H4S19952   5.251   1.595   6.006  0.3319  0.4517 -1.6155
  176SLPC   C2519953   5.127   1.700   5.872  0.5645  0.1720  0.0000
  176SLPC   H5R19954   5.147   1.784   5.942  1.5018  0.1500 -0.2331
  176SLPC   H5S19955   5.019   1.695   5.845  0.4690 -0.9295  0.5514
  176SLPC   C2619956   5.203   1.706   5.746  0.5164  0.4363  0.0335
  176SLPC   H6R19957   5.163   1.620   5.687 -0.2189  1.2092 -0.6353
  176SLPC   H6S19958   5.310   1.683   5.765  1.0509  1.1892 -1.7886
  176SLPC   C2719959   5.175   1.840   5.667 -0.4797  0.5816  0.9285
  176SLPC   H7R19960   5.231   1.920   5.721  3.9867 -0.0667 -2.1735
  176SLPC   H7S19961   5.067   1.857   5.649 -0.0193  2.3298 -0.3487
  176SLPC   C2819962   5.252   1.846   5.531 -0.8424 -0.1986 -0.1712
  176SLPC   H8R19963   5.361   1.840   5.550 -0.1934  1.3857 -2.8369
  176SLPC   H8S19964   5.231   1.947   5.490  0.1949 -0.0738 -0.4151
  176SLPC   C2919965   5.208   1.747   5.429  0.5321 -0.3684 -0.5684
  176SLPC   H9R19966   5.212   1.644   5.469 -0.5233 -0.8740 -1.6920
  176SLPC  C21019967   5.171   1.765   5.300  0.3150  0.1406 -0.5909
  176SLPC  H10R19968   5.151   1.673   5.245 -0.3158 -1.2969  1.8899
  176SLPC  C21119969   5.176   1.891   5.216 -0.0478 -0.5260  0.8905
  176SLPC  H11R19970   5.159   1.984   5.274  0.1188 -0.7072  1.2323
  176SLPC  H11S19971   5.095   1.888   5.139 -0.3701 -0.9821  1.2426
  176SLPC  C21219972   5.314   1.899   5.158  0.3343 -0.0993  1.2577
  176SLPC  H12R19973   5.385   1.946   5.228 -0.1774  1.6600  0.6523
  176SLPC  C21319974   5.345   1.868   5.027 -0.7881  0.2722 -0.0892
  176SLPC  H13R19975   5.450   1.861   4.996 -0.6109  1.0093  0.3351
  176SLPC  C21419976   5.262   1.815   4.915 -0.1348  0.4606  0.3861
  176SLPC  H14R19977   5.165   1.770   4.947 -0.7565 -1.6583 -3.8052
  176SLPC  H14S19978   5.306   1.727   4.864 -0.6063  1.1099 -1.2000
  176SLPC  C21519979   5.218   1.931   4.817 -0.3666  0.5430 -0.4549
  176SLPC  H15R19980   5.161   2.015   4.861 -1.7084 -1.0101  0.9190
  176SLPC  H15S19981   5.146   1.889   4.744 -3.2300  2.9546  0.7695
  176SLPC  C21619982   5.339   1.978   4.743 -0.6822 -0.7922  0.0788
  176SLPC  H16R19983   5.381   1.893   4.685 -1.1880 -0.1729 -1.2424
  176SLPC  H16S19984   5.409   2.028   4.813 -0.8336  0.6622 -0.7729
  176SLPC  C21719985   5.295   2.081   4.642 -0.0285 -0.6082  0.2073
  176SLPC  H17R19986   5.242   2.166   4.691 -2.9608 -0.8509 -2.2239
  176SLPC  H17S19987   5.218   2.040   4.573 -0.7708  2.9998 -1.3574
  176SLPC  C21819988   5.416   2.121   4.557  0.3428 -0.3432 -0.0635
  176SLPC  H18R19989   5.496   2.172   4.614 -0.6126  0.7458  0.3407
  176SLPC  H18S19990   5.399   2.189   4.472  1.1897 -1.4076 -1.1130
  176SLPC  H18T19991   5.461   2.025   4.524 -0.5244 -1.2192  1.1954
  176SLPC   C3319992   5.537   1.151   6.020 -0.2076 -0.4581  0.1452
  176SLPC   H3X19993   5.627   1.122   6.078  1.8913 -2.9130 -3.8721
  176SLPC   H3Y19994   5.574   1.248   5.980 -2.4645  0.1139 -0.6606
  176SLPC   C3419995   5.525   1.042   5.909 -0.2298  0.6758 -0.2765
  176SLPC   H4X19996   5.473   0.960   5.963  0.3250  0.5425  0.0632
  176SLPC   H4Y19997   5.621   1.005   5.867 -0.8135 -0.3708 -0.7097
  176SLPC   C3519998   5.417   1.076   5.800  0.2036 -0.0754 -0.2748
  176SLPC   H5X19999   5.318   1.079   5.851  1.1965 -2.1197  1.9736
  176SLPC   H5Y20000   5.419   0.991   5.729 -0.3722  0.3901 -0.8568
  176SLPC   C3620001   5.438   1.215   5.735 -0.8536  0.2887  0.2636
  176SLPC   H6X20002   5.542   1.222   5.698 -1.3914  1.3707 -1.1315
  176SLPC   H6Y20003   5.433   1.301   5.804 -0.1279 -1.2744  2.3800
  176SLPC   C3720004   5.346   1.232   5.613 -0.5056 -0.3557 -0.0064
  176SLPC   H7X20005   5.305   1.132   5.589 -1.2061  0.1961 -1.2007
  176SLPC   H7Y20006   5.394   1.275   5.522 -3.8863 -1.0327 -2.2946
  176SLPC   C3820007   5.226   1.311   5.660  0.7430  0.0007 -0.4772
  176SLPC   H8X20008   5.248   1.418   5.682  0.4614  0.0988 -0.6550
  176SLPC   H8Y20009   5.186   1.258   5.749  1.8888 -2.0308 -1.1157
  176SLPC   C3920010   5.111   1.287   5.558 -0.0880  0.4311  0.8453
  176SLPC   H9X20011   5.024   1.331   5.612  1.0856  0.9006  2.4466
  176SLPC   H9Y20012   5.092   1.177   5.556 -1.9844  0.7347 -0.7544
  176SLPC  C31020013   5.130   1.347   5.416 -0.2658  0.2846  0.9146
  176SLPC  H10X20014   5.207   1.427   5.419 -0.1397  0.2081  4.4610
  176SLPC  H10Y20015   5.031   1.388   5.387  0.2351  0.5384 -0.4980
  176SLPC  C31120016   5.146   1.236   5.311  0.2649 -0.6891 -0.6899
  176SLPC  H11X20017   5.069   1.156   5.316 -0.2550 -0.1149  1.8388
  176SLPC  H11Y20018   5.245   1.188   5.327  0.2303 -0.7141 -0.5491
  176SLPC  C31220019   5.137   1.305   5.176 -0.3312 -0.6094 -0.1894
  176SLPC  H12X20020   5.204   1.394   5.176 -2.7870  1.3579 -0.7064
  176SLPC  H12Y20021   5.040   1.359   5.170  1.7189  3.5723  0.1202
  176SLPC  C31320022   5.167   1.209   5.060  0.5805  0.2795 -0.1364
  176SLPC  H13X20023   5.103   1.120   5.077  2.3016 -1.2764 -1.3502
  176SLPC  H13Y20024   5.269   1.164   5.067  0.2187 -0.4266  0.6843
  176SLPC  C31420025   5.134   1.284   4.925 -0.2120  0.2232  0.2082
  176SLPC  H14X20026   5.207   1.368   4.924  2.4313 -1.9195 -0.4667
  176SLPC  H14Y20027   5.029   1.317   4.914  0.0470  0.1334 -6.7870
  176SLPC  C31520028   5.139   1.191   4.800 -0.7202 -0.6955 -0.2387
  176SLPC  H15X20029   5.063   1.110   4.802  0.6608 -2.1109 -1.8237
  176SLPC  H15Y20030   5.238   1.142   4.804  0.3476  1.4662  2.2213
  176SLPC  C31620031   5.111   1.276   4.678  0.4620 -0.5351 -0.7316
  176SLPC  H16X20032   5.206   1.332   4.671  1.5201 -2.0959  0.2405
  176SLPC  H16Y20033   5.012   1.324   4.692  1.5119  0.8148  3.4332
  176SLPC  C31720034   5.114   1.194   4.550  0.3048 -0.3807 -0.1668
  176SLPC  H17X20035   5.021   1.135   4.534  0.5995 -1.0513  0.5112
  176SLPC  H17Y20036   5.207   1.134   4.553  0.7416  0.3197  2.3426
  176SLPC  C31820037   5.114   1.286   4.422  0.0111  0.3574  0.0313
  176SLPC  H18X20038   5.030   1.359   4.420 -1.8081 -1.5365  2.0652
  176SLPC  H18Y20039   5.121   1.215   4.337  1.8590 -0.5047  0.8390
  176SLPC  H18Z20040   5.208   1.345   4.420  1.1966 -1.4056  0.8329
  177SLPC     N20041   5.223   2.350   7.453  0.5220 -0.1587  0.5199
  177SLPC   C1320042   5.247   2.199   7.427  0.4552 -0.3449  0.4724
  177SLPC  H13A20043   5.155   2.142   7.435  0.7754 -1.1238 -1.0240
  177SLPC  H13B20044   5.269   2.187   7.322 -1.0450  2.2431 -0.2379
  177SLPC  H13C20045   5.325   2.165   7.493 -0.3259 -1.8278  0.6862
  177SLPC   C1420046   5.355   2.423   7.462 -0.3612  0.2797  0.1479
  177SLPC  H14A20047   5.410   2.402   7.552  0.2509  3.6509  0.6721
  177SLPC  H14B20048   5.428   2.413   7.384  1.5838 -3.4532  2.1747
  177SLPC  H14C20049   5.327   2.523   7.491 -1.3873 -0.1698  0.7922
  177SLPC   C1520050   5.148   2.370   7.578 -0.4722  0.1253 -0.7479
  177SLPC  H15A20051   5.145   2.477   7.592  0.3892  0.0972 -0.3259
  177SLPC  H15B20052   5.049   2.326   7.571  0.4068 -2.7046  2.2469
  177SLPC  H15C20053   5.187   2.318   7.664 -1.6775  1.9059  0.9513
  177SLPC   C1220054   5.145   2.420   7.339 -0.1735  0.4229 -0.4884
  177SLPC  H12A20055   5.134   2.522   7.371 -0.6079 -0.0112  0.7832
  177SLPC  H12B20056   5.048   2.374   7.346 -0.1393  0.4639  0.3951
  177SLPC   C1120057   5.203   2.416   7.194  0.5458  0.3499  0.3828
  177SLPC  H11A20058   5.307   2.454   7.182  0.4686 -0.0406 -2.1335
  177SLPC  H11B20059   5.143   2.483   7.129  0.4042 -1.3645 -1.3615
  177SLPC     P20060   5.065   2.223   7.092 -0.1311 -0.0214 -0.0983
  177SLPC   O1320061   5.046   2.087   7.147  0.3229 -0.2877  0.0342
  177SLPC   O1420062   4.956   2.317   7.116  0.0051  0.1772 -0.1523
  177SLPC   O1220063   5.198   2.284   7.141  0.3283 -0.2746  0.5739
  177SLPC   O1120064   5.092   2.202   6.941 -1.0011 -0.2692  0.1260
  177SLPC    C120065   5.165   2.301   6.860 -0.2081 -0.2665 -0.0636
  177SLPC    HA20066   5.238   2.366   6.912  0.6986 -0.3711 -1.1740
  177SLPC    HB20067   5.223   2.246   6.783 -2.5163 -0.8941 -1.4496
  177SLPC    C220068   5.066   2.404   6.790 -0.3258  0.3014  0.1937
  177SLPC    HS20069   5.012   2.465   6.866 -0.7689  0.7820 -0.5007
  177SLPC   O2120070   4.984   2.318   6.709  0.7196 -0.4526 -0.3869
  177SLPC   C2120071   4.856   2.361   6.695  0.2800 -0.1624  0.0351
  177SLPC   O2220072   4.810   2.467   6.736 -0.2220  0.2914  0.9455
  177SLPC   C2220073   4.769   2.252   6.630 -0.2185  0.7481  0.3015
  177SLPC   H2R20074   4.756   2.163   6.695 -2.5482 -0.0311 -1.0858
  177SLPC   H2S20075   4.668   2.298   6.616 -1.0349 -1.0811 -0.1243
  177SLPC    C320076   5.145   2.498   6.694  0.5559  0.2703 -0.1968
  177SLPC    HX20077   5.206   2.578   6.739  0.1823  0.3769  0.1217
  177SLPC    HY20078   5.061   2.558   6.652 -0.6200  0.2003  1.8943
  177SLPC   O3120079   5.229   2.431   6.601 -0.0005  0.0822  0.0551
  177SLPC   C3120080   5.171   2.400   6.490 -0.4526 -0.1927  0.1243
  177SLPC   O3220081   5.080   2.461   6.432  0.0479 -0.1211 -0.4139
  177SLPC   C3220082   5.244   2.279   6.428  0.5949 -0.1125  0.1863
  177SLPC   H2X20083   5.249   2.189   6.493 -1.7343 -0.5028 -0.0859
  177SLPC   H2Y20084   5.347   2.320   6.418  0.0809  1.0351 -0.6202
  177SLPC   C2320085   4.811   2.219   6.485  0.0973 -0.3760 -0.3823
  177SLPC   H3R20086   4.889   2.141   6.504  1.7133  0.8622 -1.6516
  177SLPC   H3S20087   4.856   2.308   6.437  0.9631  0.5268  1.9347
  177SLPC   C2420088   4.712   2.152   6.393  0.3273  0.0618  0.1174
  177SLPC   H4R20089   4.637   2.226   6.356  0.2603 -0.2773 -0.4482
  177SLPC   H4S20090   4.663   2.064   6.440  1.6477  0.4211  2.3077
  177SLPC   C2520091   4.788   2.085   6.275  0.7404  0.2145  0.0786
  177SLPC   H5R20092   4.869   2.030   6.328 -1.3461 -2.1993  0.9953
  177SLPC   H5S20093   4.829   2.168   6.213  0.8195  1.9879  2.3876
  177SLPC   C2620094   4.695   1.990   6.198  0.4545  0.5738  0.2107
  177SLPC   H6R20095   4.599   2.045   6.185  1.1786  1.7135 -0.4444
  177SLPC   H6S20096   4.672   1.898   6.256  0.0633 -0.2818 -1.2612
  177SLPC   C2720097   4.768   1.946   6.063 -0.5163  0.3640 -0.5192
  177SLPC   H7R20098   4.858   1.884   6.082 -0.8168 -0.3761 -1.4431
  177SLPC   H7S20099   4.808   2.039   6.015 -0.6718 -0.1350 -1.6586
  177SLPC   C2820100   4.672   1.882   5.956 -0.2354 -1.1346 -0.1264
  177SLPC   H8R20101   4.716   1.900   5.856  0.6291  0.8008  0.5530
  177SLPC   H8S20102   4.576   1.937   5.948  0.0985 -0.5487 -0.1754
  177SLPC   C2920103   4.658   1.736   5.986 -0.8496  0.0894  0.5636
  177SLPC   H9R20104   4.657   1.701   6.090  3.0842  0.8573  1.0238
  177SLPC  C21020105   4.660   1.629   5.898  0.4536 -0.9326  0.3994
  177SLPC  H10R20106   4.672   1.531   5.946  0.2837  1.1690  5.3675
  177SLPC  C21120107   4.670   1.634   5.749  0.3384 -0.2264  0.3670
  177SLPC  H11R20108   4.675   1.742   5.721 -0.7319 -0.7183 -1.9408
  177SLPC  H11S20109   4.567   1.601   5.727 -0.3749  1.0800  1.5232
  177SLPC  C21220110   4.778   1.562   5.673  0.0583 -0.1874 -0.4701
  177SLPC  H12R20111   4.832   1.481   5.723  0.5221 -0.6594 -1.6793
  177SLPC  C21320112   4.803   1.569   5.539  0.2607  0.2137 -0.3996
  177SLPC  H13R20113   4.894   1.531   5.489 -0.4309 -0.0500 -1.4922
  177SLPC  C21420114   4.731   1.653   5.440 -0.4682 -0.4080  0.9537
  177SLPC  H14R20115   4.682   1.735   5.498  1.0222  0.8769  0.4389
  177SLPC  H14S20116   4.645   1.591   5.404 -0.3664 -1.5076  2.4577
  177SLPC  C21520117   4.805   1.696   5.314  0.1173 -0.0572 -0.3988
  177SLPC  H15R20118   4.906   1.733   5.341  0.9769 -2.1224 -0.5830
  177SLPC  H15S20119   4.747   1.773   5.260  1.6725  1.9677  0.6810
  177SLPC  C21620120   4.832   1.569   5.230 -0.4548  0.3159  0.4843
  177SLPC  H16R20121   4.740   1.507   5.231 -0.9913  0.9813 -1.5971
  177SLPC  H16S20122   4.911   1.507   5.278 -1.0102 -2.2190 -1.6195
  177SLPC  C21720123   4.862   1.601   5.082  0.1005 -0.1057  0.4539
  177SLPC  H17R20124   4.921   1.516   5.039  0.5954 -0.6796  2.2045
  177SLPC  H17S20125   4.927   1.691   5.075  1.9130 -1.3410  0.6292
  177SLPC  C21820126   4.735   1.610   4.992 -0.0877  0.4307 -0.0471
  177SLPC  H18R20127   4.666   1.533   5.032 -0.1726  0.3946 -0.2665
  177SLPC  H18S20128   4.769   1.589   4.888  1.8457  1.9764  0.2100
  177SLPC  H18T20129   4.686   1.710   4.995 -0.9007  0.1838 -2.5819
  177SLPC   C3320130   5.191   2.239   6.290  0.0693  0.5694  1.0548
  177SLPC   H3X20131   5.208   2.324   6.221  0.8414 -0.0997  0.3893
  177SLPC   H3Y20132   5.085   2.208   6.299  0.3191 -1.1811 -1.1325
  177SLPC   C3420133   5.272   2.129   6.219  0.4221 -0.6785 -0.0934
  177SLPC   H4X20134   5.244   2.111   6.113 -0.0212 -2.2417  0.2568
  177SLPC   H4Y20135   5.242   2.031   6.262 -2.8671 -0.4578 -1.5527
  177SLPC   C3520136   5.422   2.122   6.238 -0.4122 -0.0930 -0.7307
  177SLPC   H5X20137   5.451   2.021   6.200  0.3127  0.2492 -1.1063
  177SLPC   H5Y20138   5.454   2.127   6.344 -0.4019  0.3506 -0.7526
  177SLPC   C3620139   5.498   2.237   6.170 -0.6439  0.7022 -0.2513
  177SLPC   H6X20140   5.487   2.340   6.212  0.9230  1.3238 -1.2662
  177SLPC   H6Y20141   5.461   2.242   6.066 -0.0081  0.8689 -0.4727
  177SLPC   C3720142   5.647   2.209   6.177  0.5028 -0.6764  0.2342
  177SLPC   H7X20143   5.662   2.099   6.180 -0.7645 -0.8726 -0.1087
  177SLPC   H7Y20144   5.683   2.246   6.275  0.5528 -3.1209  1.2027
  177SLPC   C3820145   5.722   2.268   6.058 -0.2845  0.4998  0.9214
  177SLPC   H8X20146   5.668   2.253   5.962  0.0424 -0.1343  0.8359
  177SLPC   H8Y20147   5.810   2.203   6.040 -0.3483  0.7689 -0.4420
  177SLPC   C3920148   5.763   2.411   6.069 -0.6412  0.1679  0.2233
  177SLPC   H9X20149   5.831   2.413   6.157 -0.3137 -1.8116  0.0792
  177SLPC   H9Y20150   5.674   2.477   6.073  0.0640  1.4588 -2.7925
  177SLPC  C31020151   5.852   2.462   5.949  0.1886 -0.1191 -0.5857
  177SLPC  H10X20152   5.943   2.398   5.937  1.6956  1.9903 -0.8852
  177SLPC  H10Y20153   5.889   2.566   5.956 -1.1261  0.3957 -1.1186
  177SLPC  C31120154   5.778   2.464   5.817 -0.0138 -0.1429 -0.2936
  177SLPC  H11X20155   5.678   2.511   5.832  0.4445  1.4443 -1.7751
  177SLPC  H11Y20156   5.765   2.361   5.778 -1.6729 -0.9579  2.1839
  177SLPC  C31220157   5.847   2.565   5.721  0.2641  1.0117 -0.3860
  177SLPC  H12X20158   5.956   2.540   5.719  0.2282  0.6515  1.1129
  177SLPC  H12Y20159   5.834   2.664   5.770  0.8299  1.2970 -0.7960
  177SLPC  C31320160   5.787   2.557   5.580  0.9779 -0.4211 -0.1932
  177SLPC  H13X20161   5.742   2.457   5.564  0.8065 -0.1591 -1.5170
  177SLPC  H13Y20162   5.880   2.567   5.520  1.1651  1.1958  0.3165
  177SLPC  C31420163   5.696   2.672   5.539 -0.2122  0.6275  0.2709
  177SLPC  H14X20164   5.737   2.767   5.580  0.5019 -0.1516  1.4071
  177SLPC  H14Y20165   5.596   2.650   5.583 -1.0088 -0.7085 -2.0281
  177SLPC  C31520166   5.671   2.692   5.387 -0.4111  0.3411 -1.0103
  177SLPC  H15X20167   5.626   2.598   5.351 -0.3280 -0.0207 -0.1953
  177SLPC  H15Y20168   5.773   2.701   5.343  0.0048  1.7871  0.1502
  177SLPC  C31620169   5.588   2.811   5.348 -0.0182  0.1411 -0.2345
  177SLPC  H16X20170   5.619   2.902   5.404 -1.0761  0.0000  0.6309
  177SLPC  H16Y20171   5.490   2.785   5.395  1.2304  0.3033  2.6735
  177SLPC  C31720172   5.572   2.844   5.202 -0.5072  0.3201 -0.6005
  177SLPC  H17X20173   5.678   2.845   5.168 -0.4469 -0.3043 -0.4455
  177SLPC  H17Y20174   5.519   2.937   5.175 -3.0482 -1.0878 -0.8057
  177SLPC  C31820175   5.489   2.736   5.140  0.2526  0.3731  0.2085
  177SLPC  H18X20176   5.459   2.771   5.039 -1.4029 -2.0889 -0.2516
  177SLPC  H18Y20177   5.390   2.719   5.189 -0.5132  0.1934 -1.3496
  177SLPC  H18Z20178   5.538   2.638   5.120 -1.2126 -0.2318 -0.5999
  178SLPC     N20179   2.374   5.916   7.069 -0.1745  0.5426 -0.2824
  178SLPC   C1320180   2.511   5.906   7.130 -0.0740  0.3766 -0.2856
  178SLPC  H13A20181   2.509   5.935   7.234  1.1018  0.4033 -0.2586
  178SLPC  H13B20182   2.547   5.804   7.136 -3.0340 -0.6937  1.5674
  178SLPC  H13C20183   2.582   5.971   7.081  1.3884 -1.0897 -0.2167
  178SLPC   C1420184   2.319   6.052   7.117  0.1722 -0.3506  0.4102
  178SLPC  H14A20185   2.385   6.125   7.073  0.4352 -0.4607  0.6200
  178SLPC  H14B20186   2.219   6.068   7.077  0.4940  0.8647  0.0525
  178SLPC  H14C20187   2.322   6.059   7.224  0.1061 -0.0154  0.3913
  178SLPC   C1520188   2.284   5.800   7.114 -0.6085  0.1929 -0.3129
  178SLPC  H15A20189   2.301   5.777   7.218  0.1238 -0.4461 -0.5655
  178SLPC  H15B20190   2.180   5.821   7.095 -0.6912  0.0453 -0.0275
  178SLPC  H15C20191   2.307   5.706   7.065 -0.5961 -0.1696  0.3744
  178SLPC   C1220192   2.385   5.922   6.919 -0.1278  0.2591 -0.3630
  178SLPC  H12A20193   2.393   5.816   6.898  0.3684  0.1493  0.3444
  178SLPC  H12B20194   2.476   5.973   6.890 -0.2976 -0.1424 -1.6491
  178SLPC   C1120195   2.260   5.972   6.845 -0.5051  0.5315  0.2926
  178SLPC  H11A20196   2.174   5.908   6.877  0.3982 -0.6332  0.4662
  178SLPC  H11B20197   2.285   5.955   6.738 -2.2526  3.1429 -0.6339
  178SLPC     P20198   2.101   6.178   6.803  0.1882  0.4531  0.2230
  178SLPC   O1320199   2.000   6.083   6.850 -0.0624 -0.3430 -0.3811
  178SLPC   O1420200   2.081   6.316   6.841 -0.5007 -0.2926  0.8390
  178SLPC   O1220201   2.240   6.115   6.854  0.1515  0.4202 -0.2604
  178SLPC   O1120202   2.116   6.162   6.644 -0.1307  0.0083  0.1117
  178SLPC    C120203   2.224   6.236   6.579  0.2796 -0.8812 -0.3209
  178SLPC    HA20204   2.278   6.295   6.656 -1.3726 -1.5034  1.4029
  178SLPC    HB20205   2.302   6.169   6.536  0.1341 -0.9645 -0.4544
  178SLPC    C220206   2.174   6.331   6.467  0.6284  0.1456 -0.3683
  178SLPC    HS20207   2.116   6.410   6.519 -1.0447 -1.9418  1.0986
  178SLPC   O2120208   2.108   6.255   6.368 -0.5569 -0.2879 -0.2832
  178SLPC   C2120209   2.004   6.317   6.322  0.2365  0.2266 -0.1261
  178SLPC   O2220210   1.951   6.415   6.372 -0.1278  0.0756 -0.1323
  178SLPC   C2220211   1.963   6.258   6.189 -0.0897  0.4223  0.2051
  178SLPC   H2R20212   2.054   6.210   6.147  0.3872  0.5620  1.0486
  178SLPC   H2S20213   1.868   6.201   6.186 -0.0978  0.3943  0.7848
  178SLPC    C320214   2.295   6.400   6.401 -0.2648 -0.0602 -0.3282
  178SLPC    HX20215   2.372   6.418   6.479 -1.1364  1.4053  0.2318
  178SLPC    HY20216   2.272   6.504   6.370  0.1640  0.8494  2.1929
  178SLPC   O3120217   2.358   6.331   6.293 -0.0875  0.1024  0.2310
  178SLPC   C3120218   2.308   6.355   6.172  0.3384  0.5756 -0.1737
  178SLPC   O3220219   2.227   6.439   6.143 -0.2696 -0.4666  0.7482
  178SLPC   C3220220   2.373   6.257   6.074 -0.4400  0.4233  0.4937
  178SLPC   H2X20221   2.364   6.153   6.112 -1.2380  0.1690 -0.3697
  178SLPC   H2Y20222   2.480   6.286   6.075 -0.0836 -0.8034 -0.1232
  178SLPC   C2320223   1.924   6.372   6.092  0.4595 -0.7723 -0.4483
  178SLPC   H3R20224   1.988   6.463   6.092 -3.1157  1.9704 -0.4103
  178SLPC   H3S20225   1.831   6.411   6.138  0.4973 -1.6156  0.3801
  178SLPC   C2420226   1.902   6.316   5.948 -0.1207  0.1058 -0.5930
  178SLPC   H4R20227   1.823   6.240   5.964 -2.4100  1.8639 -2.7948
  178SLPC   H4S20228   1.990   6.268   5.901  1.3815 -0.8353  2.8050
  178SLPC   C2520229   1.835   6.405   5.850 -1.2102 -0.2713 -0.2913
  178SLPC   H5R20230   1.767   6.481   5.895  1.6708  1.6254  1.1310
  178SLPC   H5S20231   1.789   6.348   5.767 -1.8321  0.5873 -0.5609
  178SLPC   C2620232   1.942   6.492   5.776  0.3437  0.9054 -0.1484
  178SLPC   H6R20233   2.020   6.423   5.738  0.9167  0.0105  2.4743
  178SLPC   H6S20234   1.987   6.557   5.854  0.5125  1.1592 -0.4555
  178SLPC   C2720235   1.890   6.570   5.664 -0.7969 -0.0568  0.2472
  178SLPC   H7R20236   1.815   6.627   5.722 -0.7823  1.7726 -1.4510
  178SLPC   H7S20237   1.832   6.499   5.601 -1.4485 -1.0728  1.9257
  178SLPC   C2820238   1.987   6.669   5.592  0.3160  0.0413  0.3717
  178SLPC   H8R20239   2.010   6.741   5.673 -1.5529 -0.7811  1.6836
  178SLPC   H8S20240   1.927   6.728   5.519  0.3395  1.4992  1.4890
  178SLPC   C2920241   2.112   6.607   5.532  0.5129  0.8787 -0.2644
  178SLPC   H9R20242   2.129   6.499   5.549 -0.1787  0.5642 -1.4238
  178SLPC  C21020243   2.178   6.656   5.426  0.3753 -0.1854 -0.3920
  178SLPC  H10R20244   2.268   6.607   5.387  2.4764  4.0265 -1.4390
  178SLPC  C21120245   2.174   6.795   5.376  0.5520 -0.2563  0.0671
  178SLPC  H11R20246   2.262   6.856   5.406 -0.2899  1.6455 -1.1456
  178SLPC  H11S20247   2.096   6.857   5.425  0.6496 -0.8090  0.9439
  178SLPC  C21220248   2.165   6.807   5.222  0.0535 -0.4085 -0.1136
  178SLPC  H12R20249   2.070   6.776   5.178 -0.5586  1.1055  0.0949
  178SLPC  C21320250   2.258   6.860   5.138  0.2048 -0.1044  0.0695
  178SLPC  H13R20251   2.228   6.867   5.032  0.8634 -0.1117 -0.1219
  178SLPC  C21420252   2.392   6.920   5.176  0.7974 -0.4021 -0.0771
  178SLPC  H14R20253   2.451   6.833   5.212 -0.9044 -1.0432  1.2807
  178SLPC  H14S20254   2.390   6.982   5.267  1.1364  1.3411 -1.2089
  178SLPC  C21520255   2.471   7.002   5.073 -0.0643 -0.0106 -0.2817
  178SLPC  H15R20256   2.555   7.050   5.129 -0.1480 -0.2392  0.0443
  178SLPC  H15S20257   2.413   7.089   5.035 -1.8202 -0.4722  1.1686
  178SLPC  C21620258   2.554   6.923   4.970  0.2790  0.2421 -1.1652
  178SLPC  H16R20259   2.490   6.846   4.922  1.3268 -1.1410 -0.4059
  178SLPC  H16S20260   2.642   6.876   5.018 -0.5973 -0.6393 -0.3643
  178SLPC  C21720261   2.600   7.010   4.860 -0.0739  0.8712  0.3880
  178SLPC  H17R20262   2.671   6.952   4.798 -0.3509  1.7285 -0.7773
  178SLPC  H17S20263   2.653   7.103   4.889  1.9142  0.3440 -1.3418
  178SLPC  C21820264   2.486   7.062   4.772  0.4327 -0.4143 -0.0426
  178SLPC  H18R20265   2.429   6.984   4.718 -2.2580  0.6315  1.0993
  178SLPC  H18S20266   2.532   7.134   4.701  1.2945  2.3284  3.0441
  178SLPC  H18T20267   2.413   7.121   4.832  0.1182  0.5928 -1.3598
  178SLPC   C3320268   2.316   6.263   5.933 -0.3943  0.0872 -0.3109
  178SLPC   H3X20269   2.325   6.367   5.895  3.1531 -0.2283 -0.6397
  178SLPC   H3Y20270   2.213   6.222   5.925 -0.5861  0.8234 -1.9737
  178SLPC   C3420271   2.407   6.188   5.831  0.4859  0.3216 -1.3073
  178SLPC   H4X20272   2.401   6.080   5.856 -1.5083  0.5169 -0.7614
  178SLPC   H4Y20273   2.513   6.222   5.834  1.5068 -2.6034  0.6272
  178SLPC   C3520274   2.349   6.205   5.693 -0.2885  0.2847  0.4551
  178SLPC   H5X20275   2.364   6.310   5.662  3.8450  0.0559  1.0684
  178SLPC   H5Y20276   2.244   6.171   5.687  0.2392 -1.4615  0.4217
  178SLPC   C3620277   2.432   6.110   5.603  0.7981  0.3798  0.2860
  178SLPC   H6X20278   2.398   6.009   5.635 -1.8778  0.6819 -1.2590
  178SLPC   H6Y20279   2.543   6.109   5.608  1.0642 -1.4097 -3.1883
  178SLPC   C3720280   2.397   6.127   5.452 -0.0691  0.0767 -0.5436
  178SLPC   H7X20281   2.293   6.092   5.431 -0.3891  0.2200  0.7236
  178SLPC   H7Y20282   2.464   6.067   5.387  1.1300  1.2237 -0.4019
  178SLPC   C3820283   2.396   6.269   5.384 -0.0308  0.4016  0.2943
  178SLPC   H8X20284   2.490   6.325   5.406  0.4853 -1.5030  3.5605
  178SLPC   H8Y20285   2.311   6.331   5.419 -0.9605 -1.1990  0.9814
  178SLPC   C3920286   2.386   6.258   5.232 -0.6714 -0.4982  0.4045
  178SLPC   H9X20287   2.301   6.191   5.207 -0.2299 -0.9437  0.0871
  178SLPC   H9Y20288   2.481   6.226   5.185  0.3737  1.1986  1.2849
  178SLPC  C31020289   2.342   6.388   5.157  0.1103 -0.0344 -0.7910
  178SLPC  H10X20290   2.254   6.433   5.207  1.8844  1.7337  0.9395
  178SLPC  H10Y20291   2.330   6.371   5.048 -1.1785  0.4334 -0.7329
  178SLPC  C31120292   2.458   6.491   5.163  0.9100 -0.0244  0.9939
  178SLPC  H11X20293   2.498   6.492   5.267 -1.6499  2.8397  2.0938
  178SLPC  H11Y20294   2.416   6.592   5.145 -0.2902 -0.6183  0.3902
  178SLPC  C31220295   2.571   6.459   5.066  0.5278  0.3445 -0.8849
  178SLPC  H12X20296   2.531   6.458   4.962 -0.1381  0.1889 -0.6316
  178SLPC  H12Y20297   2.603   6.355   5.088  0.7209  0.0115 -2.6315
  178SLPC  C31320298   2.695   6.559   5.069  0.2991  0.0149 -0.1557
  178SLPC  H13X20299   2.783   6.518   5.123 -0.3141 -1.2631 -0.0913
  178SLPC  H13Y20300   2.655   6.641   5.133 -0.3434 -0.6310  0.2817
  178SLPC  C31420301   2.740   6.605   4.927  0.6911  0.7947 -0.8009
  178SLPC  H14X20302   2.790   6.702   4.948 -1.0427  2.1198 -2.4425
  178SLPC  H14Y20303   2.651   6.631   4.866  0.6561 -0.9019 -1.5156
  178SLPC  C31520304   2.839   6.516   4.845  0.8609  0.9524 -0.1764
  178SLPC  H15X20305   2.818   6.554   4.743 -4.3054  1.9809  0.9640
  178SLPC  H15Y20306   2.811   6.410   4.859  0.5809  1.1814  1.2434
  178SLPC  C31620307   2.980   6.546   4.890  0.0019 -0.2601  0.2431
  178SLPC  H16X20308   2.984   6.512   4.995  0.6896  0.9710  0.6380
  178SLPC  H16Y20309   2.992   6.655   4.873  1.0380 -0.1358  1.6056
  178SLPC  C31720310   3.079   6.458   4.805  0.7865  0.2429 -0.2387
  178SLPC  H17X20311   3.180   6.499   4.822  0.5217  1.8160 -2.1118
  178SLPC  H17Y20312   3.059   6.485   4.699 -0.4601  2.0096  0.4023
  178SLPC  C31820313   3.085   6.303   4.840 -0.6416 -0.7623  0.0813
  178SLPC  H18X20314   3.009   6.246   4.783 -2.9202 -0.3218  2.4873
  178SLPC  H18Y20315   3.069   6.292   4.949 -0.8158  0.4649  0.1889
  178SLPC  H18Z20316   3.189   6.271   4.815  0.3098  1.9442  0.2983
  179SLPC     N20317   4.130   1.282   2.927  0.3270 -0.5744  0.0249
  179SLPC   C1320318   4.004   1.282   3.012 -0.7692 -0.0749  0.1792
  179SLPC  H13A20319   3.949   1.374   3.000 -0.3371  0.2448  0.6344
  179SLPC  H13B20320   3.943   1.203   2.970  0.2142 -0.5368 -0.4201
  179SLPC  H13C20321   4.023   1.257   3.115 -2.6328  0.9554  0.8179
  179SLPC   C1420322   4.210   1.161   2.954  0.2790  0.4404 -0.5743
  179SLPC  H14A20323   4.149   1.073   2.966 -1.1787  1.1700 -2.2055
  179SLPC  H14B20324   4.277   1.134   2.874 -0.2052 -1.1735 -0.4788
  179SLPC  H14C20325   4.269   1.175   3.043 -1.5873  1.8906  0.4988
  179SLPC   C1520326   4.219   1.398   2.956  0.0650  0.3211 -0.4095
  179SLPC  H15A20327   4.160   1.488   2.955 -0.5536 -0.0266  1.5171
  179SLPC  H15B20328   4.272   1.384   3.050 -1.6799 -2.2187  0.3203
  179SLPC  H15C20329   4.299   1.402   2.884  0.6960  1.0544  0.3052
  179SLPC   C1220330   4.072   1.282   2.789 -0.2299  0.0205 -0.0251
  179SLPC  H12A20331   4.000   1.205   2.769 -1.3384  0.7802  0.9057
  179SLPC  H12B20332   4.146   1.284   2.710 -0.5266  1.0051 -0.2938
  179SLPC   C1120333   3.979   1.401   2.752  0.3049 -0.2155  0.2958
  179SLPC  H11A20334   3.985   1.403   2.641  1.9975 -1.4296  0.3213
  179SLPC  H11B20335   4.009   1.505   2.777 -1.7379  1.7420 -4.1837
  179SLPC     P20336   3.753   1.261   2.743 -0.4083 -0.4012  0.4807
  179SLPC   O1320337   3.740   1.282   2.594 -0.1402  0.0560 -0.2067
  179SLPC   O1420338   3.818   1.132   2.778  0.5252 -0.0375  0.0766
  179SLPC   O1220339   3.846   1.381   2.802  0.2392  0.1641 -0.1684
  179SLPC   O1120340   3.618   1.273   2.822  0.0606  0.4095 -0.1754
  179SLPC    C120341   3.565   1.390   2.878 -0.7400 -0.7125  1.0276
  179SLPC    HA20342   3.591   1.474   2.810 -0.6205 -1.6195 -0.0773
  179SLPC    HB20343   3.455   1.374   2.869 -0.6817 -0.2511 -0.9989
  179SLPC    C220344   3.613   1.401   3.023 -0.6633 -0.2233 -0.2611
  179SLPC    HS20345   3.716   1.360   3.031 -1.5050 -2.1686  1.5729
  179SLPC   O2120346   3.522   1.333   3.108 -0.2936  0.4717  0.4424
  179SLPC   C2120347   3.548   1.211   3.141  0.5186 -0.5194  0.2907
  179SLPC   O2220348   3.654   1.156   3.130 -0.6637 -0.7122  0.2333
  179SLPC   C2220349   3.425   1.162   3.208  0.0707 -0.5849 -0.4100
  179SLPC   H2R20350   3.335   1.194   3.151  1.0978  0.0050 -1.7347
  179SLPC   H2S20351   3.425   1.051   3.205  1.6854 -0.6456  0.5843
  179SLPC    C320352   3.631   1.541   3.064  0.1191 -0.1263 -0.5376
  179SLPC    HX20353   3.527   1.580   3.054 -0.6262 -1.5127  1.2979
  179SLPC    HY20354   3.697   1.594   2.992 -0.1275  0.8203 -0.0802
  179SLPC   O3120355   3.664   1.555   3.211 -0.2263  0.1429  0.0482
  179SLPC   C3120356   3.795   1.566   3.231  0.1718  0.5022 -0.2805
  179SLPC   O3220357   3.874   1.547   3.143  0.1395  0.3605 -0.1550
  179SLPC   C3220358   3.835   1.590   3.373  0.2850  0.6242 -0.2904
  179SLPC   H2X20359   3.869   1.694   3.391  1.1158  0.6506 -1.8355
  179SLPC   H2Y20360   3.932   1.535   3.377  0.0824  0.3273  0.9450
  179SLPC   C2320361   3.426   1.215   3.356  0.4644  0.5642  0.8943
  179SLPC   H3R20362   3.440   1.325   3.363 -0.2660  0.8211 -1.1865
  179SLPC   H3S20363   3.514   1.160   3.395  0.5301 -0.8785 -1.1558
  179SLPC   C2420364   3.290   1.174   3.419 -0.3552 -0.1455 -0.2671
  179SLPC   H4R20365   3.208   1.221   3.360  0.4748  0.1175 -1.2472
  179SLPC   H4S20366   3.280   1.229   3.515 -0.7843  1.1012 -0.9877
  179SLPC   C2520367   3.272   1.025   3.446  0.2627  0.4078 -0.1146
  179SLPC   H5R20368   3.359   0.986   3.503  0.4609  0.6747 -0.2354
  179SLPC   H5S20369   3.269   0.971   3.349 -0.6724  2.1416 -1.0950
  179SLPC   C2620370   3.140   0.998   3.519 -0.7060 -0.0692 -0.2742
  179SLPC   H6R20371   3.056   1.038   3.457 -0.1601 -0.0336 -1.0025
  179SLPC   H6S20372   3.144   1.067   3.606  0.4985  0.0471 -0.4080
  179SLPC   C2720373   3.122   0.853   3.556  0.2369  1.4322 -0.2175
  179SLPC   H7R20374   3.217   0.799   3.573  0.1751  0.8322 -1.6193
  179SLPC   H7S20375   3.082   0.808   3.463  1.1245 -0.2502  0.1747
  179SLPC   C2820376   3.020   0.826   3.672  0.0261  0.4425  0.2328
  179SLPC   H8R20377   2.986   0.721   3.662  0.5290  0.1019  1.8041
  179SLPC   H8S20378   2.939   0.902   3.663 -1.1235 -0.4274  2.4934
  179SLPC   C2920379   3.097   0.846   3.801  0.0669  0.4683 -0.1532
  179SLPC   H9R20380   3.180   0.919   3.801 -2.0470  2.9896 -0.8156
  179SLPC  C21020381   3.075   0.787   3.921  0.5819 -0.9250  0.2427
  179SLPC  H10R20382   3.143   0.813   4.004 -2.2110  1.1186  2.0887
  179SLPC  C21120383   2.966   0.688   3.970  0.2107 -0.0084 -0.1904
  179SLPC  H11R20384   3.025   0.602   4.008 -1.0347 -1.7180 -1.9310
  179SLPC  H11S20385   2.898   0.642   3.895 -2.1954  0.6230  1.5003
  179SLPC  C21220386   2.878   0.748   4.073  0.7193  0.0618  0.1523
  179SLPC  H12R20387   2.863   0.857   4.072 -1.7680 -0.1559  2.5263
  179SLPC  C21320388   2.794   0.694   4.162 -0.5003 -0.2140 -0.4844
  179SLPC  H13R20389   2.735   0.759   4.227  0.8057  1.5065 -0.9331
  179SLPC  C21420390   2.779   0.541   4.175 -0.2144 -0.0551  0.3825
  179SLPC  H14R20391   2.819   0.497   4.081  0.9053  1.4215  0.1302
  179SLPC  H14S20392   2.670   0.518   4.172 -0.1805 -0.1550 -0.4796
  179SLPC  C21520393   2.834   0.462   4.298 -0.6212 -0.6353  0.8009
  179SLPC  H15R20394   2.943   0.476   4.309 -0.5722  0.3232 -0.6501
  179SLPC  H15S20395   2.819   0.353   4.279 -0.5011 -0.3030 -1.5900
  179SLPC  C21620396   2.764   0.508   4.425  0.0112 -0.1502 -0.0472
  179SLPC  H16R20397   2.655   0.487   4.417  0.2929 -1.6947 -0.1368
  179SLPC  H16S20398   2.784   0.618   4.426  0.7122 -0.2731 -0.0007
  179SLPC  C21720399   2.835   0.448   4.546 -0.5788 -0.2407 -0.0642
  179SLPC  H17R20400   2.945   0.447   4.535 -0.6968 -1.0959 -1.2774
  179SLPC  H17S20401   2.803   0.342   4.547 -0.4146 -0.3144  2.1791
  179SLPC  C21820402   2.784   0.495   4.688 -0.3377 -0.3695  0.7442
  179SLPC  H18R20403   2.831   0.445   4.776  0.4867  2.8393  2.2695
  179SLPC  H18S20404   2.673   0.486   4.684 -0.4079  0.8192 -0.8244
  179SLPC  H18T20405   2.801   0.604   4.701  1.7447 -0.5021 -0.4483
  179SLPC   C3320406   3.747   1.531   3.485 -0.5961 -0.5029  0.2395
  179SLPC   H3X20407   3.734   1.422   3.468  1.5091 -0.5923 -1.2202
  179SLPC   H3Y20408   3.649   1.584   3.484 -0.1577  0.3697  1.2321
  179SLPC   C3420409   3.807   1.551   3.627  0.6023 -0.2028 -0.3934
  179SLPC   H4X20410   3.792   1.644   3.685 -1.8564 -3.0532  4.0841
  179SLPC   H4Y20411   3.917   1.546   3.624  0.5902 -0.6613 -0.1768
  179SLPC   C3520412   3.752   1.455   3.728 -0.0403 -0.2069 -0.7372
  179SLPC   H5X20413   3.641   1.466   3.726 -0.0322  0.0127 -0.1652
  179SLPC   H5Y20414   3.766   1.355   3.682 -2.3703 -0.2406 -1.5234
  179SLPC   C3620415   3.803   1.464   3.870  0.4763  0.4629  0.2043
  179SLPC   H6X20416   3.845   1.565   3.888 -0.9614  1.0107  0.5890
  179SLPC   H6Y20417   3.891   1.397   3.884  1.9053  2.4978  1.6859
  179SLPC   C3720418   3.695   1.428   3.978  1.1401 -0.0991  0.7025
  179SLPC   H7X20419   3.654   1.326   3.960 -2.0540  1.3834 -1.4951
  179SLPC   H7Y20420   3.601   1.473   3.941  0.2302 -3.0194 -0.8619
  179SLPC   C3820421   3.724   1.466   4.121  0.5564 -0.4670 -0.0433
  179SLPC   H8X20422   3.786   1.558   4.121  0.3521 -0.3276  0.3195
  179SLPC   H8Y20423   3.775   1.382   4.174 -0.6769 -0.7031  0.8198
  179SLPC   C3920424   3.603   1.497   4.209 -0.0620  0.2204  0.1879
  179SLPC   H9X20425   3.553   1.589   4.170  1.0818  1.1645  0.8527
  179SLPC   H9Y20426   3.640   1.533   4.307 -1.0135 -0.6206  0.8745
  179SLPC  C31020427   3.513   1.380   4.234  0.8803 -0.3912  0.4334
  179SLPC  H10X20428   3.573   1.287   4.245 -2.2068 -2.4124  1.6883
  179SLPC  H10Y20429   3.456   1.372   4.139  1.0469 -1.7684  0.4333
  179SLPC  C31120430   3.431   1.394   4.359 -0.3038  0.2080  0.2417
  179SLPC  H11X20431   3.365   1.482   4.346 -0.8797 -0.2592 -0.0773
  179SLPC  H11Y20432   3.484   1.408   4.455  1.9628 -0.4081 -0.8421
  179SLPC  C31220433   3.348   1.266   4.381  0.1859 -0.0247  0.1240
  179SLPC  H12X20434   3.419   1.181   4.371 -0.2768 -0.4036  0.0167
  179SLPC  H12Y20435   3.270   1.264   4.303  0.2254  0.3585  0.0713
  179SLPC  C31320436   3.279   1.267   4.516  0.4247 -0.0519  0.1187
  179SLPC  H13X20437   3.182   1.215   4.505 -0.2231  1.2980 -0.6518
  179SLPC  H13Y20438   3.267   1.375   4.538  1.9295  0.1892 -0.0845
  179SLPC  C31420439   3.371   1.208   4.633  0.5774  0.1475  0.4508
  179SLPC  H14X20440   3.440   1.291   4.657 -2.7910  3.4441 -0.2539
  179SLPC  H14Y20441   3.427   1.121   4.594  0.1633 -0.3482  0.9377
  179SLPC  C31520442   3.296   1.159   4.756  0.5816  0.3072 -0.2344
  179SLPC  H15X20443   3.248   1.062   4.730 -0.5800  1.1545 -1.3766
  179SLPC  H15Y20444   3.214   1.230   4.778 -1.7132 -2.2579  0.0373
  179SLPC  C31620445   3.379   1.119   4.879  0.0319 -0.0242 -0.4735
  179SLPC  H16X20446   3.434   1.208   4.916  1.1296  0.4456 -3.0441
  179SLPC  H16Y20447   3.461   1.051   4.848 -0.8418 -0.8577 -1.0047
  179SLPC  C31720448   3.283   1.052   4.977 -0.6838 -0.1233 -0.4742
  179SLPC  H17X20449   3.228   0.961   4.942 -0.4085  0.7889 -3.5462
  179SLPC  H17Y20450   3.201   1.121   5.005 -1.1067 -0.4702 -0.8444
  179SLPC  C31820451   3.358   1.010   5.104  0.9155 -0.0899 -0.1104
  179SLPC  H18X20452   3.434   0.934   5.075 -0.4706 -1.9910  0.9772
  179SLPC  H18Y20453   3.283   0.954   5.164 -2.3468  0.9463 -2.8672
  179SLPC  H18Z20454   3.405   1.096   5.156 -0.6998 -0.8161  2.7888
  180SLPC     N20455   1.864   1.329   1.979 -0.6063 -0.1283  0.1717
  180SLPC   C1320456   1.725   1.368   1.947  0.0222  0.0496 -0.6286
  180SLPC  H13A20457   1.659   1.283   1.937 -1.6496  0.3541  4.5993
  180SLPC  H13B20458   1.686   1.420   2.033 -0.2207  0.1128 -0.7770
  180SLPC  H13C20459   1.726   1.440   1.866 -0.3272 -0.6037 -1.2152
  180SLPC   C1420460   1.902   1.225   1.879 -0.2409  0.3501 -0.1127
  180SLPC  H14A20461   1.883   1.240   1.774 -1.3670 -0.3588 -0.0202
  180SLPC  H14B20462   2.010   1.218   1.876 -0.1116  2.2457 -2.2496
  180SLPC  H14C20463   1.856   1.132   1.907  0.5673  0.3002  1.1533
  180SLPC   C1520464   1.874   1.268   2.112 -0.0519  0.5977  0.2084
  180SLPC  H15A20465   1.979   1.275   2.136  0.1802  1.2980 -0.9200
  180SLPC  H15B20466   1.810   1.316   2.185 -0.7064 -0.7127  0.5271
  180SLPC  H15C20467   1.844   1.165   2.108  1.3431  0.2076 -2.5276
  180SLPC   C1220468   1.962   1.441   1.952 -0.0730  0.0216 -0.2419
  180SLPC  H12A20469   1.978   1.463   1.848 -2.2435 -0.5508 -0.7491
  180SLPC  H12B20470   2.063   1.412   1.978  0.0828  0.6518 -0.1213
  180SLPC   C1120471   1.933   1.575   2.025  0.0084  0.0510 -0.4481
  180SLPC  H11A20472   1.828   1.601   2.001  0.0383  2.6142  1.6669
  180SLPC  H11B20473   1.990   1.664   1.990  0.8065 -0.5104 -0.6153
  180SLPC     P20474   2.099   1.535   2.227 -0.2937 -0.8191  0.1488
  180SLPC   O1320475   2.152   1.408   2.171  0.5701 -0.2329 -0.0407
  180SLPC   O1420476   2.181   1.653   2.213  0.0208  0.7407 -0.4162
  180SLPC   O1220477   1.959   1.564   2.167 -0.3503  0.4844  0.1709
  180SLPC   O1120478   2.063   1.508   2.382  0.0715  0.2326 -0.0040
  180SLPC    C120479   1.967   1.588   2.457 -0.2399  0.3074 -0.6421
  180SLPC    HA20480   1.899   1.637   2.384 -0.4997  0.5882 -0.2114
  180SLPC    HB20481   1.901   1.536   2.529  1.4074  0.4086  1.0059
  180SLPC    C220482   2.045   1.703   2.533 -0.6036  0.3420 -0.4890
  180SLPC    HS20483   2.102   1.763   2.459  0.7312 -0.5109 -0.1784
  180SLPC   O2120484   2.141   1.641   2.632  0.4907  0.1334 -0.3248
  180SLPC   C2120485   2.234   1.736   2.674 -0.3358  0.6541  0.1540
  180SLPC   O2220486   2.243   1.843   2.624 -0.2448  0.2794  0.1124
  180SLPC   C2220487   2.332   1.679   2.779  0.3842  0.6908  0.2035
  180SLPC   H2R20488   2.275   1.614   2.848  1.9406 -0.5698  0.3338
  180SLPC   H2S20489   2.404   1.611   2.729  0.1036  1.5211 -1.4062
  180SLPC    C320490   1.947   1.802   2.601 -0.2063  0.3422  0.2673
  180SLPC    HX20491   1.879   1.833   2.518 -0.4155 -1.9558 -0.5021
  180SLPC    HY20492   2.003   1.883   2.652 -0.1914 -0.5279  1.6827
  180SLPC   O3120493   1.865   1.731   2.696 -0.8843 -0.0090  0.4069
  180SLPC   C3120494   1.901   1.742   2.827  0.2331 -0.5622 -0.0796
  180SLPC   O3220495   2.011   1.774   2.870  0.0880  0.4090 -0.5233
  180SLPC   C3220496   1.766   1.742   2.905 -0.5800  0.0782  1.0817
  180SLPC   H2X20497   1.709   1.653   2.872  0.7149 -0.4878  0.2845
  180SLPC   H2Y20498   1.719   1.838   2.872  0.0100 -0.4460 -1.5162
  180SLPC   C2320499   2.399   1.794   2.861 -0.6264  0.1233 -0.3537
  180SLPC   H3R20500   2.418   1.879   2.792 -1.4121  0.2818 -0.3856
  180SLPC   H3S20501   2.496   1.761   2.905 -1.0931  0.5878  1.0887
  180SLPC   C2420502   2.314   1.839   2.978 -0.0655 -0.6782  0.8324
  180SLPC   H4R20503   2.214   1.863   2.938  0.3987 -1.7765 -1.1165
  180SLPC   H4S20504   2.369   1.925   3.024  0.6803 -0.3507 -0.6078
  180SLPC   C2520505   2.303   1.736   3.087  0.0375 -0.1015  0.5661
  180SLPC   H5R20506   2.406   1.700   3.108 -0.1118  0.5988  2.7554
  180SLPC   H5S20507   2.245   1.648   3.051 -0.2450 -0.6468  2.2929
  180SLPC   C2620508   2.235   1.789   3.215  0.1600 -0.1468  0.6669
  180SLPC   H6R20509   2.131   1.823   3.195  0.8205  0.5158 -1.9899
  180SLPC   H6S20510   2.299   1.869   3.259  1.4386 -0.8021  0.0583
  180SLPC   C2720511   2.223   1.679   3.323 -0.2178 -0.9087 -0.3645
  180SLPC   H7R20512   2.302   1.607   3.294 -0.2579 -0.2394 -2.2922
  180SLPC   H7S20513   2.126   1.625   3.318  0.6055 -2.5902  0.9613
  180SLPC   C2820514   2.248   1.731   3.465  0.0373  0.1810 -0.4797
  180SLPC   H8R20515   2.211   1.652   3.534  0.3088  0.3487 -0.1357
  180SLPC   H8S20516   2.195   1.827   3.485 -0.3712 -0.4138  1.4862
  180SLPC   C2920517   2.396   1.764   3.500  0.7584  0.4944  0.1385
  180SLPC   H9R20518   2.440   1.823   3.418  0.8765  0.7229  0.3643
  180SLPC  C21020519   2.479   1.714   3.591  0.5913 -0.0216  0.8260
  180SLPC  H10R20520   2.581   1.756   3.592  1.1598 -1.2868  3.0186
  180SLPC  C21120521   2.442   1.620   3.701  0.2284 -0.2524  0.2262
  180SLPC  H11R20522   2.335   1.600   3.682  0.6814 -3.1989  0.3008
  180SLPC  H11S20523   2.449   1.684   3.792  0.1946 -0.7113  0.5507
  180SLPC  C21220524   2.510   1.488   3.704  0.1230  0.7103 -0.2242
  180SLPC  H12R20525   2.527   1.455   3.600 -1.3772  1.0630 -0.6054
  180SLPC  C21320526   2.520   1.407   3.808 -0.6986 -0.9647  0.0171
  180SLPC  H13R20527   2.581   1.316   3.803  1.3359  0.3346 -0.1222
  180SLPC  C21420528   2.501   1.454   3.949  0.0380 -0.0100  0.0028
  180SLPC  H14R20529   2.395   1.488   3.952  0.1276  0.3272 -0.4562
  180SLPC  H14S20530   2.569   1.538   3.974 -1.0364  0.2784  2.1355
  180SLPC  C21520531   2.504   1.347   4.064  0.2310 -0.3577  0.8318
  180SLPC  H15R20532   2.520   1.407   4.156 -0.9291  0.8603  0.2757
  180SLPC  H15S20533   2.587   1.273   4.063  0.2625 -0.3396 -0.7445
  180SLPC  C21620534   2.373   1.269   4.082 -0.0791  0.1017 -0.0746
  180SLPC  H16R20535   2.352   1.221   3.984 -1.5504 -0.9995  0.7566
  180SLPC  H16S20536   2.291   1.339   4.107  0.7147  0.4087  1.7824
  180SLPC  C21720537   2.393   1.157   4.175  0.7023  0.1939 -0.3138
  180SLPC  H17R20538   2.401   1.200   4.277  3.6480  2.1007 -1.2348
  180SLPC  H17S20539   2.495   1.117   4.156  1.9529  2.8807  0.2050
  180SLPC  C21820540   2.283   1.052   4.165  0.3421  0.4856 -0.3829
  180SLPC  H18R20541   2.305   0.980   4.247  1.3647  0.9488 -0.2414
  180SLPC  H18S20542   2.303   0.996   4.072  0.6159  0.0209 -0.0520
  180SLPC  H18T20543   2.182   1.092   4.191  0.9183 -0.1189  3.4590
  180SLPC   C3320544   1.788   1.763   3.057 -0.4265 -0.9125  0.2956
  180SLPC   H3X20545   1.853   1.852   3.073  0.6645 -1.2835 -1.6458
  180SLPC   H3Y20546   1.841   1.677   3.103 -0.6512 -0.5140  1.3235
  180SLPC   C3420547   1.659   1.784   3.133  0.3315  0.2128  0.7269
  180SLPC   H4X20548   1.603   1.690   3.115 -1.2154  1.2492 -0.1334
  180SLPC   H4Y20549   1.609   1.873   3.089  1.8258  0.4622 -0.5497
  180SLPC   C3520550   1.674   1.799   3.283 -0.3522  0.4518 -0.5550
  180SLPC   H5X20551   1.579   1.843   3.321  1.1482  1.5845  2.1425
  180SLPC   H5Y20552   1.745   1.877   3.316 -0.4846  0.6691 -0.7842
  180SLPC   C3620553   1.716   1.666   3.350 -0.0968  0.4605 -0.0488
  180SLPC   H6X20554   1.817   1.640   3.312 -0.4436 -1.8969  0.4586
  180SLPC   H6Y20555   1.654   1.578   3.320 -2.3695  1.1012  2.4240
  180SLPC   C3720556   1.734   1.671   3.500  0.3146  0.1565 -0.2453
  180SLPC   H7X20557   1.797   1.758   3.527 -1.8534  1.1087  2.1933
  180SLPC   H7Y20558   1.796   1.581   3.519  0.1681 -0.0149 -0.5801
  180SLPC   C3820559   1.599   1.662   3.575 -0.5309 -0.1116  0.0675
  180SLPC   H8X20560   1.538   1.588   3.520  0.9137 -1.9287  0.8071
  180SLPC   H8Y20561   1.556   1.765   3.574  0.7201  0.4417  0.3238
  180SLPC   C3920562   1.614   1.632   3.722  0.9258  0.3382  0.3018
  180SLPC   H9X20563   1.668   1.537   3.736  1.3465  0.8436  2.4669
  180SLPC   H9Y20564   1.520   1.600   3.772  0.3818 -2.3958 -2.2013
  180SLPC  C31020565   1.695   1.737   3.800 -0.0136 -0.9990 -0.6073
  180SLPC  H10X20566   1.651   1.836   3.774 -1.4131 -2.1022 -2.7177
  180SLPC  H10Y20567   1.795   1.728   3.753  0.1060  0.5903 -0.7196
  180SLPC  C31120568   1.685   1.711   3.954  0.1397  0.4728 -0.1166
  180SLPC  H11X20569   1.578   1.716   3.982 -0.5463  0.2185 -2.5014
  180SLPC  H11Y20570   1.748   1.782   4.012  1.4782 -0.6171 -0.1761
  180SLPC  C31220571   1.729   1.571   4.001  0.2004 -0.3138  0.2482
  180SLPC  H12X20572   1.833   1.552   3.965 -0.5670 -0.7163 -1.9498
  180SLPC  H12Y20573   1.662   1.504   3.942 -0.6811  1.3755 -0.7371
  180SLPC  C31320574   1.705   1.540   4.149  0.0362  0.5212  0.1898
  180SLPC  H13X20575   1.594   1.532   4.155  0.2063 -3.4444  0.5818
  180SLPC  H13Y20576   1.737   1.617   4.222 -1.0725 -2.2917  3.9829
  180SLPC  C31420577   1.763   1.393   4.181 -0.0614 -0.1690  0.1537
  180SLPC  H14X20578   1.869   1.389   4.147 -1.1300  0.5641 -3.7479
  180SLPC  H14Y20579   1.703   1.312   4.134 -2.6563  1.6965  0.0402
  180SLPC  C31520580   1.758   1.364   4.330 -0.2340 -0.1995 -0.7920
  180SLPC  H15X20581   1.660   1.396   4.373  1.1461 -0.0170  2.4395
  180SLPC  H15Y20582   1.830   1.435   4.374 -0.9351 -0.2582  0.4870
  180SLPC  C31620583   1.789   1.222   4.372  0.4811 -0.6203  0.0561
  180SLPC  H16X20584   1.883   1.193   4.321  0.8946  0.0804  0.4216
  180SLPC  H16Y20585   1.704   1.154   4.348 -0.0434 -0.0597  0.2943
  180SLPC  C31720586   1.810   1.212   4.522  0.1780 -0.9485 -0.2882
  180SLPC  H17X20587   1.719   1.259   4.566 -0.5946 -0.9545 -1.8001
  180SLPC  H17Y20588   1.897   1.277   4.547  0.7048 -1.0252 -1.8314
  180SLPC  C31820589   1.825   1.062   4.569 -0.2398 -0.5678 -0.1806
  180SLPC  H18X20590   1.855   1.066   4.676 -0.1023 -3.1975 -0.0694
  180SLPC  H18Y20591   1.916   1.018   4.523  2.1696  2.4383  1.3479
  180SLPC  H18Z20592   1.743   0.993   4.542  0.8301 -1.1392 -2.2071
  181SLPC     N20593   1.051   0.138   2.046  0.2014 -0.5489 -0.1224
  181SLPC   C1320594   1.143   0.176   1.933  0.0056  0.8044  0.2898
  181SLPC  H13A20595   1.248   0.184   1.955  0.1329 -0.8693  0.4232
  181SLPC  H13B20596   1.129   0.104   1.854  2.2963 -0.9807  1.3622
  181SLPC  H13C20597   1.111   0.267   1.885 -0.5036  1.3981  1.7123
  181SLPC   C1420598   1.127   0.037   2.127  0.3210 -0.4925 -0.6559
  181SLPC  H14A20599   1.222   0.078   2.160 -1.3386  3.0008  0.2541
  181SLPC  H14B20600   1.066   0.011   2.212  0.0887  0.3949 -0.5423
  181SLPC  H14C20601   1.137  -0.050   2.064 -1.1742  0.8801 -2.9244
  181SLPC   C1520602   0.929   0.077   1.986 -0.1262 -0.3752  0.2199
  181SLPC  H15A20603   0.883   0.008   2.055  1.1971 -0.7140  0.7853
  181SLPC  H15B20604   0.864   0.161   1.962 -1.0450 -1.6097 -1.8740
  181SLPC  H15C20605   0.948   0.010   1.904  1.5040 -0.9805  1.0588
  181SLPC   C1220606   1.021   0.254   2.139 -0.1397  0.9947 -0.8752
  181SLPC  H12A20607   0.929   0.229   2.190  2.3042 -1.1288  3.0344
  181SLPC  H12B20608   0.997   0.340   2.078  1.2345  0.1171 -2.7519
  181SLPC   C1120609   1.131   0.302   2.239 -0.2794 -0.4256  0.0775
  181SLPC  H11A20610   1.129   0.229   2.323  2.1352 -2.0955 -1.2134
  181SLPC  H11B20611   1.111   0.402   2.282 -3.0264  0.3518 -2.5769
  181SLPC     P20612   1.316   0.433   2.096  0.1965  0.2141  0.4438
  181SLPC   O1320613   1.397   0.394   1.981 -0.0765  0.6010  0.2381
  181SLPC   O1420614   1.212   0.535   2.074 -0.0553 -0.0007 -0.5040
  181SLPC   O1220615   1.264   0.309   2.176  0.1934  0.5652  0.2731
  181SLPC   O1120616   1.422   0.495   2.197 -0.1735 -0.3647 -0.2385
  181SLPC    C120617   1.380   0.549   2.319 -0.1949  0.1267  0.3823
  181SLPC    HA20618   1.412   0.655   2.323 -0.2709  0.1202  3.1550
  181SLPC    HB20619   1.272   0.549   2.344 -0.0081  1.5632  1.3247
  181SLPC    C220620   1.464   0.485   2.440  0.0887 -0.1738 -0.8043
  181SLPC    HS20621   1.570   0.495   2.406  0.2075 -1.0314 -0.7044
  181SLPC   O2120622   1.415   0.348   2.462 -0.0205  0.4437 -0.1377
  181SLPC   C2120623   1.478   0.247   2.399 -0.0996 -0.3053 -0.5912
  181SLPC   O2220624   1.579   0.260   2.333 -0.4976 -0.5739 -0.0218
  181SLPC   C2220625   1.408   0.114   2.425 -0.5787  0.0100 -0.1490
  181SLPC   H2R20626   1.317   0.139   2.484  0.4544 -0.8571  1.9290
  181SLPC   H2S20627   1.382   0.067   2.327 -0.3462  0.5300 -0.4614
  181SLPC    C320628   1.450   0.575   2.560  0.4777  0.0596  0.2730
  181SLPC    HX20629   1.351   0.625   2.571  0.4250 -0.0938  0.5328
  181SLPC    HY20630   1.531   0.649   2.544  1.4790 -1.2386 -0.8164
  181SLPC   O3120631   1.476   0.503   2.682 -0.0388 -0.1899 -0.0577
  181SLPC   C3120632   1.510   0.572   2.790  0.8785  0.6527  0.6544
  181SLPC   O3220633   1.528   0.690   2.788  0.0005 -0.1837 -0.1329
  181SLPC   C3220634   1.508   0.484   2.919 -0.2925 -0.1984 -0.0589
  181SLPC   H2X20635   1.507   0.374   2.903 -0.7883 -0.3997  1.2583
  181SLPC   H2Y20636   1.417   0.528   2.966  1.6141  2.3180  1.5156
  181SLPC   C2320637   1.497   0.015   2.500  0.1329  0.1355  0.7689
  181SLPC   H3R20638   1.595   0.013   2.447  0.1295 -0.0810  0.7673
  181SLPC   H3S20639   1.455  -0.088   2.506 -1.3963  0.7894  1.6533
  181SLPC   C2420640   1.527   0.045   2.650 -0.7666  0.0261  0.5184
  181SLPC   H4R20641   1.579   0.142   2.666 -0.7305  0.3236 -1.2318
  181SLPC   H4S20642   1.595  -0.032   2.692 -0.2557 -1.1547 -2.2407
  181SLPC   C2520643   1.399   0.070   2.729  0.3015  0.5750 -0.5919
  181SLPC   H5R20644   1.317  -0.005   2.720  0.8679  0.0528 -1.4906
  181SLPC   H5S20645   1.351   0.166   2.699 -1.8687 -0.6396 -1.2495
  181SLPC   C2620646   1.440   0.085   2.878 -0.2453  0.2144 -0.0950
  181SLPC   H6R20647   1.518   0.163   2.895 -1.4282  1.4197 -0.0396
  181SLPC   H6S20648   1.488  -0.007   2.917  3.3336  1.6621 -0.5901
  181SLPC   C2720649   1.309   0.107   2.957  0.2935  0.1650  0.5188
  181SLPC   H7R20650   1.239   0.026   2.928 -0.7124  0.9797  0.6099
  181SLPC   H7S20651   1.254   0.193   2.913 -1.1915 -1.2324 -0.4429
  181SLPC   C2820652   1.311   0.117   3.109 -0.4589  0.3242  0.0998
  181SLPC   H8R20653   1.379   0.200   3.135  1.0841 -1.2930  1.4508
  181SLPC   H8S20654   1.367   0.031   3.150  0.6985 -0.4392 -2.7823
  181SLPC   C2920655   1.175   0.139   3.170 -0.4865  0.1876  0.0335
  181SLPC   H9R20656   1.114   0.224   3.138 -1.1160 -1.0178 -2.1871
  181SLPC  C21020657   1.117   0.065   3.267  0.4818  0.8604 -0.4024
  181SLPC  H10R20658   1.011   0.088   3.289  0.4928  1.6088 -1.0680
  181SLPC  C21120659   1.185  -0.037   3.356 -0.4537 -0.5478  0.3411
  181SLPC  H11R20660   1.251  -0.098   3.292  0.1994 -0.3875  0.8492
  181SLPC  H11S20661   1.105  -0.108   3.386 -1.5332 -0.6748 -2.5321
  181SLPC  C21220662   1.263   0.028   3.476  0.4342 -0.2402 -0.9006
  181SLPC  H12R20663   1.302   0.129   3.455  0.7046 -0.4006 -1.1918
  181SLPC  C21320664   1.277  -0.037   3.596  0.0878 -0.0506 -0.2546
  181SLPC  H13R20665   1.326   0.015   3.679 -0.3164 -0.1648  0.0585
  181SLPC  C21420666   1.232  -0.171   3.639 -0.0754 -0.4200  0.3591
  181SLPC  H14R20667   1.320  -0.228   3.675 -1.2685 -1.4531  1.7492
  181SLPC  H14S20668   1.183  -0.231   3.559  2.1083  0.5881 -1.8695
  181SLPC  C21520669   1.129  -0.154   3.754  0.3439 -0.2423  0.4188
  181SLPC  H15R20670   1.033  -0.140   3.701  0.4988 -2.9287 -0.7373
  181SLPC  H15S20671   1.145  -0.068   3.823 -1.2681 -0.3409  0.9439
  181SLPC  C21620672   1.109  -0.282   3.840 -0.0263  0.0253 -0.3228
  181SLPC  H16R20673   1.196  -0.305   3.905 -1.8199  0.7047  2.5165
  181SLPC  H16S20674   1.089  -0.365   3.768  0.3828 -0.3434 -0.0205
  181SLPC  C21720675   0.992  -0.272   3.935 -0.7811  0.0884 -0.0571
  181SLPC  H17R20676   0.901  -0.239   3.880 -0.4650 -1.1936 -1.4255
  181SLPC  H17S20677   1.027  -0.204   4.015  1.3359 -1.2248  0.2132
  181SLPC  C21820678   0.963  -0.404   3.994 -0.4184  0.0753  0.0044
  181SLPC  H18R20679   1.046  -0.437   4.060  0.3093 -2.1621 -1.8989
  181SLPC  H18S20680   0.953  -0.481   3.914 -0.1629  0.2239 -0.1727
  181SLPC  H18T20681   0.874  -0.402   4.060  0.3178  1.2391  1.0075
  181SLPC   C3320682   1.624   0.516   3.011 -0.4553 -0.6052 -0.4614
  181SLPC   H3X20683   1.616   0.622   3.041 -0.1101 -0.5338 -0.6191
  181SLPC   H3Y20684   1.725   0.488   2.974 -0.2931  2.2025 -2.4966
  181SLPC   C3420685   1.603   0.443   3.144  0.3576  0.5032  0.3690
  181SLPC   H4X20686   1.704   0.452   3.191  0.4123  1.8590  0.0315
  181SLPC   H4Y20687   1.574   0.343   3.108  1.3418  0.1745  0.4538
  181SLPC   C3520688   1.492   0.492   3.231 -0.3055 -0.0432 -0.1279
  181SLPC   H5X20689   1.394   0.500   3.180 -0.9473 -5.5147 -0.2925
  181SLPC   H5Y20690   1.510   0.590   3.280  0.9404 -0.5885  0.5471
  181SLPC   C3620691   1.474   0.391   3.342  0.1229  0.3591 -0.2689
  181SLPC   H6X20692   1.571   0.393   3.395 -0.0237  1.7615 -0.0190
  181SLPC   H6Y20693   1.439   0.297   3.295  0.3734  0.3408 -0.4250
  181SLPC   C3720694   1.365   0.429   3.445 -0.4725  0.1292  0.0443
  181SLPC   H7X20695   1.269   0.378   3.427 -0.2762 -0.3747  0.3993
  181SLPC   H7Y20696   1.354   0.538   3.426  1.1264  0.3939  0.4045
  181SLPC   C3820697   1.402   0.388   3.591  0.4310 -0.7212 -0.2255
  181SLPC   H8X20698   1.412   0.278   3.607 -0.4748 -0.7442  0.2701
  181SLPC   H8Y20699   1.310   0.423   3.642  0.9662  2.3130 -1.1635
  181SLPC   C3920700   1.524   0.453   3.659 -0.4029 -0.7572  0.1674
  181SLPC   H9X20701   1.618   0.411   3.618 -0.2127  0.9460 -1.2784
  181SLPC   H9Y20702   1.522   0.435   3.769 -0.4963  0.0821  0.3125
  181SLPC  C31020703   1.519   0.614   3.639  1.1307  0.1226  0.5303
  181SLPC  H10X20704   1.423   0.656   3.675  0.0278 -1.8141 -0.0124
  181SLPC  H10Y20705   1.510   0.637   3.531  0.9386  0.6713  0.6633
  181SLPC  C31120706   1.635   0.700   3.690 -0.1548  0.6310 -0.0706
  181SLPC  H11X20707   1.628   0.809   3.668  1.6922  0.8695  0.3736
  181SLPC  H11Y20708   1.727   0.663   3.641 -0.4806 -0.6801  0.2629
  181SLPC  C31220709   1.671   0.681   3.841 -0.1554  0.4353 -0.1925
  181SLPC  H12X20710   1.753   0.751   3.867  0.9591 -0.2485 -1.6989
  181SLPC  H12Y20711   1.719   0.582   3.850 -0.3883  0.4810  2.3362
  181SLPC  C31320712   1.562   0.697   3.942  0.0213  0.9175  0.8088
  181SLPC  H13X20713   1.493   0.612   3.926 -0.2408  0.6830  2.8806
  181SLPC  H13Y20714   1.500   0.786   3.918 -0.1520  0.3960 -0.7918
  181SLPC  C31420715   1.607   0.690   4.085 -0.3675  0.1985  0.2504
  181SLPC  H14X20716   1.671   0.600   4.098 -0.4593  0.3371  1.9113
  181SLPC  H14Y20717   1.523   0.681   4.157  0.1607  0.4714  0.9109
  181SLPC  C31520718   1.697   0.799   4.141 -0.7916 -0.4037  0.9028
  181SLPC  H15X20719   1.802   0.782   4.107 -0.4293  1.5218  0.9802
  181SLPC  H15Y20720   1.711   0.787   4.250  1.0113 -0.8409  0.6606
  181SLPC  C31620721   1.642   0.942   4.120  0.4688  0.3579 -0.2916
  181SLPC  H16X20722   1.619   0.965   4.013 -1.2228 -0.5137 -0.1384
  181SLPC  H16Y20723   1.715   1.013   4.164  1.7488 -2.2387  2.0683
  181SLPC  C31720724   1.499   0.952   4.186 -0.8284 -0.4550  0.0434
  181SLPC  H17X20725   1.515   0.919   4.291 -0.0677  1.6735  0.6366
  181SLPC  H17Y20726   1.430   0.873   4.149  2.4144 -2.8689 -1.2999
  181SLPC  C31820727   1.445   1.099   4.175  0.2477 -0.0309  0.0485
  181SLPC  H18X20728   1.514   1.174   4.219 -0.1244 -0.5888  1.6449
  181SLPC  H18Y20729   1.344   1.119   4.216 -0.1742  0.9257 -1.3668
  181SLPC  H18Z20730   1.430   1.126   4.068  1.4373  2.2460  0.3740
  182SLPC     N20731   2.623   6.425   1.915  0.4543  0.0287  0.2826
  182SLPC   C1320732   2.693   6.295   1.956 -0.0344 -0.3223  0.3413
  182SLPC  H13A20733   2.628   6.240   2.023 -0.8040 -1.0464 -0.9619
  182SLPC  H13B20734   2.707   6.234   1.868 -0.5396  1.7177 -1.2161
  182SLPC  H13C20735   2.789   6.314   2.002  1.1347 -2.1009 -1.2085
  182SLPC   C1420736   2.475   6.410   1.913 -0.2146 -0.5664  0.0291
  182SLPC  H14A20737   2.437   6.348   1.833 -1.3638 -1.7408  1.4164
  182SLPC  H14B20738   2.447   6.355   2.002  2.4184 -0.3314  1.1066
  182SLPC  H14C20739   2.425   6.504   1.894 -1.0335 -0.7140  1.2631
  182SLPC   C1520740   2.660   6.472   1.774 -0.0901 -0.6606  0.1441
  182SLPC  H15A20741   2.766   6.492   1.769  0.0446 -1.5332 -1.0823
  182SLPC  H15B20742   2.637   6.403   1.694 -0.4013  0.7384 -1.0240
  182SLPC  H15C20743   2.613   6.565   1.743 -2.9850 -2.2029 -0.4844
  182SLPC   C1220744   2.651   6.535   2.011  0.4430 -0.3015  0.1921
  182SLPC  H12A20745   2.617   6.628   1.968  2.1230  0.5906  0.6813
  182SLPC  H12B20746   2.757   6.550   2.025  0.4325  2.1081 -1.5533
  182SLPC   C1120747   2.605   6.507   2.155  0.0418 -0.1173 -0.1162
  182SLPC  H11A20748   2.495   6.488   2.162  0.1577 -0.3983  0.9954
  182SLPC  H11B20749   2.615   6.602   2.212  2.4477 -1.2348  1.4344
  182SLPC     P20750   2.824   6.416   2.257  0.1329  0.3019 -0.2372
  182SLPC   O1320751   2.870   6.286   2.311 -0.1499  0.1124  0.1737
  182SLPC   O1420752   2.910   6.467   2.151 -0.0493  0.6562  0.4217
  182SLPC   O1220753   2.667   6.399   2.221  0.0168  0.1780 -0.7425
  182SLPC   O1120754   2.824   6.513   2.383  0.2321  0.0208 -0.5411
  182SLPC    C120755   2.732   6.488   2.495 -0.1281 -0.1957 -0.3987
  182SLPC    HA20756   2.692   6.589   2.518 -0.4235 -0.2544 -0.6432
  182SLPC    HB20757   2.648   6.423   2.462 -0.3903 -0.0084 -0.1065
  182SLPC    C220758   2.806   6.423   2.612  0.5631 -0.0168 -0.5369
  182SLPC    HS20759   2.845   6.324   2.582  0.6974 -1.4686  3.7671
  182SLPC   O2120760   2.710   6.427   2.723 -0.1529  0.0217 -0.6596
  182SLPC   C2120761   2.624   6.323   2.716  0.1544 -0.6920  0.9505
  182SLPC   O2220762   2.641   6.222   2.648 -0.1224  0.2487 -0.0753
  182SLPC   C2220763   2.508   6.357   2.800 -0.0338 -0.7334  0.3216
  182SLPC   H2R20764   2.480   6.457   2.763  0.3755 -0.3970  0.8885
  182SLPC   H2S20765   2.420   6.292   2.781 -1.0199  0.0284  2.0227
  182SLPC    C320766   2.926   6.502   2.658 -1.1818  0.5852 -0.2967
  182SLPC    HX20767   2.878   6.600   2.679 -2.7913 -0.7497  3.0073
  182SLPC    HY20768   3.000   6.516   2.577  3.1617  0.5047  3.2789
  182SLPC   O3120769   2.985   6.444   2.772 -0.1672 -0.8173 -0.5162
  182SLPC   C3120770   3.047   6.537   2.848  0.3967  1.0598 -0.5804
  182SLPC   O3220771   3.056   6.654   2.819 -0.0609 -0.4451 -0.3383
  182SLPC   C3220772   3.081   6.478   2.987 -0.3121  0.5536 -0.0629
  182SLPC   H2X20773   3.169   6.411   2.974 -2.0150 -1.5113 -1.9317
  182SLPC   H2Y20774   2.990   6.428   3.027  0.1321  0.1558  0.4567
  182SLPC   C2320775   2.556   6.358   2.954  0.0017 -0.3886  0.8540
  182SLPC   H3R20776   2.654   6.410   2.951 -0.6360  0.8868  1.3774
  182SLPC   H3S20777   2.562   6.256   2.997  1.7340 -0.6934 -0.0297
  182SLPC   C2420778   2.477   6.458   3.041  0.1399  0.4487 -0.2382
  182SLPC   H4R20779   2.463   6.555   2.987 -0.5137  0.3651 -0.2233
  182SLPC   H4S20780   2.535   6.487   3.131  1.4044 -0.4062 -0.7424
  182SLPC   C2520781   2.339   6.412   3.090  0.1302  0.1174 -0.7721
  182SLPC   H5R20782   2.334   6.303   3.112  0.9035  0.3091  0.4377
  182SLPC   H5S20783   2.261   6.438   3.016 -0.1042  0.0798 -0.5386
  182SLPC   C2620784   2.294   6.485   3.216 -0.3000 -0.1487 -0.3022
  182SLPC   H6R20785   2.321   6.593   3.216 -1.0449  0.0449 -0.5552
  182SLPC   H6S20786   2.357   6.446   3.299 -1.9851  2.2465  2.2843
  182SLPC   C2720787   2.147   6.476   3.229  0.4540 -0.1935 -0.3521
  182SLPC   H7R20788   2.124   6.369   3.206  3.0388 -0.8670 -0.1602
  182SLPC   H7S20789   2.106   6.542   3.150 -0.6340 -0.0804  0.2961
  182SLPC   C2820790   2.099   6.506   3.371 -0.1346  0.2059 -0.3211
  182SLPC   H8R20791   2.132   6.429   3.444 -3.2502 -0.3538  0.6359
  182SLPC   H8S20792   1.989   6.498   3.359 -0.1486 -0.4305  0.1602
  182SLPC   C2920793   2.134   6.643   3.423 -0.3410  0.7181  0.2493
  182SLPC   H9R20794   2.099   6.721   3.353 -0.3003  1.8526  1.4590
  182SLPC  C21020795   2.198   6.678   3.532 -0.1974  0.5396 -0.8061
  182SLPC  H10R20796   2.217   6.785   3.547  3.4819  0.3974 -3.1142
  182SLPC  C21120797   2.241   6.579   3.643 -0.4386 -0.1461  0.6085
  182SLPC  H11R20798   2.330   6.617   3.697 -0.9105  0.7692  0.7723
  182SLPC  H11S20799   2.267   6.480   3.600 -0.1221 -0.1864  0.8940
  182SLPC  C21220800   2.123   6.560   3.743 -0.0999 -0.5020  0.6403
  182SLPC  H12R20801   2.025   6.539   3.697 -0.3986 -0.6565  1.3324
  182SLPC  C21320802   2.143   6.540   3.874  0.7752 -0.1046  0.8175
  182SLPC  H13R20803   2.056   6.516   3.937 -1.2238  0.7362 -1.4523
  182SLPC  C21420804   2.270   6.554   3.956 -0.2966  0.3123  0.3392
  182SLPC  H14R20805   2.282   6.638   4.028  1.3088  0.0381  0.4247
  182SLPC  H14S20806   2.361   6.570   3.895 -0.4143 -0.9190 -0.1798
  182SLPC  C21520807   2.291   6.413   4.026  0.0245  0.2785 -0.4185
  182SLPC  H15R20808   2.302   6.334   3.949  1.3348 -0.1850  0.2144
  182SLPC  H15S20809   2.209   6.396   4.100  1.0582  0.0610  0.7177
  182SLPC  C21620810   2.417   6.424   4.106  0.3027 -0.2970  0.2599
  182SLPC  H16R20811   2.423   6.508   4.179 -0.6002 -0.4174  0.4902
  182SLPC  H16S20812   2.498   6.444   4.033 -0.9901  2.8499 -0.5054
  182SLPC  C21720813   2.443   6.293   4.190  0.1824  0.0852 -0.0256
  182SLPC  H17R20814   2.476   6.212   4.121  1.4998 -0.5744  1.3226
  182SLPC  H17S20815   2.348   6.260   4.237 -0.2124  1.1816 -0.0225
  182SLPC  C21820816   2.540   6.312   4.304 -0.7601  0.2927 -0.4681
  182SLPC  H18R20817   2.642   6.333   4.264 -1.3495  1.2926 -1.4850
  182SLPC  H18S20818   2.537   6.222   4.369 -1.4931  1.4170  1.1055
  182SLPC  H18T20819   2.511   6.404   4.359 -1.2850 -0.5948  0.7681
  182SLPC   C3320820   3.091   6.577   3.105  0.2032  0.7134  0.1029
  182SLPC   H3X20821   3.010   6.653   3.095 -0.5220 -0.0912 -0.2065
  182SLPC   H3Y20822   3.189   6.627   3.091  0.7988 -0.0497  1.4389
  182SLPC   C3420823   3.074   6.516   3.241 -0.3983  0.8981  0.0322
  182SLPC   H4X20824   3.150   6.436   3.256  0.5780  1.9192  0.7063
  182SLPC   H4Y20825   2.974   6.468   3.246  0.7709 -1.6016  2.0334
  182SLPC   C3520826   3.105   6.616   3.358  0.1120 -0.3670 -0.2217
  182SLPC   H5X20827   3.051   6.712   3.342 -2.7546 -1.7665  0.5131
  182SLPC   H5Y20828   3.213   6.632   3.337 -0.0304  0.1573 -0.6038
  182SLPC   C3620829   3.088   6.557   3.494 -0.3381 -0.1420  0.4093
  182SLPC   H6X20830   3.176   6.493   3.517 -0.7241 -0.1377  2.0413
  182SLPC   H6Y20831   2.989   6.519   3.528 -1.0277  1.8479  0.7773
  182SLPC   C3720832   3.090   6.673   3.597  0.1270 -0.3232  0.2621
  182SLPC   H7X20833   3.017   6.747   3.557 -1.8849 -3.6364 -2.9574
  182SLPC   H7Y20834   3.190   6.721   3.599  0.4533 -0.9889  0.3191
  182SLPC   C3820835   3.043   6.616   3.728 -0.0591 -0.5736 -0.0085
  182SLPC   H8X20836   2.934   6.597   3.733 -0.2412 -0.3794 -2.0850
  182SLPC   H8Y20837   3.065   6.699   3.799  0.6717 -0.5928 -0.2051
  182SLPC   C3920838   3.116   6.490   3.774  0.4119 -0.6246 -0.1870
  182SLPC   H9X20839   3.220   6.526   3.792  0.3847 -0.1159 -0.9760
  182SLPC   H9Y20840   3.111   6.417   3.691  1.5482  0.3026 -1.1218
  182SLPC  C31020841   3.067   6.423   3.902 -0.0593  0.1502 -0.2175
  182SLPC  H10X20842   3.064   6.500   3.982  0.2001  2.0239 -1.9473
  182SLPC  H10Y20843   3.133   6.343   3.941 -0.1756 -1.6472 -3.4044
  182SLPC  C31120844   2.933   6.348   3.882 -0.1862 -0.2983  0.5342
  182SLPC  H11X20845   2.948   6.284   3.793  0.5680 -0.3928  0.7284
  182SLPC  H11Y20846   2.855   6.423   3.858  2.1203  0.9379 -4.4334
  182SLPC  C31220847   2.908   6.264   4.004 -0.3297  0.7722 -0.0656
  182SLPC  H12X20848   2.887   6.329   4.092 -2.3101 -0.4138  0.3912
  182SLPC  H12Y20849   3.002   6.207   4.021 -1.3725 -1.0522 -0.2196
  182SLPC  C31320850   2.789   6.167   3.996  0.0925  0.2829 -0.1537
  182SLPC  H13X20851   2.816   6.111   3.905  1.6562 -2.9443  2.1060
  182SLPC  H13Y20852   2.697   6.229   4.005  0.5183  0.6360  3.7900
  182SLPC  C31420853   2.789   6.084   4.127 -0.6762 -0.3460  0.6171
  182SLPC  H14X20854   2.748   6.143   4.212 -1.0492 -0.4371  0.5064
  182SLPC  H14Y20855   2.893   6.055   4.151  0.0809  1.1773 -0.5958
  182SLPC  C31520856   2.699   5.956   4.117 -0.0643  0.0916  0.0995
  182SLPC  H15X20857   2.742   5.893   4.037  2.6734  2.3024 -0.3112
  182SLPC  H15Y20858   2.595   5.976   4.084  0.0381  0.5684  0.0537
  182SLPC  C31620859   2.699   5.872   4.247 -0.9578  0.1282 -0.5886
  182SLPC  H16X20860   2.802   5.838   4.272 -1.0500 -0.9905 -1.6682
  182SLPC  H16Y20861   2.644   5.778   4.227  0.5593 -0.5271 -1.8421
  182SLPC  C31720862   2.638   5.938   4.371 -0.1487  0.0626 -0.7152
  182SLPC  H17X20863   2.607   5.852   4.433  1.4946  1.8304  2.8363
  182SLPC  H17Y20864   2.551   6.004   4.350  0.5574  1.0538 -0.6198
  182SLPC  C31820865   2.739   6.019   4.454  0.2732  0.3113  0.1410
  182SLPC  H18X20866   2.796   6.095   4.397 -0.6776 -0.4560 -1.9409
  182SLPC  H18Y20867   2.805   5.942   4.500  0.8559 -0.3974 -1.7504
  182SLPC  H18Z20868   2.693   6.065   4.544 -0.9472  1.4256 -1.0077
  183SLPC     N20869   5.098   2.353   2.018 -0.9301 -0.5830 -0.2416
  183SLPC   C1320870   5.017   2.349   1.895  0.0878  0.5939  0.5311
  183SLPC  H13A20871   5.056   2.272   1.830 -0.4263  0.2427  0.6374
  183SLPC  H13B20872   4.915   2.336   1.927 -0.6241 -1.4710 -2.1254
  183SLPC  H13C20873   5.031   2.440   1.837 -1.9536  0.5488 -0.1056
  183SLPC   C1420874   5.028   2.449   2.102 -0.7982  0.2063  0.5146
  183SLPC  H14A20875   5.042   2.543   2.050 -1.1075 -0.2987 -0.5193
  183SLPC  H14B20876   4.926   2.419   2.118 -0.2282 -1.3744  1.4328
  183SLPC  H14C20877   5.076   2.456   2.198 -1.4027  0.4791  0.8000
  183SLPC   C1520878   5.237   2.400   1.983  0.2928 -0.1098 -0.2726
  183SLPC  H15A20879   5.312   2.391   2.060  0.0608 -1.3064 -0.1701
  183SLPC  H15B20880   5.265   2.344   1.895 -1.5649  0.2332 -1.1386
  183SLPC  H15C20881   5.226   2.503   1.952  0.3632  0.5485  1.7930
  183SLPC   C1220882   5.118   2.224   2.099  0.1969 -0.1431  0.0205
  183SLPC  H12A20883   5.157   2.157   2.024 -1.9174 -0.8032 -0.5772
  183SLPC  H12B20884   5.018   2.187   2.118  0.8815 -2.3832 -0.5559
  183SLPC   C1120885   5.197   2.229   2.230  0.3498  0.1049 -0.2245
  183SLPC  H11A20886   5.303   2.248   2.203  0.7437 -1.0544  0.4652
  183SLPC  H11B20887   5.197   2.126   2.270 -1.6116  0.8116  1.7788
  183SLPC     P20888   5.232   2.381   2.439 -0.1115  0.2693  0.2475
  183SLPC   O1320889   5.344   2.456   2.384  0.0920  0.2858  0.2272
  183SLPC   O1420890   5.146   2.453   2.535  0.7117  0.0881  0.0375
  183SLPC   O1220891   5.138   2.322   2.331  0.5845 -0.0313 -0.3740
  183SLPC   O1120892   5.291   2.260   2.507 -0.2745  0.1610 -0.3842
  183SLPC    C120893   5.291   2.248   2.650  0.5105  0.1221  0.4825
  183SLPC    HA20894   5.204   2.296   2.700 -0.0506  2.1492 -2.1845
  183SLPC    HB20895   5.271   2.140   2.668  0.2432  0.3570  1.6816
  183SLPC    C220896   5.420   2.305   2.720 -0.5809  0.7546  0.7430
  183SLPC    HS20897   5.415   2.280   2.828  0.5804 -0.1065  0.6180
  183SLPC   O2120898   5.442   2.449   2.695  0.8227  0.0541 -0.4084
  183SLPC   C2120899   5.366   2.518   2.774  0.3745 -0.4548 -0.3770
  183SLPC   O2220900   5.309   2.487   2.874 -0.0805  0.0700 -0.4935
  183SLPC   C2220901   5.366   2.659   2.727 -0.9162  0.5820 -0.0070
  183SLPC   H2R20902   5.470   2.696   2.715 -0.2828 -1.6535 -2.2230
  183SLPC   H2S20903   5.321   2.651   2.626 -0.4346 -0.9381 -0.1299
  183SLPC    C320904   5.550   2.235   2.662 -0.3391  0.1878  0.2040
  183SLPC    HX20905   5.554   2.264   2.555 -1.6994 -0.5737 -0.0822
  183SLPC    HY20906   5.534   2.126   2.669 -0.6731  0.2300  0.1307
  183SLPC   O3120907   5.670   2.288   2.719  0.4840 -0.2058 -0.5542
  183SLPC   C3120908   5.746   2.213   2.805 -0.3374  0.3415 -0.4864
  183SLPC   O3220909   5.710   2.104   2.848 -0.0531  0.3061  0.0698
  183SLPC   C3220910   5.855   2.307   2.864 -0.3206  0.0720  0.2154
  183SLPC   H2X20911   5.863   2.400   2.803 -0.6923 -0.5304 -0.7781
  183SLPC   H2Y20912   5.954   2.256   2.862  0.0528  0.7222 -2.6610
  183SLPC   C2320913   5.292   2.762   2.818  0.4992 -0.2561 -0.2114
  183SLPC   H3R20914   5.296   2.725   2.923  0.6808 -3.5133 -1.2583
  183SLPC   H3S20915   5.184   2.767   2.793  0.7375  0.3494 -1.1678
  183SLPC   C2420916   5.346   2.907   2.825  0.1561  0.1222 -0.2754
  183SLPC   H4R20917   5.350   2.941   2.719 -0.5675  0.8092 -0.0961
  183SLPC   H4S20918   5.454   2.907   2.853 -0.0473  1.6178  0.6181
  183SLPC   C2520919   5.266   3.009   2.909  0.4736 -0.0582  0.1601
  183SLPC   H5R20920   5.229   2.972   3.007  0.8055 -1.0326 -0.0654
  183SLPC   H5S20921   5.181   3.039   2.845  1.0453  0.7783 -0.2155
  183SLPC   C2620922   5.348   3.133   2.955  0.1419 -1.2292  0.3939
  183SLPC   H6R20923   5.289   3.201   3.021  0.4249 -1.4458  0.8801
  183SLPC   H6S20924   5.371   3.189   2.862 -1.5889 -1.8931 -0.4781
  183SLPC   C2720925   5.470   3.104   3.044  0.1708  0.0448  0.8878
  183SLPC   H7R20926   5.548   3.055   2.982  0.5011  0.6569  0.8206
  183SLPC   H7S20927   5.432   3.025   3.113  0.2732 -0.5677  0.2505
  183SLPC   C2820928   5.512   3.214   3.134 -0.4354 -0.1848  0.1409
  183SLPC   H8R20929   5.448   3.205   3.224  0.6648  0.2733  0.9841
  183SLPC   H8S20930   5.482   3.309   3.086  0.7930  0.1444 -0.0190
  183SLPC   C2920931   5.662   3.221   3.156 -0.3189 -0.5189 -0.5960
  183SLPC   H9R20932   5.722   3.258   3.071  1.3028 -1.4432  0.1013
  183SLPC  C21020933   5.727   3.194   3.272  0.6906  0.1926  0.7069
  183SLPC  H10R20934   5.834   3.215   3.273  0.4039  1.9256 -0.5641
  183SLPC  C21120935   5.660   3.150   3.405  0.1737  0.2791  0.5754
  183SLPC  H11R20936   5.730   3.083   3.460 -0.2308  0.2632  1.0773
  183SLPC  H11S20937   5.577   3.080   3.382  0.5450 -1.1261  3.1151
  183SLPC  C21220938   5.627   3.269   3.497  0.1978 -0.0960  0.1047
  183SLPC  H12R20939   5.589   3.360   3.449 -0.9946 -0.7975 -0.3256
  183SLPC  C21320940   5.652   3.276   3.633  0.7914  0.0163 -0.1836
  183SLPC  H13R20941   5.638   3.373   3.684  0.2511 -0.6948  1.0770
  183SLPC  C21420942   5.717   3.165   3.711  0.9933 -0.3917  0.3615
  183SLPC  H14R20943   5.825   3.190   3.720  1.1879 -1.5498  1.5946
  183SLPC  H14S20944   5.714   3.070   3.653 -0.1023 -1.1787  1.6671
  183SLPC  C21520945   5.658   3.146   3.851  0.2428 -0.7550 -0.1471
  183SLPC  H15R20946   5.703   3.057   3.900  0.8520 -0.6438 -0.4936
  183SLPC  H15S20947   5.548   3.129   3.847 -0.1136  1.1227  0.7720
  183SLPC  C21620948   5.710   3.255   3.957 -0.7556  0.6249  0.1755
  183SLPC  H16R20949   5.651   3.346   3.932 -3.1255 -1.4460 -2.4955
  183SLPC  H16S20950   5.817   3.280   3.940 -0.0701 -2.2322 -0.2903
  183SLPC  C21720951   5.677   3.204   4.099 -0.0332 -0.5117  0.0362
  183SLPC  H17R20952   5.715   3.100   4.105 -2.2034 -1.5531 -2.4126
  183SLPC  H17S20953   5.568   3.194   4.118 -0.3970  1.5981 -0.7071
  183SLPC  C21820954   5.751   3.284   4.207 -0.1628  0.2036 -0.0887
  183SLPC  H18R20955   5.858   3.264   4.189 -0.5908 -1.3220 -1.1618
  183SLPC  H18S20956   5.705   3.275   4.308  0.2415  1.9863  0.2862
  183SLPC  H18T20957   5.725   3.391   4.187 -0.7788 -0.0440 -0.6541
  183SLPC   C3320958   5.821   2.336   3.010 -0.5028 -0.4773 -1.1485
  183SLPC   H3X20959   5.904   2.390   3.060 -0.8851 -1.2816  0.4177
  183SLPC   H3Y20960   5.808   2.233   3.052  1.3668 -0.3021 -0.0649
  183SLPC   C3420961   5.692   2.425   3.027 -0.3310  0.1990  0.1399
  183SLPC   H4X20962   5.600   2.376   2.991 -0.4076  0.2043  0.3267
  183SLPC   H4Y20963   5.700   2.512   2.959 -0.2538 -0.3596 -0.5713
  183SLPC   C3520964   5.682   2.483   3.174  0.3878 -0.7892 -0.3051
  183SLPC   H5X20965   5.778   2.537   3.188 -0.7017  0.7340  1.9300
  183SLPC   H5Y20966   5.671   2.395   3.241 -0.9460 -1.5175 -1.4558
  183SLPC   C3620967   5.570   2.580   3.192 -0.0494  0.7747  0.4085
  183SLPC   H6X20968   5.477   2.522   3.175  0.6341  0.2341 -1.8998
  183SLPC   H6Y20969   5.580   2.653   3.108  0.0571  0.3686  0.0664
  183SLPC   C3720970   5.569   2.649   3.323 -0.5674  0.2219 -0.1801
  183SLPC   H7X20971   5.666   2.701   3.340 -0.4556  0.0134 -0.1690
  183SLPC   H7Y20972   5.578   2.580   3.409 -1.6891  1.2786  0.8138
  183SLPC   C3820973   5.451   2.736   3.347  0.3413 -0.2593  0.8296
  183SLPC   H8X20974   5.360   2.672   3.357  0.9983 -1.1221  1.3586
  183SLPC   H8Y20975   5.436   2.815   3.270  0.0616 -1.2068 -0.1186
  183SLPC   C3920976   5.475   2.812   3.483 -0.1474 -0.6026  0.2141
  183SLPC   H9X20977   5.542   2.900   3.473  0.2806 -1.1718 -4.5824
  183SLPC   H9Y20978   5.520   2.740   3.555 -0.9285 -1.9338 -0.5962
  183SLPC  C31020979   5.337   2.864   3.533 -0.2819 -0.0317  0.0634
  183SLPC  H10X20980   5.289   2.765   3.550  0.2842 -0.5320 -1.1048
  183SLPC  H10Y20981   5.278   2.930   3.467 -0.0359  1.9261  1.7059
  183SLPC  C31120982   5.353   2.940   3.662 -0.0080 -0.4207  0.7621
  183SLPC  H11X20983   5.421   3.027   3.652  1.9245 -1.6403  2.5502
  183SLPC  H11Y20984   5.386   2.877   3.747  1.3492 -1.4061 -0.4366
  183SLPC  C31220985   5.215   3.004   3.699 -0.4788  0.3658 -0.2301
  183SLPC  H12X20986   5.144   2.928   3.736  0.0970 -0.4282 -0.7365
  183SLPC  H12Y20987   5.183   3.058   3.608  0.2523  0.1321 -0.6314
  183SLPC  C31320988   5.228   3.112   3.809 -0.8436  0.4085 -0.4025
  183SLPC  H13X20989   5.295   3.194   3.776 -0.6450  0.9318  1.2101
  183SLPC  H13Y20990   5.259   3.056   3.900 -0.1446 -3.1658 -2.6284
  183SLPC  C31420991   5.098   3.184   3.835  0.4418  0.5355  0.6140
  183SLPC  H14X20992   5.021   3.105   3.843  1.2538 -0.1793  1.7483
  183SLPC  H14Y20993   5.079   3.249   3.747  0.7577 -1.7072 -1.1975
  183SLPC  C31520994   5.110   3.279   3.956 -0.2463 -0.1988 -0.2964
  183SLPC  H15X20995   5.167   3.368   3.923  1.2969 -0.4189  1.5849
  183SLPC  H15Y20996   5.163   3.227   4.039 -1.2785 -1.8865 -0.6500
  183SLPC  C31620997   4.967   3.323   4.015  0.6000  0.3475  0.0189
  183SLPC  H16X20998   4.899   3.235   4.021  0.8910  0.1316  0.1773
  183SLPC  H16Y20999   4.925   3.401   3.948  0.8533  2.0004  1.6853
  183SLPC  C31721000   4.975   3.363   4.163 -0.1530 -0.5595 -0.0387
  183SLPC  H17X21001   5.035   3.456   4.158  1.3171 -1.5202 -1.8462
  183SLPC  H17Y21002   5.028   3.282   4.218 -0.7488 -0.4416  0.7105
  183SLPC  C31821003   4.835   3.386   4.220 -0.6471  0.2883 -0.2232
  183SLPC  H18X21004   4.774   3.295   4.199 -2.3833  1.3039  0.3029
  183SLPC  H18Y21005   4.796   3.481   4.180  0.2250  0.9183  0.3789
  183SLPC  H18Z21006   4.863   3.386   4.327  0.0733  0.2732 -0.4054
  184SLPC     N21007   5.722   1.696   2.034  0.1258 -0.2144 -0.9822
  184SLPC   C1321008   5.663   1.739   2.165  0.0935  0.0841  0.1896
  184SLPC  H13A21009   5.745   1.783   2.220  0.3134  1.2369 -1.0022
  184SLPC  H13B21010   5.580   1.807   2.153 -0.1927  0.4501  3.2870
  184SLPC  H13C21011   5.636   1.651   2.221  1.6165  0.3300  1.3700
  184SLPC   C1421012   5.615   1.640   1.944 -0.2209 -0.0488 -0.2533
  184SLPC  H14A21013   5.542   1.578   1.994 -1.9123  1.3339 -0.9366
  184SLPC  H14B21014   5.559   1.725   1.909 -0.2380  0.5651  1.1989
  184SLPC  H14C21015   5.657   1.587   1.859  0.3326 -2.8511  1.6279
  184SLPC   C1521016   5.815   1.578   2.073  0.0953  0.1329  0.1471
  184SLPC  H15A21017   5.904   1.606   2.128 -0.8201 -0.6992  2.1771
  184SLPC  H15B21018   5.759   1.518   2.143 -3.1146  1.0149 -1.4653
  184SLPC  H15C21019   5.852   1.524   1.987 -0.3735  0.4007 -0.2290
  184SLPC   C1221020   5.802   1.812   1.975  0.3061 -0.4038  0.0737
  184SLPC  H12A21021   5.737   1.891   1.942 -0.3838  0.1026  2.4653
  184SLPC  H12B21022   5.836   1.766   1.883 -2.7478 -1.5669 -0.5870
  184SLPC   C1121023   5.915   1.869   2.061 -0.4697 -0.0979  0.1841
  184SLPC  H11A21024   5.884   1.918   2.156  2.8631  2.5096  0.1445
  184SLPC  H11B21025   5.957   1.957   2.008 -3.1333  2.5429  2.1330
  184SLPC     P21026   6.169   1.810   2.095  0.2123 -0.1393 -0.1925
  184SLPC   O1321027   6.233   1.706   2.181  0.3623  0.0586  0.7802
  184SLPC   O1421028   6.210   1.825   1.954 -0.5875 -0.4764  0.4153
  184SLPC   O1221029   6.015   1.771   2.103 -0.6795  0.5595 -0.4652
  184SLPC   O1121030   6.168   1.952   2.163 -0.0511 -0.3413  0.3839
  184SLPC    C121031   6.116   1.977   2.294 -0.1922  0.0840 -0.3647
  184SLPC    HA21032   6.028   2.045   2.292 -1.8269 -1.9305 -0.3097
  184SLPC    HB21033   6.075   1.883   2.337  0.9666 -0.3629 -0.2023
  184SLPC    C221034   6.222   2.036   2.394  0.2469 -0.2604 -0.5503
  184SLPC    HS21035   6.295   1.955   2.417  0.2667 -0.0926 -0.0076
  184SLPC   O2121036   6.148   2.082   2.512  0.1132 -0.6542  0.3035
  184SLPC   C2121037   6.162   1.996   2.612 -1.1170  0.2570 -0.4569
  184SLPC   O2221038   6.225   1.894   2.604  0.7739  0.4857  0.2884
  184SLPC   C2221039   6.069   2.029   2.729 -0.3764 -0.7522  0.0028
  184SLPC   H2R21040   6.043   2.136   2.718 -1.0568 -0.8681  0.4163
  184SLPC   H2S21041   5.980   1.966   2.706  0.7725 -1.6924 -2.1304
  184SLPC    C321042   6.303   2.148   2.329  0.0930 -0.0689  0.3096
  184SLPC    HX21043   6.235   2.223   2.285  0.9629  0.8056  0.4081
  184SLPC    HY21044   6.374   2.100   2.258 -1.1497  0.3832 -1.2855
  184SLPC   O3121045   6.386   2.208   2.434 -0.0298  0.1286  0.8322
  184SLPC   C3121046   6.347   2.315   2.488  0.3553  0.7318 -0.1594
  184SLPC   O3221047   6.255   2.387   2.456  0.7659  0.1209  0.0851
  184SLPC   C3221048   6.423   2.329   2.618  0.4407  0.8693  0.6450
  184SLPC   H2X21049   6.528   2.330   2.580 -0.6268 -1.0284 -2.9124
  184SLPC   H2Y21050   6.409   2.236   2.677  0.7157  0.5888  0.2797
  184SLPC   C2321051   6.115   1.985   2.870 -0.1228  0.5039  0.1065
  184SLPC   H3R21052   6.192   2.056   2.907 -1.0945  0.4908  2.3233
  184SLPC   H3S21053   6.172   1.891   2.861 -0.0330  0.6002 -0.3369
  184SLPC   C2421054   5.998   1.966   2.971 -0.1748 -0.0669  0.4684
  184SLPC   H4R21055   5.940   1.873   2.956 -2.3274  1.2874  0.0056
  184SLPC   H4S21056   5.924   2.047   2.958 -2.6256 -2.5963 -3.3300
  184SLPC   C2521057   6.049   1.957   3.118  0.8051 -0.5747  0.1046
  184SLPC   H5R21058   6.088   2.058   3.145  0.7031 -0.1318 -1.3309
  184SLPC   H5S21059   6.133   1.884   3.118  0.2094 -1.3729  2.5747
  184SLPC   C2621060   5.947   1.912   3.223 -0.0988 -0.4089  0.2018
  184SLPC   H6R21061   5.907   1.815   3.188  1.2944 -0.4093 -1.5574
  184SLPC   H6S21062   5.860   1.981   3.225 -0.3670 -0.5148 -2.8903
  184SLPC   C2721063   6.016   1.893   3.361  0.4136  0.4634  0.5776
  184SLPC   H7R21064   6.072   1.984   3.390 -2.0634  1.8648  1.2518
  184SLPC   H7S21065   6.077   1.800   3.365 -0.9090 -0.4037  1.4517
  184SLPC   C2821066   5.910   1.893   3.475 -0.7174  0.4773  0.3024
  184SLPC   H8R21067   5.822   1.832   3.446 -0.7874 -0.7026  2.7051
  184SLPC   H8S21068   5.866   1.992   3.497 -1.6579 -0.2514  1.9104
  184SLPC   C2921069   5.975   1.832   3.602 -1.2079 -0.1928  0.3500
  184SLPC   H9R21070   5.990   1.724   3.589  0.5994  0.1489 -0.6205
  184SLPC  C21021071   6.011   1.895   3.716 -0.1535 -0.2873  0.0800
  184SLPC  H10R21072   6.070   1.845   3.794  1.7462  0.6199 -0.7074
  184SLPC  C21121073   6.005   2.047   3.720 -0.2544  0.2305  0.6486
  184SLPC  H11R21074   5.920   2.095   3.667  0.1362  1.0248  0.7145
  184SLPC  H11S21075   6.096   2.084   3.667 -0.7223 -1.0610 -1.1633
  184SLPC  C21221076   5.990   2.094   3.861 -0.0265 -0.2207  1.0191
  184SLPC  H12R21077   5.890   2.074   3.901 -0.4570  1.8676  1.1062
  184SLPC  C21321078   6.068   2.176   3.932 -0.4033  1.0496 -0.0062
  184SLPC  H13R21079   6.049   2.192   4.039  0.7284 -3.2781  1.0359
  184SLPC  C21421080   6.208   2.215   3.886  0.1886  0.0223  0.6910
  184SLPC  H14R21081   6.238   2.134   3.817 -1.7395 -0.5301  0.4219
  184SLPC  H14S21082   6.279   2.218   3.971  0.1601  0.7427  0.6948
  184SLPC  C21521083   6.213   2.360   3.824  0.1056 -0.4951 -0.7049
  184SLPC  H15R21084   6.180   2.434   3.901 -0.8210 -1.1553 -0.4491
  184SLPC  H15S21085   6.145   2.362   3.737 -1.6473 -1.3834  0.5778
  184SLPC  C21621086   6.347   2.401   3.761  0.0572  0.7062  0.8137
  184SLPC  H16R21087   6.379   2.312   3.702 -2.7714  1.3634 -1.9995
  184SLPC  H16S21088   6.426   2.421   3.837  0.8255 -1.2869  0.6224
  184SLPC  C21721089   6.346   2.529   3.665 -0.0804  0.2712  0.3548
  184SLPC  H17R21090   6.331   2.621   3.726  0.9581  1.9900 -1.8200
  184SLPC  H17S21091   6.256   2.514   3.602 -0.2059 -1.5852  0.9403
  184SLPC  C21821092   6.481   2.553   3.587  0.3690  0.0802 -0.3670
  184SLPC  H18R21093   6.511   2.466   3.525 -0.3913 -0.2835 -0.2371
  184SLPC  H18S21094   6.550   2.576   3.671 -0.2269  1.8752 -0.3199
  184SLPC  H18T21095   6.466   2.640   3.519  0.8228 -1.1938 -2.1493
  184SLPC   C3321096   6.389   2.450   2.699 -0.2354 -0.0739  0.6988
  184SLPC   H3X21097   6.372   2.532   2.625  0.9845 -1.8688 -1.7116
  184SLPC   H3Y21098   6.475   2.494   2.754 -1.5302  0.7585  2.1352
  184SLPC   C3421099   6.278   2.428   2.808 -0.4262  0.6402 -0.2597
  184SLPC   H4X21100   6.188   2.374   2.772 -0.5863  0.1933  0.7658
  184SLPC   H4Y21101   6.240   2.528   2.841 -2.0630 -0.3974  1.1467
  184SLPC   C3521102   6.324   2.345   2.932 -0.3336 -0.8297  0.6238
  184SLPC   H5X21103   6.427   2.372   2.964 -0.7493  0.9374  0.5998
  184SLPC   H5Y21104   6.331   2.236   2.914 -0.4858 -0.6048 -0.9991
  184SLPC   C3621105   6.236   2.381   3.053  0.3514 -0.2674 -0.1588
  184SLPC   H6X21106   6.136   2.343   3.023  0.9612 -2.4462  0.4224
  184SLPC   H6Y21107   6.220   2.490   3.066  0.4891 -0.4350  1.7373
  184SLPC   C3721108   6.279   2.312   3.180 -0.2393 -0.2940  0.7296
  184SLPC   H7X21109   6.387   2.335   3.194  0.7573 -4.0641  0.2127
  184SLPC   H7Y21110   6.268   2.202   3.174 -0.0906 -0.2453 -0.8782
  184SLPC   C3821111   6.206   2.368   3.308  0.5605 -0.3035  0.1081
  184SLPC   H8X21112   6.203   2.478   3.321 -0.1357  0.4207 -4.2956
  184SLPC   H8Y21113   6.265   2.329   3.393  0.1489 -2.7048 -0.6142
  184SLPC   C3921114   6.063   2.314   3.306 -0.1507  0.2526  0.4257
  184SLPC   H9X21115   6.057   2.213   3.259 -1.1700  0.5276 -0.0484
  184SLPC   H9Y21116   6.000   2.384   3.247 -2.3702 -2.5871 -0.8274
  184SLPC  C31021117   6.015   2.286   3.451  0.0810  0.5796 -0.2319
  184SLPC  H10X21118   6.095   2.242   3.514 -0.5761  0.4443  0.5188
  184SLPC  H10Y21119   5.920   2.229   3.444 -0.8217  1.8104  1.4125
  184SLPC  C31121120   5.970   2.426   3.499 -0.0094 -0.1135 -1.0004
  184SLPC  H11X21121   5.952   2.493   3.412 -0.5217  1.8775  0.5535
  184SLPC  H11Y21122   6.054   2.467   3.561 -0.2887 -0.4750 -0.3734
  184SLPC  C31221123   5.846   2.427   3.589 -0.1492  0.3016 -0.0270
  184SLPC  H12X21124   5.854   2.341   3.659  0.5502  1.1916  1.0085
  184SLPC  H12Y21125   5.760   2.411   3.520 -0.5080 -1.6088  0.7839
  184SLPC  C31321126   5.825   2.562   3.657 -0.0064  0.3369 -0.6870
  184SLPC  H13X21127   5.811   2.648   3.588  2.8713  1.6457  0.1833
  184SLPC  H13Y21128   5.914   2.591   3.717  0.1669  2.6653 -1.9694
  184SLPC  C31421129   5.701   2.547   3.754 -0.1377 -0.3872  0.2435
  184SLPC  H14X21130   5.723   2.485   3.843  2.3792 -0.6125 -0.4355
  184SLPC  H14Y21131   5.614   2.502   3.702 -1.6471  2.6755 -0.1639
  184SLPC  C31521132   5.667   2.682   3.814 -0.4257  0.6401  0.7225
  184SLPC  H15X21133   5.656   2.753   3.729 -1.9397 -0.9268 -0.4944
  184SLPC  H15Y21134   5.755   2.714   3.873  2.1503  0.7811 -2.8310
  184SLPC  C31621135   5.542   2.674   3.903 -0.7300 -0.3051 -0.5766
  184SLPC  H16X21136   5.546   2.589   3.974 -1.2252 -1.3046 -1.6970
  184SLPC  H16Y21137   5.445   2.665   3.850 -2.2822  0.8887  1.8814
  184SLPC  C31721138   5.529   2.806   3.985 -0.0097 -0.4356 -0.3796
  184SLPC  H17X21139   5.525   2.885   3.906  4.4042 -2.5664 -3.1109
  184SLPC  H17Y21140   5.624   2.828   4.037 -1.0184  1.4607  0.7984
  184SLPC  C31821141   5.407   2.800   4.072 -0.1110  0.1624  0.2209
  184SLPC  H18X21142   5.422   2.860   4.165 -0.9333  1.1608 -0.2653
  184SLPC  H18Y21143   5.381   2.700   4.112 -1.2778  0.2043 -0.3787
  184SLPC  H18Z21144   5.323   2.844   4.015 -0.2804  0.1111  0.4289
  185POPC     N21145   1.366   5.765   6.863  1.0151  0.2469 -0.7405
  185POPC   C1221146   1.368   5.912   6.816  0.5247  0.3535  0.0487
  185POPC  H12A21147   1.430   5.975   6.878  1.2561  1.7862 -2.0037
  185POPC  H12B21148   1.265   5.943   6.824  1.1925  3.2418 -1.1956
  185POPC   C1321149   1.260   5.690   6.789 -1.0568 -0.1632 -0.6831
  185POPC  H13A21150   1.262   5.584   6.808  0.8267 -0.2648 -1.1948
  185POPC  H13B21151   1.164   5.732   6.815 -0.7547  0.5475 -0.6925
  185POPC  H13C21152   1.264   5.719   6.685 -1.4405 -0.1703 -0.7018
  185POPC   C1421153   1.498   5.704   6.835 -0.6041  0.0903  0.3164
  185POPC  H14A21154   1.530   5.707   6.732  0.9549  1.0586  0.7937
  185POPC  H14B21155   1.569   5.769   6.884  0.4011 -0.7363 -0.0115
  185POPC  H14C21156   1.516   5.606   6.877 -2.7691  0.5866  2.6614
  185POPC   C1521157   1.335   5.763   7.007 -0.1508  0.2387 -0.3162
  185POPC  H15A21158   1.406   5.825   7.059 -1.1397 -0.0019  1.3986
  185POPC  H15B21159   1.350   5.665   7.049  3.1327  0.5711 -0.5004
  185POPC  H15C21160   1.237   5.806   7.021 -0.0489  1.1342 -2.0679
  185POPC   C1121161   1.407   5.948   6.669  0.3954  0.0887 -0.3809
  185POPC  H11A21162   1.494   5.886   6.641 -1.1759 -2.4250 -0.0079
  185POPC  H11B21163   1.440   6.053   6.654  0.9705  0.0061  0.3158
  185POPC     P21164   1.165   5.990   6.589 -0.2599 -0.0516  0.0590
  185POPC   O1321165   1.169   6.077   6.469 -0.1036  0.1994  0.5785
  185POPC   O1421166   1.141   6.053   6.726 -0.8723 -0.4018 -0.0327
  185POPC   O1221167   1.296   5.905   6.584 -0.2730 -0.3441  0.0657
  185POPC   O1121168   1.052   5.874   6.584  0.0521 -0.2930 -0.6510
  185POPC    C121169   1.010   5.831   6.450 -1.1760 -0.0700 -0.0633
  185POPC    HA21170   1.099   5.811   6.387  0.1092 -0.3018  1.7487
  185POPC    HB21171   0.946   5.909   6.404  0.4131  0.8757 -0.7782
  185POPC    C221172   0.927   5.702   6.443  0.0693  0.2063 -0.0716
  185POPC    HS21173   0.844   5.724   6.513  0.6013  1.2969  0.2300
  185POPC   O2121174   1.011   5.593   6.488 -0.1551  0.3457 -0.2287
  185POPC   C2121175   0.937   5.488   6.526  0.1392 -0.7838 -0.2637
  185POPC   O2221176   0.817   5.476   6.524  0.4710 -0.0656  0.1311
  185POPC   C2221177   1.029   5.369   6.563  0.4836 -0.2105  0.6068
  185POPC   H2R21178   0.979   5.271   6.547 -1.2619  0.4998  1.4692
  185POPC   H2S21179   1.043   5.380   6.673  2.0903 -2.0447  0.6491
  185POPC    C321180   0.870   5.669   6.299  0.0232 -0.0460  0.1918
  185POPC    HX21181   0.830   5.566   6.294  1.7003 -0.8266  1.7253
  185POPC    HY21182   0.961   5.656   6.236 -0.6332 -0.3083 -0.7184
  185POPC   O3121183   0.787   5.773   6.240 -0.0765 -0.2817 -0.0321
  185POPC   C3121184   0.659   5.752   6.266 -0.1970 -0.2948 -0.3210
  185POPC   O3221185   0.609   5.663   6.330 -0.1788 -0.4307 -0.7775
  185POPC   C3221186   0.581   5.855   6.176  0.2958 -0.6558 -0.2232
  185POPC   H2X21187   0.586   5.956   6.223  1.2376 -1.8840  2.5562
  185POPC   H2Y21188   0.473   5.837   6.157  0.1465  0.7788 -0.8638
  185POPC   C2321189   1.169   5.367   6.492  0.5765  0.0161  0.1490
  185POPC   H3R21190   1.232   5.291   6.543  1.7729  0.9826  0.1427
  185POPC   H3S21191   1.217   5.467   6.482 -0.6293  0.4753 -1.4723
  185POPC   C2421192   1.146   5.294   6.357  0.1603 -0.5199  0.0757
  185POPC   H4R21193   1.055   5.331   6.305  0.9153  0.1758 -0.7687
  185POPC   H4S21194   1.119   5.187   6.372 -2.0006  0.0221  0.3256
  185POPC   C2521195   1.256   5.314   6.257 -0.1789  0.1556  0.1288
  185POPC   H5R21196   1.338   5.245   6.289 -0.7809 -0.0027  1.4042
  185POPC   H5S21197   1.309   5.411   6.260 -1.1162  0.7453 -1.3619
  185POPC   C2621198   1.212   5.291   6.109 -0.4575 -0.6067 -0.0491
  185POPC   H6R21199   1.137   5.366   6.077  0.5414 -0.4921 -2.3568
  185POPC   H6S21200   1.167   5.190   6.098  2.7842 -2.5901  2.7607
  185POPC   C2721201   1.338   5.301   6.017  0.7150  0.0351 -0.8876
  185POPC   H7R21202   1.426   5.292   6.083  1.5310  3.1112 -1.4150
  185POPC   H7S21203   1.351   5.395   5.960 -0.4477 -0.5173 -2.1269
  185POPC   C2821204   1.344   5.190   5.909  0.2399 -0.4406 -0.5169
  185POPC   H8R21205   1.344   5.089   5.953  0.0785 -0.3396 -0.2849
  185POPC   H8S21206   1.444   5.207   5.862  0.6536 -0.1247  0.4511
  185POPC   C2921207   1.232   5.199   5.809  0.0149  1.3479 -0.3743
  185POPC   H9121208   1.130   5.182   5.846  0.4271  1.6622  0.9683
  185POPC  C21021209   1.255   5.230   5.678  0.0160 -0.4750  0.3627
  185POPC  H10121210   1.167   5.236   5.613  0.0589  2.5789  0.4322
  185POPC  C21121211   1.381   5.257   5.603  0.2520 -0.5472  0.1235
  185POPC  H11R21212   1.474   5.251   5.663  0.0304 -1.0890  0.4193
  185POPC  H11S21213   1.382   5.353   5.546  1.8380 -1.7532 -2.0514
  185POPC  C21221214   1.384   5.166   5.477 -0.3175  0.1220  0.0331
  185POPC  H12R21215   1.367   5.062   5.510 -1.6343  0.4089  0.3058
  185POPC  H12S21216   1.484   5.177   5.429 -0.2019  0.3727  0.3286
  185POPC  C21321217   1.274   5.196   5.374  0.2923  0.2623  0.2185
  185POPC  H13R21218   1.278   5.303   5.346 -1.1956  1.2942  3.5137
  185POPC  H13S21219   1.171   5.187   5.412  0.0369  0.1159 -0.4829
  185POPC  C21421220   1.281   5.114   5.239 -0.3317 -0.0396 -0.3224
  185POPC  H14R21221   1.200   5.159   5.178 -0.3115 -1.1270 -1.1908
  185POPC  H14S21222   1.256   5.009   5.267  0.1514  0.2875  1.4641
  185POPC  C21521223   1.413   5.113   5.157  0.1149 -0.3967 -0.0774
  185POPC  H15R21224   1.490   5.082   5.230 -0.9376 -2.2678  0.2895
  185POPC  H15S21225   1.430   5.220   5.131 -1.0917 -0.1877 -0.0916
  185POPC  C21621226   1.403   5.031   5.031 -0.1039  0.3042 -0.5651
  185POPC  H16R21227   1.367   4.927   5.047 -0.6097  0.3710 -1.2308
  185POPC  H16S21228   1.502   5.021   4.981 -0.0535  1.5885 -0.7520
  185POPC  C21721229   1.321   5.087   4.916 -0.4212 -0.4513 -0.2039
  185POPC  H17R21230   1.380   5.169   4.870 -1.2925  0.2460 -0.1082
  185POPC  H17S21231   1.232   5.146   4.945  1.2066  1.7287  0.6423
  185POPC  C21821232   1.274   4.992   4.813  0.1561 -0.6428 -0.2295
  185POPC  H18R21233   1.360   4.929   4.782  0.3420 -0.4992 -0.0050
  185POPC  H18S21234   1.242   5.052   4.725 -0.7916  0.1717  0.6576
  185POPC  H18T21235   1.188   4.930   4.847 -1.2341  0.1478 -2.0719
  185POPC   C3321236   0.650   5.875   6.036 -0.1009  0.6611 -0.3998
  185POPC   H3X21237   0.700   5.782   6.003  0.9281  0.6015  1.2254
  185POPC   H3Y21238   0.729   5.951   6.051  0.7080 -0.4228  1.0446
  185POPC   C3421239   0.559   5.925   5.919  0.9035 -0.2206 -0.1413
  185POPC   H4X21240   0.503   6.017   5.950  0.9914  0.4513 -1.8559
  185POPC   H4Y21241   0.482   5.855   5.880 -2.1846  2.7916  0.0530
  185POPC   C3521242   0.630   5.973   5.794 -0.2869 -0.0478  0.2672
  185POPC   H5X21243   0.703   6.051   5.824 -0.0108 -0.2449  0.1196
  185POPC   H5Y21244   0.553   6.017   5.727 -2.7358 -2.4391  1.3238
  185POPC   C3621245   0.723   5.864   5.734 -0.0659 -0.6981  0.2606
  185POPC   H6X21246   0.678   5.768   5.700 -0.6943 -0.2030 -0.3317
  185POPC   H6Y21247   0.790   5.839   5.819  0.3998  0.9183  0.3889
  185POPC   C3721248   0.814   5.913   5.619  0.4132 -0.3052  0.0972
  185POPC   H7X21249   0.913   5.863   5.628 -0.5698 -2.3377  0.2678
  185POPC   H7Y21250   0.839   6.021   5.621  0.4440 -0.2451 -1.6302
  185POPC   C3821251   0.746   5.880   5.486 -0.7641  0.9853 -0.4656
  185POPC   H8X21252   0.656   5.944   5.478 -1.6876 -0.2758 -0.4670
  185POPC   H8Y21253   0.703   5.778   5.489  1.1938  0.0397 -2.3844
  185POPC   C3921254   0.839   5.884   5.363  0.1071  0.8258  0.5947
  185POPC   H9X21255   0.924   5.813   5.362 -0.2959  0.3210 -0.8458
  185POPC   H9Y21256   0.865   5.991   5.359 -0.0658  0.8712 -3.1340
  185POPC  C31021257   0.751   5.857   5.233  0.4724  0.6064  0.0550
  185POPC  H10X21258   0.669   5.932   5.240  2.0985  2.3023  2.0821
  185POPC  H10Y21259   0.710   5.754   5.243 -1.5523  1.3274 -0.2395
  185POPC  C31121260   0.831   5.874   5.105  1.1465  0.3832 -0.1408
  185POPC  H11X21261   0.908   5.794   5.100  2.2226  1.4637 -1.8389
  185POPC  H11Y21262   0.881   5.973   5.106  0.6458  0.6380  0.0796
  185POPC  C31221263   0.749   5.865   4.971  0.5333 -0.3673 -0.2844
  185POPC  H12X21264   0.715   5.762   4.947  3.2313 -0.9151 -2.2994
  185POPC  H12Y21265   0.819   5.888   4.887  0.2269  2.4081  0.1263
  185POPC  C31321266   0.635   5.964   4.969  0.4234  0.9401  0.8613
  185POPC  H13X21267   0.662   6.070   4.982 -0.5882  1.2290  0.7453
  185POPC  H13Y21268   0.565   5.922   5.045  0.3242 -0.6925 -0.0670
  185POPC  C31421269   0.546   5.948   4.841  0.0550  0.2940  0.1900
  185POPC  H14X21270   0.469   6.028   4.850  0.1323  0.5587 -1.1866
  185POPC  H14Y21271   0.494   5.852   4.820 -0.5083  0.7250 -0.4624
  185POPC  C31521272   0.630   5.979   4.713 -0.5522 -0.7313  0.2157
  185POPC  H15X21273   0.695   5.892   4.692  0.8473  0.2444  0.3607
  185POPC  H15Y21274   0.697   6.067   4.727  1.3631 -2.1395  0.2913
  185POPC  C31621275   0.552   6.006   4.585  0.1813  0.7008 -0.2719
  185POPC  H16X21276   0.473   6.084   4.588  0.3084  0.8593 -0.8006
  185POPC  H16Y21277   0.508   5.908   4.560  0.4673  0.5515 -0.1925
  185POPC  H16Z21278   0.624   6.031   4.503  0.8296  1.3454  0.4686
  186POPC     N21279   3.376   5.261   6.922 -0.4071 -0.2034 -0.1889
  186POPC   C1221280   3.466   5.325   6.814 -0.5150  0.3921  0.3863
  186POPC  H12A21281   3.454   5.268   6.723 -2.6540 -1.6170  1.7993
  186POPC  H12B21282   3.571   5.310   6.837 -0.6620 -0.2148  0.7044
  186POPC   C1321283   3.392   5.113   6.928  0.3137  0.6569  0.2387
  186POPC  H13A21284   3.485   5.080   6.972 -0.0899 -0.4625  0.2602
  186POPC  H13B21285   3.311   5.071   6.984  1.6074  0.4337  2.0146
  186POPC  H13C21286   3.389   5.070   6.829  0.5693  2.6174 -0.6784
  186POPC   C1421287   3.420   5.311   7.057  0.3037  0.5249 -0.0890
  186POPC  H14A21288   3.386   5.250   7.139  0.0095  1.1462  0.2561
  186POPC  H14B21289   3.527   5.308   7.070  0.3987  1.5524 -0.4949
  186POPC  H14C21290   3.383   5.412   7.067 -4.3917 -1.1296  2.4009
  186POPC   C1521291   3.240   5.302   6.899 -0.2009  0.0787 -0.5945
  186POPC  H15A21292   3.188   5.262   6.814 -1.6720 -0.4077  0.4872
  186POPC  H15B21293   3.241   5.410   6.897  1.9619  0.1072 -2.1655
  186POPC  H15C21294   3.182   5.279   6.987  0.4135 -0.7323 -0.3894
  186POPC   C1121295   3.440   5.472   6.755 -0.0044  0.6036 -0.3902
  186POPC  H11A21296   3.352   5.479   6.688 -0.1133  1.8224 -0.1480
  186POPC  H11B21297   3.522   5.492   6.683 -0.6236  1.9262 -0.7659
  186POPC     P21298   3.578   5.626   6.920 -0.2858 -0.0773  0.2035
  186POPC   O1321299   3.676   5.512   6.926 -0.3380  0.2987 -0.6564
  186POPC   O1421300   3.542   5.686   7.043  0.3254  0.6938 -0.1862
  186POPC   O1221301   3.447   5.577   6.845  0.1933  0.9655 -0.1859
  186POPC   O1121302   3.640   5.728   6.830 -0.0054 -0.4075 -1.0215
  186POPC    C121303   3.577   5.854   6.806  0.2077 -0.5017 -0.2848
  186POPC    HA21304   3.650   5.937   6.818  0.0903 -0.3127 -0.8426
  186POPC    HB21305   3.493   5.875   6.876 -1.5935  1.5954 -2.8527
  186POPC    C221306   3.536   5.864   6.655  0.4738  0.2704 -0.3684
  186POPC    HS21307   3.516   5.971   6.633 -0.4779  0.3879  0.9583
  186POPC   O2121308   3.421   5.783   6.633  0.4701  0.1564 -0.4546
  186POPC   C2121309   3.338   5.826   6.544 -0.0667 -0.6472  0.3151
  186POPC   O2221310   3.341   5.934   6.484  0.5345 -0.6416  0.1791
  186POPC   C2221311   3.233   5.723   6.518  0.6237 -0.0777 -0.6942
  186POPC   H2R21312   3.170   5.729   6.610  3.3830  1.8365  1.2484
  186POPC   H2S21313   3.284   5.626   6.509 -0.6527 -0.6542 -2.2332
  186POPC    C321314   3.651   5.826   6.554  0.2069 -0.2698 -0.0012
  186POPC    HX21315   3.657   5.715   6.553 -2.7115 -0.5046  0.4617
  186POPC    HY21316   3.741   5.879   6.592  0.3932  1.6631 -2.8174
  186POPC   O3121317   3.626   5.863   6.418  0.0421 -0.4625  0.5005
  186POPC   C3121318   3.657   5.994   6.388  0.1836 -0.9156  0.5076
  186POPC   O3221319   3.689   6.075   6.471  0.1072 -0.8419  0.7542
  186POPC   C3221320   3.621   6.027   6.243  0.1450  0.0557 -0.1567
  186POPC   H2X21321   3.518   6.002   6.212  0.5414  0.3040 -1.7737
  186POPC   H2Y21322   3.686   5.964   6.178  2.0087 -1.2718  2.7987
  186POPC   C2321323   3.147   5.752   6.400  0.1100 -0.1596  0.8915
  186POPC   H3R21324   3.113   5.858   6.398  0.5945 -0.0095 -0.5723
  186POPC   H3S21325   3.057   5.689   6.388  0.7767 -0.6552 -2.3898
  186POPC   C2421326   3.221   5.719   6.264 -0.7886 -0.3015 -0.7578
  186POPC   H4R21327   3.239   5.609   6.263 -2.1840 -0.5771  0.4783
  186POPC   H4S21328   3.316   5.776   6.255  0.2821 -2.1719 -2.0851
  186POPC   C2521329   3.140   5.767   6.145  0.6489 -0.5604  0.2671
  186POPC   H5R21330   3.122   5.876   6.155 -1.4097 -0.8526  0.1792
  186POPC   H5S21331   3.040   5.718   6.145  0.3718 -0.0379 -1.1525
  186POPC   C2621332   3.209   5.730   6.014 -0.5767  1.1008  0.5920
  186POPC   H6R21333   3.140   5.747   5.928  1.8635  0.2497 -1.6843
  186POPC   H6S21334   3.240   5.623   6.008  1.6998  1.7662 -0.7189
  186POPC   C2721335   3.336   5.808   5.973 -0.0414 -0.8352  0.2084
  186POPC   H7R21336   3.417   5.788   6.046 -0.0213  0.1387  0.4723
  186POPC   H7S21337   3.315   5.917   5.983 -2.3244 -1.0936 -1.1296
  186POPC   C2821338   3.380   5.782   5.818  0.1920  0.2498 -0.1230
  186POPC   H8R21339   3.284   5.790   5.763 -0.1438 -0.6313  0.3098
  186POPC   H8S21340   3.412   5.676   5.806 -1.6688 -0.3910  0.2255
  186POPC   C2921341   3.481   5.882   5.769  0.4443  0.3285 -0.1251
  186POPC   H9121342   3.585   5.860   5.797  0.5791 -0.5314 -1.2150
  186POPC  C21021343   3.451   5.990   5.693  0.4285 -0.4006  0.1971
  186POPC  H10121344   3.530   6.063   5.667  0.7895 -0.2950  1.5089
  186POPC  C21121345   3.307   6.033   5.660 -0.0404  0.0809 -0.6159
  186POPC  H11R21346   3.285   6.142   5.651 -0.2021  0.0584 -0.5013
  186POPC  H11S21347   3.233   5.992   5.732 -1.3016 -0.7959 -2.3268
  186POPC  C21221348   3.283   5.967   5.520  0.0528 -0.1269 -0.1848
  186POPC  H12R21349   3.191   6.021   5.488 -0.7148 -0.0158  2.0244
  186POPC  H12S21350   3.269   5.858   5.536 -1.4277  0.5667  5.5063
  186POPC  C21321351   3.391   6.007   5.415  0.3440 -0.0921  0.2487
  186POPC  H13R21352   3.480   5.947   5.443  0.8241  0.9829  1.1512
  186POPC  H13S21353   3.416   6.115   5.427 -1.5653  0.4656 -0.3986
  186POPC  C21421354   3.367   5.984   5.263 -0.0267  0.4916  0.0968
  186POPC  H14R21355   3.372   5.874   5.248 -0.5903  0.3731  0.7497
  186POPC  H14S21356   3.454   6.020   5.204  0.4240 -1.2718 -0.3903
  186POPC  C21521357   3.242   6.048   5.214  0.4015 -0.0787 -0.2094
  186POPC  H15R21358   3.238   6.154   5.247  1.2748  0.3257 -1.3572
  186POPC  H15S21359   3.149   6.000   5.252 -0.4688  2.1847  0.7436
  186POPC  C21621360   3.232   6.029   5.063 -0.0705  0.6709  0.1855
  186POPC  H16R21361   3.326   6.048   5.007 -0.0011  3.7730  1.1501
  186POPC  H16S21362   3.166   6.111   5.028  0.8034  1.3127 -0.0177
  186POPC  C21721363   3.158   5.897   5.025 -0.5967  0.3343  0.2001
  186POPC  H17R21364   3.069   5.908   5.091 -0.8029 -0.5150  0.0755
  186POPC  H17S21365   3.215   5.805   5.048  0.6193  1.1580  0.5673
  186POPC  C21821366   3.111   5.909   4.882 -0.3014 -0.9604  0.4160
  186POPC  H18R21367   3.033   5.987   4.880 -0.3342 -1.0026 -1.2042
  186POPC  H18S21368   3.072   5.814   4.840  0.0177 -1.3016  0.8713
  186POPC  H18T21369   3.192   5.942   4.813 -1.2153 -0.3981 -0.3987
  186POPC   C3321370   3.648   6.178   6.207 -1.0561  0.2306 -0.3157
  186POPC   H3X21371   3.742   6.212   6.255 -0.1706 -0.4543 -1.5213
  186POPC   H3Y21372   3.569   6.242   6.254 -2.3886 -0.8746 -0.9860
  186POPC   C3421373   3.649   6.195   6.062 -0.2414  0.5591 -0.3478
  186POPC   H4X21374   3.572   6.131   6.014 -0.7499 -0.0677  1.2296
  186POPC   H4Y21375   3.749   6.160   6.028  0.1578 -0.0278  1.3290
  186POPC   C3521376   3.622   6.332   6.016 -0.3928 -0.5285 -0.6536
  186POPC   H5X21377   3.654   6.398   6.099 -0.6082 -0.4507 -0.6315
  186POPC   H5Y21378   3.516   6.365   6.006  0.2816  2.6975  1.3923
  186POPC   C3621379   3.702   6.376   5.887  0.2327 -0.0433 -0.3788
  186POPC   H6X21380   3.805   6.342   5.908 -0.3467 -2.9875 -1.7967
  186POPC   H6Y21381   3.715   6.484   5.864  3.0175 -0.2587 -0.0978
  186POPC   C3721382   3.660   6.309   5.754 -0.0864  0.8518 -0.2240
  186POPC   H7X21383   3.557   6.330   5.720  0.4493  2.3033 -1.0463
  186POPC   H7Y21384   3.678   6.201   5.772 -0.6020  0.2832 -2.7523
  186POPC   C3821385   3.755   6.337   5.640 -0.1382 -0.2016  0.6322
  186POPC   H8X21386   3.859   6.345   5.679  0.0515  0.7510 -0.0266
  186POPC   H8Y21387   3.735   6.435   5.593  1.9941  0.1791  0.4093
  186POPC   C3921388   3.752   6.219   5.538  0.0341 -0.7267 -0.3845
  186POPC   H9X21389   3.646   6.209   5.506 -0.8181 -0.7697  2.2207
  186POPC   H9Y21390   3.782   6.128   5.595  0.1670  1.4236  3.2266
  186POPC  C31021391   3.843   6.252   5.421 -0.2835  0.0680  0.1911
  186POPC  H10X21392   3.943   6.285   5.457  0.1478 -0.5396 -0.4200
  186POPC  H10Y21393   3.788   6.336   5.373 -1.5125 -1.7493 -1.7675
  186POPC  C31121394   3.837   6.146   5.314 -0.0347 -0.2766 -0.4300
  186POPC  H11X21395   3.741   6.141   5.258  0.1735 -0.8049 -0.7472
  186POPC  H11Y21396   3.863   6.046   5.355 -3.0122 -0.0516  2.3477
  186POPC  C31221397   3.943   6.184   5.210  0.2806  0.1980 -0.1492
  186POPC  H12X21398   3.950   6.093   5.146 -3.8355 -0.5598  0.1815
  186POPC  H12Y21399   4.045   6.205   5.247 -0.6249  1.6663  1.6576
  186POPC  C31321400   3.909   6.307   5.120 -0.3350 -0.1429 -0.0673
  186POPC  H13X21401   3.955   6.398   5.162  0.6896 -0.5667 -0.2467
  186POPC  H13Y21402   3.799   6.326   5.115 -0.1315  1.3443  0.8343
  186POPC  C31421403   3.964   6.282   4.978  0.2970  0.0389 -0.1210
  186POPC  H14X21404   3.924   6.190   4.930  0.5670 -1.3099  2.0882
  186POPC  H14Y21405   4.073   6.263   4.975  0.4207  0.7150 -2.5804
  186POPC  C31521406   3.939   6.398   4.886 -0.0876 -0.6288 -0.4908
  186POPC  H15X21407   4.016   6.475   4.908 -0.1155 -0.9264  0.7273
  186POPC  H15Y21408   3.842   6.448   4.908  0.7995  1.3607 -0.8868
  186POPC  C31621409   3.926   6.356   4.741 -0.2270  0.6583 -0.5209
  186POPC  H16X21410   4.024   6.319   4.704  0.2491  1.8431 -0.4917
  186POPC  H16Y21411   3.902   6.447   4.681  3.6043  1.6353 -0.8742
  186POPC  H16Z21412   3.848   6.278   4.729  2.2251 -1.9215 -0.7388
  187POPC     N21413   6.005   5.500   1.667  0.1009 -0.6181 -0.1647
  187POPC   C1221414   5.916   5.621   1.708 -0.5066  0.0885  0.3534
  187POPC  H12A21415   5.813   5.590   1.721 -0.2312 -0.6432  0.8062
  187POPC  H12B21416   5.916   5.699   1.634  1.3917  0.2427  0.4785
  187POPC   C1321417   6.153   5.534   1.658  0.1691  0.2064  0.0255
  187POPC  H13A21418   6.223   5.464   1.615  1.3602  1.2258  0.2716
  187POPC  H13B21419   6.158   5.626   1.603 -2.0874 -0.0360 -0.7090
  187POPC  H13C21420   6.186   5.563   1.756 -0.3172 -0.8194  0.5135
  187POPC   C1421421   5.998   5.382   1.760  0.8436 -0.0436  0.5507
  187POPC  H14A21422   5.895   5.357   1.777  0.6192  1.2969  1.3039
  187POPC  H14B21423   6.050   5.300   1.713  0.8171  0.3718 -0.2137
  187POPC  H14C21424   6.039   5.406   1.858 -1.4739  0.9622  1.3506
  187POPC   C1521425   5.954   5.444   1.534  0.5528  0.1884  0.4998
  187POPC  H15A21426   5.942   5.514   1.453 -0.9372 -0.2891  0.2834
  187POPC  H15B21427   5.858   5.397   1.551 -0.5089  2.2474  0.4258
  187POPC  H15C21428   6.026   5.369   1.504  0.5854 -0.1178  1.3047
  187POPC   C1121429   5.947   5.688   1.849 -0.6825 -0.2713 -0.2891
  187POPC  H11A21430   5.948   5.611   1.928 -3.1347 -0.2683 -0.1794
  187POPC  H11B21431   5.861   5.755   1.873  0.4188  0.8576  0.6123
  187POPC     P21432   6.178   5.770   1.944  0.1310 -0.4946 -0.4554
  187POPC   O1321433   6.220   5.911   1.959  0.5390 -0.0057 -0.0648
  187POPC   O1421434   6.277   5.677   1.895 -1.1700  0.4841 -0.0591
  187POPC   O1221435   6.063   5.775   1.840 -0.1429  0.4881  0.1761
  187POPC   O1121436   6.113   5.719   2.075  0.6077  0.3649  0.6972
  187POPC    C121437   6.047   5.814   2.160  0.6518  0.5716 -1.2222
  187POPC    HA21438   5.946   5.771   2.180  1.9516 -2.6936 -0.9706
  187POPC    HB21439   6.038   5.915   2.115 -1.7413  0.8917 -0.1596
  187POPC    C221440   6.125   5.823   2.298 -0.3093 -0.0250  0.1429
  187POPC    HS21441   6.228   5.853   2.271  0.0837 -0.5271  1.0289
  187POPC   O2121442   6.122   5.696   2.363 -0.1073 -0.2318 -0.4563
  187POPC   C2121443   6.231   5.617   2.343  0.4431 -0.2894 -0.7718
  187POPC   O2221444   6.323   5.644   2.268 -0.5514  0.6183 -0.8037
  187POPC   C2221445   6.226   5.497   2.427 -0.1035 -0.3690  0.2658
  187POPC   H2R21446   6.329   5.461   2.448 -1.2087 -3.5477  0.7961
  187POPC   H2S21447   6.192   5.414   2.362  1.3865 -1.2506  0.5606
  187POPC    C321448   6.059   5.937   2.383 -0.5148  0.3833 -0.6375
  187POPC    HX21449   5.952   5.910   2.382 -0.8313  1.0613  2.7281
  187POPC    HY21450   6.085   6.026   2.322  0.4317 -0.9950 -2.3357
  187POPC   O3121451   6.105   5.950   2.521  0.7867 -0.1006  0.2170
  187POPC   C3121452   6.071   6.062   2.581 -0.3125 -0.3366 -0.0544
  187POPC   O3221453   6.020   6.160   2.527  0.5413  0.2464  0.2474
  187POPC   C3221454   6.103   6.072   2.731  0.1937  0.4323 -0.3029
  187POPC   H2X21455   6.063   6.168   2.772  0.8938  0.6499 -0.1107
  187POPC   H2Y21456   6.212   6.083   2.717  0.1539  1.3021  0.0259
  187POPC   C2321457   6.131   5.492   2.554  0.0377 -0.6507  0.0477
  187POPC   H3R21458   6.031   5.536   2.531  0.5474  0.1564 -0.6749
  187POPC   H3S21459   6.175   5.558   2.631 -0.3359 -0.6046  0.2250
  187POPC   C2421460   6.116   5.353   2.619  0.5186  0.0548 -0.0367
  187POPC   H4R21461   6.214   5.315   2.655 -1.4127 -3.3625  2.2314
  187POPC   H4S21462   6.077   5.272   2.554 -0.2171 -1.0728  1.7094
  187POPC   C2521463   6.029   5.349   2.745 -0.7453  0.0492 -0.3566
  187POPC   H5R21464   5.925   5.386   2.731 -1.1109 -1.0152 -0.5488
  187POPC   H5S21465   6.079   5.416   2.818  2.3872 -1.7414 -0.7161
  187POPC   C2621466   6.016   5.209   2.805 -0.3182  0.1156 -0.3916
  187POPC   H6R21467   6.021   5.210   2.916  2.8813  0.8452 -0.4587
  187POPC   H6S21468   6.101   5.151   2.765 -1.1133 -2.8449  1.8269
  187POPC   C2721469   5.882   5.142   2.776 -0.6115 -0.2259 -0.3220
  187POPC   H7R21470   5.856   5.151   2.668  0.1601  4.0283 -0.3157
  187POPC   H7S21471   5.801   5.196   2.829  2.0440  1.8681  1.8984
  187POPC   C2821472   5.884   4.990   2.827 -0.2621 -0.6073  0.1466
  187POPC   H8R21473   5.914   5.002   2.933  0.3855 -0.3034 -0.0657
  187POPC   H8S21474   5.961   4.944   2.760 -1.0340 -1.5976 -0.0832
  187POPC   C2921475   5.748   4.935   2.796 -0.3060 -0.4802  0.0561
  187POPC   H9121476   5.754   4.876   2.703 -0.3849  2.4302 -1.9398
  187POPC  C21021477   5.630   4.937   2.859 -0.0733 -0.3492 -0.1708
  187POPC  H10121478   5.545   4.886   2.810 -0.0091 -1.1311  0.4990
  187POPC  C21121479   5.624   5.004   2.996 -0.0388 -0.5290  0.6322
  187POPC  H11R21480   5.522   5.047   2.992  0.7982  1.5437 -3.2909
  187POPC  H11S21481   5.694   5.090   2.996  0.7779 -1.1679  1.7920
  187POPC  C21221482   5.637   4.905   3.119  0.1140 -0.2496 -0.3186
  187POPC  H12R21483   5.721   4.833   3.127  1.4985  1.4778  2.5222
  187POPC  H12S21484   5.552   4.837   3.101  1.0612 -0.9774 -2.3845
  187POPC  C21321485   5.628   4.967   3.264  0.6987 -0.1213  0.0280
  187POPC  H13R21486   5.540   5.035   3.252  0.4500  0.1882  2.9111
  187POPC  H13S21487   5.712   5.034   3.290 -0.2157  1.4899 -1.0063
  187POPC  C21421488   5.619   4.861   3.372  0.6341 -0.2170  0.0372
  187POPC  H14R21489   5.712   4.802   3.383  0.6663 -0.0363  0.7545
  187POPC  H14S21490   5.529   4.795   3.364  1.0935 -0.7139 -1.4991
  187POPC  C21521491   5.582   4.929   3.506 -0.1645 -0.8138  0.7359
  187POPC  H15R21492   5.547   4.845   3.570  1.4839 -3.3271 -1.4519
  187POPC  H15S21493   5.504   5.006   3.490  0.2902 -0.2678  1.0985
  187POPC  C21621494   5.696   4.985   3.587 -0.2675  0.3387  0.7940
  187POPC  H16R21495   5.758   5.061   3.535 -0.8182  1.2851  1.4645
  187POPC  H16S21496   5.760   4.903   3.624 -0.1219  0.0708 -0.0333
  187POPC  C21721497   5.636   5.043   3.718 -0.1737 -0.0558 -0.0489
  187POPC  H17R21498   5.716   5.075   3.788  0.2230 -0.2170 -0.4179
  187POPC  H17S21499   5.575   4.966   3.769 -0.8552 -0.3105 -1.2061
  187POPC  C21821500   5.546   5.166   3.700  1.1827  0.0315 -0.2232
  187POPC  H18R21501   5.602   5.251   3.653  0.1348  0.1860 -1.2397
  187POPC  H18S21502   5.522   5.201   3.802 -1.0852  0.0673 -0.7161
  187POPC  H18T21503   5.453   5.141   3.645 -0.5561  0.7975  2.2349
  187POPC   C3321504   6.074   5.963   2.829  0.2334 -0.1492  0.0255
  187POPC   H3X21505   6.119   5.867   2.797  1.5395  0.8411 -1.2580
  187POPC   H3Y21506   5.964   5.955   2.823 -0.1383  0.9492  3.3901
  187POPC   C3421507   6.106   5.998   2.975  0.3199  0.5646  0.4765
  187POPC   H4X21508   6.057   5.916   3.031  0.7221 -1.0352 -1.4037
  187POPC   H4Y21509   6.060   6.096   3.001 -0.8751 -0.1411  1.0644
  187POPC   C3521510   6.253   6.006   2.996 -0.8959  0.1823 -0.1679
  187POPC   H5X21511   6.302   6.062   2.914  0.1179  0.2336  0.4542
  187POPC   H5Y21512   6.294   5.905   3.014 -0.4013  0.0796 -1.7397
  187POPC   C3621513   6.290   6.068   3.133  0.5008  0.4535  0.0935
  187POPC   H6X21514   6.289   6.179   3.130  0.1006  0.7697  4.6526
  187POPC   H6Y21515   6.394   6.047   3.165  1.9248  0.8156 -3.8229
  187POPC   C3721516   6.197   6.033   3.251 -0.1203 -0.3564 -0.4057
  187POPC   H7X21517   6.203   5.922   3.258 -3.3341 -0.5952  0.2852
  187POPC   H7Y21518   6.092   6.065   3.233 -0.3730 -1.2662 -0.5644
  187POPC   C3821519   6.238   6.103   3.385  0.2447 -0.4274  0.2903
  187POPC   H8X21520   6.339   6.064   3.408  0.9844  0.4521 -1.2441
  187POPC   H8Y21521   6.167   6.063   3.460  1.8530  1.2291  2.8792
  187POPC   C3921522   6.217   6.247   3.392  0.8874 -0.5158 -0.1170
  187POPC   H9X21523   6.109   6.265   3.371  1.0424 -0.8309 -1.2329
  187POPC   H9Y21524   6.277   6.300   3.315 -0.9238  2.2794  0.2434
  187POPC  C31021525   6.239   6.310   3.527  0.4653  0.3366 -0.0011
  187POPC  H10X21526   6.348   6.328   3.540  0.2894  0.7735  1.0064
  187POPC  H10Y21527   6.212   6.234   3.604  1.7024 -0.1335 -0.0038
  187POPC  C31121528   6.150   6.434   3.552  0.4115  0.2701 -0.1702
  187POPC  H11X21529   6.041   6.415   3.543  0.6579 -3.0907  2.0184
  187POPC  H11Y21530   6.175   6.515   3.480 -0.3531  0.3038 -0.4026
  187POPC  C31221531   6.172   6.495   3.696  0.0798  0.8788 -0.4271
  187POPC  H12X21532   6.141   6.601   3.700  0.0942  0.8613  0.5112
  187POPC  H12Y21533   6.278   6.498   3.730 -0.3447 -2.8293  1.8789
  187POPC  C31321534   6.099   6.408   3.803  0.3981  0.3269 -0.5959
  187POPC  H13X21535   6.141   6.305   3.800  0.7486  0.4342  0.2620
  187POPC  H13Y21536   5.991   6.395   3.784  0.6405  2.0590 -3.9061
  187POPC  C31421537   6.121   6.453   3.947  0.1049  0.0816 -0.3409
  187POPC  H14X21538   6.087   6.559   3.958  0.0968  0.0678 -0.2351
  187POPC  H14Y21539   6.228   6.453   3.978 -0.3385  1.0807  1.3692
  187POPC  C31521540   6.033   6.371   4.053  0.5904 -0.1504  0.3301
  187POPC  H15X21541   6.073   6.269   4.072 -1.1482 -0.9010  0.0876
  187POPC  H15Y21542   5.930   6.346   4.021  0.0782 -1.2556  2.6347
  187POPC  C31621543   6.018   6.445   4.186 -0.0552  0.7504  1.6747
  187POPC  H16X21544   6.037   6.372   4.268  0.8906  0.8152  1.5175
  187POPC  H16Y21545   5.909   6.465   4.198 -1.4805 -2.2081 -3.1939
  187POPC  H16Z21546   6.086   6.531   4.196  0.8993  0.2119  0.1769
  188POPC     N21547   5.559   4.618   1.851 -0.0476  0.2181  0.4479
  188POPC   C1221548   5.496   4.702   1.954 -0.0196 -0.3608  0.3531
  188POPC  H12A21549   5.394   4.668   1.952  0.1538 -0.8533 -0.4116
  188POPC  H12B21550   5.506   4.808   1.937  0.1127 -0.2151  1.2754
  188POPC   C1321551   5.496   4.634   1.711  0.0391  0.4371 -0.8233
  188POPC  H13A21552   5.540   4.560   1.645 -1.2914 -1.3934  0.2464
  188POPC  H13B21553   5.392   4.606   1.710 -0.4091  1.8864  0.8597
  188POPC  H13C21554   5.508   4.733   1.671 -1.2654  0.9716  0.0471
  188POPC   C1421555   5.709   4.652   1.842 -0.5047 -1.0575 -0.1182
  188POPC  H14A21556   5.746   4.641   1.943 -1.4427  1.9840  0.6791
  188POPC  H14B21557   5.751   4.579   1.775 -1.0054 -1.6658  0.2197
  188POPC  H14C21558   5.738   4.753   1.815 -0.0346 -1.0772  0.2962
  188POPC   C1521559   5.556   4.474   1.883 -0.0254 -0.7719  0.1405
  188POPC  H15A21560   5.613   4.461   1.973  0.0933  2.8699  0.7312
  188POPC  H15B21561   5.600   4.422   1.799 -0.6645  1.1380 -1.4605
  188POPC  H15C21562   5.460   4.424   1.888  0.2597 -1.3918 -0.3369
  188POPC   C1121563   5.552   4.672   2.095 -0.1909  0.1843 -0.6098
  188POPC  H11A21564   5.562   4.563   2.112  0.3749 -0.1652 -2.9086
  188POPC  H11B21565   5.484   4.696   2.180  1.0448 -0.8422  0.7112
  188POPC     P21566   5.677   4.889   2.143 -0.1380  0.0800 -0.7136
  188POPC   O1321567   5.544   4.952   2.129 -0.4281  0.0178 -0.3767
  188POPC   O1421568   5.788   4.941   2.057  0.7050  0.3336  0.1474
  188POPC   O1221569   5.675   4.735   2.119 -0.1039 -0.2618  0.2699
  188POPC   O1121570   5.718   4.899   2.299  0.2626 -0.1698  0.3186
  188POPC    C121571   5.636   4.846   2.398  0.7832 -0.3483  0.2912
  188POPC    HA21572   5.683   4.826   2.497 -0.2572  0.6192  1.0121
  188POPC    HB21573   5.592   4.750   2.364  0.2752  0.5403 -1.6773
  188POPC    C221574   5.517   4.940   2.433 -0.3409  0.2093  0.0165
  188POPC    HS21575   5.459   4.966   2.342  3.3832 -0.0603 -2.6616
  188POPC   O2121576   5.576   5.059   2.490 -0.2750  0.0180 -0.0652
  188POPC   C2121577   5.534   5.179   2.455  0.2010 -0.7015 -0.4202
  188POPC   O2221578   5.440   5.203   2.383  0.6475  0.1338  0.3593
  188POPC   C2221579   5.618   5.292   2.515 -0.7332 -0.6630  0.8027
  188POPC   H2R21580   5.649   5.350   2.425 -1.0480 -1.5929  0.0756
  188POPC   H2S21581   5.708   5.256   2.570 -0.5710 -2.2594 -0.4231
  188POPC    C321582   5.430   4.873   2.541  0.2175 -0.3269  0.2352
  188POPC    HX21583   5.501   4.808   2.597  1.0686  0.2066 -0.1917
  188POPC    HY21584   5.366   4.800   2.488  0.9923 -0.4649 -0.5384
  188POPC   O3121585   5.351   4.967   2.618  0.0443  0.4592  0.0329
  188POPC   C3121586   5.231   5.002   2.562 -0.8292 -0.0577  0.4433
  188POPC   O3221587   5.192   4.953   2.458 -0.1543  0.2923 -0.0803
  188POPC   C3221588   5.170   5.112   2.640  0.0772 -0.0591 -0.9310
  188POPC   H2X21589   5.145   5.199   2.575 -1.0935  1.9159  1.9707
  188POPC   H2Y21590   5.245   5.146   2.714  0.1579 -0.3274 -0.8880
  188POPC   C2321591   5.536   5.381   2.601 -0.2703 -0.3155  0.4507
  188POPC   H3R21592   5.433   5.399   2.564 -0.4592 -1.9128  0.1117
  188POPC   H3S21593   5.576   5.484   2.608  0.8948 -0.6757 -0.4911
  188POPC   C2421594   5.520   5.337   2.749 -0.5303  0.0483  0.2650
  188POPC   H4R21595   5.620   5.357   2.792 -0.2080  0.1862 -0.5339
  188POPC   H4S21596   5.501   5.228   2.746  0.8250 -0.2374  1.3527
  188POPC   C2521597   5.407   5.401   2.835  0.6124  0.1187 -0.6631
  188POPC   H5R21598   5.310   5.383   2.783  0.1918  3.1662 -1.0977
  188POPC   H5S21599   5.406   5.509   2.859 -0.1836 -0.4741  2.4148
  188POPC   C2621600   5.391   5.321   2.968  0.2136  0.0764  0.5939
  188POPC   H6R21601   5.375   5.216   2.937 -2.3260  0.6465 -0.2442
  188POPC   H6S21602   5.297   5.359   3.014 -0.4254 -1.1625  0.3568
  188POPC   C2721603   5.516   5.341   3.059 -0.0002  0.4047 -0.3589
  188POPC   H7R21604   5.601   5.292   3.007  0.0011  1.7006 -1.6557
  188POPC   H7S21605   5.500   5.279   3.149  0.3167  1.0876  0.1694
  188POPC   C2821606   5.531   5.484   3.097 -0.3751  0.3964 -0.1169
  188POPC   H8R21607   5.566   5.547   3.013 -1.6445  1.6580  0.2531
  188POPC   H8S21608   5.619   5.489   3.165 -0.3144  0.3128 -0.1900
  188POPC   C2921609   5.399   5.545   3.161  0.0200  0.3454 -0.1276
  188POPC   H9121610   5.301   5.542   3.110  0.2000  0.5489 -0.4912
  188POPC  C21021611   5.393   5.575   3.291  0.2664  0.1640 -0.1117
  188POPC  H10121612   5.301   5.616   3.335  1.4222  0.7292  1.8758
  188POPC  C21121613   5.506   5.560   3.390  0.1975 -0.4554 -0.0868
  188POPC  H11R21614   5.590   5.629   3.363  0.6398  0.3273  2.8601
  188POPC  H11S21615   5.545   5.457   3.382  1.4620 -0.0097 -0.0201
  188POPC  C21221616   5.483   5.599   3.541  0.6946  0.0086  0.8032
  188POPC  H12R21617   5.426   5.516   3.588  0.8256 -1.4409 -1.4806
  188POPC  H12S21618   5.426   5.694   3.542 -0.0041 -0.4008  0.5529
  188POPC  C21321619   5.607   5.600   3.623 -0.4552  0.6557  0.4606
  188POPC  H13R21620   5.691   5.657   3.578 -1.6810  3.4131  1.4560
  188POPC  H13S21621   5.636   5.495   3.646  0.2931  0.6160 -0.6019
  188POPC  C21421622   5.589   5.665   3.761  0.1887  0.2081  0.5527
  188POPC  H14R21623   5.486   5.647   3.797  0.5810  1.0102  2.1630
  188POPC  H14S21624   5.611   5.774   3.762  0.1810  0.2352  3.0634
  188POPC  C21521625   5.678   5.591   3.871  0.4251  0.1808 -0.5307
  188POPC  H15R21626   5.705   5.677   3.936 -0.4088  0.2696 -0.2814
  188POPC  H15S21627   5.768   5.557   3.816 -0.8776  0.7627 -3.2463
  188POPC  C21621628   5.604   5.479   3.947  0.0624 -0.8132  0.9703
  188POPC  H16R21629   5.673   5.393   3.962  0.5015 -0.7279 -0.3965
  188POPC  H16S21630   5.519   5.453   3.880  0.0853  1.7966 -0.1992
  188POPC  C21721631   5.549   5.526   4.080 -0.2799  0.0273 -0.1069
  188POPC  H17R21632   5.485   5.615   4.061 -0.0402 -0.0117 -1.1923
  188POPC  H17S21633   5.630   5.567   4.142  1.2620 -0.3876 -1.7692
  188POPC  C21821634   5.479   5.410   4.154 -0.4319 -0.1078 -0.0013
  188POPC  H18R21635   5.386   5.390   4.097 -0.4499 -0.7022  0.2273
  188POPC  H18S21636   5.442   5.451   4.251  0.5246  0.0306  0.3086
  188POPC  H18T21637   5.554   5.329   4.148  0.4210  0.7606 -2.1184
  188POPC   C3321638   5.038   5.082   2.713  0.7267 -0.3637  0.7455
  188POPC   H3X21639   4.969   5.080   2.627  1.1386  1.1234  0.3565
  188POPC   H3Y21640   5.014   5.170   2.776 -3.0464 -0.1934 -0.6712
  188POPC   C3421641   5.030   4.949   2.801  0.0777  0.6344 -0.0750
  188POPC   H4X21642   5.042   4.868   2.726  3.4696  1.9423 -1.1485
  188POPC   H4Y21643   4.928   4.948   2.845 -0.0053 -0.8338 -0.2705
  188POPC   C3521644   5.138   4.929   2.911 -0.0525 -0.2853 -0.2207
  188POPC   H5X21645   5.146   5.035   2.941  0.9739 -0.0640 -1.2190
  188POPC   H5Y21646   5.240   4.896   2.880  0.1418 -0.0124  0.1254
  188POPC   C3621647   5.086   4.856   3.033 -0.3431 -0.0332 -0.1888
  188POPC   H6X21648   5.103   4.747   3.020 -0.7252 -0.1591  0.3603
  188POPC   H6Y21649   4.976   4.868   3.038 -0.5152 -1.2618 -0.6253
  188POPC   C3721650   5.147   4.908   3.165  0.6941 -0.0174  0.1832
  188POPC   H7X21651   5.144   5.019   3.169  1.0418 -0.0402  1.7160
  188POPC   H7Y21652   5.256   4.885   3.163  1.3076  2.4509  1.3863
  188POPC   C3821653   5.079   4.840   3.283  0.4960 -0.6243  0.4557
  188POPC   H8X21654   5.096   4.733   3.259 -0.9752 -0.5370 -1.1927
  188POPC   H8Y21655   4.973   4.871   3.270  0.3002 -1.0834  0.9145
  188POPC   C3921656   5.143   4.884   3.420  0.0180  0.2519 -0.2666
  188POPC   H9X21657   5.154   4.994   3.420 -1.7558  0.4644 -1.4167
  188POPC   H9Y21658   5.238   4.832   3.443 -0.4948  0.5390  2.9955
  188POPC  C31021659   5.051   4.844   3.532 -0.1363 -0.1489  0.0722
  188POPC  H10X21660   5.029   4.735   3.529  0.6630 -0.4207  2.3740
  188POPC  H10Y21661   4.950   4.891   3.537 -0.1312 -0.2554  1.9267
  188POPC  C31121662   5.122   4.861   3.670 -0.7634  0.7390 -0.0484
  188POPC  H11X21663   5.138   4.971   3.677 -1.9031  1.1071 -2.2702
  188POPC  H11Y21664   5.211   4.796   3.676 -2.5668 -1.9624 -0.9521
  188POPC  C31221665   5.033   4.827   3.793 -0.3209 -0.2800 -0.1587
  188POPC  H12X21666   5.016   4.717   3.795  1.9642 -0.7675 -2.4070
  188POPC  H12Y21667   4.935   4.877   3.785 -0.2613 -0.1928 -0.3535
  188POPC  C31321668   5.097   4.884   3.928 -0.4894  0.1238  0.2628
  188POPC  H13X21669   5.137   4.988   3.922  0.3739 -0.1680  0.8926
  188POPC  H13Y21670   5.191   4.832   3.955  0.0160  1.3871  1.0703
  188POPC  C31421671   4.999   4.849   4.041 -0.2833 -0.5567  0.4393
  188POPC  H14X21672   4.980   4.739   4.038  0.6155 -0.6905 -1.4537
  188POPC  H14Y21673   4.910   4.908   4.011 -0.5225 -1.2781 -0.3259
  188POPC  C31521674   5.050   4.898   4.180  0.7926  0.1242  0.0265
  188POPC  H15X21675   5.081   5.005   4.173 -2.0326  0.9129 -4.3092
  188POPC  H15Y21676   5.136   4.844   4.226  2.1795  1.9392 -0.3217
  188POPC  C31621677   4.940   4.885   4.285 -0.2422  0.2636 -0.1013
  188POPC  H16X21678   4.859   4.961   4.275 -0.6695  0.5131  3.7655
  188POPC  H16Y21679   4.979   4.911   4.385 -1.0205  1.5149 -0.0955
  188POPC  H16Z21680   4.901   4.782   4.293 -1.2275  0.4864 -1.6459
  189SAPI   C1221681   2.373   5.365   7.118 -0.8487 -0.1869 -0.3584
  189SAPI    H221682   2.315   5.304   7.190  0.9172 -0.7303  0.6688
  189SAPI    O221683   2.314   5.488   7.098 -0.0209 -0.1403 -0.4305
  189SAPI   HO221684   2.226   5.486   7.134 -0.7263 -1.1690 -2.0987
  189SAPI   C1321685   2.515   5.371   7.176  0.1944 -0.0824 -0.3099
  189SAPI    H321686   2.551   5.269   7.201 -0.0976  0.2760  1.7740
  189SAPI    O321687   2.516   5.438   7.304  0.3330 -0.2794  0.2072
  189SAPI   HO321688   2.494   5.528   7.280 -1.8061 -0.2714  1.9296
  189SAPI   C1421689   2.615   5.437   7.078  0.8496 -0.2013 -0.2342
  189SAPI    H421690   2.577   5.542   7.072  1.2053 -0.0576  0.0147
  189SAPI    O421691   2.748   5.447   7.129  0.3149  0.0278 -0.2822
  189SAPI   HO421692   2.805   5.503   7.077  1.2815 -0.9095 -0.2550
  189SAPI   C1521693   2.606   5.367   6.944 -0.2007 -0.3535 -0.2346
  189SAPI    H521694   2.642   5.263   6.962  0.7006 -0.0099 -0.0133
  189SAPI    O521695   2.688   5.429   6.840 -0.2038 -0.0546  0.4613
  189SAPI   HO521696   2.760   5.372   6.814 -1.0851 -0.7217 -0.5850
  189SAPI   C1621697   2.463   5.352   6.886 -0.0097  0.0377  0.2422
  189SAPI    H621698   2.438   5.455   6.854 -0.3629 -0.4679 -1.1909
  189SAPI    O621699   2.468   5.274   6.766 -0.2608 -0.3610  0.6772
  189SAPI   HO621700   2.496   5.336   6.699  1.8796 -1.8871  0.0246
  189SAPI   C1121701   2.367   5.298   6.983  0.1920 -0.2576 -0.6386
  189SAPI    H121702   2.405   5.197   7.007 -0.6945 -0.3457  0.4746
  189SAPI     P21703   2.117   5.185   6.981  0.0763  0.3869 -0.0685
  189SAPI   O1321704   2.017   5.256   7.062  0.7591  0.2014  0.3393
  189SAPI   O1421705   2.184   5.067   7.044  0.8061 -0.0645  0.2767
  189SAPI   O1221706   2.232   5.295   6.934  0.0446 -0.4588  0.7452
  189SAPI   O1121707   2.047   5.132   6.852  0.0343  0.4322  0.3156
  189SAPI    C121708   2.006   5.224   6.745 -0.3202  0.3754 -0.4636
  189SAPI    HA21709   1.918   5.177   6.696  1.5104 -1.5681 -2.0766
  189SAPI    HB21710   1.986   5.328   6.778  2.5155  1.3768 -1.5703
  189SAPI    C221711   2.106   5.238   6.622 -0.4866 -0.3383  0.0555
  189SAPI    HS21712   2.178   5.317   6.652 -2.9502  1.8765  0.4391
  189SAPI   O2121713   2.027   5.275   6.513 -0.0798  0.3117 -0.2318
  189SAPI   C2121714   2.005   5.410   6.506 -0.4921  0.8674  0.0655
  189SAPI   O2221715   2.037   5.488   6.592  0.1232  0.0516  0.4339
  189SAPI   C2221716   1.927   5.444   6.372 -0.8636 -0.2484 -0.7045
  189SAPI   H2R21717   1.967   5.377   6.292  0.8139 -0.5012  0.2932
  189SAPI   H2S21718   1.820   5.420   6.391 -1.3978  1.4574 -1.3468
  189SAPI    C321719   2.184   5.098   6.599  0.4427 -0.2196 -0.0083
  189SAPI    HX21720   2.109   5.023   6.634  0.0276  0.5348  0.7434
  189SAPI    HY21721   2.276   5.093   6.661  0.0342  0.0933  0.6362
  189SAPI   O3121722   2.206   5.079   6.455  0.0091 -0.4350  0.1953
  189SAPI   C3121723   2.312   5.150   6.403 -0.0062 -0.0571  0.4647
  189SAPI   O3221724   2.380   5.223   6.467  0.0397 -0.0145  0.0446
  189SAPI   C3221725   2.341   5.124   6.255 -0.3375 -0.4605  0.1044
  189SAPI   H2X21726   2.263   5.059   6.211 -0.7614  0.5406 -0.6787
  189SAPI   H2Y21727   2.436   5.068   6.248 -0.7093 -0.9986 -0.9789
  189SAPI   C2321728   1.930   5.592   6.330  0.2179 -0.6731  0.1081
  189SAPI   H3R21729   2.028   5.634   6.297 -1.9334  2.4720 -2.9178
  189SAPI   H3S21730   1.900   5.654   6.417 -0.4923 -0.3716 -0.3423
  189SAPI   C2421731   1.836   5.628   6.212  0.6639  0.8242  0.0616
  189SAPI   H4R21732   1.891   5.578   6.130 -0.7891 -0.6389 -0.0749
  189SAPI   H4S21733   1.829   5.739   6.208  2.8094  1.0255  0.7031
  189SAPI   C2521734   1.691   5.573   6.225 -0.4153  0.2964 -0.1982
  189SAPI   H5R21735   1.635   5.593   6.316 -1.8339 -1.2987 -0.6639
  189SAPI   C2621736   1.635   5.482   6.142  0.3867  0.2808  0.5273
  189SAPI   H6R21737   1.538   5.439   6.169 -0.3499  1.4431 -0.2074
  189SAPI   C2721738   1.715   5.414   6.023  0.4161  0.2914  0.8547
  189SAPI   H7R21739   1.671   5.315   5.997  1.2432  0.7461 -2.8091
  189SAPI   H7S21740   1.822   5.401   6.049  0.6997 -0.5530 -0.6004
  189SAPI   C2821741   1.706   5.496   5.893  0.8240  0.1923  0.5989
  189SAPI   H8R21742   1.613   5.553   5.898  0.7694  0.0516  1.3298
  189SAPI   C2921743   1.790   5.501   5.788 -0.0557 -0.5986 -0.0548
  189SAPI   H9R21744   1.766   5.562   5.700  0.3112  0.4614  0.5586
  189SAPI  C21021745   1.919   5.434   5.768  0.3141  0.1721  0.5223
  189SAPI  H10R21746   1.944   5.372   5.857  0.2693  1.6009  1.5596
  189SAPI  H10S21747   2.005   5.503   5.755  0.5694  0.1554  2.0064
  189SAPI  C21121748   1.925   5.340   5.651 -0.2160  0.7629  1.1293
  189SAPI  H11R21749   1.930   5.232   5.672 -4.3344  0.3631  0.8532
  189SAPI  C21221750   1.938   5.383   5.521 -0.3848 -0.3498 -0.1038
  189SAPI  H12R21751   1.930   5.310   5.439  0.3713 -1.4034  0.7225
  189SAPI  C21321752   1.962   5.526   5.477 -0.1790  0.0320  0.4171
  189SAPI  H13R21753   2.058   5.519   5.421  0.0743 -1.0422  0.9557
  189SAPI  H13S21754   1.970   5.583   5.573 -5.5667  0.1922  1.0533
  189SAPI  C21421755   1.852   5.589   5.394 -0.9039 -0.0440  0.1953
  189SAPI  H14R21756   1.773   5.635   5.455 -0.5606  0.5800  0.1769
  189SAPI  C21521757   1.828   5.591   5.263  0.2215 -0.1208  1.0602
  189SAPI  H15R21758   1.738   5.636   5.219  0.2933  0.6723  1.7116
  189SAPI  C21621759   1.926   5.529   5.169 -0.6180  0.0943 -0.4543
  189SAPI  H16R21760   2.028   5.517   5.211 -2.2161 -0.0895  3.8222
  189SAPI  H16S21761   1.929   5.594   5.079 -0.8776 -0.7358 -1.0787
  189SAPI  C21721762   1.869   5.393   5.121 -0.1067 -1.1567  0.3307
  189SAPI  H17R21763   1.826   5.332   5.203  2.0682 -3.9196 -0.4403
  189SAPI  H17S21764   1.954   5.326   5.098  1.6417  0.8338  0.6336
  189SAPI  C21821765   1.763   5.400   5.008  0.1530  0.3761 -0.7858
  189SAPI  H18R21766   1.804   5.474   4.936  2.4596  0.0116  0.0691
  189SAPI  H18S21767   1.666   5.432   5.051 -0.5532 -1.4541 -0.9354
  189SAPI  C21921768   1.762   5.272   4.925  0.3603 -0.0984 -0.7831
  189SAPI  H19R21769   1.732   5.188   4.992 -0.5479  1.3967  0.7617
  189SAPI  H19S21770   1.866   5.251   4.893 -0.2210 -1.9669 -1.5962
  189SAPI  C22021771   1.664   5.271   4.806  0.0300  0.2034 -1.0172
  189SAPI  H20R21772   1.691   5.352   4.735 -1.4993  0.1390 -1.7016
  189SAPI  H20S21773   1.559   5.285   4.839 -0.4731  2.0614 -3.1265
  189SAPI  H20T21774   1.665   5.170   4.761 -0.4880 -0.6023  0.6833
  189SAPI   C3321775   2.360   5.252   6.166 -0.1118  0.4466  0.0195
  189SAPI   H3X21776   2.364   5.208   6.064  0.2698  0.4027  0.0520
  189SAPI   H3Y21777   2.448   5.316   6.187 -0.8759  1.3733  0.4771
  189SAPI   C3421778   2.237   5.338   6.166  0.0973  0.6009  0.5738
  189SAPI   H4X21779   2.202   5.364   6.269 -0.2227  0.8762  0.3954
  189SAPI   H4Y21780   2.157   5.275   6.120  0.6080 -0.9671  1.7186
  189SAPI   C3521781   2.250   5.474   6.087 -0.2988  0.4373  0.3794
  189SAPI   H5X21782   2.341   5.531   6.118  0.1859 -0.5768  0.8936
  189SAPI   H5Y21783   2.158   5.530   6.115 -1.7361 -1.0889 -1.1103
  189SAPI   C3621784   2.247   5.455   5.938  0.0096  1.0985  0.3880
  189SAPI   H6X21785   2.144   5.417   5.918  0.2764 -0.5638  1.9550
  189SAPI   H6Y21786   2.321   5.387   5.890 -1.2615  0.8391 -1.3378
  189SAPI   C3721787   2.266   5.575   5.863  0.0398 -0.3817  0.2976
  189SAPI   H7X21788   2.354   5.636   5.889  1.3820 -1.7996 -0.7028
  189SAPI   H7Y21789   2.167   5.625   5.875  0.5718  0.8812 -0.3828
  189SAPI   C3821790   2.280   5.552   5.715  0.3280  0.0126  0.5617
  189SAPI   H8X21791   2.178   5.543   5.672 -0.4975  1.2088  2.2002
  189SAPI   H8Y21792   2.330   5.455   5.695 -1.7225 -1.3125  1.5590
  189SAPI   C3921793   2.354   5.660   5.634  0.5123  0.7637 -0.1635
  189SAPI   H9X21794   2.458   5.675   5.669  0.1775  1.7213  0.4536
  189SAPI   H9Y21795   2.300   5.756   5.651  0.5992  0.4089  2.7161
  189SAPI  C31021796   2.349   5.622   5.481 -0.3619  0.4275  0.1963
  189SAPI  H10X21797   2.244   5.607   5.449  0.1520 -1.1746 -0.8526
  189SAPI  H10Y21798   2.395   5.523   5.460 -0.9941  0.2234 -0.2576
  189SAPI  C31121799   2.415   5.724   5.391  0.4492  0.1200  0.0009
  189SAPI  H11X21800   2.526   5.714   5.397  0.5313  1.1632  0.4208
  189SAPI  H11Y21801   2.394   5.831   5.413  0.5746  0.4995 -1.5790
  189SAPI  C31221802   2.365   5.695   5.245 -1.0495  0.8424 -0.4551
  189SAPI  H12X21803   2.268   5.749   5.238 -1.9669 -0.5887  0.6573
  189SAPI  H12Y21804   2.344   5.590   5.217 -1.6081  0.8554 -0.1084
  189SAPI  C31321805   2.456   5.767   5.137  0.4764 -0.3873 -0.3609
  189SAPI  H13X21806   2.473   5.874   5.158  1.2175 -0.5868  0.0878
  189SAPI  H13Y21807   2.404   5.748   5.040 -0.7909  0.6368  0.0965
  189SAPI  C31421808   2.594   5.713   5.131 -0.2994 -0.6027 -0.4760
  189SAPI  H14X21809   2.649   5.713   5.227 -2.6835 -0.7746  0.9441
  189SAPI  H14Y21810   2.645   5.795   5.075 -0.3660  1.4085  2.2085
  189SAPI  C31521811   2.620   5.580   5.071 -0.6321 -0.1860 -0.5074
  189SAPI  H15X21812   2.591   5.585   4.964  1.2125 -2.1354 -1.1690
  189SAPI  H15Y21813   2.550   5.509   5.119  0.0841 -0.5858 -0.0321
  189SAPI  C31621814   2.762   5.521   5.095 -0.0124  1.0711 -0.2697
  189SAPI  H16X21815   2.764   5.416   5.058 -0.7654 -0.0574  2.6034
  189SAPI  H16Y21816   2.783   5.520   5.204  2.1663 -1.7746 -0.6082
  189SAPI  C31721817   2.871   5.603   5.024 -0.4222  0.5023  0.1576
  189SAPI  H17X21818   2.899   5.690   5.088 -0.4732  0.5630  0.0976
  189SAPI  H17Y21819   2.843   5.645   4.925  2.5364  1.5514 -0.3456
  189SAPI  C31821820   3.002   5.516   5.006 -0.6130  0.4436  0.0370
  189SAPI  H18X21821   2.983   5.418   4.957  0.2462  0.2723  0.0444
  189SAPI  H18Y21822   3.039   5.483   5.105 -3.0364 -1.2588  0.4806
  189SAPI  H18Z21823   3.085   5.561   4.947  0.6918 -1.0967  0.6338
  190SAPI   C1221824   0.920   2.982   6.678  0.2392 -0.8479  0.5235
  190SAPI    H221825   0.940   2.931   6.582  1.1177 -0.1557  0.3262
  190SAPI    O221826   1.022   2.957   6.772  0.4739  0.3788 -0.0714
  190SAPI   HO221827   1.078   2.886   6.743  0.8823  0.3556  0.7300
  190SAPI   C1321828   0.903   3.132   6.648  0.0408 -0.2067  0.5409
  190SAPI    H321829   0.800   3.149   6.610  0.1801  2.1728  1.1113
  190SAPI    O321830   0.986   3.178   6.550  0.7013  0.2465 -0.2527
  190SAPI   HO321831   0.961   3.135   6.468  0.2622  0.5300 -0.2691
  190SAPI   C1421832   0.910   3.219   6.773 -0.1896 -0.1319  0.1232
  190SAPI    H421833   1.006   3.199   6.825  0.6032 -0.2414 -1.3361
  190SAPI    O421834   0.888   3.356   6.753  0.1254 -0.3240  1.0021
  190SAPI   HO421835   0.975   3.379   6.719 -1.2193  0.0695 -2.5356
  190SAPI   C1521836   0.793   3.165   6.862 -0.1622 -0.0080  0.0429
  190SAPI    H521837   0.705   3.227   6.836 -0.0036  1.4804  2.6646
  190SAPI    O521838   0.808   3.205   6.998  0.0235  0.4253 -0.0454
  190SAPI   HO521839   0.899   3.182   7.018 -0.4249 -0.0777  1.5571
  190SAPI   C1621840   0.737   3.016   6.854 -0.4010  0.6048 -0.2649
  190SAPI    H621841   0.770   2.959   6.944  0.0054  1.2104 -0.0270
  190SAPI    O621842   0.597   3.006   6.868  0.0799  0.1541  0.0153
  190SAPI   HO621843   0.576   2.918   6.835 -3.8738  0.7981  0.3773
  190SAPI   C1121844   0.781   2.935   6.726  0.3341  0.2533 -0.2828
  190SAPI    H121845   0.720   2.964   6.638  1.1936  1.3515 -0.5371
  190SAPI     P21846   0.628   2.708   6.708 -0.1020  0.2503 -0.0111
  190SAPI   O1321847   0.513   2.765   6.784  0.7270 -0.1193  0.1722
  190SAPI   O1421848   0.668   2.569   6.746 -0.2421 -0.1082 -0.6490
  190SAPI   O1221849   0.764   2.790   6.735  0.0709  0.0572 -1.2963
  190SAPI   O1121850   0.607   2.727   6.551  0.3434 -0.0843  0.3925
  190SAPI    C121851   0.727   2.721   6.467  0.1282 -0.3329  0.4749
  190SAPI    HA21852   0.773   2.821   6.451  2.7554 -1.4603  0.4551
  190SAPI    HB21853   0.811   2.663   6.511  1.2660 -1.5715 -2.9784
  190SAPI    C221854   0.708   2.654   6.328  0.1020 -0.2280 -0.5696
  190SAPI    HS21855   0.800   2.659   6.267  0.9741  0.5332  0.7663
  190SAPI   O2121856   0.593   2.711   6.269 -0.3173 -0.4049  0.3804
  190SAPI   C2121857   0.625   2.831   6.213  0.0185 -0.0575 -0.3254
  190SAPI   O2221858   0.736   2.862   6.191  0.5727 -0.5153  0.1668
  190SAPI   C2221859   0.496   2.900   6.167  0.2761  0.0155  0.1060
  190SAPI   H2R21860   0.426   2.905   6.254 -0.6764 -1.6476 -0.5129
  190SAPI   H2S21861   0.518   3.005   6.137  0.6498  1.2878  4.2012
  190SAPI    C321862   0.674   2.505   6.338  0.4314  0.3816  0.2292
  190SAPI    HX21863   0.574   2.493   6.385  1.1275 -0.0860  1.6609
  190SAPI    HY21864   0.756   2.459   6.398  1.1235 -0.0308 -0.9975
  190SAPI   O3121865   0.669   2.446   6.208  0.3965  0.2306  0.7703
  190SAPI   C3121866   0.553   2.403   6.152 -0.4416 -0.0471 -0.3990
  190SAPI   O3221867   0.446   2.416   6.200 -0.1010 -0.2529  0.6213
  190SAPI   C3221868   0.580   2.349   6.008 -0.4267  0.2287 -0.9215
  190SAPI   H2X21869   0.607   2.243   6.025  2.0087  1.0662  1.0826
  190SAPI   H2Y21870   0.663   2.403   5.957  1.8685 -3.7978 -1.9165
  190SAPI   C2321871   0.423   2.818   6.059  0.4843 -0.0228 -0.4779
  190SAPI   H3R21872   0.338   2.881   6.024 -0.4292 -0.4454  0.8834
  190SAPI   H3S21873   0.379   2.725   6.101 -0.4572  0.2193 -0.8912
  190SAPI   C2421874   0.504   2.776   5.938 -0.0970 -0.1329  0.3418
  190SAPI   H4R21875   0.432   2.711   5.884  0.3731 -1.6836  1.4868
  190SAPI   H4S21876   0.583   2.710   5.980 -1.1858 -0.9299  1.1837
  190SAPI   C2521877   0.560   2.896   5.867  0.1871  0.0179 -0.1933
  190SAPI   H5R21878   0.578   2.982   5.934  1.7661  1.4888 -2.3543
  190SAPI   C2621879   0.577   2.911   5.734 -0.4835  0.1331  0.0118
  190SAPI   H6R21880   0.611   3.010   5.702  0.3783  0.1658  0.9974
  190SAPI   C2721881   0.560   2.814   5.621  0.0415  0.7798  0.8169
  190SAPI   H7R21882   0.528   2.860   5.524  0.0508 -0.1073  0.3875
  190SAPI   H7S21883   0.489   2.735   5.652  1.3327 -1.4311 -1.5178
  190SAPI   C2821884   0.690   2.744   5.594  0.2336  0.6334  0.1131
  190SAPI   H8R21885   0.756   2.709   5.675 -0.8844  1.1795  1.2853
  190SAPI   C2921886   0.750   2.747   5.475  0.3125 -0.6989  0.1725
  190SAPI   H9R21887   0.847   2.695   5.472  2.0615  2.1592  2.4211
  190SAPI  C21021888   0.704   2.805   5.341 -0.2539 -0.9162  0.7323
  190SAPI  H10R21889   0.798   2.826   5.286 -0.2220  2.6758  1.8704
  190SAPI  H10S21890   0.666   2.909   5.350 -0.5530 -0.4768 -3.4201
  190SAPI  C21121891   0.608   2.730   5.254 -0.0305  0.3713  0.0150
  190SAPI  H11R21892   0.534   2.678   5.317  0.5240  0.4255  0.7310
  190SAPI  C21221893   0.597   2.723   5.120  0.3380 -0.4422 -0.4587
  190SAPI  H12R21894   0.517   2.659   5.082 -0.3460 -0.2083  0.5435
  190SAPI  C21321895   0.695   2.790   5.025 -0.4398 -0.0528  0.2173
  190SAPI  H13R21896   0.783   2.834   5.076  0.0416  0.5886 -1.1406
  190SAPI  H13S21897   0.651   2.875   4.968  0.4258 -0.9368 -1.8735
  190SAPI  C21421898   0.737   2.682   4.930  0.0108 -0.2870  0.4078
  190SAPI  H14R21899   0.747   2.581   4.972  0.3316  0.1904  1.5201
  190SAPI  C21521900   0.779   2.704   4.803 -0.2544 -0.0597 -0.1994
  190SAPI  H15R21901   0.807   2.618   4.740 -2.3666 -1.1484  0.2817
  190SAPI  C21621902   0.800   2.836   4.733 -0.0346 -0.3449 -0.3769
  190SAPI  H16R21903   0.827   2.913   4.809 -0.1072 -0.6479 -0.0362
  190SAPI  H16S21904   0.710   2.878   4.685  0.7162 -0.9289 -2.3691
  190SAPI  C21721905   0.914   2.835   4.639 -0.6630 -0.0426 -0.7431
  190SAPI  H17R21906   0.907   2.739   4.584 -0.8665  0.3414 -1.4062
  190SAPI  H17S21907   1.013   2.838   4.689  0.5532  0.8615 -3.0192
  190SAPI  C21821908   0.909   2.954   4.548  0.2898  0.0643  0.3691
  190SAPI  H18R21909   0.894   3.051   4.600  0.7441  1.5628 -2.1292
  190SAPI  H18S21910   0.823   2.937   4.480 -0.7997  1.5082  1.3180
  190SAPI  C21921911   1.039   2.971   4.472 -0.1568 -0.0714 -0.7834
  190SAPI  H19R21912   1.118   2.999   4.546  0.5232  4.4179 -2.8689
  190SAPI  H19S21913   1.030   3.061   4.408  0.5990 -0.7567 -1.8893
  190SAPI  C22021914   1.094   2.860   4.373  0.5528  0.4913 -0.5257
  190SAPI  H20R21915   1.001   2.834   4.318 -1.4479  1.4648  2.1487
  190SAPI  H20S21916   1.116   2.767   4.429  0.2825 -0.4473 -1.9516
  190SAPI  H20T21917   1.170   2.907   4.307 -0.6622  2.7533 -0.4377
  190SAPI   C3321918   0.467   2.372   5.908  0.2636 -0.0300  0.0507
  190SAPI   H3X21919   0.458   2.483   5.904 -0.4844 -0.0964 -3.1572
  190SAPI   H3Y21920   0.373   2.328   5.948 -0.8117 -1.6414 -3.7694
  190SAPI   C3421921   0.508   2.322   5.771 -0.3437  0.2418 -0.2637
  190SAPI   H4X21922   0.418   2.283   5.719 -1.4604 -0.6614  2.1969
  190SAPI   H4Y21923   0.576   2.236   5.789  0.6472  0.6655 -1.7611
  190SAPI   C3521924   0.577   2.430   5.685  0.0206 -0.0080  0.7305
  190SAPI   H5X21925   0.663   2.479   5.735  0.2290 -0.7961  1.1467
  190SAPI   H5Y21926   0.501   2.501   5.646 -0.1939 -0.6326 -0.0175
  190SAPI   C3621927   0.632   2.359   5.557  0.2056 -0.3745 -0.0538
  190SAPI   H6X21928   0.650   2.250   5.567 -3.3754 -0.9054  2.5904
  190SAPI   H6Y21929   0.724   2.409   5.520  0.3476 -0.0193  0.7670
  190SAPI   C3721930   0.529   2.387   5.439 -0.0596  0.2736  0.5392
  190SAPI   H7X21931   0.516   2.497   5.431  0.0354  0.2247 -0.3589
  190SAPI   H7Y21932   0.433   2.338   5.467  1.9428 -3.1768  1.9185
  190SAPI   C3821933   0.583   2.341   5.297 -0.4149  0.5550  0.4454
  190SAPI   H8X21934   0.645   2.250   5.316 -0.9835  0.1616  0.4132
  190SAPI   H8Y21935   0.660   2.418   5.273  2.1170 -1.9011  0.1885
  190SAPI   C3921936   0.477   2.304   5.191  0.2401 -0.5898 -0.1452
  190SAPI   H9X21937   0.417   2.394   5.166  0.6361  0.2503  1.7454
  190SAPI   H9Y21938   0.399   2.233   5.225  1.6422 -2.1173  0.0279
  190SAPI  C31021939   0.553   2.246   5.082  0.0566 -0.0588  0.3364
  190SAPI  H10X21940   0.585   2.141   5.100  0.6299  0.4869  2.8826
  190SAPI  H10Y21941   0.651   2.294   5.064  0.3165 -0.6195  0.2591
  190SAPI  C31121942   0.481   2.253   4.946 -0.3908  0.6680 -0.1303
  190SAPI  H11X21943   0.396   2.181   4.942 -1.5129  1.8699  1.2919
  190SAPI  H11Y21944   0.555   2.223   4.869 -1.7766  4.1292 -3.0849
  190SAPI  C31221945   0.430   2.394   4.900 -0.5570 -0.4572 -0.4875
  190SAPI  H12X21946   0.475   2.470   4.968  0.8364  0.2176 -2.0837
  190SAPI  H12Y21947   0.322   2.400   4.923 -0.1392 -0.2707  1.5613
  190SAPI  C31321948   0.459   2.439   4.754 -0.3022  0.4070  0.0465
  190SAPI  H13X21949   0.414   2.358   4.693  0.2749  0.7573 -0.8684
  190SAPI  H13Y21950   0.569   2.432   4.740 -0.0357 -1.1457  2.4320
  190SAPI  C31421951   0.414   2.579   4.715 -0.3256  0.1585 -0.0121
  190SAPI  H14X21952   0.456   2.638   4.800  2.7616 -3.1325  0.9948
  190SAPI  H14Y21953   0.305   2.577   4.735 -0.2143  0.1725  0.6236
  190SAPI  C31521954   0.452   2.617   4.574  0.0003 -0.2551  0.2780
  190SAPI  H15X21955   0.420   2.530   4.513 -0.4277 -0.4678  0.7996
  190SAPI  H15Y21956   0.562   2.629   4.561 -0.2851 -0.0529 -2.3948
  190SAPI  C31621957   0.388   2.743   4.515  0.1892  0.1375  0.5080
  190SAPI  H16X21958   0.285   2.713   4.486 -0.4279  1.4354  1.2703
  190SAPI  H16Y21959   0.442   2.774   4.424  0.3385 -1.0520  0.1739
  190SAPI  C31721960   0.394   2.861   4.614 -0.4354 -0.0504  0.0098
  190SAPI  H17X21961   0.500   2.877   4.641 -0.5311 -0.4377  0.6391
  190SAPI  H17Y21962   0.339   2.826   4.704 -0.2862 -1.4968 -0.4392
  190SAPI  C31821963   0.328   2.990   4.571  0.2823  0.1586  0.0318
  190SAPI  H18X21964   0.333   3.078   4.639  1.6001 -0.5817  0.9222
  190SAPI  H18Y21965   0.228   2.964   4.528  0.3895 -1.0887  0.4992
  190SAPI  H18Z21966   0.378   3.018   4.476 -1.6266  1.0218 -0.7902
  191SAPI   C1221967   3.861   4.301   2.001  0.1415  0.1913 -0.1081
  191SAPI    H221968   3.927   4.390   2.009 -0.7776  0.7909  1.1112
  191SAPI    O221969   3.736   4.354   2.044  0.1075  0.1242  0.0481
  191SAPI   HO221970   3.688   4.370   1.962 -0.1408 -4.3904 -0.9396
  191SAPI   C1321971   3.847   4.262   1.857  1.1489  0.1517  0.3519
  191SAPI    H321972   3.949   4.249   1.815  0.1335  1.1796 -2.7266
  191SAPI    O321973   3.797   4.374   1.782  0.6323 -0.5909 -0.4833
  191SAPI   HO321974   3.871   4.417   1.738  1.1707 -2.9504 -2.0661
  191SAPI   C1421975   3.761   4.141   1.828 -0.3721  0.7049 -0.2006
  191SAPI    H421976   3.656   4.176   1.826 -0.7867 -0.5011 -0.4027
  191SAPI    O421977   3.776   4.099   1.692  0.3751 -0.1002  0.2530
  191SAPI   HO421978   3.725   4.166   1.645 -0.4759 -0.4232  0.6822
  191SAPI   C1521979   3.774   4.024   1.929 -0.6044  0.1082 -0.7153
  191SAPI    H521980   3.859   3.962   1.894 -0.7739 -0.5616  0.0438
  191SAPI    O521981   3.662   3.938   1.925  0.2172 -0.6230 -0.2336
  191SAPI   HO521982   3.684   3.853   1.885 -1.1921 -2.1466  2.0407
  191SAPI   C1621983   3.806   4.060   2.073 -0.6036  0.5015 -1.2936
  191SAPI    H621984   3.718   4.098   2.130 -0.1177 -0.8059  0.4157
  191SAPI    O621985   3.865   3.949   2.147  0.1055 -0.2777  0.3370
  191SAPI   HO621986   3.950   3.982   2.177  0.1369  1.1913 -1.1948
  191SAPI   C1121987   3.901   4.183   2.094  0.2499 -0.9645  0.1973
  191SAPI    H121988   3.995   4.150   2.045 -0.9313 -0.9452 -2.2608
  191SAPI     P21989   4.052   4.194   2.313 -0.2729 -0.1989  0.0528
  191SAPI   O1321990   4.075   4.048   2.284  0.6764  0.3644 -0.2519
  191SAPI   O1421991   4.036   4.235   2.452  0.1921 -0.0950 -0.4456
  191SAPI   O1221992   3.923   4.237   2.228  0.2396 -0.4420  0.1121
  191SAPI   O1121993   4.159   4.285   2.238  0.8240  0.0446 -0.0893
  191SAPI    C121994   4.247   4.372   2.304  0.4593  0.2640 -0.6792
  191SAPI    HA21995   4.233   4.474   2.261  0.1007  0.7438  0.5530
  191SAPI    HB21996   4.214   4.395   2.407 -0.7883 -2.1373 -0.4964
  191SAPI    C221997   4.389   4.331   2.285 -0.3401  0.3304  0.2352
  191SAPI    HS21998   4.421   4.336   2.179 -1.7411  4.1050 -0.1674
  191SAPI   O2121999   4.402   4.203   2.357 -0.0892 -0.0627  0.0792
  191SAPI   C2122000   4.521   4.148   2.345 -0.7214  0.5409 -0.5727
  191SAPI   O2222001   4.605   4.196   2.273 -0.1611  0.5458 -0.2558
  191SAPI   C2222002   4.538   4.016   2.427  0.9393  0.6483 -0.1040
  191SAPI   H2R22003   4.587   3.932   2.373 -0.9833 -1.6373  1.5369
  191SAPI   H2S22004   4.601   4.043   2.515 -0.1624  2.5112  0.1691
  191SAPI    C322005   4.484   4.445   2.347  0.7446 -0.2400  0.3253
  191SAPI    HX22006   4.449   4.536   2.294 -1.0931 -0.1928  1.5380
  191SAPI    HY22007   4.594   4.429   2.336  0.6035 -0.2159 -1.3243
  191SAPI   O3122008   4.444   4.476   2.479 -0.0059 -0.2272 -0.2257
  191SAPI   C3122009   4.497   4.414   2.577  0.3839 -0.0958 -0.5487
  191SAPI   O3222010   4.567   4.319   2.565 -0.4721  0.0497 -0.5668
  191SAPI   C3222011   4.456   4.480   2.707 -0.1470 -0.3457 -0.4268
  191SAPI   H2X22012   4.370   4.417   2.737 -0.9391 -0.6467 -3.0611
  191SAPI   H2Y22013   4.403   4.576   2.690 -0.0391 -0.1567  0.2953
  191SAPI   C2322014   4.409   3.961   2.485 -0.7578  0.5336 -0.3999
  191SAPI   H3R22015   4.431   3.858   2.519  0.2103  0.9164  0.1522
  191SAPI   H3S22016   4.334   3.953   2.403 -2.8212  1.6226  1.2877
  191SAPI   C2422017   4.357   4.050   2.603 -0.2193 -0.0484  0.1756
  191SAPI   H4R22018   4.288   4.123   2.555  0.8618 -0.8670 -2.8708
  191SAPI   H4S22019   4.444   4.106   2.644  0.4243 -0.0913 -1.0854
  191SAPI   C2522020   4.293   3.953   2.697  0.3073  0.5195  0.0827
  191SAPI   H5R22021   4.204   3.902   2.657  1.2554 -0.6158 -0.6206
  191SAPI   C2622022   4.320   3.942   2.826 -0.5600  0.0018  0.1133
  191SAPI   H6R22023   4.253   3.881   2.889 -1.0119  0.6933  0.3163
  191SAPI   C2722024   4.431   4.004   2.912  0.0567  0.2480 -1.1338
  191SAPI   H7R22025   4.527   4.028   2.861  0.9755 -1.8954 -0.5363
  191SAPI   H7S22026   4.458   3.929   2.990  0.5656  0.4880 -1.0756
  191SAPI   C2822027   4.396   4.138   2.973  0.3326  0.2686  0.5213
  191SAPI   H8R22028   4.392   4.215   2.894  0.5700 -0.1313  0.1164
  191SAPI   C2922029   4.402   4.168   3.105 -0.1692 -0.9468 -0.6833
  191SAPI   H9R22030   4.379   4.271   3.136  1.6133 -0.8467  0.4466
  191SAPI  C21022031   4.423   4.082   3.226  0.3607  0.2157 -0.0152
  191SAPI  H10R22032   4.528   4.095   3.258  0.5387  0.9626 -0.8616
  191SAPI  H10S22033   4.411   3.974   3.203 -1.8526  0.4415 -0.1722
  191SAPI  C21122034   4.327   4.117   3.331  0.7414 -0.3451  0.6909
  191SAPI  H11R22035   4.229   4.073   3.311  0.3169  1.0881 -0.6151
  191SAPI  C21222036   4.354   4.187   3.442 -1.1604 -0.2284 -0.4390
  191SAPI  H12R22037   4.281   4.204   3.522  0.9149  0.8362  1.3639
  191SAPI  C21322038   4.500   4.242   3.477 -0.7129 -0.1514 -0.0110
  191SAPI  H13R22039   4.490   4.330   3.544  2.5909 -0.1089  0.5995
  191SAPI  H13S22040   4.547   4.279   3.384 -0.6788 -1.6593 -0.6194
  191SAPI  C21422041   4.594   4.144   3.546  0.5391 -0.0992 -0.5115
  191SAPI  H14R22042   4.685   4.111   3.494  1.6374  1.9666  0.0268
  191SAPI  C21522043   4.574   4.106   3.676  0.6543  0.1175 -0.1578
  191SAPI  H15R22044   4.643   4.032   3.718  0.5437 -0.1150 -0.3782
  191SAPI  C21622045   4.460   4.152   3.764 -0.9718 -0.7031  0.7900
  191SAPI  H16R22046   4.409   4.066   3.812 -0.8566 -0.1922  1.8599
  191SAPI  H16S22047   4.382   4.198   3.700 -0.0025  1.7410  1.2606
  191SAPI  C21722048   4.491   4.247   3.887  0.6253  1.1254  0.1408
  191SAPI  H17R22049   4.398   4.297   3.923 -0.8253 -2.5297  2.0152
  191SAPI  H17S22050   4.555   4.337   3.875 -1.5200  2.6821 -0.2962
  191SAPI  C21822051   4.551   4.167   4.010 -0.1581 -0.0419  0.4323
  191SAPI  H18R22052   4.657   4.144   3.987 -0.3983 -1.5886  0.7549
  191SAPI  H18S22053   4.492   4.073   4.016 -0.8541  0.4485  1.6054
  191SAPI  C21922054   4.569   4.254   4.138  0.3777 -0.3705 -0.8934
  191SAPI  H19R22055   4.472   4.298   4.168 -0.1531 -0.4781 -2.3349
  191SAPI  H19S22056   4.640   4.339   4.127 -1.5461  1.4136 -0.1212
  191SAPI  C22022057   4.618   4.179   4.260  0.4350  0.3699 -0.7107
  191SAPI  H20R22058   4.611   4.237   4.355  0.3528 -0.3317 -0.2789
  191SAPI  H20S22059   4.725   4.154   4.249  0.1582 -0.4733 -1.6496
  191SAPI  H20T22060   4.566   4.083   4.280 -0.4197  0.8131 -0.7393
  191SAPI   C3322061   4.570   4.478   2.813 -0.2359 -0.1558  0.5410
  191SAPI   H3X22062   4.660   4.510   2.757 -0.5997 -1.6099 -0.9593
  191SAPI   H3Y22063   4.607   4.376   2.836  2.2844  0.7362  0.7253
  191SAPI   C3422064   4.556   4.565   2.938  0.0804  0.0395 -0.2728
  191SAPI   H4X22065   4.507   4.501   3.014 -0.9603  0.9493 -0.1526
  191SAPI   H4Y22066   4.511   4.666   2.924  1.9822  0.6938 -2.1287
  191SAPI   C3522067   4.692   4.587   2.999  0.2586  0.2780  0.2103
  191SAPI   H5X22068   4.759   4.647   2.934 -0.7153  1.4592  0.2555
  191SAPI   H5Y22069   4.739   4.488   3.017 -0.8898 -0.6285 -1.5327
  191SAPI   C3622070   4.702   4.666   3.133  0.8078 -0.7624 -0.0977
  191SAPI   H6X22071   4.652   4.765   3.123 -0.3199 -1.2880  0.2234
  191SAPI   H6Y22072   4.810   4.682   3.151  0.4743  1.2520  0.3074
  191SAPI   C3722073   4.660   4.584   3.253  0.7281  0.3985 -0.0184
  191SAPI   H7X22074   4.726   4.496   3.269  1.8155  1.3581  0.9005
  191SAPI   H7Y22075   4.561   4.537   3.235  1.4797 -0.5790 -1.9428
  191SAPI   C3822076   4.655   4.668   3.386  0.4086 -0.2270  0.3341
  191SAPI   H8X22077   4.555   4.716   3.384 -0.2571 -1.5984 -0.5834
  191SAPI   H8Y22078   4.734   4.747   3.379  0.6154 -0.5198 -0.7391
  191SAPI   C3922079   4.668   4.587   3.519 -0.5791  0.0106  0.5651
  191SAPI   H9X22080   4.767   4.537   3.515 -0.9312 -0.6093 -1.7440
  191SAPI   H9Y22081   4.597   4.502   3.517  2.8167 -3.0091 -0.3924
  191SAPI  C31022082   4.642   4.679   3.641  0.0090  0.9695  0.2160
  191SAPI  H10X22083   4.551   4.739   3.620 -1.6913 -1.7109 -0.5588
  191SAPI  H10Y22084   4.730   4.742   3.666  1.0266 -1.0758  2.1846
  191SAPI  C31122085   4.603   4.590   3.759 -0.1521 -0.7615 -0.3012
  191SAPI  H11X22086   4.676   4.507   3.768  0.5379 -0.0041  2.3042
  191SAPI  H11Y22087   4.510   4.542   3.723 -1.6749  1.5241  0.3547
  191SAPI  C31222088   4.617   4.677   3.883 -0.4702 -0.3248 -0.7094
  191SAPI  H12X22089   4.545   4.761   3.891 -0.2568 -0.1881 -0.1090
  191SAPI  H12Y22090   4.720   4.717   3.892  0.2570 -2.3907  1.1149
  191SAPI  C31322091   4.610   4.591   4.016 -1.0292 -0.4067 -0.4005
  191SAPI  H13X22092   4.710   4.543   4.015 -0.8626 -0.0660 -0.3110
  191SAPI  H13Y22093   4.528   4.516   4.010  1.3411 -3.2405  0.4730
  191SAPI  C31422094   4.604   4.667   4.155 -0.1993 -0.0308 -0.3222
  191SAPI  H14X22095   4.501   4.707   4.166  0.3526  0.9892  1.6574
  191SAPI  H14Y22096   4.683   4.745   4.150  0.3655 -0.5676  0.0072
  191SAPI  C31522097   4.642   4.581   4.271  0.2199  0.7205 -0.0059
  191SAPI  H15X22098   4.726   4.519   4.233 -1.4741 -1.7835  0.0945
  191SAPI  H15Y22099   4.558   4.512   4.294  0.2814  0.5079 -0.4056
  191SAPI  C31622100   4.676   4.659   4.399 -0.4395 -0.1320 -0.2710
  191SAPI  H16X22101   4.586   4.671   4.462  0.9677  0.3853  1.7261
  191SAPI  H16Y22102   4.707   4.760   4.364 -2.9112  0.1739 -1.8405
  191SAPI  C31722103   4.769   4.579   4.486 -0.3193  0.2229  0.7819
  191SAPI  H17X22104   4.817   4.648   4.559  0.6180 -0.7064  1.0685
  191SAPI  H17Y22105   4.849   4.546   4.416 -0.7802  2.1232 -0.7315
  191SAPI  C31822106   4.698   4.461   4.552 -0.3809 -0.7654 -1.0531
  191SAPI  H18X22107   4.637   4.501   4.636  2.1702 -1.4608  1.2432
  191SAPI  H18Y22108   4.769   4.401   4.611 -1.0410  1.4009  2.2251
  191SAPI  H18Z22109   4.633   4.401   4.484 -0.9068 -0.6139 -0.6918
  192SAPI   C1222110   0.076   0.424   1.696  0.1309 -0.8809  0.2577
  192SAPI    H222111   0.030   0.514   1.740  2.7358  0.5724  0.2070
  192SAPI    O222112  -0.030   0.352   1.631 -0.5488  0.1203 -0.4720
  192SAPI   HO222113  -0.089   0.333   1.704  0.3629  0.3511  0.3437
  192SAPI   C1322114   0.193   0.455   1.608  0.8871 -0.0552  0.4788
  192SAPI    H322115   0.270   0.494   1.679  1.6773 -3.7752  1.8930
  192SAPI    O322116   0.157   0.555   1.509 -0.5129 -0.2596  0.2276
  192SAPI   HO322117   0.227   0.617   1.486 -0.8094 -0.0816 -0.2086
  192SAPI   C1422118   0.258   0.332   1.542  1.1520  0.2505  0.1778
  192SAPI    H422119   0.182   0.297   1.469  2.3041  0.5777 -1.2496
  192SAPI    O422120   0.370   0.368   1.458  0.0881  0.7916 -0.3535
  192SAPI   HO422121   0.318   0.421   1.397 -1.6109  1.0651  1.2329
  192SAPI   C1522122   0.277   0.219   1.639 -0.5309 -0.1776 -0.6275
  192SAPI    H522123   0.366   0.245   1.699  0.2110  0.2123 -1.8655
  192SAPI    O522124   0.298   0.092   1.586  0.1487 -0.1244 -0.0440
  192SAPI   HO522125   0.334   0.027   1.647 -1.8251 -1.9160 -0.6217
  192SAPI   C1622126   0.167   0.203   1.744  0.0853  0.6449 -0.2383
  192SAPI    H622127   0.086   0.140   1.701  0.5233 -0.2691  0.2526
  192SAPI    O622128   0.216   0.117   1.848  0.3951 -0.4609  0.0400
  192SAPI   HO622129   0.156   0.126   1.923  2.0770  1.7804  1.2393
  192SAPI   C1122130   0.122   0.335   1.812  0.3522 -0.5268  0.7406
  192SAPI    H122131   0.204   0.380   1.872  0.3799 -0.1955  0.4578
  192SAPI     P22132  -0.033   0.277   2.037  0.0249 -0.3713  0.0265
  192SAPI   O1322133   0.038   0.147   2.048 -0.1149  0.2565  0.3961
  192SAPI   O1422134  -0.180   0.273   2.065 -0.1907  0.0938 -0.4028
  192SAPI   O1222135   0.004   0.328   1.886 -0.4844  0.3487 -0.3636
  192SAPI   O1122136   0.034   0.376   2.140  0.0496 -0.1075 -0.2843
  192SAPI    C122137   0.173   0.372   2.164 -0.5468  0.3433 -0.9165
  192SAPI    HA22138   0.233   0.346   2.074 -1.9782  1.6718 -2.3305
  192SAPI    HB22139   0.208   0.473   2.197  1.3240 -0.7668  0.6997
  192SAPI    C222140   0.200   0.280   2.285 -0.4403  0.4201  0.2517
  192SAPI    HS22141   0.186   0.173   2.256 -0.9013 -0.7113  4.1103
  192SAPI   O2122142   0.116   0.304   2.395  0.1515  0.5539  0.3628
  192SAPI   C2122143   0.020   0.215   2.417  0.4345 -0.0282 -0.1303
  192SAPI   O2222144  -0.006   0.119   2.346 -0.2501 -0.3363 -0.1079
  192SAPI   C2222145  -0.055   0.261   2.535  0.2197 -0.0057 -0.4267
  192SAPI   H2R22146  -0.083   0.366   2.515 -1.4229  0.1758  2.2639
  192SAPI   H2S22147  -0.155   0.212   2.540 -0.2740  0.8444 -1.4843
  192SAPI    C322148   0.346   0.296   2.318 -0.5601 -0.4354  0.4976
  192SAPI    HX22149   0.374   0.403   2.311 -1.8415 -0.0476  0.9752
  192SAPI    HY22150   0.411   0.242   2.246  1.3447  0.1181  1.7280
  192SAPI   O3122151   0.369   0.236   2.449 -0.1075 -0.1369 -0.2102
  192SAPI   C3122152   0.409   0.308   2.545 -0.2305 -1.2891 -0.1686
  192SAPI   O3222153   0.428   0.432   2.544  0.3749 -0.1583  0.2243
  192SAPI   C3222154   0.450   0.218   2.665  0.2610 -0.8967  0.3674
  192SAPI   H2X22155   0.540   0.165   2.626  0.2591 -0.7075  0.1042
  192SAPI   H2Y22156   0.374   0.139   2.679 -0.2445 -0.4878 -0.0586
  192SAPI   C2322157   0.019   0.250   2.671  0.2609  0.3928  0.3576
  192SAPI   H3R22158  -0.031   0.312   2.749 -0.5979 -1.6555  1.5268
  192SAPI   H3S22159   0.120   0.290   2.649  0.3231 -0.6750 -1.5333
  192SAPI   C2422160   0.020   0.107   2.737  0.5438 -0.6406  0.0126
  192SAPI   H4R22161   0.072   0.114   2.835 -1.8666  0.1305  1.3298
  192SAPI   H4S22162   0.072   0.041   2.665  1.3223  0.5831 -0.5888
  192SAPI   C2522163  -0.126   0.061   2.751 -0.8360  0.0911  0.8224
  192SAPI   H5R22164  -0.165   0.021   2.656  0.8881 -1.0805  0.5662
  192SAPI   C2622165  -0.200   0.055   2.859 -0.2287  0.5353 -0.4453
  192SAPI   H6R22166  -0.302   0.015   2.859  0.0530 -0.1900 -0.2806
  192SAPI   C2722167  -0.158   0.100   2.998 -0.6188  0.2263  0.1054
  192SAPI   H7R22168  -0.055   0.063   3.017 -1.5149 -2.8805 -0.4982
  192SAPI   H7S22169  -0.212   0.043   3.076 -1.2450 -0.5924 -0.8930
  192SAPI   C2822170  -0.176   0.248   3.011  0.4847 -0.2246  0.4833
  192SAPI   H8R22171  -0.205   0.306   2.922  0.6913  0.4431  0.8474
  192SAPI   C2922172  -0.132   0.318   3.122  0.5807 -0.2615  0.1275
  192SAPI   H9R22173  -0.156   0.424   3.108 -0.1398 -0.3189  0.8477
  192SAPI  C21022174  -0.093   0.262   3.255  0.2071  0.0045 -0.3841
  192SAPI  H10R22175   0.017   0.248   3.263 -0.1167 -1.8417  2.4819
  192SAPI  H10S22176  -0.137   0.161   3.271 -0.7041  0.7099  2.1610
  192SAPI  C21122177  -0.109   0.348   3.375 -0.6430  0.5143  0.4900
  192SAPI  H11R22178  -0.034   0.429   3.376  0.4218 -0.2968 -2.1815
  192SAPI  C21222179  -0.180   0.330   3.483  1.0756  0.0493  0.5319
  192SAPI  H12R22180  -0.182   0.412   3.556 -0.3943  1.3110 -0.8493
  192SAPI  C21322181  -0.283   0.219   3.505  0.0474  0.2501  0.4410
  192SAPI  H13R22182  -0.234   0.132   3.455 -0.4972 -0.1350  0.5654
  192SAPI  H13S22183  -0.374   0.233   3.443  1.5315 -1.9580 -2.4544
  192SAPI  C21422184  -0.320   0.188   3.649 -0.0388 -0.1315 -0.2467
  192SAPI  H14R22185  -0.345   0.276   3.710  0.4893 -0.3574  0.3077
  192SAPI  C21522186  -0.328   0.065   3.704 -0.7551 -0.7448  0.0266
  192SAPI  H15R22187  -0.344   0.052   3.812  2.4029 -1.1802  0.5448
  192SAPI  C21622188  -0.288  -0.061   3.631 -0.4206 -0.5556 -0.1080
  192SAPI  H16R22189  -0.213  -0.041   3.551 -2.4011  2.2138 -1.4315
  192SAPI  H16S22190  -0.378  -0.109   3.584  0.1042 -0.5421 -1.1651
  192SAPI  C21722191  -0.235  -0.177   3.723  0.0025  0.6909 -0.2757
  192SAPI  H17R22192  -0.243  -0.275   3.671 -0.0426  0.3908  0.2938
  192SAPI  H17S22193  -0.294  -0.196   3.815 -1.5372 -0.5513 -1.4679
  192SAPI  C21822194  -0.078  -0.165   3.754 -0.1003 -0.6584  0.1263
  192SAPI  H18R22195  -0.064  -0.056   3.770 -0.9182  0.0592 -3.2643
  192SAPI  H18S22196  -0.027  -0.191   3.659 -0.8909  0.0069 -0.4953
  192SAPI  C21922197  -0.033  -0.230   3.886 -0.1115 -0.0584  0.4076
  192SAPI  H19R22198  -0.062  -0.337   3.882  0.5351 -0.2146 -0.5126
  192SAPI  H19S22199  -0.075  -0.170   3.970  0.7737  3.9335 -1.7081
  192SAPI  C22022200   0.113  -0.242   3.901 -0.4351 -0.6865  0.1018
  192SAPI  H20R22201   0.135  -0.298   3.994 -0.6671 -1.2563 -0.1791
  192SAPI  H20S22202   0.163  -0.144   3.891 -1.3409 -0.3277 -1.1483
  192SAPI  H20T22203   0.155  -0.305   3.819  0.2913 -0.0478 -0.0292
  192SAPI   C3322204   0.481   0.292   2.795 -0.3034 -0.7133 -0.8224
  192SAPI   H3X22205   0.530   0.390   2.774 -4.3791  1.5139 -0.9634
  192SAPI   H3Y22206   0.547   0.242   2.869  0.1973 -1.3197 -1.6617
  192SAPI   C3422207   0.346   0.324   2.858  0.4776  0.5885 -0.9556
  192SAPI   H4X22208   0.280   0.235   2.874 -0.6867  1.4225 -1.0162
  192SAPI   H4Y22209   0.288   0.399   2.800  0.1805  1.1032 -0.0081
  192SAPI   C3522210   0.382   0.396   2.990  0.2786 -0.1735  0.4553
  192SAPI   H5X22211   0.449   0.480   2.963 -1.3230  0.8133 -0.6588
  192SAPI   H5Y22212   0.428   0.323   3.060 -1.6980 -0.0759  1.9334
  192SAPI   C3622213   0.257   0.452   3.058 -0.2549 -0.0750  1.5832
  192SAPI   H6X22214   0.182   0.373   3.083 -1.6660  0.1273 -1.5900
  192SAPI   H6Y22215   0.207   0.507   2.976 -1.8651 -2.4507  0.8514
  192SAPI   C3722216   0.292   0.546   3.173  0.3553 -0.7472 -0.1880
  192SAPI   H7X22217   0.199   0.573   3.228  0.5670 -0.5183  0.0617
  192SAPI   H7Y22218   0.345   0.636   3.136 -0.4953 -0.0179  0.3141
  192SAPI   C3822219   0.387   0.477   3.271  0.5389 -0.1016 -0.2810
  192SAPI   H8X22220   0.489   0.513   3.246  0.0683  0.8279 -0.9795
  192SAPI   H8Y22221   0.398   0.367   3.265  0.0923 -0.1477 -0.3175
  192SAPI   C3922222   0.341   0.518   3.417  0.8788 -0.3374 -0.2132
  192SAPI   H9X22223   0.246   0.469   3.444  1.7884 -1.6200  0.8047
  192SAPI   H9Y22224   0.324   0.628   3.423 -1.5035 -0.6908  0.1894
  192SAPI  C31022225   0.434   0.472   3.531  0.2344  0.3988 -0.0231
  192SAPI  H10X22226   0.540   0.491   3.505  0.6144  0.4764  1.5005
  192SAPI  H10Y22227   0.421   0.363   3.543  2.2355  0.2307  0.9667
  192SAPI  C31122228   0.413   0.556   3.658  0.7737  0.4116 -0.2082
  192SAPI  H11X22229   0.306   0.545   3.686  0.6901  1.4606 -0.0875
  192SAPI  H11Y22230   0.412   0.664   3.633  1.3665  0.0788 -1.8063
  192SAPI  C31222231   0.502   0.517   3.773 -0.6046  0.1625 -0.1943
  192SAPI  H12X22232   0.605   0.500   3.736  0.7900 -0.2951  3.5090
  192SAPI  H12Y22233   0.462   0.416   3.793 -0.3872  0.1547  0.1938
  192SAPI  C31322234   0.501   0.605   3.898 -0.1648 -0.3198 -0.4323
  192SAPI  H13X22235   0.544   0.704   3.871  2.0947 -1.2412 -0.3995
  192SAPI  H13Y22236   0.574   0.550   3.960 -1.2584 -3.0254 -1.4090
  192SAPI  C31422237   0.369   0.628   3.975  0.6981  0.2577 -0.5124
  192SAPI  H14X22238   0.314   0.533   3.993  3.0876 -0.6054  3.3930
  192SAPI  H14Y22239   0.305   0.694   3.912 -2.0014 -1.7148 -0.0255
  192SAPI  C31522240   0.391   0.695   4.115  0.0806 -0.3707 -0.4347
  192SAPI  H15X22241   0.294   0.742   4.140  0.4519  0.2920 -0.2123
  192SAPI  H15Y22242   0.466   0.772   4.087 -0.0998  0.3359  0.9496
  192SAPI  C31622243   0.436   0.604   4.220 -0.4452 -0.1423 -0.1316
  192SAPI  H16X22244   0.509   0.530   4.179 -1.2936 -0.5306 -0.9720
  192SAPI  H16Y22245   0.344   0.550   4.249 -0.6143  0.6877  0.9454
  192SAPI  C31722246   0.501   0.667   4.349 -0.0094 -0.7921 -0.2948
  192SAPI  H17X22247   0.592   0.715   4.307  0.4086 -1.8820 -0.6860
  192SAPI  H17Y22248   0.530   0.588   4.422  0.4876  0.2243  0.6463
  192SAPI  C31822249   0.415   0.767   4.419  0.3416  0.5899  0.7967
  192SAPI  H18X22250   0.427   0.763   4.529 -0.4795 -0.8285  0.8584
  192SAPI  H18Y22251   0.314   0.720   4.411 -0.1511  1.3194  2.3238
  192SAPI  H18Z22252   0.421   0.867   4.371 -0.3843 -0.3742 -1.4613
  193SOD    SOD22253   1.733   1.899   6.675 -0.1662  0.0993 -0.2226
  194SOD    SOD22254   6.738   4.340   6.790  0.1512  0.1264 -0.2447
  195SOD    SOD22255   4.261   0.394   1.674 -0.2149  0.1671 -0.5827
  196SOD    SOD22256   0.397   5.882   8.139 -0.0098  0.3471  0.0607
  197SOD    SOD22257   3.887   0.716   7.414  0.2255 -0.0538  0.0643
  198SOD    SOD22258   0.052   0.636   0.194  0.0177  0.1874  0.1621
  199SOD    SOD22259   2.928   4.105   2.213 -0.1856  0.3448 -0.2514
  200SOD    SOD22260   5.968   2.386   2.019 -0.4442  0.3080  0.2485
  201SOD    SOD22261   4.089   4.136   1.394  0.2617  0.0918  0.3461
  202SOD    SOD22262   3.128   1.670   2.430  0.1358  0.2630 -0.1081
  203SOD    SOD22263   3.948   3.516   8.635 -0.2029 -0.0691 -0.1443
  204SOD    SOD22264   1.620   5.222   8.750 -0.0711 -0.1770  0.0281
  205SOD    SOD22265   1.967   1.632   0.105 -0.4739 -0.4308  0.5097
  206SOD    SOD22266   3.670   5.693   1.213 -0.2286  0.2900 -0.9961
  207SOD    SOD22267   4.277   4.779   1.407 -0.1831 -0.3519  0.0868
  208SOD    SOD22268   0.747   1.325   8.894 -0.0125 -0.1938  0.1529
  209SOD    SOD22269   3.025   1.827   8.150 -0.5595  0.3027 -0.4928
  210SOD    SOD22270   4.938   5.729   1.110  0.3371 -0.1221  0.8226
  211SOD    SOD22271   3.827   3.367   1.177 -0.0335  0.0773  0.1922
  212SOD    SOD22272   0.643   5.889   6.829 -0.3540  0.2671  0.5415
  213SOD    SOD22273   6.627   2.010   7.875 -0.4695 -0.2075  0.6568
  214SOD    SOD22274   1.582   3.165   8.594 -0.0786  0.0929 -0.1408
  215SOD    SOD22275   5.614   6.556   7.162  0.1480  0.4536  0.2082
  216SOD    SOD22276   1.986   5.614   6.792  0.4800 -0.3130  0.0956
  217SOD    SOD22277   5.198   1.257   8.139 -0.2000 -0.1013  0.1902
  218SOD    SOD22278   2.394   0.026   7.074  0.0745 -0.4013  0.3353
  219SOD    SOD22279   1.924   4.288   1.693 -0.5947  0.1341  0.4453
  220SOD    SOD22280   3.769   4.271   8.070 -0.4038 -0.1217 -0.5371
  221SOD    SOD22281   1.788   4.978   7.623 -0.0270  0.2134  0.1634
  222SOD    SOD22282   2.684   0.146   1.729 -0.0111  0.1486 -0.0875
  223SOD    SOD22283   3.784   0.075   1.967  0.1233 -0.5226  0.1996
  224SOD    SOD22284   0.181   4.872   8.074 -0.4836  0.0819 -0.2837
  225SOD    SOD22285   5.187   0.912   6.586  0.5310 -0.5397 -0.4538
  226SOD    SOD22286   4.003   2.348   1.724 -0.2484  0.5997  0.1925
  227SOD    SOD22287   2.158   1.348   7.134 -0.6069 -0.0479  0.0621
  228SOD    SOD22288   3.984   3.721   7.464 -0.0724  0.0297  0.2763
  229SOD    SOD22289   1.689   1.012   7.502  0.3331 -0.7827  0.5907
  230SOD    SOD22290   2.937   2.179   1.681  0.1276 -0.2671 -0.4086
  231SOD    SOD22291   3.065   0.313   8.435 -0.2954  0.1629  0.3844
  232SOD    SOD22292   2.199   0.898   2.111 -0.4018  0.1174 -0.0780
  233SOD    SOD22293   2.340   1.989   2.492  0.1582  0.4108 -0.3203
  234CLA    CLA22294   3.759   0.716   0.265  0.1473  0.1149 -0.1660
  235CLA    CLA22295   0.687   3.861   7.826 -0.3812 -0.1211  0.0864
  236CLA    CLA22296   2.159   0.935   8.422  0.1681  0.0798  0.0383
  237CLA    CLA22297   6.281   6.616   7.508 -0.2050  0.3637  0.0705
  238CLA    CLA22298   4.315   6.032   1.223  0.2691  0.3558  0.5178
  239CLA    CLA22299   2.919   0.523   7.344  0.3065 -0.0307 -0.3041
  240CLA    CLA22300   1.646   0.446   8.290 -0.1688 -0.3680 -0.3203
  241CLA    CLA22301   3.101   4.237   0.487  0.1115  0.4780 -0.0445
  242CLA    CLA22302   2.062   0.063   1.268  0.6426 -0.3801 -0.1680
  243CLA    CLA22303   5.138   4.448   1.458 -0.1961  0.1219 -0.1711
  244CLA    CLA22304   5.038   2.688   0.353 -0.1508 -0.0068  0.1609
  245CLA    CLA22305   3.767   2.140   7.435 -0.3465 -0.2396  0.0992
  246CLA    CLA22306   3.580   2.557   8.570 -0.2033  0.2358 -0.2226
  247CLA    CLA22307   1.300   2.303   8.376  0.0132 -0.0980 -0.0845
  248CLA    CLA22308   3.382   5.839   0.565 -0.2274  0.4591 -0.2928
  249CLA    CLA22309   1.723   2.543   7.038 -0.1261 -0.0634  0.0610
  250CLA    CLA22310   2.309   6.116   1.788  0.5101  0.0264 -0.2088
  251TIP3   OH222311   1.167   2.538   0.965 -0.2119  0.1581  0.2635
  251TIP3    H122312   1.193   2.622   0.929 -0.6314  0.7165  1.2221
  251TIP3    H222313   1.123   2.560   1.047 -0.3890 -0.9917  0.4906
  252TIP3   OH222314   2.751   0.468   6.785  1.1750  0.1203 -0.1250
  252TIP3    H122315   2.657   0.450   6.780  1.0106  0.6279  0.9007
  252TIP3    H222316   2.793   0.386   6.757  0.4344 -0.5795  0.7630
  253TIP3   OH222317   2.171   2.708   8.158 -0.5078  0.5016  0.0495
  253TIP3    H122318   2.241   2.719   8.093  1.2416 -1.0878  1.5393
  253TIP3    H222319   2.091   2.701   8.107  0.5626  1.2080 -1.8031
  254TIP3   OH222320   6.561   3.572   1.255 -0.2177 -0.0202  0.2598
  254TIP3    H122321   6.605   3.536   1.332  1.0047  0.1869 -0.3142
  254TIP3    H222322   6.511   3.498   1.220  0.4166 -0.5402  0.4167
  255TIP3   OH222323   5.132   5.351   7.411  1.0679 -0.0193  0.4531
  255TIP3    H122324   5.157   5.268   7.452 -1.0789 -0.9163  0.1038
  255TIP3    H222325   5.146   5.337   7.317  0.5615 -0.0572  0.3795
  256TIP3   OH222326   6.363   5.203   0.024 -0.5758 -0.5317 -0.1026
  256TIP3    H122327   6.295   5.240  -0.032 -1.1421 -0.2232  0.7747
  256TIP3    H222328   6.329   5.212   0.113  0.6091 -0.3684  0.3575
  257TIP3   OH222329   2.252   3.665   8.024 -0.6571 -0.0617  0.3486
  257TIP3    H122330   2.345   3.643   8.030 -0.6528 -0.1088  0.1219
  257TIP3    H222331   2.206   3.582   8.038 -0.6917  0.1126  1.3389
  258TIP3   OH222332   3.918   2.019   6.792 -0.3881  0.0673  0.0867
  258TIP3    H122333   3.944   1.945   6.846  0.0641  0.2788  0.1665
  258TIP3    H222334   3.830   2.042   6.823 -0.3504 -0.1506  0.3609
  259TIP3   OH222335   4.900   5.222   8.215  0.5302 -0.5125 -0.6122
  259TIP3    H122336   4.964   5.216   8.144  0.8468 -0.3482 -0.3437
  259TIP3    H222337   4.914   5.143   8.267  0.0701 -0.7990 -0.9203
  260TIP3   OH222338   5.579   4.391   0.489  0.1814  0.2188 -0.4365
  260TIP3    H122339   5.578   4.485   0.476 -2.1611  0.3146  0.0763
  260TIP3    H222340   5.536   4.378   0.573  1.2082 -1.2849 -0.1008
  261TIP3   OH222341   5.464   4.010   7.620  0.5827  0.5398  0.2480
  261TIP3    H122342   5.427   4.095   7.596  0.0055  0.2182 -0.0335
  261TIP3    H222343   5.503   3.978   7.538  0.4044  0.3341  0.2449
  262TIP3   OH222344   1.656   1.193   8.817  0.1485  0.6905 -0.5338
  262TIP3    H122345   1.704   1.205   8.898  0.9196  0.4466 -0.9471
  262TIP3    H222346   1.707   1.241   8.751 -0.2219  0.5093 -0.9594
  263TIP3   OH222347   1.404   3.977   0.610  0.1502  0.1172  0.1212
  263TIP3    H122348   1.482   3.928   0.636  0.7426  1.4254  0.8843
  263TIP3    H222349   1.355   3.989   0.691  1.3794  3.1259  0.5166
  264TIP3   OH222350   0.233   3.494   1.909 -0.8137  0.5211 -0.3198
  264TIP3    H122351   0.247   3.587   1.891  1.4612  0.0325 -1.5571
  264TIP3    H222352   0.143   3.478   1.881 -1.8251  2.6098  1.3894
  265TIP3   OH222353   2.880   5.148   2.057  0.4268 -0.2968 -0.7906
  265TIP3    H122354   2.883   5.215   1.989  0.0683  0.7627  0.2067
  265TIP3    H222355   2.953   5.169   2.115  1.0798 -1.5334 -1.1220
  266TIP3   OH222356   6.246   6.264   0.261 -0.7894  0.1902  0.2100
  266TIP3    H122357   6.308   6.199   0.293 -0.2629  1.3016  1.5430
  266TIP3    H222358   6.257   6.263   0.166  0.1604 -0.7103  0.3106
  267TIP3   OH222359   2.775   5.350   1.312 -0.3424  0.2268 -0.3912
  267TIP3    H122360   2.741   5.434   1.341  0.9253  1.2291 -1.7055
  267TIP3    H222361   2.860   5.342   1.355 -0.9167 -0.9373  0.6053
  268TIP3   OH222362   6.398   1.093   0.879 -0.3987  0.8413 -0.7807
  268TIP3    H122363   6.478   1.051   0.847 -0.4436  0.5331 -0.4911
  268TIP3    H222364   6.390   1.172   0.826  1.9496  2.7205  1.3449
  269TIP3   OH222365   5.726   5.222   8.146 -0.2576  0.1796 -0.2421
  269TIP3    H122366   5.640   5.263   8.131 -1.6496 -2.9150 -1.5105
  269TIP3    H222367   5.714   5.172   8.227  0.3240 -0.3434 -0.4773
  270TIP3   OH222368   1.726   3.261   0.586  0.4162  0.1396 -0.2073
  270TIP3    H122369   1.688   3.218   0.663 -0.3006 -1.6272 -1.4894
  270TIP3    H222370   1.808   3.299   0.619 -0.5242  0.6324  1.7189
  271TIP3   OH222371   6.010   5.958   8.315 -0.3664  0.0048 -0.2941
  271TIP3    H122372   6.015   6.033   8.255 -1.2207  0.5867  0.3377
  271TIP3    H222373   5.917   5.945   8.329 -0.2266 -1.2799 -0.4886
  272TIP3   OH222374   2.515   1.734   1.004 -0.4472  0.3964 -0.3970
  272TIP3    H122375   2.489   1.826   0.997 -0.8613  0.3972  0.9386
  272TIP3    H222376   2.553   1.727   1.092  0.9208 -0.3874 -1.0220
  273TIP3   OH222377   0.044   2.799   7.697 -0.7219 -0.3036  0.1319
  273TIP3    H122378   0.022   2.713   7.663  0.0347 -1.9401  3.3728
  273TIP3    H222379   0.139   2.796   7.709 -0.6035  1.2384 -0.2141
  274TIP3   OH222380   5.238   5.257   7.181  0.0260 -0.1047 -0.3236
  274TIP3    H122381   5.211   5.260   7.090  0.5981  2.0444 -0.4675
  274TIP3    H222382   5.269   5.167   7.194 -1.2791 -0.8290 -1.8400
  275TIP3   OH222383   5.364   4.672   0.253  0.0032 -0.7125 -0.0591
  275TIP3    H122384   5.399   4.745   0.201  0.1107  0.3589  1.4411
  275TIP3    H222385   5.432   4.653   0.318  0.0360 -2.2773 -0.5084
  276TIP3   OH222386   0.717   1.541   8.239 -0.2172  0.0395  0.4325
  276TIP3    H122387   0.769   1.595   8.299 -0.7352 -0.6353  1.5223
  276TIP3    H222388   0.628   1.546   8.274 -0.4255 -0.8078  0.0380
  277TIP3   OH222389   2.187   4.589   7.414 -0.2149  0.1694  0.1585
  277TIP3    H122390   2.241   4.518   7.379 -0.8097 -0.3618  0.3011
  277TIP3    H222391   2.236   4.621   7.491 -0.0202 -0.1867  0.1849
  278TIP3   OH222392   5.663   2.196   7.993 -0.5447  0.0307 -0.7824
  278TIP3    H122393   5.589   2.255   7.985 -1.5077 -0.9390  0.5723
  278TIP3    H222394   5.715   2.231   8.065 -0.7480 -0.3792 -0.4324
  279TIP3   OH222395   1.460   1.851   0.198  0.0242  0.2223 -0.2451
  279TIP3    H122396   1.365   1.842   0.185  0.3130 -3.4109 -1.0571
  279TIP3    H222397   1.493   1.880   0.113 -0.1632 -1.6093 -0.9998
  280TIP3   OH222398   5.464   5.357   8.165 -0.0480 -0.0499  0.1087
  280TIP3    H122399   5.400   5.348   8.095 -0.3135 -0.0409  0.3489
  280TIP3    H222400   5.437   5.293   8.231  0.8689 -0.8960 -0.2972
  281TIP3   OH222401   4.082   4.545   7.957  0.9457  0.2144 -0.4640
  281TIP3    H122402   4.030   4.559   7.878 -0.8440 -1.0113  0.4391
  281TIP3    H222403   4.162   4.503   7.925  0.6533  0.5571 -1.7016
  282TIP3   OH222404   5.146   6.130   2.375  0.1326  0.0978  0.2989
  282TIP3    H122405   5.146   6.225   2.370  0.5997  0.1663  1.3262
  282TIP3    H222406   5.061   6.108   2.414 -0.3576  0.0257 -0.7787
  283TIP3   OH222407   4.547   5.159   1.772  0.6015 -0.2017 -0.2600
  283TIP3    H122408   4.627   5.173   1.823  0.5510 -1.2359  0.1286
  283TIP3    H222409   4.477   5.199   1.825  0.5686 -1.1508  0.4368
  284TIP3   OH222410   3.955   0.499   7.413  0.5192  0.0362  0.0218
  284TIP3    H122411   3.909   0.416   7.430  0.2441  0.5035  1.8594
  284TIP3    H222412   4.032   0.474   7.361 -0.3942 -1.1307 -0.8155
  285TIP3   OH222413   5.423   0.142   6.602 -0.0356  0.4340 -0.1698
  285TIP3    H122414   5.408   0.236   6.618 -1.7330  0.1431  0.1079
  285TIP3    H222415   5.518   0.135   6.591  0.3513  1.9042  1.6613
  286TIP3   OH222416   4.553   1.199   8.552 -0.1506 -0.5673 -0.3278
  286TIP3    H122417   4.518   1.284   8.577  0.4605 -0.8395  1.6526
  286TIP3    H222418   4.476   1.144   8.537 -0.5381  0.1672 -1.1215
  287TIP3   OH222419   1.355   2.279   7.240  0.4889 -0.1484 -0.1096
  287TIP3    H122420   1.371   2.248   7.151 -0.6236  0.0428 -0.3943
  287TIP3    H222421   1.266   2.314   7.237  0.0505 -1.0539  1.3211
  288TIP3   OH222422   6.706   3.097   6.159 -0.9469  0.0146  0.6409
  288TIP3    H122423   6.717   3.021   6.216 -0.3604 -0.5587 -0.2144
  288TIP3    H222424   6.777   3.091   6.096 -1.6926  0.5138 -0.2824
  289TIP3   OH222425   2.003   4.447   1.551  0.6900 -0.2664 -0.0443
  289TIP3    H122426   1.942   4.516   1.524 -1.8759 -1.9646  1.0565
  289TIP3    H222427   2.089   4.479   1.522 -0.3507  3.2714  0.2562
  290TIP3   OH222428   1.780   5.605   0.379  0.0720 -0.3982  0.7820
  290TIP3    H122429   1.817   5.568   0.299 -0.5081 -0.9158  0.7481
  290TIP3    H222430   1.755   5.530   0.432  0.3172 -0.0573  1.3935
  291TIP3   OH222431   0.561   1.761   6.990 -0.1435 -0.0247 -0.0631
  291TIP3    H122432   0.533   1.671   7.009 -1.4975  0.6316  1.2746
  291TIP3    H222433   0.573   1.762   6.895 -1.8484 -1.1770 -0.3448
  292TIP3   OH222434   2.868   4.476   8.863 -0.1753  0.2802 -0.0460
  292TIP3    H122435   2.855   4.537   8.936 -1.4992 -1.7127  1.4702
  292TIP3    H222436   2.954   4.438   8.878 -0.6911 -0.5707  0.8871
  293TIP3   OH222437   5.357   2.700   2.039  0.2077 -0.3885 -0.1215
  293TIP3    H122438   5.306   2.781   2.046  0.7155 -0.1466  1.0333
  293TIP3    H222439   5.419   2.716   1.968 -0.6429 -0.3120 -0.8634
  294TIP3   OH222440   0.796   1.146   1.343 -0.1590 -0.3587 -0.1145
  294TIP3    H122441   0.784   1.121   1.435 -1.6371 -0.0328 -0.1905
  294TIP3    H222442   0.887   1.124   1.324 -0.4348 -2.5783  0.7794
  295TIP3   OH222443   3.683   0.131   0.794  0.1505  0.8691  0.3357
  295TIP3    H122444   3.662   0.065   0.728  0.7832 -0.6213  1.5542
  295TIP3    H222445   3.605   0.185   0.800 -0.9696 -0.6760  0.3256
  296TIP3   OH222446   2.828   6.765   2.400  0.0434  0.3203  0.4526
  296TIP3    H122447   2.883   6.794   2.473 -2.0859  0.1051  2.2472
  296TIP3    H222448   2.824   6.670   2.409 -0.9772  0.3676  0.6581
  297TIP3   OH222449   6.674   5.840   8.627 -0.1287 -0.5027  0.7464
  297TIP3    H122450   6.669   5.868   8.718 -1.1979  2.3294 -0.0887
  297TIP3    H222451   6.747   5.891   8.590  0.0176 -1.2939 -0.0924
  298TIP3   OH222452   1.114   2.627   7.324  0.1713  0.1706 -0.7528
  298TIP3    H122453   1.075   2.582   7.399  0.2638 -1.5770 -1.7003
  298TIP3    H222454   1.127   2.717   7.354  0.3429 -0.5035  1.3695
  299TIP3   OH222455   1.615   5.758   8.749  0.0967 -0.1040  0.1101
  299TIP3    H122456   1.534   5.707   8.756 -0.4447  0.5318 -1.1984
  299TIP3    H222457   1.608   5.823   8.819  1.1495 -2.1846  2.3273
  300TIP3   OH222458   1.979   2.691   7.187 -0.5794  0.0604  0.1929
  300TIP3    H122459   1.997   2.777   7.148  0.9349 -0.4563 -0.3444
  300TIP3    H222460   1.893   2.666   7.152 -0.8204  1.1427 -0.0242
  301TIP3   OH222461   6.074   2.353   6.796  0.3755 -0.0692  0.0127
  301TIP3    H122462   6.087   2.339   6.890 -0.4372 -1.4655 -0.0465
  301TIP3    H222463   5.979   2.351   6.785  0.4918 -0.8551 -0.9643
  302TIP3   OH222464   0.060   0.891   8.821  0.0472  0.0081  0.8245
  302TIP3    H122465  -0.023   0.924   8.786  0.9312  1.0489 -0.3724
  302TIP3    H222466   0.121   0.964   8.811  2.1006 -1.8743 -1.8973
  303TIP3   OH222467   6.724   5.243   0.189 -0.0972  0.3814 -0.0039
  303TIP3    H122468   6.684   5.323   0.222 -1.9218 -0.2187 -0.6367
  303TIP3    H222469   6.818   5.259   0.194 -0.3892  3.3051 -1.9163
  304TIP3   OH222470   1.111   2.432   8.061 -0.0254 -0.4756 -0.1913
  304TIP3    H122471   1.166   2.362   8.097 -2.4694 -2.1136  0.5866
  304TIP3    H222472   1.130   2.508   8.117 -1.6589 -2.2025  3.0251
  305TIP3   OH222473   5.891   6.233   7.149  0.3320 -0.4912  0.2755
  305TIP3    H122474   5.874   6.291   7.075 -2.3692 -1.2961  0.1458
  305TIP3    H222475   5.936   6.157   7.111  1.9247  0.5028  0.0836
  306TIP3   OH222476   1.481   3.713   0.821 -0.0627 -0.7187  0.2990
  306TIP3    H122477   1.560   3.674   0.784 -1.0484 -0.1580 -2.6915
  306TIP3    H222478   1.511   3.795   0.860  1.0332 -1.2073  0.5200
  307TIP3   OH222479   1.597   2.654   6.614  0.0283 -0.7609  0.0408
  307TIP3    H122480   1.542   2.638   6.537 -0.0688 -2.6539  0.4527
  307TIP3    H222481   1.681   2.682   6.577 -0.2987 -0.7137 -0.7019
  308TIP3   OH222482   3.412   1.140   2.728 -0.2078 -0.2550 -0.3677
  308TIP3    H122483   3.360   1.176   2.800 -0.3860  0.0455 -0.6419
  308TIP3    H222484   3.502   1.145   2.759 -0.1082  1.5216 -0.8299
  309TIP3   OH222485   5.898   3.968   8.650 -0.5861 -0.4323  0.0698
  309TIP3    H122486   5.926   4.058   8.669 -2.2463  0.1031  0.0991
  309TIP3    H222487   5.871   3.933   8.735 -2.7981  0.1021 -0.3506
  310TIP3   OH222488   2.278   5.815   8.593  0.2215  0.4031 -0.4442
  310TIP3    H122489   2.280   5.720   8.597 -2.0879 -0.0203 -4.1304
  310TIP3    H222490   2.186   5.838   8.607  0.8636  2.2452  1.2568
  311TIP3   OH222491   1.800   1.044   7.992  0.2849 -0.0571 -0.3760
  311TIP3    H122492   1.747   1.114   8.030  1.1147 -0.6138  2.0211
  311TIP3    H222493   1.827   0.992   8.067 -0.4618 -3.1210 -2.0785
  312TIP3   OH222494   5.034   1.538   8.006  0.2686 -0.0441  0.0642
  312TIP3    H122495   5.015   1.498   8.092  0.0842  0.4473  0.2573
  312TIP3    H222496   4.950   1.577   7.980  0.7047  1.1495  0.3826
  313TIP3   OH222497   5.081   5.542   0.912 -0.2442 -0.1732  0.0012
  313TIP3    H122498   5.055   5.611   0.851 -2.1302 -1.5819 -0.8932
  313TIP3    H222499   5.175   5.555   0.924  0.0841  0.6096 -2.6545
  314TIP3   OH222500   1.619   6.742   6.405 -0.1528 -0.0091  0.0028
  314TIP3    H122501   1.689   6.685   6.434  1.5938  1.5462 -0.9145
  314TIP3    H222502   1.539   6.701   6.437  1.2368 -1.2685  2.0795
  315TIP3   OH222503   6.019   0.983   0.348  0.1213 -0.2083 -0.4498
  315TIP3    H122504   6.016   1.054   0.412  1.0001 -0.6228  0.0644
  315TIP3    H222505   5.932   0.984   0.307 -0.5956 -0.1653  0.9920
  316TIP3   OH222506   2.454   2.284   1.354  0.5446 -0.7192 -0.3547
  316TIP3    H122507   2.437   2.212   1.293  0.5418 -1.2198  0.2267
  316TIP3    H222508   2.376   2.339   1.349  1.1577  0.0897 -1.9309
  317TIP3   OH222509   5.607   2.487   2.442  0.8722  0.3046  0.0446
  317TIP3    H122510   5.512   2.478   2.432  1.0751 -0.9703 -1.1065
  317TIP3    H222511   5.625   2.463   2.532  0.1499  0.0582  0.1262
  318TIP3   OH222512   6.013   4.580   8.459 -0.2150 -0.2164 -0.5155
  318TIP3    H122513   6.092   4.597   8.511 -0.7254 -0.9010  0.4956
  318TIP3    H222514   5.942   4.577   8.522 -1.4227  2.4444 -1.6043
  319TIP3   OH222515   4.307   2.622   8.456 -0.4580  0.0680  0.4834
  319TIP3    H122516   4.233   2.617   8.516 -1.5858 -1.5449 -0.9281
  319TIP3    H222517   4.288   2.556   8.389  1.2876  0.9846 -1.0133
  320TIP3   OH222518   1.727   2.040   0.256  0.0264 -0.0430  0.0680
  320TIP3    H122519   1.653   2.096   0.233  0.0246 -0.5814 -1.3334
  320TIP3    H222520   1.799   2.074   0.203  0.1839 -0.9427 -0.3128
  321TIP3   OH222521   0.526   1.235   8.119  0.1681 -0.9654 -0.1808
  321TIP3    H122522   0.490   1.183   8.048  0.3914 -2.3496  0.6730
  321TIP3    H222523   0.603   1.185   8.148  0.5254 -0.0364  0.5176
  322TIP3   OH222524   5.536   2.615   6.580  0.2680 -0.0688  0.0686
  322TIP3    H122525   5.455   2.611   6.631 -0.4273  0.8363 -0.9132
  322TIP3    H222526   5.514   2.671   6.505  1.6048 -0.3829 -0.5842
  323TIP3   OH222527   5.530   6.527   6.707  0.1100 -0.0576  0.4762
  323TIP3    H122528   5.498   6.523   6.617 -1.2664 -2.0625  0.9981
  323TIP3    H222529   5.622   6.502   6.701 -0.3242 -1.6087 -0.2588
  324TIP3   OH222530   0.124   1.643   6.503  0.3915  0.2714 -0.2955
  324TIP3    H122531   0.060   1.660   6.434  2.0902  0.3211 -1.9803
  324TIP3    H222532   0.110   1.712   6.567 -0.1393  1.3009 -1.4722
  325TIP3   OH222533   3.360   6.092   7.573 -0.1776 -0.1361 -0.1813
  325TIP3    H122534   3.445   6.130   7.553 -1.0104  1.8648 -0.0872
  325TIP3    H222535   3.318   6.154   7.632 -2.2479 -0.3669 -1.3110
  326TIP3   OH222536   4.844   4.506   7.324  0.2750  0.6089  0.2432
  326TIP3    H122537   4.846   4.601   7.310 -1.3479  0.4886 -1.1959
  326TIP3    H222538   4.848   4.469   7.236  0.1051 -0.6346  0.7364
  327TIP3   OH222539   6.416   3.443   1.475  0.1348 -0.3803 -0.6128
  327TIP3    H122540   6.377   3.438   1.388 -1.7049 -0.5300  0.1712
  327TIP3    H222541   6.376   3.370   1.524  0.8550 -0.0868  0.4580
  328TIP3   OH222542   0.573   4.982   0.540  0.0011  0.6837  0.6482
  328TIP3    H122543   0.501   4.989   0.602 -3.0579  0.1700 -2.5068
  328TIP3    H222544   0.569   4.892   0.508  0.1516  1.4070 -1.6081
  329TIP3   OH222545   5.261   0.360   0.436 -0.4510 -0.4979  0.0774
  329TIP3    H122546   5.214   0.308   0.371 -1.4348  0.3530  0.0893
  329TIP3    H222547   5.240   0.317   0.520 -0.1520 -0.8820 -0.0403
  330TIP3   OH222548   2.729   1.040   0.592 -0.6029 -0.2413 -0.0045
  330TIP3    H122549   2.781   0.965   0.565  2.1615  1.1873  0.9621
  330TIP3    H222550   2.699   1.019   0.680 -0.8509 -0.6626 -0.1847
  331TIP3   OH222551   0.303   5.774   0.537 -0.0825  0.1510 -0.2175
  331TIP3    H122552   0.397   5.758   0.540 -0.0003  0.2953 -1.6844
  331TIP3    H222553   0.280   5.795   0.628  1.2197 -0.2658  0.2288
  332TIP3   OH222554   5.298   1.633   1.146 -0.6341  0.9489  0.1725
  332TIP3    H122555   5.328   1.650   1.235  0.2669 -1.7178  0.4656
  332TIP3    H222556   5.236   1.561   1.155 -3.3336  2.9694 -1.0374
  333TIP3   OH222557   5.290   2.662   8.514 -0.8583  0.2270 -0.1172
  333TIP3    H122558   5.312   2.636   8.424 -0.0056  0.4075  0.0324
  333TIP3    H222559   5.201   2.697   8.507 -1.0423 -0.3298 -0.7816
  334TIP3   OH222560   5.092   4.077   7.273 -0.0852  0.1060 -0.1206
  334TIP3    H122561   5.114   4.171   7.272  1.0744 -0.0961  1.4136
  334TIP3    H222562   5.010   4.073   7.321  0.0130  0.3268  0.0736
  335TIP3   OH222563   4.745   3.002   7.448 -0.4570 -0.1418  0.2334
  335TIP3    H122564   4.664   2.953   7.455 -1.1223  0.7148 -1.0731
  335TIP3    H222565   4.718   3.093   7.437  0.7048  0.2819  0.6337
  336TIP3   OH222566   4.500   4.913   0.595 -0.2350 -0.0812 -0.1314
  336TIP3    H122567   4.474   4.961   0.516 -1.5068 -0.9757 -0.2836
  336TIP3    H222568   4.445   4.950   0.664 -0.2547 -0.3941  0.0205
  337TIP3   OH222569   6.287   3.894   0.073 -0.2759 -0.0179  0.1666
  337TIP3    H122570   6.266   3.889   0.167 -1.3499  0.5356 -0.0240
  337TIP3    H222571   6.225   3.834   0.032  0.8566 -1.0260 -0.1181
  338TIP3   OH222572   5.399   0.541   7.193 -0.2028 -0.1124 -0.8624
  338TIP3    H122573   5.418   0.635   7.198  0.2354 -0.1898 -1.1225
  338TIP3    H222574   5.480   0.498   7.218 -0.4206 -0.4278 -0.6832
  339TIP3   OH222575   3.968   0.035   7.573 -0.7183 -0.2961 -0.1129
  339TIP3    H122576   4.002   0.081   7.650  1.5682  1.2706 -1.9171
  339TIP3    H222577   4.039  -0.024   7.547 -2.1466 -2.1299 -0.0561
  340TIP3   OH222578   4.090   5.942   8.476  0.1268 -0.1220  0.1175
  340TIP3    H122579   4.096   5.875   8.544 -1.0924 -0.6686 -0.2721
  340TIP3    H222580   4.012   5.917   8.426 -0.5100  1.7440  0.1142
  341TIP3   OH222581   0.106   3.756   7.820  0.1517 -0.2261  0.0767
  341TIP3    H122582   0.135   3.670   7.791 -1.7954 -1.0536  0.3998
  341TIP3    H222583   0.075   3.799   7.740  0.0565 -0.2970  0.0739
  342TIP3   OH222584   3.974   0.519   0.941 -0.0200  0.0118 -0.1549
  342TIP3    H122585   3.991   0.459   1.013  0.4368 -1.3911 -1.3941
  342TIP3    H222586   3.987   0.606   0.979 -0.1171 -0.6711  1.5226
  343TIP3   OH222587   2.082   0.967   2.302  0.2497  0.0499  0.5311
  343TIP3    H122588   2.081   1.062   2.306 -0.2912  0.0506  0.4667
  343TIP3    H222589   1.994   0.940   2.330  0.6922 -0.4729  1.5030
  344TIP3   OH222590   0.682   6.281   0.981 -0.1104  0.8174  0.0763
  344TIP3    H122591   0.601   6.240   1.011 -0.2712 -0.8725 -2.3281
  344TIP3    H222592   0.750   6.245   1.037 -0.7374  0.3733  0.5641
  345TIP3   OH222593   4.570   5.710   1.110 -0.1300  0.1497  0.1380
  345TIP3    H122594   4.627   5.723   1.185 -0.2053  0.1200  0.1999
  345TIP3    H222595   4.507   5.782   1.114  0.1121  0.3784 -0.1227
  346TIP3   OH222596   1.470   2.021   0.724 -0.1056 -0.3880 -0.6005
  346TIP3    H122597   1.523   2.000   0.646  2.5341  0.0505  0.9690
  346TIP3    H222598   1.511   1.973   0.795 -0.5188  1.6390  1.1127
  347TIP3   OH222599   6.007   1.530   0.653 -0.2360 -0.3308  0.1371
  347TIP3    H122600   5.986   1.459   0.714 -0.0327  0.5872  1.3251
  347TIP3    H222601   5.926   1.581   0.646  1.0377  2.7446  4.0885
  348TIP3   OH222602   5.784   2.499   7.671  0.2555  0.4109  0.3573
  348TIP3    H122603   5.721   2.431   7.650 -0.4421  1.1582 -0.0318
  348TIP3    H222604   5.730   2.575   7.693  1.0067  1.3137 -0.8114
  349TIP3   OH222605   6.382   4.847   0.067 -0.1943  0.1652 -0.4503
  349TIP3    H122606   6.441   4.791   0.015  1.7896  0.0405  1.7854
  349TIP3    H222607   6.439   4.915   0.102 -1.6470  0.7589  0.8552
  350TIP3   OH222608   3.625   0.149   2.127 -0.5281  0.4014  0.3985
  350TIP3    H122609   3.544   0.149   2.178 -1.1155  0.2637 -0.4993
  350TIP3    H222610   3.694   0.165   2.191 -1.4092  2.1695  0.9732
  351TIP3   OH222611   4.980   2.388   0.624  0.0453 -0.2375 -0.4947
  351TIP3    H122612   5.064   2.364   0.664 -0.7800 -0.2444  1.3582
  351TIP3    H222613   4.917   2.328   0.663 -0.9540  0.3251 -1.2152
  352TIP3   OH222614   5.954   1.143   2.160 -0.4941  0.3672  0.3133
  352TIP3    H122615   6.008   1.175   2.088 -1.7467  1.9984  0.0411
  352TIP3    H222616   5.878   1.104   2.117 -0.3449 -0.4249  0.7358
  353TIP3   OH222617   0.213   5.200   6.981  0.2592 -0.0479 -0.3621
  353TIP3    H122618   0.166   5.218   6.900  1.2835 -2.8235 -1.7061
  353TIP3    H222619   0.292   5.152   6.954  2.0847  1.3187  2.0829
  354TIP3   OH222620   2.421   2.187   8.299 -0.2524  0.0998  0.0611
  354TIP3    H122621   2.345   2.171   8.355 -0.5193  1.1908  0.0210
  354TIP3    H222622   2.384   2.191   8.210 -0.0365 -0.1371 -0.0402
  355TIP3   OH222623   0.373   3.815   0.345 -0.4037 -0.3602 -0.0824
  355TIP3    H122624   0.320   3.891   0.370  0.2000  0.3666 -0.9871
  355TIP3    H222625   0.309   3.744   0.337 -1.1606  0.3487 -0.5106
  356TIP3   OH222626   2.224   2.416   1.371 -0.1611 -0.4996 -0.2525
  356TIP3    H122627   2.202   2.494   1.320 -0.4373  0.1264  0.8001
  356TIP3    H222628   2.231   2.447   1.461 -0.8658 -1.7931  0.2768
  357TIP3   OH222629   5.672   0.135   6.802  0.1578 -0.2544 -0.5062
  357TIP3    H122630   5.674   0.103   6.712 -2.0259  0.3184 -0.8180
  357TIP3    H222631   5.667   0.230   6.794  0.2923 -0.1798  0.2266
  358TIP3   OH222632   0.884   3.374   8.110  0.3328 -0.3600  0.0115
  358TIP3    H122633   0.791   3.354   8.118  0.1955 -0.6577 -1.8698
  358TIP3    H222634   0.926   3.289   8.098  0.4799 -0.0620 -1.9235
  359TIP3   OH222635   4.470   2.965   7.178  0.9300 -0.3325 -0.6756
  359TIP3    H122636   4.482   2.945   7.271 -0.2435  0.7685 -0.2550
  359TIP3    H222637   4.434   2.885   7.140 -1.0458 -0.0167  0.3810
  360TIP3   OH222638   4.232   2.376   8.202 -0.0129  0.4104 -0.5160
  360TIP3    H122639   4.172   2.364   8.275  0.7185  1.5715  0.3020
  360TIP3    H222640   4.254   2.287   8.174  1.0293 -0.1258  1.7832
  361TIP3   OH222641   1.995   5.418   7.702  0.4217 -0.3798  0.1358
  361TIP3    H122642   1.994   5.420   7.798 -0.0237 -3.2597  0.2729
  361TIP3    H222643   2.088   5.410   7.680  0.8845  3.3672  0.0619
  362TIP3   OH222644   4.147   6.420   2.369  0.2781  0.3089  0.3431
  362TIP3    H122645   4.225   6.419   2.314  0.1407 -0.6282  0.1440
  362TIP3    H222646   4.170   6.364   2.444 -0.0647  0.3291  0.4639
  363TIP3   OH222647   0.829   5.123   8.352 -0.2651  0.1093 -0.4177
  363TIP3    H122648   0.909   5.126   8.405  0.9670  1.0157 -2.1999
  363TIP3    H222649   0.797   5.034   8.361 -0.9593  0.5786  2.9405
  364TIP3   OH222650   5.673   0.276   7.534 -0.0224 -0.0025 -0.0559
  364TIP3    H122651   5.631   0.198   7.569  0.5660  0.5027  1.9080
  364TIP3    H222652   5.766   0.265   7.553 -0.0619  1.6713  1.4269
  365TIP3   OH222653   3.958   3.256   1.982 -0.6644  0.3292  0.3099
  365TIP3    H122654   3.941   3.278   2.073 -0.4206  1.1940  0.1529
  365TIP3    H222655   4.046   3.216   1.982 -0.8253 -0.0306  0.4989
  366TIP3   OH222656   3.363   5.813   0.952 -0.0290 -0.1550  0.1048
  366TIP3    H122657   3.398   5.759   0.881 -0.7574  1.1593 -1.3088
  366TIP3    H222658   3.284   5.854   0.915 -1.6179 -0.9854  2.3355
  367TIP3   OH222659   5.302   3.960   7.139 -0.2813 -0.2986 -0.3552
  367TIP3    H122660   5.293   3.909   7.058  0.4862 -2.5504  0.9009
  367TIP3    H222661   5.214   3.960   7.177 -0.4366 -0.0411 -0.7004
  368TIP3   OH222662   2.929   0.331   7.637  0.3606 -0.3446 -0.0575
  368TIP3    H122663   2.925   0.379   7.555  2.9300  2.9090  1.4879
  368TIP3    H222664   2.901   0.242   7.614 -0.7747  0.8232 -3.9922
  369TIP3   OH222665   1.337   5.309   7.968 -0.2719  0.2868 -0.2690
  369TIP3    H122666   1.354   5.368   8.041  0.5360  0.2006 -0.3747
  369TIP3    H222667   1.250   5.272   7.986 -0.3634  0.7674  0.2963
  370TIP3   OH222668   1.463   5.536   0.988 -0.6674  0.5154 -0.0209
  370TIP3    H122669   1.387   5.568   1.035 -0.0236  0.2242  1.2503
  370TIP3    H222670   1.536   5.587   1.022 -0.3185  1.0349 -1.4711
  371TIP3   OH222671   2.431   0.413   7.499  0.4291 -0.5772  0.4282
  371TIP3    H122672   2.506   0.441   7.551 -0.8398  0.6491  1.6942
  371TIP3    H222673   2.411   0.488   7.443 -0.7474 -0.3001  1.1865
  372TIP3   OH222674   2.012   4.742   8.128  1.0131 -0.0274  0.5079
  372TIP3    H122675   1.977   4.823   8.090  0.2517 -0.2522  0.7199
  372TIP3    H222676   2.050   4.769   8.211  0.7224  0.1054  0.5975
  373TIP3   OH222677   5.984   0.352   0.251 -0.1725 -0.2017  0.1594
  373TIP3    H122678   6.010   0.431   0.300  1.0246 -0.8768  0.6742
  373TIP3    H222679   5.916   0.382   0.191 -0.2582  1.0724  0.8568
  374TIP3   OH222680   3.769   0.938   8.013 -0.1208  0.4438 -0.1306
  374TIP3    H122681   3.786   0.847   7.988 -2.0404  0.1506 -0.5392
  374TIP3    H222682   3.770   0.986   7.930  2.3613  1.1397  0.2045
  375TIP3   OH222683   0.383   1.546   7.102  0.1980 -0.0582 -0.2066
  375TIP3    H122684   0.340   1.462   7.082 -0.3886  0.0820  0.4147
  375TIP3    H222685   0.338   1.610   7.048  0.1501 -0.0263 -0.1278
  376TIP3   OH222686   3.670   5.600   0.987 -0.2466 -0.2490 -0.5664
  376TIP3    H122687   3.607   5.593   0.916 -1.2210  0.5843  0.1872
  376TIP3    H222688   3.689   5.694   0.993 -0.6174 -0.2349  0.6343
  377TIP3   OH222689   5.105   1.831   1.164 -0.0636 -0.1355 -0.4894
  377TIP3    H122690   5.177   1.774   1.139  0.5865  0.2611  0.3952
  377TIP3    H222691   5.142   1.919   1.162 -0.6477  0.1204 -0.4565
  378TIP3   OH222692   5.461   6.114   1.413  0.2518  0.2742  0.1885
  378TIP3    H122693   5.530   6.076   1.467 -0.3981 -0.9585  0.1991
  378TIP3    H222694   5.507   6.153   1.339  0.9820 -0.3979  0.2728
  379TIP3   OH222695   2.632   0.763   0.244 -0.3328 -0.1081  0.0927
  379TIP3    H122696   2.688   0.834   0.276 -0.8652  1.0163 -1.2985
  379TIP3    H222697   2.626   0.779   0.149 -2.2819 -0.6758  0.0646
  380TIP3   OH222698   5.874   3.424   8.735  0.5930  0.1492  0.6690
  380TIP3    H122699   5.830   3.367   8.798 -0.6404 -0.5436 -0.7436
  380TIP3    H222700   5.805   3.484   8.705  0.1478 -1.7014 -2.4586
  381TIP3   OH222701   3.370   4.086   1.339 -0.0252  0.2873  0.1554
  381TIP3    H122702   3.289   4.045   1.308  0.6579 -0.3891 -0.7967
  381TIP3    H222703   3.428   4.012   1.359  0.0994  0.7449  1.6181
  382TIP3   OH222704   2.511   1.254   0.614  0.0753  0.0048  0.0722
  382TIP3    H122705   2.594   1.210   0.635 -0.2093 -0.9003 -0.5830
  382TIP3    H222706   2.460   1.186   0.570 -0.3365  1.0460 -1.1166
  383TIP3   OH222707   1.140   1.270   8.265  0.3655  1.0062 -0.1294
  383TIP3    H122708   1.155   1.345   8.207  0.6116  0.4567 -0.7884
  383TIP3    H222709   1.223   1.222   8.263 -0.0475  0.2881 -0.3429
  384TIP3   OH222710   4.324   5.797   8.701  0.2750 -0.1934  0.5791
  384TIP3    H122711   4.241   5.820   8.742 -1.1570 -1.4281 -1.3947
  384TIP3    H222712   4.310   5.708   8.669  2.2317 -0.2739 -0.1881
  385TIP3   OH222713   3.490   3.221   7.684 -0.0357 -0.0789  0.1424
  385TIP3    H122714   3.432   3.250   7.755  1.1372  1.1060  0.6516
  385TIP3    H222715   3.458   3.268   7.607  0.0085  0.2807  0.3414
  386TIP3   OH222716   1.377   4.533   1.656  0.4266  0.0941 -0.1318
  386TIP3    H122717   1.304   4.520   1.597  0.1797 -1.1117  0.4006
  386TIP3    H222718   1.420   4.447   1.661  2.8186  1.0995 -1.6155
  387TIP3   OH222719   5.056   0.559   0.145 -0.0095 -0.0227 -0.5275
  387TIP3    H122720   4.971   0.517   0.126 -0.4451  1.0433 -0.9676
  387TIP3    H222721   5.058   0.564   0.241  0.0089 -0.9546 -0.4682
  388TIP3   OH222722   2.144   4.378   8.907 -0.3717 -0.4361 -0.5578
  388TIP3    H122723   2.142   4.408   8.816 -0.5553  1.4790  0.0246
  388TIP3    H222724   2.206   4.305   8.907 -0.1549 -0.2845 -2.1714
  389TIP3   OH222725   4.115   4.239   7.367 -0.7070 -0.2906  0.2769
  389TIP3    H122726   4.188   4.180   7.383 -0.1357  0.3897  0.2444
  389TIP3    H222727   4.093   4.226   7.275 -0.8487 -0.7402  0.3736
  390TIP3   OH222728   6.141   4.938   0.326  0.2344  0.7522  0.4943
  390TIP3    H122729   6.049   4.938   0.354 -0.0094 -0.4275 -0.2272
  390TIP3    H222730   6.137   4.954   0.232  0.5728 -1.7361  0.0098
  391TIP3   OH222731   2.576   3.110   0.720  0.0825  0.3782  0.0537
  391TIP3    H122732   2.655   3.163   0.713 -0.1812  0.7943  0.2149
  391TIP3    H222733   2.555   3.085   0.630  1.6463 -1.5944  0.1752
  392TIP3   OH222734   6.196   5.247   1.086  0.1532 -0.2003 -0.9220
  392TIP3    H122735   6.181   5.213   1.174 -1.2162  0.6168 -0.8126
  392TIP3    H222736   6.282   5.212   1.061  0.4509 -0.6443  0.6279
  393TIP3   OH222737   3.820   3.932   0.609  0.0105  0.5609  0.2611
  393TIP3    H122738   3.903   3.923   0.655 -0.5098  2.9261  1.8772
  393TIP3    H222739   3.841   3.982   0.530  0.3935 -0.5859 -0.3800
  394TIP3   OH222740   4.425   2.751   1.649 -0.2760  0.6189 -0.3380
  394TIP3    H122741   4.362   2.783   1.714  0.0112 -0.1214  0.3086
  394TIP3    H222742   4.484   2.694   1.697 -0.2937 -0.2673 -1.3222
  395TIP3   OH222743   4.351   6.438   8.881  0.3292 -0.1932 -0.2224
  395TIP3    H122744   4.381   6.470   8.966  1.7607 -2.5033  0.2319
  395TIP3    H222745   4.259   6.416   8.894  0.9904 -2.3230  1.3680
  396TIP3   OH222746   2.608   2.332   2.322  0.1057  0.2040 -0.1230
  396TIP3    H122747   2.592   2.335   2.227  2.4972  1.8661 -0.5764
  396TIP3    H222748   2.687   2.385   2.334  0.2765 -0.5594  2.7447
  397TIP3   OH222749   2.817   5.059   7.915 -0.0734 -0.1675 -0.1564
  397TIP3    H122750   2.832   5.137   7.863  1.7403  0.5671  1.3318
  397TIP3    H222751   2.765   5.088   7.989 -0.1855 -0.5642 -0.0752
  398TIP3   OH222752   5.355   0.576   6.419  0.0502 -0.0672  0.2680
  398TIP3    H122753   5.427   0.638   6.434  0.0661 -0.1230  0.4185
  398TIP3    H222754   5.278   0.623   6.449 -0.6011  1.5859 -3.4411
  399TIP3   OH222755   4.082   4.479   7.514 -0.1228 -0.0616  0.3609
  399TIP3    H122756   4.074   4.430   7.432 -0.6202  1.3257 -0.4601
  399TIP3    H222757   4.167   4.523   7.507 -0.6752  1.0099  0.0046
  400TIP3   OH222758   0.492   0.704   0.299 -0.0682 -0.5937 -0.4153
  400TIP3    H122759   0.508   0.623   0.348  2.1105  1.7090  3.1191
  400TIP3    H222760   0.563   0.708   0.235 -0.6920 -1.8075 -1.2209
  401TIP3   OH222761   4.436   6.724   0.867 -0.8689  0.0165  0.5328
  401TIP3    H122762   4.449   6.771   0.784  0.3343 -1.6379 -0.2984
  401TIP3    H222763   4.366   6.661   0.848 -0.0602 -0.8962  0.4910
  402TIP3   OH222764   5.574   6.671   6.935  0.1009 -0.3900 -0.2209
  402TIP3    H122765   5.613   6.750   6.897 -0.0984  0.6259  1.5941
  402TIP3    H222766   5.555   6.615   6.859  1.2219  0.8355 -1.4695
  403TIP3   OH222767   1.054   5.194   8.897  0.5099  0.0356  0.3864
  403TIP3    H122768   1.076   5.260   8.962  1.0536 -0.3595  0.6137
  403TIP3    H222769   0.993   5.135   8.941 -0.4222  0.6978  0.0020
  404TIP3   OH222770   0.783   3.992   0.508 -0.1047  0.2574 -0.1638
  404TIP3    H122771   0.722   3.989   0.434 -1.0460 -0.7181  0.6068
  404TIP3    H222772   0.733   4.032   0.579  0.3165 -0.0750  0.3331
  405TIP3   OH222773   4.620   0.670   8.428  0.1903 -0.2613 -0.2515
  405TIP3    H122774   4.552   0.708   8.484  0.1208  0.3257 -0.7188
  405TIP3    H222775   4.631   0.735   8.358  1.1691 -0.3894 -0.2238
  406TIP3   OH222776   3.138   2.252   7.442 -0.3009 -0.5719  0.0012
  406TIP3    H122777   3.218   2.227   7.395  0.1058 -0.7141  0.7575
  406TIP3    H222778   3.076   2.273   7.373  0.9024  1.2341 -0.6158
  407TIP3   OH222779   1.971   5.140   0.812  0.3282 -0.3990  0.0958
  407TIP3    H122780   1.998   5.222   0.855  0.0123 -0.0836 -0.2985
  407TIP3    H222781   1.903   5.105   0.868  1.4248 -1.1241  1.0218
  408TIP3   OH222782   4.515   3.240   8.267 -0.4541 -0.3981 -0.3347
  408TIP3    H122783   4.596   3.291   8.264  0.4327 -1.7899 -1.7984
  408TIP3    H222784   4.456   3.284   8.206 -1.0743  0.9615  1.1716
  409TIP3   OH222785   3.243   3.743   0.352 -0.4015 -0.3771 -0.3221
  409TIP3    H122786   3.234   3.765   0.259 -1.9662  1.2659  0.1559
  409TIP3    H222787   3.161   3.773   0.392 -0.1872 -1.9403  1.4477
  410TIP3   OH222788   6.107   1.269   7.650  0.4245 -0.1179 -0.9188
  410TIP3    H122789   6.188   1.220   7.657  0.3520 -0.1113  0.1763
  410TIP3    H222790   6.116   1.341   7.713 -0.4798 -0.2201 -0.6416
  411TIP3   OH222791   0.937   0.533   2.085  0.1129  0.2755 -0.6167
  411TIP3    H122792   0.896   0.571   2.162 -0.5232  2.2137 -1.8291
  411TIP3    H222793   1.031   0.552   2.097 -0.0133  0.8191 -0.4346
  412TIP3   OH222794   3.296   1.160   8.508  0.5782 -0.2168  0.3456
  412TIP3    H122795   3.287   1.253   8.529 -1.2762 -0.0507 -1.0075
  412TIP3    H222796   3.385   1.153   8.473  1.2235  0.7688  1.6701
  413TIP3   OH222797   2.480   4.591   0.842 -0.3077  0.8885  0.0006
  413TIP3    H122798   2.488   4.495   0.843 -2.8351  0.5975  1.0416
  413TIP3    H222799   2.567   4.622   0.818  0.6652 -1.6562 -0.1271
  414TIP3   OH222800   6.676   5.471   8.162  0.2161 -0.0916 -0.4822
  414TIP3    H122801   6.609   5.525   8.205  0.5970  0.4478 -0.5536
  414TIP3    H222802   6.628   5.395   8.130 -0.3201  0.1639 -0.3043
  415TIP3   OH222803   1.338   6.582   1.834 -0.0350 -0.0752  0.1606
  415TIP3    H122804   1.323   6.597   1.928 -2.3500  2.1825 -0.4751
  415TIP3    H222805   1.331   6.487   1.825 -1.4088 -0.2291  2.0633
  416TIP3   OH222806   2.781   4.573   1.414  0.7743 -0.4286  0.0366
  416TIP3    H122807   2.851   4.636   1.398  1.3823 -1.2920 -0.8367
  416TIP3    H222808   2.818   4.512   1.477  0.6088 -0.5814 -0.0140
  417TIP3   OH222809   3.696   3.695   2.126  0.1954 -0.5231 -0.8899
  417TIP3    H122810   3.640   3.735   2.192  1.7065 -1.5808  1.1122
  417TIP3    H222811   3.774   3.750   2.124  1.4719 -2.1955  0.5089
  418TIP3   OH222812   0.114   3.479   7.067 -0.3306 -0.1680  0.2211
  418TIP3    H122813   0.156   3.450   6.986  1.2273 -0.3995  1.0716
  418TIP3    H222814   0.090   3.570   7.050 -1.0779 -0.5328 -0.8655
  419TIP3   OH222815   2.193   3.924   7.116  0.3972  0.3261 -0.4475
  419TIP3    H122816   2.104   3.959   7.109  1.1482  2.2011 -1.1042
  419TIP3    H222817   2.190   3.842   7.067 -1.4243 -0.6559  1.1589
  420TIP3   OH222818   0.786   3.569   0.139 -0.7164  0.1091 -0.5172
  420TIP3    H122819   0.848   3.622   0.089 -0.3339 -0.3037 -0.4818
  420TIP3    H222820   0.792   3.603   0.229  2.2633 -2.3449  0.3600
  421TIP3   OH222821   3.725   5.139   1.765  0.3515 -0.0797 -0.0770
  421TIP3    H122822   3.667   5.065   1.785  2.3156 -2.1208 -1.4422
  421TIP3    H222823   3.813   5.101   1.763  1.6172  2.5873  0.4069
  422TIP3   OH222824   3.217   0.167   0.133  0.2174  0.3219  0.0567
  422TIP3    H122825   3.245   0.207   0.215  1.3714 -2.0787  0.9354
  422TIP3    H222826   3.130   0.204   0.117 -0.0919  0.8067  2.4219
  423TIP3   OH222827   0.037   3.695   7.278  0.2895  0.6146  0.3261
  423TIP3    H122828   0.056   3.713   7.186  0.0577  0.6931  0.2922
  423TIP3    H222829   0.059   3.776   7.324 -0.5791  0.9404  0.1989
  424TIP3   OH222830   6.101   5.818   8.523  0.1671 -0.0413  0.4150
  424TIP3    H122831   6.167   5.769   8.474 -2.1290 -0.6538 -2.3513
  424TIP3    H222832   6.068   5.882   8.461 -1.1303  0.9370  2.0419
  425TIP3   OH222833   1.531   5.898   0.089  0.2738 -0.1705 -0.0211
  425TIP3    H122834   1.556   5.963   0.155 -0.3105  0.6406 -0.5742
  425TIP3    H222835   1.557   5.814   0.126  0.0402  0.2797  1.1982
  426TIP3   OH222836   3.125   6.265   2.366  0.1454  0.6946  0.0459
  426TIP3    H122837   3.031   6.283   2.358 -0.3265 -1.3774  0.1580
  426TIP3    H222838   3.137   6.183   2.317  1.8689  0.8386  0.1851
  427TIP3   OH222839   3.666   4.405   0.490  0.1993 -0.7441 -1.0047
  427TIP3    H122840   3.698   4.418   0.579 -0.4585 -1.6958 -0.6098
  427TIP3    H222841   3.620   4.321   0.493 -1.5861  0.1501 -1.7234
  428TIP3   OH222842   4.527   1.186   0.983 -0.6806 -0.3527  0.0849
  428TIP3    H122843   4.617   1.216   0.969 -0.2470 -0.3132  2.4812
  428TIP3    H222844   4.484   1.258   1.028 -1.9888 -0.3296 -1.1324
  429TIP3   OH222845   1.045   0.465   7.195 -0.3987  0.1832 -0.3899
  429TIP3    H122846   1.110   0.429   7.135 -0.0610 -0.4688  0.3476
  429TIP3    H222847   1.070   0.556   7.207  0.7959 -0.2317  0.4134
  430TIP3   OH222848   1.929   1.161   8.451  0.7207  0.0206  0.2803
  430TIP3    H122849   1.958   1.178   8.362 -0.8514 -0.8578 -0.4279
  430TIP3    H222850   1.969   1.077   8.474  1.5084  0.4712  0.5997
  431TIP3   OH222851   2.794   2.098   6.828 -0.1723 -0.5175 -0.4865
  431TIP3    H122852   2.840   2.073   6.748 -0.0413 -0.5044 -0.4164
  431TIP3    H222853   2.702   2.081   6.809  0.0664 -3.6337  0.4554
  432TIP3   OH222854   3.813   0.974   3.009 -0.5399 -0.2958  0.6707
  432TIP3    H122855   3.794   0.991   2.917 -0.2169  0.3684  0.7172
  432TIP3    H222856   3.768   1.043   3.057 -0.5516 -0.5253  0.9978
  433TIP3   OH222857   6.616   1.177   6.852  0.1854  0.0077 -0.3074
  433TIP3    H122858   6.710   1.174   6.837  0.4780 -0.9543  1.4780
  433TIP3    H222859   6.605   1.242   6.922 -0.2926 -0.9637  0.5453
  434TIP3   OH222860   3.863   5.821   7.412  0.4939 -0.0298 -0.5292
  434TIP3    H122861   3.796   5.879   7.449  2.1844  2.2543 -0.8299
  434TIP3    H222862   3.931   5.817   7.479  1.7040  0.7851 -1.6423
  435TIP3   OH222863   1.317   0.274   7.555 -0.0710  0.5964  0.5612
  435TIP3    H122864   1.250   0.265   7.487 -0.2643 -1.4718  0.9603
  435TIP3    H222865   1.399   0.286   7.506 -0.2197 -0.8003 -0.0933
  436TIP3   OH222866   0.256   5.286   0.391  0.1705  0.8719  0.2018
  436TIP3    H122867   0.301   5.312   0.311  1.7896  0.7330  1.0282
  436TIP3    H222868   0.246   5.367   0.440  2.0674  0.5516  1.2261
  437TIP3   OH222869   0.449   3.529   7.695  0.1301  0.2832  0.2716
  437TIP3    H122870   0.544   3.541   7.693 -0.0337  1.5716 -0.3281
  437TIP3    H222871   0.414   3.600   7.641 -1.1491 -0.4889  0.0368
  438TIP3   OH222872   2.287   2.410   8.907 -0.2298 -0.2938  0.2183
  438TIP3    H122873   2.287   2.314   8.900  0.4804 -0.2681 -0.1777
  438TIP3    H222874   2.250   2.440   8.824  0.6771 -0.1949 -0.1519
  439TIP3   OH222875   0.041   6.451   7.366 -0.1998 -0.5149 -0.1820
  439TIP3    H122876   0.048   6.536   7.410  0.7048 -1.0051  0.6779
  439TIP3    H222877  -0.032   6.408   7.411  0.2271 -0.7140  0.3370
  440TIP3   OH222878   1.408   2.184   0.096 -0.3656  0.4916  0.4250
  440TIP3    H122879   1.367   2.218   0.016 -0.2103 -0.3304 -0.0238
  440TIP3    H222880   1.455   2.106   0.066  1.2743  1.2348  0.9809
  441TIP3   OH222881   5.531   2.359   8.459 -0.5012  0.1974  0.4611
  441TIP3    H122882   5.553   2.301   8.532 -0.3168  1.5652  1.5356
  441TIP3    H222883   5.435   2.365   8.462 -0.4339  1.0881  1.2913
  442TIP3   OH222884   0.004   0.425   8.715 -0.1716  0.4711  0.0816
  442TIP3    H122885   0.008   0.499   8.775 -0.6323  2.1546 -1.8718
  442TIP3    H222886  -0.082   0.431   8.674  0.2192 -0.4899 -0.9347
  443TIP3   OH222887   3.902   4.315   6.857 -0.6502 -0.4463  0.0063
  443TIP3    H122888   3.953   4.381   6.902  0.7462 -2.1717  1.0969
  443TIP3    H222889   3.919   4.329   6.764  0.3474  0.1321  0.2704
  444TIP3   OH222890   1.231   3.082   0.007  0.4684  0.3060  0.2209
  444TIP3    H122891   1.248   3.075  -0.087  0.2212  2.5398 -0.0237
  444TIP3    H222892   1.250   3.173   0.028  0.4467 -0.1424  2.3410
  445TIP3   OH222893   3.932   6.196   0.040  0.1786  0.5225  0.3235
  445TIP3    H122894   3.939   6.119  -0.016 -2.7485  0.7752 -0.5716
  445TIP3    H222895   3.965   6.167   0.125  1.2845 -0.9901 -0.5720
  446TIP3   OH222896   2.183   2.601   0.862  0.3304  0.6389  0.0303
  446TIP3    H122897   2.273   2.584   0.890  0.4452  0.0753 -0.6377
  446TIP3    H222898   2.188   2.610   0.767  0.0697  3.3405  0.1968
  447TIP3   OH222899   0.605   6.120   7.835 -0.4545  0.1117 -0.3535
  447TIP3    H122900   0.698   6.129   7.814 -0.6165  0.7841 -0.8250
  447TIP3    H222901   0.564   6.194   7.790 -0.9782  0.8965  1.3596
  448TIP3   OH222902   0.312   6.712   8.563  0.1521 -0.1484 -0.8176
  448TIP3    H122903   0.323   6.753   8.648 -0.3419 -0.0931 -0.7795
  448TIP3    H222904   0.359   6.629   8.570  2.4815  1.0427 -1.3875
  449TIP3   OH222905   2.939   1.822   1.048  0.3164  0.3311  0.2033
  449TIP3    H122906   3.032   1.836   1.031  0.9285  1.3576  3.7008
  449TIP3    H222907   2.921   1.872   1.127 -2.8545 -1.1576  0.5779
  450TIP3   OH222908   5.380   4.452   7.162  0.0836 -0.1922  0.7025
  450TIP3    H122909   5.409   4.530   7.209  0.6032 -0.4395  0.7928
  450TIP3    H222910   5.286   4.447   7.180 -0.0241  0.6056  0.4093
  451TIP3   OH222911   4.770   4.319   7.790 -0.6273  0.3972  0.1624
  451TIP3    H122912   4.739   4.404   7.824  0.5405  1.5258 -1.4806
  451TIP3    H222913   4.711   4.299   7.718 -0.2427  0.3372 -0.1356
  452TIP3   OH222914   2.164   5.334   1.715  0.1151  0.0580 -0.1951
  452TIP3    H122915   2.164   5.238   1.716  1.9890 -0.0363 -2.1603
  452TIP3    H222916   2.072   5.357   1.699 -0.0239 -1.5275 -2.0881
  453TIP3   OH222917   2.863   0.282   2.355  0.4878  0.3306  0.5600
  453TIP3    H122918   2.951   0.307   2.327 -0.0520  3.0820  0.9890
  453TIP3    H222919   2.820   0.252   2.275  1.3914  0.3270  0.0629
  454TIP3   OH222920   6.380   5.493   7.234  0.3617 -0.7251 -0.4261
  454TIP3    H122921   6.331   5.410   7.235 -1.0689  0.0856  0.0794
  454TIP3    H222922   6.472   5.467   7.233 -0.0446 -2.3280  0.8635
  455TIP3   OH222923   1.667   5.229   0.107  0.5107 -0.4728  0.3354
  455TIP3    H122924   1.683   5.158   0.170  0.5459  0.0002  0.8677
  455TIP3    H222925   1.578   5.257   0.124  0.1011 -1.1430 -0.6501
  456TIP3   OH222926   1.452   2.307   0.330  0.0873 -0.0167 -0.0938
  456TIP3    H122927   1.426   2.253   0.255 -0.4604  0.1458 -0.0298
  456TIP3    H222928   1.377   2.365   0.344  1.5973  2.5347 -1.7766
  457TIP3   OH222929   4.343   1.823   7.166 -0.3746  0.2782 -0.1016
  457TIP3    H122930   4.346   1.767   7.088  0.9625 -1.0633  0.8396
  457TIP3    H222931   4.272   1.787   7.218 -0.8117  0.7313 -0.3801
  458TIP3   OH222932   0.115   4.665   7.733  0.7514  0.0167  0.2242
  458TIP3    H122933   0.189   4.702   7.780  0.6951  0.1129  0.2381
  458TIP3    H222934   0.095   4.583   7.779 -0.9772  1.3525  2.0531
  459TIP3   OH222935   5.221   3.360   0.065  0.5761 -0.1861 -0.4014
  459TIP3    H122936   5.183   3.299   0.002 -0.5119 -0.8343  0.8399
  459TIP3    H222937   5.314   3.338   0.067  0.6630 -0.0449 -1.8690
  460TIP3   OH222938   0.406   5.893   6.875 -0.1531 -0.7187 -0.3842
  460TIP3    H122939   0.344   5.937   6.932 -0.2396 -0.6164 -0.5542
  460TIP3    H222940   0.351   5.850   6.809 -0.0538 -0.7962 -0.4161
  461TIP3   OH222941   3.382   1.047   0.970 -0.6729 -0.4314 -0.4689
  461TIP3    H122942   3.444   0.974   0.963 -1.1959 -0.7892 -1.8216
  461TIP3    H222943   3.403   1.103   0.895 -0.9102  0.3120  0.0104
  462TIP3   OH222944   4.596   3.492   0.205 -0.1100  0.1951  1.2796
  462TIP3    H122945   4.616   3.584   0.223 -1.0530  0.5181  0.7033
  462TIP3    H222946   4.661   3.465   0.140 -0.4685  0.7441  0.6948
  463TIP3   OH222947   3.395   4.805   7.364 -0.2170  0.1882 -0.0662
  463TIP3    H122948   3.333   4.745   7.323 -0.1325 -0.5400  0.8681
  463TIP3    H222949   3.401   4.878   7.302  0.3304 -1.1332 -1.6344
  464TIP3   OH222950   4.824   1.579   7.789  0.4381  0.4025  0.0779
  464TIP3    H122951   4.831   1.524   7.710  1.8685  1.6655 -0.7307
  464TIP3    H222952   4.735   1.615   7.785 -0.2790 -1.2400  0.2482
  465TIP3   OH222953   1.292   1.142   7.190 -0.5964  0.1953  1.1274
  465TIP3    H122954   1.295   1.201   7.114  0.9212 -0.6292  0.5098
  465TIP3    H222955   1.338   1.189   7.259  0.1442 -0.0359  0.7969
  466TIP3   OH222956   0.562   5.629   0.198 -0.2184 -0.1182  0.3093
  466TIP3    H122957   0.545   5.539   0.224  4.1616 -0.7259  2.0454
  466TIP3    H222958   0.569   5.677   0.280  1.0136  0.9473 -0.3690
  467TIP3   OH222959   3.506   2.897   8.616 -0.1441  0.9405 -0.0102
  467TIP3    H122960   3.550   2.933   8.538 -1.2098  1.9140 -0.1976
  467TIP3    H222961   3.525   2.803   8.614  1.4323  1.2474 -0.3820
  468TIP3   OH222962   0.528   5.950   7.618 -0.8519  0.6128  0.0375
  468TIP3    H122963   0.539   6.042   7.644  0.0067  0.6009 -0.2228
  468TIP3    H222964   0.483   5.954   7.534 -0.9533  0.7939  0.1006
  469TIP3   OH222965   2.151   0.349   2.246  0.2673 -0.7569  0.1558
  469TIP3    H122966   2.190   0.269   2.211  1.4841  1.1937 -3.4834
  469TIP3    H222967   2.058   0.342   2.221 -0.1713 -1.9646  1.9371
  470TIP3   OH222968   4.644   0.494   1.435 -0.7240 -0.2179 -0.2269
  470TIP3    H122969   4.592   0.438   1.492  0.7967 -2.7643 -1.1492
  470TIP3    H222970   4.673   0.436   1.364  3.4705  0.8513  0.3094
  471TIP3   OH222971   1.929   3.954   1.322  0.2110  0.0706 -0.2800
  471TIP3    H122972   1.855   4.003   1.359 -1.2040 -1.2791 -1.1784
  471TIP3    H222973   1.937   3.877   1.378 -0.2764 -0.6882 -1.2234
  472TIP3   OH222974   6.484   0.534   1.197 -0.2439 -1.1025  0.8655
  472TIP3    H122975   6.506   0.610   1.143 -0.6099  0.9789  3.4280
  472TIP3    H222976   6.568   0.508   1.236  0.0380 -2.6618 -0.6611
  473TIP3   OH222977   5.405   1.164   1.617  0.4942  0.5491  0.3220
  473TIP3    H122978   5.353   1.243   1.607  0.5765  0.6039  0.3264
  473TIP3    H222979   5.406   1.146   1.711  0.2893  0.4177  0.2994
  474TIP3   OH222980   0.052   0.888   6.193  0.2074  0.0137 -0.3324
  474TIP3    H122981   0.117   0.820   6.212  1.1863  0.0112 -3.2136
  474TIP3    H222982   0.080   0.964   6.244  0.8057 -0.8537  0.6600
  475TIP3   OH222983   1.425   3.450   0.324  0.0978 -0.3240 -0.4062
  475TIP3    H122984   1.510   3.491   0.341  0.4461 -0.4548 -1.7155
  475TIP3    H222985   1.362   3.521   0.339  0.4583 -0.1139  0.1813
  476TIP3   OH222986   6.262   4.442   0.054  0.1894  0.1171 -0.2780
  476TIP3    H122987   6.315   4.504   0.104 -0.3275 -0.9483  1.7008
  476TIP3    H222988   6.195   4.497   0.012  0.1598  0.9955  0.8612
  477TIP3   OH222989   1.580   0.842   7.638  0.0659 -0.5371  0.4152
  477TIP3    H122990   1.577   0.827   7.732 -2.3748 -0.4442  0.4318
  477TIP3    H222991   1.522   0.774   7.601  1.8055 -1.2601 -1.1594
  478TIP3   OH222992   2.007   2.471   7.645  0.1469  0.6576  0.2953
  478TIP3    H122993   1.930   2.418   7.625  1.2006 -0.5139 -0.8257
  478TIP3    H222994   2.000   2.545   7.584  0.8545 -0.4210 -1.1335
  479TIP3   OH222995   1.591   5.556   7.453 -0.2177  0.3715 -0.4256
  479TIP3    H122996   1.532   5.625   7.484  0.5495  0.4186  1.0076
  479TIP3    H222997   1.538   5.476   7.457 -0.6676  0.6540 -0.6952
  480TIP3   OH222998   0.177   2.449   7.850 -0.8415 -0.4873 -0.2444
  480TIP3    H122999   0.221   2.422   7.769  0.9139 -0.2909  0.6033
  480TIP3    H223000   0.138   2.369   7.885  0.7434 -1.1382  0.0996
  481TIP3   OH223001   2.992   6.173   8.808  0.0641 -0.3576 -0.1561
  481TIP3    H123002   2.986   6.109   8.879 -1.1243  1.1223  1.1818
  481TIP3    H223003   3.060   6.234   8.836 -1.1802  0.8782  0.3551
  482TIP3   OH223004   0.459   0.521   7.426  0.3933  0.1014  0.5415
  482TIP3    H123005   0.475   0.515   7.332 -2.3171  1.2901 -0.1055
  482TIP3    H223006   0.392   0.455   7.443  1.2478 -0.4851  1.7980
  483TIP3   OH223007   5.093   2.730   0.905  0.1896 -0.1258  0.2586
  483TIP3    H123008   5.138   2.794   0.849  1.4670  0.5616  1.9973
  483TIP3    H223009   5.045   2.675   0.843  0.0194  1.7349 -1.3998
  484TIP3   OH223010   2.478   6.249   7.482 -0.5660  0.2482  0.0731
  484TIP3    H123011   2.552   6.194   7.459  1.0900  1.5173  2.0043
  484TIP3    H223012   2.470   6.310   7.408  1.3134  1.0032  0.4162
  485TIP3   OH223013   0.711   6.014   8.488 -0.0491 -0.0126 -0.2009
  485TIP3    H123014   0.711   6.041   8.580 -1.2955  0.2921 -0.2625
  485TIP3    H223015   0.801   5.986   8.471  0.0246 -0.8248  1.3234
  486TIP3   OH223016   1.120   4.229   1.314 -0.3845 -0.4259  0.4024
  486TIP3    H123017   1.054   4.240   1.383 -1.4840 -0.7404 -0.5658
  486TIP3    H223018   1.074   4.182   1.244  0.7997 -0.4090 -0.4182
  487TIP3   OH223019   4.702   6.730   8.171  0.0993 -0.3343  0.5537
  487TIP3    H123020   4.716   6.815   8.130  0.0329  0.0783  1.3831
  487TIP3    H223021   4.758   6.670   8.121  0.6679  0.3172  0.4000
  488TIP3   OH223022   6.048   3.166   1.047  0.5556 -0.0188 -0.2735
  488TIP3    H123023   5.969   3.115   1.066  1.7021 -0.7924  3.4668
  488TIP3    H223024   6.085   3.184   1.134  3.3257  2.2081 -1.7623
  489TIP3   OH223025   3.406   5.676   7.269 -0.0550  0.3662  0.5300
  489TIP3    H123026   3.448   5.681   7.183  2.0526 -1.0689  1.3825
  489TIP3    H223027   3.401   5.767   7.299 -0.5311  0.8522 -0.9391
  490TIP3   OH223028   6.184   1.875   0.689 -0.0220 -0.0544  0.2429
  490TIP3    H123029   6.206   1.798   0.637 -0.7142  0.1302 -0.3249
  490TIP3    H223030   6.269   1.917   0.705  0.2200 -0.1987 -0.5977
  491TIP3   OH223031   4.309   5.521   7.242 -0.6161 -0.1376 -0.0239
  491TIP3    H123032   4.337   5.456   7.176 -1.7149 -0.2854 -0.3760
  491TIP3    H223033   4.383   5.580   7.251  0.7755 -1.9201  0.9425
  492TIP3   OH223034   1.076   5.217   8.487 -0.0663 -0.1198 -0.3651
  492TIP3    H123035   1.165   5.182   8.478  0.1307  0.6051 -1.4518
  492TIP3    H223036   1.077   5.298   8.436 -2.3358 -1.8802 -3.5055
  493TIP3   OH223037   0.695   2.151   8.682 -0.2265  0.6608 -0.0449
  493TIP3    H123038   0.769   2.127   8.737  0.4438  0.8352 -0.8472
  493TIP3    H223039   0.670   2.239   8.710 -0.0987  0.6243  0.1824
  494TIP3   OH223040   1.622   2.508   0.619  0.7053  0.6827  0.2070
  494TIP3    H123041   1.579   2.518   0.534 -0.1009  1.4357  0.6784
  494TIP3    H223042   1.562   2.453   0.670  0.6795  1.0674  0.6045
  495TIP3   OH223043   0.437   5.610   1.047 -0.6329 -0.3369 -0.2665
  495TIP3    H123044   0.398   5.573   1.126 -0.4749 -0.3705 -0.2021
  495TIP3    H223045   0.520   5.562   1.037  0.3246  1.0140  0.6874
  496TIP3   OH223046   4.154   0.736   1.356 -0.1296 -0.4068  0.1260
  496TIP3    H123047   4.093   0.744   1.282  0.3983 -0.9748 -0.3775
  496TIP3    H223048   4.214   0.809   1.346  1.3855 -1.8037 -1.3767
  497TIP3   OH223049   1.658   5.883   1.608 -0.8512  0.1061  0.2137
  497TIP3    H123050   1.703   5.963   1.582 -1.6911  0.0771 -1.4217
  497TIP3    H223051   1.713   5.847   1.679 -1.1629  2.7549  1.9246
  498TIP3   OH223052   2.305   5.570   7.782  0.2852 -0.3153  0.1866
  498TIP3    H123053   2.311   5.531   7.695 -0.7814 -0.5402  0.2065
  498TIP3    H223054   2.394   5.601   7.800  0.6519 -0.7936 -0.7301
  499TIP3   OH223055   4.600   1.624   0.642  0.5209 -1.2571  0.2145
  499TIP3    H123056   4.549   1.704   0.630  1.8021 -0.0827  2.0286
  499TIP3    H223057   4.597   1.580   0.557  0.2836  1.0169 -1.0159
  500TIP3   OH223058   0.062   1.538   7.007  0.0820  0.7496  0.2264
  500TIP3    H123059   0.136   1.477   7.007 -0.5210 -0.0184 -1.3292
  500TIP3    H223060   0.038   1.546   7.100  2.4589  1.5043  0.8393
  501TIP3   OH223061   4.823   2.123   2.111  0.2257  0.2931  0.4495
  501TIP3    H123062   4.776   2.115   2.028  0.9059  0.4865  0.0372
  501TIP3    H223063   4.834   2.033   2.142  0.8120  0.1434 -0.1601
  502TIP3   OH223064   3.132   2.809   8.552 -0.2491  0.4728  0.1018
  502TIP3    H123065   3.180   2.864   8.614 -0.8337  1.2136 -0.0872
  502TIP3    H223066   3.176   2.724   8.556  0.8814  1.0436  0.1593
  503TIP3   OH223067   0.057   6.708   0.992 -0.2676  0.1429  0.1929
  503TIP3    H123068   0.077   6.788   1.042 -1.2300  0.0869  0.6904
  503TIP3    H223069   0.120   6.709   0.920  3.0779 -1.1467  2.7776
  504TIP3   OH223070   0.298   1.848   8.112  0.2594  0.4640  0.0666
  504TIP3    H123071   0.304   1.752   8.112 -0.2002  0.4020  1.8293
  504TIP3    H223072   0.363   1.876   8.175 -0.3216  1.2513  0.3340
  505TIP3   OH223073   1.266   4.407   0.253  0.0604  0.0062 -0.3531
  505TIP3    H123074   1.198   4.343   0.272  0.5255 -0.6594 -0.8834
  505TIP3    H223075   1.273   4.406   0.158  0.0083  0.9234 -0.3735
  506TIP3   OH223076   4.942   3.118   6.975  0.2013  0.2766 -0.1046
  506TIP3    H123077   4.989   3.197   7.004  2.8536 -1.4248  0.5837
  506TIP3    H223078   4.985   3.093   6.893  0.7249 -1.4877  0.6681
  507TIP3   OH223079   0.126   3.442   7.412  0.0973 -0.0371 -0.3477
  507TIP3    H123080   0.209   3.427   7.366 -0.2258  0.2092 -1.0271
  507TIP3    H223081   0.098   3.529   7.384  0.6503  0.7989  1.5183
  508TIP3   OH223082   3.458   2.132   8.790 -0.6404 -0.2818 -0.4573
  508TIP3    H123083   3.408   2.161   8.867 -0.5029  0.5127 -0.6596
  508TIP3    H223084   3.532   2.193   8.785 -0.2162 -0.8200 -0.7625
  509TIP3   OH223085   1.797   0.085   1.044 -0.3268 -0.0221 -0.0339
  509TIP3    H123086   1.888   0.074   1.073 -0.2501 -1.7303 -0.7963
  509TIP3    H223087   1.754   0.005   1.074 -1.2326  0.1126 -0.9621
  510TIP3   OH223088   2.437   2.868   8.566 -0.1336 -0.3085  0.0971
  510TIP3    H123089   2.513   2.925   8.569 -1.4778  1.6522 -1.2039
  510TIP3    H223090   2.448   2.810   8.642  0.3925  2.8868  2.6826
  511TIP3   OH223091   4.220   5.210   8.871 -0.2805  0.0059  0.1482
  511TIP3    H123092   4.206   5.173   8.784  0.2553 -0.0503  0.0845
  511TIP3    H223093   4.141   5.187   8.920 -0.4664 -0.1946 -0.2411
  512TIP3   OH223094   6.366   2.047   1.158 -0.0343 -0.3039  0.2174
  512TIP3    H123095   6.405   2.050   1.071 -2.5601 -1.5691 -1.0792
  512TIP3    H223096   6.379   1.957   1.187  0.3444 -0.0227  0.9415
  513TIP3   OH223097   0.314   4.462   7.200  0.3783  0.0089 -0.4795
  513TIP3    H123098   0.244   4.524   7.180  1.0198  0.9852  0.2080
  513TIP3    H223099   0.395   4.510   7.182  0.9418  0.0758  1.8483
  514TIP3   OH223100   6.016   3.126   1.364 -0.4155  0.8162  0.2071
  514TIP3    H123101   6.042   3.080   1.444 -1.0466  0.7414  0.3813
  514TIP3    H223102   5.932   3.166   1.386 -1.7252 -1.0360 -1.0761
  515TIP3   OH223103   4.750   2.886   8.305  0.2791 -0.4919  0.0276
  515TIP3    H123104   4.672   2.868   8.357  0.8141  0.2952  1.1558
  515TIP3    H223105   4.717   2.926   8.224 -0.4602  1.7824  1.3522
  516TIP3   OH223106   1.648   2.760   0.726  0.1151  0.2079  0.0556
  516TIP3    H123107   1.739   2.785   0.713  0.6290 -0.1866  2.3643
  516TIP3    H223108   1.640   2.674   0.685  1.4831 -0.8299  1.8219
  517TIP3   OH223109   0.040   6.086   0.904  0.1898 -0.2957 -0.4882
  517TIP3    H123110   0.121   6.129   0.877 -0.3630  0.0520 -1.6991
  517TIP3    H223111   0.022   6.120   0.991 -0.0006  1.6334 -1.2383
  518TIP3   OH223112   3.360   5.576   2.243  0.6720  0.2327  0.3489
  518TIP3    H123113   3.399   5.569   2.156  0.0303  0.0591  0.0707
  518TIP3    H223114   3.328   5.666   2.249  0.7527  0.2565  0.4202
  519TIP3   OH223115   0.204   3.590   0.292 -0.1763  0.2996  0.4589
  519TIP3    H123116   0.152   3.525   0.244  0.2767  0.4934 -0.3100
  519TIP3    H223117   0.292   3.552   0.295 -0.0403  0.6212  0.4970
  520TIP3   OH223118   4.886   0.610   8.549 -0.4231  0.0297 -0.7343
  520TIP3    H123119   4.925   0.684   8.596  0.5335 -0.6404 -0.4591
  520TIP3    H223120   4.797   0.640   8.528 -0.9777  0.3135  1.6619
  521TIP3   OH223121   4.743   3.836   7.560  0.5436  0.3250 -0.1654
  521TIP3    H123122   4.701   3.822   7.475 -1.5999  1.2049  0.6530
  521TIP3    H223123   4.780   3.751   7.584 -1.1693 -0.6506 -0.8086
  522TIP3   OH223124   1.796   6.766   7.684 -0.3051 -0.0781 -0.5635
  522TIP3    H123125   1.794   6.692   7.623  1.4144  0.0251 -0.8094
  522TIP3    H223126   1.825   6.728   7.767  0.3646  0.2578 -0.6321
  523TIP3   OH223127   6.605   4.281   2.274 -0.3497 -0.2489 -0.1341
  523TIP3    H123128   6.629   4.190   2.288  0.5087 -0.1473 -0.8128
  523TIP3    H223129   6.530   4.278   2.214  0.9421 -0.4891 -1.8181
  524TIP3   OH223130   0.747   2.385   1.148  0.1549  0.2064  0.2586
  524TIP3    H123131   0.785   2.314   1.097 -1.9038 -0.6189 -0.2499
  524TIP3    H223132   0.795   2.384   1.231 -0.0153 -2.0088  0.3919
  525TIP3   OH223133   1.206   2.572   7.683  0.2551 -0.8384  0.2602
  525TIP3    H123134   1.179   2.481   7.694 -0.0086 -1.0719 -1.8804
  525TIP3    H223135   1.284   2.567   7.628  0.0570  0.2490 -0.1469
  526TIP3   OH223136   5.920   4.492   1.675  0.1683 -0.7413  0.6382
  526TIP3    H123137   5.844   4.443   1.643  0.2400 -1.3436  1.3409
  526TIP3    H223138   5.952   4.540   1.599 -1.1938 -0.1044  0.4400
  527TIP3   OH223139   0.087   1.062   6.807  0.1435  0.0656 -0.2756
  527TIP3    H123140   0.156   1.128   6.797  1.4103 -1.0030  0.8373
  527TIP3    H223141   0.108   0.995   6.742 -0.0622 -0.0951 -0.1782
  528TIP3   OH223142   4.871   4.043   6.862  0.1238 -0.0398 -0.6064
  528TIP3    H123143   4.946   4.101   6.876  0.7963 -0.6611 -1.5048
  528TIP3    H223144   4.873   3.982   6.936  0.7351 -0.2938 -0.8317
  529TIP3   OH223145   5.450   5.824   0.531 -0.2511 -0.3748 -0.4813
  529TIP3    H123146   5.518   5.816   0.464  1.4454  1.6906  0.8858
  529TIP3    H223147   5.367   5.817   0.482  0.9147 -0.0833 -2.6133
  530TIP3   OH223148   4.355   1.736   2.389  0.1691 -0.7709  0.3435
  530TIP3    H123149   4.358   1.753   2.483 -1.4857 -1.4176  0.5585
  530TIP3    H223150   4.286   1.670   2.379  0.5400 -0.9674 -1.2962
  531TIP3   OH223151   5.112   0.519   7.174 -0.2064 -0.5850 -0.2217
  531TIP3    H123152   5.094   0.458   7.102 -0.2194  1.1452 -1.7586
  531TIP3    H223153   5.206   0.536   7.167 -0.3632  0.2284 -0.3527
  532TIP3   OH223154   3.589   1.785   1.052 -0.4726  0.1553 -0.3588
  532TIP3    H123155   3.640   1.789   1.133 -2.0650  0.8003  0.6515
  532TIP3    H223156   3.590   1.875   1.019 -0.6149  0.0884 -0.5489
  533TIP3   OH223157   3.635   1.527   8.856 -0.6156  0.1562  0.0094
  533TIP3    H123158   3.625   1.617   8.827 -2.1714  0.4562  1.3299
  533TIP3    H223159   3.707   1.529   8.919  0.2106  0.2100 -0.9174
  534TIP3   OH223160   0.245   5.622   7.349  0.1764  0.7909 -0.1694
  534TIP3    H123161   0.233   5.606   7.443  1.7947  0.0826 -0.0497
  534TIP3    H223162   0.163   5.664   7.322 -0.2761  1.1639  1.5819
  535TIP3   OH223163   6.203   0.289   0.926  0.0300  0.0996 -0.0575
  535TIP3    H123164   6.166   0.236   0.855 -0.9699  1.1820 -0.3595
  535TIP3    H223165   6.285   0.244   0.947  0.9566  0.3494 -2.6687
  536TIP3   OH223166   1.395   4.917   1.487 -0.1294  0.4180  0.2057
  536TIP3    H123167   1.401   5.012   1.478  0.8856  0.2818 -0.8947
  536TIP3    H223168   1.482   4.885   1.461 -0.9559 -0.8992 -1.1440
  537TIP3   OH223169   2.617   6.435   1.341  0.1327 -0.0094 -0.3793
  537TIP3    H123170   2.712   6.426   1.348 -0.0247 -3.6488 -1.2143
  537TIP3    H223171   2.600   6.441   1.247 -0.4940  1.0096 -0.2207
  538TIP3   OH223172   3.699   3.303   7.033  0.2095  0.4173 -0.3858
  538TIP3    H123173   3.641   3.244   6.986 -0.1670 -0.6653  1.3617
  538TIP3    H223174   3.669   3.391   7.008 -1.3294 -0.1217 -0.5426
  539TIP3   OH223175   5.556   0.336   8.645 -0.1282  0.5334  0.1279
  539TIP3    H123176   5.625   0.369   8.586 -1.1441 -1.0021 -2.0749
  539TIP3    H223177   5.560   0.241   8.635 -2.1607  0.3922  0.4103
  540TIP3   OH223178   0.321   2.687   6.431 -0.2126  0.0011 -0.4313
  540TIP3    H123179   0.255   2.751   6.458 -1.0428 -0.1048 -2.0592
  540TIP3    H223180   0.390   2.739   6.389 -0.8459 -0.1086 -1.6749
  541TIP3   OH223181   0.509   2.088   6.830 -0.0498 -0.0151  0.5097
  541TIP3    H123182   0.551   2.002   6.830  1.4362  0.6856 -0.1363
  541TIP3    H223183   0.443   2.081   6.762  0.2203 -0.5686  0.2942
  542TIP3   OH223184   0.954   5.743   7.332 -0.3460  0.4265 -0.2891
  542TIP3    H123185   1.006   5.694   7.396 -0.3794  0.0550 -0.5456
  542TIP3    H223186   0.887   5.681   7.303 -0.4009  0.6317 -0.6034
  543TIP3   OH223187   5.375   2.686   1.742  0.1778 -0.1714 -0.2397
  543TIP3    H123188   5.291   2.709   1.781  1.5443  0.7093  2.4801
  543TIP3    H223189   5.391   2.754   1.677 -0.3064  0.8243  0.6608
  544TIP3   OH223190   6.305   2.655   1.617  0.0698 -0.3891 -0.0255
  544TIP3    H123191   6.369   2.595   1.655  1.9789  1.1708 -0.5576
  544TIP3    H223192   6.298   2.726   1.680  0.5790  0.5081 -0.9440
  545TIP3   OH223193   1.243   0.821   0.420 -0.4396 -0.8368  0.2430
  545TIP3    H123194   1.309   0.779   0.475 -1.5559 -1.3491  1.2153
  545TIP3    H223195   1.194   0.749   0.381 -1.4490 -0.4695  0.7942
  546TIP3   OH223196   4.994   5.488   8.396 -0.0530 -0.5931  0.4134
  546TIP3    H123197   4.928   5.437   8.443 -2.1798  3.7791  2.7951
  546TIP3    H223198   5.058   5.510   8.463 -1.3720  2.9998  0.6774
  547TIP3   OH223199   6.012   2.430   2.270 -0.3017  0.5129 -0.7711
  547TIP3    H123200   5.938   2.371   2.289  0.6040 -0.7421 -0.9979
  547TIP3    H223201   6.081   2.400   2.329  0.1977  1.3294 -0.9361
  548TIP3   OH223202   2.435   0.192   7.259  0.5203 -0.0026  0.1766
  548TIP3    H123203   2.530   0.187   7.264  0.5177  0.7900  1.7080
  548TIP3    H223204   2.406   0.194   7.351 -0.8705  1.3179 -0.2445
  549TIP3   OH223205   4.314   0.133   1.071 -0.1600  0.0813  0.0231
  549TIP3    H123206   4.282   0.045   1.091 -1.8567  0.8559  0.9345
  549TIP3    H223207   4.261   0.162   0.997 -1.3736  1.2245  1.2811
  550TIP3   OH223208   6.627   2.368   6.593  0.0712 -0.7081 -0.6631
  550TIP3    H123209   6.640   2.462   6.595 -2.0705 -0.3428 -1.4969
  550TIP3    H223210   6.672   2.339   6.514 -0.5565 -0.1363 -1.2401
  551TIP3   OH223211   2.324   1.185   8.885 -0.2823  0.0453 -0.4537
  551TIP3    H123212   2.346   1.162   8.794 -0.7226  1.2726 -0.8885
  551TIP3    H223213   2.311   1.280   8.883  0.2579  0.1742  1.0146
  552TIP3   OH223214   5.740   0.308   1.587 -0.1173 -0.8764 -0.6469
  552TIP3    H123215   5.742   0.403   1.600 -1.7094 -0.5864 -2.1704
  552TIP3    H223216   5.776   0.272   1.668 -1.2938  0.9700  0.7755
  553TIP3   OH223217   4.803   6.364   6.959 -0.3543 -0.2112  0.2522
  553TIP3    H123218   4.718   6.325   6.983 -0.7703 -0.0094 -0.8031
  553TIP3    H223219   4.782   6.455   6.939  0.7058  0.8153  3.2648
  554TIP3   OH223220   0.503   2.297   0.277 -0.4928  0.5760 -0.1679
  554TIP3    H123221   0.438   2.307   0.346 -0.0429 -0.6562  0.4698
  554TIP3    H223222   0.512   2.384   0.240 -1.9194  0.9300  0.2528
  555TIP3   OH223223   3.110   4.980   7.930 -0.3385  0.2474 -0.7562
  555TIP3    H123224   3.156   5.024   8.001  1.3197 -0.9089 -1.0460
  555TIP3    H223225   3.023   5.019   7.930 -0.0539  1.0266  1.2179
  556TIP3   OH223226   2.950   4.881   1.921  0.2461  0.1382 -0.2580
  556TIP3    H123227   2.865   4.926   1.912  1.7572  3.1253 -0.9580
  556TIP3    H223228   2.981   4.907   2.008  2.0975  2.4162 -1.4963
  557TIP3   OH223229   2.801   5.244   0.723 -0.0477 -0.2416  0.2565
  557TIP3    H123230   2.748   5.247   0.802 -3.3836  0.6535 -1.8255
  557TIP3    H223231   2.885   5.281   0.750 -1.2450  0.6200  3.2310
  558TIP3   OH223232   0.138   4.067   1.415 -0.8199 -0.2309  0.1256
  558TIP3    H123233   0.200   3.999   1.390 -2.6679 -2.6619  1.7577
  558TIP3    H223234   0.193   4.140   1.444  1.2374 -0.6327 -2.4146
  559TIP3   OH223235   1.743   5.521   0.774 -0.3239 -0.1182 -0.4490
  559TIP3    H123236   1.693   5.487   0.699 -0.1755 -0.7625 -0.2583
  559TIP3    H223237   1.833   5.529   0.741 -0.4604  0.6232 -0.6589
  560TIP3   OH223238   2.640   5.294   7.833  0.4029 -1.0033  0.2607
  560TIP3    H123239   2.604   5.312   7.746  0.3802  0.0545  0.4749
  560TIP3    H223240   2.621   5.372   7.884  0.1527 -1.7263  1.3149
  561TIP3   OH223241   1.071   3.446   1.148  0.2383  0.7638 -0.0041
  561TIP3    H123242   0.978   3.429   1.161  0.3639  0.5976  0.7129
  561TIP3    H223243   1.100   3.377   1.089  0.2023 -0.0353  0.8877
  562TIP3   OH223244   6.041   1.672   7.764  0.4781 -0.4294  0.4275
  562TIP3    H123245   5.984   1.700   7.836 -0.1034  2.1830 -0.9102
  562TIP3    H223246   6.130   1.683   7.798  0.2991  3.0728  0.1717
  563TIP3   OH223247   2.293   3.299   0.654 -0.3762 -0.3485 -0.1031
  563TIP3    H123248   2.311   3.334   0.741 -0.9368  1.9595 -0.8422
  563TIP3    H223249   2.374   3.313   0.605 -1.1146  1.6479 -0.8764
  564TIP3   OH223250   0.336   0.215   6.112  0.3401  0.2113 -0.3566
  564TIP3    H123251   0.388   0.135   6.115  0.4954  0.3186 -0.1044
  564TIP3    H223252   0.401   0.285   6.103  0.1908  0.2915 -0.7889
  565TIP3   OH223253   0.349   3.414   2.448  0.2112  0.0243  0.1764
  565TIP3    H123254   0.280   3.403   2.513  1.1819  2.0770  1.6992
  565TIP3    H223255   0.410   3.341   2.465 -0.7783 -0.9163 -0.1830
  566TIP3   OH223256   3.368   2.218   1.814 -0.2036 -0.4072  0.0526
  566TIP3    H123257   3.456   2.182   1.823  0.1499  0.1084 -1.1196
  566TIP3    H223258   3.376   2.284   1.746 -0.9915  1.3294  1.5457
  567TIP3   OH223259   5.637   6.725   7.316 -0.2454  0.6134  0.3961
  567TIP3    H123260   5.607   6.808   7.279 -1.1960  1.1860  2.2765
  567TIP3    H223261   5.719   6.747   7.361 -0.2904  0.4635  0.5551
  568TIP3   OH223262   6.080   6.379   2.142 -0.7823 -0.3978  0.0962
  568TIP3    H123263   6.149   6.391   2.208  0.6847 -0.9100 -1.2836
  568TIP3    H223264   6.089   6.454   2.083 -0.1585 -1.3963 -1.1320
  569TIP3   OH223265   3.814   6.691   8.171 -0.2545 -0.1469  0.1425
  569TIP3    H123266   3.803   6.784   8.190 -0.1717 -0.0432 -0.3123
  569TIP3    H223267   3.876   6.660   8.237 -0.5898  0.0299  0.5452
  570TIP3   OH223268   4.726   5.138   6.598  0.3917 -0.2337  0.2242
  570TIP3    H123269   4.762   5.221   6.629 -0.0586 -0.1736  0.5984
  570TIP3    H223270   4.719   5.084   6.676  1.5751 -0.9671 -0.1617
  571TIP3   OH223271   1.254   2.846   8.393  0.1515  0.5077 -0.3694
  571TIP3    H123272   1.315   2.886   8.331  1.1094  0.7608  0.7004
  571TIP3    H223273   1.172   2.893   8.379  0.6497  1.3135 -0.6877
  572TIP3   OH223274   2.122   6.028   7.648  0.2000 -0.5232  0.3686
  572TIP3    H123275   2.031   6.018   7.675 -0.2989  0.1371 -0.9870
  572TIP3    H223276   2.161   5.941   7.663 -0.9358 -1.1284 -0.0803
  573TIP3   OH223277   6.274   3.879   7.663 -0.3050 -0.5141  0.5172
  573TIP3    H123278   6.253   3.879   7.569  3.3292  0.8824 -0.4588
  573TIP3    H223279   6.244   3.964   7.694 -1.8892 -1.1419  0.7591
  574TIP3   OH223280   4.888   2.411   2.477 -0.1247  0.0671  0.0950
  574TIP3    H123281   4.877   2.322   2.510 -0.6672 -0.1629 -0.6896
  574TIP3    H223282   4.982   2.428   2.485 -0.2231  0.0003  1.6577
  575TIP3   OH223283   6.335   0.035   6.345 -0.3832  0.3813 -0.1597
  575TIP3    H123284   6.249   0.062   6.315 -0.9250 -0.5562  0.5223
  575TIP3    H223285   6.377  -0.003   6.267 -0.7860  0.3500 -0.3648
  576TIP3   OH223286   2.832   0.134   8.825 -0.0458 -0.3407  0.4496
  576TIP3    H123287   2.834   0.072   8.752 -0.2968  1.3052 -1.0191
  576TIP3    H223288   2.739   0.139   8.850 -0.2658  0.5958 -0.4946
  577TIP3   OH223289   6.204   6.126   7.739 -0.5264  0.2773 -0.0007
  577TIP3    H123290   6.221   6.131   7.645  0.2294  0.7136  0.1550
  577TIP3    H223291   6.267   6.187   7.779 -0.3103 -0.4696  0.8446
  578TIP3   OH223292   4.329   5.602   1.178 -0.3044 -0.4319  0.0966
  578TIP3    H123293   4.339   5.667   1.247 -0.6183 -1.6116  1.3006
  578TIP3    H223294   4.405   5.544   1.189 -1.3997 -1.8001  0.8078
  579TIP3   OH223295   1.272   2.614   8.221  0.0936 -0.1499  0.2308
  579TIP3    H123296   1.238   2.675   8.286 -4.4001 -0.2642 -1.6398
  579TIP3    H223297   1.284   2.532   8.270 -2.3117 -0.0038  1.2148
  580TIP3   OH223298   4.225   0.382   8.004 -0.2280  0.3889 -0.5192
  580TIP3    H123299   4.285   0.417   8.069  0.3470  1.3803 -1.5540
  580TIP3    H223300   4.274   0.313   7.960  0.0108  0.8942 -1.0598
  581TIP3   OH223301   1.708   5.189   1.598  0.2301  0.0265  0.3557
  581TIP3    H123302   1.769   5.253   1.562 -0.2954  0.1189 -0.3978
  581TIP3    H223303   1.624   5.234   1.600 -0.3359 -0.8790 -1.0116
  582TIP3   OH223304   4.669   0.691   6.545  0.3352 -0.1501  0.1132
  582TIP3    H123305   4.596   0.753   6.541 -0.7955 -1.4136  0.5407
  582TIP3    H223306   4.635   0.612   6.504  0.9880 -1.2046  1.5531
  583TIP3   OH223307   6.325   1.433   7.479 -0.4974 -0.2693  0.1981
  583TIP3    H123308   6.232   1.437   7.502 -0.1512 -0.3459  1.7665
  583TIP3    H223309   6.347   1.522   7.449 -0.6753  0.2957  1.6432
  584TIP3   OH223310   3.758   6.553   0.039  1.1731  0.0205  0.0252
  584TIP3    H123311   3.666   6.526   0.042  0.7389  1.3904 -0.1061
  584TIP3    H223312   3.755   6.649   0.044  2.5614  0.1384 -0.8458
  585TIP3   OH223313   3.407   0.788   0.957  0.3200 -0.4010 -0.5897
  585TIP3    H123314   3.417   0.706   1.005  2.2354 -0.3376 -0.8290
  585TIP3    H223315   3.347   0.766   0.885 -0.4777 -1.1547  0.2808
  586TIP3   OH223316   1.826   0.913   8.868 -0.1671 -0.5336 -0.0837
  586TIP3    H123317   1.780   0.911   8.784 -0.6610  2.0452  0.0448
  586TIP3    H223318   1.918   0.923   8.844 -0.3917  1.1174 -0.3693
  587TIP3   OH223319   5.723   6.022   8.742 -0.1173 -0.2886  0.1021
  587TIP3    H123320   5.789   5.961   8.775  1.1881  0.3290 -1.2204
  587TIP3    H223321   5.646   6.006   8.796  1.0492 -1.1760  1.5901
  588TIP3   OH223322   3.278   5.708   1.375 -0.4064 -0.3859  0.7455
  588TIP3    H123323   3.220   5.779   1.348  0.9475 -0.3786 -2.4834
  588TIP3    H223324   3.219   5.642   1.412 -2.6182 -0.5272 -2.6624
  589TIP3   OH223325   0.900   0.670   7.687  0.4136 -0.4086  0.5961
  589TIP3    H123326   0.811   0.705   7.687  1.2193  1.8170  1.2784
  589TIP3    H223327   0.937   0.699   7.770  1.6691 -1.6067  0.4833
  590TIP3   OH223328   1.502   1.801   8.328 -0.6301 -0.5372 -0.1433
  590TIP3    H123329   1.440   1.865   8.295 -1.3346 -1.5818 -0.9312
  590TIP3    H223330   1.458   1.759   8.402 -0.2187 -0.1966  0.3013
  591TIP3   OH223331   0.388   3.994   7.637 -0.0924 -0.1422 -0.3300
  591TIP3    H123332   0.459   3.961   7.693 -2.0482 -1.1212  1.7673
  591TIP3    H223333   0.352   3.915   7.597 -1.1166  0.0955  0.0896
  592TIP3   OH223334   3.909   3.517   7.317  0.1683  0.0774  0.3810
  592TIP3    H123335   3.900   3.531   7.222 -0.2184 -1.8550  0.1003
  592TIP3    H223336   3.962   3.438   7.324 -1.0008 -0.6059  1.7689
  593TIP3   OH223337   1.942   4.462   0.781  0.2218  0.1394  0.3771
  593TIP3    H123338   1.970   4.553   0.797 -1.7218  0.7883  0.4047
  593TIP3    H223339   1.993   4.434   0.706 -1.0448  2.2506 -1.3846
  594TIP3   OH223340   4.689   1.800   1.218  0.2379 -0.0267  0.5449
  594TIP3    H123341   4.632   1.819   1.144 -1.1873 -2.5319  0.8818
  594TIP3    H223342   4.763   1.753   1.179  0.5679  0.5308  0.4841
  595TIP3   OH223343   6.756   4.882   1.430 -0.0286  0.0943 -0.3904
  595TIP3    H123344   6.672   4.837   1.444  0.5976 -0.4673  2.2238
  595TIP3    H223345   6.815   4.813   1.402 -0.0663  0.1571 -0.6223
  596TIP3   OH223346   0.922   2.690   0.489 -0.3007  0.0870 -0.8307
  596TIP3    H123347   0.829   2.708   0.476 -0.4373  0.9412  1.0186
  596TIP3    H223348   0.929   2.595   0.480 -1.9628 -0.4277  1.9799
  597TIP3   OH223349   0.735   1.243   7.796 -0.6943  0.1856 -0.1074
  597TIP3    H123350   0.787   1.269   7.719 -0.3667 -2.2364 -0.7656
  597TIP3    H223351   0.743   1.148   7.799 -1.5386  0.1386  2.3692
  598TIP3   OH223352   3.398   1.579   2.170 -0.0889  0.2404 -0.1801
  598TIP3    H123353   3.384   1.627   2.252 -1.2686  0.5355 -0.5369
  598TIP3    H223354   3.391   1.487   2.195 -3.2609  0.3320 -0.3427
  599TIP3   OH223355   0.182   0.705   1.884 -0.3647 -0.0067  0.0455
  599TIP3    H123356   0.220   0.772   1.941 -0.7726 -0.2949  0.6652
  599TIP3    H223357   0.136   0.755   1.816  0.6276  0.3435 -0.3910
  600TIP3   OH223358   3.904   4.710   8.117  0.1295  0.8167  0.0034
  600TIP3    H123359   3.856   4.791   8.099  1.3291  1.7026  0.6546
  600TIP3    H223360   3.967   4.704   8.044  0.6142  0.9388  0.4065
  601TIP3   OH223361   4.436   2.003   6.806 -0.2306 -0.1343  0.0339
  601TIP3    H123362   4.354   2.014   6.854 -0.0777  1.6553 -0.0376
  601TIP3    H223363   4.422   2.049   6.724  1.6518  2.6058  1.0755
  602TIP3   OH223364   4.924   3.502   1.964  0.1299  0.5388 -0.0748
  602TIP3    H123365   4.936   3.480   2.056 -2.8246  0.7134  0.4444
  602TIP3    H223366   4.836   3.471   1.943  0.4438  1.1645 -2.6467
  603TIP3   OH223367   1.507   1.032   7.961  0.1206 -0.3911  0.1494
  603TIP3    H123368   1.558   1.110   7.941  0.8740  0.4838  4.4396
  603TIP3    H223369   1.566   0.959   7.941  0.7402  0.2987 -0.6024
  604TIP3   OH223370   1.607   0.050   1.505  0.9388  0.7497 -0.0033
  604TIP3    H123371   1.630   0.143   1.509 -0.0569  1.0387 -0.6950
  604TIP3    H223372   1.521   0.048   1.463  1.1067 -0.5111 -0.3367
  605TIP3   OH223373   1.207   3.675   7.278  0.0699 -0.0496 -0.2705
  605TIP3    H123374   1.240   3.606   7.221  1.2216  0.4168 -0.1842
  605TIP3    H223375   1.245   3.756   7.244 -2.8751  0.9035 -1.6589
  606TIP3   OH223376   4.895   6.646   7.525 -0.0126  0.3432  0.1462
  606TIP3    H123377   4.891   6.584   7.452  0.0560 -1.0013  1.2652
  606TIP3    H223378   4.988   6.662   7.538 -0.0104  0.2716  0.2149
  607TIP3   OH223379   0.527   1.831   7.346  0.2353  0.4181  0.2611
  607TIP3    H123380   0.521   1.834   7.250 -0.6970 -1.1527  0.2258
  607TIP3    H223381   0.590   1.761   7.363  1.8645  1.9516  0.8295
  608TIP3   OH223382   1.407   4.561   0.731 -0.0415 -0.6517 -0.2415
  608TIP3    H123383   1.450   4.640   0.765  0.8278 -1.2677  0.1090
  608TIP3    H223384   1.318   4.590   0.712  0.9152  1.0749 -2.5316
  609TIP3   OH223385   6.092   0.212   7.149 -0.2851 -0.1486 -0.4941
  609TIP3    H123386   6.019   0.203   7.088  0.2740 -2.1447 -0.9419
  609TIP3    H223387   6.081   0.139   7.211 -0.0887  1.0435  1.0133
  610TIP3   OH223388   2.617   0.088   1.947 -0.7025 -0.0204  0.1323
  610TIP3    H123389   2.684   0.058   2.009 -0.6674  2.1124  1.2062
  610TIP3    H223390   2.534   0.065   1.989 -0.6921  1.8638  1.3017
  611TIP3   OH223391   4.668   3.835   1.366 -0.0893  0.1358 -0.3036
  611TIP3    H123392   4.666   3.834   1.270 -0.6276 -1.4294 -0.2998
  611TIP3    H223393   4.674   3.928   1.388 -2.4247  0.7662 -1.8296
  612TIP3   OH223394   1.071   2.750   1.957 -0.8107 -0.0795  0.1438
  612TIP3    H123395   1.051   2.729   2.048 -0.6636 -2.5357 -0.3121
  612TIP3    H223396   1.128   2.827   1.961 -1.0927  0.0667  2.0841
  613TIP3   OH223397   1.167   0.598   8.279 -0.5574  0.3122  0.3614
  613TIP3    H123398   1.248   0.561   8.315 -0.2296  1.1386  0.5073
  613TIP3    H223399   1.171   0.691   8.303 -2.0743  0.1671  1.3125
  614TIP3   OH223400   5.851   2.439   1.183  0.1363  0.1344  0.1839
  614TIP3    H123401   5.907   2.429   1.106  0.0776  0.1495  0.1394
  614TIP3    H223402   5.779   2.378   1.168 -2.2230  3.1958 -1.8513
  615TIP3   OH223403   2.129   4.383   1.151  0.0743  0.5693 -0.1167
  615TIP3    H123404   2.111   4.305   1.202  1.0911 -0.3061 -1.0332
  615TIP3    H223405   2.179   4.440   1.210  0.9902 -0.3026 -0.0195
  616TIP3   OH223406   5.866   1.210   7.492  0.3168 -0.0933 -0.4228
  616TIP3    H123407   5.832   1.121   7.497  0.7482 -0.1997  1.5663
  616TIP3    H223408   5.949   1.207   7.541 -0.1173  1.5710  0.5038
  617TIP3   OH223409   2.390   6.387   7.874  0.1007 -0.4116  0.1487
  617TIP3    H123410   2.372   6.295   7.855  0.6847 -0.3011 -1.0150
  617TIP3    H223411   2.373   6.396   7.968 -0.1492 -1.6530  0.2362
  618TIP3   OH223412   4.936   1.418   0.468  0.4876 -0.1952  0.5837
  618TIP3    H123413   4.969   1.328   0.476 -1.8508 -1.4709 -2.2286
  618TIP3    H223414   4.902   1.439   0.555  0.1799 -2.4613  1.0807
  619TIP3   OH223415   6.143   0.492   1.843  0.4425 -0.3816  0.2110
  619TIP3    H123416   6.061   0.449   1.867 -0.9131  3.0105  2.3960
  619TIP3    H223417   6.211   0.433   1.875 -1.2523 -1.4274  2.1217
  620TIP3   OH223418   5.316   2.568   8.271 -0.3548 -0.0351 -0.3446
  620TIP3    H123419   5.289   2.476   8.266 -1.7386  0.3294  0.1500
  620TIP3    H223420   5.270   2.611   8.198 -1.3685  0.6449  0.6702
  621TIP3   OH223421   0.654   3.918   1.894 -0.0199  0.2083  0.3381
  621TIP3    H123422   0.633   3.940   1.985  0.6091  0.0308  0.5314
  621TIP3    H223423   0.659   3.823   1.894 -2.3016  0.0217 -0.3995
  622TIP3   OH223424   2.625   4.916   8.669 -0.2632 -0.1114  0.1992
  622TIP3    H123425   2.541   4.877   8.645  0.4706 -1.0075 -1.0739
  622TIP3    H223426   2.663   4.855   8.733  0.8582 -1.5767 -1.7475
  623TIP3   OH223427   4.472   2.620   0.824  0.1024 -0.0240  0.4022
  623TIP3    H123428   4.415   2.679   0.874  0.4715  0.3408  0.3905
  623TIP3    H223429   4.485   2.664   0.740  1.0589  0.2833  0.6990
  624TIP3   OH223430   1.035   5.048   0.551 -0.2689  0.1495 -0.2547
  624TIP3    H123431   0.954   5.051   0.499 -0.8439  0.0743  0.6080
  624TIP3    H223432   1.067   4.958   0.540  0.7568  0.6826 -2.1224
  625TIP3   OH223433   4.764   0.356   1.223  0.4515 -0.1100  0.0146
  625TIP3    H123434   4.818   0.435   1.221  0.5519 -0.1634  0.5944
  625TIP3    H223435   4.767   0.323   1.133  1.7365 -0.3561  0.1280
  626TIP3   OH223436   5.630   4.195   1.307 -0.3858  0.0948  0.5496
  626TIP3    H123437   5.632   4.286   1.276  0.0498  0.5723  1.9026
  626TIP3    H223438   5.544   4.186   1.348  0.4437  0.6905  2.5593
  627TIP3   OH223439   2.279   1.885   8.070 -0.2670 -0.5201  0.9748
  627TIP3    H123440   2.196   1.838   8.082  0.5282 -1.6400  2.4568
  627TIP3    H223441   2.333   1.856   8.144  1.1501  0.8392  0.5095
  628TIP3   OH223442   4.975   5.902   1.653  0.4544  0.2391 -0.4333
  628TIP3    H123443   5.068   5.913   1.670  0.3724 -0.3881  0.4861
  628TIP3    H223444   4.943   5.847   1.725 -0.6145  0.4060 -0.7549
  629TIP3   OH223445   0.657   0.603   1.287  0.8355 -0.6433  0.4563
  629TIP3    H123446   0.688   0.526   1.336  1.5742 -0.4647  0.2880
  629TIP3    H223447   0.737   0.647   1.259  0.4172  0.4210  0.8998
  630TIP3   OH223448   3.610   2.094   1.787 -0.6885 -0.0831 -0.3710
  630TIP3    H123449   3.629   2.062   1.875  0.3363 -0.9819 -0.8860
  630TIP3    H223450   3.667   2.042   1.730 -1.4158  0.3956 -1.5780
  631TIP3   OH223451   4.930   2.280   1.513 -0.2057  0.3115  0.2395
  631TIP3    H123452   4.839   2.273   1.484 -0.0278 -0.5366 -0.1379
  631TIP3    H223453   4.928   2.342   1.586 -0.6015  2.9928 -1.8956
  632TIP3   OH223454   0.691   4.680   7.484  0.3417 -0.0745 -0.0801
  632TIP3    H123455   0.602   4.716   7.494 -0.1829 -1.4171  0.3345
  632TIP3    H223456   0.735   4.742   7.425  0.1050  2.2389  1.9968
  633TIP3   OH223457   0.213   4.375   8.040 -0.3007 -0.0680  0.6256
  633TIP3    H123458   0.255   4.351   8.122  0.5078  1.8729  0.8243
  633TIP3    H223459   0.241   4.308   7.978  2.6403  0.7772  0.9197
  634TIP3   OH223460   1.636   4.657   1.621  0.0955 -0.2953 -0.2892
  634TIP3    H123461   1.542   4.641   1.619  0.3097 -1.6703 -0.2354
  634TIP3    H223462   1.663   4.626   1.707  0.5121  0.6949 -0.0483
  635TIP3   OH223463   4.906   3.423   1.225 -0.1785 -0.7499  0.1717
  635TIP3    H123464   4.998   3.397   1.219 -0.3504 -1.4405  0.3944
  635TIP3    H223465   4.906   3.517   1.209  0.6479 -0.6309  0.8236
  636TIP3   OH223466   1.926   3.970   0.222 -0.1810  0.5656 -0.4701
  636TIP3    H123467   1.953   4.059   0.200  1.0524  0.4911  0.6405
  636TIP3    H223468   1.843   3.981   0.267  0.3154  1.2354  0.3130
  637TIP3   OH223469   4.242   4.023   0.315 -0.1494 -0.2846 -0.1058
  637TIP3    H123470   4.163   4.019   0.368 -0.0657  0.2961  0.0790
  637TIP3    H223471   4.312   3.995   0.374 -0.2669 -1.1727 -0.3846
  638TIP3   OH223472   2.434   2.767   1.678  0.0205 -0.1629 -0.2590
  638TIP3    H123473   2.376   2.843   1.672 -0.7086 -0.7423 -0.7581
  638TIP3    H223474   2.506   2.786   1.618  1.1713  1.2309  1.4695
  639TIP3   OH223475   0.089   5.083   0.499  0.0475 -0.0739 -0.5233
  639TIP3    H123476   0.149   5.155   0.479  1.0196 -1.1382 -1.5352
  639TIP3    H223477   0.119   5.011   0.445 -1.3101 -1.0642 -0.0040
  640TIP3   OH223478   0.130   3.628   1.153  0.4134 -0.0118 -0.3897
  640TIP3    H123479   0.143   3.534   1.160  0.9677  0.1405  0.9179
  640TIP3    H223480   0.103   3.655   1.241  1.6400  1.2472 -0.3632
  641TIP3   OH223481   5.664   1.751   0.244  0.0114 -0.4056  0.2400
  641TIP3    H123482   5.732   1.688   0.222  0.7148  0.6850 -0.8721
  641TIP3    H223483   5.696   1.795   0.323  0.2318 -0.4155  0.1559
  642TIP3   OH223484   3.240   2.956   1.748 -0.4556  0.4758  0.7070
  642TIP3    H123485   3.186   2.993   1.678  0.4071 -2.2075 -1.5502
  642TIP3    H223486   3.184   2.961   1.826 -2.3424  1.5309 -0.6305
  643TIP3   OH223487   6.204   2.134   7.347 -0.1506  0.5205 -0.1091
  643TIP3    H123488   6.246   2.219   7.362 -0.8402  1.1450 -1.5137
  643TIP3    H223489   6.111   2.155   7.339 -0.2833 -0.3101 -0.8698
  644TIP3   OH223490   4.074   5.346   1.993 -0.3586  0.4664 -0.0012
  644TIP3    H123491   3.995   5.301   2.023  1.0891 -1.9006  0.5145
  644TIP3    H223492   4.120   5.371   2.073 -0.3191  1.3723 -0.2967
  645TIP3   OH223493   2.920   3.205   2.548  0.1491 -0.7658 -0.0475
  645TIP3    H123494   2.868   3.212   2.628  1.5687  0.2939  0.8389
  645TIP3    H223495   2.968   3.123   2.558  0.0908 -0.7907  0.0317
  646TIP3   OH223496   4.641   6.602   0.502 -0.4869 -0.5224 -0.3709
  646TIP3    H123497   4.674   6.688   0.473 -1.2277 -0.6589 -1.7014
  646TIP3    H223498   4.656   6.602   0.596  0.5116  0.6406 -0.4936
  647TIP3   OH223499   5.787   0.900   6.628  0.4258 -0.1711 -0.3188
  647TIP3    H123500   5.818   0.981   6.587 -2.3031 -0.2989 -2.9328
  647TIP3    H223501   5.795   0.834   6.560 -1.5859 -1.0709  0.2545
  648TIP3   OH223502   6.328   3.915   0.999 -0.3785  0.0696 -0.2149
  648TIP3    H123503   6.363   3.867   1.074 -1.0200  0.9290  0.6613
  648TIP3    H223504   6.265   3.854   0.960  1.0502 -0.9611 -0.9874
  649TIP3   OH223505   5.775   3.698   0.067 -0.0449  0.6197  0.6295
  649TIP3    H123506   5.751   3.788   0.049 -0.5761  0.4393  0.4077
  649TIP3    H223507   5.726   3.676   0.147 -0.5176  0.2939  0.2558
  650TIP3   OH223508   1.435   5.411   0.751  0.4108  0.4634  0.4965
  650TIP3    H123509   1.449   5.448   0.838  2.3926  0.8929  0.0474
  650TIP3    H223510   1.497   5.458   0.695 -0.2487 -0.3673 -0.9872
  651TIP3   OH223511   0.618   5.780   8.860  0.0963  0.4684 -0.5909
  651TIP3    H123512   0.613   5.758   8.952 -0.6745  1.8470 -0.2708
  651TIP3    H223513   0.688   5.724   8.825 -0.6264 -1.1488  0.4765
  652TIP3   OH223514   2.247   1.671   7.638  0.3317  0.2507 -0.0511
  652TIP3    H123515   2.333   1.712   7.634 -0.3616  1.7493 -0.5301
  652TIP3    H223516   2.186   1.745   7.647 -0.7762 -0.8680  2.6110
  653TIP3   OH223517   6.562   3.672   0.806 -0.0710 -0.1947  0.2250
  653TIP3    H123518   6.632   3.608   0.794  0.7366  0.6409  0.3706
  653TIP3    H223519   6.510   3.637   0.878 -0.5679 -1.4630 -0.7038
  654TIP3   OH223520   0.966   1.857   0.425  0.6556  0.5154 -0.4880
  654TIP3    H123521   1.047   1.904   0.443  0.7946  0.0015  0.2799
  654TIP3    H223522   0.933   1.896   0.344  1.8647  0.4732 -1.0306
  655TIP3   OH223523   4.856   2.709   7.815 -0.7033 -0.1438 -0.2462
  655TIP3    H123524   4.778   2.688   7.866 -1.1454  1.3905 -0.2359
  655TIP3    H223525   4.829   2.697   7.724  0.1120 -2.9691 -0.2018
  656TIP3   OH223526   4.364   5.344   1.656  0.3437 -0.0640 -0.8326
  656TIP3    H123527   4.307   5.276   1.691  0.3632  0.0992 -0.4813
  656TIP3    H223528   4.388   5.313   1.569  1.2944 -1.0588 -0.2305
  657TIP3   OH223529   3.103   5.559   7.397  0.3262  0.2746  0.1013
  657TIP3    H123530   3.120   5.652   7.404 -0.1130  0.3912 -0.3446
  657TIP3    H223531   3.071   5.546   7.308 -1.0293 -0.0620  0.6117
  658TIP3   OH223532   4.007   0.711   0.717 -0.0086  0.0052  0.0096
  658TIP3    H123533   3.913   0.729   0.708 -0.0322  0.7400  1.4450
  658TIP3    H223534   4.029   0.660   0.640 -1.4753  0.3000 -0.6340
  659TIP3   OH223535   5.983   4.233   8.776  0.0630  0.0251 -0.1435
  659TIP3    H123536   5.890   4.255   8.783 -0.0229 -0.5483  0.6429
  659TIP3    H223537   6.016   4.239   8.866  0.3179 -1.7701 -0.0951
  660TIP3   OH223538   1.740   6.512   6.502 -0.0028 -0.7347 -0.4576
  660TIP3    H123539   1.818   6.486   6.454  0.4783  1.4563 -0.9438
  660TIP3    H223540   1.772   6.571   6.571 -0.8950 -2.3145  1.4285
  661TIP3   OH223541   3.645   5.156   0.375 -0.0385 -0.4819  0.0047
  661TIP3    H123542   3.687   5.231   0.416  1.3699 -0.7079 -0.9906
  661TIP3    H223543   3.665   5.083   0.434  0.2774 -0.4448 -0.0583
  662TIP3   OH223544   3.361   4.911   8.442 -0.4312  0.4251 -0.4672
  662TIP3    H123545   3.384   4.871   8.358 -0.0692 -2.5772  0.9290
  662TIP3    H223546   3.442   4.909   8.493 -1.1589  0.1142  0.7208
  663TIP3   OH223547   5.297   1.639   0.587  0.3918  0.2234 -0.4887
  663TIP3    H123548   5.309   1.658   0.494  1.0723 -2.4512 -1.0335
  663TIP3    H223549   5.319   1.546   0.595 -1.4796 -0.0975  2.0183
  664TIP3   OH223550   0.353   4.527   1.231  0.2050  0.0373  0.6946
  664TIP3    H123551   0.388   4.441   1.254  0.3780 -0.0212  0.2245
  664TIP3    H223552   0.338   4.522   1.136  0.5891  0.6568  0.5999
  665TIP3   OH223553   0.464   5.303   1.715 -0.0189 -0.3438  0.2962
  665TIP3    H123554   0.534   5.247   1.683 -0.6518 -0.6221 -0.6228
  665TIP3    H223555   0.472   5.299   1.811  1.6593  0.2074  0.2168
  666TIP3   OH223556   4.966   4.436   2.104  0.2959  0.1382  0.8673
  666TIP3    H123557   5.007   4.369   2.049 -0.4875 -0.0125  0.4479
  666TIP3    H223558   5.000   4.419   2.192  0.8227 -0.2213  0.6010
  667TIP3   OH223559   4.853   0.102   2.753  0.3020  0.1589  0.8376
  667TIP3    H123560   4.858   0.197   2.749 -0.3185  0.2326  1.5302
  667TIP3    H223561   4.796   0.077   2.680  1.3611  0.2174 -0.0296
  668TIP3   OH223562   1.452   1.222   1.009 -0.3129 -0.0547 -0.0588
  668TIP3    H123563   1.503   1.302   0.994  0.0076 -0.5283 -1.6907
  668TIP3    H223564   1.507   1.152   0.974 -0.7072 -0.9849  1.1106
  669TIP3   OH223565   5.215   5.293   2.304 -1.0727  0.3607  0.7769
  669TIP3    H123566   5.225   5.382   2.337  0.3940  0.5505 -0.1086
  669TIP3    H223567   5.296   5.248   2.329 -0.7546 -0.0266 -0.8182
  670TIP3   OH223568   4.737   2.483   7.214  0.3969  0.2211  0.0801
  670TIP3    H123569   4.665   2.485   7.152 -0.1746  1.4006  0.7587
  670TIP3    H223570   4.804   2.429   7.171  0.0069  0.9571 -1.5408
  671TIP3   OH223571   0.527   5.685   8.150  0.2830  0.3125  0.0684
  671TIP3    H123572   0.547   5.619   8.217  0.3308  0.8649  0.6063
  671TIP3    H223573   0.574   5.655   8.073 -0.3940 -0.7567  0.0376
  672TIP3   OH223574   3.131   1.576   0.895 -0.5260  0.0434  0.1581
  672TIP3    H123575   3.218   1.612   0.884 -0.5654 -0.0528 -0.5270
  672TIP3    H223576   3.145   1.481   0.900 -0.6618 -0.0450 -0.9001
  673TIP3   OH223577   4.514   5.161   8.003  0.1013  0.1485  0.7412
  673TIP3    H123578   4.438   5.126   8.050 -0.0595  1.2654  1.3380
  673TIP3    H223579   4.478   5.197   7.922  0.4665 -2.4601 -0.7254
  674TIP3   OH223580   0.001   3.935   0.145 -0.2607 -0.4689 -0.4057
  674TIP3    H123581  -0.033   3.862   0.197 -1.0867  0.0529 -0.1996
  674TIP3    H223582   0.091   3.910   0.124  0.4089 -0.3361  2.0147
  675TIP3   OH223583   5.467   5.362   7.342 -0.2967 -0.1936 -0.3006
  675TIP3    H123584   5.404   5.299   7.309 -0.4606 -0.0843 -0.1999
  675TIP3    H223585   5.487   5.419   7.267  2.8766 -2.7152 -1.5846
  676TIP3   OH223586   5.596   3.243   2.211 -0.0890 -0.1148 -0.0909
  676TIP3    H123587   5.639   3.191   2.279  1.0278 -0.3542 -0.9655
  676TIP3    H223588   5.667   3.277   2.158 -0.7193  2.6173  0.6349
  677TIP3   OH223589   0.498   1.703   8.793  0.2412  0.7560 -0.5137
  677TIP3    H123590   0.483   1.797   8.798 -2.4928  0.5003 -1.8423
  677TIP3    H223591   0.437   1.672   8.725  1.3594 -1.9160 -0.4505
  678TIP3   OH223592   3.313   1.965   1.010 -0.4363 -0.1967 -0.2222
  678TIP3    H123593   3.316   2.060   0.994 -2.6542 -0.0991 -0.2488
  678TIP3    H223594   3.318   1.926   0.923 -0.5679 -0.0749 -0.2850
  679TIP3   OH223595   1.799   0.199   0.483 -0.1223 -0.1599 -0.2225
  679TIP3    H123596   1.857   0.163   0.551 -0.6935  0.2827  0.5160
  679TIP3    H223597   1.769   0.122   0.435  1.1181 -0.3933 -0.6650
  680TIP3   OH223598   0.476   6.745   6.089 -0.0201 -0.2385 -0.4833
  680TIP3    H123599   0.482   6.687   6.164 -0.6914  0.2040 -0.0748
  680TIP3    H223600   0.435   6.693   6.020 -0.7751 -0.2116 -0.0668
  681TIP3   OH223601   3.568   1.738   2.618 -0.3613  0.0364  0.0519
  681TIP3    H123602   3.638   1.705   2.562 -0.9336 -2.2843  0.5641
  681TIP3    H223603   3.598   1.824   2.647  2.1640 -0.7493  0.0160
  682TIP3   OH223604   3.256   4.170   7.710 -0.0739 -0.1037  0.1102
  682TIP3    H123605   3.207   4.252   7.703  1.3263  0.7660  0.1752
  682TIP3    H223606   3.241   4.125   7.627  0.7569  1.1520 -0.7492
  683TIP3   OH223607   1.455   4.776   8.276  0.8162  0.2298 -0.1756
  683TIP3    H123608   1.548   4.785   8.256  0.7412  1.0866 -0.1853
  683TIP3    H223609   1.410   4.798   8.194  0.6191 -1.7645 -0.6501
  684TIP3   OH223610   0.719   6.534   0.905 -0.1462 -0.4438 -0.4610
  684TIP3    H123611   0.651   6.539   0.839 -0.9867  0.5186  0.4386
  684TIP3    H223612   0.706   6.449   0.947 -0.5635 -0.4148 -0.5328
  685TIP3   OH223613   2.893   2.768   7.826 -0.2059 -0.1169 -0.0242
  685TIP3    H123614   2.848   2.806   7.750  0.3947  1.0292  0.1751
  685TIP3    H223615   2.827   2.767   7.895 -0.5745 -0.5898 -0.3719
  686TIP3   OH223616   0.599   1.221   7.468  0.0019 -0.0543 -0.2767
  686TIP3    H123617   0.693   1.223   7.450 -0.0683 -1.1245 -0.8769
  686TIP3    H223618   0.591   1.164   7.545 -0.1820 -0.2960 -0.4724
  687TIP3   OH223619   0.884   6.164   7.801  0.6105  0.1460 -0.0499
  687TIP3    H123620   0.898   6.201   7.888  0.1104  0.3743 -0.0645
  687TIP3    H223621   0.968   6.173   7.757  0.4031  1.6130 -0.1816
  688TIP3   OH223622   2.536   1.885   6.559  0.0510  0.0186  0.1293
  688TIP3    H123623   2.590   1.807   6.575 -1.8115 -1.1871  0.9421
  688TIP3    H223624   2.556   1.943   6.633 -0.2559 -0.7168  0.8072
  689TIP3   OH223625   5.241   6.620   8.316 -0.2240  0.3436  0.4070
  689TIP3    H123626   5.300   6.545   8.310  1.1676  1.5024 -1.4104
  689TIP3    H223627   5.297   6.692   8.347 -1.0501  1.0815  0.2258
  690TIP3   OH223628   3.468   3.432   1.528 -0.2176 -0.2246  0.2809
  690TIP3    H123629   3.413   3.398   1.457 -0.7739 -0.9128  1.0246
  690TIP3    H223630   3.556   3.402   1.506  0.4391  3.0242 -2.2951
  691TIP3   OH223631   4.181   6.692   7.465  0.0167 -0.3565  0.0458
  691TIP3    H123632   4.167   6.666   7.374  2.6514 -0.3774 -0.4234
  691TIP3    H223633   4.258   6.643   7.493 -0.5166 -0.0784  2.2104
  692TIP3   OH223634   3.442   4.140   1.943  0.6109 -0.3843  0.4179
  692TIP3    H123635   3.388   4.146   1.864 -0.2641  0.2106  1.0377
  692TIP3    H223636   3.514   4.083   1.919 -0.7964 -2.0005 -0.1682
  693TIP3   OH223637   0.571   3.088   1.148  0.2710 -0.2425 -0.1319
  693TIP3    H123638   0.521   3.031   1.207 -1.9426  0.7911 -0.8771
  693TIP3    H223639   0.533   3.073   1.062  0.1911  1.6930 -0.4889
  694TIP3   OH223640   2.776   3.423   8.433  0.5120  0.1927 -0.1278
  694TIP3    H123641   2.729   3.387   8.509  0.4616  0.3149 -0.1005
  694TIP3    H223642   2.730   3.505   8.413 -0.2003 -0.4132 -1.0162
  695TIP3   OH223643   3.989   0.204   0.174  0.4195  0.0459 -0.2577
  695TIP3    H123644   3.998   0.120   0.128 -0.5997 -1.2771  1.7840
  695TIP3    H223645   3.897   0.205   0.202  0.9110  0.8985  1.4431
  696TIP3   OH223646   1.908   0.616   6.905 -0.1858  0.2192 -0.4660
  696TIP3    H123647   1.992   0.571   6.894  0.5579  1.3736  0.3394
  696TIP3    H223648   1.870   0.576   6.982  0.9622  1.6163  0.8951
  697TIP3   OH223649   0.164   4.923   0.297  0.0067  0.1993 -0.0691
  697TIP3    H123650   0.218   4.845   0.284 -2.1756 -1.7280  1.5673
  697TIP3    H223651   0.167   4.968   0.212  1.3584 -1.6608 -1.0846
  698TIP3   OH223652   4.411   4.637   0.530 -0.2372 -0.0200 -0.6116
  698TIP3    H123653   4.390   4.634   0.624 -0.6008 -1.4821 -0.7105
  698TIP3    H223654   4.495   4.682   0.525  0.6087 -1.3909  0.5961
  699TIP3   OH223655   3.249   0.072   0.756 -0.2634  0.1798 -0.0071
  699TIP3    H123656   3.316   0.071   0.824  1.9030 -1.2696 -2.0085
  699TIP3    H223657   3.274   0.001   0.697 -1.9443  1.4274 -2.3809
  700TIP3   OH223658   6.300   3.212   0.298 -0.0415 -0.0346  0.2278
  700TIP3    H123659   6.276   3.254   0.381  1.3120  0.3243  0.4570
  700TIP3    H223660   6.221   3.220   0.244 -0.9634 -0.3198  1.4875
  701TIP3   OH223661   3.300   0.365   0.344  0.7309 -0.0923 -0.2455
  701TIP3    H123662   3.341   0.412   0.417  1.2992  0.1432 -0.7090
  701TIP3    H223663   3.269   0.434   0.286  0.5965 -0.2832 -0.3994
  702TIP3   OH223664   0.921   6.325   1.984  0.2162  0.0503 -0.4202
  702TIP3    H123665   0.917   6.401   2.042 -1.3497 -0.3008 -0.0136
  702TIP3    H223666   0.936   6.251   2.042 -1.5565 -0.3291 -0.3830
  703TIP3   OH223667   2.288   6.135   2.661 -0.5277 -0.3774  0.3477
  703TIP3    H123668   2.371   6.087   2.667  0.2403  0.6078 -1.5420
  703TIP3    H223669   2.239   6.107   2.738  0.5717 -2.8323  0.2533
  704TIP3   OH223670   2.932   3.940   1.735 -0.4941  0.1154  0.4177
  704TIP3    H123671   2.883   3.876   1.786  1.1973 -0.5967  1.2003
  704TIP3    H223672   2.926   3.908   1.645 -0.7594 -0.4125  0.6176
  705TIP3   OH223673   2.417   1.452   0.030  0.2417 -0.1926 -0.6214
  705TIP3    H123674   2.448   1.515  -0.036  1.3057 -0.8503 -0.7738
  705TIP3    H223675   2.479   1.461   0.102 -0.7310  0.2935  0.1697
  706TIP3   OH223676   5.522   5.592   1.162 -0.1983 -0.9292  0.6881
  706TIP3    H123677   5.472   5.603   1.081 -0.7047  1.9902  1.2575
  706TIP3    H223678   5.605   5.635   1.144 -0.6691  0.6259  1.9128
  707TIP3   OH223679   6.399   3.663   8.568 -0.1902 -0.0659  0.1191
  707TIP3    H123680   6.397   3.690   8.660  0.6860 -0.7252  0.3481
  707TIP3    H223681   6.418   3.569   8.571 -3.0709 -0.7611 -0.6614
  708TIP3   OH223682   4.254   1.851   8.035  0.6825 -0.3020 -0.3172
  708TIP3    H123683   4.279   1.775   8.086  0.4293  0.2316  0.6325
  708TIP3    H223684   4.307   1.846   7.956  1.9196 -0.5460  0.4964
  709TIP3   OH223685   5.458   4.417   7.580  0.0063 -0.9284  0.1793
  709TIP3    H123686   5.424   4.444   7.665 -0.1281 -0.8553  0.1023
  709TIP3    H223687   5.409   4.338   7.558  0.5857 -1.3883  0.5283
  710TIP3   OH223688   5.935   6.280   7.413  0.1201 -0.1847 -0.2537
  710TIP3    H123689   5.926   6.264   7.319 -0.2380  0.4807 -0.3429
  710TIP3    H223690   5.845   6.285   7.445  0.1885  1.3535 -0.2065
  711TIP3   OH223691   4.733   6.296   7.260 -0.2629  0.3122 -0.1533
  711TIP3    H123692   4.682   6.299   7.179  0.3830  1.6769 -0.5412
  711TIP3    H223693   4.779   6.212   7.256 -1.2860 -0.2395 -0.5361
  712TIP3   OH223694   1.895   0.450   7.991 -0.7442  0.5189  0.5080
  712TIP3    H123695   1.871   0.366   8.031  1.2164 -1.1635 -1.5749
  712TIP3    H223696   1.847   0.450   7.908 -0.0317  1.0328  0.0940
  713TIP3   OH223697   0.547   4.275   0.228 -0.0649  0.5504  0.0894
  713TIP3    H123698   0.616   4.271   0.294  1.7358  0.6669 -1.6883
  713TIP3    H223699   0.589   4.247   0.147 -2.3984 -0.4356 -0.8907
  714TIP3   OH223700   2.539   0.840   7.480 -0.2565 -0.0944  0.2955
  714TIP3    H123701   2.488   0.770   7.439  0.1925  0.9348 -2.1826
  714TIP3    H223702   2.626   0.832   7.442  0.8152 -0.2765  2.6090
  715TIP3   OH223703   3.856   4.130   0.858  0.4964  0.4902 -0.3673
  715TIP3    H123704   3.871   4.136   0.764 -0.5795 -0.0909 -0.5893
  715TIP3    H223705   3.927   4.181   0.897  1.5906 -0.1682 -1.4425
  716TIP3   OH223706   0.471   6.431   0.448  0.3567 -0.4076  0.2712
  716TIP3    H123707   0.381   6.401   0.457  0.9058 -2.0132  0.6677
  716TIP3    H223708   0.478   6.458   0.357 -0.4904 -0.3082  0.2219
  717TIP3   OH223709   3.592   2.527   0.518 -1.1562 -0.2653 -0.7635
  717TIP3    H123710   3.687   2.523   0.528 -1.1370 -4.1702 -1.1063
  717TIP3    H223711   3.559   2.544   0.607 -0.2466  3.0580 -0.9229
  718TIP3   OH223712   1.540   3.934   8.665  0.2075 -0.2315 -0.5731
  718TIP3    H123713   1.530   3.863   8.728  0.5008  0.0845 -0.1739
  718TIP3    H223714   1.487   3.906   8.590 -2.4457  0.6486  0.8499
  719TIP3   OH223715   0.424   3.526   8.800  0.0073  0.4834  0.0400
  719TIP3    H123716   0.445   3.471   8.876 -2.7261  0.0569  0.6024
  719TIP3    H223717   0.398   3.464   8.732 -0.1194  0.9631 -0.3577
  720TIP3   OH223718   0.211   0.994   0.265  0.2114  0.2462  0.3502
  720TIP3    H123719   0.213   0.901   0.243 -0.3727  0.4328 -0.5936
  720TIP3    H223720   0.214   0.997   0.360  1.4381 -0.6844  0.3617
  721TIP3   OH223721   6.376   0.716   0.782  0.7229  0.4084 -0.0235
  721TIP3    H123722   6.312   0.665   0.832  0.1643  1.3844  0.2834
  721TIP3    H223723   6.388   0.666   0.701  0.6021 -0.4789  0.4972
  722TIP3   OH223724   1.939   4.416   2.644 -0.2489  0.0415 -0.3047
  722TIP3    H123725   1.917   4.323   2.639 -3.0487  0.6222 -0.3738
  722TIP3    H223726   2.035   4.418   2.643 -0.1080 -2.7761 -1.1591
  723TIP3   OH223727   2.080   3.375   7.321  0.1139 -0.6691  0.0641
  723TIP3    H123728   2.119   3.351   7.236 -1.5220 -1.1881 -0.5674
  723TIP3    H223729   2.138   3.335   7.386 -0.1648 -2.6937 -0.8762
  724TIP3   OH223730   3.584   3.984   8.735 -0.3220 -0.0504 -0.0260
  724TIP3    H123731   3.530   4.034   8.674 -1.0085  0.2053  0.7774
  724TIP3    H223732   3.536   3.987   8.818  1.4183  1.1073  1.0233
  725TIP3   OH223733   5.197   5.548   8.581 -0.0651  0.4634  0.1126
  725TIP3    H123734   5.183   5.632   8.625 -2.3458  0.2731 -0.1352
  725TIP3    H223735   5.275   5.562   8.527  0.7975  1.7528  1.6040
  726TIP3   OH223736   1.468   3.690   7.574 -0.3965  0.7370 -0.0476
  726TIP3    H123737   1.484   3.595   7.573  1.7051  1.0304  1.1936
  726TIP3    H223738   1.381   3.699   7.612 -0.4943 -0.6891  0.1300
  727TIP3   OH223739   5.362   1.318   7.374 -0.1151  0.7910  0.0654
  727TIP3    H123740   5.442   1.370   7.383  1.1846 -0.4514 -2.9067
  727TIP3    H223741   5.291   1.382   7.373  1.2849  2.4492 -2.0208
  728TIP3   OH223742   1.857   6.571   1.732  0.1372 -0.8368 -0.2098
  728TIP3    H123743   1.771   6.564   1.690 -0.5625  1.9681  0.5663
  728TIP3    H223744   1.919   6.575   1.659 -0.6744 -0.1322 -0.8885
  729TIP3   OH223745   6.050   6.167   8.125 -0.4496 -0.5221 -0.8060
  729TIP3    H123746   5.987   6.211   8.068 -0.7044 -0.9790 -0.8863
  729TIP3    H223747   6.133   6.173   8.078 -0.3508  0.3769 -0.5447
  730TIP3   OH223748   1.191   3.418   8.662  0.1568  0.1174 -0.7476
  730TIP3    H123749   1.128   3.434   8.591 -0.9092 -0.4422  0.0423
  730TIP3    H223750   1.209   3.504   8.698  0.4270  0.3673 -1.4660
  731TIP3   OH223751   5.926   5.025   2.451 -0.1778  0.1124  0.1275
  731TIP3    H123752   5.859   4.991   2.392  1.4505  0.8136 -2.2829
  731TIP3    H223753   5.972   4.947   2.483 -1.4207 -0.3039  0.9811
  732TIP3   OH223754   3.215   3.054   1.261  0.5782 -0.2295  0.0045
  732TIP3    H123755   3.127   3.023   1.241  0.0781  1.3543 -0.3812
  732TIP3    H223756   3.249   3.086   1.177  0.9592  0.4952  0.4219
  733TIP3   OH223757   2.313   1.562   0.925 -0.2600  0.3083  0.0709
  733TIP3    H123758   2.394   1.613   0.931 -0.1468  0.1717 -0.2872
  733TIP3    H223759   2.338   1.473   0.947 -0.6854  0.6094  1.8760
  734TIP3   OH223760   4.279   0.624   7.025 -0.4254 -0.2711  0.1088
  734TIP3    H123761   4.252   0.543   7.068  1.1836 -1.2852 -0.6906
  734TIP3    H223762   4.197   0.663   6.994 -1.1877 -1.9948 -0.1845
  735TIP3   OH223763   4.070   0.125   8.499  0.0147 -0.0580  0.0392
  735TIP3    H123764   4.052   0.195   8.562  0.0063  0.5912 -0.6671
  735TIP3    H223765   4.110   0.170   8.425 -0.5331 -0.7169 -0.6712
  736TIP3   OH223766   1.707   4.349   1.721 -0.0838 -0.1190 -0.1198
  736TIP3    H123767   1.650   4.326   1.793 -0.8787  0.9557 -0.3741
  736TIP3    H223768   1.649   4.353   1.644  0.6022 -0.4964 -0.6677
  737TIP3   OH223769   2.599   3.864   0.140 -0.2182  0.4672  0.1224
  737TIP3    H123770   2.534   3.806   0.102 -1.4613  2.1978 -0.5138
  737TIP3    H223771   2.572   3.875   0.231 -1.0313  1.4201 -0.2175
  738TIP3   OH223772   4.401   4.159   8.476 -0.2534 -0.3612 -0.5680
  738TIP3    H123773   4.324   4.163   8.419 -1.2733 -2.5002  0.5242
  738TIP3    H223774   4.462   4.101   8.430 -0.3097 -0.6001 -0.3467
  739TIP3   OH223775   5.970   2.034   7.204 -0.4188 -0.2571  0.0761
  739TIP3    H123776   5.903   1.968   7.224 -0.5751 -0.5252 -1.2250
  739TIP3    H223777   5.945   2.109   7.258 -1.3691 -0.5892  0.1366
  740TIP3   OH223778   3.214   5.388   8.899 -0.3871  0.4718 -0.1604
  740TIP3    H123779   3.194   5.318   8.961  2.3200 -0.1684  0.1041
  740TIP3    H223780   3.199   5.468   8.949  0.6308 -0.0146  0.9825
  741TIP3   OH223781   2.118   3.817   7.523 -0.3507  0.2027  0.4894
  741TIP3    H123782   2.149   3.732   7.495 -1.2100  0.5804 -1.7571
  741TIP3    H223783   2.025   3.804   7.542 -0.2810  0.4599  1.0471
  742TIP3   OH223784   4.019   3.908   0.956  0.8752  0.0546 -0.9131
  742TIP3    H123785   4.060   3.884   0.873  1.6165 -1.6711 -0.0942
  742TIP3    H223786   3.932   3.868   0.952  1.0854 -0.4412 -0.6914
  743TIP3   OH223787   0.463   3.000   8.772  0.9274  0.3010 -0.2204
  743TIP3    H123788   0.538   3.040   8.816 -0.2990  1.1348  1.2085
  743TIP3    H223789   0.500   2.959   8.693  2.6238  2.0249 -0.3815
  744TIP3   OH223790   1.582   6.771   7.380 -0.0675 -0.4673 -0.3951
  744TIP3    H123791   1.546   6.753   7.292 -0.4374  3.3688 -1.2158
  744TIP3    H223792   1.677   6.773   7.367 -0.1550  0.9273 -0.9540
  745TIP3   OH223793   6.157   1.386   7.969 -0.1038  0.2287 -0.5336
  745TIP3    H123794   6.178   1.465   8.020  0.2642  0.4693 -1.0588
  745TIP3    H223795   6.163   1.315   8.033  3.5111  0.0908 -0.8304
  746TIP3   OH223796   2.020   3.417   8.712  0.1594 -0.0027  0.0356
  746TIP3    H123797   2.030   3.387   8.621  1.2884 -1.4973  0.6093
  746TIP3    H223798   1.931   3.451   8.717  0.1417  0.2831 -1.6751
  747TIP3   OH223799   5.363   0.813   6.684  0.3711  0.1193  0.1656
  747TIP3    H123800   5.368   0.760   6.764  1.2632  1.5888  1.1228
  747TIP3    H223801   5.444   0.792   6.637  0.6706  0.5484  0.4890
  748TIP3   OH223802   0.365   2.967   0.144 -0.3643 -0.3495  0.3732
  748TIP3    H123803   0.345   3.016   0.063  0.9204  0.0790  0.2912
  748TIP3    H223804   0.343   3.028   0.214 -1.2177 -0.6198  0.3519
  749TIP3   OH223805   5.265   0.245   8.407  0.3434  0.0367 -0.4053
  749TIP3    H123806   5.210   0.231   8.329  1.5230 -1.2728 -1.0455
  749TIP3    H223807   5.213   0.302   8.463 -2.1289 -1.9168 -0.5259
  750TIP3   OH223808   4.840   3.833   7.980 -0.6799  0.2842 -0.4939
  750TIP3    H123809   4.839   3.928   7.994  1.4140  0.0915  1.4159
  750TIP3    H223810   4.918   3.817   7.926 -0.6179 -0.4248 -0.2070
  751TIP3   OH223811   3.114   2.052   8.179 -0.2864  0.2115 -0.1475
  751TIP3    H123812   3.208   2.038   8.180  0.0791  1.4650 -3.6260
  751TIP3    H223813   3.101   2.136   8.224  0.2965  0.2539 -0.0555
  752TIP3   OH223814   3.760   0.178   8.282  0.5557  0.3741 -0.1802
  752TIP3    H123815   3.736   0.213   8.368  1.5604  0.4315  0.0938
  752TIP3    H223816   3.769   0.256   8.226  1.4891  0.4740  0.0902
  753TIP3   OH223817   0.552   5.777   8.570 -0.4942 -0.1262  0.2003
  753TIP3    H123818   0.520   5.752   8.657 -0.3651  1.5313  0.7684
  753TIP3    H223819   0.608   5.853   8.586 -0.5242  0.2564 -1.3371
  754TIP3   OH223820   4.130   1.014   7.289 -0.3289  0.8832  0.3532
  754TIP3    H123821   4.161   1.033   7.201 -0.6342  1.4420  0.3566
  754TIP3    H223822   4.157   1.090   7.340  0.5846  0.1860  0.9386
  755TIP3   OH223823   5.941   2.803   6.452  0.0197 -0.5450  0.4224
  755TIP3    H123824   5.979   2.852   6.525 -0.6362  0.6643 -0.0226
  755TIP3    H223825   6.011   2.800   6.386  0.2097 -0.5836  0.6265
  756TIP3   OH223826   1.786   5.952   1.136  0.9185 -0.5111  0.2792
  756TIP3    H123827   1.726   5.946   1.211  1.5367 -0.4115  0.7941
  756TIP3    H223828   1.868   5.916   1.170  0.9334 -1.4027 -0.6553
  757TIP3   OH223829   1.580   2.083   2.129  0.0439  0.3375 -0.4889
  757TIP3    H123830   1.587   2.052   2.039 -0.4431  2.8383 -1.4576
  757TIP3    H223831   1.671   2.100   2.156  0.1302  0.3427 -0.7827
  758TIP3   OH223832   5.463   0.393   8.257 -0.7226 -0.4536  0.2535
  758TIP3    H123833   5.408   0.380   8.181  1.2023  1.7142 -1.6638
  758TIP3    H223834   5.434   0.326   8.320 -0.9053 -3.9773 -3.1720
  759TIP3   OH223835   2.742   5.120   8.266 -0.3260  0.5531 -0.2948
  759TIP3    H123836   2.717   5.120   8.358 -0.0957  0.9357 -0.2296
  759TIP3    H223837   2.838   5.121   8.267 -0.2063 -2.3791 -0.5365
  760TIP3   OH223838   5.398   1.936   8.716  0.6556  0.5874 -0.2626
  760TIP3    H123839   5.381   1.984   8.634 -0.8058  0.1477 -0.2525
  760TIP3    H223840   5.329   1.965   8.775 -0.1137 -1.2767 -0.1646
  761TIP3   OH223841   5.531   6.760   8.190 -0.1538  0.1063 -0.0713
  761TIP3    H123842   5.615   6.760   8.237 -0.2855  1.1187  0.1854
  761TIP3    H223843   5.530   6.844   8.143 -0.7923 -0.1340 -0.4898
  762TIP3   OH223844   2.506   3.312   0.468  0.3473  0.0834 -0.0750
  762TIP3    H123845   2.504   3.237   0.407 -1.9773 -0.2342  0.3181
  762TIP3    H223846   2.543   3.383   0.416 -1.5723 -0.1693 -1.9441
  763TIP3   OH223847   2.423   6.472   0.807 -0.1046 -0.4444 -0.3542
  763TIP3    H123848   2.465   6.470   0.893 -4.1316  2.6549  2.0423
  763TIP3    H223849   2.365   6.396   0.807 -1.0191  0.2445  0.2495
  764TIP3   OH223850   0.425   0.117   2.014 -0.5448  1.0067  0.2851
  764TIP3    H123851   0.387   0.032   2.035 -0.1967  1.0736  1.2296
  764TIP3    H223852   0.385   0.141   1.931 -0.5501 -0.1435 -0.0687
  765TIP3   OH223853   6.418   0.615   7.634 -0.0160 -0.8203  0.3516
  765TIP3    H123854   6.450   0.552   7.699  2.0576 -0.6792 -0.4611
  765TIP3    H223855   6.450   0.582   7.551 -2.7172 -1.0471 -0.6822
  766TIP3   OH223856   6.696   1.244   1.000 -0.1132 -0.3480 -0.1792
  766TIP3    H123857   6.659   1.224   0.914 -2.5186  0.2243  0.6396
  766TIP3    H223858   6.638   1.310   1.036  2.8896  2.1542  0.4909
  767TIP3   OH223859   6.607   5.065   7.808 -0.1328  0.0792  0.0024
  767TIP3    H123860   6.578   4.976   7.785 -1.4580  0.3836  0.4119
  767TIP3    H223861   6.527   5.116   7.810  0.4988  1.0676  0.8104
  768TIP3   OH223862   4.515   4.260   0.109  0.4065  0.0547  0.3838
  768TIP3    H123863   4.508   4.179   0.158  1.4124 -0.1927  0.1349
  768TIP3    H223864   4.447   4.253   0.041  0.4266 -0.5354  0.4202
  769TIP3   OH223865   4.679   4.793   0.776  0.1996 -0.3672  0.0233
  769TIP3    H123866   4.605   4.812   0.719  0.7496 -0.5631 -0.7784
  769TIP3    H223867   4.750   4.846   0.742  0.5772 -0.5928  0.4448
  770TIP3   OH223868   1.017   3.955   8.416  0.3757 -0.3743 -0.7937
  770TIP3    H123869   1.048   4.019   8.352 -1.6724 -0.7981 -2.2971
  770TIP3    H223870   0.946   3.909   8.372 -1.3618 -0.4770  1.8925
  771TIP3   OH223871   2.518   5.677   7.625  0.4707 -0.5899 -0.2986
  771TIP3    H123872   2.607   5.649   7.649  0.6669  0.2247 -0.0375
  771TIP3    H223873   2.507   5.761   7.670 -0.7645 -1.1030  0.3822
  772TIP3   OH223874   5.782   6.315   2.513 -0.8492 -0.1855 -0.3928
  772TIP3    H123875   5.788   6.370   2.435  0.3782  0.6561  0.2690
  772TIP3    H223876   5.865   6.268   2.516  0.1091  1.5172  1.6323
  773TIP3   OH223877   5.005   6.618   8.589 -0.2617 -0.1472  0.6046
  773TIP3    H123878   5.092   6.641   8.556  1.0471 -2.3823  2.2112
  773TIP3    H223879   4.975   6.697   8.634 -0.2971  1.5534 -2.1280
  774TIP3   OH223880   3.422   6.424   1.154  0.3102  0.6233 -0.1712
  774TIP3    H123881   3.500   6.475   1.133 -0.1886  0.7454 -1.9160
  774TIP3    H223882   3.388   6.397   1.069 -0.3587 -1.2601  0.6471
  775TIP3   OH223883   4.932   6.708   7.167 -0.1653 -0.0371 -0.0511
  775TIP3    H123884   4.871   6.698   7.094  0.8681 -0.3543 -0.8957
  775TIP3    H223885   4.901   6.786   7.213 -0.0408  1.0234 -1.6518
  776TIP3   OH223886   6.456   4.444   6.486  0.4402 -0.6055 -0.2197
  776TIP3    H123887   6.523   4.508   6.463  0.2722 -0.5023 -0.4363
  776TIP3    H223888   6.399   4.490   6.548  0.1805 -0.4583 -0.5607
  777TIP3   OH223889   5.969   1.881   0.873 -0.0387 -0.4390  0.3282
  777TIP3    H123890   5.989   1.829   0.950  1.4003  1.7578  1.5362
  777TIP3    H223891   6.051   1.884   0.823 -0.5086 -0.5205 -0.4732
  778TIP3   OH223892   3.532   4.854   1.434 -0.0219  0.0179 -0.3840
  778TIP3    H123893   3.570   4.807   1.360  0.7911 -0.3654  0.2550
  778TIP3    H223894   3.458   4.800   1.462 -1.2640  0.9045 -1.8070
  779TIP3   OH223895   1.592   4.529   0.988  0.1083 -0.0227 -0.2779
  779TIP3    H123896   1.608   4.562   0.900 -0.1575  0.7279 -0.0551
  779TIP3    H223897   1.513   4.575   1.017 -0.3598 -0.9689 -0.0052
  780TIP3   OH223898   6.365   5.181   7.278 -0.5910  0.4401  0.0139
  780TIP3    H123899   6.295   5.138   7.228 -0.4314  1.6873 -1.3669
  780TIP3    H223900   6.429   5.112   7.295  0.1406  0.2281 -2.9895
  781TIP3   OH223901   6.688   3.555   8.641  0.2542  0.0961  0.4353
  781TIP3    H123902   6.618   3.497   8.614  0.9762 -0.5001 -0.2093
  781TIP3    H223903   6.683   3.629   8.581  1.1709 -0.7117 -0.6820
  782TIP3   OH223904   1.351   4.175   7.236  0.2187  0.0969 -0.5020
  782TIP3    H123905   1.344   4.268   7.261  1.7409  0.3236 -0.8538
  782TIP3    H223906   1.291   4.130   7.295  0.6044  1.1291  0.7164
  783TIP3   OH223907   0.786   6.547   8.015 -0.2885 -0.0850 -0.5952
  783TIP3    H123908   0.725   6.492   8.063 -0.3914  0.6666  0.1480
  783TIP3    H223909   0.834   6.595   8.082 -0.0268  0.5566 -1.2232
  784TIP3   OH223910   4.749   5.330   6.899 -0.2318 -0.3785 -0.4691
  784TIP3    H123911   4.803   5.259   6.865  1.0869  0.7497 -0.8095
  784TIP3    H223912   4.732   5.305   6.990  1.3849 -0.4935 -0.1698
  785TIP3   OH223913   1.617   4.833   1.302  0.4387  0.5511  0.3144
  785TIP3    H123914   1.665   4.839   1.219  2.4237  0.3140  1.3876
  785TIP3    H223915   1.636   4.744   1.333 -2.0104 -0.1301  0.0783
  786TIP3   OH223916   5.912   2.085   1.047  1.0272 -0.2326 -0.2483
  786TIP3    H123917   5.843   2.071   1.112  1.8160  2.7727  1.4498
  786TIP3    H223918   5.909   2.008   0.991 -0.7081 -2.3072  2.4710
  787TIP3   OH223919   5.113   3.302   0.918 -0.0779  0.3330 -0.5169
  787TIP3    H123920   5.171   3.303   0.994  0.4343 -0.6158 -0.8769
  787TIP3    H223921   5.036   3.253   0.947 -0.6959  1.5310 -0.0614
  788TIP3   OH223922   1.322   1.196   0.122 -0.4525  0.1447  0.2211
  788TIP3    H123923   1.392   1.194   0.187  0.8996  1.2882 -1.1154
  788TIP3    H223924   1.271   1.275   0.143 -2.5624 -1.6412  2.3077
  789TIP3   OH223925   5.671   0.264   0.398 -0.2812 -0.4262 -0.0712
  789TIP3    H123926   5.703   0.354   0.385 -1.2626  0.0550  0.8020
  789TIP3    H223927   5.717   0.213   0.331  1.2500  0.4920  0.2395
  790TIP3   OH223928   2.869   4.672   7.556 -0.8456 -0.3381 -0.0905
  790TIP3    H123929   2.833   4.617   7.626  0.2803  0.3864  1.1057
  790TIP3    H223930   2.844   4.761   7.581  0.1155 -0.0148 -0.2716
  791TIP3   OH223931   4.077   2.117   7.418 -0.1054  0.5787 -0.3460
  791TIP3    H123932   3.983   2.130   7.416 -0.3725 -0.7310  1.3683
  791TIP3    H223933   4.111   2.193   7.465 -0.5462  0.0735  0.8145
  792TIP3   OH223934   0.279   3.060   8.055  0.0069 -0.2122  0.3769
  792TIP3    H123935   0.283   3.129   7.989 -2.2504 -0.5623 -0.2051
  792TIP3    H223936   0.362   3.013   8.046  0.2960  0.5648 -1.2973
  793TIP3   OH223937   4.452   5.151   6.842  0.0458  0.6995  0.3411
  793TIP3    H123938   4.542   5.120   6.838 -0.4172 -1.2635  2.6642
  793TIP3    H223939   4.414   5.129   6.757  1.7379  1.7548 -0.7435
  794TIP3   OH223940   5.981   5.226   2.225 -0.7302  0.1098  0.1288
  794TIP3    H123941   5.969   5.159   2.292 -0.7186 -0.6006 -0.5664
  794TIP3    H223942   5.941   5.304   2.263 -0.6800 -0.2647  0.9812
  795TIP3   OH223943   4.749   0.638   1.900 -0.1545  0.0201  0.1000
  795TIP3    H123944   4.825   0.682   1.864 -1.0027 -0.0444 -1.8801
  795TIP3    H223945   4.776   0.611   1.988  2.3662 -0.7282 -0.8303
  796TIP3   OH223946   1.309   2.130   2.078  0.8472 -0.3020 -0.6572
  796TIP3    H123947   1.399   2.131   2.110  0.3460  3.2032  1.1388
  796TIP3    H223948   1.255   2.131   2.157 -0.8261 -1.8701 -1.7022
  797TIP3   OH223949   0.695   5.144   1.737  0.6240 -0.2807  0.2578
  797TIP3    H123950   0.711   5.113   1.647  0.9139  1.0585 -0.1769
  797TIP3    H223951   0.707   5.066   1.791  0.4619 -1.1157 -0.8601
  798TIP3   OH223952   3.529   2.040   0.451 -0.0495 -0.4518  0.5006
  798TIP3    H123953   3.557   1.979   0.382  0.5073  0.9092 -0.5092
  798TIP3    H223954   3.600   2.104   0.457 -0.5840  0.0615  1.6132
  799TIP3   OH223955   5.125   4.711   8.314  0.2522  0.0055 -0.0144
  799TIP3    H123956   5.113   4.802   8.341  1.5094  0.1325  0.1713
  799TIP3    H223957   5.041   4.670   8.333 -0.3975  1.1577 -0.2699
  800TIP3   OH223958   2.195   5.594   6.831  0.2201 -0.1790 -0.4937
  800TIP3    H123959   2.259   5.646   6.782  1.2207  0.1288  1.0749
  800TIP3    H223960   2.246   5.523   6.870 -0.1009  0.7290  1.7405
  801TIP3   OH223961   5.505   0.661   1.347 -0.4547  0.5378 -0.6267
  801TIP3    H123962   5.436   0.595   1.354 -1.3463  1.2695 -1.9904
  801TIP3    H223963   5.575   0.629   1.403 -1.2972 -1.0059 -0.4057
  802TIP3   OH223964   4.306   4.654   8.597 -0.0099  0.3941 -0.2743
  802TIP3    H123965   4.388   4.647   8.646 -1.2390  0.1922  1.9094
  802TIP3    H223966   4.263   4.568   8.609 -1.6979  1.3390  0.9610
  803TIP3   OH223967   1.759   4.778   1.044 -0.8117  0.2603 -0.0197
  803TIP3    H123968   1.708   4.715   0.992 -1.0284  1.6195 -1.5461
  803TIP3    H223969   1.840   4.732   1.064 -0.4157 -0.1286 -2.2033
  804TIP3   OH223970   2.112   0.086   5.894  0.3478 -0.4310 -0.1814
  804TIP3    H123971   2.202   0.116   5.884  0.4655 -0.9533 -0.7520
  804TIP3    H223972   2.117   0.013   5.955  0.3708 -0.7237 -0.5304
  805TIP3   OH223973   0.756   1.168   8.722  0.1818  0.0080 -0.3867
  805TIP3    H123974   0.828   1.139   8.664 -0.0220  0.5958 -0.9427
  805TIP3    H223975   0.681   1.176   8.663  0.4489  2.6307 -0.4787
  806TIP3   OH223976   4.378   5.365   8.222 -0.7683  0.1590  0.2365
  806TIP3    H123977   4.379   5.280   8.178  2.1803  0.0805  0.2805
  806TIP3    H223978   4.428   5.423   8.163  1.3947  0.6058  2.3644
  807TIP3   OH223979   0.959   0.005   7.689  0.6833 -0.1163  0.4535
  807TIP3    H123980   1.038  -0.032   7.728  0.6342 -1.0276 -0.2519
  807TIP3    H223981   0.973   0.099   7.689  0.9943 -0.1495  1.9634
  808TIP3   OH223982   4.918   5.300   8.584 -0.2194  0.2009  0.1102
  808TIP3    H123983   4.979   5.237   8.547 -1.5924 -1.7491  0.9742
  808TIP3    H223984   4.973   5.357   8.638  1.3110  0.9589 -2.1199
  809TIP3   OH223985   0.779   3.489   7.293  0.1949 -0.5398 -0.2329
  809TIP3    H123986   0.779   3.422   7.361  1.1396 -0.1525  0.1593
  809TIP3    H223987   0.798   3.571   7.339 -0.9095  0.0114 -0.7103
  810TIP3   OH223988   0.015   3.477   0.779  0.5408  0.0550  0.0549
  810TIP3    H123989   0.071   3.408   0.815  1.8383  1.2682  0.4929
  810TIP3    H223990   0.066   3.558   0.792  0.8262  0.7242 -3.8550
  811TIP3   OH223991   2.277   4.363   7.273  0.2363  0.1491 -0.8234
  811TIP3    H123992   2.315   4.279   7.296 -2.0055 -0.6842  0.1895
  811TIP3    H223993   2.188   4.342   7.244 -0.8884  2.2020  0.7894
  812TIP3   OH223994   4.136   4.970   1.279 -0.5134  0.2630 -0.1086
  812TIP3    H123995   4.058   4.977   1.224 -0.4545 -1.1089 -0.4146
  812TIP3    H223996   4.110   5.009   1.362 -1.0848  1.0423 -0.6420
  813TIP3   OH223997   4.783   4.679   2.401 -0.4523 -0.4585  0.7609
  813TIP3    H123998   4.833   4.731   2.337 -0.6159  0.5512  1.4240
  813TIP3    H223999   4.850   4.638   2.456 -0.3088  0.7822  1.5614
  814TIP3   OH224000   6.775   4.310   8.626  0.0386  0.0009  0.2515
  814TIP3    H124001   6.750   4.258   8.549 -0.9346  0.2780  0.3594
  814TIP3    H224002   6.778   4.246   8.697  0.3845 -0.1623  0.0933
  815TIP3   OH224003   6.674   4.225   6.992 -0.4651  0.3976  0.6757
  815TIP3    H124004   6.654   4.242   7.084  1.4746 -0.0875  1.2315
  815TIP3    H224005   6.685   4.130   6.986  3.3854  0.6463  0.9479
  816TIP3   OH224006   3.175   0.592   7.518 -0.3861  0.0149  0.5448
  816TIP3    H124007   3.156   0.583   7.611 -0.5822 -1.8021  0.3585
  816TIP3    H224008   3.108   0.539   7.474 -0.2935  0.8294 -0.6425
  817TIP3   OH224009   1.398   5.055   8.355 -0.2585 -0.1886  0.2091
  817TIP3    H124010   1.460   4.983   8.345 -1.0759 -0.9514  0.4978
  817TIP3    H224011   1.341   5.049   8.278 -2.5897 -2.1500  1.9162
  818TIP3   OH224012   0.477   4.954   0.034 -0.7476 -0.0489 -0.0595
  818TIP3    H124013   0.526   4.978  -0.045 -0.0150 -1.1499  0.0501
  818TIP3    H224014   0.385   4.968   0.010 -0.5103 -0.0173 -0.9792
  819TIP3   OH224015   5.945   0.149   0.452  0.4044 -0.2177 -0.7365
  819TIP3    H124016   5.903   0.223   0.408  0.8473  0.4158 -0.1189
  819TIP3    H224017   5.974   0.092   0.381 -0.3069 -0.0095 -1.2064
  820TIP3   OH224018   1.743   0.515   7.436 -0.0884  0.1951  0.2512
  820TIP3    H124019   1.787   0.569   7.502  0.0588  0.7160 -0.2561
  820TIP3    H224020   1.806   0.511   7.364 -0.6733  0.5490 -0.2931
  821TIP3   OH224021   6.578   6.369   0.479 -0.2144  0.3261  0.6171
  821TIP3    H124022   6.623   6.342   0.399  0.1792 -0.4733  1.0891
  821TIP3    H224023   6.627   6.446   0.510  0.1684  0.1148  0.5456
  822TIP3   OH224024   3.419   2.807   7.696  0.1561  0.3117  0.2530
  822TIP3    H124025   3.400   2.714   7.711  2.1156 -0.4959 -1.7643
  822TIP3    H224026   3.477   2.831   7.769  1.0379 -0.5673 -0.1336
  823TIP3   OH224027   3.679   3.423   6.716 -0.2988  0.3849  0.4467
  823TIP3    H124028   3.712   3.341   6.753 -1.2794  0.0582  0.6124
  823TIP3    H224029   3.622   3.459   6.784 -0.9164  0.5424 -0.1385
  824TIP3   OH224030   0.858   2.809   7.705 -0.5973  0.0217  0.3660
  824TIP3    H124031   0.949   2.818   7.676 -1.0368  0.5577 -0.8851
  824TIP3    H224032   0.811   2.774   7.630 -1.7473  1.3650  0.4151
  825TIP3   OH224033   5.876   2.314   1.818 -0.0446  0.7961 -0.6953
  825TIP3    H124034   5.904   2.373   1.747  2.3962 -0.2826 -0.7503
  825TIP3    H224035   5.844   2.236   1.773  0.7384  0.4323 -0.6356
  826TIP3   OH224036   3.391   6.441   7.757 -0.2372 -0.0863 -0.5464
  826TIP3    H124037   3.305   6.420   7.720 -0.1256  0.2114 -0.9904
  826TIP3    H224038   3.371   6.493   7.835 -0.4486  1.2003 -1.4219
  827TIP3   OH224039   3.925   6.053   8.699  0.7853 -0.0280  0.1782
  827TIP3    H124040   3.909   5.970   8.656 -0.8930  0.7238 -0.7500
  827TIP3    H224041   3.946   6.114   8.628  3.0385  0.1688  0.9237
  828TIP3   OH224042   5.437   5.658   6.755  0.0360 -0.5977  0.2149
  828TIP3    H124043   5.414   5.597   6.825 -0.2229 -0.0724  0.5972
  828TIP3    H224044   5.492   5.724   6.797  1.9423 -1.5879 -0.5954
  829TIP3   OH224045   2.572   4.025   6.327  0.6054 -0.0811 -0.3439
  829TIP3    H124046   2.612   3.938   6.332 -0.8407 -1.0546 -3.3669
  829TIP3    H224047   2.585   4.052   6.236 -2.9763  0.7947 -0.7356
  830TIP3   OH224048   6.714   2.731   7.196  0.3331 -0.8459  0.1253
  830TIP3    H124049   6.663   2.653   7.176 -0.8684 -0.4775  1.6107
  830TIP3    H224050   6.674   2.800   7.144  2.5843 -1.4654 -2.7188
  831TIP3   OH224051   6.004   6.123   0.981  0.2706 -0.2168 -0.1342
  831TIP3    H124052   5.952   6.056   0.938 -1.1773  0.1547  0.9738
  831TIP3    H224053   5.943   6.168   1.038  1.4287  1.4245 -0.1207
  832TIP3   OH224054   4.736   6.073   8.470 -0.3679 -0.3603  0.4457
  832TIP3    H124055   4.646   6.063   8.500  0.4912 -1.0691  3.0511
  832TIP3    H224056   4.730   6.134   8.397 -2.7784  1.0118  1.6580
  833TIP3   OH224057   1.415   2.882   0.670  0.1384 -0.3758  0.2987
  833TIP3    H124058   1.494   2.829   0.681  0.6854  0.6898  2.0237
  833TIP3    H224059   1.345   2.830   0.708 -0.0940 -1.4422 -1.4791
  834TIP3   OH224060   4.407   3.240   7.205 -0.0982 -0.4449  0.2722
  834TIP3    H124061   4.434   3.155   7.239 -0.2483  0.3629  2.5431
  834TIP3    H224062   4.312   3.239   7.210 -0.1804 -0.5879 -0.9293
  835TIP3   OH224063   6.489   2.743   1.412 -0.2598  0.0674 -0.2999
  835TIP3    H124064   6.428   2.816   1.423 -0.6600 -0.3354  0.1715
  835TIP3    H224065   6.484   2.695   1.495 -0.3641 -0.7758 -0.7889
  836TIP3   OH224066   4.874   6.069   8.019 -0.1689  0.1908 -0.0065
  836TIP3    H124067   4.939   6.003   7.997 -0.9223  0.1912 -2.5420
  836TIP3    H224068   4.830   6.089   7.936 -1.5374  2.1936  1.0987
  837TIP3   OH224069   5.586   4.367   8.389 -0.0207 -0.0315 -0.0273
  837TIP3    H124070   5.566   4.348   8.297  1.1607  0.1687 -0.3459
  837TIP3    H224071   5.520   4.431   8.416  1.1333  1.9281 -1.5483
  838TIP3   OH224072   2.573   3.096   2.532 -0.0314  0.5246 -0.2275
  838TIP3    H124073   2.515   3.068   2.462 -1.2574 -0.0377  0.9651
  838TIP3    H224074   2.634   3.023   2.542 -0.7383 -0.0224  0.2142
  839TIP3   OH224075   3.609   3.326   8.824  0.4745  0.4300  0.2876
  839TIP3    H124076   3.626   3.298   8.914 -0.6394  0.0619  0.3960
  839TIP3    H224077   3.571   3.413   8.832  0.1579  0.3025  0.1920
  840TIP3   OH224078   3.685   1.375   8.152 -0.3735 -0.0803 -0.3335
  840TIP3    H124079   3.777   1.391   8.175 -0.9102  1.0447  1.1988
  840TIP3    H224080   3.687   1.358   8.058  1.5856 -1.7519 -0.0802
  841TIP3   OH224081   0.637   5.166   6.902 -0.2382  0.2141 -0.5430
  841TIP3    H124082   0.621   5.207   6.817 -0.7670  1.9656  0.3507
  841TIP3    H224083   0.668   5.238   6.958 -0.1063 -0.8466  0.8018
  842TIP3   OH224084   2.575   3.050   6.674  0.4398 -0.9301  0.1292
  842TIP3    H124085   2.543   3.129   6.630  0.2986 -1.3058 -0.4617
  842TIP3    H224086   2.660   3.074   6.710  0.7423 -0.7282 -0.7072
  843TIP3   OH224087   1.388   2.027   8.256 -1.3970  0.6175 -0.3187
  843TIP3    H124088   1.460   2.042   8.195 -2.7669 -0.0443 -2.1804
  843TIP3    H224089   1.378   2.110   8.302  1.9376  0.1309  1.6619
  844TIP3   OH224090   5.589   0.811   7.957 -0.2510 -0.4449 -0.9160
  844TIP3    H124091   5.553   0.725   7.934  0.7049 -0.1414 -3.9888
  844TIP3    H224092   5.557   0.869   7.888 -0.7756  1.7116  1.0179
  845TIP3   OH224093   4.515   0.185   0.339  0.9453  0.4829  0.4674
  845TIP3    H124094   4.429   0.143   0.347  0.7515  0.5459 -1.0851
  845TIP3    H224095   4.519   0.214   0.248  2.2490  1.2914  0.7679
  846TIP3   OH224096   2.258   5.258   7.781 -0.1097 -0.2171 -0.1310
  846TIP3    H124097   2.237   5.208   7.702 -1.1153 -0.9959  0.5934
  846TIP3    H224098   2.330   5.211   7.822  0.8054  0.5205 -0.8750
  847TIP3   OH224099   1.229   4.851   0.518  0.5233  0.1795 -0.9285
  847TIP3    H124100   1.199   4.761   0.508 -0.3911  0.4290 -0.5580
  847TIP3    H224101   1.285   4.867   0.443  0.6067 -0.6657 -1.0493
  848TIP3   OH224102   4.655   3.848   1.086 -0.0526  0.1920 -0.4875
  848TIP3    H124103   4.634   3.789   1.014  0.1560 -0.1336 -0.2872
  848TIP3    H224104   4.748   3.868   1.074  0.3667 -1.0384  0.5162
  849TIP3   OH224105   2.779   6.599   7.830  0.2010  1.0918 -0.6605
  849TIP3    H124106   2.824   6.517   7.808 -1.0356  0.0186  0.5935
  849TIP3    H224107   2.725   6.617   7.753 -2.5418 -1.5244  0.4341
  850TIP3   OH224108   0.371   4.493   0.924 -0.0503 -0.2534 -0.4533
  850TIP3    H124109   0.342   4.405   0.949 -0.3413 -0.0190  0.0607
  850TIP3    H224110   0.360   4.496   0.829 -2.4355  0.0651 -0.2277
  851TIP3   OH224111   4.583   0.827   1.720  0.7539 -0.1543  0.0364
  851TIP3    H124112   4.666   0.790   1.751  0.2712 -0.9264  0.4385
  851TIP3    H224113   4.591   0.826   1.624  1.6578  0.8486  0.0869
  852TIP3   OH224114   2.380   0.315   0.076 -0.0848 -0.3856 -0.1685
  852TIP3    H124115   2.349   0.294  -0.012  0.6290  1.8103 -1.0139
  852TIP3    H224116   2.474   0.296   0.073 -0.1601 -0.8653  0.3325
  853TIP3   OH224117   2.571   5.313   7.577  0.9268 -0.3976 -0.3743
  853TIP3    H124118   2.652   5.361   7.563  0.7743 -0.5028 -1.7968
  853TIP3    H224119   2.521   5.327   7.496 -1.4863  1.6069  1.3015
  854TIP3   OH224120   4.637   4.770   2.182 -0.2309 -0.1025  0.4357
  854TIP3    H124121   4.670   4.730   2.262  0.1373  0.2988  0.4872
  854TIP3    H224122   4.545   4.742   2.177 -0.3083  0.0239  1.1007
  855TIP3   OH224123   6.370   0.337   0.508 -0.0209  0.3156 -0.3577
  855TIP3    H124124   6.362   0.251   0.549  0.2240  0.5152  0.1186
  855TIP3    H224125   6.398   0.319   0.418  1.5549 -0.0592  0.1731
  856TIP3   OH224126   1.439   2.326   0.722 -0.0955 -0.4594  0.8954
  856TIP3    H124127   1.362   2.317   0.777 -0.9854 -0.3350 -0.2701
  856TIP3    H224128   1.455   2.238   0.687  0.2130 -0.4585  1.0295
  857TIP3   OH224129   5.961   4.295   1.385  0.4375  0.3911 -0.1744
  857TIP3    H124130   5.871   4.272   1.405  0.5472  0.7008  0.7258
  857TIP3    H224131   5.965   4.390   1.399  0.9188  0.3674 -0.1402
  858TIP3   OH224132   4.796   6.759   0.091 -0.3527  0.2043  0.2370
  858TIP3    H124133   4.819   6.673   0.127 -1.2141  0.4074  1.3463
  858TIP3    H224134   4.815   6.821   0.161  1.0375  1.0574 -0.8360
  859TIP3   OH224135   0.578   3.070   8.169  0.3038 -0.6818  0.5293
  859TIP3    H124136   0.657   3.099   8.216  0.7055 -1.9629  0.6908
  859TIP3    H224137   0.590   2.976   8.160 -1.8628 -1.1257  1.7689
  860TIP3   OH224138   1.876   3.734   7.439 -0.4579 -0.4119  0.0687
  860TIP3    H124139   1.833   3.819   7.438 -0.2306 -0.2854 -0.8779
  860TIP3    H224140   1.826   3.681   7.500 -1.2411  0.0854 -0.1338
  861TIP3   OH224141   5.348   6.055   2.557  0.2607  0.1467  0.1446
  861TIP3    H124142   5.397   6.137   2.558 -0.9890  0.9280  0.5477
  861TIP3    H224143   5.291   6.063   2.481  0.0264 -0.2766  0.2760
  862TIP3   OH224144   6.024   2.189   1.308 -0.3853 -0.0075 -0.2287
  862TIP3    H124145   6.111   2.218   1.280 -1.0346  2.5820  0.1663
  862TIP3    H224146   5.966   2.260   1.281 -1.9046 -0.1551  2.3032
  863TIP3   OH224147   5.280   4.341   8.558  0.4576  0.0795  0.0274
  863TIP3    H124148   5.371   4.322   8.582  0.3881  0.2132  0.4006
  863TIP3    H224149   5.240   4.374   8.638 -0.9964 -3.5242  0.9631
  864TIP3   OH224150   5.855   0.177   1.389 -0.0399 -0.0800 -0.0052
  864TIP3    H124151   5.819   0.228   1.462  1.0659  0.9417 -0.1487
  864TIP3    H224152   5.794   0.104   1.379  0.4608 -1.0021  2.8080
  865TIP3   OH224153   0.952   4.114   8.708  0.1343 -0.0601 -0.6291
  865TIP3    H124154   1.047   4.119   8.698  0.1282  0.5275 -0.3943
  865TIP3    H224155   0.919   4.101   8.619  0.3926  0.4039 -0.7933
  866TIP3   OH224156   5.769   3.401   8.235  0.2657 -0.1678 -0.5198
  866TIP3    H124157   5.826   3.381   8.308 -0.2455 -0.8495 -0.3020
  866TIP3    H224158   5.694   3.342   8.245 -1.9189  2.5996  0.8345
  867TIP3   OH224159   2.571   0.630   2.464 -0.1818 -0.3936 -0.1049
  867TIP3    H124160   2.653   0.677   2.478  1.4401 -2.7952 -0.8085
  867TIP3    H224161   2.589   0.541   2.495 -2.5659 -0.9953 -0.2205
  868TIP3   OH224162   0.538   6.059   0.221 -0.0385  0.5958  0.6512
  868TIP3    H124163   0.515   6.027   0.134  2.3022 -1.1512  0.5484
  868TIP3    H224164   0.455   6.077   0.263 -1.3214 -0.4074 -1.2848
  869TIP3   OH224165   1.082   5.508   8.110 -0.3031 -0.0028 -0.4051
  869TIP3    H124166   1.020   5.567   8.153  0.1187  0.5616 -0.5542
  869TIP3    H224167   1.162   5.517   8.162 -0.5249 -1.2380  0.1987
  870TIP3   OH224168   4.714   4.616   0.183 -0.3715  0.1390  0.2967
  870TIP3    H124169   4.730   4.538   0.130 -1.6440 -0.2278  0.4334
  870TIP3    H224170   4.718   4.688   0.121 -1.1365 -0.2180 -0.1804
  871TIP3   OH224171   1.612   1.074   0.692 -0.6331  0.1266 -0.2753
  871TIP3    H124172   1.617   1.050   0.785  0.4269 -0.7220 -0.5293
  871TIP3    H224173   1.603   1.169   0.692  0.5800  0.2644  0.6879
  872TIP3   OH224174   6.051   3.808   7.951  0.5887 -0.0145  0.3360
  872TIP3    H124175   6.000   3.798   8.032  1.2542 -1.5755  0.5816
  872TIP3    H224176   6.027   3.895   7.919 -1.5954 -0.3607  0.8780
  873TIP3   OH224177   3.420   0.409   8.644  0.5262  0.5540  0.0490
  873TIP3    H124178   3.352   0.424   8.710  2.1383 -1.0107  2.2126
  873TIP3    H224179   3.381   0.343   8.585  0.3578 -0.8852  1.6921
  874TIP3   OH224180   4.365   3.818   7.156  0.1905  0.2650  0.2853
  874TIP3    H124181   4.345   3.842   7.066 -1.5450  1.7659  0.9991
  874TIP3    H224182   4.299   3.752   7.178  1.7079 -1.4186 -0.0459
  875TIP3   OH224183   4.640   6.282   0.695 -0.4403 -0.0474 -0.0706
  875TIP3    H124184   4.699   6.234   0.753  0.7304  0.6781 -0.6165
  875TIP3    H224185   4.633   6.369   0.736  1.1282  0.7818 -1.4126
  876TIP3   OH224186   6.375   0.212   1.249 -0.2182 -1.0589 -0.0298
  876TIP3    H124187   6.348   0.120   1.245 -0.1296 -1.1401  1.0575
  876TIP3    H224188   6.436   0.222   1.176  1.0527 -2.2954  0.7970
  877TIP3   OH224189   6.707   1.595   1.308  0.3276  0.3168  0.1807
  877TIP3    H124190   6.722   1.682   1.271 -0.9591  0.9335  1.0387
  877TIP3    H224191   6.680   1.612   1.398 -0.3541 -0.9681  0.2424
  878TIP3   OH224192   1.896   3.955   7.034 -0.2484  0.1783  0.3701
  878TIP3    H124193   1.908   4.034   6.982  0.3098 -0.6734 -0.8514
  878TIP3    H224194   1.849   3.984   7.112 -0.1622  1.6806 -0.1083
  879TIP3   OH224195   2.488   1.617   8.686 -1.0820 -0.1765 -0.4162
  879TIP3    H124196   2.500   1.529   8.652 -3.0746 -1.1901  1.2733
  879TIP3    H224197   2.473   1.671   8.608  1.4952 -1.0100 -1.5694
  880TIP3   OH224198   4.399   0.871   0.542  0.5886  0.0290 -0.3193
  880TIP3    H124199   4.380   0.779   0.521  2.2354 -0.6420  0.8913
  880TIP3    H224200   4.438   0.906   0.462 -1.9137  0.3220 -1.4925
  881TIP3   OH224201   2.952   0.130   8.332 -0.3513 -0.4296  0.0880
  881TIP3    H124202   2.860   0.126   8.307 -0.1893 -0.9196 -0.4366
  881TIP3    H224203   2.996   0.069   8.273  0.0132 -1.8475  1.7465
  882TIP3   OH224204   3.897   6.651   0.831  0.2655  0.9675 -1.2792
  882TIP3    H124205   3.834   6.640   0.902  2.6332 -0.1760  0.7824
  882TIP3    H224206   3.848   6.628   0.752 -2.3839  1.9756 -0.0507
  883TIP3   OH224207   2.069   2.303   8.311 -0.2343  0.3866  0.2430
  883TIP3    H124208   2.123   2.366   8.263 -1.1038  1.2908  0.4256
  883TIP3    H224209   1.989   2.351   8.333 -1.1491 -0.9358 -0.0491
  884TIP3   OH224210   3.787   6.551   8.606  0.3330  0.1768  0.2827
  884TIP3    H124211   3.714   6.611   8.590  0.2024 -0.3352 -1.1989
  884TIP3    H224212   3.748   6.476   8.651  0.1685  0.4064  0.5252
  885TIP3   OH224213   5.514   6.690   2.502 -0.0035 -0.0296  0.2666
  885TIP3    H124214   5.421   6.684   2.524 -0.0703 -0.7003 -0.1902
  885TIP3    H224215   5.517   6.684   2.407  0.6262 -1.7158  0.3620
  886TIP3   OH224216   4.315   0.903   8.905 -0.2228  0.0988 -0.0942
  886TIP3    H124217   4.400   0.871   8.874  1.2515  0.9746  2.6171
  886TIP3    H224218   4.275   0.827   8.947 -0.6466 -0.2298 -1.0739
  887TIP3   OH224219   5.187   2.425   1.130 -0.6749  0.2527 -0.3606
  887TIP3    H124220   5.109   2.455   1.084 -1.0325 -1.1418 -0.7164
  887TIP3    H224221   5.178   2.330   1.133  1.5002 -0.0301 -1.2750
  888TIP3   OH224222   0.026   1.785   1.146 -0.3782 -0.0460  0.2294
  888TIP3    H124223   0.055   1.775   1.055 -0.2442 -1.8359  0.4402
  888TIP3    H224224  -0.069   1.771   1.142 -0.2442 -1.0318  0.4888
  889TIP3   OH224225   3.388   4.487   1.331 -0.2182  0.5319  0.0008
  889TIP3    H124226   3.405   4.562   1.388 -1.2588  0.7150  0.0938
  889TIP3    H224227   3.359   4.418   1.391  0.1154  0.2576 -0.1531
  890TIP3   OH224228   0.238   3.369   2.196  0.0201  0.5181 -0.7589
  890TIP3    H124229   0.228   3.459   2.163  1.6861  0.3173 -1.9562
  890TIP3    H224230   0.287   3.380   2.278  0.0270  0.7314 -0.7893
  891TIP3   OH224231   6.739   2.439   1.791 -0.2448  0.5073 -0.1683
  891TIP3    H124232   6.774   2.515   1.840 -0.0658  0.3338 -0.0229
  891TIP3    H224233   6.811   2.376   1.791 -0.3975  0.3323 -0.2814
  892TIP3   OH224234   3.639   2.947   1.318 -0.5918  0.4785 -0.3802
  892TIP3    H124235   3.617   3.024   1.370  0.9643  0.9212 -0.3385
  892TIP3    H224236   3.566   2.939   1.256 -1.7137  0.8336  0.8553
  893TIP3   OH224237   3.492   5.553   1.520  0.2731  0.4458  0.2905
  893TIP3    H124238   3.448   5.626   1.476  1.2403  0.3557 -0.8822
  893TIP3    H224239   3.462   5.475   1.471  0.3955  0.2121  0.5878
  894TIP3   OH224240   6.751   3.174   1.212  0.0993  0.0363  0.6175
  894TIP3    H124241   6.667   3.144   1.179 -0.2744  0.5701  1.0692
  894TIP3    H224242   6.770   3.253   1.161  0.3213 -0.0761  0.5251
  895TIP3   OH224243   4.052   1.335   1.011 -0.4571 -0.2916 -0.2866
  895TIP3    H124244   4.114   1.264   0.993 -1.2287 -0.7632 -1.1302
  895TIP3    H224245   4.070   1.400   0.943  0.3294  0.4129  0.5523
  896TIP3   OH224246   2.056   6.541   0.814 -0.5101 -0.0924 -0.0735
  896TIP3    H124247   2.025   6.576   0.897 -0.6719 -0.1969 -0.0891
  896TIP3    H224248   2.001   6.583   0.748 -0.3058  0.0773 -0.1375
  897TIP3   OH224249   1.230   3.979   0.826  0.0838 -0.0427 -0.0853
  897TIP3    H124250   1.169   3.984   0.753  0.3243 -2.9989 -0.5975
  897TIP3    H224251   1.189   3.919   0.889  0.4910  1.3937  1.6486
  898TIP3   OH224252   4.456   6.461   1.655  0.1058  0.8090  0.0241
  898TIP3    H124253   4.454   6.525   1.726 -0.1913  1.1229 -0.2641
  898TIP3    H224254   4.372   6.416   1.660 -0.1871  1.2790 -0.5291
  899TIP3   OH224255   0.800   0.931   6.826 -0.1412  0.4393  0.3665
  899TIP3    H124256   0.858   0.874   6.777 -1.5664 -0.9639  0.2590
  899TIP3    H224257   0.786   1.007   6.769 -0.1147 -0.2033 -0.5058
  900TIP3   OH224258   6.511   3.029   1.705 -0.6885 -0.6298 -0.0849
  900TIP3    H124259   6.484   3.111   1.747 -2.2402  0.2379 -2.5342
  900TIP3    H224260   6.569   3.057   1.634  0.8043 -1.9284  0.5713
  901TIP3   OH224261   6.745   5.757   6.513  0.1034 -0.1863 -0.1353
  901TIP3    H124262   6.767   5.748   6.606  0.9341  0.5223 -0.2514
  901TIP3    H224263   6.673   5.820   6.511  1.1895  1.1186 -0.0603
  902TIP3   OH224264   0.889   0.818   7.114 -0.0594 -0.3664  0.2892
  902TIP3    H124265   0.862   0.838   7.025  1.1587  1.4062  0.2608
  902TIP3    H224266   0.983   0.797   7.107 -0.1262 -1.0189  1.0614
  903TIP3   OH224267   0.655   2.680   0.402  0.1703  0.0317 -0.3840
  903TIP3    H124268   0.575   2.659   0.451 -0.0846 -0.2802 -0.9121
  903TIP3    H224269   0.643   2.771   0.374  0.6474  0.4461  0.7407
  904TIP3   OH224270   0.758   3.565   8.635 -0.2813  0.4383 -0.3615
  904TIP3    H124271   0.708   3.513   8.571  0.7510  1.8115 -2.4015
  904TIP3    H224272   0.710   3.647   8.643  0.1867  0.7114 -0.2711
  905TIP3   OH224273   1.307   0.401   7.018 -0.0568  0.5513 -0.2744
  905TIP3    H124274   1.353   0.318   7.017  0.6022  0.8918  0.6267
  905TIP3    H224275   1.376   0.468   7.018 -0.4326  1.0666  2.2214
  906TIP3   OH224276   0.829   5.933   0.878 -0.2021 -0.1354 -0.2992
  906TIP3    H124277   0.765   5.880   0.926 -0.2478 -0.8414 -1.1102
  906TIP3    H224278   0.777   5.981   0.814 -0.0609  0.2661 -0.1151
  907TIP3   OH224279   6.408   6.161   2.398 -0.2803 -0.3423 -0.7109
  907TIP3    H124280   6.368   6.246   2.418 -0.2138 -0.4329 -0.1736
  907TIP3    H224281   6.390   6.147   2.305 -2.2662 -0.7962 -0.3040
  908TIP3   OH224282   3.664   4.539   7.000 -0.0606 -0.7169 -0.2248
  908TIP3    H124283   3.600   4.495   6.943  0.3622 -0.1758 -1.1422
  908TIP3    H224284   3.747   4.530   6.953 -0.2152  2.5986 -1.3978
  909TIP3   OH224285   3.744   5.441   0.153  0.3489  0.0548 -0.0800
  909TIP3    H124286   3.788   5.523   0.128  0.5665  0.0061  0.1333
  909TIP3    H224287   3.652   5.456   0.134  0.3269  0.5090  0.3665
  910TIP3   OH224288   2.517   3.050   2.805 -0.9041 -0.1700 -0.0786
  910TIP3    H124289   2.561   2.966   2.814 -2.1678 -0.9755 -1.0951
  910TIP3    H224290   2.507   3.062   2.710 -2.2812  0.2746  0.1020
  911TIP3   OH224291   3.832   0.208   7.025 -0.1873 -0.0377 -0.1919
  911TIP3    H124292   3.821   0.256   7.107  1.7263 -0.9096  0.6354
  911TIP3    H224293   3.812   0.117   7.047  0.8774 -0.3737 -0.5178
  912TIP3   OH224294   5.366   6.597   7.187 -0.1540  0.0790 -0.1522
  912TIP3    H124295   5.357   6.543   7.109 -1.1066 -0.3535  0.2405
  912TIP3    H224296   5.320   6.549   7.255 -1.8206  1.7826  0.0120
  913TIP3   OH224297   4.385   2.375   7.368  0.2011  0.5740 -0.3782
  913TIP3    H124298   4.418   2.315   7.435  0.2857  0.1671 -0.7825
  913TIP3    H224299   4.387   2.324   7.287 -2.1042  0.2703 -0.3099
  914TIP3   OH224300   2.589   5.694   1.963 -0.6775  0.2519 -0.4537
  914TIP3    H124301   2.553   5.782   1.952 -0.3883  0.3986 -0.2322
  914TIP3    H224302   2.673   5.708   2.006 -0.6632 -0.1395 -0.3533
  915TIP3   OH224303   2.676   3.536   0.448 -0.0519 -0.2602  0.1247
  915TIP3    H124304   2.771   3.548   0.449 -0.2896  2.0890  0.8797
  915TIP3    H224305   2.651   3.533   0.541 -0.4319 -4.7850  0.0959
  916TIP3   OH224306   2.029   1.033   1.136 -0.2538  0.4795 -0.4890
  916TIP3    H124307   2.120   1.037   1.106  0.0096  0.8241  0.3251
  916TIP3    H224308   2.035   1.042   1.231 -1.0367 -0.8771 -0.2829
  917TIP3   OH224309   3.013   1.393   8.387  0.7614  0.6336  0.5868
  917TIP3    H124310   3.049   1.434   8.465 -0.9130  1.8544  0.7672
  917TIP3    H224311   2.930   1.354   8.416 -0.1625  1.5918 -0.6546
  918TIP3   OH224312   6.128   4.385   8.284 -0.3752  0.5411  0.0880
  918TIP3    H124313   6.101   4.414   8.371  1.7625 -0.8057  1.2903
  918TIP3    H224314   6.223   4.394   8.284  0.1072 -3.0395 -0.6653
  919TIP3   OH224315   0.126   3.373   2.612 -0.5370  0.6771  0.2295
  919TIP3    H124316   0.056   3.425   2.652  0.0641  0.2743  1.8921
  919TIP3    H224317   0.084   3.291   2.587 -1.0832  1.2213 -0.6902
  920TIP3   OH224318   4.938   3.221   8.649 -0.3778 -0.0661 -0.2633
  920TIP3    H124319   4.992   3.277   8.594 -1.3526  1.3502  0.1645
  920TIP3    H224320   4.928   3.140   8.599  1.8177 -0.2523 -0.4991
  921TIP3   OH224321   2.462   2.375   8.557 -0.3222 -0.4831 -0.1204
  921TIP3    H124322   2.484   2.282   8.547 -2.3098 -1.0862  0.6859
  921TIP3    H224323   2.528   2.408   8.618  0.7910 -1.1759 -0.8903
  922TIP3   OH224324   4.209   5.189   0.937  0.3398 -0.3525  0.4818
  922TIP3    H124325   4.303   5.207   0.941  0.1916  0.6552 -0.1246
  922TIP3    H224326   4.169   5.265   0.979 -0.2893  0.4313 -1.4329
  923TIP3   OH224327   1.720   0.359   0.733  0.0559  0.3741  0.5862
  923TIP3    H124328   1.802   0.376   0.778  1.2683 -0.2093 -1.3080
  923TIP3    H224329   1.688   0.445   0.708  1.3846  0.4995 -0.8083
  924TIP3   OH224330   3.706   6.527   7.665 -0.1461 -0.2294  0.4566
  924TIP3    H124331   3.684   6.613   7.628 -0.4147 -0.2881  0.4825
  924TIP3    H224332   3.690   6.536   7.759 -1.9497 -0.8512  0.2545
  925TIP3   OH224333   0.296   0.279   7.751  0.2341 -0.3641  0.3130
  925TIP3    H124334   0.359   0.274   7.679 -1.7637  0.5144 -1.6174
  925TIP3    H224335   0.326   0.352   7.805  2.2685 -1.5930  0.9605
  926TIP3   OH224336   5.413   3.917   6.713  0.2781  0.7768  0.2436
  926TIP3    H124337   5.441   3.829   6.689  1.9698  1.5708 -0.9092
  926TIP3    H224338   5.340   3.903   6.773 -0.0235 -1.3901 -0.5102
  927TIP3   OH224339   5.332   4.698   0.789 -0.2213  0.3425 -0.4625
  927TIP3    H124340   5.391   4.765   0.823 -0.2483  0.5205 -0.7691
  927TIP3    H224341   5.247   4.742   0.783 -0.6312 -0.2006  0.9701
  928TIP3   OH224342   4.083   0.486   2.917  0.1353 -0.2162 -0.0330
  928TIP3    H124343   4.050   0.482   3.006  0.9781  0.0894  0.3025
  928TIP3    H224344   4.131   0.569   2.913 -0.9044  0.3675 -1.1301
  929TIP3   OH224345   3.258   1.962   0.155 -0.3233 -0.1396  1.0858
  929TIP3    H124346   3.351   1.976   0.133 -0.2635 -3.0286 -1.0317
  929TIP3    H224347   3.253   1.980   0.249  2.2369  0.6546  1.1504
  930TIP3   OH224348   3.891   2.991   8.496  0.0542 -0.4806 -0.0154
  930TIP3    H124349   3.808   2.989   8.448  0.2502  0.7925 -0.4598
  930TIP3    H224350   3.866   3.013   8.586 -0.2755 -2.4495  0.4095
  931TIP3   OH224351   1.152   0.082   6.966 -0.3400 -0.4784 -0.0530
  931TIP3    H124352   1.133   0.162   6.917  3.5104  1.2361  0.8299
  931TIP3    H224353   1.165   0.015   6.899  0.7660  0.8011 -1.1898
  932TIP3   OH224354   1.304   6.561   6.981  0.6391 -0.6192 -0.2482
  932TIP3    H124355   1.330   6.471   6.960 -0.0690 -1.0620  0.6433
  932TIP3    H224356   1.306   6.607   6.898 -0.7940 -1.9500 -1.0725
  933TIP3   OH224357   6.171   2.498   7.854  0.0944 -0.4717  0.4280
  933TIP3    H124358   6.175   2.547   7.771 -2.0812 -1.2173 -0.1851
  933TIP3    H224359   6.204   2.411   7.831  2.1159  0.0599  1.0656
  934TIP3   OH224360   0.708   4.299   7.972  0.0168 -0.1635 -0.3806
  934TIP3    H124361   0.779   4.267   7.916  0.6668 -0.0890  0.3912
  934TIP3    H224362   0.691   4.228   8.033 -0.1114  0.0805 -0.1306
  935TIP3   OH224363   4.286   2.594   1.888 -0.5951  0.5264 -0.2614
  935TIP3    H124364   4.303   2.687   1.904  2.6709 -0.1330  0.8022
  935TIP3    H224365   4.278   2.555   1.975  1.8042 -0.6987 -0.5145
  936TIP3   OH224366   1.403   5.869   8.029  0.2691 -0.3115  0.2362
  936TIP3    H124367   1.350   5.792   8.006 -0.1821 -0.1547  0.7300
  936TIP3    H224368   1.357   5.942   7.987 -2.0659  0.3719  3.6056
  937TIP3   OH224369   6.676   2.180   7.711 -0.3817 -0.2143 -0.4367
  937TIP3    H124370   6.616   2.254   7.719  1.2607  1.1824 -0.6152
  937TIP3    H224371   6.718   2.191   7.626  1.8884  0.2684  0.6579
  938TIP3   OH224372   2.449   5.697   8.225 -0.0074 -0.1301 -0.6658
  938TIP3    H124373   2.365   5.651   8.223 -0.6208  0.9156 -0.2066
  938TIP3    H224374   2.491   5.668   8.306  0.6530 -1.5956 -1.5005
  939TIP3   OH224375   3.471   2.861   2.579  0.0904 -0.4701 -0.3449
  939TIP3    H124376   3.380   2.836   2.589  0.0384 -1.1818 -2.2212
  939TIP3    H224377   3.469   2.954   2.556  0.0163  0.1216  1.8120
  940TIP3   OH224378   2.091   3.975   6.610  0.0365 -0.1312 -0.0550
  940TIP3    H124379   2.065   4.048   6.554 -0.3825  0.3147  0.6987
  940TIP3    H224380   2.011   3.948   6.654  0.6001  0.5224  1.4572
  941TIP3   OH224381   2.410   3.691   1.638 -0.0165  0.2730  0.4951
  941TIP3    H124382   2.421   3.631   1.712 -0.7222 -0.0079  0.3759
  941TIP3    H224383   2.363   3.640   1.572 -0.8438  1.0335  0.4869
  942TIP3   OH224384   4.451   2.106   1.365 -0.9924 -0.2557 -0.2481
  942TIP3    H124385   4.397   2.064   1.299 -0.9317 -2.0443  0.7873
  942TIP3    H224386   4.430   2.199   1.357 -0.7918 -0.3568 -2.9218
  943TIP3   OH224387   4.627   5.315   8.831 -0.5108  0.2437 -0.4044
  943TIP3    H124388   4.649   5.264   8.754  2.6381 -1.5551  1.4823
  943TIP3    H224389   4.605   5.402   8.797 -0.9454 -0.9032 -3.3512
  944TIP3   OH224390   1.179   1.814   0.896  0.4865  0.2166  0.1652
  944TIP3    H124391   1.089   1.840   0.917  0.3187  0.5454 -0.9152
  944TIP3    H224392   1.170   1.747   0.829  1.0391 -0.1110  0.4145
  945TIP3   OH224393   0.515   0.947   0.468  0.6651 -0.4815 -0.0019
  945TIP3    H124394   0.518   0.860   0.428  1.0920 -1.8164  2.6905
  945TIP3    H224395   0.599   0.987   0.446  0.2728 -0.4989 -1.6801
  946TIP3   OH224396   3.879   3.843   0.225  0.3023  0.1146  0.0923
  946TIP3    H124397   3.860   3.849   0.131  0.1345  2.3113  0.2127
  946TIP3    H224398   3.817   3.778   0.258 -1.0159  0.7652 -1.0040
  947TIP3   OH224399   0.967   5.203   1.478  0.3407 -0.3192  0.1096
  947TIP3    H124400   0.929   5.116   1.485 -1.8902  0.5320 -0.6014
  947TIP3    H224401   1.022   5.199   1.399 -1.3577 -0.5632 -1.1098
  948TIP3   OH224402   6.214   6.482   1.815  0.1847  0.2632  0.2918
  948TIP3    H124403   6.218   6.417   1.885 -0.9692 -0.4460 -0.2607
  948TIP3    H224404   6.296   6.471   1.767  0.0819 -0.6632  0.3198
  949TIP3   OH224405   5.747   3.572   0.520 -0.6583 -0.1484  0.6458
  949TIP3    H124406   5.813   3.514   0.481  0.9652  1.5373  0.7055
  949TIP3    H224407   5.698   3.517   0.580 -1.2545 -2.1461 -1.5388
  950TIP3   OH224408   5.187   3.002   8.107 -0.0665  0.4564  0.4439
  950TIP3    H124409   5.168   3.074   8.167  1.5442  0.1611  1.3663
  950TIP3    H224410   5.244   3.040   8.041 -1.0727  0.5485 -0.3997
  951TIP3   OH224411   1.428   0.061   1.851  0.1357 -0.2959  0.3965
  951TIP3    H124412   1.380  -0.021   1.860  0.4714 -0.6742 -0.9287
  951TIP3    H224413   1.398   0.097   1.767 -1.7035  2.1124  1.9682
  952TIP3   OH224414   1.901   6.501   6.759 -0.6571 -0.6192 -0.1922
  952TIP3    H124415   1.953   6.568   6.715  0.3088 -2.7754 -2.5939
  952TIP3    H224416   1.964   6.448   6.807 -1.5422  0.7778  2.7436
  953TIP3   OH224417   5.711   4.294   8.833  0.2669 -0.8200 -0.2871
  953TIP3    H124418   5.736   4.377   8.875  0.7149 -1.0194 -0.1571
  953TIP3    H224419   5.703   4.232   8.906 -2.9796 -0.2313 -0.0010
  954TIP3   OH224420   3.931   3.245   0.981 -0.0702  0.3800  0.2190
  954TIP3    H124421   3.953   3.152   0.971 -1.7199  0.1462 -1.7269
  954TIP3    H224422   3.948   3.283   0.895 -2.7545  1.1112 -0.0658
  955TIP3   OH224423   0.301   2.486   2.129 -0.2939  0.6894  0.7608
  955TIP3    H124424   0.348   2.403   2.123 -0.3849  0.7390 -1.6933
  955TIP3    H224425   0.295   2.504   2.223 -1.0475 -2.5033  1.4181
  956TIP3   OH224426   1.188   4.838   7.616  0.1700  0.0690  0.0885
  956TIP3    H124427   1.112   4.865   7.669  0.9149  4.6101 -0.6837
  956TIP3    H224428   1.152   4.829   7.528  0.1348 -0.2210  0.1322
  957TIP3   OH224429   1.293   1.226   2.378  0.0563 -0.0416  0.0878
  957TIP3    H124430   1.360   1.278   2.335 -1.0528  1.2444 -0.1671
  957TIP3    H224431   1.214   1.242   2.327 -0.7700 -0.3682  1.2143
  958TIP3   OH224432   5.029   6.469   0.444 -0.6548 -0.0625 -0.0365
  958TIP3    H124433   5.040   6.507   0.356  1.9946  1.7810  0.9921
  958TIP3    H224434   5.059   6.379   0.435 -1.4411 -0.2291 -1.2317
  959TIP3   OH224435   3.324   2.922   0.374 -0.1401  0.3039  0.1430
  959TIP3    H124436   3.371   2.953   0.451 -0.7226  2.5923 -0.3565
  959TIP3    H224437   3.393   2.903   0.310  0.4390 -2.7551  1.4775
  960TIP3   OH224438   2.161   2.577   8.711  0.2902 -0.5443  0.5708
  960TIP3    H124439   2.172   2.638   8.638 -1.0233 -0.5949  0.3004
  960TIP3    H224440   2.119   2.629   8.779  1.1057 -0.6143  1.1492
  961TIP3   OH224441   1.959   0.762   7.902  0.7455  0.0033 -0.3124
  961TIP3    H124442   2.006   0.840   7.873  0.9441 -1.1147 -3.4265
  961TIP3    H224443   2.027   0.705   7.939  1.0610  0.2409 -0.5215
  962TIP3   OH224444   0.467   0.058   7.299 -0.3315 -0.2849  0.2150
  962TIP3    H124445   0.480   0.038   7.392 -0.0867 -0.4430  0.1486
  962TIP3    H224446   0.529   0.129   7.281 -0.4035 -0.2303  0.1810
  963TIP3   OH224447   4.538   4.683   7.340 -0.3333 -0.3272  0.1542
  963TIP3    H124448   4.625   4.719   7.325 -0.4019 -0.1072  0.2621
  963TIP3    H224449   4.478   4.750   7.304 -0.4721 -0.1799  0.6461
  964TIP3   OH224450   3.659   6.608   1.495 -0.1654  0.1574 -0.2376
  964TIP3    H124451   3.685   6.519   1.472 -1.6445 -0.4034  0.1261
  964TIP3    H224452   3.606   6.597   1.574  0.5811  1.4931  0.4765
  965TIP3   OH224453   3.229   1.487   1.202 -0.1355 -0.1077  0.8231
  965TIP3    H124454   3.279   1.430   1.144  1.9189 -0.3329  2.6880
  965TIP3    H224455   3.153   1.514   1.150 -0.4676 -3.3680 -0.6078
  966TIP3   OH224456   1.866   3.976   8.738  0.3839  0.1610  0.4151
  966TIP3    H124457   1.820   3.979   8.654 -0.2095  0.4037  0.7434
  966TIP3    H224458   1.817   3.911   8.789  1.6917 -1.1808  0.0318
  967TIP3   OH224459   2.413   1.962   1.696  0.1960  0.0868  0.0366
  967TIP3    H124460   2.399   1.948   1.602 -0.8324  0.4712  0.1252
  967TIP3    H224461   2.331   2.000   1.727  0.6042  0.1519  1.0575
  968TIP3   OH224462   3.037   1.649   7.708 -0.3383 -0.4560  0.0327
  968TIP3    H124463   3.096   1.706   7.757  1.5392 -2.0442 -0.2260
  968TIP3    H224464   3.007   1.584   7.773  0.6949 -1.4724 -0.4707
  969TIP3   OH224465   4.693   0.408   1.729  0.1024 -0.3492  0.2913
  969TIP3    H124466   4.775   0.413   1.680 -1.0127 -0.0646 -1.6226
  969TIP3    H224467   4.703   0.473   1.799  1.0943  0.4608 -0.5757
  970TIP3   OH224468   3.795   3.918   8.886  0.0005 -0.7573  0.3627
  970TIP3    H124469   3.739   3.953   8.817 -0.4224  0.9433  1.5277
  970TIP3    H224470   3.799   3.987   8.952  0.8338 -2.1223  1.8077
  971TIP3   OH224471   1.747   5.289   2.428  0.2116  0.5444  0.5386
  971TIP3    H124472   1.785   5.235   2.498  0.2682  0.5238  0.4925
  971TIP3    H224473   1.675   5.336   2.470 -0.5516 -0.4055  0.3211
  972TIP3   OH224474   4.257   1.152   8.839 -0.4621  0.2116  0.6131
  972TIP3    H124475   4.283   1.060   8.847 -2.9108 -0.5128  1.3135
  972TIP3    H224476   4.252   1.183   8.929  1.3850  1.4158  0.3498
  973TIP3   OH224477   3.284   6.087   0.412  0.3403  0.1537  0.4621
  973TIP3    H124478   3.212   6.068   0.353 -0.5832  1.3529  1.1671
  973TIP3    H224479   3.299   6.005   0.460 -0.6252 -0.0767  0.3834
  974TIP3   OH224480   4.059   6.388   7.145 -0.3989  0.5881  0.4054
  974TIP3    H124481   4.134   6.447   7.153  0.4589 -0.7074  2.7555
  974TIP3    H224482   4.026   6.378   7.234 -2.0396 -0.5909 -0.2807
  975TIP3   OH224483   3.097   2.146   1.497 -0.5543  0.0097 -0.0233
  975TIP3    H124484   3.136   2.059   1.499 -1.0219 -0.2466 -1.2850
  975TIP3    H224485   3.166   2.203   1.463 -0.7275 -0.1362 -0.6204
  976TIP3   OH224486   0.724   3.987   7.545 -0.1875 -0.1919 -0.5155
  976TIP3    H124487   0.718   3.978   7.640  0.5187  0.7643 -0.3698
  976TIP3    H224488   0.692   3.903   7.511  0.8188 -1.0622  0.6050
  977TIP3   OH224489   1.855   5.805   0.147 -0.3971 -0.4746  0.4179
  977TIP3    H124490   1.910   5.867   0.098 -0.6093 -1.4490 -1.1441
  977TIP3    H224491   1.837   5.848   0.230 -1.6681  2.1777 -1.1041
  978TIP3   OH224492   1.666   3.831   8.011  0.2319  0.2805 -0.5633
  978TIP3    H124493   1.576   3.804   7.995 -0.0690  1.3520 -0.7737
  978TIP3    H224494   1.701   3.853   7.924  0.1194  1.5419 -0.3149
  979TIP3   OH224495   5.831   3.125   1.762  0.9420  0.3343 -0.0447
  979TIP3    H124496   5.738   3.124   1.740  0.5817 -0.9127  1.3391
  979TIP3    H224497   5.836   3.179   1.841  1.0710 -1.1118  0.9770
  980TIP3   OH224498   3.058   3.247   0.096 -0.5729  0.1757  0.2974
  980TIP3    H124499   3.101   3.180   0.148  1.2102  1.4059  0.5069
  980TIP3    H224500   3.101   3.242   0.010 -0.6572  0.8149  0.2134
  981TIP3   OH224501   3.722   4.963   2.114 -0.2227  0.1558  0.3227
  981TIP3    H124502   3.808   4.923   2.100 -0.8999 -0.7773 -1.5170
  981TIP3    H224503   3.665   4.890   2.138 -0.6775  0.6459  0.7734
  982TIP3   OH224504   0.001   1.907   7.198 -0.3261 -0.0886 -0.4759
  982TIP3    H124505  -0.002   1.937   7.289 -0.2522  0.4535 -0.6444
  982TIP3    H224506  -0.043   1.977   7.149  3.0499  1.6640 -1.3609
  983TIP3   OH224507   1.120   3.941   6.486 -0.2171  0.0796  0.8063
  983TIP3    H124508   1.043   3.909   6.438 -1.1176  0.2549  2.0945
  983TIP3    H224509   1.168   3.862   6.510 -0.7172 -0.1108  1.1802
  984TIP3   OH224510   1.761   3.909   1.616  0.2323  0.0925  0.4584
  984TIP3    H124511   1.723   3.837   1.667  0.7231 -0.8874 -0.5122
  984TIP3    H224512   1.721   3.900   1.529  2.3632 -0.7665 -0.4963
  985TIP3   OH224513   3.682   2.766   1.943  0.0962  0.0777 -0.3677
  985TIP3    H124514   3.674   2.676   1.910  0.7741 -0.2638  0.3667
  985TIP3    H224515   3.599   2.783   1.986  0.4604 -0.7044  0.6852
  986TIP3   OH224516   4.534   1.677   8.650  0.0264  0.1487 -0.1226
  986TIP3    H124517   4.498   1.750   8.702  0.0891 -0.4245  0.7380
  986TIP3    H224518   4.516   1.702   8.560  1.4226  1.9719  0.0578
  987TIP3   OH224519   6.640   6.275   8.835  0.4641 -0.0639  0.0217
  987TIP3    H124520   6.591   6.264   8.753 -0.1175 -0.4471  0.4087
  987TIP3    H224521   6.578   6.317   8.894  0.4570 -0.9319  0.6479
  988TIP3   OH224522   2.182   6.690   6.094 -0.3636  0.9324 -0.2830
  988TIP3    H124523   2.271   6.708   6.124 -0.5203  0.2349  0.6764
  988TIP3    H224524   2.171   6.595   6.106 -1.1294  0.9589 -0.6800
  989TIP3   OH224525   5.326   1.911   7.490 -0.3692  0.1646  0.1307
  989TIP3    H124526   5.248   1.904   7.435  0.5871 -0.5194 -1.2124
  989TIP3    H224527   5.296   1.890   7.578 -1.4461 -1.6038 -0.5948
  990TIP3   OH224528   4.406   1.025   7.103 -0.3743 -0.1338  0.3927
  990TIP3    H124529   4.322   1.026   7.057 -0.0610  0.2790 -0.1772
  990TIP3    H224530   4.387   1.067   7.187 -0.7097  0.0699  0.2204
  991TIP3   OH224531   0.268   3.172   8.866  0.1126  0.5108  0.3258
  991TIP3    H124532   0.315   3.128   8.796 -1.4535 -0.5362 -0.1188
  991TIP3    H224533   0.246   3.258   8.830 -1.1869 -0.2334 -0.7164
  992TIP3   OH224534   4.345   4.278   7.580  0.0303  0.1128 -0.4518
  992TIP3    H124535   4.325   4.205   7.640  0.7485  0.0212 -0.3183
  992TIP3    H224536   4.260   4.320   7.566 -0.1768  0.0690  0.5510
  993TIP3   OH224537   0.990   2.663   1.166  0.1259 -0.2679 -0.1132
  993TIP3    H124538   1.060   2.663   1.232  0.4233 -0.5763 -0.4245
  993TIP3    H224539   0.924   2.723   1.201  1.9347  2.6469 -1.2969
  994TIP3   OH224540   3.888   6.100   7.688 -0.0536 -0.4887 -0.2973
  994TIP3    H124541   3.900   6.129   7.779  1.0736 -3.4101  0.6210
  994TIP3    H224542   3.892   6.180   7.636 -1.4694  1.3919  2.2510
  995TIP3   OH224543   3.166   6.314   7.567 -0.9080 -0.2905 -0.7652
  995TIP3    H124544   3.095   6.250   7.573 -0.0979 -1.3204 -1.8799
  995TIP3    H224545   3.167   6.341   7.476 -1.6617  1.8606 -0.1913
  996TIP3   OH224546   6.536   4.555   2.324  0.1989 -0.2338  0.2924
  996TIP3    H124547   6.539   4.462   2.346  0.1240 -0.1810  0.5276
  996TIP3    H224548   6.612   4.568   2.267  1.4970 -0.0027  1.9890
  997TIP3   OH224549   6.109   5.741   8.159  0.3282 -0.4515  0.2666
  997TIP3    H124550   6.104   5.828   8.197 -2.6535 -0.8979  1.1369
  997TIP3    H224551   6.175   5.749   8.089  3.0353  1.3933  2.8061
  998TIP3   OH224552   0.434   5.891   7.902 -0.1965 -0.0713 -0.2847
  998TIP3    H124553   0.509   5.947   7.882 -0.6822  0.9216  0.5498
  998TIP3    H224554   0.374   5.903   7.828 -0.9232  1.6816  0.5253
  999TIP3   OH224555   3.233   1.751   8.088  0.5589 -0.1805  0.6221
  999TIP3    H124556   3.313   1.777   8.043  0.6921 -0.5936  0.6106
  999TIP3    H224557   3.261   1.678   8.145  0.2651 -0.0883  0.8852
 1000TIP3   OH224558   1.773   2.098   6.780 -0.3491  0.4708  0.3283
 1000TIP3    H124559   1.816   2.180   6.757 -0.1108  0.4771  0.7854
 1000TIP3    H224560   1.706   2.122   6.844 -0.6616  0.3849  0.0346
 1001TIP3   OH224561   3.360   5.511   7.504 -0.1352  0.1574 -0.6012
 1001TIP3    H124562   3.419   5.565   7.452  0.5305 -0.2254 -0.2465
 1001TIP3    H224563   3.297   5.476   7.440 -1.3583  2.3027 -0.6980
 1002TIP3   OH224564   3.545   2.328   7.573  0.1608  0.2648 -0.0870
 1002TIP3    H124565   3.603   2.267   7.527  0.5763  1.0752 -0.6623
 1002TIP3    H224566   3.482   2.271   7.617  1.2564 -0.6373  0.3971
 1003TIP3   OH224567   4.038   3.432   1.217 -0.3192  0.0669 -0.0177
 1003TIP3    H124568   4.087   3.438   1.134 -2.0663 -1.8428 -1.2986
 1003TIP3    H224569   4.104   3.444   1.285  1.8516 -1.7080 -1.6599
 1004TIP3   OH224570   2.986   5.361   7.788 -0.2113 -0.1258 -0.1970
 1004TIP3    H124571   2.969   5.337   7.697  1.4584 -4.0366  0.2971
 1004TIP3    H224572   3.073   5.402   7.786 -0.5089  0.5026 -0.4223
 1005TIP3   OH224573   3.028   4.691   0.179  0.1062  0.2555  0.2500
 1005TIP3    H124574   3.067   4.612   0.217  2.6278  1.0963 -0.3764
 1005TIP3    H224575   3.057   4.762   0.236  0.2360  1.0198 -0.7260
 1006TIP3   OH224576   1.643   4.367   8.335  0.0110 -0.3126 -0.3055
 1006TIP3    H124577   1.554   4.356   8.302 -0.0976  1.0166 -0.5000
 1006TIP3    H224578   1.644   4.455   8.373  0.9160 -0.7517  0.7475
 1007TIP3   OH224579   2.119   6.746   1.574  0.4925  0.2963 -0.3171
 1007TIP3    H124580   2.110   6.780   1.485 -0.4928  0.5620 -0.1308
 1007TIP3    H224581   2.097   6.653   1.566  1.1057  0.1634 -0.4696
 1008TIP3   OH224582   0.227   6.287   1.767 -0.5016  0.4009  0.1179
 1008TIP3    H124583   0.175   6.259   1.842  0.0668 -0.9516  0.0431
 1008TIP3    H224584   0.247   6.379   1.784 -1.6124  0.5188  0.8895
 1009TIP3   OH224585   0.236   1.696   0.294 -0.1604 -0.0206 -0.3955
 1009TIP3    H124586   0.301   1.637   0.255  0.0173  0.4408 -0.7981
 1009TIP3    H224587   0.268   1.784   0.274  1.5762  0.3926  3.2476
 1010TIP3   OH224588   0.061   6.532   1.233  0.1468  0.4559 -0.0285
 1010TIP3    H124589   0.065   6.602   1.168  0.8890 -0.7788 -1.3802
 1010TIP3    H224590   0.131   6.472   1.208 -1.1520 -1.3381  0.4142
 1011TIP3   OH224591   0.367   4.712   7.859 -0.4046  0.0237 -0.2233
 1011TIP3    H124592   0.416   4.740   7.781 -0.2064  2.3015  0.6388
 1011TIP3    H224593   0.422   4.647   7.901 -0.4882 -1.2092 -1.9323
 1012TIP3   OH224594   6.140   4.929   0.005  0.1807  0.5310  0.2937
 1012TIP3    H124595   6.152   5.004  -0.053  1.5726  0.6631  0.6888
 1012TIP3    H224596   6.229   4.894   0.017 -0.5202 -1.7107 -0.5412
 1013TIP3   OH224597   2.039   5.407   7.260  0.1716 -0.0604  0.7618
 1013TIP3    H124598   2.007   5.337   7.318 -0.9736 -0.5581 -0.4240
 1013TIP3    H224599   2.027   5.372   7.172  2.2689  0.5120  0.1865
 1014TIP3   OH224600   3.017   1.926   7.930  0.4872  0.1230 -0.2745
 1014TIP3    H124601   3.006   2.007   7.980 -0.1435 -0.7987  1.1417
 1014TIP3    H224602   2.970   1.942   7.848 -1.0510  0.6235  0.6589
 1015TIP3   OH224603   1.996   5.535   8.432  0.2262  0.3517  0.4386
 1015TIP3    H124604   1.940   5.607   8.458  0.2625  0.9380 -0.9957
 1015TIP3    H224605   1.940   5.458   8.438 -0.7800  0.9320 -0.9901
 1016TIP3   OH224606   1.209   5.211   1.631 -0.0314  0.1604  0.1612
 1016TIP3    H124607   1.174   5.189   1.717  0.0197 -2.2251 -0.3383
 1016TIP3    H224608   1.134   5.206   1.572  0.1853  0.3035 -0.1330
 1017TIP3   OH224609   5.925   2.091   6.533 -0.2176  0.5327 -0.5381
 1017TIP3    H124610   5.913   2.100   6.627  0.5215  1.7794 -0.5347
 1017TIP3    H224611   5.874   2.014   6.509  0.3363 -0.3647  1.0203
 1018TIP3   OH224612   5.597   2.318   1.628  0.2280  0.2558 -0.1270
 1018TIP3    H124613   5.647   2.237   1.635 -2.2128 -1.1745  2.7876
 1018TIP3    H224614   5.640   2.367   1.557  2.9205 -2.7205 -0.7465
 1019TIP3   OH224615   5.869   0.473   8.485 -0.0679  0.0235  0.2322
 1019TIP3    H124616   5.896   0.535   8.417  0.9863 -0.5675  0.1037
 1019TIP3    H224617   5.935   0.404   8.483  0.2206  0.1851  2.1379
 1020TIP3   OH224618   5.890   0.336   6.595  0.2664 -0.0816 -0.4283
 1020TIP3    H124619   5.822   0.369   6.653  1.3956  0.9585  0.3434
 1020TIP3    H224620   5.859   0.358   6.507 -0.3483  0.4702 -0.0846
 1021TIP3   OH224621   0.846   0.079   1.547 -0.0664  0.0711 -0.0102
 1021TIP3    H124622   0.757   0.080   1.514 -0.1004  1.0519  0.0715
 1021TIP3    H224623   0.846   0.014   1.617 -0.6303 -0.1783 -0.2472
 1022TIP3   OH224624   3.264   1.455   8.269 -0.4704  0.1078 -0.6152
 1022TIP3    H124625   3.310   1.495   8.343  0.0343 -1.2692 -0.1637
 1022TIP3    H224626   3.175   1.439   8.303 -0.5997  0.5800 -0.7162
 1023TIP3   OH224627   4.828   1.881   8.690  0.2247 -0.7964  0.1122
 1023TIP3    H124628   4.910   1.855   8.731  0.7688 -0.5172 -0.7816
 1023TIP3    H224629   4.774   1.914   8.762  1.2264 -0.1453  0.5811
 1024TIP3   OH224630   2.696   2.792   6.697 -0.0663 -0.7664  0.0901
 1024TIP3    H124631   2.636   2.867   6.688  0.3772 -0.3963  0.1575
 1024TIP3    H224632   2.670   2.733   6.626  0.3841  0.0224 -0.7540
 1025TIP3   OH224633   1.226   5.032   8.761  0.2358  0.5417  0.3428
 1025TIP3    H124634   1.177   4.954   8.733  1.0025  0.2936 -0.3710
 1025TIP3    H224635   1.160   5.089   8.800 -1.2655  1.5204 -3.2185
 1026TIP3   OH224636   3.146   0.770   8.385  0.3336  0.4120  0.0976
 1026TIP3    H124637   3.213   0.738   8.445  0.7347 -0.7592 -0.9260
 1026TIP3    H224638   3.187   0.843   8.338 -0.0913  1.5453  1.4321
 1027TIP3   OH224639   5.806   5.413   0.597  0.4369 -0.2417 -0.2189
 1027TIP3    H124640   5.842   5.340   0.546  0.4841 -0.6521  0.3928
 1027TIP3    H224641   5.848   5.491   0.560  2.5711 -0.7400  0.9255
 1028TIP3   OH224642   3.840   3.531   0.172  0.4404 -0.1228 -0.4802
 1028TIP3    H124643   3.910   3.473   0.143  0.9099  0.0565  0.2718
 1028TIP3    H224644   3.765   3.473   0.185  0.2341 -0.2144 -1.9570
 1029TIP3   OH224645   4.506   1.892   1.957 -0.4226  0.3827  0.1350
 1029TIP3    H124646   4.432   1.944   1.989 -0.1385  0.6513  0.3749
 1029TIP3    H224647   4.541   1.850   2.036 -0.1117  0.5328  0.0799
 1030TIP3   OH224648   5.074   5.563   0.355 -0.0891  0.3715  0.0199
 1030TIP3    H124649   5.010   5.507   0.399 -0.7656  0.3983 -0.9031
 1030TIP3    H224650   5.021   5.623   0.303  0.6421  1.5138  0.5537
 1031TIP3   OH224651   5.841   4.291   7.207  0.3589 -0.6709 -0.1688
 1031TIP3    H124652   5.841   4.201   7.174  0.0809 -1.1811  1.1726
 1031TIP3    H224653   5.771   4.293   7.272  0.2760  0.5583 -0.2740
 1032TIP3   OH224654   6.519   2.525   6.825 -0.6058  0.5299  0.2013
 1032TIP3    H124655   6.587   2.590   6.846  0.3632  0.1614 -1.6211
 1032TIP3    H224656   6.460   2.570   6.765  0.3122 -0.3401 -1.4258
 1033TIP3   OH224657   1.032   3.102   7.085  0.0128  0.2735  0.2931
 1033TIP3    H124658   1.082   3.084   7.005 -1.1712  1.3265 -0.7158
 1033TIP3    H224659   1.089   3.160   7.136  1.2621 -1.3074  0.7858
 1034TIP3   OH224660   3.868   0.411   8.615  0.7237 -0.1939 -0.1213
 1034TIP3    H124661   3.906   0.449   8.695 -2.3956  0.2347  1.3049
 1034TIP3    H224662   3.882   0.479   8.548  0.2375  1.0464  0.9871
 1035TIP3   OH224663   6.416   4.450   8.284  0.2204 -0.1737  0.2572
 1035TIP3    H124664   6.445   4.396   8.210  0.2004 -1.6651  1.2876
 1035TIP3    H224665   6.493   4.455   8.341 -0.3056 -0.6622  1.0323
 1036TIP3   OH224666   6.149   0.975   0.895  0.1098  0.6279  0.2894
 1036TIP3    H124667   6.131   0.950   0.985 -0.9731  1.1711  0.2318
 1036TIP3    H224668   6.233   1.021   0.899 -0.0098  0.7859  1.0416
 1037TIP3   OH224669   3.281   2.470   1.991  0.2302  0.3029  0.3748
 1037TIP3    H124670   3.308   2.532   2.058 -1.1074  2.2933 -0.8161
 1037TIP3    H224671   3.233   2.402   2.039 -0.6013  1.6122  1.4725
 1038TIP3   OH224672   0.517   1.943   8.272 -0.2001 -0.1673  0.1067
 1038TIP3    H124673   0.558   1.971   8.190 -1.4282  1.0894 -0.1185
 1038TIP3    H224674   0.518   2.022   8.327  1.8489 -1.2982  1.9032
 1039TIP3   OH224675   0.100   5.825   0.855 -0.4729  0.9638  0.3836
 1039TIP3    H124676   0.073   5.917   0.851 -0.6468  0.8763 -1.4097
 1039TIP3    H224677   0.044   5.781   0.791 -1.0558 -0.5919  1.9062
 1040TIP3   OH224678   4.204   0.292   0.306  0.1789 -0.2925 -0.0702
 1040TIP3    H124679   4.243   0.205   0.307 -0.6375 -0.6656 -0.5170
 1040TIP3    H224680   4.112   0.278   0.284 -0.1356  0.6186  0.6054
 1041TIP3   OH224681   3.947   2.409   8.432  0.1360 -0.2503 -0.5172
 1041TIP3    H124682   3.924   2.432   8.522 -0.8913 -1.9296 -0.3201
 1041TIP3    H224683   4.029   2.360   8.440  0.0213 -0.4377 -0.5001
 1042TIP3   OH224684   4.042   1.803   0.185  0.2466 -0.4953 -0.2597
 1042TIP3    H124685   4.091   1.790   0.266 -0.6235 -0.7437  0.2381
 1042TIP3    H224686   3.996   1.886   0.198  1.5384  0.4276 -1.2576
 1043TIP3   OH224687   0.679   3.613   8.087 -0.3071 -0.0772 -0.2927
 1043TIP3    H124688   0.685   3.671   8.012  2.0920  0.0786 -0.0797
 1043TIP3    H224689   0.667   3.526   8.050 -1.2136  0.2281 -0.7357
 1044TIP3   OH224690   3.680   2.657   7.069  0.2283  0.3961 -0.3079
 1044TIP3    H124691   3.684   2.572   7.025 -4.3061 -0.1223 -0.1236
 1044TIP3    H224692   3.621   2.710   7.015 -1.8842  1.2915  2.6703
 1045TIP3   OH224693   3.637   4.336   0.991 -0.1410 -0.0379 -0.1829
 1045TIP3    H124694   3.571   4.346   1.058 -1.3946  2.3248 -1.6456
 1045TIP3    H224695   3.628   4.245   0.961 -0.9148 -0.5022  1.3953
 1046TIP3   OH224696   3.977   3.035   0.033  0.2883 -0.1865  0.0806
 1046TIP3    H124697   4.012   2.991   0.110  1.6424  1.6975  0.5985
 1046TIP3    H224698   4.049   3.038  -0.029  0.5079  1.8856  0.3483
 1047TIP3   OH224699   0.172   5.344   8.607 -0.1663  0.0711  0.0527
 1047TIP3    H124700   0.191   5.433   8.636  0.4791  0.2754 -0.9383
 1047TIP3    H224701   0.116   5.355   8.530  1.8495 -0.2416 -1.5473
 1048TIP3   OH224702   2.388   2.432   7.063  0.3949  0.0059  0.2340
 1048TIP3    H124703   2.345   2.494   7.004 -3.3973 -0.4692  2.1832
 1048TIP3    H224704   2.421   2.362   7.006  0.0249  1.2067 -1.5298
 1049TIP3   OH224705   3.715   5.237   1.026  0.2945 -0.3428  0.2351
 1049TIP3    H124706   3.700   5.246   0.932 -0.3174 -0.5371  0.3132
 1049TIP3    H224707   3.803   5.272   1.039  0.8976 -1.4624 -0.6007
 1050TIP3   OH224708   6.259   0.285   7.882 -0.1695 -0.3034 -0.1030
 1050TIP3    H124709   6.245   0.204   7.833 -1.3321 -0.4776  0.4859
 1050TIP3    H224710   6.330   0.329   7.835 -1.0273 -0.6055 -1.7546
 1051TIP3   OH224711   0.205   1.167   0.989 -0.2076  0.1733  0.3422
 1051TIP3    H124712   0.256   1.185   1.068  2.3740 -0.7759 -1.0049
 1051TIP3    H224713   0.117   1.202   1.009  1.4931  4.2165  1.8873
 1052TIP3   OH224714   4.934   2.971   7.947  0.1291  0.1666  0.4733
 1052TIP3    H124715   5.013   2.972   8.000  3.2505  1.2242 -3.6632
 1052TIP3    H224716   4.919   2.879   7.927  1.9111  0.0403 -0.5632
 1053TIP3   OH224717   6.455   3.631   6.168 -0.9455 -0.1612  0.1285
 1053TIP3    H124718   6.524   3.660   6.227 -0.0655  0.8396 -1.3309
 1053TIP3    H224719   6.385   3.696   6.179 -0.2244  0.8247 -0.8916
 1054TIP3   OH224720   5.994   3.414   1.829  0.6889  0.1251 -0.9533
 1054TIP3    H124721   5.969   3.490   1.880 -2.6110 -1.4636  0.0538
 1054TIP3    H224722   6.029   3.352   1.893  0.6436 -0.2767 -1.3081
 1055TIP3   OH224723   2.250   2.937   8.269 -0.3640 -0.1931  0.3525
 1055TIP3    H124724   2.343   2.953   8.255 -0.4598  0.3143  0.3035
 1055TIP3    H224725   2.237   2.847   8.237 -0.1976  0.2594 -1.0432
 1056TIP3   OH224726   4.418   2.579   1.185 -0.7834 -0.3320 -0.3338
 1056TIP3    H124727   4.399   2.662   1.141  0.3975 -0.3804 -0.9927
 1056TIP3    H224728   4.353   2.518   1.150 -1.2694  0.1674 -0.3114
 1057TIP3   OH224729   6.681   2.074   0.697  0.2146 -0.3973 -0.2352
 1057TIP3    H124730   6.742   2.137   0.658 -0.1750  0.4280  0.4716
 1057TIP3    H224731   6.738   2.008   0.736  0.6383 -1.5266 -2.5600
 1058TIP3   OH224732   4.005   0.608   7.916 -0.4641  0.4467  0.0487
 1058TIP3    H124733   4.034   0.687   7.961  0.6478  0.4213 -0.5726
 1058TIP3    H224734   4.058   0.538   7.956 -1.1563  0.0735  0.3215
 1059TIP3   OH224735   0.087   6.050   8.273  1.0297  0.0378 -0.2593
 1059TIP3    H124736   0.139   5.969   8.277  1.4008  0.3225  1.9271
 1059TIP3    H224737   0.152   6.120   8.272  0.6985  0.3695 -1.8451
 1060TIP3   OH224738   6.438   5.078   8.701 -0.2936  0.2452  0.0134
 1060TIP3    H124739   6.371   5.018   8.671 -0.5810  0.6798 -0.2286
 1060TIP3    H224740   6.398   5.125   8.774 -0.7911  1.5388 -1.0548
 1061TIP3   OH224741   3.839   4.730   0.229  0.2189 -0.5758  0.0437
 1061TIP3    H124742   3.758   4.679   0.234  0.5278 -1.1913 -0.9912
 1061TIP3    H224743   3.810   4.820   0.218 -0.3277 -0.6064  1.0842
 1062TIP3   OH224744   1.519   5.096   7.993  1.1567  0.4854 -0.0325
 1062TIP3    H124745   1.448   5.160   7.987  2.3100  1.7031 -2.0377
 1062TIP3    H224746   1.597   5.148   8.013  1.9789 -0.3988 -0.8371
 1063TIP3   OH224747   3.032   2.595   7.311 -0.6506 -0.5823 -0.2129
 1063TIP3    H124748   3.085   2.525   7.273  1.5456 -0.0652  1.6611
 1063TIP3    H224749   3.070   2.675   7.274 -0.9977 -0.2443  0.1657
 1064TIP3   OH224750   3.475   3.447   8.476  0.0799 -0.4702 -0.1684
 1064TIP3    H124751   3.544   3.442   8.411  0.4442 -2.3661  0.2933
 1064TIP3    H224752   3.468   3.540   8.497  0.7774  0.0425 -1.9958
 1065TIP3   OH224753   3.666   0.981   8.423  0.0454 -0.4069 -0.1542
 1065TIP3    H124754   3.645   1.074   8.411 -2.2525 -0.9137 -0.6753
 1065TIP3    H224755   3.743   0.966   8.369  0.3058  1.1347 -0.2501
 1066TIP3   OH224756   0.517   3.191   2.477 -0.4761  0.3319 -0.3306
 1066TIP3    H124757   0.602   3.174   2.517 -0.2323  1.3557 -0.3867
 1066TIP3    H224758   0.521   3.149   2.392 -0.3646 -0.3983  0.0344
 1067TIP3   OH224759   0.547   0.361   7.932  0.1944 -0.3155  0.2897
 1067TIP3    H124760   0.490   0.424   7.977 -0.3157 -0.2952 -0.3590
 1067TIP3    H224761   0.540   0.281   7.983  0.3939 -0.0144  0.7964
 1068TIP3   OH224762   0.728   0.710   0.524 -0.0693  0.2872  0.0053
 1068TIP3    H124763   0.671   0.699   0.600 -1.0346  0.5161 -0.6659
 1068TIP3    H224764   0.759   0.622   0.504  0.6443  0.2936  0.9846
 1069TIP3   OH224765   1.207   0.951   8.039  0.3515 -0.8293 -0.1949
 1069TIP3    H124766   1.175   1.028   7.993  0.0372 -0.3169  0.8584
 1069TIP3    H224767   1.301   0.968   8.050  0.0547  0.0664  1.2310
 1070TIP3   OH224768   6.703   2.870   8.592 -0.1191 -0.0868 -0.0107
 1070TIP3    H124769   6.737   2.799   8.539  0.3220  0.3732 -0.3580
 1070TIP3    H224770   6.685   2.831   8.677  2.0564 -0.1769  0.4411
 1071TIP3   OH224771   1.731   2.277   7.170  0.1725 -0.6462  0.5435
 1071TIP3    H124772   1.699   2.232   7.092  4.1231 -1.7662 -0.6471
 1071TIP3    H224773   1.700   2.367   7.159 -2.4187 -1.5492 -0.3636
 1072TIP3   OH224774   0.598   5.461   8.618 -0.6781  0.4790 -0.1394
 1072TIP3    H124775   0.686   5.439   8.647 -0.6146 -0.4907 -1.0084
 1072TIP3    H224776   0.540   5.418   8.680 -0.6842  4.0772  2.7266
 1073TIP3   OH224777   2.411   4.454   7.812  0.0821 -0.7864 -0.0439
 1073TIP3    H124778   2.319   4.466   7.836 -0.2490  0.2830 -1.7201
 1073TIP3    H224779   2.453   4.426   7.894 -1.3891  0.4497  1.1974
 1074TIP3   OH224780   6.547   4.003   8.190 -0.3269 -0.4830  0.4378
 1074TIP3    H124781   6.479   3.978   8.254  1.3048 -3.0502  1.3278
 1074TIP3    H224782   6.524   3.954   8.111 -0.8755  0.6531 -0.1334
 1075TIP3   OH224783   2.378   0.127   8.299 -0.0131 -0.2117 -0.2623
 1075TIP3    H124784   2.389   0.191   8.368  1.9733  2.2765 -2.6481
 1075TIP3    H224785   2.293   0.086   8.316 -1.5964  3.3207  1.2120
 1076TIP3   OH224786   1.027   4.566   1.727  0.2462  0.1069 -0.3073
 1076TIP3    H124787   0.943   4.586   1.768 -0.5593  0.6665 -2.1400
 1076TIP3    H224788   1.067   4.651   1.709  0.5766 -0.1194 -0.6709
 1077TIP3   OH224789   1.368   0.363   0.715 -0.3123 -0.3642  0.3085
 1077TIP3    H124790   1.443   0.327   0.669 -1.2500 -1.6073 -0.3252
 1077TIP3    H224791   1.301   0.373   0.647 -0.6422  1.0157  0.7996
 1078TIP3   OH224792   1.074   2.140   0.428  0.6022 -0.6717 -0.3947
 1078TIP3    H124793   1.146   2.093   0.472 -0.5331 -2.9746 -0.8940
 1078TIP3    H224794   1.009   2.152   0.497  0.7662 -0.0199 -0.3423
 1079TIP3   OH224795   2.765   3.408   0.022  0.2566  0.4472 -0.5038
 1079TIP3    H124796   2.740   3.392   0.113 -1.0775  0.2788 -0.8806
 1079TIP3    H224797   2.751   3.502   0.009 -0.2716  0.3413 -0.7340
 1080TIP3   OH224798   1.751   5.917   8.577 -0.3333 -0.0099 -0.1364
 1080TIP3    H124799   1.672   5.886   8.622  0.4354 -1.2411  0.4330
 1080TIP3    H224800   1.814   5.934   8.647  0.4401 -0.6593 -0.6439
 1081TIP3   OH224801   5.483   3.656   1.792  0.5459  0.0554 -0.3324
 1081TIP3    H124802   5.508   3.747   1.773 -1.2985  0.7345  0.2902
 1081TIP3    H224803   5.405   3.641   1.739  0.7946 -1.1796 -0.3793
 1082TIP3   OH224804   1.852   6.119   1.645 -0.2528  0.8276 -0.2247
 1082TIP3    H124805   1.895   6.138   1.728  1.9539  0.5760 -1.2357
 1082TIP3    H224806   1.871   6.195   1.590 -1.0511  0.6652 -0.7474
 1083TIP3   OH224807   6.682   3.393   1.437  0.2565  0.0697 -0.1876
 1083TIP3    H124808   6.596   3.391   1.479  0.3704  0.2981  0.0618
 1083TIP3    H224809   6.686   3.312   1.385  0.3425 -0.5167  0.7034
 1084TIP3   OH224810   2.766   1.712   8.797 -0.6778 -0.2894 -0.3323
 1084TIP3    H124811   2.671   1.701   8.794 -0.6751 -0.5604  0.3910
 1084TIP3    H224812   2.783   1.751   8.883 -0.2320  0.8142 -0.9014
 1085TIP3   OH224813   6.093   0.913   1.463 -0.8705  0.2701  0.0303
 1085TIP3    H124814   6.036   0.896   1.537 -1.1827 -2.5920 -0.7527
 1085TIP3    H224815   6.074   0.842   1.401  1.7180  0.6503 -1.3486
 1086TIP3   OH224816   1.425   6.087   8.565 -0.5480  0.5172  0.1788
 1086TIP3    H124817   1.441   6.167   8.515  0.0296  1.0647  1.2162
 1086TIP3    H224818   1.491   6.088   8.635 -0.0083 -1.2631 -0.2448
 1087TIP3   OH224819   6.504   5.289   0.577  0.0167  0.0906  0.1931
 1087TIP3    H124820   6.555   5.215   0.613 -0.0681 -0.2421 -0.3645
 1087TIP3    H224821   6.459   5.252   0.502 -1.2361  0.3265  0.8029
 1088TIP3   OH224822   5.402   3.963   1.651  0.0575  0.0465 -0.2844
 1088TIP3    H124823   5.326   3.983   1.598  0.0173 -0.6307 -0.4996
 1088TIP3    H224824   5.371   3.970   1.741 -0.8331 -2.1293 -0.3482
 1089TIP3   OH224825   3.994   4.486   7.223 -0.0014  0.0899  0.2654
 1089TIP3    H124826   3.903   4.485   7.250  0.6378  0.9380  2.6905
 1089TIP3    H224827   3.991   4.501   7.128 -2.3524  0.3011  0.3306
 1090TIP3   OH224828   1.073   1.887   1.558 -0.1967  0.2387 -0.3619
 1090TIP3    H124829   1.019   1.930   1.492 -0.3776 -0.5638 -0.7388
 1090TIP3    H224830   1.057   1.794   1.547  1.3978 -0.0373 -0.6086
 1091TIP3   OH224831   6.033   3.054   8.485  0.4539 -0.5333 -0.4582
 1091TIP3    H124832   6.025   2.962   8.512 -3.1012 -0.0559  0.5613
 1091TIP3    H224833   6.003   3.104   8.561 -1.0678  1.2886 -2.1372
 1092TIP3   OH224834   2.809   1.739   8.542 -0.1617  0.0569  0.1858
 1092TIP3    H124835   2.888   1.792   8.543  0.1864 -0.4459  0.1795
 1092TIP3    H224836   2.783   1.733   8.634  0.6947 -1.0415  0.3806
 1093TIP3   OH224837   5.671   0.942   1.676  0.0172  0.2099 -0.0258
 1093TIP3    H124838   5.717   1.022   1.700 -0.4282  0.8450 -1.1564
 1093TIP3    H224839   5.637   0.907   1.758  1.3869  0.4229  0.6565
 1094TIP3   OH224840   4.643   4.112   1.444  0.2639 -0.4192  0.2273
 1094TIP3    H124841   4.581   4.111   1.517 -0.6698 -0.3576 -0.5475
 1094TIP3    H224842   4.729   4.110   1.486 -0.2113  1.2501  1.3907
 1095TIP3   OH224843   1.380   2.986   7.591 -0.4068  0.0297  0.5498
 1095TIP3    H124844   1.312   2.959   7.653 -2.2956  0.3426 -1.2706
 1095TIP3    H224845   1.383   2.915   7.527  0.2375  0.5175  0.0348
 1096TIP3   OH224846   6.492   6.285   8.621 -0.4673  0.4594 -0.3557
 1096TIP3    H124847   6.438   6.357   8.588  0.2697  1.2656  0.1477
 1096TIP3    H224848   6.566   6.280   8.561 -0.1728  0.5685 -0.0039
 1097TIP3   OH224849   6.665   3.984   2.336  0.0097 -0.3383 -0.3178
 1097TIP3    H124850   6.690   3.909   2.389 -0.8936 -0.8683 -0.6126
 1097TIP3    H224851   6.591   3.953   2.284 -1.3309  1.1624  0.6059
 1098TIP3   OH224852   1.641   1.643   0.845 -0.0896 -0.2511  0.1923
 1098TIP3    H124853   1.581   1.569   0.840 -0.5782  0.0174  1.5643
 1098TIP3    H224854   1.595   1.708   0.897  0.2400  1.1371 -1.1750
 1099TIP3   OH224855   2.001   3.920   2.014  0.0442  0.8523  0.0972
 1099TIP3    H124856   1.976   3.938   1.924 -4.0092  0.1449  0.8568
 1099TIP3    H224857   2.023   3.827   2.015  1.2657  1.1314 -0.3467
 1100TIP3   OH224858   1.113   4.813   1.686 -0.0473  0.1671 -0.4583
 1100TIP3    H124859   1.117   4.866   1.606 -0.7490  1.2370  0.1940
 1100TIP3    H224860   1.156   4.866   1.753 -0.5206 -0.1864  0.1421
 1101TIP3   OH224861   0.639   1.220   1.846  0.3435 -0.0019 -0.0510
 1101TIP3    H124862   0.696   1.147   1.870 -0.4433 -0.1531  1.4825
 1101TIP3    H224863   0.699   1.288   1.815  1.0974 -1.2490 -1.4834
 1102TIP3   OH224864   4.506   6.487   7.343 -0.4617  0.0856  0.1059
 1102TIP3    H124865   4.587   6.445   7.316 -0.7306 -0.4512  0.1296
 1102TIP3    H224866   4.526   6.526   7.428 -0.0405  0.5223 -0.1888
 1103TIP3   OH224867   4.364   0.213   7.843 -0.4919 -0.6757 -0.5798
 1103TIP3    H124868   4.402   0.131   7.811  0.8005 -0.4645  0.3055
 1103TIP3    H224869   4.365   0.272   7.767 -1.1537 -1.3764 -1.1431
 1104TIP3   OH224870   2.734   4.091   8.498  0.0531 -0.5511 -0.0632
 1104TIP3    H124871   2.823   4.062   8.482  0.3996  0.4988 -0.0810
 1104TIP3    H224872   2.742   4.183   8.521 -0.9064 -0.7697  1.2600
 1105TIP3   OH224873   1.394   3.940   2.184  0.5202 -0.3833 -0.6061
 1105TIP3    H124874   1.439   3.940   2.269  0.6395 -0.6023 -0.6691
 1105TIP3    H224875   1.424   4.020   2.141  1.9049 -1.1963 -1.2012
 1106TIP3   OH224876   1.821   1.201   7.441  0.5492  0.0490 -0.1367
 1106TIP3    H124877   1.773   1.270   7.395  0.3743  1.2933  1.7890
 1106TIP3    H224878   1.863   1.246   7.514  1.2775 -1.7333  0.5999
 1107TIP3   OH224879   2.160   5.048   2.697  0.0035 -0.4631  0.4137
 1107TIP3    H124880   2.179   5.089   2.613 -0.4211  0.6450  0.8385
 1107TIP3    H224881   2.245   5.044   2.741  0.1266 -0.4814  0.1756
 1108TIP3   OH224882   3.242   6.534   2.426 -0.8698  0.2657 -0.0066
 1108TIP3    H124883   3.322   6.508   2.471 -0.2358  2.2307  0.1183
 1108TIP3    H224884   3.191   6.454   2.418  0.7579 -0.8779  0.6280
 1109TIP3   OH224885   5.611   4.030   7.873 -0.1137  0.2115  0.2351
 1109TIP3    H124886   5.574   4.020   7.786 -0.2075  1.9995  0.0256
 1109TIP3    H224887   5.587   4.119   7.899  3.2913  1.1946  0.4559
 1110TIP3   OH224888   2.471   2.419   8.095  0.1849 -0.0816  0.0615
 1110TIP3    H124889   2.405   2.414   8.163  0.6417 -0.2342  0.5045
 1110TIP3    H224890   2.555   2.415   8.142  0.5125  0.5417 -0.4500
 1111TIP3   OH224891   2.208   0.431   1.049  0.4194 -0.5903 -0.7379
 1111TIP3    H124892   2.124   0.440   1.094  0.1787 -1.0359 -1.0859
 1111TIP3    H224893   2.200   0.486   0.971  1.2994  1.2118  0.3607
 1112TIP3   OH224894   1.546   1.805   1.293  0.4272 -0.0196  0.8948
 1112TIP3    H124895   1.467   1.792   1.345  0.9943  1.3486  2.1780
 1112TIP3    H224896   1.525   1.878   1.235 -0.9784 -2.8585 -2.5907
 1113TIP3   OH224897   6.566   6.725   1.672 -0.0632  0.2052 -0.1525
 1113TIP3    H124898   6.516   6.670   1.613  0.2010 -1.5061  1.1307
 1113TIP3    H224899   6.631   6.666   1.711  1.1319  1.7381  0.2837
 1114TIP3   OH224900   6.527   4.836   8.134  0.7082 -0.7135  0.1888
 1114TIP3    H124901   6.560   4.926   8.140 -1.3431  0.2207 -1.6177
 1114TIP3    H224902   6.534   4.814   8.041 -1.7788 -1.1859  0.0558
 1115TIP3   OH224903   4.807   3.219   7.800  0.2472  0.1644 -1.1763
 1115TIP3    H124904   4.878   3.204   7.862 -2.2039 -2.1089  1.3639
 1115TIP3    H224905   4.756   3.138   7.802 -2.8568  1.9326 -2.1724
 1116TIP3   OH224906   3.163   2.586   0.470 -0.0888  0.5611  0.2325
 1116TIP3    H124907   3.212   2.625   0.397 -0.4423 -1.6246 -1.2581
 1116TIP3    H224908   3.075   2.573   0.436 -0.0706 -1.1950  0.7511
 1117TIP3   OH224909   4.690   0.938   8.829 -0.3075  0.0597 -0.1393
 1117TIP3    H124910   4.729   1.020   8.798  0.2073 -0.4008 -0.7371
 1117TIP3    H224911   4.747   0.870   8.794 -0.1092 -0.5234  1.2506
 1118TIP3   OH224912   3.488   0.085   7.385  0.2177 -0.0836 -0.4853
 1118TIP3    H124913   3.576   0.067   7.418 -0.1881 -0.0662  0.6379
 1118TIP3    H224914   3.458   0.160   7.436  0.6660  1.9010 -2.9347
 1119TIP3   OH224915   1.746   3.387   1.301 -0.0020  0.5617 -0.4056
 1119TIP3    H124916   1.727   3.418   1.212 -1.2905 -0.8377 -0.6626
 1119TIP3    H224917   1.777   3.297   1.288 -1.1315 -0.0001  0.5884
 1120TIP3   OH224918   6.634   3.059   0.703 -0.7913  0.2002 -0.4289
 1120TIP3    H124919   6.603   3.143   0.736 -0.5357 -0.3693  1.3624
 1120TIP3    H224920   6.592   3.050   0.617 -0.5180  2.3019 -0.8297
 1121TIP3   OH224921   2.619   2.433   0.144 -0.3150  0.1580 -0.7218
 1121TIP3    H124922   2.532   2.471   0.130 -0.5248 -0.0468 -0.0281
 1121TIP3    H224923   2.614   2.393   0.231  0.8411  1.1443 -0.1788
 1122TIP3   OH224924   6.371   6.067   2.110  0.2044  0.1550 -0.2369
 1122TIP3    H124925   6.340   5.983   2.077 -1.7881 -0.6649  3.2509
 1122TIP3    H224926   6.457   6.047   2.147  0.1025 -0.1469 -0.1596
 1123TIP3   OH224927   5.597   2.871   8.848  0.2270  0.0210  0.0856
 1123TIP3    H124928   5.544   2.796   8.820 -0.7293  1.2507 -1.6162
 1123TIP3    H224929   5.650   2.892   8.771  0.1705  1.3235  0.3741
 1124TIP3   OH224930   1.949   4.668   2.496 -0.0521 -0.6070  0.3231
 1124TIP3    H124931   2.031   4.637   2.534  0.3873 -0.6361 -0.6188
 1124TIP3    H224932   1.884   4.601   2.520  0.4551 -1.1968  0.0703
 1125TIP3   OH224933   2.877   3.580   1.385 -0.2217  0.7214 -0.1339
 1125TIP3    H124934   2.808   3.588   1.319 -0.1252  0.3318 -0.2846
 1125TIP3    H224935   2.834   3.605   1.467 -0.4729  0.7299 -0.2657
 1126TIP3   OH224936   2.614   1.964   1.503  0.5548  0.3558 -0.0296
 1126TIP3    H124937   2.670   2.040   1.520  0.8817  0.4646 -1.4396
 1126TIP3    H224938   2.580   1.939   1.589  1.4803  1.2911  0.6342
 1127TIP3   OH224939   0.429   3.299   1.059  0.3985  0.6484  0.5612
 1127TIP3    H124940   0.498   3.249   1.101  0.4294  0.4889  0.3250
 1127TIP3    H224941   0.464   3.322   0.973 -0.2975 -0.4975 -0.0535
 1128TIP3   OH224942   5.123   5.806   0.683 -0.1184  0.0794  0.1260
 1128TIP3    H124943   5.179   5.812   0.606  0.4185  2.8517  0.6370
 1128TIP3    H224944   5.047   5.859   0.661 -0.1869  0.4927  1.3122
 1129TIP3   OH224945   4.094   6.089   7.116  0.5062 -0.3036  0.6447
 1129TIP3    H124946   4.099   6.184   7.130  0.0809  0.2787 -2.5385
 1129TIP3    H224947   4.178   6.066   7.075  0.9836 -1.5490  2.1831
 1130TIP3   OH224948   2.240   6.518   2.772  0.0762  0.0868  0.5219
 1130TIP3    H124949   2.312   6.581   2.778  0.7117 -0.7480  2.2963
 1130TIP3    H224950   2.161   6.571   2.783  0.5607  0.6655  1.3411
 1131TIP3   OH224951   3.510   6.483   2.406  0.2645 -0.1340 -0.3490
 1131TIP3    H124952   3.569   6.547   2.367  1.5440 -0.2031  1.3700
 1131TIP3    H224953   3.522   6.404   2.353 -1.3410  0.9544 -2.4927
 1132TIP3   OH224954   0.874   5.708   1.374 -0.1393  0.4512  0.0184
 1132TIP3    H124955   0.967   5.685   1.384 -0.4865 -0.6478  0.9905
 1132TIP3    H224956   0.858   5.701   1.280  0.7063  0.4261 -0.1322
 1133TIP3   OH224957   5.459   5.156   0.622  0.8303  0.0267  0.2792
 1133TIP3    H124958   5.449   5.231   0.564 -2.1862 -0.4290  0.0247
 1133TIP3    H224959   5.452   5.192   0.710  1.6236  0.2746  0.2481
 1134TIP3   OH224960   4.689   0.274   0.800  0.3135 -0.2563 -0.4594
 1134TIP3    H124961   4.623   0.208   0.782 -0.0831 -0.2195  0.7872
 1134TIP3    H224962   4.744   0.236   0.869  0.0580  0.7069  0.2974
 1135TIP3   OH224963   6.447   1.273   1.565 -0.1552  0.2781  0.3161
 1135TIP3    H124964   6.440   1.280   1.660 -0.1575 -0.7940  0.4167
 1135TIP3    H224965   6.391   1.198   1.543 -1.2308  1.3310 -0.6975
 1136TIP3   OH224966   4.099   4.352   8.419  0.0956  0.7767  0.4403
 1136TIP3    H124967   4.023   4.298   8.441  1.0384 -1.0340 -0.4895
 1136TIP3    H224968   4.122   4.396   8.501 -0.5586 -0.4744  1.3243
 1137TIP3   OH224969   4.196   2.327   8.747 -0.1296 -0.3710  0.3999
 1137TIP3    H124970   4.120   2.377   8.776 -0.3728 -0.3322 -0.2777
 1137TIP3    H224971   4.259   2.335   8.818 -0.8512 -0.6148  1.0924
 1138TIP3   OH224972   3.054   5.892   7.779  0.2990 -0.3557  0.1333
 1138TIP3    H124973   3.060   5.971   7.726 -1.8212 -0.2042  0.0174
 1138TIP3    H224974   3.098   5.824   7.727 -0.4161  0.1190 -1.1336
 1139TIP3   OH224975   4.115   6.710   8.023 -0.1374 -0.3988 -0.1030
 1139TIP3    H124976   4.105   6.780   7.959  0.3277 -0.5084 -0.3019
 1139TIP3    H224977   4.086   6.748   8.105  1.9804  0.6971  0.2006
 1140TIP3   OH224978   5.834   6.774   8.793  0.5864 -0.9793 -0.4812
 1140TIP3    H124979   5.885   6.697   8.819  2.1719  0.1524 -0.0239
 1140TIP3    H224980   5.784   6.797   8.871  0.0480 -1.5618 -0.6434
 1141TIP3   OH224981   0.513   6.291   6.843 -0.2246  0.8534  0.4264
 1141TIP3    H124982   0.555   6.283   6.929 -0.5531  4.3300  1.0518
 1141TIP3    H224983   0.553   6.222   6.790  3.6315  1.6241  1.9943
 1142TIP3   OH224984   5.736   0.159   7.801  0.1719 -0.3480  0.4573
 1142TIP3    H124985   5.752   0.216   7.876  0.8188 -0.6043  0.5231
 1142TIP3    H224986   5.799   0.189   7.735 -0.1610 -0.3441  0.1447
 1143TIP3   OH224987   0.688   3.825   8.682  0.0572  0.2275 -0.0116
 1143TIP3    H124988   0.606   3.834   8.634  1.7618 -0.2529 -3.2720
 1143TIP3    H224989   0.715   3.916   8.700 -0.4950  0.4325 -0.1969
 1144TIP3   OH224990   3.012   3.861   0.703  0.2558  0.9381 -0.2716
 1144TIP3    H124991   3.017   3.899   0.616 -0.6840  0.4507 -0.5587
 1144TIP3    H224992   2.918   3.842   0.715  0.7903 -2.6902 -0.7691
 1145TIP3   OH224993   6.102   4.469   7.722  0.5287 -0.1322 -0.2985
 1145TIP3    H124994   6.050   4.549   7.715 -0.1280 -0.4486  0.7027
 1145TIP3    H224995   6.058   4.407   7.664 -1.3104 -0.9283  1.8033
 1146TIP3   OH224996   1.560   5.447   2.554  0.0014 -0.1051  0.1492
 1146TIP3    H124997   1.573   5.540   2.572  1.1919 -0.3506  0.7263
 1146TIP3    H224998   1.468   5.431   2.573  0.2082  0.5860  1.9486
 1147TIP3   OH224999   0.989   2.428   0.582  0.1614 -0.2597  0.3675
 1147TIP3    H125000   0.919   2.378   0.540  0.5519 -0.7071  0.2476
 1147TIP3    H225001   0.949   2.464   0.661 -0.0881 -0.8650  0.5178
 1148TIP3   OH225002   6.171   1.047   0.026 -0.8580  0.0980  0.1221
 1148TIP3    H125003   6.158   0.976  -0.037  2.5893  0.8554 -1.7298
 1148TIP3    H225004   6.099   1.108   0.008  0.0239  0.3574 -3.4036
 1149TIP3   OH225005   3.287   3.791   0.733  0.2223 -0.0094 -0.3614
 1149TIP3    H125006   3.340   3.850   0.679  0.4708  0.1793  0.0898
 1149TIP3    H225007   3.197   3.817   0.714  0.3066  0.0761 -0.6599
 1150TIP3   OH225008   3.305   4.583   7.230 -0.2537 -0.3132 -0.7835
 1150TIP3    H125009   3.255   4.577   7.148 -1.9578  2.3605 -0.0813
 1150TIP3    H225010   3.251   4.537   7.295  1.4808 -3.1491 -1.1804
 1151TIP3   OH225011   1.338   6.308   1.808  0.1366 -0.5433  0.4215
 1151TIP3    H125012   1.429   6.299   1.778  0.2829  2.0636 -0.2307
 1151TIP3    H225013   1.342   6.293   1.902  1.0801 -1.3193  0.2733
 1152TIP3   OH225014   5.750   2.648   6.271 -0.1346  0.1272  0.5698
 1152TIP3    H125015   5.780   2.724   6.320 -0.3761  0.7067 -0.1644
 1152TIP3    H225016   5.670   2.677   6.227 -0.0973 -0.4695  0.0934
 1153TIP3   OH225017   2.400   0.639   7.346 -0.1215  0.1333 -0.2361
 1153TIP3    H125018   2.409   0.610   7.255  0.5917  1.6947 -0.6975
 1153TIP3    H225019   2.312   0.678   7.350 -0.9650 -1.6988  0.3104
 1154TIP3   OH225020   3.234   3.075   0.860  0.6564 -0.4499  0.0486
 1154TIP3    H125021   3.302   3.015   0.830  0.5878  0.0426 -1.1505
 1154TIP3    H225022   3.241   3.151   0.801  0.6572  0.6737  1.4301
 1155TIP3   OH225023   3.488   1.917   2.378  0.4031 -0.1651  0.4459
 1155TIP3    H125024   3.573   1.880   2.399  0.5291 -0.1334  0.0129
 1155TIP3    H225025   3.474   1.985   2.443  1.0799  0.3838  0.0332
 1156TIP3   OH225026   2.446   1.817   6.939 -0.0702 -0.0976  0.1795
 1156TIP3    H125027   2.445   1.883   6.869 -1.8950  0.3210  0.5654
 1156TIP3    H225028   2.507   1.854   7.005 -0.5773  0.9102  0.1071
 1157TIP3   OH225029   2.159   1.890   1.885  0.0799 -0.1426  0.2036
 1157TIP3    H125030   2.105   1.903   1.963 -1.0397 -1.2142 -0.3437
 1157TIP3    H225031   2.172   1.978   1.849 -1.8584  0.1251  0.0365
 1158TIP3   OH225032   0.650   0.236   2.113 -0.0604 -0.4507  0.4727
 1158TIP3    H125033   0.649   0.291   2.035 -1.9081  0.6115  1.1908
 1158TIP3    H225034   0.589   0.165   2.094 -0.7766 -0.0025  1.0569
 1159TIP3   OH225035   4.034   6.587   6.884  0.1682 -0.3255 -0.3917
 1159TIP3    H125036   4.101   6.556   6.823  2.6227  0.2418  1.8570
 1159TIP3    H225037   4.044   6.533   6.962 -2.2015 -0.3583 -0.0299
 1160TIP3   OH225038   0.946   6.208   1.526  0.1256  0.4687  0.3119
 1160TIP3    H125039   0.897   6.274   1.478  0.9911 -0.1019 -1.4325
 1160TIP3    H225040   1.033   6.246   1.537  0.3231  0.0447  0.2183
 1161TIP3   OH225041   1.737   6.626   1.392  0.1552  0.1626  0.4192
 1161TIP3    H125042   1.725   6.655   1.301  1.2696  2.5994  0.9746
 1161TIP3    H225043   1.713   6.702   1.445  2.0691 -0.2999  2.0687
 1162TIP3   OH225044   4.820   3.381   0.074 -0.0041 -0.2474  0.3351
 1162TIP3    H125045   4.822   3.385   0.169  0.2329  0.4110  0.3046
 1162TIP3    H225046   4.894   3.435   0.046 -1.2412  1.2122 -0.2597
 1163TIP3   OH225047   1.246   3.129   8.234 -0.1480  0.4365 -0.1708
 1163TIP3    H125048   1.271   3.221   8.244 -1.5007  1.0757 -2.0895
 1163TIP3    H225049   1.170   3.131   8.176 -0.4182 -1.8854  0.0171
 1164TIP3   OH225050   2.057   3.258   0.019 -0.1589 -0.2988  0.2894
 1164TIP3    H125051   2.124   3.221  -0.039 -0.1262 -0.0753  0.1858
 1164TIP3    H225052   2.009   3.320  -0.035  0.7745  0.9752  0.8467
 1165TIP3   OH225053   6.132   2.442   0.681 -0.2545  0.0182  0.2601
 1165TIP3    H125054   6.166   2.470   0.766 -0.5252 -1.4072  0.8613
 1165TIP3    H225055   6.091   2.357   0.698 -0.8237 -0.0272 -1.1871
 1166TIP3   OH225056   1.820   0.546   1.526 -0.4261  0.5155  0.3017
 1166TIP3    H125057   1.743   0.551   1.469  0.3383  0.4343 -0.7722
 1166TIP3    H225058   1.873   0.476   1.488  0.2679  0.6920  0.9196
 1167TIP3   OH225059   2.734   5.692   7.316  0.3066  0.0204 -0.1842
 1167TIP3    H125060   2.730   5.787   7.319 -0.8433 -0.0071 -0.2264
 1167TIP3    H225061   2.748   5.672   7.223  1.1139  0.1534 -0.0949
 1168TIP3   OH225062   1.160   2.215   6.832 -0.5926 -0.2895  0.1780
 1168TIP3    H125063   1.098   2.242   6.899 -0.0575 -0.4740  0.7583
 1168TIP3    H225064   1.241   2.196   6.880  0.0143  0.2735 -0.5946
 1169TIP3   OH225065   3.736   4.053   7.679 -0.7947  0.3862  0.1193
 1169TIP3    H125066   3.711   4.037   7.588  0.2022  1.2342 -0.3194
 1169TIP3    H225067   3.765   3.967   7.711  0.6358  0.4315 -0.9536
 1170TIP3   OH225068   6.279   2.652   6.402 -0.4326 -0.2923  0.3204
 1170TIP3    H125069   6.232   2.732   6.379  0.5618 -0.3062 -2.0478
 1170TIP3    H225070   6.257   2.590   6.333  0.8894 -1.1648  0.6411
 1171TIP3   OH225071   0.595   0.469   1.049 -0.5787  0.1768  0.5309
 1171TIP3    H125072   0.685   0.449   1.075  0.9043 -0.1554 -3.9262
 1171TIP3    H225073   0.577   0.554   1.088  2.2643  0.9273  0.4947
 1172TIP3   OH225074   5.271   3.332   1.808  0.6814  0.3011  0.4158
 1172TIP3    H125075   5.210   3.259   1.803 -0.7576  1.4669  0.0702
 1172TIP3    H225076   5.315   3.322   1.893  0.4081 -0.8734  0.4229
 1173TIP3   OH225077   4.759   1.822   8.430  0.5306 -0.6346  0.2242
 1173TIP3    H125078   4.805   1.818   8.514 -0.3653 -2.3729  0.6862
 1173TIP3    H225079   4.690   1.887   8.444  1.4723  0.3994  0.2220
 1174TIP3   OH225080   0.978   0.459   8.540 -0.0808 -0.2936 -0.0509
 1174TIP3    H125081   1.058   0.490   8.582  0.6780  0.3871 -1.8879
 1174TIP3    H225082   0.914   0.528   8.557 -0.2365 -0.7148  1.1960
 1175TIP3   OH225083   5.002   1.059   6.579 -0.0908 -0.7126  0.0143
 1175TIP3    H125084   4.920   1.028   6.618  0.7219  1.1603  3.7338
 1175TIP3    H225085   5.027   1.134   6.634  5.6077 -2.9538  1.1722
 1176TIP3   OH225086   3.459   6.167   1.265  0.0753  0.1463  0.0684
 1176TIP3    H125087   3.450   6.259   1.242  1.2210  0.4048  0.6279
 1176TIP3    H225088   3.393   6.123   1.211  1.5791  0.9154 -2.5883
 1177TIP3   OH225089   0.895   4.320   6.566 -0.0508  0.0256 -0.0401
 1177TIP3    H125090   0.951   4.398   6.567 -0.5556  0.4005 -0.2579
 1177TIP3    H225091   0.950   4.250   6.602  0.1610  0.6465  0.8700
 1178TIP3   OH225092   2.934   6.680   1.174 -0.2137  0.5640 -0.1604
 1178TIP3    H125093   2.935   6.589   1.146 -0.5937  0.0438  1.4095
 1178TIP3    H225094   2.853   6.690   1.224  2.1462  0.1886  4.3220
 1179TIP3   OH225095   5.749   3.791   7.815 -0.1402 -0.0277  0.1000
 1179TIP3    H125096   5.689   3.859   7.847 -0.1927 -0.6314  1.3781
 1179TIP3    H225097   5.777   3.745   7.895  2.2008  0.3525 -0.4387
 1180TIP3   OH225098   4.450   3.177   1.450  0.3718 -0.4553  0.0762
 1180TIP3    H125099   4.475   3.202   1.539  0.2738  1.2038 -0.3335
 1180TIP3    H225100   4.520   3.117   1.422  0.6166 -0.6824  1.1102
 1181TIP3   OH225101   6.518   6.127   0.943 -0.2255  0.2214 -0.1232
 1181TIP3    H125102   6.435   6.164   0.973  0.7730  1.0466  1.7213
 1181TIP3    H225103   6.530   6.049   0.996 -1.3796 -1.8682 -2.6880
 1182TIP3   OH225104   4.942   3.671   0.076  0.1904  0.4264  0.1322
 1182TIP3    H125105   4.854   3.707   0.085  0.5863  1.5394 -0.3080
 1182TIP3    H225106   4.999   3.747   0.075  1.0382 -0.2021 -1.0791
 1183TIP3   OH225107   3.993   6.483   8.846 -0.3982  0.2925 -0.1329
 1183TIP3    H125108   3.968   6.403   8.893  0.6986 -0.9651 -1.5432
 1183TIP3    H225109   3.911   6.525   8.824 -1.1125 -1.3207 -0.7314
 1184TIP3   OH225110   6.609   3.010   8.332  0.4277 -0.0241 -0.1007
 1184TIP3    H125111   6.664   3.086   8.348  3.0638 -1.2246 -2.5527
 1184TIP3    H225112   6.628   2.951   8.405  1.6055  0.0363 -0.3378
 1185TIP3   OH225113   5.551   0.761   6.474 -0.1141  0.4191 -0.3961
 1185TIP3    H125114   5.529   0.808   6.394  0.1088  1.7845  0.3250
 1185TIP3    H225115   5.621   0.701   6.448 -0.9149 -0.0883 -1.4890
 1186TIP3   OH225116   4.286   6.349   7.424  0.5687  0.3842  0.8208
 1186TIP3    H125117   4.279   6.412   7.495 -0.9246  2.0794 -0.7410
 1186TIP3    H225118   4.358   6.382   7.370  0.3245  0.2870  0.4322
 1187TIP3   OH225119   5.431   6.229   7.373 -0.0303  0.0595 -0.1973
 1187TIP3    H125120   5.357   6.265   7.323 -0.1005  1.0431  0.5794
 1187TIP3    H225121   5.393   6.159   7.426 -0.6514  1.2743  1.0147
 1188TIP3   OH225122   1.587   6.624   6.885 -0.2025 -0.3855 -0.1949
 1188TIP3    H125123   1.513   6.562   6.888  0.5015 -1.2563  2.5698
 1188TIP3    H225124   1.609   6.631   6.793 -3.1872 -0.7544 -1.0324
 1189TIP3   OH225125   4.903   4.612   1.596  0.1415 -0.3397  0.8341
 1189TIP3    H125126   4.958   4.562   1.536  0.2687  1.9069 -1.0464
 1189TIP3    H225127   4.963   4.639   1.666  0.7481 -0.4031  0.3495
 1190TIP3   OH225128   4.163   2.858   7.287  0.2278 -0.1008 -0.1350
 1190TIP3    H125129   4.117   2.852   7.203  0.3616 -1.0935 -0.1504
 1190TIP3    H225130   4.244   2.810   7.273  0.7082  0.5850  0.2734
 1191TIP3   OH225131   1.616   2.446   7.827  0.1071 -0.2682 -0.7272
 1191TIP3    H125132   1.567   2.527   7.840  0.3815  0.1988 -2.3758
 1191TIP3    H225133   1.572   2.382   7.883  0.2718  1.1339  1.0913
 1192TIP3   OH225134   6.371   2.762   0.378 -0.1652  0.0469  0.0301
 1192TIP3    H125135   6.342   2.672   0.392 -0.9839  0.1819 -0.6724
 1192TIP3    H225136   6.354   2.806   0.461 -2.8952  0.3279 -0.5937
 1193TIP3   OH225137   0.102   5.333   8.273  0.0166 -0.4860  0.8939
 1193TIP3    H125138   0.107   5.280   8.193 -0.0304 -0.6190  0.9783
 1193TIP3    H225139   0.022   5.385   8.262  0.2634 -0.1521  0.6409
 1194TIP3   OH225140   4.889   4.580   8.376 -0.7817 -0.2861 -0.1290
 1194TIP3    H125141   4.822   4.538   8.321 -0.0165  0.4833 -1.7323
 1194TIP3    H225142   4.888   4.531   8.458 -0.3122 -3.1153 -1.6942
 1195TIP3   OH225143   4.719   2.372   8.089  0.2249  0.6117  0.0414
 1195TIP3    H125144   4.629   2.346   8.071  0.0250  0.3839  1.2886
 1195TIP3    H225145   4.712   2.456   8.135  0.7597  1.6681 -1.7180
 1196TIP3   OH225146   0.412   4.964   1.248 -0.3992  0.8336  0.6482
 1196TIP3    H125147   0.367   5.046   1.226  0.3454  0.7227 -1.4875
 1196TIP3    H225148   0.392   4.905   1.175  0.2903 -0.4030  1.4232
 1197TIP3   OH225149   2.745   1.041   7.333  0.1016  0.6085  0.2536
 1197TIP3    H125150   2.766   0.956   7.372 -0.6431  0.3093  0.0194
 1197TIP3    H225151   2.821   1.061   7.278  0.0183 -0.2075 -0.1812
 1198TIP3   OH225152   1.831   5.171   2.219 -0.3751  0.1295  0.1862
 1198TIP3    H125153   1.905   5.125   2.260 -0.5937  0.0086  0.4490
 1198TIP3    H225154   1.801   5.232   2.286 -0.6412  0.0358  0.1531
 1199TIP3   OH225155   1.591   5.533   6.563  0.1281 -0.2225 -0.2378
 1199TIP3    H125156   1.523   5.572   6.510 -0.3168 -1.5645 -0.7066
 1199TIP3    H225157   1.551   5.453   6.598  1.3386 -0.8675 -0.2631
 1200TIP3   OH225158   3.082   5.391   0.742 -0.4669 -0.2615  0.8726
 1200TIP3    H125159   3.143   5.428   0.805  0.3848 -2.8834  1.7230
 1200TIP3    H225160   3.097   5.297   0.746 -3.7183 -0.9404  0.2069
 1201TIP3   OH225161   3.256   2.116   2.073 -0.2722  0.5412  0.1518
 1201TIP3    H125162   3.339   2.149   2.109 -0.0366 -0.7683  0.8733
 1201TIP3    H225163   3.283   2.062   1.999 -0.4289 -0.3283  0.7196
 1202TIP3   OH225164   2.099   4.583   7.934 -0.2125 -0.3296 -0.2119
 1202TIP3    H125165   2.086   4.650   8.001 -1.4763 -0.5350 -0.2233
 1202TIP3    H225166   2.125   4.505   7.984  0.4017 -0.0696 -0.1177
 1203TIP3   OH225167   1.915   0.621   1.964  0.3663  0.3959  0.0496
 1203TIP3    H125168   1.851   0.626   2.036 -0.3240 -0.1536 -0.5162
 1203TIP3    H225169   1.875   0.563   1.900  0.6162  1.5053 -1.1584
 1204TIP3   OH225170   3.774   5.005   1.496 -0.1586 -0.0779  0.4461
 1204TIP3    H125171   3.710   4.940   1.524 -2.7025  1.6822 -0.8691
 1204TIP3    H225172   3.792   4.983   1.404  0.7927 -0.2581  0.6610
 1205TIP3   OH225173   4.848   1.858   0.420 -0.5020  0.4961 -0.0090
 1205TIP3    H125174   4.790   1.806   0.363 -3.6305  1.7241  1.7956
 1205TIP3    H225175   4.885   1.924   0.362  0.4505 -1.3038 -1.5509
 1206TIP3   OH225176   2.784   2.206   1.452 -0.6073  0.8438 -0.0744
 1206TIP3    H125177   2.718   2.270   1.479 -2.2340 -0.6523 -0.3039
 1206TIP3    H225178   2.865   2.256   1.447 -2.0022  3.1516 -1.3610
 1207TIP3   OH225179   5.630   1.373   7.140 -0.0373 -0.0663 -0.3772
 1207TIP3    H125180   5.541   1.346   7.115 -0.7180  1.0642  0.7029
 1207TIP3    H225181   5.686   1.302   7.109 -1.3690 -1.0480 -0.6388
 1208TIP3   OH225182   0.345   1.175   0.490 -0.4781 -0.3720 -0.1408
 1208TIP3    H125183   0.380   1.090   0.464 -2.6097 -1.8440  1.3917
 1208TIP3    H225184   0.404   1.205   0.559  1.1392  0.1831 -1.6845
 1209TIP3   OH225185   1.273   6.257   6.855 -0.1758 -0.3186  1.1499
 1209TIP3    H125186   1.224   6.205   6.791 -1.4268  1.9002  0.1869
 1209TIP3    H225187   1.365   6.240   6.834 -0.5438  0.2588 -1.2213
 1210TIP3   OH225188   1.086   5.591   2.104 -0.2792 -0.0975  0.8143
 1210TIP3    H125189   1.034   5.671   2.092 -0.6389 -0.3380  0.7464
 1210TIP3    H225190   1.024   5.528   2.141  0.0010 -0.3490  0.8610
 1211TIP3   OH225191   4.089   0.751   0.336 -0.2135 -0.6251 -0.0093
 1211TIP3    H125192   3.996   0.728   0.331 -0.8596  1.7227 -0.2421
 1211TIP3    H225193   4.089   0.846   0.350  2.1682 -0.4683 -0.6289
 1212TIP3   OH225194   1.808   5.397   1.416  0.4956  0.1695 -0.1557
 1212TIP3    H125195   1.842   5.431   1.499  0.3691 -0.4460  0.1541
 1212TIP3    H225196   1.884   5.390   1.359  0.4474  1.4776 -0.4145
 1213TIP3   OH225197   2.607   0.129   7.043 -0.3112 -0.2273 -0.6607
 1213TIP3    H125198   2.655   0.211   7.037 -1.4744  0.4530 -0.9120
 1213TIP3    H225199   2.673   0.064   7.066  0.2160  1.2206  2.4088
 1214TIP3   OH225200   4.810   0.310   8.682 -0.4150  0.1989  0.2124
 1214TIP3    H125201   4.733   0.301   8.626  0.5000  2.7327 -1.6204
 1214TIP3    H225202   4.836   0.220   8.702 -2.7223 -0.7231 -0.6531
 1215TIP3   OH225203   5.658   3.367   7.433 -0.2754  0.1062  0.4408
 1215TIP3    H125204   5.569   3.402   7.434 -0.5597 -0.6024  1.2008
 1215TIP3    H225205   5.699   3.403   7.511  0.4210  1.1782 -0.3944
 1216TIP3   OH225206   6.329   2.905   0.604  0.3631  0.0157  0.1896
 1216TIP3    H125207   6.262   2.957   0.650 -1.1372 -2.8057  1.4395
 1216TIP3    H225208   6.390   2.879   0.673 -0.2422 -1.7719  0.1012
 1217TIP3   OH225209   1.241   4.891   6.826  0.2306  0.3570  0.6630
 1217TIP3    H125210   1.158   4.937   6.832  0.2174  0.2994  0.9422
 1217TIP3    H225211   1.240   4.849   6.740 -0.6519 -0.8313  1.2202
 1218TIP3   OH225212   6.391   1.685   0.379 -0.2142 -0.8626  0.1966
 1218TIP3    H125213   6.358   1.656   0.294  1.0843 -0.3138 -0.5173
 1218TIP3    H225214   6.412   1.777   0.367  1.9783 -1.2835  0.4716
 1219TIP3   OH225215   2.667   2.877   2.109 -0.4588  0.2197 -0.3750
 1219TIP3    H125216   2.606   2.877   2.036 -0.6075  2.1437 -0.3139
 1219TIP3    H225217   2.611   2.890   2.186 -0.2040 -0.7688 -0.0036
 1220TIP3   OH225218   6.647   1.600   7.587 -0.5486 -0.0838 -1.1374
 1220TIP3    H125219   6.727   1.652   7.588 -1.7537  1.8736 -0.1934
 1220TIP3    H225220   6.668   1.521   7.636 -0.0898  1.9538  2.2302
 1221TIP3   OH225221   6.431   0.094   8.057  0.2744  0.4933  0.2805
 1221TIP3    H125222   6.415   0.148   7.980  1.7554 -1.0023 -1.1589
 1221TIP3    H225223   6.520   0.061   8.045 -0.0130 -1.0001  1.8784
 1222TIP3   OH225224   4.527   3.358   7.725  0.0144 -0.9241  0.5788
 1222TIP3    H125225   4.574   3.277   7.741 -0.6005 -1.2506  0.7704
 1222TIP3    H225226   4.449   3.332   7.675  1.0537 -0.1413 -1.5980
 1223TIP3   OH225227   3.281   3.591   1.315  0.1183 -0.3838  0.1513
 1223TIP3    H125228   3.271   3.497   1.303  2.0717 -0.7544  0.9123
 1223TIP3    H225229   3.372   3.609   1.288 -0.6688  1.5821 -1.4918
 1224TIP3   OH225230   5.681   2.258   0.473 -0.1832  0.0997  0.9599
 1224TIP3    H125231   5.746   2.298   0.415 -1.8150  1.5931  0.0579
 1224TIP3    H225232   5.653   2.179   0.427 -1.5263  1.3167 -0.4261
 1225TIP3   OH225233   5.399   5.545   0.903 -0.4351  0.0394 -0.5969
 1225TIP3    H125234   5.469   5.526   0.841  1.8328  0.0963  1.8051
 1225TIP3    H225235   5.372   5.459   0.936 -0.9410  0.0823 -0.8731
 1226TIP3   OH225236   0.638   2.040   8.062  0.1549 -0.1270 -0.1675
 1226TIP3    H125237   0.719   2.087   8.082 -0.0366 -0.0026  0.3071
 1226TIP3    H225238   0.600   2.089   7.989 -0.9263  1.5184  1.4309
 1227TIP3   OH225239   2.798   1.319   0.989 -0.4510 -0.2224  0.5675
 1227TIP3    H125240   2.871   1.381   0.986 -0.2782 -0.3056  2.3337
 1227TIP3    H225241   2.825   1.252   1.051 -1.2946 -1.2538 -0.1423
 1228TIP3   OH225242   3.087   5.041   0.144  0.7192  0.3529 -0.3241
 1228TIP3    H125243   3.116   5.054   0.054  3.2224  0.3789  0.4111
 1228TIP3    H225244   3.165   5.007   0.190 -0.6191 -0.1413  1.7203
 1229TIP3   OH225245   0.454   2.457   8.904 -0.3783 -0.3437  0.5637
 1229TIP3    H125246   0.413   2.527   8.954 -1.1191 -2.1735  2.6705
 1229TIP3    H225247   0.528   2.428   8.957  1.7615  0.6875 -1.6430
 1230TIP3   OH225248   2.632   3.405   8.675  0.0205 -0.7485 -0.5109
 1230TIP3    H125249   2.559   3.467   8.670  1.6522  1.1900 -4.0701
 1230TIP3    H225250   2.688   3.441   8.744 -0.3962  0.1970 -0.6372
 1231TIP3   OH225251   0.600   5.336   6.709  0.5648 -0.4767  0.0487
 1231TIP3    H125252   0.618   5.387   6.630  0.8680  0.9363  0.9878
 1231TIP3    H225253   0.528   5.382   6.751 -0.2674 -1.7927  0.1100
 1232TIP3   OH225254   2.744   0.457   8.103  0.1809  0.2210 -0.3776
 1232TIP3    H125255   2.729   0.367   8.130  0.9679  0.0907 -0.3771
 1232TIP3    H225256   2.685   0.470   8.029  1.3521 -0.8644 -1.5472
 1233TIP3   OH225257   0.024   4.652   0.690 -0.3440  0.0941  0.2570
 1233TIP3    H125258  -0.045   4.643   0.625  0.2547 -1.2358 -0.2453
 1233TIP3    H225259  -0.007   4.602   0.766 -0.5720  0.7449  0.6010
 1234TIP3   OH225260   4.255   4.115   1.994 -0.1911 -0.1348 -1.0674
 1234TIP3    H125261   4.351   4.115   1.990 -0.1857  0.4082 -0.9694
 1234TIP3    H225262   4.234   4.045   2.056  0.1922  0.5140 -0.1772
 1235TIP3   OH225263   0.333   2.539   1.398 -1.0670  0.1734 -0.3052
 1235TIP3    H125264   0.285   2.550   1.480 -0.8547 -1.1194  0.0172
 1235TIP3    H225265   0.323   2.446   1.377 -0.5156  0.3358 -1.3739
 1236TIP3   OH225266   0.259   1.334   0.278  0.4931  0.0378 -0.0026
 1236TIP3    H125267   0.292   1.247   0.296 -0.1429 -0.4631 -1.1693
 1236TIP3    H225268   0.229   1.366   0.363  0.0436 -1.1783  0.3168
 1237TIP3   OH225269   1.497   2.931   8.683 -0.0722  0.2044 -0.2672
 1237TIP3    H125270   1.536   2.862   8.735  3.1074 -0.2344 -2.9344
 1237TIP3    H225271   1.424   2.888   8.637 -0.0936 -0.5349  0.4457
 1238TIP3   OH225272   3.733   4.145   1.284  0.4832  0.0565  0.7710
 1238TIP3    H125273   3.673   4.143   1.210  1.7320  0.0228 -0.2646
 1238TIP3    H225274   3.801   4.208   1.259  0.6859  0.4108  2.0933
 1239TIP3   OH225275   2.246   5.523   8.609  0.2202  0.6133  0.2587
 1239TIP3    H125276   2.167   5.515   8.556  0.5490 -0.0079 -0.1561
 1239TIP3    H225277   2.317   5.502   8.548  0.8135  2.4188  0.2759
 1240TIP3   OH225278   3.199   6.480   8.241  0.6206  0.3243  0.3812
 1240TIP3    H125279   3.137   6.470   8.314  0.7866  2.0454  0.8053
 1240TIP3    H225280   3.218   6.573   8.239  0.5946  0.3420 -1.9147
 1241TIP3   OH225281   0.276   6.556   0.699  0.2042 -0.2278 -0.1775
 1241TIP3    H125282   0.370   6.537   0.698  0.1452 -0.5119 -0.3527
 1241TIP3    H225283   0.242   6.503   0.771  0.2341  0.1500  0.1181
 1242TIP3   OH225284   1.531   3.169   8.020 -0.1953  0.0029  0.2401
 1242TIP3    H125285   1.482   3.087   8.019 -0.3014  0.0603 -1.0043
 1242TIP3    H225286   1.515   3.208   7.934  0.9713  0.6613  0.2985
 1243TIP3   OH225287   0.316   5.329   0.741 -0.0197 -0.6874  0.0152
 1243TIP3    H125288   0.272   5.380   0.673 -0.5361 -0.8402  0.2237
 1243TIP3    H225289   0.408   5.329   0.716  0.0059  0.4044  0.0502
 1244TIP3   OH225290   3.530   4.783   7.038  0.4876  0.1275 -0.1530
 1244TIP3    H125291   3.546   4.690   7.026 -1.4741 -0.2488 -0.2475
 1244TIP3    H225292   3.461   4.787   7.104  1.6549  1.6083  1.0490
 1245TIP3   OH225293   2.202   1.290   7.686 -0.0629  0.2396  0.1760
 1245TIP3    H125294   2.272   1.324   7.741 -1.1195  3.2587 -0.1142
 1245TIP3    H225295   2.226   1.317   7.597 -0.3650 -0.9620 -0.2925
 1246TIP3   OH225296   1.707   2.127   8.556 -0.0449 -0.1913  0.4732
 1246TIP3    H125297   1.687   2.220   8.549 -0.1053 -0.2379 -0.0070
 1246TIP3    H225298   1.630   2.089   8.598 -0.5960 -0.2234 -0.5132
 1247TIP3   OH225299   2.798   3.936   1.425  0.3628  0.1401  0.6269
 1247TIP3    H125300   2.712   3.970   1.448  0.3487 -0.6809  1.8786
 1247TIP3    H225301   2.785   3.892   1.341 -0.1105  1.2082  0.1292
 1248TIP3   OH225302   4.875   3.106   0.265  0.0892 -0.1646 -0.1041
 1248TIP3    H125303   4.876   3.200   0.278  0.8585 -0.3617  1.4172
 1248TIP3    H225304   4.956   3.088   0.217 -0.6946  0.0619 -1.5945
 1249TIP3   OH225305   5.674   2.237   6.965 -0.2735  0.2873 -0.0928
 1249TIP3    H125306   5.623   2.168   7.008 -0.3299 -0.3609 -1.1665
 1249TIP3    H225307   5.609   2.303   6.942 -0.1464  0.9924  1.4232
 1250TIP3   OH225308   4.358   1.335   7.088 -0.0361  0.3997  0.1463
 1250TIP3    H125309   4.436   1.351   7.140  0.3071  0.8572 -0.4925
 1250TIP3    H225310   4.390   1.282   7.014 -0.5093 -0.2246  0.3747
 1251TIP3   OH225311   3.738   0.646   7.952 -0.3525 -0.2170 -0.3314
 1251TIP3    H125312   3.833   0.630   7.958  0.0944  2.3059  0.3903
 1251TIP3    H225313   3.703   0.565   7.914  2.0483 -1.3007 -0.4554
 1252TIP3   OH225314   1.325   5.943   6.269 -0.5625  0.0200 -0.0616
 1252TIP3    H125315   1.417   5.958   6.293 -0.0843  0.2043 -1.8472
 1252TIP3    H225316   1.277   6.014   6.312  0.4938  1.4345 -1.1327
 1253TIP3   OH225317   2.575   2.694   1.461  0.1359  0.1132  0.1456
 1253TIP3    H125318   2.587   2.600   1.449 -1.3685 -0.2610  1.2623
 1253TIP3    H225319   2.524   2.722   1.385 -0.4101 -0.2175  0.3817
 1254TIP3   OH225320   5.317   4.508   7.808 -0.0008  0.1603 -0.1405
 1254TIP3    H125321   5.345   4.583   7.860 -0.1680  0.1119  0.0188
 1254TIP3    H225322   5.306   4.437   7.872 -0.7683  0.2555 -0.1670
 1255TIP3   OH225323   5.872   1.805   0.567  0.1260 -0.2023 -0.8825
 1255TIP3    H125324   5.778   1.816   0.553 -0.5890 -3.5845  0.3337
 1255TIP3    H225325   5.883   1.812   0.662  0.3316 -3.6459 -0.5434
 1256TIP3   OH225326   5.044   0.583   7.626 -0.2211 -0.3698  0.0675
 1256TIP3    H125327   5.070   0.667   7.588 -1.0292 -0.2520 -0.2382
 1256TIP3    H225328   4.992   0.541   7.558 -0.3603 -0.8371  0.4613
 1257TIP3   OH225329   1.911   2.555   0.626 -0.3410 -0.0488 -0.2134
 1257TIP3    H125330   1.832   2.513   0.661  0.3897  0.2843  1.9936
 1257TIP3    H225331   1.903   2.647   0.653  0.7437  0.0012 -0.0334
 1258TIP3   OH225332   3.759   4.525   6.685 -0.2273  0.1886 -0.1643
 1258TIP3    H125333   3.765   4.615   6.652  0.5831  0.0352 -0.4692
 1258TIP3    H225334   3.836   4.481   6.649  0.0910 -0.2912  1.0480
 1259TIP3   OH225335   6.628   2.207   8.428  0.4240 -0.3509  0.0479
 1259TIP3    H125336   6.691   2.261   8.380 -2.2570  1.4103 -1.7211
 1259TIP3    H225337   6.582   2.157   8.361 -1.0084 -0.5343  1.1165
 1260TIP3   OH225338   6.525   6.131   7.185  0.3186 -0.5354 -0.4020
 1260TIP3    H125339   6.619   6.132   7.202  0.3469 -1.1073 -0.5071
 1260TIP3    H225340   6.504   6.221   7.162  1.1670 -0.7373 -2.1475
 1261TIP3   OH225341   6.362   5.966   0.127 -0.0790  0.1876  0.0333
 1261TIP3    H125342   6.321   6.044   0.089 -0.5322  0.5624  1.2336
 1261TIP3    H225343   6.394   5.996   0.213  1.8019 -0.3615 -0.4332
 1262TIP3   OH225344   1.216   1.931   0.562 -0.5689 -0.1482  0.1326
 1262TIP3    H125345   1.205   1.842   0.596 -0.4471 -1.1342 -2.2022
 1262TIP3    H225346   1.310   1.944   0.558 -0.5500  0.9908  2.4604
 1263TIP3   OH225347   3.221   4.024   7.946  0.3344  0.3698 -0.1499
 1263TIP3    H125348   3.305   3.978   7.945  0.4720  0.6198  0.1715
 1263TIP3    H225349   3.220   4.074   7.864  0.7366  0.8040  0.1099
 1264TIP3   OH225350   5.787   4.964   1.569 -0.1425  0.0854  0.2564
 1264TIP3    H125351   5.875   4.983   1.535 -0.2479 -0.6614 -0.4667
 1264TIP3    H225352   5.802   4.908   1.645  0.1025  1.8690  1.5719
 1265TIP3   OH225353   0.053   1.835   6.667  0.0151 -0.0356 -0.3703
 1265TIP3    H125354  -0.007   1.907   6.647 -0.4138 -0.8187 -2.0404
 1265TIP3    H225355   0.023   1.802   6.752 -1.2122  0.3251 -0.6488
 1266TIP3   OH225356   5.512   5.735   7.344  0.3576  0.1206 -0.1181
 1266TIP3    H125357   5.529   5.643   7.322  1.4535  0.4719 -0.8691
 1266TIP3    H225358   5.550   5.746   7.431  2.2563  0.3792 -0.9347
 1267TIP3   OH225359   0.647   4.288   6.450  0.3503 -0.1795  0.4248
 1267TIP3    H125360   0.738   4.311   6.468  0.1566  2.0680 -1.0265
 1267TIP3    H225361   0.609   4.369   6.415 -1.0971 -2.1523 -3.0723
 1268TIP3   OH225362   0.568   6.063   6.677 -0.5177  0.0130  0.1179
 1268TIP3    H125363   0.602   6.137   6.626  2.4079 -0.9122  0.5428
 1268TIP3    H225364   0.514   6.014   6.615  0.1517  0.7697 -1.1055
 1269TIP3   OH225365   4.509   3.059   0.664 -0.1626 -0.4351 -0.4344
 1269TIP3    H125366   4.526   2.967   0.642  1.1880 -0.3564  0.1728
 1269TIP3    H225367   4.570   3.108   0.610 -1.4138  0.1816 -1.3277
 1270TIP3   OH225368   4.523   4.975   0.309  0.2416  0.4937 -0.5211
 1270TIP3    H125369   4.484   5.051   0.265  1.2903  0.7662 -0.9962
 1270TIP3    H225370   4.549   4.917   0.238  0.6964  0.3072 -0.2034
 1271TIP3   OH225371   3.551   5.315   7.390 -0.5033  0.6424  0.2776
 1271TIP3    H125372   3.619   5.302   7.324  0.7035 -0.7586  1.7131
 1271TIP3    H225373   3.537   5.409   7.393  0.9836  0.9043 -0.4483
 1272TIP3   OH225374   0.715   3.721   7.465 -0.7688 -0.0309 -0.3663
 1272TIP3    H125375   0.719   3.658   7.537 -1.2369  0.8460  0.4456
 1272TIP3    H225376   0.804   3.756   7.460 -0.4449 -0.8821 -0.9694
 1273TIP3   OH225377   0.951   6.300   0.092  0.7301  0.2506  1.1798
 1273TIP3    H125378   0.965   6.382   0.045  0.9742 -0.6361 -0.3622
 1273TIP3    H225379   0.857   6.297   0.109  0.7529  0.9460  1.4525
 1274TIP3   OH225380   0.863   0.249   0.218  0.0806 -0.4766 -0.0936
 1274TIP3    H125381   0.850   0.260   0.124 -0.3055 -0.7456 -0.0707
 1274TIP3    H225382   0.955   0.223   0.226  0.5962  1.1379 -0.2679
 1275TIP3   OH225383   3.615   1.858   1.335  0.2785 -0.1173  0.1791
 1275TIP3    H125384   3.531   1.835   1.296  0.0938  0.1192  0.4390
 1275TIP3    H225385   3.620   1.953   1.330  2.0507 -0.2191 -3.0019
 1276TIP3   OH225386   1.440   6.720   0.280  0.2496  0.0048  0.2089
 1276TIP3    H125387   1.358   6.760   0.311 -1.4949 -2.1550 -1.3346
 1276TIP3    H225388   1.438   6.730   0.185 -0.1013 -3.2000 -0.2336
 1277TIP3   OH225389   3.916   0.741   1.147 -0.6345  0.4018 -0.3013
 1277TIP3    H125390   3.961   0.805   1.091 -0.7783  0.1722 -0.6748
 1277TIP3    H225391   3.831   0.781   1.165 -0.0514  1.1691  0.9853
 1278TIP3   OH225392   1.336   2.712   1.219 -0.2746 -0.3296 -0.0585
 1278TIP3    H125393   1.307   2.735   1.307 -0.4046  0.0470 -0.1965
 1278TIP3    H225394   1.364   2.621   1.226 -0.2334 -0.2860  0.3830
 1279TIP3   OH225395   1.581   1.572   0.206 -0.3132  0.0715 -0.1379
 1279TIP3    H125396   1.553   1.662   0.222 -0.4350  0.1650 -0.8431
 1279TIP3    H225397   1.554   1.554   0.116 -0.1842 -0.6313 -0.0414
 1280TIP3   OH225398   3.361   6.256   1.504  0.3385  0.9522  0.3652
 1280TIP3    H125399   3.348   6.340   1.461  0.5026 -0.3156 -2.4105
 1280TIP3    H225400   3.429   6.213   1.452 -2.5883 -2.5109 -1.0443
 1281TIP3   OH225401   1.165   5.077   1.257 -0.1936  0.0459 -0.1934
 1281TIP3    H125402   1.253   5.104   1.283  0.2951  0.6262 -2.3051
 1281TIP3    H225403   1.161   5.094   1.163 -2.5203 -0.1058 -0.1818
 1282TIP3   OH225404   6.501   2.940   7.386  0.0375 -0.1398 -0.4078
 1282TIP3    H125405   6.500   2.990   7.467 -0.9319 -1.2721  0.3132
 1282TIP3    H225406   6.459   2.997   7.322 -0.2431  0.3066  0.1658
 1283TIP3   OH225407   3.321   5.217   8.421  0.7065  0.3122 -0.8318
 1283TIP3    H125408   3.246   5.245   8.474  1.4881  1.3442 -0.2294
 1283TIP3    H225409   3.352   5.137   8.463  1.5098  1.2848  0.5073
 1284TIP3   OH225410   5.190   4.677   1.246  0.2136  0.0334  0.7490
 1284TIP3    H125411   5.169   4.629   1.326 -1.4964  0.2187  0.4389
 1284TIP3    H225412   5.189   4.611   1.177  0.7844  0.0313  0.7365
 1285TIP3   OH225413   5.062   3.306   7.118  0.2615  0.0817  0.6141
 1285TIP3    H125414   5.086   3.399   7.117  0.5434  0.0324  1.7937
 1285TIP3    H225415   5.025   3.292   7.205 -0.2348 -0.8068  0.2702
 1286TIP3   OH225416   5.966   6.582   7.580  0.1979 -0.1439  0.2338
 1286TIP3    H125417   5.937   6.493   7.599  2.9401 -1.3082 -0.4814
 1286TIP3    H225418   6.060   6.581   7.595  0.7536  1.9122 -2.2387
 1287TIP3   OH225419   3.065   5.282   7.165  0.1157  0.8405 -0.0111
 1287TIP3    H125420   2.994   5.240   7.117  0.0123  1.3351 -0.3046
 1287TIP3    H225421   3.078   5.227   7.242  0.6335 -0.2703 -0.8495
 1288TIP3   OH225422   4.692   3.339   8.686 -0.4068 -0.6596 -0.0783
 1288TIP3    H125423   4.782   3.309   8.673 -0.3807 -0.3630 -0.6482
 1288TIP3    H225424   4.637   3.268   8.652 -0.4583 -1.7056  2.0674
 1289TIP3   OH225425   2.226   6.058   8.004 -0.1826 -0.4359  0.6436
 1289TIP3    H125426   2.262   6.135   8.048  1.1313 -0.8330  0.3078
 1289TIP3    H225427   2.293   5.991   8.015 -2.1062 -2.1645  2.5979
 1290TIP3   OH225428   3.882   2.489   8.686 -0.2302 -0.0901 -0.1678
 1290TIP3    H125429   3.867   2.443   8.769  1.0644  1.3248  0.9098
 1290TIP3    H225430   3.795   2.511   8.655 -0.7548 -0.9856  0.6151
 1291TIP3   OH225431   3.605   0.579   6.618  0.0090  0.0592 -0.0430
 1291TIP3    H125432   3.519   0.619   6.608 -0.2421 -0.3060  0.5760
 1291TIP3    H225433   3.587   0.485   6.627  0.4442  0.0121  0.3978
 1292TIP3   OH225434   6.123   0.611   8.627  0.7158 -0.2450  0.2914
 1292TIP3    H125435   6.076   0.649   8.554 -0.5370 -3.3527 -0.6753
 1292TIP3    H225436   6.055   0.586   8.690  1.3058 -1.7899  0.3761
 1293TIP3   OH225437   5.072   3.444   8.516  0.3683 -0.2186 -0.5279
 1293TIP3    H125438   5.102   3.470   8.603  0.3040 -0.9286 -0.2870
 1293TIP3    H225439   5.061   3.527   8.469  0.4902  0.1678  0.1067
 1294TIP3   OH225440   5.387   6.343   0.409  0.0494 -0.5045  0.0756
 1294TIP3    H125441   5.386   6.248   0.418  2.9563 -0.5964  0.4837
 1294TIP3    H225442   5.359   6.375   0.495  0.8821 -1.0642  0.5755
 1295TIP3   OH225443   5.176   6.250   7.962  0.3815  0.3908 -0.3570
 1295TIP3    H125444   5.195   6.336   8.000  0.0115  0.9186 -1.3306
 1295TIP3    H225445   5.169   6.266   7.868 -0.4268 -0.5811 -0.4853
 1296TIP3   OH225446   4.187   5.536   1.823 -0.4273  0.4549  0.4216
 1296TIP3    H125447   4.246   5.484   1.769  0.6987  0.6714  1.4240
 1296TIP3    H225448   4.145   5.472   1.881  0.3347  0.5539  1.0854
 1297TIP3   OH225449   0.691   2.153   6.398  0.1757 -0.2512  0.0639
 1297TIP3    H125450   0.600   2.123   6.388  0.1379  0.3891 -1.8315
 1297TIP3    H225451   0.683   2.248   6.411  0.5811 -0.2040 -0.0412
 1298TIP3   OH225452   4.422   2.698   8.153  0.4072  0.2417  0.0409
 1298TIP3    H125453   4.334   2.706   8.116  0.8535 -0.8915 -1.3163
 1298TIP3    H225454   4.450   2.789   8.165 -0.0063  0.6565 -1.8228
 1299TIP3   OH225455   1.411   2.743   7.362 -0.3233 -0.0117  0.3926
 1299TIP3    H125456   1.357   2.667   7.385 -0.4025 -0.0448  0.1022
 1299TIP3    H225457   1.372   2.776   7.281 -0.9915  1.0137  1.1053
 1300TIP3   OH225458   1.286   3.635   8.813 -0.2450  0.1509  0.3196
 1300TIP3    H125459   1.378   3.655   8.827 -0.3318 -0.3673  1.8227
 1300TIP3    H225460   1.262   3.685   8.735  1.1699  0.6697  0.1864
 1301TIP3   OH225461   4.677   5.013   2.016 -0.2460 -0.1958 -0.0519
 1301TIP3    H125462   4.651   4.929   2.055  0.5890 -0.2140  0.4733
 1301TIP3    H225463   4.743   4.990   1.951 -0.4394  0.0029 -0.3206
 1302TIP3   OH225464   0.242   5.321   1.431  0.3310 -0.1812  0.1515
 1302TIP3    H125465   0.251   5.266   1.508  0.5944  0.8170  0.8576
 1302TIP3    H225466   0.189   5.395   1.461 -0.0799 -0.0746 -0.7938
 1303TIP3   OH225467   3.372   0.869   6.810 -0.6371 -0.0531  0.2405
 1303TIP3    H125468   3.463   0.860   6.838 -1.7670 -2.6985  3.8427
 1303TIP3    H225469   3.366   0.815   6.731  0.8016 -0.3097  0.2793
 1304TIP3   OH225470   0.503   1.057   6.939  0.2169  0.5858  0.0183
 1304TIP3    H125471   0.431   1.119   6.952 -1.0403 -1.2665  2.7207
 1304TIP3    H225472   0.562   1.102   6.878 -2.2681  2.9625 -0.8472
 1305TIP3   OH225473   1.578   0.112   7.875 -0.0077 -0.1087  0.0115
 1305TIP3    H125474   1.583   0.048   7.804 -0.6483 -1.0277  0.7611
 1305TIP3    H225475   1.564   0.196   7.832 -1.4710 -0.7961 -0.9095
 1306TIP3   OH225476   3.307   2.918   1.472  0.9574  0.0057 -0.4366
 1306TIP3    H125477   3.256   2.974   1.414 -1.0155  0.0868  1.2937
 1306TIP3    H225478   3.376   2.976   1.507  0.0772  0.8736 -0.0970
 1307TIP3   OH225479   6.123   2.863   1.228  0.3001  0.0374  0.3005
 1307TIP3    H125480   6.129   2.770   1.207  0.9371  0.5746 -2.1771
 1307TIP3    H225481   6.039   2.873   1.272  0.7412 -1.8615  1.7120
 1308TIP3   OH225482   3.674   3.505   7.482  0.1208  0.3869  0.1561
 1308TIP3    H125483   3.639   3.420   7.453 -3.0315  1.3919  0.6065
 1308TIP3    H225484   3.762   3.508   7.445 -0.8190 -1.7050 -2.6552
 1309TIP3   OH225485   0.056   4.471   1.533  0.5118 -0.5598  0.0255
 1309TIP3    H125486   0.151   4.482   1.528  0.7276 -1.9208  0.6909
 1309TIP3    H225487   0.023   4.500   1.448  1.4666  0.3624 -0.0441
 1310TIP3   OH225488   6.357   0.107   7.645  0.1935 -0.2423  0.3628
 1310TIP3    H125489   6.326   0.023   7.611 -2.5198  0.2197  1.4475
 1310TIP3    H225490   6.352   0.166   7.570 -0.7983 -0.3980  0.2888
 1311TIP3   OH225491   6.294   5.532   0.988 -0.3180 -0.8185  0.0593
 1311TIP3    H125492   6.289   5.437   1.002  0.4039 -0.8611  0.0771
 1311TIP3    H225493   6.320   5.567   1.073 -0.9465 -0.5622  0.1491
 1312TIP3   OH225494   0.913   3.108   7.761 -0.4791 -0.4516 -0.2429
 1312TIP3    H125495   0.895   3.015   7.777  0.8058 -0.3881  1.9377
 1312TIP3    H225496   0.941   3.112   7.670  1.5600 -2.5845  0.2153
 1313TIP3   OH225497   2.291   1.170   6.648 -0.1352 -0.3265  0.4927
 1313TIP3    H125498   2.270   1.106   6.716  2.2673  1.1287  2.7443
 1313TIP3    H225499   2.240   1.248   6.671 -1.5141 -0.6685 -1.1181
 1314TIP3   OH225500   1.066   0.817   1.340  0.9794  0.0084  0.0899
 1314TIP3    H125501   1.018   0.802   1.259  0.2565 -3.1301  0.9279
 1314TIP3    H225502   1.069   0.912   1.350  1.2088  0.5322 -3.5994
 1315TIP3   OH225503   5.788   5.712   1.109  0.2261  0.8022  0.0064
 1315TIP3    H125504   5.762   5.783   1.168 -2.4713  0.3878 -0.5338
 1315TIP3    H225505   5.784   5.751   1.022  0.3599  0.4261 -0.1695
 1316TIP3   OH225506   5.963   5.252   7.768 -0.0056 -0.0909  0.6735
 1316TIP3    H125507   5.974   5.180   7.706 -2.8111  0.3197 -0.4287
 1316TIP3    H225508   6.040   5.307   7.754  1.2495 -1.8634  0.2088
 1317TIP3   OH225509   6.086   5.188   1.332  0.2404  0.7384 -0.3016
 1317TIP3    H125510   6.142   5.256   1.367  2.2487 -0.8095 -0.3408
 1317TIP3    H225511   6.088   5.118   1.397  1.2333 -0.7655 -1.8485
 1318TIP3   OH225512   4.138   2.616   0.559  0.3347 -0.6112  0.1385
 1318TIP3    H125513   4.106   2.705   0.542 -0.4208 -1.1365 -1.3410
 1318TIP3    H225514   4.231   2.627   0.579  0.5057  0.4326 -1.1072
 1319TIP3   OH225515   1.313   6.568   7.248  0.2290 -0.7007 -0.3829
 1319TIP3    H125516   1.292   6.557   7.155 -0.0788 -0.6095 -0.3232
 1319TIP3    H225517   1.385   6.631   7.249 -1.2027  1.0301 -0.4401
 1320TIP3   OH225518   3.345   5.914   8.500 -0.0324 -0.1860 -0.2762
 1320TIP3    H125519   3.302   5.980   8.555 -0.8486 -0.7267 -0.2558
 1320TIP3    H225520   3.281   5.843   8.493  1.7647 -2.1735  1.8689
 1321TIP3   OH225521   2.573   6.409   6.786 -0.2231 -0.3316  0.3071
 1321TIP3    H125522   2.597   6.342   6.722  2.6662 -0.8012  1.7221
 1321TIP3    H225523   2.510   6.366   6.843 -0.1305 -1.0709 -0.1389
 1322TIP3   OH225524   5.341   5.240   7.677 -0.0518 -0.6632  0.0258
 1322TIP3    H125525   5.352   5.189   7.757  1.1388  0.2550  0.4874
 1322TIP3    H225526   5.296   5.181   7.616  2.3394 -2.7291  0.1032
 1323TIP3   OH225527   6.398   4.685   0.869  0.3051  0.1913 -0.2791
 1323TIP3    H125528   6.432   4.597   0.854 -0.1037  0.4566 -3.3018
 1323TIP3    H225529   6.462   4.726   0.927  1.0715 -1.7180  0.3018
 1324TIP3   OH225530   0.997   1.104   7.359 -0.4873  0.2247 -0.1723
 1324TIP3    H125531   1.049   1.025   7.373 -1.7893 -0.4481  1.0354
 1324TIP3    H225532   0.909   1.072   7.339 -1.5961  1.3177  2.5618
 1325TIP3   OH225533   5.021   4.835   2.296 -0.9641 -0.7238 -0.2719
 1325TIP3    H125534   5.094   4.802   2.243  0.0559 -0.4595  0.9486
 1325TIP3    H225535   5.061   4.889   2.363 -2.5086  2.4510 -1.6954
 1326TIP3   OH225536   2.248   4.660   7.677 -0.2646  0.0878 -0.9887
 1326TIP3    H125537   2.157   4.637   7.695 -0.6961  1.0863 -1.8020
 1326TIP3    H225538   2.276   4.712   7.752 -0.7417  0.7420 -1.2507
 1327TIP3   OH225539   1.430   1.443   2.222 -0.0003  0.3214  0.0443
 1327TIP3    H125540   1.399   1.530   2.195 -2.1146 -0.2171  0.5051
 1327TIP3    H225541   1.525   1.450   2.223 -0.1094  2.5379 -0.2493
 1328TIP3   OH225542   1.234   3.807   7.690 -0.1969 -0.3258 -0.4448
 1328TIP3    H125543   1.157   3.853   7.659  0.7852  1.2074 -0.7100
 1328TIP3    H225544   1.304   3.872   7.688  0.7511 -1.2081  1.3877
 1329TIP3   OH225545   1.731   0.495   7.768  0.5444  0.0537 -0.3382
 1329TIP3    H125546   1.717   0.414   7.718  4.0377 -0.4434 -0.7825
 1329TIP3    H225547   1.674   0.487   7.844 -0.3813 -2.0634 -1.1755
 1330TIP3   OH225548   2.180   2.011   0.130  0.5544  0.2922  0.1082
 1330TIP3    H125549   2.104   2.058   0.095  0.3167 -0.4756 -0.4082
 1330TIP3    H225550   2.247   2.020   0.062  0.3186 -0.6039 -0.2502
 1331TIP3   OH225551   1.800   1.036   7.707  0.0959 -0.0066 -0.0268
 1331TIP3    H125552   1.777   1.003   7.794  0.9326  0.7641  0.5036
 1331TIP3    H225553   1.861   1.108   7.724  1.0920 -0.5216 -1.2984
 1332TIP3   OH225554   3.823   5.123   7.849  0.3315  0.1786  0.1505
 1332TIP3    H125555   3.808   5.032   7.823  1.8035 -0.3819  1.1297
 1332TIP3    H225556   3.823   5.121   7.945  0.0866  1.2799  0.1890
 1333TIP3   OH225557   1.038   4.296   0.521 -0.4814 -0.3342  0.4769
 1333TIP3    H125558   1.066   4.245   0.597  0.6225 -0.1066  0.2365
 1333TIP3    H225559   1.071   4.247   0.446 -1.5764 -0.5640  0.1285
 1334TIP3   OH225560   3.304   2.431   0.687 -0.0866  0.0823 -0.2239
 1334TIP3    H125561   3.348   2.389   0.613  1.8860  1.9298 -0.2079
 1334TIP3    H225562   3.233   2.482   0.647  1.3813  1.6166 -1.0153
 1335TIP3   OH225563   1.753   0.793   0.719 -0.3711 -0.0852  0.0370
 1335TIP3    H125564   1.685   0.860   0.714 -1.1990 -0.8627  0.5986
 1335TIP3    H225565   1.821   0.832   0.773 -1.5075 -0.2291  1.6304
 1336TIP3   OH225566   5.167   6.169   1.112  0.2539 -0.3812  0.5463
 1336TIP3    H125567   5.115   6.143   1.036  1.0417  0.3900 -0.2753
 1336TIP3    H225568   5.121   6.244   1.149  1.3573  1.0338 -0.8640
 1337TIP3   OH225569   4.807   1.155   1.444  0.3557 -0.0398  0.4481
 1337TIP3    H125570   4.814   1.197   1.530  0.6680 -2.7641  1.8495
 1337TIP3    H225571   4.719   1.177   1.414  0.2321  0.9462  1.4562
 1338TIP3   OH225572   2.442   3.250   6.517 -0.8713  0.1514  0.1051
 1338TIP3    H125573   2.398   3.192   6.455 -1.7057  0.2076  0.6361
 1338TIP3    H225574   2.372   3.287   6.570 -0.2649  0.9383  0.3831
 1339TIP3   OH225575   1.705   0.582   0.132  0.0907  0.6006  0.3308
 1339TIP3    H125576   1.798   0.585   0.109  0.2686  1.0839  1.1019
 1339TIP3    H225577   1.703   0.589   0.227 -0.7747  1.3146  0.2679
 1340TIP3   OH225578   6.390   2.293   8.639 -0.5291  0.1773  1.1807
 1340TIP3    H125579   6.317   2.294   8.701 -0.3038 -0.6443  1.4745
 1340TIP3    H225580   6.355   2.336   8.561 -0.4199  2.4198  2.2930
 1341TIP3   OH225581   3.866   2.780   8.230  0.3893  0.0480  0.0439
 1341TIP3    H125582   3.788   2.822   8.193  1.7486  1.7133 -1.1261
 1341TIP3    H225583   3.838   2.691   8.251 -2.0130  0.8247  0.4070
 1342TIP3   OH225584   5.653   0.620   8.325  0.5270 -0.9227  0.7398
 1342TIP3    H125585   5.591   0.550   8.303 -1.7039  0.2995  2.7002
 1342TIP3    H225586   5.673   0.606   8.417 -1.6170  2.0369  1.8112
 1343TIP3   OH225587   5.930   2.896   7.830  0.0606  0.1578 -0.5638
 1343TIP3    H125588   5.920   2.991   7.842  1.1212  0.2080  0.0161
 1343TIP3    H225589   5.995   2.888   7.761 -0.6144 -0.1616 -1.1757
 1344TIP3   OH225590   5.623   3.712   0.320 -0.2399  0.1783  0.3183
 1344TIP3    H125591   5.540   3.744   0.356 -0.8717 -1.4274  0.3931
 1344TIP3    H225592   5.676   3.692   0.398  1.0560  3.0612  0.2947
 1345TIP3   OH225593   5.252   1.398   7.927  0.7456 -0.4604 -0.0892
 1345TIP3    H125594   5.322   1.447   7.885  0.8025 -0.8082 -0.4135
 1345TIP3    H225595   5.174   1.453   7.917  0.8006 -0.4503 -0.4832
 1346TIP3   OH225596   6.490   6.683   6.171 -0.5694  0.0716  0.7958
 1346TIP3    H125597   6.502   6.663   6.078  0.2339  0.0590  0.8964
 1346TIP3    H225598   6.537   6.613   6.216 -0.3518  0.4779  1.2018
 1347TIP3   OH225599   2.939   6.571   6.724 -0.0246  0.1426  0.0493
 1347TIP3    H125600   2.907   6.611   6.643 -1.3182  0.2852  0.6115
 1347TIP3    H225601   2.933   6.477   6.708 -1.1361  0.1623  0.2880
 1348TIP3   OH225602   0.299   6.022   0.361  0.3901  0.5725 -0.1971
 1348TIP3    H125603   0.241   5.964   0.409  0.4633  0.5132 -0.1809
 1348TIP3    H225604   0.260   6.028   0.274  0.5582  0.2395 -0.2988
 1349TIP3   OH225605   5.653   6.474   0.539  0.4487 -0.7783 -0.5048
 1349TIP3    H125606   5.579   6.413   0.535  0.8928 -1.4824  1.0397
 1349TIP3    H225607   5.625   6.542   0.599 -0.2935  0.9821 -2.7250
 1350TIP3   OH225608   2.258   1.958   0.545  0.4453 -0.1496 -0.4684
 1350TIP3    H125609   2.249   1.870   0.510 -0.7248 -0.2095 -0.0507
 1350TIP3    H225610   2.239   2.015   0.471 -1.8125 -0.2760 -0.0337
 1351TIP3   OH225611   4.864   1.895   7.674 -0.0914 -0.2174 -0.0944
 1351TIP3    H125612   4.952   1.930   7.685 -0.3159 -0.2413  2.2369
 1351TIP3    H225613   4.873   1.829   7.605  1.2248  1.2734 -1.4346
 1352TIP3   OH225614   6.548   5.374   2.135 -0.1486  0.2264 -0.6155
 1352TIP3    H125615   6.543   5.458   2.090  0.3533 -0.0440 -1.1763
 1352TIP3    H225616   6.641   5.362   2.154  0.2121 -1.4661 -3.0020
 1353TIP3   OH225617   5.583   4.563   6.689 -0.3112 -0.3534  0.2242
 1353TIP3    H125618   5.647   4.505   6.649 -0.5148  0.6542 -1.6691
 1353TIP3    H225619   5.532   4.506   6.747  0.6499 -1.6609 -0.1584
 1354TIP3   OH225620   2.321   1.667   1.976 -0.1954  0.5122 -0.4388
 1354TIP3    H125621   2.277   1.670   2.061  1.8107  1.1199  0.6384
 1354TIP3    H225622   2.275   1.732   1.923 -1.5584  0.0327  0.1099
 1355TIP3   OH225623   1.968   2.935   7.006 -0.0678 -0.4086  0.1768
 1355TIP3    H125624   2.035   2.890   6.953  0.1739  1.2396 -1.0117
 1355TIP3    H225625   1.905   2.968   6.942  0.0356  1.3371  0.9020
 1356TIP3   OH225626   3.343   5.017   0.129  0.2888 -0.4098  0.2758
 1356TIP3    H125627   3.333   5.051   0.040  2.4013 -1.3351 -0.3657
 1356TIP3    H225628   3.353   5.095   0.183 -1.3196  0.1836 -0.1925
 1357TIP3   OH225629   6.552   4.287   0.696 -0.2727  0.1117  0.2294
 1357TIP3    H125630   6.555   4.375   0.660 -1.4855 -0.5123 -1.5014
 1357TIP3    H225631   6.603   4.234   0.635  1.2130 -0.2744  1.7296
 1358TIP3   OH225632   3.693   6.564   7.945 -0.1740 -0.0226 -0.2536
 1358TIP3    H125633   3.677   6.652   7.980 -1.7093 -0.0659 -0.7803
 1358TIP3    H225634   3.758   6.527   8.005 -0.2169  1.1205  0.5487
 1359TIP3   OH225635   3.575   1.464   1.069  0.2720 -0.0508 -0.3144
 1359TIP3    H125636   3.657   1.418   1.049  0.9192  0.6470  0.6180
 1359TIP3    H225637   3.596   1.556   1.055  0.0490  0.2470  1.1924
 1360TIP3   OH225638   6.154   3.314   7.283  0.1608  0.3341  0.0179
 1360TIP3    H125639   6.158   3.268   7.200  0.0838 -0.6401  0.5404
 1360TIP3    H225640   6.245   3.333   7.305  0.2047  0.2853 -0.1223
 1361TIP3   OH225641   5.847   5.767   7.195 -1.0847  0.5876  0.3675
 1361TIP3    H125642   5.854   5.751   7.289  1.0781  1.9778  0.5230
 1361TIP3    H225643   5.814   5.856   7.187 -0.9999  0.5773 -0.1821
 1362TIP3   OH225644   3.622   4.694   2.110  0.0866 -0.4166  0.0035
 1362TIP3    H125645   3.578   4.663   2.189  0.6614  0.1928  0.5855
 1362TIP3    H225646   3.704   4.644   2.106  0.7366  0.5483  0.6187
 1363TIP3   OH225647   5.434   1.869   6.417  0.1944 -0.1286 -0.0932
 1363TIP3    H125648   5.479   1.879   6.333  0.8232 -0.4264  0.2039
 1363TIP3    H225649   5.379   1.791   6.406  0.3693 -0.2386 -0.1867
 1364TIP3   OH225650   4.827   3.514   7.883 -0.3036 -0.7194 -0.0245
 1364TIP3    H125651   4.846   3.435   7.833  0.9175 -0.7179  0.4025
 1364TIP3    H225652   4.913   3.545   7.912 -0.6812  1.1856 -0.8163
 1365TIP3   OH225653   2.127   5.063   1.729  0.2991 -0.7651  0.5038
 1365TIP3    H125654   2.135   5.038   1.821 -1.8915  2.1154  1.6547
 1365TIP3    H225655   2.039   5.036   1.704  0.7242 -1.1413 -0.6452
 1366TIP3   OH225656   0.565   0.898   8.599 -0.5367  0.0995  0.0782
 1366TIP3    H125657   0.479   0.857   8.584 -1.0803  0.4234  1.9839
 1366TIP3    H225658   0.554   0.987   8.566 -0.3160 -0.3768 -1.3496
 1367TIP3   OH225659   6.704   1.446   8.857  0.2935  0.0499 -0.2147
 1367TIP3    H125660   6.636   1.419   8.796 -0.1776  1.7196 -0.4860
 1367TIP3    H225661   6.759   1.505   8.806  0.9141  0.1007  0.4999
 1368TIP3   OH225662   3.721   3.031   2.427 -0.1734  0.0529 -0.4031
 1368TIP3    H125663   3.659   3.102   2.446 -2.5667 -1.7292 -0.9898
 1368TIP3    H225664   3.767   3.016   2.509 -2.8523 -0.6149  1.0977
 1369TIP3   OH225665   0.712   0.292   6.695  0.4228  0.0790  0.5812
 1369TIP3    H125666   0.625   0.300   6.654  1.6090  2.1658 -1.8534
 1369TIP3    H225667   0.694   0.292   6.789 -2.1973  0.9761  0.1813
 1370TIP3   OH225668   5.045   0.162   8.135 -0.3170 -0.1275  0.2548
 1370TIP3    H125669   4.976   0.228   8.128 -1.1310 -1.1208 -4.3299
 1370TIP3    H225670   4.998   0.082   8.158 -0.2273 -0.2390  0.0466
 1371TIP3   OH225671   5.858   4.403   1.967 -0.7674  0.1446 -0.4606
 1371TIP3    H125672   5.794   4.343   2.006 -0.0973  0.0159  0.4774
 1371TIP3    H225673   5.910   4.347   1.908  0.7216 -0.5667  1.3960
 1372TIP3   OH225674   6.247   3.022   7.927 -0.5330 -0.2665 -0.0048
 1372TIP3    H125675   6.228   2.944   7.875  1.4997 -0.4010 -0.6180
 1372TIP3    H225676   6.164   3.070   7.928 -2.0068 -2.6491  0.8538
 1373TIP3   OH225677   3.173   4.269   7.309 -0.3727 -0.2763 -0.5125
 1373TIP3    H125678   3.117   4.229   7.243  1.3913 -0.1284 -2.1733
 1373TIP3    H225679   3.246   4.208   7.319 -0.2539  0.0451  0.8078
 1374TIP3   OH225680   0.092   4.327   2.377  0.5315  0.2329 -0.3540
 1374TIP3    H125681   0.148   4.285   2.311 -0.9972 -0.4280 -1.2752
 1374TIP3    H225682   0.007   4.335   2.334  0.4646  3.3342  0.1797
 1375TIP3   OH225683   5.958   4.576   1.353  0.3774 -0.4297  0.2896
 1375TIP3    H125684   6.015   4.628   1.410 -1.0323 -0.2527  1.6120
 1375TIP3    H225685   6.003   4.574   1.269  0.8001  2.3860  0.3707
 1376TIP3   OH225686   5.780   6.660   1.455 -0.2282  0.2540 -0.1848
 1376TIP3    H125687   5.849   6.595   1.469 -1.6673 -1.5442 -0.8785
 1376TIP3    H225688   5.717   6.615   1.398 -1.6444  2.0403 -0.1151
 1377TIP3   OH225689   5.453   1.876   8.293 -0.7235  0.3684  0.3274
 1377TIP3    H125690   5.479   1.948   8.350  0.5606 -0.1568  0.4204
 1377TIP3    H225691   5.404   1.816   8.349 -0.1421  0.2361  0.6915
 1378TIP3   OH225692   5.314   4.215   7.489 -0.1891  0.1214 -0.0582
 1378TIP3    H125693   5.230   4.172   7.504 -0.2758  0.5455  0.6890
 1378TIP3    H225694   5.322   4.220   7.394 -0.7339 -0.4523 -0.1369
 1379TIP3   OH225695   0.296   3.585   0.876 -0.3004  0.3312 -0.0685
 1379TIP3    H125696   0.256   3.575   0.962 -0.0222 -2.0514 -0.1543
 1379TIP3    H225697   0.387   3.608   0.895  0.5425 -2.9615  0.4765
 1380TIP3   OH225698   1.028   4.804   0.979 -0.4242  0.1932 -0.2028
 1380TIP3    H125699   0.941   4.770   0.957 -0.3590 -0.9460  1.1904
 1380TIP3    H225700   1.070   4.733   1.028  1.4908  0.5312 -1.2553
 1381TIP3   OH225701   6.717   1.023   0.449  0.6262 -0.4219  0.1525
 1381TIP3    H125702   6.635   1.013   0.498  0.7408 -0.3327  0.3651
 1381TIP3    H225703   6.747   1.111   0.471  0.3519 -0.1320 -0.5854
 1382TIP3   OH225704   1.635   1.279   8.425 -0.0441 -0.2351  0.1147
 1382TIP3    H125705   1.670   1.286   8.514  0.8175  0.2132 -0.2483
 1382TIP3    H225706   1.711   1.295   8.368 -0.3992 -1.3655 -0.7111
 1383TIP3   OH225707   4.867   6.022   7.229  0.1193 -0.1091 -0.7739
 1383TIP3    H125708   4.819   5.961   7.285  2.1001 -1.6767 -0.6748
 1383TIP3    H225709   4.817   6.024   7.147 -0.6062 -0.9836 -0.3623
 1384TIP3   OH225710   0.894   6.696   1.081 -0.2350 -0.1450 -0.2099
 1384TIP3    H125711   0.854   6.679   0.996  0.2198 -0.9813 -0.2711
 1384TIP3    H225712   0.880   6.616   1.131 -0.0032  0.1267  0.3038
 1385TIP3   OH225713   1.628   3.404   1.011 -0.7517  0.4902  0.1270
 1385TIP3    H125714   1.699   3.456   0.972  0.8152 -0.4822  1.5322
 1385TIP3    H225715   1.646   3.315   0.983 -2.6390  0.4360 -1.1335
 1386TIP3   OH225716   5.141   3.948   8.279 -0.0145  0.2554  0.1430
 1386TIP3    H125717   5.221   3.997   8.295  0.6665 -0.4594 -0.9824
 1386TIP3    H225718   5.168   3.856   8.279 -0.8267  0.0027 -0.3027
 1387TIP3   OH225719   0.410   1.264   7.264 -0.0862  0.1336 -0.0613
 1387TIP3    H125720   0.338   1.289   7.322 -0.1203  1.9257 -0.8015
 1387TIP3    H225721   0.486   1.258   7.322 -1.1066 -4.3732  1.2329
 1388TIP3   OH225722   2.371   4.851   8.467  0.1363 -0.3254 -0.2605
 1388TIP3    H125723   2.388   4.806   8.550  0.6167  0.3520  0.0192
 1388TIP3    H225724   2.456   4.850   8.422  0.0566 -0.0386 -0.4182
 1389TIP3   OH225725   5.250   2.860   0.713 -0.3194 -0.0341 -0.3344
 1389TIP3    H125726   5.307   2.784   0.712  0.5104  0.5457  1.1352
 1389TIP3    H225727   5.250   2.891   0.622  1.9009  0.0938 -0.3274
 1390TIP3   OH225728   5.866   4.052   7.587 -0.3698  0.3240  0.2065
 1390TIP3    H125729   5.850   3.990   7.658 -0.6335 -0.8473 -0.8267
 1390TIP3    H225730   5.819   4.015   7.512  2.8707 -0.5226 -1.6053
 1391TIP3   OH225731   6.024   1.202   1.156 -0.4393  0.5894 -0.0287
 1391TIP3    H125732   6.002   1.223   1.247 -0.1429 -1.5938  0.6153
 1391TIP3    H225733   6.120   1.200   1.154 -0.4494  0.1815 -0.2593
 1392TIP3   OH225734   0.450   0.139   5.801 -0.3175  0.1031  0.3127
 1392TIP3    H125735   0.478   0.096   5.882  1.0349  1.1313  0.4208
 1392TIP3    H225736   0.416   0.224   5.828  1.4577  1.0438 -0.2799
 1393TIP3   OH225737   2.185   3.934   8.233 -0.7872 -0.5556  0.6490
 1393TIP3    H125738   2.147   3.928   8.145 -0.9504 -0.3648  0.7085
 1393TIP3    H225739   2.243   4.010   8.229 -2.6109  0.9604  1.3998
 1394TIP3   OH225740   0.386   6.609   7.654 -0.5503  0.1719  0.1401
 1394TIP3    H125741   0.435   6.626   7.574  0.8266 -4.6368 -0.3524
 1394TIP3    H225742   0.451   6.614   7.724 -1.2368  1.9308  0.7000
 1395TIP3   OH225743   1.122   4.640   0.096  0.7050  0.5275  0.3576
 1395TIP3    H125744   1.128   4.638   0.001  1.0811  0.4879  0.3831
 1395TIP3    H225745   1.193   4.698   0.124  0.4678  0.7049  0.6029
 1396TIP3   OH225746   0.851   2.278   1.440 -0.2149 -0.2927 -0.2613
 1396TIP3    H125747   0.804   2.360   1.458 -1.5181 -1.0754  0.0403
 1396TIP3    H225748   0.833   2.223   1.517  1.2221 -0.6256 -0.1419
 1397TIP3   OH225749   4.745   4.885   1.581  0.5845 -0.1224 -0.0118
 1397TIP3    H125750   4.775   4.857   1.668 -1.5136 -2.8993 -0.0738
 1397TIP3    H225751   4.792   4.829   1.520 -0.9226 -0.9811 -0.4002
 1398TIP3   OH225752   2.314   0.252   6.940  0.2761  0.0982 -0.4319
 1398TIP3    H125753   2.382   0.277   7.002  0.2006 -2.9124  1.0610
 1398TIP3    H225754   2.253   0.326   6.940  0.8419  0.6777  2.2715
 1399TIP3   OH225755   6.077   3.354   6.694  0.1693  0.4116  0.0471
 1399TIP3    H125756   6.118   3.271   6.720 -0.3767  1.2552  4.4001
 1399TIP3    H225757   5.992   3.328   6.659  0.5634 -0.9052 -0.0081
 1400TIP3   OH225758   0.270   0.101   6.445 -0.2043  0.0582 -0.1767
 1400TIP3    H125759   0.255   0.022   6.498  0.4919 -0.1475 -0.2799
 1400TIP3    H225760   0.361   0.125   6.463 -0.4159  0.8554 -0.1272
 1401TIP3   OH225761   5.919   5.502   2.253 -0.3660  0.3715  0.2513
 1401TIP3    H125762   5.936   5.585   2.298 -1.3925 -0.3630  2.0805
 1401TIP3    H225763   5.851   5.523   2.189 -1.0345  0.8431  1.0941
 1402TIP3   OH225764   1.415   2.855   0.074  0.1090 -0.0884 -0.5548
 1402TIP3    H125765   1.440   2.894   0.158  1.2773  0.3307 -1.0839
 1402TIP3    H225766   1.393   2.930   0.018 -0.5714 -0.3622 -0.6694
 1403TIP3   OH225767   5.233   4.580   7.425  0.1140  0.1899  0.0882
 1403TIP3    H125768   5.272   4.539   7.501  1.7588 -0.2992 -0.9796
 1403TIP3    H225769   5.257   4.673   7.433  0.1334  0.1716  0.2511
 1404TIP3   OH225770   5.422   3.433   1.054 -0.6662  0.0626 -0.4548
 1404TIP3    H125771   5.461   3.352   1.022 -0.4541  0.3001 -0.8075
 1404TIP3    H225772   5.476   3.502   1.016 -1.2047  0.3835 -0.6430
 1405TIP3   OH225773   1.026   3.530   8.489 -0.0431  0.2159 -0.2517
 1405TIP3    H125774   0.933   3.523   8.510 -0.0104  2.4728  0.8487
 1405TIP3    H225775   1.028   3.545   8.394 -0.8177  0.5892 -0.2153
 1406TIP3   OH225776   4.809   0.734   0.334  0.1067  0.4365 -0.0698
 1406TIP3    H125777   4.862   0.812   0.319 -0.4914  0.7917 -0.4150
 1406TIP3    H225778   4.787   0.737   0.427 -1.1750  1.5276 -0.3678
 1407TIP3   OH225779   1.867   4.745   7.633  0.5693  0.3029  0.7246
 1407TIP3    H125780   1.846   4.721   7.723 -0.9420  0.1067  0.3330
 1407TIP3    H225781   1.829   4.675   7.580 -0.6141  1.6151 -0.2004
 1408TIP3   OH225782   3.707   5.462   1.304  0.4492  0.0185 -0.0916
 1408TIP3    H125783   3.728   5.418   1.386 -0.2110  0.8390  0.5323
 1408TIP3    H225784   3.709   5.392   1.238 -3.3177 -1.6601  1.2511
 1409TIP3   OH225785   0.426   6.467   8.515 -0.4607 -0.1340 -0.4981
 1409TIP3    H125786   0.334   6.443   8.515 -0.3296 -0.6662 -0.1006
 1409TIP3    H225787   0.473   6.384   8.514  0.0020  0.0338  1.5269
 1410TIP3   OH225788   5.095   5.119   7.983  0.1808 -0.2785  0.5458
 1410TIP3    H125789   5.059   5.140   7.897  0.5442 -0.0073  0.4595
 1410TIP3    H225790   5.177   5.168   7.988  0.2508 -0.4319  0.9759
 1411TIP3   OH225791   0.686   0.100   7.760 -0.7021  0.1999 -0.2297
 1411TIP3    H125792   0.686   0.193   7.735 -0.3345  1.3715  3.4688
 1411TIP3    H225793   0.779   0.076   7.759 -0.7325  0.0877 -0.4402
 1412TIP3   OH225794   4.242   5.096   8.466 -0.0735 -0.1911 -0.1378
 1412TIP3    H125795   4.297   5.117   8.391  0.5130 -1.0331  0.0500
 1412TIP3    H225796   4.173   5.162   8.464  1.0108  0.9868 -0.3044
 1413TIP3   OH225797   1.969   1.879   6.617 -0.1170 -0.1556 -0.0717
 1413TIP3    H125798   2.054   1.919   6.603 -0.6057  0.0926 -2.8063
 1413TIP3    H225799   1.989   1.789   6.643  0.9343  0.5527  1.7942
 1414TIP3   OH225800   5.056   0.261   7.319  0.4687  0.1118  0.0099
 1414TIP3    H125801   5.049   0.342   7.268  1.2999 -1.0564 -2.0857
 1414TIP3    H225802   4.978   0.211   7.294  0.0398  0.1539  1.1775
 1415TIP3   OH225803   6.040   2.202   0.380 -0.0962 -0.1329  0.4127
 1415TIP3    H125804   5.967   2.263   0.368  0.2414  0.3655  0.9058
 1415TIP3    H225805   6.050   2.195   0.474 -0.3838 -1.2625  0.3750
 1416TIP3   OH225806   6.616   4.736   8.885  0.2785 -0.2046 -0.1660
 1416TIP3    H125807   6.682   4.694   8.940 -0.2724 -1.3504 -0.3285
 1416TIP3    H225808   6.657   4.743   8.799  0.1158 -1.1618 -0.3340
 1417TIP3   OH225809   0.654   6.575   7.764 -0.2241  0.2433  0.5238
 1417TIP3    H125810   0.670   6.668   7.780  0.8469 -0.0098  1.0042
 1417TIP3    H225811   0.700   6.530   7.835 -2.1233 -0.6024  1.2932
 1418TIP3   OH225812   3.976   1.631   1.742 -0.0618  0.7091  0.1896
 1418TIP3    H125813   3.883   1.618   1.762 -0.4740  1.2971 -1.2410
 1418TIP3    H225814   4.009   1.686   1.813 -0.4907 -0.5135  1.3761
 1419TIP3   OH225815   5.330   5.324   1.473  0.0451 -0.2840  0.1963
 1419TIP3    H125816   5.255   5.347   1.418  0.4275 -1.0128 -0.6480
 1419TIP3    H225817   5.369   5.408   1.498 -0.5538  0.0676 -0.0474
 1420TIP3   OH225818   6.744   3.066   7.652  0.4384  0.7393  0.0185
 1420TIP3    H125819   6.740   2.970   7.644  1.0781  0.3174  3.3654
 1420TIP3    H225820   6.833   3.089   7.628  0.0542  0.6599 -1.6022
 1421TIP3   OH225821   2.331   0.380   7.983 -0.0549 -0.0983 -0.0374
 1421TIP3    H125822   2.379   0.301   8.006 -0.3448  0.0477  1.1011
 1421TIP3    H225823   2.269   0.393   8.054 -1.0674  0.3112 -0.9587
 1422TIP3   OH225824   2.217   3.465   6.327  0.2291  0.7758  0.0099
 1422TIP3    H125825   2.201   3.389   6.382  0.3486 -0.4069 -1.5217
 1422TIP3    H225826   2.187   3.539   6.380 -0.4835 -0.3765  1.2991
 1423TIP3   OH225827   2.735   6.096   2.432  0.5719 -0.1337 -0.8854
 1423TIP3    H125828   2.774   6.169   2.383  2.8615 -0.4223  0.3753
 1423TIP3    H225829   2.714   6.134   2.518  1.6253 -0.8530 -0.2802
 1424TIP3   OH225830   6.545   1.823   1.217 -0.1375 -0.2402 -0.6412
 1424TIP3    H125831   6.487   1.876   1.272 -0.0630 -2.8502  2.2300
 1424TIP3    H225832   6.489   1.794   1.145 -1.7271 -0.5939  0.6597
 1425TIP3   OH225833   0.129   1.567   0.924 -0.1564  0.2611  0.0722
 1425TIP3    H125834   0.209   1.527   0.957 -0.9098 -1.4672 -0.0798
 1425TIP3    H225835   0.158   1.647   0.880  1.4423 -0.1962  0.2298
 1426TIP3   OH225836   0.305   2.667   0.140  0.6365 -0.0666  0.1818
 1426TIP3    H125837   0.270   2.687   0.053  0.6748  0.1782  0.2208
 1426TIP3    H225838   0.351   2.747   0.166  0.2180  0.0362  0.6275
 1427TIP3   OH225839   0.722   0.818   8.346  0.2555 -0.4732  0.1343
 1427TIP3    H125840   0.731   0.809   8.441 -0.3847 -0.7890  0.1671
 1427TIP3    H225841   0.792   0.763   8.310 -1.1231 -2.4764  0.3970
 1428TIP3   OH225842   6.373   2.720   7.003 -0.6228 -0.0008 -0.2023
 1428TIP3    H125843   6.434   2.780   6.960 -2.0111  0.3022 -1.8392
 1428TIP3    H225844   6.395   2.633   6.967 -0.0960 -0.1496  0.4604
 1429TIP3   OH225845   5.967   4.308   7.513  0.2074  0.2777 -0.3196
 1429TIP3    H125846   5.881   4.316   7.473  1.2064 -1.8330 -3.1667
 1429TIP3    H225847   5.960   4.232   7.570  0.1355  0.2816 -0.3228
 1430TIP3   OH225848   2.078   2.825   1.585 -0.1113 -0.1954 -0.0540
 1430TIP3    H125849   1.983   2.813   1.587 -0.0155 -0.9465  0.1776
 1430TIP3    H225850   2.108   2.798   1.672  0.4069 -0.8463 -0.4257
 1431TIP3   OH225851   2.411   1.326   1.341  0.5212 -0.1775 -0.3862
 1431TIP3    H125852   2.432   1.299   1.251  0.5434  2.4660 -1.2484
 1431TIP3    H225853   2.330   1.377   1.332  1.3467  1.4259  0.8434
 1432TIP3   OH225854   4.120   0.837   0.958 -0.0579  0.1071  0.4175
 1432TIP3    H125855   4.093   0.771   0.894 -0.9029  0.8540 -0.0163
 1432TIP3    H225856   4.213   0.848   0.944  0.1207 -1.0670  0.5688
 1433TIP3   OH225857   0.856   5.986   1.356 -0.1294  0.0957 -0.3097
 1433TIP3    H125858   0.893   6.045   1.421  1.4905  0.1499 -1.2377
 1433TIP3    H225859   0.832   5.907   1.405  1.6354 -0.1089  0.2771
 1434TIP3   OH225860   1.944   2.122   0.070 -0.4644  0.5676 -0.4346
 1434TIP3    H125861   1.961   2.215   0.083 -0.1665  0.4480  0.0943
 1434TIP3    H225862   1.925   2.113  -0.023  1.2493  0.8879 -0.8372
 1435TIP3   OH225863   0.561   3.321   2.160  0.0852 -0.1680 -0.4823
 1435TIP3    H125864   0.477   3.275   2.162 -0.1386  0.2346 -0.4582
 1435TIP3    H225865   0.540   3.410   2.189  0.1543  0.5124 -2.3845
 1436TIP3   OH225866   2.788   4.031   2.038  0.4437 -0.4401  0.1304
 1436TIP3    H125867   2.758   4.092   1.971  2.7638 -0.6271 -1.1818
 1436TIP3    H225868   2.719   3.965   2.043 -0.3412  0.2335 -1.1843
 1437TIP3   OH225869   4.700   0.691   7.772  0.6679 -0.1074  0.5255
 1437TIP3    H125870   4.701   0.595   7.777 -0.0202 -0.2415 -1.2574
 1437TIP3    H225871   4.638   0.711   7.702  0.6690  1.6636  0.9860
 1438TIP3   OH225872   4.093   2.641   8.659 -0.4464 -0.0104 -0.0698
 1438TIP3    H125873   4.102   2.669   8.750  0.9637 -1.5191  0.3069
 1438TIP3    H225874   4.011   2.592   8.656 -1.3082  1.3779 -0.0133
 1439TIP3   OH225875   2.113   1.308   0.741 -0.0204 -0.6652 -0.1525
 1439TIP3    H125876   2.024   1.279   0.722 -0.6472 -0.2509  1.8693
 1439TIP3    H225877   2.132   1.375   0.675 -1.2999 -0.5900 -0.4565
 1440TIP3   OH225878   4.666   4.447   8.279  0.4989  0.2054 -0.3036
 1440TIP3    H125879   4.656   4.356   8.249  0.8251 -0.5379  1.7193
 1440TIP3    H225880   4.612   4.498   8.218 -0.7108 -1.4856 -0.7193
 1441TIP3   OH225881   5.023   1.618   8.617  0.0923  0.1003  0.1325
 1441TIP3    H125882   5.074   1.673   8.558 -1.8197  0.8695 -0.8513
 1441TIP3    H225883   5.087   1.589   8.683  1.6312  1.6249 -0.6107
 1442TIP3   OH225884   6.647   6.289   8.403  0.0697  0.3394  0.3791
 1442TIP3    H125885   6.697   6.238   8.339 -1.6560 -0.4845 -0.3896
 1442TIP3    H225886   6.635   6.374   8.361 -1.0327 -0.1900 -0.4390
 1443TIP3   OH225887   1.750   6.188   7.570  0.0638  0.0027  0.2835
 1443TIP3    H125888   1.672   6.226   7.531  0.3429 -0.0944 -0.3848
 1443TIP3    H225889   1.739   6.093   7.558 -0.0382 -0.0542  0.8070
 1444TIP3   OH225890   5.446   3.563   2.061 -0.0942 -0.3485 -0.4269
 1444TIP3    H125891   5.371   3.505   2.075 -0.6829  0.4402 -0.2385
 1444TIP3    H225892   5.439   3.591   1.970 -0.1718 -0.0707 -0.3353
 1445TIP3   OH225893   3.492   1.232   8.880  0.4299  0.5955  0.1135
 1445TIP3    H125894   3.477   1.180   8.801 -0.0003 -1.3983  1.4387
 1445TIP3    H225895   3.563   1.187   8.926 -0.7884  0.4196  1.9112
 1446TIP3   OH225896   3.986   1.012   0.662 -0.4050 -0.3983  0.0838
 1446TIP3    H125897   3.898   0.999   0.628 -0.2551 -1.2783  0.0153
 1446TIP3    H225898   4.020   0.924   0.675  0.8252 -0.0897 -0.8187
 1447TIP3   OH225899   3.445   1.209   0.762  0.1109 -0.1667 -0.7582
 1447TIP3    H125900   3.385   1.151   0.717  0.5267 -1.2541  0.0533
 1447TIP3    H225901   3.516   1.224   0.700  0.0571 -0.6167 -0.9268
 1448TIP3   OH225902   2.013   2.826   0.968  0.5876  0.0766 -0.4068
 1448TIP3    H125903   2.061   2.755   0.924  0.9002 -1.0257  1.5770
 1448TIP3    H225904   2.077   2.863   1.029 -0.2405  0.5754  0.1685
 1449TIP3   OH225905   4.254   0.549   0.792  0.0527 -0.2676 -0.1023
 1449TIP3    H125906   4.299   0.587   0.716 -0.3317  1.2368  0.3908
 1449TIP3    H225907   4.161   0.567   0.776 -0.0752 -0.3906  0.4805
 1450TIP3   OH225908   2.395   1.299   2.404 -0.2660 -0.6100  0.0112
 1450TIP3    H125909   2.305   1.285   2.432 -1.1053  0.9545 -1.6788
 1450TIP3    H225910   2.447   1.242   2.460 -2.2831 -1.4579  1.1168
 1451TIP3   OH225911   4.152   5.366   8.385 -0.3321  0.1603  0.4060
 1451TIP3    H125912   4.216   5.359   8.314  0.1590 -1.3964  0.9604
 1451TIP3    H225913   4.068   5.375   8.340  0.1012  0.4964 -0.3605
 1452TIP3   OH225914   1.745   6.150   6.483 -0.2469  0.2285 -0.0461
 1452TIP3    H125915   1.708   6.200   6.411 -0.2786  0.9141  0.4352
 1452TIP3    H225916   1.802   6.212   6.529 -0.1893 -0.2072  0.4913
 1453TIP3   OH225917   0.135   4.206   1.644 -0.1650  0.0044  0.7052
 1453TIP3    H125918   0.115   4.296   1.666 -2.0556 -0.6977  2.0651
 1453TIP3    H225919   0.051   4.167   1.621  0.3643 -1.7614  1.5498
 1454TIP3   OH225920   4.595   4.035   8.297  0.1896  0.0081 -0.3105
 1454TIP3    H125921   4.596   4.055   8.203  1.6644  1.7388  0.0179
 1454TIP3    H225922   4.666   3.972   8.309  0.4375  0.2881 -0.2816
 1455TIP3   OH225923   2.977   4.153   1.152  0.6765  0.1681 -0.1332
 1455TIP3    H125924   3.017   4.131   1.068  0.3988  0.1912 -0.2703
 1455TIP3    H225925   2.886   4.172   1.131  0.5679  0.0115  0.1968
 1456TIP3   OH225926   5.786   1.059   7.214  0.1678 -0.3873  0.0852
 1456TIP3    H125927   5.705   1.092   7.253 -0.4332 -1.3190 -0.3166
 1456TIP3    H225928   5.829   1.011   7.285 -0.5188 -1.3819 -0.1429
 1457TIP3   OH225929   1.558   0.795   0.400  0.4496  0.2197  0.1930
 1457TIP3    H125930   1.501   0.866   0.372  1.5087  1.5465  1.2761
 1457TIP3    H225931   1.632   0.798   0.339  1.6216  1.6132  1.5757
 1458TIP3   OH225932   5.220   2.072   8.864  0.1382 -0.3821  0.4259
 1458TIP3    H125933   5.141   2.114   8.831 -0.5805 -2.7159 -1.0431
 1458TIP3    H225934   5.241   2.120   8.944 -1.0684  2.1515 -0.6839
 1459TIP3   OH225935   2.821   4.976   0.962 -0.2997 -0.7798  0.3142
 1459TIP3    H125936   2.771   4.939   1.034  0.7912 -2.1765  0.3949
 1459TIP3    H225937   2.855   5.059   0.996  0.0967 -1.3617  1.3728
 1460TIP3   OH225938   3.667   1.272   0.288  0.2934 -0.1896 -0.7075
 1460TIP3    H125939   3.712   1.356   0.295 -0.5270  0.1601  0.5837
 1460TIP3    H225940   3.588   1.292   0.237 -1.4346  0.5416  2.0253
 1461TIP3   OH225941   1.112   1.489   8.638  0.3610 -0.3480 -0.1469
 1461TIP3    H125942   1.186   1.430   8.623  0.4431  0.0637 -1.5583
 1461TIP3    H225943   1.122   1.557   8.571 -0.6449  0.3647  0.3934
 1462TIP3   OH225944   0.022   2.058   0.066 -0.2055  0.0761 -0.4010
 1462TIP3    H125945  -0.012   2.054  -0.023 -1.3394 -0.9716  0.0508
 1462TIP3    H225946  -0.055   2.048   0.122  0.6397 -0.6507  0.6804
 1463TIP3   OH225947   6.460   3.143   7.214  0.9420  0.0913  0.2246
 1463TIP3    H125948   6.491   3.231   7.192  0.0005  0.4814  0.4081
 1463TIP3    H225949   6.407   3.117   7.139  1.1730 -0.3115  0.1952
 1464TIP3   OH225950   2.805   0.027   0.891 -0.0907  0.2897  0.9351
 1464TIP3    H125951   2.763  -0.002   0.972 -1.1420 -0.0391  0.2887
 1464TIP3    H225952   2.737   0.076   0.845 -0.7800 -2.5803 -1.4340
 1465TIP3   OH225953   2.656   4.309   7.674  0.1442  0.3139 -0.6886
 1465TIP3    H125954   2.711   4.277   7.603 -1.3541  1.4555 -2.4361
 1465TIP3    H225955   2.590   4.363   7.632 -1.5174  0.1203  1.4650
 1466TIP3   OH225956   4.957   3.628   0.777 -0.3932 -0.1200 -0.3904
 1466TIP3    H125957   4.898   3.702   0.764 -0.5322 -0.1641 -0.0145
 1466TIP3    H225958   4.969   3.592   0.689  0.6961  1.0993 -0.7736
 1467TIP3   OH225959   5.342   3.461   6.832  0.1048  0.1936  0.1574
 1467TIP3    H125960   5.248   3.471   6.844 -0.1485  0.3003 -1.7264
 1467TIP3    H225961   5.366   3.528   6.769  1.0548 -1.2257 -1.0456
 1468TIP3   OH225962   5.919   3.536   7.574 -0.3584  0.1079 -0.4050
 1468TIP3    H125963   5.974   3.550   7.651 -0.9337  1.1494 -0.1650
 1468TIP3    H225964   5.980   3.532   7.501  0.0424  1.4051 -0.1665
 1469TIP3   OH225965   2.585   6.504   8.188  0.3896 -0.0611  0.2935
 1469TIP3    H125966   2.599   6.411   8.176 -1.8437 -0.5167  0.6292
 1469TIP3    H225967   2.665   6.536   8.228  1.7209 -1.5513 -1.0657
 1470TIP3   OH225968   0.387   2.372   8.518  0.7052  0.0344  0.3696
 1470TIP3    H125969   0.449   2.438   8.487  0.5776 -0.1669 -0.3369
 1470TIP3    H225970   0.301   2.409   8.502  0.6356 -0.1933  0.2013
 1471TIP3   OH225971   6.172   0.671   7.991 -0.1796  0.0617 -0.2971
 1471TIP3    H125972   6.086   0.700   7.961  0.0710  0.1968 -0.9036
 1471TIP3    H225973   6.168   0.575   7.988 -1.0599 -0.0070  1.8482
 1472TIP3   OH225974   1.490   5.046   8.816  0.5172 -0.5300  0.2808
 1472TIP3    H125975   1.535   4.963   8.834  0.1618 -1.0545 -1.1113
 1472TIP3    H225976   1.403   5.020   8.787  0.5156  0.3189 -0.5179
 1473TIP3   OH225977   2.107   1.472   8.470 -0.3544  0.2370  0.3131
 1473TIP3    H125978   2.172   1.403   8.481 -1.7762 -1.3442 -0.7311
 1473TIP3    H225979   2.158   1.550   8.449  1.2298 -0.8027  0.1549
 1474TIP3   OH225980   0.816   2.860   0.158  0.1791  0.0965  0.1752
 1474TIP3    H125981   0.854   2.772   0.151  0.4999  0.3704 -2.5873
 1474TIP3    H225982   0.892   2.917   0.173  0.0074  0.0004  1.6060
 1475TIP3   OH225983   2.429   5.893   7.741 -0.3612  0.4735 -0.4958
 1475TIP3    H125984   2.383   5.976   7.729  0.0249  0.8135  0.3247
 1475TIP3    H225985   2.443   5.887   7.835  0.9191  0.1747 -0.6977
 1476TIP3   OH225986   1.876   6.004   7.736 -0.0740  0.2819 -0.3193
 1476TIP3    H125987   1.868   5.984   7.829 -0.6117  0.2508 -0.3733
 1476TIP3    H225988   1.835   6.090   7.726  0.3673  0.4839 -0.4562
 1477TIP3   OH225989   0.626   6.324   8.750  0.4401 -0.0333 -0.1669
 1477TIP3    H125990   0.578   6.255   8.706 -2.6897  2.2666 -0.7252
 1477TIP3    H225991   0.668   6.373   8.679 -0.3231  0.6852 -0.1307
 1478TIP3   OH225992   0.580   3.270   7.722  0.1829 -0.0240  0.3724
 1478TIP3    H125993   0.529   3.340   7.680 -0.9182 -2.1935 -2.2348
 1478TIP3    H225994   0.632   3.234   7.650  1.2050 -1.4648  1.7893
 1479TIP3   OH225995   1.960   6.578   1.075 -0.4475  0.2840 -0.1257
 1479TIP3    H125996   1.983   6.650   1.133 -0.7780 -0.7313  1.3120
 1479TIP3    H225997   1.866   6.565   1.088 -0.5147 -0.0248 -0.8321
 1480TIP3   OH225998   5.222   3.969   1.466 -0.0388  0.2335 -1.2170
 1480TIP3    H125999   5.161   4.029   1.422 -0.2036  0.7606 -0.3058
 1480TIP3    H226000   5.173   3.887   1.475 -1.0702  0.9687  0.4757
 1481TIP3   OH226001   5.332   3.012   0.927 -0.2497 -0.8825 -0.0340
 1481TIP3    H126002   5.343   3.090   0.874 -0.0883  0.3659  1.7644
 1481TIP3    H226003   5.270   2.958   0.877 -0.3442  0.3549 -1.3183
 1482TIP3   OH226004   1.840   2.688   6.499  0.4484 -0.0160 -0.2179
 1482TIP3    H126005   1.881   2.601   6.495 -0.0225 -0.2113 -1.4314
 1482TIP3    H226006   1.872   2.733   6.420 -0.2552  0.4747 -0.2308
 1483TIP3   OH226007   0.235   1.967   1.122 -0.4073  0.0083  0.1237
 1483TIP3    H126008   0.170   1.907   1.158  0.5979 -0.4560  1.2318
 1483TIP3    H226009   0.217   1.968   1.028 -1.4776 -0.7543  0.3030
 1484TIP3   OH226010   3.846   0.219   7.381 -0.3198 -0.4011 -1.0947
 1484TIP3    H126011   3.754   0.247   7.391 -0.4281 -1.2575  0.6290
 1484TIP3    H226012   3.865   0.169   7.461  1.5193 -0.6359 -1.6343
 1485TIP3   OH226013   5.511   0.850   8.254  0.0499 -0.4307 -0.1567
 1485TIP3    H126014   5.527   0.839   8.160 -1.2958 -1.8679 -0.2620
 1485TIP3    H226015   5.530   0.764   8.292  0.0881 -0.0086  0.8185
 1486TIP3   OH226016   1.162   0.264   7.325 -0.4335 -0.5623 -0.0393
 1486TIP3    H126017   1.124   0.198   7.267  0.7410 -1.4933  0.2202
 1486TIP3    H226018   1.107   0.342   7.312 -1.2775 -1.3002 -1.0419
 1487TIP3   OH226019   3.914   3.583   7.020 -0.2556 -0.0103 -0.0897
 1487TIP3    H126020   3.923   3.675   6.995  0.7018 -0.1257 -0.1852
 1487TIP3    H226021   3.822   3.563   7.001 -0.3398  0.7677 -0.5851
 1488TIP3   OH226022   1.732   0.867   8.622 -0.5258  0.1674  0.4000
 1488TIP3    H126023   1.738   0.935   8.555 -0.0231 -0.6198 -0.3777
 1488TIP3    H226024   1.728   0.785   8.573  0.6683 -0.4915  1.3349
 1489TIP3   OH226025   1.144   0.734   7.125 -0.2097  0.2067  0.1469
 1489TIP3    H126026   1.161   0.682   7.047 -1.7809 -0.6007  0.3157
 1489TIP3    H226027   1.204   0.808   7.118  0.9681 -0.7982 -0.8848
 1490TIP3   OH226028   5.977   4.477   0.535 -0.0397 -0.0935  0.5150
 1490TIP3    H126029   6.066   4.492   0.565  0.0137 -1.0610  0.8749
 1490TIP3    H226030   5.964   4.383   0.542 -1.0047 -0.0022  0.2173
 1491TIP3   OH226031   6.504   0.330   1.476 -0.3126 -0.5425 -0.0823
 1491TIP3    H126032   6.592   0.354   1.445 -1.0908  1.5811 -0.8330
 1491TIP3    H226033   6.461   0.292   1.399  0.0368 -1.9801  0.3958
 1492TIP3   OH226034   4.627   3.657   0.890 -0.1311 -0.4256 -0.4222
 1492TIP3    H126035   4.687   3.584   0.874  1.9360  1.3507 -1.3054
 1492TIP3    H226036   4.620   3.702   0.806 -1.6596  0.1879 -0.0010
 1493TIP3   OH226037   5.552   6.600   7.554  0.5728 -0.2127  0.1023
 1493TIP3    H126038   5.619   6.597   7.622  0.7338 -0.8488 -0.0735
 1493TIP3    H226039   5.601   6.595   7.472  0.3493 -0.0099 -0.0434
 1494TIP3   OH226040   6.006   5.333   7.347 -0.0734 -0.5516 -0.5484
 1494TIP3    H126041   6.042   5.362   7.263  0.7098 -0.1826 -0.0951
 1494TIP3    H226042   5.918   5.301   7.326 -0.6063  1.2354 -1.2412
 1495TIP3   OH226043   1.797   5.888   1.915 -0.1994 -0.0365  0.0672
 1495TIP3    H126044   1.854   5.863   1.842  0.8376  0.2793  0.7538
 1495TIP3    H226045   1.834   5.970   1.948 -0.4982 -0.3041  1.1090
 1496TIP3   OH226046   4.561   1.245   1.327  0.6517  0.2190 -0.6968
 1496TIP3    H126047   4.477   1.220   1.287  0.9287 -0.0576 -1.1086
 1496TIP3    H226048   4.594   1.315   1.270  0.3243  0.8873 -0.0799
 1497TIP3   OH226049   5.773   2.098   1.628  0.0802  0.2081 -0.0429
 1497TIP3    H126050   5.765   2.003   1.639  0.5471  0.1909  0.2049
 1497TIP3    H226051   5.783   2.111   1.534  1.6242 -0.1331  0.0534
 1498TIP3   OH226052   4.051   3.365   0.110  0.1720  0.5985  0.0235
 1498TIP3    H126053   4.110   3.369   0.185  2.3194 -0.7566 -1.5171
 1498TIP3    H226054   4.002   3.284   0.122  0.4255  0.4443 -0.0004
 1499TIP3   OH226055   5.696   0.104   6.521  0.0610 -0.2134 -0.4142
 1499TIP3    H126056   5.721   0.184   6.476 -2.7153  1.3051  0.4693
 1499TIP3    H226057   5.760   0.039   6.493  2.2466  2.2169 -1.4008
 1500TIP3   OH226058   5.857   0.241   6.990  0.2906  0.0993 -0.1765
 1500TIP3    H126059   5.870   0.304   6.919  0.9571 -1.1248 -1.1895
 1500TIP3    H226060   5.835   0.159   6.945  2.0772 -1.0647  0.9538
 1501TIP3   OH226061   6.593   6.640   7.530 -0.6315  0.2075  0.4132
 1501TIP3    H126062   6.609   6.724   7.487 -1.7182  1.3317  2.0771
 1501TIP3    H226063   6.500   6.622   7.513 -0.9393  0.4119  1.7579
 1502TIP3   OH226064   4.864   6.199   6.661 -0.4204  0.2042 -0.0629
 1502TIP3    H126065   4.805   6.126   6.643  1.7359 -1.4294 -0.9345
 1502TIP3    H226066   4.868   6.203   6.756 -0.7487 -0.6789  0.0019
 1503TIP3   OH226067   3.783   2.174   8.245  0.0324  0.6867  0.4273
 1503TIP3    H126068   3.739   2.125   8.314  0.4659 -0.5124 -0.1326
 1503TIP3    H226069   3.815   2.253   8.289 -3.1298  1.9254  0.7609
 1504TIP3   OH226070   1.876   3.868   6.720  0.6491 -0.1354 -0.1771
 1504TIP3    H126071   1.822   3.833   6.790  1.3744 -0.1224  0.4053
 1504TIP3    H226072   1.815   3.912   6.661 -0.5475 -3.5129 -1.7226
 1505TIP3   OH226073   6.124   1.108   1.883  0.0243 -0.1890 -0.2897
 1505TIP3    H126074   6.144   1.015   1.876 -0.4422 -0.2589 -0.7662
 1505TIP3    H226075   6.177   1.139   1.957 -1.5447 -1.3304  1.3913
 1506TIP3   OH226076   3.389   0.469   7.306  0.3773 -0.1320 -0.3707
 1506TIP3    H126077   3.361   0.413   7.233  0.1212 -0.4850 -0.0064
 1506TIP3    H226078   3.313   0.471   7.364  0.3944  0.5770 -0.3662
 1507TIP3   OH226079   4.296   1.147   1.318  0.0310 -0.4729 -0.3712
 1507TIP3    H126080   4.250   1.183   1.394  0.6887 -0.6800  0.1313
 1507TIP3    H226081   4.313   1.056   1.341 -0.1768 -0.6641 -0.9614
 1508TIP3   OH226082   6.405   4.451   6.222 -0.3534 -0.0266 -0.4511
 1508TIP3    H126083   6.415   4.478   6.313  0.2069  1.5617 -0.9608
 1508TIP3    H226084   6.341   4.511   6.186  1.4562  1.1939 -1.8041
 1509TIP3   OH226085   4.262   1.652   1.915 -0.1605 -0.0674 -0.1289
 1509TIP3    H126086   4.347   1.695   1.902 -0.3201  0.3846  0.2809
 1509TIP3    H226087   4.276   1.594   1.989  0.0841 -0.8212 -0.7487
 1510TIP3   OH226088   1.472   6.185   2.266 -0.4447  0.2493  0.5488
 1510TIP3    H126089   1.556   6.232   2.271 -1.2597  2.2682 -2.2470
 1510TIP3    H226090   1.496   6.093   2.265  1.7946  0.7744 -0.3347
 1511TIP3   OH226091   1.068   3.139   1.753 -0.0313 -0.0751  0.4598
 1511TIP3    H126092   1.140   3.096   1.708 -0.0220  1.4786 -1.1348
 1511TIP3    H226093   1.006   3.069   1.772  0.7530 -1.0446 -0.4800
 1512TIP3   OH226094   1.449   3.919   7.388 -0.1816 -0.2052  0.1295
 1512TIP3    H126095   1.446   3.823   7.393  0.0967 -0.2298 -0.1463
 1512TIP3    H226096   1.415   3.939   7.301  0.5759 -0.1031 -0.1511
 1513TIP3   OH226097   2.778   3.611   0.986  0.7560 -0.2136  0.5580
 1513TIP3    H126098   2.846   3.677   0.995 -2.0032  3.4306 -1.9925
 1513TIP3    H226099   2.734   3.610   1.071  1.8440 -0.0421  1.1401
 1514TIP3   OH226100   3.407   2.520   8.837  0.9766  0.2426 -0.1203
 1514TIP3    H126101   3.322   2.518   8.793  1.0034 -2.7839 -0.2429
 1514TIP3    H226102   3.471   2.523   8.765  0.9693  0.3385 -0.1216
 1515TIP3   OH226103   5.630   6.409   7.358 -0.0422  0.4703  0.1597
 1515TIP3    H126104   5.668   6.380   7.441 -1.5324  2.6845  1.7121
 1515TIP3    H226105   5.551   6.356   7.347 -1.2119  1.8646  1.5139
 1516TIP3   OH226106   0.610   5.848   0.724  0.1634 -0.4001 -0.3781
 1516TIP3    H126107   0.602   5.919   0.660  0.0299  0.6168  0.7497
 1516TIP3    H226108   0.524   5.806   0.724 -0.3137  0.5455  0.2052
 1517TIP3   OH226109   4.277   1.091   8.581 -0.1048  0.0701 -0.1044
 1517TIP3    H126110   4.223   1.153   8.531 -0.9313 -0.2577  0.3543
 1517TIP3    H226111   4.263   1.116   8.672  0.5023 -0.0446  0.0218
 1518TIP3   OH226112   2.632   5.517   0.102 -0.6704 -0.0262 -0.5373
 1518TIP3    H126113   2.599   5.555   0.020 -2.3774  0.7719  0.4867
 1518TIP3    H226114   2.586   5.434   0.110  2.1184 -1.8941 -2.1127
 1519TIP3   OH226115   3.400   2.593   2.201 -0.3525 -0.3961  0.1951
 1519TIP3    H126116   3.479   2.580   2.255  0.1347 -0.0001 -0.4132
 1519TIP3    H226117   3.388   2.688   2.199 -0.3712 -0.4130 -0.3959
 1520TIP3   OH226118   4.318   4.027   6.879 -0.1236 -0.0434 -0.2090
 1520TIP3    H126119   4.408   4.035   6.847 -0.2772  1.2888 -0.3669
 1520TIP3    H226120   4.291   4.116   6.898 -1.7373 -0.3040 -1.0641
 1521TIP3   OH226121   3.045   5.875   7.466  0.1396  0.5366  0.2152
 1521TIP3    H126122   3.037   5.797   7.521 -0.4381 -0.5243 -1.2917
 1521TIP3    H226123   3.139   5.887   7.454  0.3671  1.6563  2.5393
 1522TIP3   OH226124   4.342   6.076   1.562  0.0999 -0.0753 -0.1623
 1522TIP3    H126125   4.326   6.055   1.470 -1.2003  0.8995 -0.1975
 1522TIP3    H226126   4.418   6.024   1.587 -0.9622 -2.1790 -1.1285
 1523TIP3   OH226127   4.760   5.427   0.795 -0.0038  0.5576 -0.5775
 1523TIP3    H126128   4.724   5.356   0.742 -1.0802  0.4138  0.3000
 1523TIP3    H226129   4.855   5.419   0.786 -0.1463  0.3230 -2.1778
 1524TIP3   OH226130   0.312   1.950   6.627  0.4764  0.0864  0.1256
 1524TIP3    H126131   0.289   2.037   6.659 -0.3414  1.0982 -2.8264
 1524TIP3    H226132   0.228   1.906   6.614  0.8224 -0.6694  0.3918
 1525TIP3   OH226133   3.545   4.167   7.386 -0.3522 -0.1402  0.3574
 1525TIP3    H126134   3.641   4.169   7.387 -0.3373 -0.6138  0.3180
 1525TIP3    H226135   3.520   4.226   7.316  0.0034 -1.9860 -1.4246
 1526TIP3   OH226136   6.776   6.477   6.780 -0.1953 -0.4080  0.0481
 1526TIP3    H126137   6.758   6.403   6.838  0.9992  0.4686  1.6315
 1526TIP3    H226138   6.693   6.524   6.774 -0.2971 -0.4218  1.2030
 1527TIP3   OH226139   0.530   2.172   0.955  0.2024 -0.0215 -0.2420
 1527TIP3    H126140   0.616   2.150   0.918  1.1859  0.7964  1.4248
 1527TIP3    H226141   0.483   2.089   0.958  1.2074 -0.6197 -0.5380
 1528TIP3   OH226142   5.407   0.728   0.376  0.1259 -0.0521 -0.3317
 1528TIP3    H126143   5.451   0.668   0.437 -0.1456  1.8445  1.8826
 1528TIP3    H226144   5.324   0.749   0.420  0.7843  2.9182 -0.3420
 1529TIP3   OH226145   5.708   2.436   8.255 -0.2148  0.5876  0.3437
 1529TIP3    H126146   5.657   2.412   8.333  1.9047  0.5825  1.8503
 1529TIP3    H226147   5.754   2.516   8.280  1.2695  0.0519 -0.4989
 1530TIP3   OH226148   5.405   3.609   0.718  0.2627 -0.7495 -0.4195
 1530TIP3    H126149   5.473   3.591   0.783 -0.8005  1.5519  1.4634
 1530TIP3    H226150   5.453   3.647   0.644  1.0854  1.2148  1.0307
 1531TIP3   OH226151   1.391   5.193   0.131  0.7893 -0.1913 -0.0664
 1531TIP3    H126152   1.322   5.258   0.117 -0.4671 -1.6764 -1.0983
 1531TIP3    H226153   1.399   5.148   0.047  0.2540 -2.6624  1.1292
 1532TIP3   OH226154   0.209   1.051   0.750 -0.2453 -0.2518 -0.6229
 1532TIP3    H126155   0.296   1.026   0.718  0.3514  0.5311  0.3564
 1532TIP3    H226156   0.224   1.087   0.837 -1.6116 -0.5033 -0.2519
 1533TIP3   OH226157   6.538   0.125   0.252 -0.0176 -0.0888  0.2276
 1533TIP3    H126158   6.471   0.160   0.193 -0.7616 -2.0454 -0.1396
 1533TIP3    H226159   6.491   0.067   0.312  1.3380 -1.6309 -0.1316
 1534TIP3   OH226160   0.565   1.563   0.427 -0.2939  0.5043 -0.0944
 1534TIP3    H126161   0.549   1.511   0.349  0.1893  1.6242 -0.9572
 1534TIP3    H226162   0.582   1.651   0.395 -1.8501  1.4016  1.3693
 1535TIP3   OH226163   4.243   1.353   8.284  0.0965 -0.2265 -0.0985
 1535TIP3    H126164   4.183   1.323   8.353  0.6164  1.2935  1.0780
 1535TIP3    H226165   4.298   1.277   8.265 -1.7226 -1.4605 -0.7385
 1536TIP3   OH226166   2.246   2.999   2.909  0.1768  0.3740  0.2248
 1536TIP3    H126167   2.262   2.910   2.878 -2.1967  0.2204 -0.8079
 1536TIP3    H226168   2.310   3.053   2.864  1.0707 -0.6829  0.1883
 1537TIP3   OH226169   2.265   0.654   5.955 -0.0972  0.3790 -0.1046
 1537TIP3    H126170   2.245   0.714   6.027  0.6912 -0.1353  0.5639
 1537TIP3    H226171   2.334   0.698   5.906 -1.0120  0.9792 -0.8919
 1538TIP3   OH226172   1.612   4.927   2.262 -0.3725  0.2032 -0.1157
 1538TIP3    H126173   1.591   5.019   2.278  0.6982  0.6695 -1.2446
 1538TIP3    H226174   1.688   4.910   2.319 -0.5898  0.0059  0.1161
 1539TIP3   OH226175   6.605   0.761   7.093  0.0205 -0.6913 -0.2450
 1539TIP3    H126176   6.626   0.699   7.163  1.6232  0.0817  0.0034
 1539TIP3    H226177   6.684   0.815   7.084 -1.1533  1.0255 -0.7598
 1540TIP3   OH226178   4.696   6.624   2.042 -0.0677 -0.0904  0.4070
 1540TIP3    H126179   4.657   6.608   2.128  0.3932 -2.4795  0.2532
 1540TIP3    H226180   4.621   6.625   1.981 -0.2784  0.2245  0.6696
 1541TIP3   OH226181   2.618   6.336   7.729 -0.1629 -0.1972 -0.3645
 1541TIP3    H126182   2.572   6.332   7.645  0.4991  0.8200 -0.8024
 1541TIP3    H226183   2.558   6.381   7.788 -0.7432 -1.1612 -0.2010
 1542TIP3   OH226184   2.619   1.386   6.944  0.3213  0.6221 -0.5951
 1542TIP3    H126185   2.564   1.450   6.899 -0.4756 -1.3842 -2.7040
 1542TIP3    H226186   2.699   1.383   6.891  0.1132 -0.4993 -0.8669
 1543TIP3   OH226187   1.338   1.609   6.193  0.1719  0.5784  0.5107
 1543TIP3    H126188   1.273   1.562   6.245  0.4681  0.4602  0.7822
 1543TIP3    H226189   1.291   1.681   6.152 -0.4861 -0.4120 -0.5605
 1544TIP3   OH226190   3.726   1.466   8.460 -0.2470  0.0501  0.1716
 1544TIP3    H126191   3.737   1.405   8.533  0.7572 -0.1928 -0.1745
 1544TIP3    H226192   3.795   1.443   8.398  0.3234  1.7064  0.1436
 1545TIP3   OH226193   5.541   1.198   7.800 -0.3184  0.0836 -0.3659
 1545TIP3    H126194   5.504   1.273   7.754 -0.4722  1.3390  1.6682
 1545TIP3    H226195   5.585   1.147   7.732 -0.2935  1.9640 -1.8419
 1546TIP3   OH226196   6.290   0.180   2.269 -0.4774 -0.5831  0.1403
 1546TIP3    H126197   6.207   0.136   2.289 -0.7178  0.4872  1.6232
 1546TIP3    H226198   6.276   0.271   2.295  0.7949 -0.1315 -0.6683
 1547TIP3   OH226199   2.349   0.498   1.379 -0.7541  0.4714 -0.0735
 1547TIP3    H126200   2.360   0.407   1.350  0.3705  0.3791  0.5880
 1547TIP3    H226201   2.290   0.536   1.314 -0.2248 -0.3873 -1.1046
 1548TIP3   OH226202   5.855   3.169   7.731  0.1275  0.1967  0.2708
 1548TIP3    H126203   5.898   3.226   7.795  1.8934 -0.6089 -0.1455
 1548TIP3    H226204   5.908   3.177   7.652 -1.8577  0.9745 -1.0755
 1549TIP3   OH226205   6.250   5.895   0.983 -0.3862  0.5815  0.1222
 1549TIP3    H126206   6.224   5.987   0.994 -0.6733  0.5327 -0.1337
 1549TIP3    H226207   6.179   5.856   0.932  0.4682  0.5990 -1.1448
 1550TIP3   OH226208   5.157   0.576   1.698 -0.1863 -0.6512 -0.3073
 1550TIP3    H126209   5.215   0.639   1.740 -0.2525 -0.6106 -0.2768
 1550TIP3    H226210   5.212   0.498   1.685 -0.3014 -0.8451  0.3262
 1551TIP3   OH226211   0.128   6.622   8.171 -0.6225 -0.4426  0.4677
 1551TIP3    H126212   0.168   6.548   8.126 -0.0093  1.4787 -2.4783
 1551TIP3    H226213   0.202   6.671   8.207 -0.7506  0.3024 -0.2633
 1552TIP3   OH226214   3.325   0.771   1.533  0.1693 -0.2583  0.1554
 1552TIP3    H126215   3.310   0.710   1.461 -1.9800 -1.6286  1.6476
 1552TIP3    H226216   3.391   0.832   1.499 -3.3560  1.5793 -4.3748
 1553TIP3   OH226217   4.734   5.925   1.505 -0.5865  0.2597 -0.2533
 1553TIP3    H126218   4.826   5.900   1.518  0.2220  2.1048 -1.9608
 1553TIP3    H226219   4.727   6.012   1.545 -1.3214  0.5469 -0.9892
 1554TIP3   OH226220   0.442   3.998   6.947  0.6099  0.5738 -0.1919
 1554TIP3    H126221   0.467   3.906   6.935 -5.1634 -1.3246 -0.7205
 1554TIP3    H226222   0.421   4.029   6.859 -0.5355  1.2512  0.2937
 1555TIP3   OH226223   4.667   2.486   0.637 -0.0734  0.4409  0.2949
 1555TIP3    H126224   4.713   2.537   0.704 -1.5194  1.6390  0.4282
 1555TIP3    H226225   4.677   2.395   0.665  2.3813  0.6033  0.1692
 1556TIP3   OH226226   5.173   4.665   1.674 -0.1733  0.3067 -0.3042
 1556TIP3    H126227   5.174   4.613   1.594 -2.3548  1.4319 -1.1507
 1556TIP3    H226228   5.157   4.602   1.744 -1.5636 -0.3242 -1.1575
 1557TIP3   OH226229   2.152   5.077   1.475  0.2060  0.4600 -0.2652
 1557TIP3    H126230   2.224   5.139   1.468  1.7405 -0.7366  2.9242
 1557TIP3    H226231   2.155   5.048   1.566 -3.5389 -0.6443 -0.3593
 1558TIP3   OH226232   6.462   6.031   7.510 -0.4231 -0.4893 -0.1261
 1558TIP3    H126233   6.470   5.996   7.421 -0.8932  0.6824 -0.6443
 1558TIP3    H226234   6.397   6.100   7.503  0.2694  0.3011  0.9350
 1559TIP3   OH226235   2.475   0.695   0.719  0.3071  0.1210 -0.4623
 1559TIP3    H126236   2.489   0.678   0.812  0.0431  0.2124 -0.4059
 1559TIP3    H226237   2.430   0.617   0.687  0.7072 -0.0616 -0.5895
 1560TIP3   OH226238   4.975   3.283   6.662  0.3636  0.5238  0.2066
 1560TIP3    H126239   4.988   3.191   6.686 -0.9358 -0.1863 -1.5720
 1560TIP3    H226240   4.988   3.285   6.567  2.7097  2.6662  0.4618
 1561TIP3   OH226241   3.555   4.198   8.019  0.6797  0.0294 -0.1222
 1561TIP3    H126242   3.503   4.166   8.093  0.4044  1.4936  0.3389
 1561TIP3    H226243   3.527   4.144   7.945 -0.7089  0.0580  0.3537
 1562TIP3   OH226244   2.993   2.696   8.212  0.0253 -0.1935  0.2151
 1562TIP3    H126245   2.977   2.604   8.192 -0.3207 -0.2816  0.8670
 1562TIP3    H226246   2.917   2.742   8.177  0.5956 -0.0503 -0.8570
 1563TIP3   OH226247   2.848   5.066   0.279  0.0026 -0.0292 -0.0790
 1563TIP3    H126248   2.846   4.988   0.335  0.3307  0.3146  0.4160
 1563TIP3    H226249   2.919   5.050   0.218 -1.3700 -1.1317 -1.4840
 1564TIP3   OH226250   2.028   4.709   0.801 -0.9653 -0.1411 -0.2563
 1564TIP3    H126251   1.974   4.784   0.779  0.1744  0.9924  0.6796
 1564TIP3    H226252   2.021   4.701   0.897  0.6849  0.1926 -0.0823
 1565TIP3   OH226253   0.015   0.718   8.479  0.6831 -0.4761  0.6546
 1565TIP3    H126254  -0.066   0.701   8.529  1.9219 -1.1424  2.5550
 1565TIP3    H226255   0.027   0.639   8.426 -0.0087 -0.2808  0.1940
 1566TIP3   OH226256   4.192   3.400   1.772  0.3726 -0.3627 -0.5508
 1566TIP3    H126257   4.239   3.319   1.794  0.6125  0.1705  1.0200
 1566TIP3    H226258   4.261   3.466   1.763  0.0568  0.0484 -0.0009
 1567TIP3   OH226259   1.449   5.385   6.916 -0.1339  0.3453  0.1199
 1567TIP3    H126260   1.461   5.388   6.822 -0.6962  0.7315  0.0492
 1567TIP3    H226261   1.432   5.293   6.936 -0.4864  0.3329 -0.2240
 1568TIP3   OH226262   4.457   1.411   8.677 -0.0127  0.5484  0.3570
 1568TIP3    H126263   4.499   1.494   8.655  0.7579  0.0478 -0.0940
 1568TIP3    H226264   4.364   1.433   8.684  0.1797  1.4490  0.2501
 1569TIP3   OH226265   1.877   0.623   8.242 -0.3000  0.3670  0.1765
 1569TIP3    H126266   1.923   0.570   8.177  0.5732 -1.4974  2.2178
 1569TIP3    H226267   1.798   0.573   8.262 -0.5790  0.9410  0.5524
 1570TIP3   OH226268   0.686   1.110   0.078 -0.8053 -0.0082 -0.8923
 1570TIP3    H126269   0.607   1.065   0.109  1.8650 -3.1172  2.2603
 1570TIP3    H226270   0.704   1.070  -0.007 -2.4819  0.6327 -1.5826
 1571TIP3   OH226271   5.505   1.022   8.749  0.1331 -0.3323 -0.7264
 1571TIP3    H126272   5.456   1.087   8.799  0.6354 -1.2864  1.0960
 1571TIP3    H226273   5.445   0.993   8.681 -0.9669  0.2491 -0.0280
 1572TIP3   OH226274   3.346   3.837   1.493  0.4523 -0.1852 -0.3885
 1572TIP3    H126275   3.380   3.748   1.496 -0.4543 -0.5193  1.6116
 1572TIP3    H226276   3.270   3.832   1.435 -0.6578 -1.1635  1.0801
 1573TIP3   OH226277   5.908   2.815   1.512  0.5819  0.0883  0.7898
 1573TIP3    H126278   5.961   2.886   1.550  1.8846  0.6633 -1.8307
 1573TIP3    H226279   5.971   2.745   1.495  0.0208 -0.2386 -0.0077
 1574TIP3   OH226280   5.198   1.754   7.958  0.3327  0.0900  0.3017
 1574TIP3    H126281   5.125   1.703   7.992 -1.1507  3.0600  1.9777
 1574TIP3    H226282   5.271   1.733   8.017  0.4518 -1.7241 -0.4330
 1575TIP3   OH226283   0.590   0.752   7.428  0.2873  0.0176  0.1458
 1575TIP3    H126284   0.683   0.730   7.420 -0.2237 -2.3104 -0.2040
 1575TIP3    H226285   0.547   0.669   7.449 -1.9290  0.6562 -1.3951
 1576TIP3   OH226286   6.695   5.365   1.208 -0.0366  0.1568  0.2517
 1576TIP3    H126287   6.766   5.390   1.150  0.5258  0.3279  0.9976
 1576TIP3    H226288   6.732   5.298   1.265 -0.8628 -0.7162 -0.2159
 1577TIP3   OH226289   2.168   1.659   1.739  0.2264 -0.2401  0.2748
 1577TIP3    H126290   2.105   1.728   1.762  2.0205  1.8103 -0.6010
 1577TIP3    H226291   2.168   1.658   1.644  0.9892 -0.7285  0.2735
 1578TIP3   OH226292   3.343   0.274   7.905  0.1358 -0.6681 -0.0286
 1578TIP3    H126293   3.294   0.281   7.822  1.0123 -0.7860 -0.5646
 1578TIP3    H226294   3.275   0.276   7.972 -0.5561 -0.0630 -0.7241
 1579TIP3   OH226295   3.782   0.674   7.204  0.0851  0.6530  0.2211
 1579TIP3    H126296   3.820   0.694   7.118 -0.8844 -0.5409 -0.5109
 1579TIP3    H226297   3.688   0.669   7.188  0.0113 -1.2364  1.0014
 1580TIP3   OH226298   4.101   6.416   1.501  0.2476 -0.2799  0.0468
 1580TIP3    H126299   4.136   6.353   1.563 -0.7843 -1.5145 -0.5944
 1580TIP3    H226300   4.072   6.364   1.427 -1.7452  0.8118 -0.0093
 1581TIP3   OH226301   5.889   4.201   0.575  0.0538 -0.0883  0.3711
 1581TIP3    H126302   5.804   4.177   0.613 -0.1611 -0.0178 -0.0524
 1581TIP3    H226303   5.905   4.134   0.509 -0.4135  0.7412 -0.6218
 1582TIP3   OH226304   0.629   4.110   8.692 -0.1661 -0.0810 -0.7981
 1582TIP3    H126305   0.623   4.159   8.773  0.3256 -1.3458  0.0345
 1582TIP3    H226306   0.539   4.085   8.671 -0.3735  0.8527 -1.0396
 1583TIP3   OH226307   1.488   2.853   8.257  0.0973  0.1597 -0.0599
 1583TIP3    H126308   1.547   2.790   8.296  0.6222 -0.4135 -1.6944
 1583TIP3    H226309   1.505   2.847   8.163 -2.2902  0.2488 -0.5636
 1584TIP3   OH226310   0.428   6.754   0.979 -0.1284 -0.0117  0.1602
 1584TIP3    H126311   0.395   6.687   1.039 -1.3523  0.0365 -0.4262
 1584TIP3    H226312   0.453   6.826   1.036 -0.0287 -0.4713  0.7060
 1585TIP3   OH226313   3.073   2.470   0.085 -0.3291  0.0529  0.5456
 1585TIP3    H126314   2.997   2.438   0.036  0.1818 -0.4041  0.0275
 1585TIP3    H226315   3.143   2.474   0.019  0.5967 -1.3392  1.3990
 1586TIP3   OH226316   2.856   0.009   8.578  0.3914 -0.0656 -0.0575
 1586TIP3    H126317   2.881   0.056   8.499  0.3877 -0.4904 -0.3096
 1586TIP3    H226318   2.790  -0.054   8.549  1.5716 -1.3588 -0.0148
 1587TIP3   OH226319   0.113   5.809   1.616  0.5222 -0.1699  0.4128
 1587TIP3    H126320   0.183   5.861   1.657 -0.6758  1.9540 -0.0922
 1587TIP3    H226321   0.034   5.832   1.665 -0.0427 -1.6943  0.2776
 1588TIP3   OH226322   4.833   5.324   2.378  0.1220 -0.2469 -0.6669
 1588TIP3    H126323   4.818   5.231   2.393  2.4984 -0.7295 -0.9695
 1588TIP3    H226324   4.791   5.368   2.452  1.0180 -1.7272  0.7791
 1589TIP3   OH226325   5.557   3.218   0.924  0.5090 -0.0613 -0.2882
 1589TIP3    H126326   5.576   3.149   0.860  3.2968  1.0698 -0.8086
 1589TIP3    H226327   5.575   3.177   1.009  2.6513  0.1142 -0.6214
 1590TIP3   OH226328   6.109   5.603   6.395 -0.3300  0.8495  0.0312
 1590TIP3    H126329   6.100   5.691   6.359 -2.5851  0.3386 -0.8528
 1590TIP3    H226330   6.104   5.545   6.320  0.2580 -0.0674  0.6795
 1591TIP3   OH226331   1.273   4.671   8.790 -0.1628  0.3575 -0.5646
 1591TIP3    H126332   1.331   4.595   8.791  0.0629  0.5299  0.3389
 1591TIP3    H226333   1.323   4.739   8.743 -0.2038  0.0788 -1.0164
 1592TIP3   OH226334   0.714   4.863   8.436  0.2974  0.1692 -0.3078
 1592TIP3    H126335   0.623   4.892   8.446  0.3486  0.0370  0.6207
 1592TIP3    H226336   0.725   4.795   8.502  1.1758  0.4475 -0.1502
 1593TIP3   OH226337   2.242   0.824   6.205  0.0561  0.2082  0.7366
 1593TIP3    H126338   2.196   0.813   6.289 -0.7600  0.7208  0.3664
 1593TIP3    H226339   2.334   0.807   6.226 -0.2082 -0.1725  1.6322
 1594TIP3   OH226340   1.615   1.635   7.803 -0.1282  0.3853 -0.3118
 1594TIP3    H126341   1.528   1.642   7.841 -0.9358 -0.8400 -1.8169
 1594TIP3    H226342   1.609   1.685   7.721  0.4765  0.0223 -0.5842
 1595TIP3   OH226343   1.890   5.410   1.757  0.7947  0.5681 -0.0610
 1595TIP3    H126344   1.832   5.470   1.710 -0.6052 -0.2813  0.5231
 1595TIP3    H226345   1.831   5.347   1.797  2.1457 -0.3261  0.5709
 1596TIP3   OH226346   5.063   1.334   2.205 -0.0153 -0.1676 -0.0138
 1596TIP3    H126347   4.996   1.312   2.141  0.2540 -2.2403  0.3261
 1596TIP3    H226348   5.014   1.371   2.279 -0.4598  0.9490 -0.8350
 1597TIP3   OH226349   0.068   2.782   1.045 -0.4531  0.0054  0.9891
 1597TIP3    H126350   0.144   2.735   1.078 -0.5396  0.9557  2.7177
 1597TIP3    H226351   0.021   2.808   1.124 -1.4747  1.2033  0.0294
 1598TIP3   OH226352   1.764   5.233   7.035 -0.3869 -0.0863  0.4248
 1598TIP3    H126353   1.859   5.226   7.038 -0.3323  0.3521 -0.1233
 1598TIP3    H226354   1.741   5.213   6.944 -0.6270  1.8575  0.0133
 1599TIP3   OH226355   0.639   6.191   1.365  0.1787 -0.2345  0.4619
 1599TIP3    H126356   0.616   6.163   1.454 -0.4872 -0.7916  0.1275
 1599TIP3    H226357   0.663   6.110   1.320  0.0073 -0.0243 -0.0132
 1600TIP3   OH226358   2.807   2.279   7.845  0.3758 -0.0632 -0.2070
 1600TIP3    H126359   2.853   2.363   7.838 -0.0713  0.1658 -0.4087
 1600TIP3    H226360   2.837   2.243   7.929 -0.8436  1.1755  0.8262
 1601TIP3   OH226361   4.799   0.367   8.029  0.3436  0.3356 -0.5716
 1601TIP3    H126362   4.872   0.369   7.967 -0.6359  1.3822 -1.7477
 1601TIP3    H226363   4.823   0.431   8.096  0.8628  0.0763 -0.5019
 1602TIP3   OH226364   0.121   1.839   8.557  0.0378 -0.6068  0.1740
 1602TIP3    H126365   0.108   1.893   8.478 -1.3714 -0.4773  0.4616
 1602TIP3    H226366   0.210   1.859   8.585 -0.4964  1.7919  0.4075
 1603TIP3   OH226367   0.835   5.674   0.203 -0.4743 -0.0121 -0.0124
 1603TIP3    H126368   0.850   5.631   0.286  0.6122  1.2057  0.4585
 1603TIP3    H226369   0.745   5.651   0.179 -1.1021  0.3117  1.9132
 1604TIP3   OH226370   0.485   4.322   7.805 -0.0418 -0.6782  0.1785
 1604TIP3    H126371   0.525   4.387   7.746 -1.0314 -0.6755 -0.5056
 1604TIP3    H226372   0.551   4.309   7.873  1.0950 -0.5871 -0.8564
 1605TIP3   OH226373   5.769   0.015   0.156 -0.1733 -0.2944 -0.2159
 1605TIP3    H126374   5.734  -0.070   0.181  1.6576 -1.2251 -0.6206
 1605TIP3    H226375   5.858   0.016   0.191  0.3320  0.8677 -1.4204
 1606TIP3   OH226376   6.435   5.189   6.594 -0.4337 -0.2876  0.7170
 1606TIP3    H126377   6.364   5.191   6.657  0.4788 -1.3098  1.8188
 1606TIP3    H226378   6.455   5.281   6.577 -2.0696  0.0256  0.2746
 1607TIP3   OH226379   4.180   2.451   0.214 -0.4239  0.0002  0.4231
 1607TIP3    H126380   4.261   2.407   0.190 -0.1939  0.0454  1.1018
 1607TIP3    H226381   4.140   2.476   0.130  0.6070  0.6255  0.1102
 1608TIP3   OH226382   4.348   2.361   2.767  0.2334 -0.0563 -0.2567
 1608TIP3    H126383   4.435   2.373   2.730 -0.3357  0.3770 -1.5019
 1608TIP3    H226384   4.288   2.388   2.698 -0.9573 -2.2897 -0.1891
 1609TIP3   OH226385   5.128   1.387   1.616 -0.1713  0.2612  0.1021
 1609TIP3    H126386   5.186   1.443   1.565 -0.6013  1.2667  0.6990
 1609TIP3    H226387   5.077   1.339   1.550 -0.5682  1.3824 -0.4305
 1610TIP3   OH226388   0.752   1.992   1.172 -0.5706 -0.1053  0.3418
 1610TIP3    H126389   0.704   1.935   1.231  0.5921  0.0900  1.5136
 1610TIP3    H226390   0.687   2.019   1.106 -1.4176 -1.8227  0.4285
 1611TIP3   OH226391   5.734   5.213   1.683  0.4556 -0.1656  0.0520
 1611TIP3    H126392   5.742   5.206   1.778  0.5411 -1.6128 -0.0516
 1611TIP3    H226393   5.776   5.134   1.649  0.3247  0.2795 -1.1916
 1612TIP3   OH226394   0.007   5.535   0.269  0.3030  0.9117  0.2991
 1612TIP3    H126395   0.094   5.570   0.289 -0.8549  3.6196  0.9871
 1612TIP3    H226396  -0.017   5.483   0.346  0.9747  0.8169  0.4464
 1613TIP3   OH226397   5.658   4.784   8.147 -0.2437 -0.0866  0.4485
 1613TIP3    H126398   5.708   4.830   8.079 -1.2489  0.3993  0.0121
 1613TIP3    H226399   5.719   4.719   8.182  0.6734  0.4611 -0.0900
 1614TIP3   OH226400   1.275   6.544   2.121 -0.0073  0.3417  0.0442
 1614TIP3    H126401   1.337   6.534   2.193  0.2836 -0.5099 -0.3123
 1614TIP3    H226402   1.228   6.461   2.118  0.1537  0.2693 -0.8989
 1615TIP3   OH226403   3.540   6.496   8.237  1.0085 -0.3017  0.1271
 1615TIP3    H126404   3.523   6.500   8.143  0.8578  0.5825  0.1781
 1615TIP3    H226405   3.590   6.576   8.255 -0.7658  0.6574  1.1365
 1616TIP3   OH226406   1.653   5.771   0.857 -0.0448  0.3590 -0.0300
 1616TIP3    H126407   1.714   5.845   0.851  0.4916 -0.0410  0.4022
 1616TIP3    H226408   1.708   5.694   0.840 -0.5977  0.0564 -0.4634
 1617TIP3   OH226409   4.550   5.308   7.330 -0.3267 -0.0853  0.0926
 1617TIP3    H126410   4.501   5.266   7.259 -2.3574  3.4751 -0.8225
 1617TIP3    H226411   4.526   5.258   7.408 -0.4942 -2.1929 -1.2220
 1618TIP3   OH226412   0.202   6.687   0.092 -0.2990  0.0832 -0.2422
 1618TIP3    H126413   0.160   6.618   0.041 -1.5045 -0.1797  1.0567
 1618TIP3    H226414   0.148   6.764   0.078  0.9324  0.7732 -1.5262
 1619TIP3   OH226415   2.756   6.606   7.531 -0.0194 -0.0657  0.1440
 1619TIP3    H126416   2.660   6.611   7.526 -0.1112  0.2413  1.6648
 1619TIP3    H226417   2.774   6.512   7.537 -0.3223 -0.0856  0.9613
 1620TIP3   OH226418   4.915   6.668   7.974 -0.2881 -0.0023  0.8458
 1620TIP3    H126419   4.993   6.674   8.029  0.1131  1.6425  0.1836
 1620TIP3    H226420   4.919   6.580   7.937  1.2382  0.0099  0.8872
 1621TIP3   OH226421   2.248   5.465   7.503  0.4702 -0.4910  0.5533
 1621TIP3    H126422   2.331   5.506   7.479 -0.5249  0.7521 -0.9158
 1621TIP3    H226423   2.182   5.509   7.449 -1.4291 -0.1818  2.9364
 1622TIP3   OH226424   4.035   1.783   2.369  0.1230 -0.4613 -0.4645
 1622TIP3    H126425   3.946   1.755   2.391 -1.1017  3.0328 -0.4662
 1622TIP3    H226426   4.071   1.816   2.451  1.2822 -1.2938 -0.5991
 1623TIP3   OH226427   3.053   5.039   7.590  0.0587  0.1597 -0.3727
 1623TIP3    H126428   3.058   5.135   7.592 -1.5849  0.2735  2.1485
 1623TIP3    H226429   2.960   5.020   7.603  0.6578 -1.7924  1.4519
 1624TIP3   OH226430   3.762   3.047   8.751  0.0875  0.6616 -0.6872
 1624TIP3    H126431   3.680   3.037   8.799  0.4916 -0.1756 -0.1375
 1624TIP3    H226432   3.821   3.091   8.813 -0.3132  2.4714 -1.5321
 1625TIP3   OH226433   1.787   3.460   8.849 -0.3234 -0.3937  0.2043
 1625TIP3    H126434   1.746   3.500   8.772 -0.3394 -1.3259 -0.2879
 1625TIP3    H226435   1.745   3.374   8.855 -0.6712 -0.1512  1.5445
 1626TIP3   OH226436   0.503   0.950   1.363  0.3768 -0.3263  0.6632
 1626TIP3    H126437   0.519   0.952   1.269  0.3754  1.2357  0.6641
 1626TIP3    H226438   0.480   1.040   1.386  2.6071 -0.1156  2.5200
 1627TIP3   OH226439   2.071   1.552   8.171  0.2060 -0.2354  0.1565
 1627TIP3    H126440   2.076   1.497   8.249  0.9111  1.3386  1.2697
 1627TIP3    H226441   2.127   1.508   8.107 -1.8403 -2.5688 -0.2206
 1628TIP3   OH226442   0.685   3.119   8.863 -0.1635  0.0026  0.2049
 1628TIP3    H126443   0.727   3.197   8.827  0.9477 -0.6616  0.0214
 1628TIP3    H226444   0.756   3.068   8.900 -0.5407 -1.9591 -1.5935
 1629TIP3   OH226445   6.010   5.548   1.265  0.7244  0.2696 -0.5511
 1629TIP3    H126446   6.031   5.480   1.202  0.4081  0.3115 -0.7014
 1629TIP3    H226447   5.937   5.596   1.226 -1.4517 -1.5091  1.1201
 1630TIP3   OH226448   4.677   5.195   8.586 -0.1430  0.0911  0.0506
 1630TIP3    H126449   4.677   5.134   8.512  1.3846 -0.2334  0.2782
 1630TIP3    H226450   4.768   5.226   8.592 -0.2575  0.2105  1.6909
 1631TIP3   OH226451   2.006   4.884   1.340  0.2926 -0.3074  0.0067
 1631TIP3    H126452   2.019   4.975   1.367  0.6285 -0.0601 -0.9544
 1631TIP3    H226453   2.088   4.859   1.297  0.1414 -1.0095  0.1118
 1632TIP3   OH226454   4.786   3.948   0.620  0.1137  0.4218  0.3513
 1632TIP3    H126455   4.716   3.883   0.623  0.2365  0.1791 -1.2360
 1632TIP3    H226456   4.748   4.021   0.572  0.2159  1.2562  1.5034
 1633TIP3   OH226457   0.856   2.203   8.413 -0.4861  0.2483 -0.2868
 1633TIP3    H126458   0.914   2.141   8.368 -0.4357 -0.3502  0.5830
 1633TIP3    H226459   0.800   2.148   8.468 -0.6091  0.9586  0.3090
 1634TIP3   OH226460   0.088   3.895   1.687 -0.5228  0.2537 -0.7067
 1634TIP3    H126461   0.120   3.970   1.738  0.4078  0.1668 -1.1362
 1634TIP3    H226462   0.126   3.908   1.600 -1.4514 -0.0169 -1.1583
 1635TIP3   OH226463   5.989   0.573   0.446 -0.4004  0.4869 -0.2929
 1635TIP3    H126464   6.042   0.528   0.512 -0.4264  0.7579 -0.0855
 1635TIP3    H226465   6.009   0.665   0.458  0.0702  0.4902 -1.0847
 1636TIP3   OH226466   0.820   2.247   0.472 -0.4493 -0.5002 -0.4355
 1636TIP3    H126467   0.827   2.186   0.398 -0.5224 -0.3077 -0.6014
 1636TIP3    H226468   0.726   2.265   0.479 -0.3582  0.1801 -0.8678
 1637TIP3   OH226469   0.677   4.274   8.471  0.1828  0.0063  0.1687
 1637TIP3    H126470   0.679   4.216   8.547  3.9751 -0.7568 -0.3295
 1637TIP3    H226471   0.666   4.214   8.397 -2.2081  0.6335 -0.0734
 1638TIP3   OH226472   4.662   4.063   7.659 -0.5213  0.4379 -0.2516
 1638TIP3    H126473   4.705   3.984   7.626  0.6533  1.2863 -0.8481
 1638TIP3    H226474   4.629   4.106   7.580 -1.2447  0.4947  0.0771
 1639TIP3   OH226475   6.300   4.691   2.367  0.9267 -0.0974  0.1685
 1639TIP3    H126476   6.334   4.779   2.351 -0.0968  0.0533 -1.4868
 1639TIP3    H226477   6.375   4.634   2.353  1.6165  0.4933  1.3238
 1640TIP3   OH226478   0.243   0.347   0.408 -0.3149 -0.0100  0.5105
 1640TIP3    H126479   0.265   0.288   0.337 -0.1898 -0.1434  0.6609
 1640TIP3    H226480   0.298   0.319   0.482 -2.1271 -1.4000  1.4093
 1641TIP3   OH226481   3.320   1.090   6.656  0.7220 -0.4656 -0.2059
 1641TIP3    H126482   3.314   1.013   6.712 -0.9563  0.1845  0.5692
 1641TIP3    H226483   3.412   1.094   6.630  1.2718 -1.5086  1.4608
 1642TIP3   OH226484   2.284   3.087   0.501  0.0486 -0.0191 -0.1739
 1642TIP3    H126485   2.338   3.108   0.425  1.2587  1.6785  1.0821
 1642TIP3    H226486   2.275   3.170   0.548 -3.0461 -0.3942  0.1103
 1643TIP3   OH226487   1.418   1.518   7.615  0.1394 -0.0012  0.3942
 1643TIP3    H126488   1.479   1.556   7.552 -0.3459  0.3501  0.1278
 1643TIP3    H226489   1.362   1.591   7.641 -0.0411 -0.2747  0.7840
 1644TIP3   OH226490   2.894   5.728   8.292 -0.2950 -0.2170 -0.1078
 1644TIP3    H126491   2.925   5.813   8.259 -0.4022  0.3406  1.1562
 1644TIP3    H226492   2.833   5.751   8.363 -1.8423 -1.3344 -1.0263
 1645TIP3   OH226493   0.324   4.112   6.707  0.1945 -0.2476  0.0154
 1645TIP3    H126494   0.312   4.050   6.635 -0.6242  1.2241 -1.1859
 1645TIP3    H226495   0.241   4.111   6.753  0.5281 -0.7687  0.6231
 1646TIP3   OH226496   2.123   3.828   0.743 -0.1354  0.0649  0.1842
 1646TIP3    H126497   2.077   3.879   0.677 -0.4693  0.4338  0.6949
 1646TIP3    H226498   2.137   3.889   0.816  0.7237 -0.1805  0.2359
 1647TIP3   OH226499   4.228   5.952   8.228  1.0131 -0.1868  0.1999
 1647TIP3    H126500   4.206   5.928   8.318 -1.8593  1.5561  0.0644
 1647TIP3    H226501   4.310   6.001   8.235  1.0758 -0.4855  1.8061
 1648TIP3   OH226502   6.766   1.646   0.141 -0.0761  0.1025  0.0530
 1648TIP3    H126503   6.772   1.632   0.046 -0.8109 -0.7069  0.1099
 1648TIP3    H226504   6.853   1.677   0.167  0.9203 -2.0959 -0.4908
 1649TIP3   OH226505   5.107   4.045   0.326  0.0858  0.3249 -0.1417
 1649TIP3    H126506   5.196   4.073   0.305  0.6295  0.7387  2.3358
 1649TIP3    H226507   5.068   4.121   0.370 -0.7277 -0.5597  0.7125
 1650TIP3   OH226508   1.044   0.099   8.580  0.8298 -0.0588  0.1241
 1650TIP3    H126509   1.123   0.148   8.557  1.2255 -0.0762  1.3481
 1650TIP3    H226510   1.051   0.085   8.675 -0.6886  0.0131  0.2743
 1651TIP3   OH226511   2.402   2.510   0.539  0.4339  0.3679  0.0810
 1651TIP3    H126512   2.442   2.580   0.590  0.6187  1.0992 -1.0372
 1651TIP3    H226513   2.396   2.545   0.450 -2.0389  0.0343  0.0340
 1652TIP3   OH226514   1.664   2.416   1.504  0.3272  0.3730 -0.0568
 1652TIP3    H126515   1.621   2.450   1.583 -0.9343 -0.8993 -0.1502
 1652TIP3    H226516   1.750   2.388   1.534 -1.2621 -3.2743  1.7953
 1653TIP3   OH226517   5.397   0.667   6.903 -0.1293  0.2989 -0.1952
 1653TIP3    H126518   5.448   0.645   6.981 -0.3561  1.2400  0.2281
 1653TIP3    H226519   5.341   0.590   6.889  1.3046 -0.7093 -0.6201
 1654TIP3   OH226520   6.615   4.655   6.463  0.4376  0.7835  0.0839
 1654TIP3    H126521   6.688   4.700   6.421  2.1512 -1.0233  0.9450
 1654TIP3    H226522   6.558   4.725   6.494  1.3702  2.2423 -1.3130
 1655TIP3   OH226523   4.253   6.071   0.735  0.4052 -0.0387  0.2124
 1655TIP3    H126524   4.282   6.155   0.699  1.1989  0.5734  2.1499
 1655TIP3    H226525   4.225   6.021   0.658 -0.9990  2.3108 -0.9391
 1656TIP3   OH226526   2.777   2.806   8.097  0.2113  0.1480 -0.1005
 1656TIP3    H126527   2.696   2.755   8.108  0.0506  0.3984 -0.1130
 1656TIP3    H226528   2.774   2.870   8.169  1.0189 -0.6563  0.6701
 1657TIP3   OH226529   1.222   2.480   0.399 -0.3222  0.2707 -0.0295
 1657TIP3    H126530   1.162   2.446   0.465  1.4287 -0.2272  1.3838
 1657TIP3    H226531   1.166   2.530   0.339 -2.1708 -0.4874  0.9781
 1658TIP3   OH226532   3.796   3.353   8.587 -0.2263  0.1737  0.5491
 1658TIP3    H126533   3.744   3.365   8.508  0.2949 -0.6770  0.0639
 1658TIP3    H226534   3.734   3.319   8.652 -0.8714  1.7857  0.8207
 1659TIP3   OH226535   2.857   3.703   7.945 -0.7837 -0.1954  0.2059
 1659TIP3    H126536   2.941   3.674   7.981 -0.6398 -0.0166  0.0168
 1659TIP3    H226537   2.865   3.798   7.940 -0.9564 -0.1877  0.0879
 1660TIP3   OH226538   0.580   6.609   0.620  0.3460 -0.0533 -0.4670
 1660TIP3    H126539   0.641   6.659   0.567 -0.8531  0.7058 -1.1582
 1660TIP3    H226540   0.534   6.552   0.558 -1.5037  1.2765 -0.3987
 1661TIP3   OH226541   5.834   3.372   0.865  0.2329  0.1053  0.0317
 1661TIP3    H126542   5.865   3.299   0.919  0.2525  0.0565 -0.0450
 1661TIP3    H226543   5.891   3.371   0.788  2.4677  2.2731  1.4953
 1662TIP3   OH226544   6.146   5.004   6.874  0.1267  0.2997 -0.4774
 1662TIP3    H126545   6.121   5.085   6.830 -1.0488 -1.3013 -3.0279
 1662TIP3    H226546   6.148   4.939   6.804  0.9276 -1.9086  1.4724
 1663TIP3   OH226547   1.631   5.687   1.129 -0.4402 -0.3497 -0.1661
 1663TIP3    H126548   1.692   5.744   1.084 -0.6895  0.7954  0.8824
 1663TIP3    H226549   1.589   5.743   1.194 -1.6933 -1.4062 -0.0164
 1664TIP3   OH226550   1.471   5.299   1.659 -0.1283  0.3804  0.0623
 1664TIP3    H126551   1.487   5.362   1.729 -0.9749  0.6009  0.0574
 1664TIP3    H226552   1.376   5.294   1.651 -0.0714 -0.7383 -0.0852
 1665TIP3   OH226553   1.889   0.362   2.196  0.5925 -0.1918  0.8183
 1665TIP3    H126554   1.803   0.342   2.158  0.7597 -2.1154  1.3389
 1665TIP3    H226555   1.872   0.432   2.259 -0.6009 -0.5288  0.8944
 1666TIP3   OH226556   0.816   3.648   1.472  0.5140  0.2717 -0.3275
 1666TIP3    H126557   0.812   3.734   1.514 -2.5051  0.5965 -1.0260
 1666TIP3    H226558   0.814   3.667   1.378  3.5085 -0.5479 -0.6481
 1667TIP3   OH226559   2.760   2.230   1.809  0.5287  0.1137  0.5868
 1667TIP3    H126560   2.680   2.181   1.829  0.2626  0.0738 -0.4880
 1667TIP3    H226561   2.743   2.318   1.841 -1.1931  0.9421 -2.2075
 1668TIP3   OH226562   0.250   3.183   1.328  0.0536  0.2678  0.1502
 1668TIP3    H126563   0.171   3.192   1.275  1.0276 -0.5078 -1.5173
 1668TIP3    H226564   0.275   3.092   1.319  2.0883  0.8564 -0.8226
 1669TIP3   OH226565   5.930   2.655   0.214 -0.4490 -0.2183 -0.1546
 1669TIP3    H126566   5.982   2.732   0.193  0.1307 -0.7531 -0.7038
 1669TIP3    H226567   5.941   2.644   0.309 -0.1851  0.1171 -0.1452
 1670TIP3   OH226568   6.641   5.933   1.500 -0.3635 -0.0839  0.1996
 1670TIP3    H126569   6.565   5.891   1.459  0.4688  1.2267 -3.0140
 1670TIP3    H226570   6.717   5.886   1.464  0.4210  0.9414  0.4475
 1671TIP3   OH226571   3.752   6.342   6.494 -0.1899 -0.3653 -0.5439
 1671TIP3    H126572   3.765   6.248   6.479  0.0849 -0.3876 -0.1790
 1671TIP3    H226573   3.837   6.374   6.524 -0.6036 -0.2486  0.5736
 1672TIP3   OH226574   4.751   1.709   7.199 -0.3011 -0.2497  0.6641
 1672TIP3    H126575   4.704   1.722   7.281  1.4216  1.1459  1.4865
 1672TIP3    H226576   4.816   1.779   7.197  0.5152 -0.9937 -1.3112
 1673TIP3   OH226577   0.873   6.159   1.117 -0.2801 -0.6967  0.0253
 1673TIP3    H126578   0.875   6.088   1.054 -4.2947 -2.2714  1.3700
 1673TIP3    H226579   0.873   6.116   1.202  0.8646  1.1575  1.0397
 1674TIP3   OH226580   2.273   3.436   0.915  0.3753 -0.2092  0.0915
 1674TIP3    H126581   2.218   3.512   0.895  0.3504  0.0308  1.0414
 1674TIP3    H226582   2.224   3.389   0.982  0.5273 -0.9223 -0.2937
 1675TIP3   OH226583   0.335   6.238   7.932 -0.3930  0.4815 -0.0414
 1675TIP3    H126584   0.383   6.211   7.853 -0.5516  0.6181 -0.1843
 1675TIP3    H226585   0.246   6.207   7.918 -0.4216  0.5086  0.0825
 1676TIP3   OH226586   2.828   3.240   7.989  0.4591  0.1106 -0.6344
 1676TIP3    H126587   2.897   3.193   7.942 -1.1705 -1.7888 -1.3042
 1676TIP3    H226588   2.779   3.286   7.920  0.5416  0.7646 -0.2680
 1677TIP3   OH226589   4.189   4.377   1.977  0.2778  0.1286  0.6435
 1677TIP3    H126590   4.146   4.379   2.062 -0.2625  0.4769  0.3660
 1677TIP3    H226591   4.218   4.286   1.967 -0.9386 -0.2687  0.5767
 1678TIP3   OH226592   4.244   1.146   0.920 -0.3411 -0.3143 -0.4126
 1678TIP3    H126593   4.225   1.111   0.833  0.4593  0.4861 -0.9208
 1678TIP3    H226594   4.339   1.141   0.927 -0.2725  1.0361 -0.1930
 1679TIP3   OH226595   5.786   3.776   1.921 -0.8249  0.1005  0.5903
 1679TIP3    H126596   5.753   3.691   1.950  1.6372 -1.6221 -1.2503
 1679TIP3    H226597   5.871   3.785   1.962 -0.7417  1.3750  0.2043
 1680TIP3   OH226598   0.937   2.324   6.988 -0.0442  0.1321  0.0560
 1680TIP3    H126599   0.861   2.374   7.017  0.2482  0.5252  0.1606
 1680TIP3    H226600   1.011   2.366   7.033  0.3241  0.2760 -0.6770
 1681TIP3   OH226601   4.107   2.800   1.633 -0.7442 -0.3423 -0.1524
 1681TIP3    H126602   4.174   2.867   1.650 -0.2965 -0.4914 -1.2452
 1681TIP3    H226603   4.024   2.845   1.648 -0.4270  0.1398  0.2000
 1682TIP3   OH226604   1.638   4.248   6.952  0.5459 -0.0024 -0.1402
 1682TIP3    H126605   1.543   4.237   6.945  0.7416 -1.9603 -0.2425
 1682TIP3    H226606   1.659   4.318   6.890 -0.4619 -1.7623 -2.5974
 1683TIP3   OH226607   6.684   6.190   8.139 -0.0646  0.6446 -0.0070
 1683TIP3    H126608   6.628   6.114   8.155 -0.1274  0.8740  0.9420
 1683TIP3    H226609   6.772   6.153   8.134 -0.0422  0.5416  0.9084
 1684TIP3   OH226610   0.637   0.390   6.263 -0.1477  0.5967  0.2925
 1684TIP3    H126611   0.694   0.466   6.277 -0.1486  0.8090 -0.7896
 1684TIP3    H226612   0.548   0.424   6.276 -0.0395  0.0550  2.9328
 1685TIP3   OH226613   1.956   0.335   8.403  0.0638  0.2333 -0.0645
 1685TIP3    H126614   1.869   0.376   8.396  0.5998  1.4158  0.0379
 1685TIP3    H226615   2.000   0.384   8.472  0.5648 -0.8415  0.3899
 1686TIP3   OH226616   2.829   1.945   0.697 -0.3057  0.2936 -0.7769
 1686TIP3    H126617   2.740   1.978   0.694 -0.8992 -0.9363  1.2024
 1686TIP3    H226618   2.825   1.870   0.757  2.1379  0.4979 -0.2438
 1687TIP3   OH226619   3.918   0.023   6.780  0.3603 -0.2329 -0.1873
 1687TIP3    H126620   3.959  -0.032   6.847 -1.5118 -3.1562 -1.2241
 1687TIP3    H226621   3.985   0.032   6.712  1.0616 -0.3218  0.4778
 1688TIP3   OH226622   1.679   2.200   1.338 -0.4792  0.0083 -0.6040
 1688TIP3    H126623   1.669   2.286   1.379  1.9909  0.7169 -1.3122
 1688TIP3    H226624   1.647   2.139   1.404  3.0081  1.1224  2.4716
 1689TIP3   OH226625   6.411   4.250   1.328 -0.2301  0.4504 -0.4322
 1689TIP3    H126626   6.455   4.309   1.267  1.3377 -1.2557 -1.0107
 1689TIP3    H226627   6.339   4.212   1.277  0.0096  0.3215 -0.6712
 1690TIP3   OH226628   1.564   4.246   0.735  0.2591  0.1169 -0.1447
 1690TIP3    H126629   1.542   4.333   0.702 -1.3354 -0.9001 -2.0105
 1690TIP3    H226630   1.521   4.241   0.820  1.4529  1.5706  0.5803
 1691TIP3   OH226631   5.334   6.587   1.461  0.2563 -0.1890 -0.1038
 1691TIP3    H126632   5.388   6.556   1.533 -0.3479 -0.7289  0.1233
 1691TIP3    H226633   5.264   6.636   1.504 -0.0218 -0.3864 -0.3309
 1692TIP3   OH226634   4.891   0.467   8.291  0.2583 -0.0811  0.4699
 1692TIP3    H126635   4.921   0.504   8.374  1.3000 -0.4275  0.2634
 1692TIP3    H226636   4.818   0.411   8.316 -0.1815  0.7119  1.0020
 1693TIP3   OH226637   0.019   0.330   7.074 -0.7297 -0.1937  0.7527
 1693TIP3    H126638  -0.017   0.243   7.089  0.6898 -0.5916  2.1422
 1693TIP3    H226639  -0.012   0.354   6.987 -0.1000 -2.6438 -0.2321
 1694TIP3   OH226640   4.232   2.438   1.018 -0.3034 -0.2296  0.1735
 1694TIP3    H126641   4.168   2.372   1.047  0.3004 -1.0111 -0.2439
 1694TIP3    H226642   4.178   2.513   0.991 -1.0389 -0.8228 -0.0405
 1695TIP3   OH226643   4.906   3.866   0.390 -0.5594 -0.2823  0.3408
 1695TIP3    H126644   4.881   3.897   0.477 -0.2898 -1.3514  0.8236
 1695TIP3    H226645   4.965   3.933   0.357 -0.4783  0.0286  1.0867
 1696TIP3   OH226646   3.145   1.157   8.869  0.2192 -0.1861  0.3582
 1696TIP3    H126647   3.131   1.091   8.936 -1.3574  0.1671  0.4130
 1696TIP3    H226648   3.239   1.175   8.872  0.7523 -2.6190  0.1286
 1697TIP3   OH226649   1.165   6.318   1.218  0.7349 -0.1947  0.1272
 1697TIP3    H126650   1.152   6.223   1.217 -1.1078  0.0238  0.3800
 1697TIP3    H226651   1.178   6.339   1.310 -0.3343 -0.0421  0.2527
 1698TIP3   OH226652   4.307   5.684   0.412  0.0909  0.0213  0.1761
 1698TIP3    H126653   4.327   5.684   0.506  0.9519 -0.0099  0.0012
 1698TIP3    H226654   4.219   5.647   0.406 -0.6800  1.5894  1.1069
 1699TIP3   OH226655   5.443   2.352   7.981  0.4082 -0.2962  0.9254
 1699TIP3    H126656   5.371   2.386   7.928 -0.3852 -2.0535  0.8054
 1699TIP3    H226657   5.461   2.421   8.045 -2.1006 -0.2016  1.6282
 1700TIP3   OH226658   2.436   4.970   1.019  0.6703  0.0168  0.3955
 1700TIP3    H126659   2.470   4.895   1.068  1.0503 -0.9027 -1.2047
 1700TIP3    H226660   2.380   4.931   0.952  0.3147  1.2197 -0.0363
 1701TIP3   OH226661   4.327   0.600   0.512  0.5745  0.2381  0.4170
 1701TIP3    H126662   4.233   0.584   0.516  0.7090 -1.2984 -1.2295
 1701TIP3    H226663   4.352   0.578   0.422  2.6397 -0.2036  1.0319
 1702TIP3   OH226664   6.056   5.535   0.151 -0.5677  0.2828 -0.1214
 1702TIP3    H126665   6.118   5.588   0.201  0.0008 -1.4758  1.1287
 1702TIP3    H226666   5.974   5.584   0.155  0.1873  1.5803  0.0523
 1703TIP3   OH226667   1.301   3.258   1.017 -0.2737  0.4142 -0.7811
 1703TIP3    H126668   1.376   3.220   0.971  0.0388  1.7443 -1.4147
 1703TIP3    H226669   1.287   3.342   0.974 -2.1802  0.1669 -0.7038
 1704TIP3   OH226670   2.748   4.969   1.679  0.3204 -0.3537 -0.5930
 1704TIP3    H126671   2.666   5.001   1.642  0.1916 -0.6823 -0.6012
 1704TIP3    H226672   2.728   4.952   1.771  0.2837 -0.7524 -0.6726
 1705TIP3   OH226673   2.959   3.797   0.989 -0.1365  0.2051  0.0255
 1705TIP3    H126674   3.024   3.813   0.920 -0.5241 -1.1132 -0.6732
 1705TIP3    H226675   3.010   3.796   1.070  0.8450 -1.4129 -0.5693
 1706TIP3   OH226676   1.077   6.583   8.549 -0.1884 -0.4320 -0.2701
 1706TIP3    H126677   1.146   6.593   8.483 -1.8950 -1.6310 -2.3529
 1706TIP3    H226678   1.039   6.670   8.557  0.1084 -0.2497 -0.8072
 1707TIP3   OH226679   4.525   1.710   2.157  0.0470  0.0338  0.0238
 1707TIP3    H126680   4.462   1.738   2.224  1.5819 -0.4667  1.7599
 1707TIP3    H226681   4.532   1.615   2.168 -1.1551 -0.3930 -2.2614
 1708TIP3   OH226682   4.595   2.571   1.402  0.0296 -0.3979 -0.0697
 1708TIP3    H126683   4.534   2.562   1.328 -0.2885  0.1702  0.1235
 1708TIP3    H226684   4.557   2.640   1.456  1.5155  0.8770 -0.6002
 1709TIP3   OH226685   1.091   0.286   1.282  0.0359 -0.5438  0.0169
 1709TIP3    H126686   1.127   0.206   1.243  0.6523  0.2955 -1.1699
 1709TIP3    H226687   1.167   0.329   1.321  0.3832  1.1205 -2.2893
 1710TIP3   OH226688   1.649   4.608   1.903  0.0953  0.3738 -0.3550
 1710TIP3    H126689   1.621   4.519   1.880 -0.8384  0.3140  0.9408
 1710TIP3    H226690   1.617   4.622   1.992 -0.3517  2.2497 -0.7635
 1711TIP3   OH226691   1.593   1.675   6.308  0.3681  0.7626  0.2999
 1711TIP3    H126692   1.647   1.616   6.256  2.8397  1.3498  2.0343
 1711TIP3    H226693   1.503   1.657   6.279  1.2945 -1.5332 -1.4518
 1712TIP3   OH226694   6.520   0.605   1.925 -0.2383  0.4368  0.5606
 1712TIP3    H126695   6.493   0.664   1.854  0.9538  1.0130  0.5618
 1712TIP3    H226696   6.460   0.531   1.918 -1.3127  1.3146  0.1040
 1713TIP3   OH226697   5.785   4.972   0.158 -0.4330  0.0849 -0.1951
 1713TIP3    H126698   5.801   4.958   0.251 -1.3850  1.0576  0.1361
 1713TIP3    H226699   5.700   4.931   0.142 -1.4755  2.0277 -0.0330
 1714TIP3   OH226700   5.099   5.826   0.991 -0.0184  0.5923 -0.2297
 1714TIP3    H126701   5.173   5.869   1.034 -0.1931  0.1527  0.5289
 1714TIP3    H226702   5.106   5.853   0.899  0.4155  1.4786  0.0444
 1715TIP3   OH226703   4.149   3.552   6.622 -0.4966 -0.2082 -0.2700
 1715TIP3    H126704   4.168   3.504   6.542  0.2063  0.4974 -0.5485
 1715TIP3    H226705   4.200   3.507   6.689 -1.0147 -0.7463 -0.2336
 1716TIP3   OH226706   5.209   6.480   0.228  0.0629 -0.0442  0.4873
 1716TIP3    H126707   5.271   6.422   0.273  1.5500  0.8327 -0.3526
 1716TIP3    H226708   5.254   6.564   0.222 -1.3137  0.6988  0.0372
 1717TIP3   OH226709   2.708   0.759   7.276  0.4073 -0.1629  0.7048
 1717TIP3    H126710   2.723   0.745   7.183  1.1767 -0.8399  0.9236
 1717TIP3    H226711   2.764   0.695   7.320 -0.8002 -0.6361  1.6144
 1718TIP3   OH226712   6.704   6.750   8.038 -0.0681 -0.2296 -0.1466
 1718TIP3    H126713   6.714   6.685   7.968 -0.6697 -1.4662  0.8767
 1718TIP3    H226714   6.783   6.740   8.091  0.5060  0.8793 -0.7585
 1719TIP3   OH226715   5.139   2.803   1.816  0.1304  0.0075 -0.0256
 1719TIP3    H126716   5.136   2.832   1.907  1.0075 -0.3294  0.1221
 1719TIP3    H226717   5.058   2.754   1.804 -0.4070  0.8031  0.3108
 1720TIP3   OH226718   1.732   5.722   8.382 -0.1211  0.1791 -0.0066
 1720TIP3    H126719   1.639   5.700   8.386 -0.0388 -0.0664  1.9214
 1720TIP3    H226720   1.746   5.779   8.458  1.2461  0.4645 -0.4463
 1721TIP3   OH226721   5.755   0.330   0.071  0.1142 -0.4672  0.3809
 1721TIP3    H126722   5.663   0.347   0.050  0.0979  0.7699  1.3333
 1721TIP3    H226723   5.766   0.236   0.058 -0.9086 -0.4101 -1.1236
 1722TIP3   OH226724   2.533   5.298   0.695  0.6147  0.2394  0.1647
 1722TIP3    H126725   2.624   5.270   0.691  0.5742  0.1207  0.0507
 1722TIP3    H226726   2.493   5.259   0.617  0.4677  0.2950  0.2120
 1723TIP3   OH226727   5.632   5.576   7.906 -0.1007 -0.1241 -0.3319
 1723TIP3    H126728   5.545   5.568   7.866  0.8810  0.3151 -2.7534
 1723TIP3    H226729   5.662   5.663   7.880  1.0435 -0.2396  0.5362
 1724TIP3   OH226730   1.263   5.992   8.374  0.1022 -0.1452  0.7506
 1724TIP3    H126731   1.324   6.026   8.439 -0.4973  0.0167  1.2391
 1724TIP3    H226732   1.287   6.037   8.293 -1.0300  1.9402  1.4925
 1725TIP3   OH226733   2.057   0.240   6.678 -0.0198  0.0622  0.0053
 1725TIP3    H126734   2.088   0.330   6.672 -1.2331  0.3850 -4.1103
 1725TIP3    H226735   2.137   0.188   6.688  1.1445  1.3855 -1.8319
 1726TIP3   OH226736   1.461   1.327   7.357  0.3421  0.4467  0.0454
 1726TIP3    H126737   1.433   1.418   7.351 -1.9185 -0.2722 -4.6764
 1726TIP3    H226738   1.541   1.323   7.306 -0.0057 -0.3223 -0.4592
 1727TIP3   OH226739   5.841   5.073   1.042 -0.4966 -0.3135 -0.5517
 1727TIP3    H126740   5.856   5.152   1.094 -0.3588 -0.9891  0.4469
 1727TIP3    H226741   5.861   5.100   0.952 -0.8392  0.8972 -0.2836
 1728TIP3   OH226742   6.253   1.593   8.526  0.2766  0.5672 -0.3613
 1728TIP3    H126743   6.279   1.514   8.573  0.9901  1.0077  0.0003
 1728TIP3    H226744   6.164   1.575   8.494 -0.5779  0.5727  1.8731
 1729TIP3   OH226745   3.644   3.276   7.322 -0.1203  0.1455  0.3205
 1729TIP3    H126746   3.665   3.285   7.229  0.2212  0.9529  0.4649
 1729TIP3    H226747   3.616   3.185   7.331 -2.1298  0.5560 -0.9519
 1730TIP3   OH226748   0.857   1.595   0.443  0.3370 -0.2048 -0.5437
 1730TIP3    H126749   0.764   1.590   0.422  0.2738  0.3024 -0.4069
 1730TIP3    H226750   0.879   1.687   0.430  0.2215  0.2214  1.9231
 1731TIP3   OH226751   6.164   5.739   1.378 -0.1237  0.3599 -0.2810
 1731TIP3    H126752   6.106   5.668   1.351 -0.4966  0.5213  0.0863
 1731TIP3    H226753   6.108   5.799   1.427  0.5708 -0.0581  1.0816
 1732TIP3   OH226754   4.068   0.539   1.712 -0.1652 -0.2915  0.2084
 1732TIP3    H126755   3.987   0.511   1.755 -0.7588  0.8634 -0.1068
 1732TIP3    H226756   4.046   0.540   1.618  0.2638 -0.1471  0.1082
 1733TIP3   OH226757   1.295   0.161   1.632  0.5203  0.2785 -0.0665
 1733TIP3    H126758   1.305   0.130   1.542 -0.1313 -1.5525  0.4385
 1733TIP3    H226759   1.218   0.217   1.629 -1.1739 -1.9245 -0.2229
 1734TIP3   OH226760   4.885   0.170   2.445 -0.2711  0.6451  0.2155
 1734TIP3    H126761   4.799   0.181   2.485 -0.1105  1.8237  0.2727
 1734TIP3    H226762   4.870   0.110   2.371 -1.0134  0.3522  0.5979
 1735TIP3   OH226763   5.866   5.910   0.903 -0.6851 -0.7750  0.3446
 1735TIP3    H126764   5.940   5.849   0.898 -0.1264 -0.1487  0.8239
 1735TIP3    H226765   5.821   5.899   0.819  0.8340 -0.0640 -0.6233
 1736TIP3   OH226766   2.276   6.208   0.857  0.1906 -0.2027 -0.1510
 1736TIP3    H126767   2.297   6.129   0.907 -0.0675 -1.0993 -1.4001
 1736TIP3    H226768   2.187   6.232   0.886 -0.0471 -0.8447 -0.3322
 1737TIP3   OH226769   6.301   0.843   8.389 -0.0679 -0.6044  0.0625
 1737TIP3    H126770   6.237   0.914   8.387  1.1450  0.5498  1.0553
 1737TIP3    H226771   6.361   0.862   8.318 -1.6808 -2.6129 -2.0004
 1738TIP3   OH226772   1.403   1.565   8.412 -0.0428  0.1268 -0.1509
 1738TIP3    H126773   1.330   1.619   8.383 -1.1249 -0.8448  0.6592
 1738TIP3    H226774   1.430   1.516   8.334 -1.2242 -0.5624 -0.1452
 1739TIP3   OH226775   0.265   4.355   2.157  0.2916 -0.0203  0.1300
 1739TIP3    H126776   0.220   4.419   2.102  0.5532  0.6733  0.7049
 1739TIP3    H226777   0.323   4.308   2.097  0.2508  0.4223 -0.2610
 1740TIP3   OH226778   6.076   6.321   0.722  0.1161 -0.5259  0.7160
 1740TIP3    H126779   6.053   6.410   0.750 -0.0154 -1.0061  2.2152
 1740TIP3    H226780   6.168   6.328   0.697  0.1746 -0.0091  1.0464
 1741TIP3   OH226781   4.650   3.648   8.469  0.3832  0.5102 -0.0182
 1741TIP3    H126782   4.628   3.680   8.382 -0.9173  1.9019  0.7706
 1741TIP3    H226783   4.743   3.668   8.479  0.6657 -0.0887 -1.2306
 1742TIP3   OH226784   3.004   1.461   1.472  0.6408 -1.1047 -0.2496
 1742TIP3    H126785   3.080   1.519   1.470 -0.1096 -0.1047 -0.3146
 1742TIP3    H226786   2.980   1.449   1.380  0.3963 -0.9867 -0.2014
 1743TIP3   OH226787   1.360   5.487   8.181 -0.3965  0.2219  0.2509
 1743TIP3    H126788   1.432   5.436   8.218  0.2049 -1.3150 -2.7022
 1743TIP3    H226789   1.372   5.575   8.217  0.7515 -0.8137  2.6315
 1744TIP3   OH226790   5.111   6.149   0.336  0.1023  0.1458  0.2301
 1744TIP3    H126791   5.155   6.132   0.253  0.0313  1.2050 -0.0310
 1744TIP3    H226792   5.179   6.137   0.402  0.4944  0.6097 -0.0867
 1745TIP3   OH226793   0.795   1.012   0.519 -0.3924 -0.2712  0.6242
 1745TIP3    H126794   0.844   0.932   0.499 -0.6014 -0.4992  1.0041
 1745TIP3    H226795   0.800   1.019   0.614 -2.0971 -0.9641  0.8085
 1746TIP3   OH226796   3.713   0.006   7.551 -0.0146  0.1388 -0.2725
 1746TIP3    H126797   3.724   0.080   7.610  0.6062 -0.4346  0.3562
 1746TIP3    H226798   3.802  -0.020   7.527 -0.2486  0.0562 -1.0800
 1747TIP3   OH226799   4.364   3.577   1.632  0.1958  0.1302  0.1112
 1747TIP3    H126800   4.379   3.656   1.684 -0.3926  1.4486 -1.6109
 1747TIP3    H226801   4.451   3.554   1.598  0.1740  0.8091 -0.4141
 1748TIP3   OH226802   3.432   0.529   1.063 -0.1464 -0.4153 -0.0408
 1748TIP3    H126803   3.515   0.530   1.016 -0.5231  0.6232 -0.7090
 1748TIP3    H226804   3.424   0.439   1.095  1.1152 -0.5899 -0.1612
 1749TIP3   OH226805   4.710   0.915   6.963 -0.0829  0.0943 -0.0961
 1749TIP3    H126806   4.674   0.963   7.037  0.9872  0.2387  0.3507
 1749TIP3    H226807   4.786   0.966   6.935  0.6360 -0.9248 -0.0879
 1750TIP3   OH226808   3.276   1.117   7.024 -0.1465  0.0305  0.2665
 1750TIP3    H126809   3.241   1.205   7.006 -1.4732 -0.4021  0.6090
 1750TIP3    H226810   3.217   1.058   6.977  1.2397 -0.6579 -0.6892
 1751TIP3   OH226811   5.469   1.537   0.009 -0.8731  0.0926  0.4274
 1751TIP3    H126812   5.378   1.559   0.029 -1.7768 -2.0824 -1.0209
 1751TIP3    H226813   5.489   1.461   0.064 -0.4614 -0.4033 -0.3827
 1752TIP3   OH226814   1.341   1.574   7.263  0.2581 -0.4347 -0.6110
 1752TIP3    H126815   1.340   1.512   7.191  1.1207 -1.7220  0.4530
 1752TIP3    H226816   1.418   1.628   7.247  0.6877 -0.9914 -0.4270
 1753TIP3   OH226817   3.995   0.393   7.705 -0.1831 -0.3737 -0.1686
 1753TIP3    H126818   4.075   0.401   7.652  0.3805 -2.1943  0.3550
 1753TIP3    H226819   3.990   0.477   7.751  0.4048  0.4779 -1.5755
 1754TIP3   OH226820   2.961   2.413   1.670  0.2312 -0.2175  0.2488
 1754TIP3    H126821   2.936   2.492   1.622 -0.8471 -0.8379 -0.2664
 1754TIP3    H226822   3.056   2.412   1.668  0.2317  0.5508 -0.6198
 1755TIP3   OH226823   0.246   6.238   6.778 -0.0254  0.5945  0.0237
 1755TIP3    H126824   0.330   6.272   6.810 -0.3825  0.5101  1.0871
 1755TIP3    H226825   0.221   6.298   6.708  1.4410 -0.0095 -1.0536
 1756TIP3   OH226826   1.619   0.596   0.600  0.5969 -0.0945 -0.3306
 1756TIP3    H126827   1.577   0.634   0.524  1.6133 -0.5430 -1.1357
 1756TIP3    H226828   1.665   0.669   0.641 -1.1744  0.4826  0.7645
 1757TIP3   OH226829   4.575   3.055   7.833  0.4986 -0.0987 -0.0148
 1757TIP3    H126830   4.489   3.014   7.831  0.6692 -0.4765  0.3496
 1757TIP3    H226831   4.593   3.069   7.926  0.6146  0.4378 -0.1150
 1758TIP3   OH226832   0.039   1.007   7.732  0.5549 -0.2784 -0.1374
 1758TIP3    H126833   0.110   1.033   7.673  0.5484 -1.7950 -0.8576
 1758TIP3    H226834  -0.023   1.080   7.727  1.3936  0.4280 -0.6029
 1759TIP3   OH226835   2.724   6.051   7.689  0.0555  0.2192 -0.4890
 1759TIP3    H126836   2.640   6.092   7.710 -0.0884  1.0605 -2.5076
 1759TIP3    H226837   2.725   5.970   7.740 -2.5383 -0.4150 -1.2969
 1760TIP3   OH226838   3.763   6.751   0.364 -0.1533  0.3424 -0.1690
 1760TIP3    H126839   3.809   6.668   0.381 -1.8355 -0.3823  1.2894
 1760TIP3    H226840   3.815   6.794   0.297  1.4130 -1.3878 -0.1667
 1761TIP3   OH226841   4.240   2.364   0.459 -0.5179  0.4695 -0.4231
 1761TIP3    H126842   4.187   2.410   0.524  0.3717  0.4097  0.3770
 1761TIP3    H226843   4.195   2.377   0.376 -1.2203  1.2781  0.0800
 1762TIP3   OH226844   1.162   2.803   8.799  0.0550 -0.0747  0.0839
 1762TIP3    H126845   1.171   2.885   8.751  0.9480  0.0057  0.3532
 1762TIP3    H226846   1.197   2.823   8.886  0.0241 -0.6631  0.2381
 1763TIP3   OH226847   1.261   3.900   0.384 -0.0873  0.5491 -0.1366
 1763TIP3    H126848   1.204   3.831   0.418 -1.1743  0.7307 -1.4995
 1763TIP3    H226849   1.309   3.932   0.461  1.0944 -2.2705  0.3905
 1764TIP3   OH226850   0.212   1.326   2.369  0.1446 -0.9067 -0.2524
 1764TIP3    H126851   0.257   1.384   2.431 -1.8412 -0.5500  0.9433
 1764TIP3    H226852   0.129   1.370   2.351  0.3657 -1.3405 -2.6967
 1765TIP3   OH226853   6.694   5.584   6.320  0.0562 -0.3680  0.2371
 1765TIP3    H126854   6.714   5.641   6.394 -0.7471  0.6148 -0.2872
 1765TIP3    H226855   6.769   5.523   6.316  1.5054  1.3444  0.1213
 1766TIP3   OH226856   2.608   3.411   2.536 -0.1415  0.6554 -0.0963
 1766TIP3    H126857   2.638   3.320   2.540  0.1461  0.6508 -1.7489
 1766TIP3    H226858   2.546   3.419   2.609  1.2655 -0.2990  1.2577
 1767TIP3   OH226859   5.124   1.469   8.853  0.4879  0.3739 -0.2735
 1767TIP3    H126860   5.131   1.391   8.799 -2.3432 -1.0301  1.1936
 1767TIP3    H226861   5.104   1.436   8.941  0.1545  2.7261  0.6104
 1768TIP3   OH226862   0.172   2.705   8.797  0.4276  0.4257 -0.2698
 1768TIP3    H126863   0.089   2.657   8.801 -1.1095  2.8697 -0.4851
 1768TIP3    H226864   0.218   2.667   8.722 -0.4923 -0.9479 -0.1818
 1769TIP3   OH226865   2.456   6.576   1.506 -0.2751 -0.0003  0.0282
 1769TIP3    H126866   2.374   6.557   1.461 -0.2003 -1.0800  0.3210
 1769TIP3    H226867   2.521   6.522   1.463 -0.1729 -0.9356  1.3021
 1770TIP3   OH226868   3.064   4.219   2.417  0.2200 -0.2968  0.5934
 1770TIP3    H126869   3.159   4.209   2.425 -0.0030 -1.9137  1.8063
 1770TIP3    H226870   3.043   4.293   2.474  0.5675 -1.1942  1.9398
 1771TIP3   OH226871   2.883   4.683   8.659  0.8678  0.0260  0.0131
 1771TIP3    H126872   2.866   4.603   8.708 -0.2943  0.9962  1.2396
 1771TIP3    H226873   2.948   4.730   8.712 -0.9563  1.4319  1.0947
 1772TIP3   OH226874   0.485   4.877   7.695 -0.4943 -0.5993 -0.5101
 1772TIP3    H126875   0.445   4.897   7.611 -0.2369  0.0009 -0.4924
 1772TIP3    H226876   0.514   4.961   7.729  0.1162 -0.9340 -0.1787
 1773TIP3   OH226877   4.509   3.417   8.006 -0.7992 -0.2832 -0.0370
 1773TIP3    H126878   4.583   3.475   8.023 -0.6979 -0.1462 -0.8841
 1773TIP3    H226879   4.515   3.397   7.912 -1.1913 -1.1638  0.1169
 1774TIP3   OH226880   6.760   2.601   1.441 -0.0144 -0.2898  0.2382
 1774TIP3    H126881   6.682   2.567   1.485  1.0670 -1.6611  1.2264
 1774TIP3    H226882   6.727   2.661   1.374 -1.8387  0.0958  1.4218
 1775TIP3   OH226883   1.805   1.836   7.180 -0.1911 -0.1781  0.5652
 1775TIP3    H126884   1.832   1.763   7.236 -1.3583 -0.4056  0.8604
 1775TIP3    H226885   1.710   1.839   7.190 -0.4613 -0.3257 -1.5494
 1776TIP3   OH226886   2.338   4.911   0.355 -1.0894 -0.2198 -0.3456
 1776TIP3    H126887   2.371   4.932   0.442 -2.5198  0.9595 -0.0565
 1776TIP3    H226888   2.400   4.952   0.295 -0.2395 -0.8235  0.0946
 1777TIP3   OH226889   2.341   2.288   0.979  0.4818  0.5355  0.4813
 1777TIP3    H126890   2.299   2.244   0.906 -0.6177  0.4809  1.1274
 1777TIP3    H226891   2.316   2.238   1.056  1.0507  0.9951  0.9856
 1778TIP3   OH226892   6.387   1.555   7.109  0.1678 -0.2098  0.3605
 1778TIP3    H126893   6.311   1.553   7.167  0.3546 -0.4008  0.6023
 1778TIP3    H226894   6.402   1.649   7.093  0.5077 -0.1176  1.1518
 1779TIP3   OH226895   1.412   0.248   8.758  0.1750 -0.2589 -0.1741
 1779TIP3    H126896   1.483   0.185   8.768 -0.4222 -1.2433 -1.7237
 1779TIP3    H226897   1.387   0.272   8.847  1.0786 -1.4674  0.4216
 1780TIP3   OH226898   0.593   5.999   8.224 -0.3289  0.3185 -0.2994
 1780TIP3    H126899   0.626   6.010   8.313  1.3802  2.1098 -1.0738
 1780TIP3    H226900   0.670   5.976   8.173 -0.6205  2.4480 -1.8149
 1781TIP3   OH226901   2.669   3.599   1.232 -0.2419 -1.0646  0.0885
 1781TIP3    H126902   2.664   3.693   1.215 -1.4455 -1.0875  0.2216
 1781TIP3    H226903   2.579   3.568   1.221  0.1611 -2.2199 -0.0608
 1782TIP3   OH226904   6.177   5.490   0.478 -0.3832 -0.4203 -0.1141
 1782TIP3    H126905   6.144   5.579   0.470  0.4101 -0.0990  0.0458
 1782TIP3    H226906   6.179   5.473   0.572  1.3134  0.1414 -0.0077
 1783TIP3   OH226907   4.987   1.995   8.476 -0.9021  0.7236 -0.5561
 1783TIP3    H126908   4.907   1.946   8.455 -1.1071  0.3483  1.0292
 1783TIP3    H226909   4.956   2.078   8.512 -0.5759  0.7685 -0.3704
 1784TIP3   OH226910   1.303   3.644   8.273  0.3590  0.0298  0.1284
 1784TIP3    H126911   1.316   3.553   8.248  0.4023 -0.8860  3.1580
 1784TIP3    H226912   1.219   3.668   8.233 -0.1408 -1.6769  0.0890
 1785TIP3   OH226913   5.726   0.795   6.056  0.5975 -0.3416 -0.4441
 1785TIP3    H126914   5.758   0.741   6.128 -0.4060 -0.6822 -0.2456
 1785TIP3    H226915   5.728   0.885   6.090 -0.7247 -0.5855  0.3422
 1786TIP3   OH226916   6.157   4.201   1.240 -0.2085 -0.1216  0.1306
 1786TIP3    H126917   6.095   4.231   1.306  0.4699 -1.4137  1.4122
 1786TIP3    H226918   6.108   4.135   1.190 -0.1602 -0.4593  0.5276
 1787TIP3   OH226919   1.307   1.722   1.425 -0.2912  0.4120  0.2468
 1787TIP3    H126920   1.238   1.772   1.381 -0.7990 -0.5518 -0.0758
 1787TIP3    H226921   1.294   1.632   1.396 -1.7141 -0.6241  3.6450
 1788TIP3   OH226922   3.994   1.026   8.629  0.0414  0.0886  0.3785
 1788TIP3    H126923   3.993   0.957   8.695 -1.6486  0.1985  0.5260
 1788TIP3    H226924   3.975   0.980   8.547  0.0587  0.2172  0.3019
 1789TIP3   OH226925   0.134   6.499   8.830  0.3722  0.1991 -0.1776
 1789TIP3    H126926   0.091   6.420   8.861  1.0536 -1.0716 -2.2500
 1789TIP3    H226927   0.228   6.481   8.840  0.5229  1.3725  0.7270
 1790TIP3   OH226928   0.336   4.967   7.928  0.3763 -0.6407  0.2480
 1790TIP3    H126929   0.354   4.912   7.852 -0.9879  0.2966 -0.7954
 1790TIP3    H226930   0.304   5.049   7.891  0.0027 -0.0372  1.8324
 1791TIP3   OH226931   2.719   0.209   7.356 -0.1190  0.7965  0.4666
 1791TIP3    H126932   2.709   0.297   7.393 -2.7886  0.6785  0.2071
 1791TIP3    H226933   2.763   0.222   7.272 -2.1696  2.1799 -0.4677
 1792TIP3   OH226934   3.011   0.733   1.411 -0.0388  0.0103  0.2033
 1792TIP3    H126935   3.035   0.818   1.448 -0.4674  0.4657 -0.5359
 1792TIP3    H226936   2.940   0.701   1.467  2.7585 -1.8476  3.0939
 1793TIP3   OH226937   4.268   4.950   1.591 -0.2671 -0.6211 -0.1471
 1793TIP3    H126938   4.218   4.955   1.672 -0.2264 -0.2872 -0.1411
 1793TIP3    H226939   4.358   4.937   1.619 -0.0544  0.7914 -0.0834
 1794TIP3   OH226940   0.401   3.470   7.972  0.1998 -0.2394  0.4653
 1794TIP3    H126941   0.390   3.471   7.877  0.8378 -1.7293  0.3473
 1794TIP3    H226942   0.313   3.487   8.007 -0.5849 -2.1513 -0.4162
 1795TIP3   OH226943   5.470   2.205   7.158  0.0365  0.3272  0.4592
 1795TIP3    H126944   5.375   2.211   7.156 -0.0810 -1.2684  0.1410
 1795TIP3    H226945   5.489   2.139   7.225  0.8843  0.1908  0.0984
 1796TIP3   OH226946   0.606   5.380   2.215  0.1680 -0.1937 -0.7054
 1796TIP3    H126947   0.514   5.386   2.189 -0.4141  0.8125  1.3165
 1796TIP3    H226948   0.607   5.312   2.282  0.7201  0.3723 -0.1204
 1797TIP3   OH226949   4.859   5.459   1.501 -0.0744  0.5663 -0.2546
 1797TIP3    H126950   4.796   5.387   1.507  0.7761 -0.2111 -0.3936
 1797TIP3    H226951   4.833   5.520   1.570 -0.2641 -0.3135  0.4659
 1798TIP3   OH226952   3.149   4.010   7.477 -0.1566  0.4502 -0.0813
 1798TIP3    H126953   3.067   4.006   7.429  0.5230 -0.2971 -1.2259
 1798TIP3    H226954   3.207   3.949   7.431  0.7421  0.2417  1.2709
 1799TIP3   OH226955   3.115   3.990   1.337 -1.0869 -0.2012 -0.2120
 1799TIP3    H126956   3.095   3.907   1.292  2.2862 -0.3573 -1.7200
 1799TIP3    H226957   3.056   4.053   1.296 -0.1780 -0.9332 -2.8713
 1800TIP3   OH226958   0.095   6.703   6.538  0.7317 -0.5539  0.2942
 1800TIP3    H126959   0.083   6.621   6.489  0.1509 -0.4944  0.3235
 1800TIP3    H226960   0.058   6.685   6.624  1.0512 -0.4140  0.4627
 1801TIP3   OH226961   2.633   0.486   1.386 -0.6944 -0.1772  0.5783
 1801TIP3    H126962   2.543   0.516   1.397 -1.6668 -3.1480  1.4384
 1801TIP3    H226963   2.685   0.549   1.436 -2.7868 -0.7764  3.8146
 1802TIP3   OH226964   5.421   3.306   0.436 -0.0612 -0.2484  0.4251
 1802TIP3    H126965   5.479   3.319   0.510 -1.8448 -1.1935  2.0794
 1802TIP3    H226966   5.395   3.214   0.441 -1.0588 -0.0636 -0.7470
 1803TIP3   OH226967   0.864   0.499   6.846  0.8556 -0.2619  0.4986
 1803TIP3    H126968   0.960   0.503   6.848  0.9530 -1.7338 -0.1734
 1803TIP3    H226969   0.842   0.490   6.754  0.1261 -0.9040  0.7242
 1804TIP3   OH226970   2.343   6.293   8.160  0.3667 -0.1237  0.0487
 1804TIP3    H126971   2.298   6.258   8.237  0.6890  2.1367  1.3731
 1804TIP3    H226972   2.435   6.272   8.175  0.2484 -1.0988 -0.5548
 1805TIP3   OH226973   0.145   5.016   0.038 -0.3048  0.4364 -0.4493
 1805TIP3    H126974   0.160   4.937  -0.014  0.0909  0.7101 -0.7596
 1805TIP3    H226975   0.081   5.066  -0.013 -0.7575  0.1949 -0.1209
 1806TIP3   OH226976   2.849   5.480   8.804 -0.2700 -0.8307 -0.3059
 1806TIP3    H126977   2.855   5.471   8.899  0.3861 -3.6513 -0.5198
 1806TIP3    H226978   2.755   5.483   8.786 -0.4308 -1.3999  0.3864
 1807TIP3   OH226979   0.864   5.833   6.786  0.4838  0.3875  0.0649
 1807TIP3    H126980   0.910   5.863   6.707  0.4480 -0.5368 -0.3254
 1807TIP3    H226981   0.934   5.815   6.848  0.7744 -1.7771 -0.7932
 1808TIP3   OH226982   3.449   5.663   1.169  0.4872 -0.2556 -0.0076
 1808TIP3    H126983   3.399   5.679   1.249  1.2389  0.4911  0.3225
 1808TIP3    H226984   3.405   5.716   1.102  0.9715  0.6042  0.3393
 1809TIP3   OH226985   2.392   1.066   7.410  0.7094 -0.0241  0.2120
 1809TIP3    H126986   2.436   1.151   7.421  1.7773 -0.5332  0.0104
 1809TIP3    H226987   2.460   1.001   7.427  0.2101 -0.8384 -0.7504
 1810TIP3   OH226988   6.166   2.899   7.628  0.7039  0.0234 -0.2116
 1810TIP3    H126989   6.096   2.929   7.570 -0.7136 -0.8161  0.9916
 1810TIP3    H226990   6.227   2.973   7.633  1.3288 -0.1351 -3.3281
 1811TIP3   OH226991   2.613   5.417   1.872 -0.0696  0.3897  1.0240
 1811TIP3    H126992   2.704   5.394   1.853  0.0803 -0.7602  2.9028
 1811TIP3    H226993   2.617   5.507   1.905  0.2771  0.5743  0.5045
 1812TIP3   OH226994   4.329   2.786   1.007  0.0020  0.2076 -0.0991
 1812TIP3    H126995   4.361   2.875   0.991  0.4691  0.1593  0.5135
 1812TIP3    H226996   4.238   2.797   1.033  0.3356  0.6090  0.9674
 1813TIP3   OH226997   0.335   4.075   8.647 -0.0503  0.0248 -0.3998
 1813TIP3    H126998   0.302   4.164   8.659 -0.3136  0.0391 -1.1683
 1813TIP3    H226999   0.292   4.044   8.567 -0.6967 -1.1356  0.3750
 1814TIP3   OH227000   2.866   2.713   8.514  0.8719 -0.3257  0.3710
 1814TIP3    H127001   2.927   2.779   8.546  0.3846  0.2048  0.2347
 1814TIP3    H227002   2.921   2.641   8.483  1.3996 -0.1341  0.8483
 1815TIP3   OH227003   0.422   4.348   8.648 -0.2124 -0.1865 -0.4307
 1815TIP3    H127004   0.490   4.370   8.711 -0.0890  0.1755 -0.6875
 1815TIP3    H227005   0.470   4.307   8.575 -0.3918 -0.9256 -0.1428
 1816TIP3   OH227006   4.579   3.618   7.828 -0.0651 -0.2754  0.4068
 1816TIP3    H127007   4.549   3.541   7.778  1.8579 -0.4791 -0.5095
 1816TIP3    H227008   4.667   3.595   7.856  1.3686  2.3306 -1.5856
 1817TIP3   OH227009   5.948   1.738   8.646  0.3820  0.8370  0.7484
 1817TIP3    H127010   5.872   1.702   8.691 -0.2599  0.5797 -0.5040
 1817TIP3    H227011   6.011   1.665   8.643 -0.4324  0.1543 -0.6871
 1818TIP3   OH227012   0.458   2.613   0.567  0.0843  0.2854  0.9428
 1818TIP3    H127013   0.366   2.613   0.544  0.5640 -0.3717 -1.2240
 1818TIP3    H227014   0.466   2.548   0.637 -0.7903 -1.2701 -0.3406
 1819TIP3   OH227015   1.364   0.501   8.434  0.4333  0.5033  0.2474
 1819TIP3    H127016   1.374   0.549   8.517  0.9294  0.5148  0.1842
 1819TIP3    H227017   1.452   0.499   8.398  0.6673 -1.5603  0.8461
 1820TIP3   OH227018   0.705   6.306   6.569  0.2053  0.1402 -0.3482
 1820TIP3    H127019   0.703   6.395   6.533  1.0415  1.7947  3.2698
 1820TIP3    H227020   0.784   6.267   6.530  0.3670  1.3290 -1.2739
 1821TIP3   OH227021   2.499   2.563   7.275  0.4517  0.1084  0.3306
 1821TIP3    H127022   2.588   2.527   7.272 -0.1058 -1.3138  0.1419
 1821TIP3    H227023   2.449   2.510   7.213 -0.8376 -0.0073  1.4209
 1822TIP3   OH227024   2.554   5.051   0.234 -0.3918 -0.4486  0.3050
 1822TIP3    H127025   2.579   5.122   0.175 -0.0601 -0.6538  0.1981
 1822TIP3    H227026   2.638   5.016   0.267 -0.5567 -0.7038  0.4590
 1823TIP3   OH227027   1.416   1.065   8.231 -0.0464 -0.4042  0.1046
 1823TIP3    H127028   1.482   1.049   8.299 -0.1835 -1.4070  0.0185
 1823TIP3    H227029   1.466   1.079   8.151  0.1325  1.1160  0.4409
 1824TIP3   OH227030   2.440   6.663   6.898 -0.4398  0.9765 -0.0216
 1824TIP3    H127031   2.368   6.615   6.858  0.2250  1.6383 -2.1532
 1824TIP3    H227032   2.501   6.679   6.826  0.6067  2.6807  1.1694
 1825TIP3   OH227033   5.620   1.859   0.523  0.0441 -0.0294 -0.1993
 1825TIP3    H127034   5.544   1.910   0.494 -0.9139 -1.4607 -0.3201
 1825TIP3    H227035   5.590   1.815   0.602  1.1497  0.2782  0.4135
 1826TIP3   OH227036   0.442   4.954   2.226  0.1986  0.1276  0.0546
 1826TIP3    H127037   0.475   5.043   2.242 -2.4739  1.1144  0.6546
 1826TIP3    H227038   0.520   4.898   2.231  2.1758  2.5075 -1.5170
 1827TIP3   OH227039   1.736   4.430   7.663  0.5520  0.1706  0.0906
 1827TIP3    H127040   1.744   4.386   7.579  1.5719  2.0249 -0.8494
 1827TIP3    H227041   1.803   4.390   7.718  0.2626 -0.6572 -0.1476
 1828TIP3   OH227042   5.206   3.391   1.191  0.6173 -0.0751 -0.5024
 1828TIP3    H127043   5.233   3.300   1.199 -0.5863 -0.3731  0.5370
 1828TIP3    H227044   5.282   3.436   1.154  2.1513 -1.0279  1.3027
 1829TIP3   OH227045   2.925   1.125   7.612  0.0185  0.3382  0.2260
 1829TIP3    H127046   2.941   1.090   7.525 -2.7206 -1.3476  0.2763
 1829TIP3    H227047   2.921   1.048   7.669 -0.4992  1.2127  1.4115
 1830TIP3   OH227048   4.682   3.424   0.589  0.1316 -0.2516 -0.1668
 1830TIP3    H127049   4.722   3.338   0.572  1.4680  0.3537 -0.2419
 1830TIP3    H227050   4.678   3.430   0.684  1.1047  0.0548 -0.1350
 1831TIP3   OH227051   1.728   0.088   0.782 -0.2010 -0.3249  0.1073
 1831TIP3    H127052   1.723   0.175   0.742 -0.9279 -1.0376 -1.4511
 1831TIP3    H227053   1.774   0.102   0.865 -1.2537  1.7155  0.4204
 1832TIP3   OH227054   6.677   6.612   0.218  0.4426  0.2633  0.4646
 1832TIP3    H127055   6.606   6.642   0.275 -1.8103  0.4740 -2.2331
 1832TIP3    H227056   6.695   6.688   0.161  1.0657 -0.5861 -0.4999
 1833TIP3   OH227057   2.588   0.210   2.267 -0.2384 -0.1183  0.0227
 1833TIP3    H127058   2.578   0.169   2.181  2.8173  0.1271 -0.5494
 1833TIP3    H227059   2.617   0.139   2.324  1.9999  0.4961 -0.2446
 1834TIP3   OH227060   0.644   4.139   8.222 -0.1674 -0.2085 -0.0466
 1834TIP3    H127061   0.693   4.057   8.215 -0.5368 -0.4196 -0.2046
 1834TIP3    H227062   0.552   4.113   8.211 -0.4858 -0.0537  1.8955
 1835TIP3   OH227063   4.821   2.915   0.457  0.4751  0.1166 -0.0701
 1835TIP3    H127064   4.880   2.845   0.430 -1.9259 -1.3810 -1.8573
 1835TIP3    H227065   4.834   2.983   0.390  0.9957  0.3035  0.2163
 1836TIP3   OH227066   0.446   4.193   2.030 -0.1053 -0.1013 -0.4253
 1836TIP3    H127067   0.467   4.235   1.946 -0.0195 -0.5446 -0.6264
 1836TIP3    H227068   0.531   4.165   2.064 -0.2848 -1.3118 -0.9307
 1837TIP3   OH227069   1.198   5.146   7.717  0.5783  0.0357  0.2900
 1837TIP3    H127070   1.155   5.141   7.632  0.9999  1.3693 -0.0366
 1837TIP3    H227071   1.134   5.189   7.774  0.2134 -1.0541  0.7133
 1838TIP3   OH227072   4.759   0.519   7.264  0.1956  0.1650  0.6175
 1838TIP3    H127073   4.674   0.476   7.264  0.3584 -0.2630  2.4550
 1838TIP3    H227074   4.805   0.479   7.338  2.0246  0.3385 -0.3702
 1839TIP3   OH227075   1.760   5.141   8.380 -0.0979 -0.4431 -0.0886
 1839TIP3    H127076   1.780   5.048   8.367 -0.1754 -0.5751  0.6493
 1839TIP3    H227077   1.801   5.185   8.306 -0.7733 -1.1413 -0.9111
 1840TIP3   OH227078   5.443   2.763   0.399  0.6700  0.3333  0.2988
 1840TIP3    H127079   5.477   2.679   0.431  2.7144  1.0799  0.1711
 1840TIP3    H227080   5.358   2.741   0.362  0.9525 -1.6027  0.6909
 1841TIP3   OH227081   1.857   0.913   8.240  0.2415 -0.1653  0.0784
 1841TIP3    H127082   1.854   0.819   8.257  0.2027 -0.2344 -0.3197
 1841TIP3    H227083   1.938   0.942   8.283  0.4175 -0.4322 -0.0705
 1842TIP3   OH227084   2.337   1.247   8.144 -0.2800  0.1858  0.6653
 1842TIP3    H127085   2.409   1.297   8.106 -0.5364 -0.0222 -0.1047
 1842TIP3    H227086   2.337   1.164   8.095 -1.2226  0.3029  0.4532
 1843TIP3   OH227087   6.187   5.304   0.218 -0.1410  0.2343 -0.4738
 1843TIP3    H127088   6.116   5.245   0.190  0.2351 -1.0724  1.1752
 1843TIP3    H227089   6.153   5.392   0.201 -1.9465 -0.3782 -0.2371
 1844TIP3   OH227090   2.876   5.561   0.761 -0.1207 -0.3889 -0.7845
 1844TIP3    H127091   2.949   5.501   0.768  0.1227 -0.1854 -1.5161
 1844TIP3    H227092   2.878   5.611   0.843  0.1647 -0.8116 -0.5300
 1845TIP3   OH227093   1.761   2.979   7.300 -0.4428  0.3861 -0.2098
 1845TIP3    H127094   1.680   3.026   7.279 -0.4795 -0.7502 -3.0237
 1845TIP3    H227095   1.734   2.888   7.312  0.2212  0.2806  0.5898
 1846TIP3   OH227096   3.399   0.504   6.860  0.1256 -0.4369  0.2397
 1846TIP3    H127097   3.442   0.426   6.826 -0.4284 -0.1105 -1.2735
 1846TIP3    H227098   3.379   0.557   6.783 -1.9132 -0.0327  0.9679
 1847TIP3   OH227099   0.377   2.461   0.772  0.3054 -0.0688 -0.4931
 1847TIP3    H127100   0.356   2.478   0.864  1.6867  1.4280 -0.4105
 1847TIP3    H227101   0.295   2.432   0.734 -0.2675 -0.8696  1.2405
 1848TIP3   OH227102   0.637   3.465   6.968 -0.2465  0.2949  0.0430
 1848TIP3    H127103   0.683   3.381   6.974 -1.7898 -0.5729  0.3279
 1848TIP3    H227104   0.640   3.487   6.875  0.4195  0.0737  0.0036
 1849TIP3   OH227105   3.537   5.158   2.080 -0.0254  0.0738  0.3091
 1849TIP3    H127106   3.562   5.193   2.166  2.9501 -1.6106  0.2538
 1849TIP3    H227107   3.610   5.102   2.055 -1.5442 -0.7715 -2.6356
 1850TIP3   OH227108   2.727   2.897   2.624 -0.1367 -0.4143  0.0788
 1850TIP3    H127109   2.813   2.863   2.599  0.2311 -0.8073  1.7829
 1850TIP3    H227110   2.746   2.964   2.690 -1.1967 -2.2375  2.3738
 1851TIP3   OH227111   3.134   0.914   0.948 -0.4024  0.0430  0.4666
 1851TIP3    H127112   3.223   0.920   0.983 -0.3273 -1.0924  0.5049
 1851TIP3    H227113   3.078   0.943   1.020 -0.1389 -0.5033  0.8960
 1852TIP3   OH227114   6.472   4.895   6.569  0.0266  0.0763 -0.2396
 1852TIP3    H127115   6.440   4.984   6.553  0.3622  0.1237 -0.6439
 1852TIP3    H227116   6.407   4.857   6.629 -0.3471  0.4489 -0.4042
 1853TIP3   OH227117   0.743   2.800   8.268 -0.0115 -0.1059  0.1307
 1853TIP3    H127118   0.751   2.734   8.199 -1.5407  1.2000 -1.4080
 1853TIP3    H227119   0.649   2.807   8.283  0.2523  0.2253  1.8105
 1854TIP3   OH227120   5.402   1.835   6.686 -0.4757  0.1560  0.8624
 1854TIP3    H127121   5.439   1.866   6.603  0.0738 -0.8474  0.7196
 1854TIP3    H227122   5.396   1.740   6.676 -0.3815  0.0172  1.9787
 1855TIP3   OH227123   5.115   5.144   8.484 -0.1365 -0.3629  0.3089
 1855TIP3    H127124   5.094   5.087   8.410 -0.0214 -0.4904  0.3733
 1855TIP3    H227125   5.177   5.208   8.449 -1.4926  0.7204 -0.1733
 1856TIP3   OH227126   0.143   2.215   8.003  0.4963 -0.1037  0.2013
 1856TIP3    H127127   0.050   2.214   8.024  0.5246 -0.5789  0.3321
 1856TIP3    H227128   0.186   2.240   8.085  0.4713  0.3777  0.0702
 1857TIP3   OH227129   2.088   2.665   1.324  0.0936  0.2584 -0.0810
 1857TIP3    H127130   2.129   2.674   1.410  2.3032 -0.0192 -1.0528
 1857TIP3    H227131   2.114   2.743   1.276  1.1383 -0.8233 -1.3462
 1858TIP3   OH227132   6.238   1.216   2.179  0.4437  0.3598 -0.0077
 1858TIP3    H127133   6.306   1.149   2.185  0.3921 -0.0788 -2.6922
 1858TIP3    H227134   6.192   1.212   2.263  2.5001 -0.6546  1.1509
 1859TIP3   OH227135   2.887   1.516   6.587 -0.2156  0.1518 -0.5494
 1859TIP3    H127136   2.812   1.573   6.602 -0.6709  0.0216 -2.1007
 1859TIP3    H227137   2.951   1.541   6.654 -0.5228  2.2508 -0.9727
 1860TIP3   OH227138   3.693   0.407   7.188 -0.0413  0.2145 -0.0055
 1860TIP3    H127139   3.674   0.389   7.280 -0.4995  0.0256 -0.1382
 1860TIP3    H227140   3.756   0.479   7.191 -1.0458  1.1008  0.4337
 1861TIP3   OH227141   5.378   5.661   7.816 -0.4246 -0.0095  0.4407
 1861TIP3    H127142   5.397   5.607   7.740 -0.4984 -1.8712  1.6661
 1861TIP3    H227143   5.286   5.685   7.807 -0.2434  0.4037 -0.3911
 1862TIP3   OH227144   5.869   1.982   8.208 -0.3107  0.1308  0.6208
 1862TIP3    H127145   5.893   2.074   8.216 -1.3490  0.4023  0.7752
 1862TIP3    H227146   5.904   1.940   8.286 -0.6107  0.5805  0.9995
 1863TIP3   OH227147   3.596   5.297   8.363  0.1026 -0.1049 -0.2062
 1863TIP3    H127148   3.517   5.285   8.415  0.7365 -0.2328  0.7493
 1863TIP3    H227149   3.575   5.369   8.304 -1.2596 -1.1347 -1.0422
 1864TIP3   OH227150   0.894   5.219   7.688 -0.2046 -0.3633  0.1260
 1864TIP3    H127151   0.864   5.225   7.598  0.1321  0.1984  0.0443
 1864TIP3    H227152   0.851   5.291   7.733  0.8198  0.3266  0.0510
 1865TIP3   OH227153   6.549   3.905   7.516  0.0305 -0.1535  0.1853
 1865TIP3    H127154   6.478   3.855   7.556 -1.0897 -0.0998 -1.6215
 1865TIP3    H227155   6.608   3.839   7.480 -0.5356 -0.2061 -0.6691
 1866TIP3   OH227156   5.192   0.543   7.869  0.5108 -0.9157  0.7820
 1866TIP3    H127157   5.159   0.539   7.779 -1.3456 -1.9462  1.4523
 1866TIP3    H227158   5.129   0.600   7.914  1.3471 -0.5245  1.4608
 1867TIP3   OH227159   6.542   4.744   7.868  0.0129 -0.4027  0.6689
 1867TIP3    H127160   6.491   4.741   7.787  3.8899 -0.0468 -2.0936
 1867TIP3    H227161   6.539   4.654   7.901 -2.7521 -0.2561  1.0251
 1868TIP3   OH227162   3.263   4.302   1.794  0.0036 -0.1478 -0.3146
 1868TIP3    H127163   3.169   4.286   1.790 -0.4302  1.7629  1.0096
 1868TIP3    H227164   3.292   4.297   1.703 -1.7837  1.4077 -1.0248
 1869TIP3   OH227165   0.262   1.052   7.149  0.4206  0.4328  0.1595
 1869TIP3    H127166   0.313   0.972   7.139  0.4125  0.5957 -1.4953
 1869TIP3    H227167   0.322   1.114   7.190  1.1124  0.2045 -0.4894
 1870TIP3   OH227168   1.318   0.426   1.403  0.6825  0.5651 -0.0628
 1870TIP3    H127169   1.354   0.459   1.486  1.0545  1.3670 -0.5340
 1870TIP3    H227170   1.381   0.455   1.336 -0.3500  1.1780 -0.7890
 1871TIP3   OH227171   6.718   4.254   7.294  0.0630 -0.2827  0.2679
 1871TIP3    H127172   6.768   4.334   7.278  0.2705 -0.0622  1.8340
 1871TIP3    H227173   6.716   4.246   7.390 -0.2898 -1.9435  0.1519
 1872TIP3   OH227174   5.338   1.114   1.068 -0.3315  0.5029  0.1331
 1872TIP3    H127175   5.427   1.150   1.066  0.2891 -0.9822 -1.6138
 1872TIP3    H227176   5.346   1.032   1.117 -0.9838  0.8740  0.8925
 1873TIP3   OH227177   4.511   4.890   7.653 -0.0122 -0.3774 -0.5482
 1873TIP3    H127178   4.417   4.875   7.660 -0.3170  0.8586 -1.7322
 1873TIP3    H227179   4.550   4.803   7.668 -1.1040 -0.4054  3.1025
 1874TIP3   OH227180   3.425   1.201   8.100 -0.3829  0.1471  0.1140
 1874TIP3    H127181   3.433   1.182   8.007 -1.8304  1.0996 -0.2368
 1874TIP3    H227182   3.372   1.281   8.104 -0.1806  0.2418  1.7504
 1875TIP3   OH227183   5.216   5.805   6.667 -0.0301 -0.7997 -0.6440
 1875TIP3    H127184   5.267   5.739   6.714 -0.8672 -2.4422 -1.9288
 1875TIP3    H227185   5.209   5.770   6.578 -1.9105  0.2406 -0.9468
 1876TIP3   OH227186   1.711   4.481   8.718 -0.0981  0.1693  0.3034
 1876TIP3    H127187   1.618   4.498   8.700 -0.1754 -1.2550 -0.7947
 1876TIP3    H227188   1.710   4.426   8.796 -0.3214 -1.4812 -0.8244
 1877TIP3   OH227189   4.828   2.593   8.244  0.0246 -0.2007 -0.3323
 1877TIP3    H127190   4.895   2.525   8.255  0.3782  0.1471 -0.2996
 1877TIP3    H227191   4.867   2.671   8.284  1.0523  0.9275 -3.2943
 1878TIP3   OH227192   0.886   1.962   6.786  0.4378 -0.2023 -0.0474
 1878TIP3    H127193   0.830   1.896   6.745 -0.1378  1.8773 -2.9293
 1878TIP3    H227194   0.845   1.979   6.871 -2.6672  0.3546 -1.5272
 1879TIP3   OH227195   2.031   4.187   8.532 -0.5499 -0.2047 -0.2501
 1879TIP3    H127196   2.009   4.232   8.450  1.1547 -0.0101 -0.6219
 1879TIP3    H227197   1.947   4.182   8.579 -1.7204 -0.9045 -2.2676
 1880TIP3   OH227198   0.565   1.433   8.807 -0.5346 -0.1956 -0.1798
 1880TIP3    H127199   0.582   1.522   8.778 -2.0563  0.6325  1.3327
 1880TIP3    H227200   0.472   1.431   8.826 -0.8973 -2.6257 -1.7506
 1881TIP3   OH227201   6.260   3.481   0.153  0.6197 -0.1001  0.5670
 1881TIP3    H127202   6.206   3.402   0.145  1.7509 -0.6834 -2.1370
 1881TIP3    H227203   6.213   3.548   0.104  1.0767  0.1094  0.4083
 1882TIP3   OH227204   5.175   4.802   7.755 -0.3941 -0.3286  0.1931
 1882TIP3    H127205   5.108   4.854   7.799 -0.9570 -1.0836  0.2535
 1882TIP3    H227206   5.127   4.751   7.690  0.3330  0.2553 -0.8216
 1883TIP3   OH227207   2.874   0.257   1.860  0.6020 -0.1656 -0.2893
 1883TIP3    H127208   2.902   0.346   1.842 -1.1765  0.4705 -0.1493
 1883TIP3    H227209   2.944   0.220   1.914  2.1199  0.5808 -1.6749
 1884TIP3   OH227210   1.796   1.644   1.655  0.4232 -0.5425  0.2659
 1884TIP3    H127211   1.723   1.609   1.604  0.9232 -2.3786  0.7358
 1884TIP3    H227212   1.869   1.647   1.593  0.1599  0.5015  0.0059
 1885TIP3   OH227213   2.162   1.790   0.951 -0.3993  0.2179 -0.1003
 1885TIP3    H127214   2.164   1.709   0.901  1.1951 -0.2754  0.7051
 1885TIP3    H227215   2.148   1.859   0.886  1.9293 -0.3687 -1.3009
 1886TIP3   OH227216   5.481   5.391   8.862  0.6275 -0.7194 -0.1585
 1886TIP3    H127217   5.515   5.387   8.772  0.3836  1.7001 -0.4260
 1886TIP3    H227218   5.423   5.467   8.862 -0.4680 -1.5006  1.7277
 1887TIP3   OH227219   5.780   2.012   6.787 -1.0647  0.4293 -0.1013
 1887TIP3    H127220   5.711   2.034   6.724 -1.5488 -0.5006  0.0877
 1887TIP3    H227221   5.740   2.027   6.872 -1.1849 -0.5171  0.0178
 1888TIP3   OH227222   0.433   2.045   1.289  0.7047 -0.0190 -0.4368
 1888TIP3    H127223   0.487   1.967   1.302  0.7894  0.3711  2.0676
 1888TIP3    H227224   0.361   2.015   1.234  0.0928 -2.2095  1.3948
 1889TIP3   OH227225   2.071   0.355   1.922 -0.2250  0.1992 -0.0476
 1889TIP3    H127226   2.007   0.388   1.859  0.3530 -0.5445 -1.0432
 1889TIP3    H227227   2.018   0.333   1.999 -1.1182  0.0202 -0.6905
 1890TIP3   OH227228   6.480   2.742   7.646 -0.2685 -0.1594 -0.0817
 1890TIP3    H127229   6.477   2.753   7.551  1.0298 -0.6890 -0.2038
 1890TIP3    H227230   6.516   2.825   7.678 -2.7186  0.8842  0.1793
 1891TIP3   OH227231   6.306   6.674   8.195 -0.1471  0.2098 -0.8674
 1891TIP3    H127232   6.379   6.640   8.246 -0.5159  0.4772 -0.1521
 1891TIP3    H227233   6.345   6.741   8.139  0.7016 -1.7132 -2.7105
 1892TIP3   OH227234   1.126   4.625   0.739  0.6134 -0.7469 -0.2954
 1892TIP3    H127235   1.039   4.611   0.703  1.2996 -1.5380 -1.6951
 1892TIP3    H227236   1.126   4.716   0.768 -0.6399 -0.7218 -0.3465
 1893TIP3   OH227237   0.844   4.961   0.014 -0.2529  0.2558  0.0558
 1893TIP3    H127238   0.853   4.869  -0.010  0.9274  0.7656 -1.7667
 1893TIP3    H227239   0.774   4.994  -0.043  0.6757  0.8748 -0.7821
 1894TIP3   OH227240   6.166   3.297   2.021 -0.0045 -0.2011 -0.2251
 1894TIP3    H127241   6.103   3.249   2.075  0.3730 -0.9307 -0.4130
 1894TIP3    H227242   6.202   3.364   2.079  0.0845 -0.6978  0.3066
 1895TIP3   OH227243   4.492   0.728   1.998  0.2165 -0.7314 -0.0155
 1895TIP3    H127244   4.544   0.740   1.919 -0.9162 -1.2288 -0.8775
 1895TIP3    H227245   4.516   0.642   2.030  0.8035 -0.4579  0.2779
 1896TIP3   OH227246   0.475   3.587   1.301 -0.1728 -0.0529  0.0046
 1896TIP3    H127247   0.390   3.546   1.316  0.4085 -1.5917 -0.6783
 1896TIP3    H227248   0.502   3.619   1.387 -1.3921  0.3731  0.2403
 1897TIP3   OH227249   3.473   1.089   0.361  0.0473  0.1948  0.2003
 1897TIP3    H127250   3.454   1.035   0.285  1.1041 -1.4024  1.0269
 1897TIP3    H227251   3.527   1.160   0.327 -1.7265  1.0539 -0.9749
 1898TIP3   OH227252   1.760   0.232   8.074 -0.0679  0.0797 -0.0035
 1898TIP3    H127253   1.693   0.187   8.023 -0.2196  2.0391 -1.6293
 1898TIP3    H227254   1.712   0.293   8.129  0.2132 -0.8909  1.3732
 1899TIP3   OH227255   4.685   0.277   8.389  0.0598 -0.4083  0.6295
 1899TIP3    H127256   4.741   0.200   8.388  0.2840 -0.2620  1.2441
 1899TIP3    H227257   4.605   0.248   8.345  0.7970 -0.4597 -0.7221
 1900TIP3   OH227258   5.581   0.350   1.303  0.0554  0.1059 -0.2546
 1900TIP3    H127259   5.642   0.416   1.334 -1.2702  1.9090 -1.3083
 1900TIP3    H227260   5.633   0.295   1.244  1.6619 -1.1150  2.1500
 1901TIP3   OH227261   6.173   0.435   8.297  0.2231 -0.1104  0.1015
 1901TIP3    H127262   6.167   0.375   8.223  0.2437 -2.2471  1.7514
 1901TIP3    H227263   6.177   0.379   8.374 -0.5013  2.0245  1.8090
 1902TIP3   OH227264   3.921   0.166   1.279 -0.2533 -0.0715 -0.2507
 1902TIP3    H127265   3.960   0.104   1.342 -0.6659 -0.0830 -0.0052
 1902TIP3    H227266   3.873   0.110   1.217 -0.1866 -0.0308 -0.3403
 1903TIP3   OH227267   2.158   3.500   0.253  0.2541  0.0747 -0.2408
 1903TIP3    H127268   2.153   3.432   0.186  3.2453  0.3760 -0.8720
 1903TIP3    H227269   2.168   3.582   0.204 -0.1740  0.6384  0.5742
 1904TIP3   OH227270   4.731   3.664   1.605 -0.2035 -0.5289  0.1634
 1904TIP3    H127271   4.716   3.583   1.654 -0.2928 -1.8149 -1.8487
 1904TIP3    H227272   4.651   3.676   1.555  0.5542 -0.3109 -1.0324
 1905TIP3   OH227273   6.078   0.965   8.034 -0.0588 -0.0491 -0.3622
 1905TIP3    H127274   6.083   0.960   7.939 -0.1627  0.2688 -0.3868
 1905TIP3    H227275   6.043   0.880   8.061  0.1255 -0.1983 -0.5940
 1906TIP3   OH227276   2.803   3.698   7.641  0.3993 -0.3796  0.3006
 1906TIP3    H127277   2.798   3.729   7.731 -1.0983 -1.2693  0.5500
 1906TIP3    H227278   2.872   3.632   7.642  0.5935 -0.1727  0.7237
 1907TIP3   OH227279   5.899   1.264   8.298  0.0421 -0.2392  0.0961
 1907TIP3    H127280   5.860   1.272   8.386 -0.2401 -0.6179  0.0066
 1907TIP3    H227281   5.831   1.222   8.246 -0.7604  2.1745 -0.9382
 1908TIP3   OH227282   5.798   0.079   0.676  0.5248  0.2293  0.1878
 1908TIP3    H127283   5.814   0.119   0.591  1.4962 -0.0437  0.2322
 1908TIP3    H227284   5.714   0.116   0.704  0.6340  1.0205 -0.4735
 1909TIP3   OH227285   3.404   2.206   2.882 -0.1619  0.1183 -0.5532
 1909TIP3    H127286   3.340   2.148   2.923 -0.8566  1.5243  0.4465
 1909TIP3    H227287   3.360   2.238   2.803  0.2840 -0.8096 -1.1917
 1910TIP3   OH227288   0.993   3.703   7.450  0.1191  0.1270 -0.2234
 1910TIP3    H127289   0.994   3.609   7.467  1.1957  0.6121  3.1770
 1910TIP3    H227290   1.078   3.722   7.412 -0.2439 -0.2874 -1.2711
 1911TIP3   OH227291   6.105   3.582   7.377  0.2507 -0.0016 -0.1256
 1911TIP3    H127292   6.096   3.490   7.352 -0.0587  0.0158 -0.0819
 1911TIP3    H227293   6.198   3.592   7.396  0.4407 -0.0964 -0.9512
 1912TIP3   OH227294   1.666   6.350   6.700  0.1130  1.1076  0.3153
 1912TIP3    H127295   1.653   6.400   6.619 -1.2723 -0.6690 -0.6370
 1912TIP3    H227296   1.734   6.397   6.746  0.3622  2.6664 -1.5040
 1913TIP3   OH227297   3.871   6.057   1.130  0.3435  0.1443  0.1560
 1913TIP3    H127298   3.936   6.075   1.063 -0.7926  1.9402 -0.5319
 1913TIP3    H227299   3.913   6.085   1.212 -0.0069  2.5951 -0.4472
 1914TIP3   OH227300   4.596   0.767   1.428 -0.3974 -0.4864  0.5793
 1914TIP3    H127301   4.687   0.794   1.417 -0.4563 -0.1201  0.9516
 1914TIP3    H227302   4.599   0.672   1.435 -0.1465 -0.5585 -0.4233
 1915TIP3   OH227303   5.968   5.168   7.091 -0.7514  0.3633 -0.3053
 1915TIP3    H127304   6.006   5.253   7.067  2.5757 -0.0998  2.5417
 1915TIP3    H227305   6.042   5.107   7.088 -1.7957 -1.2849  2.8130
 1916TIP3   OH227306   2.456   4.359   0.204 -0.3355 -0.2712 -0.4060
 1916TIP3    H127307   2.407   4.284   0.170  2.7305 -2.2216 -0.9418
 1916TIP3    H227308   2.461   4.345   0.298  0.5448 -0.9749 -0.5501
 1917TIP3   OH227309   5.480   3.002   7.544 -0.0391  0.1819  0.0314
 1917TIP3    H127310   5.529   2.997   7.462  1.2513 -0.2356  0.8017
 1917TIP3    H227311   5.547   3.011   7.612 -1.0749  0.4223  1.0563
 1918TIP3   OH227312   4.780   3.177   0.567 -0.2354 -0.2818  0.0028
 1918TIP3    H127313   4.871   3.206   0.566  0.3009 -1.8820  0.1556
 1918TIP3    H227314   4.784   3.083   0.585 -1.9710 -0.1777  1.2887
 1919TIP3   OH227315   2.567   5.611   8.751 -0.1420  0.4129  0.2060
 1919TIP3    H127316   2.540   5.552   8.681  0.6788 -0.1081  0.3056
 1919TIP3    H227317   2.572   5.697   8.709 -0.3032  0.2249 -0.2100
 1920TIP3   OH227318   1.304   0.998   2.565  0.0890  0.1511 -0.6171
 1920TIP3    H127319   1.379   1.001   2.625 -0.0715  0.6264 -0.4415
 1920TIP3    H227320   1.327   1.058   2.495  0.3527 -0.5338 -1.1332
 1921TIP3   OH227321   3.985   5.278   0.241 -0.2763 -0.4243  0.7774
 1921TIP3    H127322   4.010   5.187   0.255  0.9781 -0.1150  0.6371
 1921TIP3    H227323   3.906   5.273   0.187  0.9036 -1.4085 -0.9526
 1922TIP3   OH227324   0.059   3.020   0.909  0.6293 -0.0175 -0.0731
 1922TIP3    H127325  -0.015   3.023   0.848 -0.3945  0.5966  1.1504
 1922TIP3    H227326   0.062   2.930   0.940  0.8884 -0.2281 -0.7027
 1923TIP3   OH227327   5.930   6.393   0.469 -0.9271  0.5091 -0.0143
 1923TIP3    H127328   5.845   6.430   0.492 -1.1368 -0.4227  0.7644
 1923TIP3    H227329   5.966   6.362   0.552 -0.1370  0.2565 -0.4409
 1924TIP3   OH227330   6.466   4.039   8.816  0.4870 -0.4201 -0.1496
 1924TIP3    H127331   6.498   4.054   8.905 -0.0049 -0.9079  0.1143
 1924TIP3    H227332   6.371   4.029   8.826  0.3070  0.4533 -0.8529
 1925TIP3   OH227333   4.024   3.054   7.576 -0.7903 -0.0289  0.0085
 1925TIP3    H127334   4.003   2.964   7.551 -0.5440 -0.6153  1.7528
 1925TIP3    H227335   4.112   3.069   7.543 -0.9177 -0.3404 -0.4793
 1926TIP3   OH227336   5.402   1.718   7.732  0.0429  0.3406 -0.4293
 1926TIP3    H127337   5.431   1.808   7.744 -1.1164  0.8530 -1.1956
 1926TIP3    H227338   5.333   1.706   7.797 -0.3492  0.2900 -0.8429
 1927TIP3   OH227339   3.985   5.456   2.298  0.4789  0.3045 -0.2959
 1927TIP3    H127340   3.947   5.374   2.267 -0.7280  1.0217 -0.7656
 1927TIP3    H227341   4.078   5.449   2.275  0.0264 -0.0959 -2.1519
 1928TIP3   OH227342   6.769   5.720   7.307  0.0647  0.7539  0.1409
 1928TIP3    H127343   6.775   5.728   7.212  0.7992 -3.8529 -0.4300
 1928TIP3    H227344   6.707   5.650   7.322  2.3628 -0.9420  2.8106
 1929TIP3   OH227345   1.832   6.089   2.101  0.9730 -0.0518 -0.1147
 1929TIP3    H127346   1.879   6.044   2.171 -3.1596 -1.6115  1.9601
 1929TIP3    H227347   1.794   6.166   2.144  0.6710  0.5506 -1.4155
 1930TIP3   OH227348   4.023   2.127   1.800  0.1097  0.0819 -0.0328
 1930TIP3    H127349   4.070   2.064   1.854 -0.5292 -0.1566  0.2496
 1930TIP3    H227350   3.946   2.080   1.768 -0.3571  0.6994  0.1519
 1931TIP3   OH227351   1.617   0.290   2.080  0.0556 -0.7627 -0.5249
 1931TIP3    H127352   1.532   0.322   2.049  0.7924  0.6489 -1.1779
 1931TIP3    H227353   1.607   0.282   2.175 -0.8347 -0.7065 -0.6067
 1932TIP3   OH227354   4.459   6.031   8.618  0.1858  0.0137 -0.2263
 1932TIP3    H127355   4.406   5.951   8.615 -0.7179  0.6100 -0.8431
 1932TIP3    H227356   4.423   6.081   8.691  0.3890  0.0998 -0.1845
 1933TIP3   OH227357   6.234   2.227   0.880 -0.0514 -0.1953 -0.3270
 1933TIP3    H127358   6.320   2.226   0.839  0.4605  0.7967  0.6617
 1933TIP3    H227359   6.244   2.175   0.960 -0.5561 -0.6498 -0.5564
 1934TIP3   OH227360   5.468   4.395   6.903  0.6459  0.4883 -0.9380
 1934TIP3    H127361   5.475   4.310   6.947  1.6838  0.5327 -1.0034
 1934TIP3    H227362   5.478   4.460   6.973 -0.1555  0.5717 -0.8865
 1935TIP3   OH227363   2.147   4.199   1.751 -0.3320 -0.2684  0.0763
 1935TIP3    H127364   2.228   4.247   1.768 -0.8624 -0.0409  2.2164
 1935TIP3    H227365   2.112   4.179   1.838 -1.7910 -1.7144 -0.7865
 1936TIP3   OH227366   1.499   4.303   1.568  0.0664  0.6882  1.2024
 1936TIP3    H127367   1.480   4.341   1.482 -0.2555  1.7147  1.7076
 1936TIP3    H227368   1.500   4.208   1.553  1.0517  0.8876 -0.1278
 1937TIP3   OH227369   4.714   3.084   8.080 -0.5393  0.0903 -0.2528
 1937TIP3    H127370   4.796   3.042   8.055  0.0297  1.9337 -1.6295
 1937TIP3    H227371   4.739   3.172   8.108 -1.9578  0.3650  0.2530
 1938TIP3   OH227372   0.157   3.517   7.669  0.1472 -0.8406 -0.6089
 1938TIP3    H127373   0.237   3.489   7.714  0.4471 -0.4447 -0.8970
 1938TIP3    H227374   0.159   3.471   7.585  0.5312 -0.1209 -0.9937
 1939TIP3   OH227375   0.238   2.405   0.342  0.3249  0.4202 -0.6910
 1939TIP3    H127376   0.247   2.498   0.363  0.5857  0.4650 -0.9915
 1939TIP3    H227377   0.223   2.403   0.247 -0.7459  0.2161 -0.5256
 1940TIP3   OH227378   1.862   2.399   0.035  0.3279  0.7219  0.2836
 1940TIP3    H127379   1.847   2.488   0.066 -1.7952  0.0765  1.2937
 1940TIP3    H227380   1.874   2.408  -0.059 -1.0688  1.9648  0.2005
 1941TIP3   OH227381   3.065   4.484   2.536 -0.3674 -0.1775 -0.0665
 1941TIP3    H127382   3.055   4.534   2.617  0.2082 -1.2358  0.6766
 1941TIP3    H227383   3.137   4.528   2.490 -0.7217  0.4497 -0.0405
 1942TIP3   OH227384   1.288   5.658   2.508  0.3266 -0.5228 -0.6643
 1942TIP3    H127385   1.367   5.710   2.520 -0.2893  0.1766  0.6303
 1942TIP3    H227386   1.217   5.723   2.501 -0.3492 -1.1392  0.1363
 1943TIP3   OH227387   5.899   3.922   2.274 -0.0913 -0.0815 -0.3358
 1943TIP3    H127388   5.833   3.852   2.273 -0.3653  0.1787 -0.6658
 1943TIP3    H227389   5.848   4.003   2.276  0.2068  0.1154  1.5191
 1944TIP3   OH227390   3.609   6.052   0.504 -0.2817  0.1664  0.5793
 1944TIP3    H127391   3.657   6.050   0.586  2.4321 -1.2666 -0.9113
 1944TIP3    H227392   3.535   5.993   0.518  0.3724 -0.3881  1.8705
 1945TIP3   OH227393   0.425   3.578   7.298 -0.0794  0.0918  0.4791
 1945TIP3    H127394   0.431   3.615   7.209  0.5941  1.0656  0.9014
 1945TIP3    H227395   0.471   3.495   7.292 -0.2515  0.0322 -0.1432
 1946TIP3   OH227396   5.942   3.905   1.548  0.9336 -0.4148 -0.2268
 1946TIP3    H127397   5.855   3.868   1.532  1.2181 -1.5643  0.7491
 1946TIP3    H227398   5.926   3.995   1.577 -0.0879 -1.2939  2.1182
 1947TIP3   OH227399   5.375   3.328   7.079 -0.1955 -0.4157 -0.3818
 1947TIP3    H127400   5.358   3.374   6.997  1.2859  0.8160 -0.0359
 1947TIP3    H227401   5.427   3.252   7.053  0.7223  0.2559 -0.5493
 1948TIP3   OH227402   2.084   5.060   2.352 -0.4940 -0.0596 -0.1351
 1948TIP3    H127403   2.141   5.108   2.413  0.0039 -1.9320  0.9491
 1948TIP3    H227404   2.144   5.014   2.294 -0.9458 -0.0891 -0.5817
 1949TIP3   OH227405   0.715   6.720   7.111  0.0307  0.5263 -0.0751
 1949TIP3    H127406   0.765   6.652   7.157  1.2314  0.3648 -1.5312
 1949TIP3    H227407   0.742   6.802   7.153  0.2881  0.2896  0.2263
 1950TIP3   OH227408   4.697   2.747   1.213 -0.0799  0.1402 -0.2880
 1950TIP3    H127409   4.689   2.651   1.219  0.5071 -0.0286 -1.7039
 1950TIP3    H227410   4.641   2.780   1.283  2.0688 -1.2610  2.2927
 1951TIP3   OH227411   6.635   0.942   6.005 -0.3301 -0.0308  0.1214
 1951TIP3    H127412   6.604   0.856   5.977  0.1066 -0.4449  0.8868
 1951TIP3    H227413   6.689   0.925   6.082 -0.7602  0.9989  0.6790
 1952TIP3   OH227414   1.159   3.567   1.688 -1.0363  0.3416 -0.0556
 1952TIP3    H127415   1.137   3.661   1.691 -1.6443  0.1897  1.1592
 1952TIP3    H227416   1.250   3.563   1.718  0.0505  0.7777 -2.9985
 1953TIP3   OH227417   2.937   4.470   1.730 -0.3157 -0.2316 -0.2564
 1953TIP3    H127418   2.927   4.514   1.814 -0.0336  1.0503 -0.8784
 1953TIP3    H227419   3.032   4.463   1.718 -0.3185  0.9122 -1.1189
 1954TIP3   OH227420   3.609   0.605   8.630  0.3677 -0.3058 -0.2360
 1954TIP3    H127421   3.643   0.661   8.699  0.2244  0.4471 -0.7631
 1954TIP3    H227422   3.582   0.525   8.675 -1.3257  0.8219  0.8715
 1955TIP3   OH227423   3.758   5.807   8.798 -0.7181 -0.2752 -0.1503
 1955TIP3    H127424   3.673   5.812   8.753 -0.9994 -2.2006  0.0992
 1955TIP3    H227425   3.740   5.840   8.886 -1.5990 -1.9993  0.3593
 1956TIP3   OH227426   1.105   5.569   1.030  0.3778 -0.0897  0.6736
 1956TIP3    H127427   1.124   5.584   1.123 -1.2281 -3.2863  1.6537
 1956TIP3    H227428   1.010   5.566   1.026  0.4081  0.6240 -1.2353
 1957TIP3   OH227429   5.421   1.680   8.078  1.1942  0.8340  0.2622
 1957TIP3    H127430   5.476   1.602   8.083  0.8446  0.6538  1.6279
 1957TIP3    H227431   5.460   1.742   8.139  0.5084  1.1027  0.4464
 1958TIP3   OH227432   0.105   0.255   5.685 -0.8568 -0.2096  0.2638
 1958TIP3    H127433   0.157   0.324   5.643 -1.8993 -0.2336 -1.1696
 1958TIP3    H227434   0.147   0.173   5.657  0.6148 -0.2200  2.2792
 1959TIP3   OH227435   5.059   6.446   0.735  0.0998  0.2663 -0.0199
 1959TIP3    H127436   5.032   6.441   0.643 -0.2102 -0.5042  0.1088
 1959TIP3    H227437   5.060   6.355   0.764  3.5085  0.1393 -0.1906
 1960TIP3   OH227438   6.040   0.878   7.044  0.1983  0.7582 -0.4750
 1960TIP3    H127439   6.031   0.971   7.062 -0.6183  0.4252  1.0241
 1960TIP3    H227440   5.982   0.862   6.969  0.5213  1.4890 -0.8838
 1961TIP3   OH227441   3.160   6.619   0.907  0.3931  0.3121  0.4969
 1961TIP3    H127442   3.103   6.638   0.982  0.0643 -1.3365  0.7092
 1961TIP3    H227443   3.176   6.704   0.867 -0.8236  1.0280  1.4483
 1962TIP3   OH227444   2.077   0.530   1.668  0.2259 -0.3494 -0.1774
 1962TIP3    H127445   2.085   0.436   1.651 -0.3144 -0.1605 -1.7129
 1962TIP3    H227446   1.983   0.545   1.678  0.3694 -0.0788  0.9003
 1963TIP3   OH227447   0.113   2.414   7.189 -0.2782  0.4958  0.1203
 1963TIP3    H127448   0.161   2.350   7.137  0.1790  1.8494 -1.1840
 1963TIP3    H227449   0.122   2.496   7.141 -1.2455  1.4551  1.4970
 1964TIP3   OH227450   2.007   3.026   7.808 -0.9153  0.0237 -0.4958
 1964TIP3    H127451   1.996   3.112   7.768  0.7239  0.4752 -0.0434
 1964TIP3    H227452   2.083   3.036   7.865 -1.6275 -1.3050  0.7564
 1965TIP3   OH227453   5.145   4.121   1.113  0.0077 -0.3210 -0.1217
 1965TIP3    H127454   5.194   4.041   1.092  2.4485  0.5656  1.7587
 1965TIP3    H227455   5.145   4.125   1.208 -1.0157  1.3902 -0.1570
 1966TIP3   OH227456   2.606   5.157   1.242 -0.1897 -0.1484  0.4987
 1966TIP3    H127457   2.620   5.150   1.148  0.2608 -0.6919  0.5980
 1966TIP3    H227458   2.666   5.227   1.270 -1.1696  0.8333  0.2211
 1967TIP3   OH227459   4.423   0.850   2.431 -0.4466  0.6492 -0.1779
 1967TIP3    H127460   4.349   0.833   2.488  0.4676  0.5928  1.0335
 1967TIP3    H227461   4.462   0.931   2.465 -0.3803  1.0960 -1.2621
 1968TIP3   OH227462   6.567   3.793   6.611 -0.3468 -0.3630  0.1959
 1968TIP3    H127463   6.522   3.713   6.582 -1.2093  0.5839 -1.1900
 1968TIP3    H227464   6.559   3.853   6.537  2.7816  0.0432  0.0728
 1969TIP3   OH227465   3.363   4.210   2.185 -0.5876  0.4251  0.2658
 1969TIP3    H127466   3.385   4.193   2.093 -2.2979 -1.0626  0.0828
 1969TIP3    H227467   3.416   4.287   2.208  0.3723  0.4424 -1.7511
 1970TIP3   OH227468   4.896   0.621   1.319  0.3840  0.1660  0.1418
 1970TIP3    H127469   4.932   0.689   1.375 -1.3158  0.3413  1.1108
 1970TIP3    H227470   4.819   0.590   1.366  1.0053 -2.3437 -0.3311
 1971TIP3   OH227471   0.372   0.667   6.743  0.1097 -0.2294  0.1816
 1971TIP3    H127472   0.433   0.712   6.801 -1.4301 -0.4811  2.1071
 1971TIP3    H227473   0.425   0.604   6.695  1.4590  0.0202  1.3012
 1972TIP3   OH227474   4.284   5.468   0.079  0.0954  0.1530  0.0399
 1972TIP3    H127475   4.288   5.375   0.056  0.2790  0.4394 -1.1542
 1972TIP3    H227476   4.198   5.496   0.047  0.5174  0.6577 -0.6639
 1973TIP3   OH227477   2.947   3.116   7.243  0.5239 -0.5441  0.2814
 1973TIP3    H127478   2.967   3.022   7.240  1.1036 -0.4208  0.1288
 1973TIP3    H227479   2.865   3.125   7.195  0.5680 -0.9511  0.1302
 1974TIP3   OH227480   3.296   6.382   0.446 -0.4412  0.3981  0.0548
 1974TIP3    H127481   3.242   6.311   0.481 -0.7387  1.8503  2.8699
 1974TIP3    H227482   3.379   6.341   0.422 -0.8846 -1.0444  0.8932
 1975TIP3   OH227483   0.318   4.515   0.659  0.4996  0.1064 -0.0406
 1975TIP3    H127484   0.264   4.446   0.621 -0.4141  1.6948 -1.7974
 1975TIP3    H227485   0.258   4.589   0.672  1.5323  0.7535  1.3093
 1976TIP3   OH227486   0.719   5.595   8.382  0.1792 -0.0767 -0.1872
 1976TIP3    H127487   0.710   5.672   8.439  1.7445 -1.1192  1.5797
 1976TIP3    H227488   0.684   5.523   8.434  2.2419 -1.1804 -0.2215
 1977TIP3   OH227489   2.539   5.866   8.680  0.2212 -0.0964 -0.3824
 1977TIP3    H127490   2.535   5.886   8.774 -0.4567  0.3457 -0.5042
 1977TIP3    H227491   2.448   5.863   8.652  0.3820  3.3830 -1.7721
 1978TIP3   OH227492   5.582   5.426   7.020 -0.3012  0.0846  0.0093
 1978TIP3    H127493   5.597   5.332   7.033  1.2366  0.2569 -0.3380
 1978TIP3    H227494   5.507   5.430   6.962  1.3103 -1.0609 -2.3382
 1979TIP3   OH227495   0.677   2.046   7.434 -0.1606  0.0737 -0.6091
 1979TIP3    H127496   0.624   2.090   7.501 -0.7628 -0.1533 -0.9290
 1979TIP3    H227497   0.623   1.973   7.404  1.0166 -1.1887  0.2468
 1980TIP3   OH227498   2.824   2.596   0.264 -0.3698  0.1970 -0.4168
 1980TIP3    H127499   2.868   2.551   0.335 -0.3564 -0.9574 -1.1240
 1980TIP3    H227500   2.763   2.531   0.229 -1.7299  1.3476 -0.2699
 1981TIP3   OH227501   2.580   6.235   6.529  0.4004 -0.0522  0.2385
 1981TIP3    H127502   2.534   6.256   6.448  1.1125 -1.6276 -0.6100
 1981TIP3    H227503   2.575   6.140   6.536  1.1672 -0.0154  1.5521
 1982TIP3   OH227504   3.829   1.013   0.957  0.3504 -0.4697  0.1306
 1982TIP3    H127505   3.904   0.987   0.903  0.7637  0.0083  0.4668
 1982TIP3    H227506   3.844   1.105   0.976 -0.3154 -0.3799  0.2230
 1983TIP3   OH227507   6.103   5.783   7.510  0.5482 -0.1025  0.4585
 1983TIP3    H127508   6.090   5.847   7.580  0.4446 -0.4137  0.7266
 1983TIP3    H227509   6.018   5.776   7.467  0.5164 -0.1826  0.5341
 1984TIP3   OH227510   2.225   2.338   7.757  0.3928 -0.0750  0.3411
 1984TIP3    H127511   2.223   2.250   7.719  0.3895 -0.3245  0.8962
 1984TIP3    H227512   2.151   2.384   7.718  0.8450 -0.0745 -0.5241
 1985TIP3   OH227513   1.527   2.341   8.098 -0.3753 -0.1929  0.2181
 1985TIP3    H127514   1.442   2.366   8.136 -0.6870  0.7779 -1.0495
 1985TIP3    H227515   1.590   2.395   8.145 -0.4515 -0.7882  1.0428
 1986TIP3   OH227516   4.617   3.453   1.736  0.1393  0.5180 -0.8040
 1986TIP3    H127517   4.642   3.450   1.828 -2.4146 -0.8182 -0.0553
 1986TIP3    H227518   4.599   3.362   1.713  1.1257  0.7660 -2.7896
 1987TIP3   OH227519   2.171   3.881   7.905 -0.1710  0.1359 -0.0657
 1987TIP3    H127520   2.202   3.800   7.947 -0.9104 -0.9045 -1.4544
 1987TIP3    H227521   2.237   3.900   7.839 -0.1256  0.5367  0.0957
 1988TIP3   OH227522   0.910   1.927   7.450  0.1036  0.4373  0.2765
 1988TIP3    H127523   0.948   1.938   7.363 -0.0841 -0.9207  0.0070
 1988TIP3    H227524   0.820   1.959   7.441  0.3274  1.0807  0.2103
 1989TIP3   OH227525   4.791   6.359   1.771 -0.0174  0.2241  0.5480
 1989TIP3    H127526   4.835   6.443   1.760 -1.2987  0.8081 -0.3525
 1989TIP3    H227527   4.813   6.333   1.861 -1.9350  2.9779  1.9763
 1990TIP3   OH227528   6.032   4.881   2.156  0.0815 -0.5269 -0.0362
 1990TIP3    H127529   6.066   4.945   2.093  0.0066 -1.2685 -0.8483
 1990TIP3    H227530   5.936   4.890   2.150  0.0241  1.7622  2.4548
 1991TIP3   OH227531   5.458   3.004   0.109  0.3646 -0.0041 -0.2181
 1991TIP3    H127532   5.380   2.953   0.128 -0.5459  0.7220 -1.7794
 1991TIP3    H227533   5.507   2.950   0.047  0.1084  0.3743 -0.7608
 1992TIP3   OH227534   6.006   5.238   0.458 -0.2885  0.6546  0.6050
 1992TIP3    H127535   6.002   5.247   0.363  0.4129 -0.2487  0.4662
 1992TIP3    H227536   6.094   5.268   0.481 -0.5464  1.1110  1.0053
 1993TIP3   OH227537   0.884   2.058   0.231 -0.7304 -0.1550 -0.0316
 1993TIP3    H127538   0.829   2.110   0.172 -1.7694 -0.1129  0.9403
 1993TIP3    H227539   0.964   2.109   0.241 -1.2006  0.6203 -0.1455
 1994TIP3   OH227540   6.220   2.203   8.026  0.2028 -0.3095 -0.3004
 1994TIP3    H127541   6.266   2.199   8.110  2.9952 -1.0988 -1.7452
 1994TIP3    H227542   6.160   2.128   8.028 -1.0302  0.6355  1.5642
 1995TIP3   OH227543   4.509   2.347   6.875  0.3029 -0.2350 -0.1291
 1995TIP3    H127544   4.495   2.273   6.816  0.1652 -0.4648  0.1886
 1995TIP3    H227545   4.594   2.330   6.916 -0.2755 -0.8867  0.8825
 1996TIP3   OH227546   1.650   6.483   0.644 -0.0276  0.2117 -0.0239
 1996TIP3    H127547   1.693   6.496   0.560  2.8603  0.7169  1.4038
 1996TIP3    H227548   1.683   6.398   0.675 -2.1183 -0.6326  0.0709
 1997TIP3   OH227549   4.865   0.056   8.759  0.6137  0.0557  0.4785
 1997TIP3    H127550   4.867   0.053   8.855 -0.1278  1.3085  0.5610
 1997TIP3    H227551   4.825  -0.026   8.733  0.9154 -0.3466  1.2395
 1998TIP3   OH227552   4.795   5.629   1.278  0.3305  0.2092 -0.1097
 1998TIP3    H127553   4.749   5.546   1.265 -1.0751  0.6600  1.5139
 1998TIP3    H227554   4.798   5.640   1.373  0.0645  2.2209 -0.2889
 1999TIP3   OH227555   3.846   1.985   0.535  0.1619  0.4897  0.4672
 1999TIP3    H127556   3.792   2.062   0.556 -1.1020  0.0371 -0.8622
 1999TIP3    H227557   3.877   2.002   0.446  1.0115  0.0695  0.6784
 2000TIP3   OH227558   1.213   1.265   1.471 -0.3760 -0.5871  0.4764
 2000TIP3    H127559   1.277   1.272   1.542 -0.1096 -0.9054  0.2698
 2000TIP3    H227560   1.135   1.309   1.505  0.2284  0.6033  0.3977
 2001TIP3   OH227561   1.893   6.673   0.645  0.5024  0.5306  0.7525
 2001TIP3    H127562   1.820   6.727   0.678  0.5065  2.0032 -1.3966
 2001TIP3    H227563   1.963   6.736   0.628  0.4678 -0.0091 -1.9598
 2002TIP3   OH227564   2.857   2.719   1.224  0.0210 -0.2744  0.2620
 2002TIP3    H127565   2.895   2.755   1.144  1.3676 -0.8982  0.6034
 2002TIP3    H227566   2.768   2.694   1.199  0.0836  0.4604 -0.7666
 2003TIP3   OH227567   2.160   0.916   6.721 -0.0014  0.4610 -0.5554
 2003TIP3    H127568   2.147   0.874   6.636  0.2149  0.1299 -0.4255
 2003TIP3    H227569   2.086   0.976   6.729 -1.3880 -1.2271  0.0627
 2004TIP3   OH227570   3.812   1.193   1.773  0.1989  0.5164  0.2258
 2004TIP3    H127571   3.879   1.141   1.817 -0.6347 -0.8214 -0.0302
 2004TIP3    H227572   3.774   1.134   1.708 -0.3136  1.6685 -0.5620
 2005TIP3   OH227573   5.823   6.289   8.037  0.3080  0.6888  0.3846
 2005TIP3    H127574   5.759   6.232   7.994  0.4631 -0.0481  1.0918
 2005TIP3    H227575   5.771   6.347   8.092  0.0773  1.8983 -1.0298
 2006TIP3   OH227576   2.933   0.941   7.916  0.5752  0.0639  0.5161
 2006TIP3    H127577   2.857   0.885   7.931 -0.9021  1.7433 -0.3031
 2006TIP3    H227578   2.974   0.904   7.837 -2.1312  1.7356 -1.8726
 2007TIP3   OH227579   4.349   3.875   8.871  0.3344  0.5448  0.0413
 2007TIP3    H127580   4.295   3.902   8.797  0.7728  1.1365 -0.0753
 2007TIP3    H227581   4.291   3.823   8.926  0.0890 -0.1697 -0.8746
 2008TIP3   OH227582   0.169   1.266   7.481  0.5866  0.4614 -0.4180
 2008TIP3    H127583   0.093   1.210   7.461  1.4638 -0.5794 -0.9245
 2008TIP3    H227584   0.144   1.311   7.561 -0.2730 -0.4369 -0.1535
 2009TIP3   OH227585   1.780   1.805   6.898 -0.3954  0.4446  0.1950
 2009TIP3    H127586   1.804   1.849   6.980  1.5172  0.3195 -0.2371
 2009TIP3    H227587   1.765   1.714   6.923  1.8766  0.0108  0.2334
 2010TIP3   OH227588   4.842   1.539   8.406  0.2134  0.3068  0.0793
 2010TIP3    H127589   4.901   1.584   8.466  0.7218 -0.1682 -0.0583
 2010TIP3    H227590   4.869   1.568   8.319  1.1688 -0.9618 -0.0750
 2011TIP3   OH227591   2.806   6.755   7.125 -0.5053  0.3166 -0.3140
 2011TIP3    H127592   2.805   6.673   7.174 -0.2852 -0.9464 -2.3149
 2011TIP3    H227593   2.877   6.806   7.164 -1.4017  0.1006  1.7228
 2012TIP3   OH227594   3.983   5.211   1.167 -0.1260  0.2438 -0.2234
 2012TIP3    H127595   4.011   5.206   1.259  2.3133 -1.5941 -0.9799
 2012TIP3    H227596   3.996   5.302   1.143 -1.3533  0.8995  1.3515
 2013TIP3   OH227597   5.704   1.734   0.869  0.8392  0.5724  0.0315
 2013TIP3    H127598   5.611   1.757   0.867  0.7516  0.1742 -1.0983
 2013TIP3    H227599   5.749   1.818   0.879  0.3595  0.7246  1.0972
 2014TIP3   OH227600   0.449   4.208   7.248 -0.4041  0.4908 -0.0753
 2014TIP3    H127601   0.481   4.298   7.250  1.1642 -0.0423  0.8832
 2014TIP3    H227602   0.482   4.169   7.329 -1.0951 -0.9272 -0.4446
 2015TIP3   OH227603   2.550   0.078   7.716 -0.0258  1.4162  0.4981
 2015TIP3    H127604   2.605   0.149   7.749 -0.5283  1.1456  2.0433
 2015TIP3    H227605   2.535   0.023   7.793 -0.7449  0.3619 -0.3663
 2016TIP3   OH227606   1.626   1.722   6.575 -0.0639 -0.3088  0.5499
 2016TIP3    H127607   1.609   1.707   6.482 -0.0436  0.1661  0.4691
 2016TIP3    H227608   1.561   1.669   6.621 -0.6432  0.1509  0.2600
 2017TIP3   OH227609   6.230   3.843   7.385 -0.1867  0.0718  0.0762
 2017TIP3    H127610   6.178   3.774   7.344  2.9139 -1.4656 -1.6174
 2017TIP3    H227611   6.181   3.924   7.369 -1.6171 -1.1583 -2.1859
 2018TIP3   OH227612   4.635   6.628   7.576 -0.3815  0.4713 -0.0585
 2018TIP3    H127613   4.641   6.555   7.637  0.2548  1.1310  0.7100
 2018TIP3    H227614   4.726   6.647   7.553 -0.4115  1.9214  0.8874
 2019TIP3   OH227615   3.714   0.235   0.256 -0.5404 -0.4786  0.2664
 2019TIP3    H127616   3.674   0.290   0.323 -2.8119  1.4923 -2.4737
 2019TIP3    H227617   3.648   0.169   0.236  0.1447 -1.1038 -0.0198
 2020TIP3   OH227618   3.248   1.829   2.273 -0.0591 -0.1286  0.6732
 2020TIP3    H127619   3.327   1.864   2.314 -0.7769  0.3847  1.6545
 2020TIP3    H227620   3.257   1.852   2.181  0.9300 -0.0723  0.7699
 2021TIP3   OH227621   5.277   1.143   8.875  0.6187 -0.2496  0.1986
 2021TIP3    H127622   5.272   1.048   8.890 -1.3565 -0.2071  0.0644
 2021TIP3    H227623   5.243   1.182   8.956 -1.1656  0.2340 -0.7362
 2022TIP3   OH227624   2.408   1.398   7.525 -0.2155  0.3102  0.3910
 2022TIP3    H127625   2.470   1.337   7.486 -1.6664 -1.5126  0.7838
 2022TIP3    H227626   2.452   1.483   7.522  1.1192 -0.3781 -1.9726
 2023TIP3   OH227627   0.511   1.158   8.546  0.3556  0.4719  0.1506
 2023TIP3    H127628   0.515   1.218   8.472  0.3795  0.2477 -0.0337
 2023TIP3    H227629   0.418   1.135   8.553  0.2111  1.2032  0.7726
 2024TIP3   OH227630   2.509   4.498   8.601  0.5583  0.5876  0.0804
 2024TIP3    H127631   2.478   4.582   8.636 -0.9052 -0.4163  1.2998
 2024TIP3    H227632   2.534   4.448   8.679  2.3598  0.2112 -0.6899
 2025TIP3   OH227633   0.012   0.076   0.510  0.0254  0.4280 -0.8178
 2025TIP3    H127634  -0.019   0.156   0.553  0.0354 -0.7543  1.4735
 2025TIP3    H227635   0.027   0.103   0.419 -0.4570  2.8962 -0.2335
 2026TIP3   OH227636   2.624   4.356   8.828 -0.1742 -0.3916 -0.1611
 2026TIP3    H127637   2.563   4.356   8.901 -0.4531  0.9243 -0.3558
 2026TIP3    H227638   2.696   4.412   8.857  1.1163 -2.1436  0.1777
 2027TIP3   OH227639   1.661   1.301   0.295  0.4355 -0.1039  0.0071
 2027TIP3    H127640   1.718   1.250   0.238 -0.1391  1.0472 -1.6647
 2027TIP3    H227641   1.674   1.391   0.268 -2.0357  0.2168 -0.3399
 2028TIP3   OH227642   3.977   1.539   0.559 -0.6277  0.1428 -0.3198
 2028TIP3    H127643   3.982   1.453   0.599 -0.5332  0.1649 -0.2828
 2028TIP3    H227644   3.929   1.526   0.478 -0.0639 -0.0568 -0.6219
 2029TIP3   OH227645   1.229   6.361   1.536  0.2143 -0.2405 -0.3412
 2029TIP3    H127646   1.244   6.314   1.618  0.1155 -0.9079 -0.6987
 2029TIP3    H227647   1.246   6.453   1.557  1.6987 -0.5836  0.0396
 2030TIP3   OH227648   6.302   3.707   8.101  0.4036 -0.3606  0.7288
 2030TIP3    H127649   6.229   3.765   8.080  0.1433 -0.8981  0.1264
 2030TIP3    H227650   6.266   3.619   8.093  1.2429 -0.6381 -0.0639
 2031TIP3   OH227651   2.544   0.181   1.283 -0.4409  0.3203 -0.2719
 2031TIP3    H127652   2.455   0.212   1.269 -0.1360  0.4947 -2.0728
 2031TIP3    H227653   2.595   0.261   1.299 -0.1593  0.5084 -1.9834
 2032TIP3   OH227654   1.222   2.140   0.770  0.0116  0.2666 -0.1517
 2032TIP3    H127655   1.175   2.099   0.697  0.0683 -0.2888  0.1151
 2032TIP3    H227656   1.303   2.089   0.778 -0.3755 -0.2240  0.8264
 2033TIP3   OH227657   0.450   1.669   8.322 -0.2212  0.0188  0.3127
 2033TIP3    H127658   0.368   1.653   8.277 -0.4777 -0.2723  0.8666
 2033TIP3    H227659   0.468   1.761   8.307 -0.1185 -0.1536 -0.6660
 2034TIP3   OH227660   6.011   1.336   1.432 -0.1396  0.2598 -0.3669
 2034TIP3    H127661   6.058   1.278   1.493 -0.3660 -0.2427 -0.6578
 2034TIP3    H227662   6.063   1.416   1.431  0.2172  0.0441  0.0045
 2035TIP3   OH227663   5.601   3.067   8.109 -0.2447  0.1953 -0.5990
 2035TIP3    H127664   5.611   3.066   8.014  0.2594  1.1670 -0.5767
 2035TIP3    H227665   5.683   3.030   8.142 -0.1374  0.4853 -0.5371
 2036TIP3   OH227666   3.008   1.564   8.842 -0.4452  0.3114  0.3409
 2036TIP3    H127667   3.069   1.622   8.887 -0.3951  1.1052 -0.7155
 2036TIP3    H227668   2.935   1.621   8.817 -0.0461  0.1108 -1.4024
 2037TIP3   OH227669   6.115   4.964   1.008 -0.1055 -0.1524 -0.8593
 2037TIP3    H127670   6.172   4.983   1.083 -0.5343  1.0883 -0.8283
 2037TIP3    H227671   6.037   5.016   1.023 -0.8372 -1.0605 -1.4230
 2038TIP3   OH227672   1.051   6.555   1.858 -0.4640 -0.2712  0.9242
 2038TIP3    H127673   1.120   6.542   1.924 -2.3065 -1.9792  2.6397
 2038TIP3    H227674   1.001   6.474   1.859 -2.1817  0.6844 -0.6905
 2039TIP3   OH227675   1.503   1.931   6.817 -0.2932 -0.0637  0.1401
 2039TIP3    H127676   1.413   1.901   6.823  0.0450 -0.9628  1.0437
 2039TIP3    H227677   1.522   1.969   6.903 -0.6054  2.5840 -0.8546
 2040TIP3   OH227678   4.178   1.282   7.745 -0.1736  0.0440  0.1329
 2040TIP3    H127679   4.229   1.280   7.664  1.3243  0.0798  1.0443
 2040TIP3    H227680   4.217   1.213   7.800 -0.6197  0.5651  1.1336
 2041TIP3   OH227681   0.906   4.959   7.996  0.3362 -0.4694  0.1580
 2041TIP3    H127682   0.908   4.925   8.086  0.9753 -1.8534 -0.3348
 2041TIP3    H227683   0.838   4.908   7.953 -0.9276  1.1451  0.1826
 2042TIP3   OH227684   6.549   3.907   1.651  0.7000 -0.2774 -0.0750
 2042TIP3    H127685   6.519   3.854   1.577  0.2500 -0.5077  0.2646
 2042TIP3    H227686   6.581   3.988   1.612  0.1457 -0.2575 -0.5008
 2043TIP3   OH227687   3.518   4.296   0.198 -0.0297 -0.3507  0.4087
 2043TIP3    H127688   3.432   4.254   0.210 -0.3056  0.0103 -0.2277
 2043TIP3    H227689   3.527   4.354   0.274  0.2125 -1.3148  1.1268
 2044TIP3   OH227690   1.305   6.627   1.336  0.1547  0.5928  0.3876
 2044TIP3    H127691   1.382   6.571   1.350 -0.7825 -1.1115 -0.9046
 2044TIP3    H227692   1.265   6.633   1.423  0.1867 -0.9573  0.5500
 2045TIP3   OH227693   1.396   4.814   8.593  0.5153  0.6664 -0.1797
 2045TIP3    H127694   1.457   4.775   8.530 -0.6607 -0.7431 -0.5015
 2045TIP3    H227695   1.349   4.881   8.544 -1.3896 -1.3680 -1.2963
 2046TIP3   OH227696   1.335   3.065   1.235 -0.5777 -0.0968 -0.4057
 2046TIP3    H127697   1.416   3.017   1.255 -0.2084  1.0135  0.9398
 2046TIP3    H227698   1.360   3.127   1.167 -0.2627  0.2518  0.0156
 2047TIP3   OH227699   2.991   3.468   0.626 -0.2011 -0.1482  0.1921
 2047TIP3    H127700   3.029   3.402   0.568 -0.5157 -1.1003  1.0452
 2047TIP3    H227701   2.976   3.544   0.569 -1.5705 -1.4352 -1.2516
 2048TIP3   OH227702   3.563   3.641   0.371  0.5963 -0.1726  0.2983
 2048TIP3    H127703   3.569   3.667   0.279 -0.3148 -1.4451 -0.1507
 2048TIP3    H227704   3.515   3.558   0.370 -0.7768  0.5276  2.0568
 2049TIP3   OH227705   2.076   4.397   0.325 -0.3600  0.0125  0.3386
 2049TIP3    H127706   2.004   4.458   0.338 -0.1587  0.5493 -0.8902
 2049TIP3    H227707   2.040   4.329   0.268 -0.7202 -1.3123  2.0647
 2050TIP3   OH227708   0.453   3.994   1.699 -0.1528 -0.2052  0.2077
 2050TIP3    H127709   0.380   4.003   1.760  0.4571  2.4182  0.6644
 2050TIP3    H227710   0.525   3.958   1.752 -0.4694 -0.7372  0.2832
 2051TIP3   OH227711   1.069   2.275   0.962 -0.2514  0.2072 -0.4185
 2051TIP3    H127712   1.102   2.364   0.957  0.2086  0.1404  1.0441
 2051TIP3    H227713   1.125   2.225   0.903 -1.6140  1.1494 -2.6537
 2052TIP3   OH227714   3.825   4.898   8.866  0.5739  0.2039 -0.0681
 2052TIP3    H127715   3.909   4.856   8.884  0.5861  0.3803  0.3003
 2052TIP3    H227716   3.790   4.920   8.953 -0.6282 -1.3854 -0.0934
 2053TIP3   OH227717   4.772   1.528   8.701  0.4703  0.2219 -0.0448
 2053TIP3    H127718   4.725   1.607   8.675  0.3330  0.5751  1.1869
 2053TIP3    H227719   4.865   1.552   8.693  0.4401  0.1398 -0.7000
 2054TIP3   OH227720   1.860   6.774   7.347 -0.4827  0.1598 -0.1054
 2054TIP3    H127721   1.878   6.689   7.307  1.1208  0.9487 -1.2008
 2054TIP3    H227722   1.929   6.785   7.413 -0.2414  0.8946 -0.4658
 2055TIP3   OH227723   6.688   3.685   1.713  0.6979  0.2439  0.1859
 2055TIP3    H127724   6.769   3.736   1.710  1.0480 -0.3253 -0.2640
 2055TIP3    H227725   6.619   3.749   1.703  1.1846  0.4717 -2.1422
 2056TIP3   OH227726   4.070   5.211   1.743 -0.8362 -0.1236  0.4223
 2056TIP3    H127727   4.035   5.124   1.762  2.5585 -1.5125  0.9125
 2056TIP3    H227728   4.059   5.259   1.825 -0.8412 -0.7955  0.8222
 2057TIP3   OH227729   2.936   1.562   1.151 -0.5618  0.6469 -0.2348
 2057TIP3    H127730   2.943   1.652   1.120 -0.1441  0.3272 -1.0867
 2057TIP3    H227731   2.844   1.538   1.136 -0.8077  1.0949  0.4882
 2058TIP3   OH227732   3.355   2.220   7.292  0.6434 -0.4073 -0.4154
 2058TIP3    H127733   3.438   2.262   7.270 -0.4211  1.4591 -1.0675
 2058TIP3    H227734   3.313   2.204   7.208  1.3089 -3.6649 -0.2836
 2059TIP3   OH227735   4.316   6.141   8.826  0.1094  0.4537  0.1123
 2059TIP3    H127736   4.341   6.218   8.878 -1.9065  1.4177 -0.2611
 2059TIP3    H227737   4.309   6.070   8.891  1.3986  0.6867  0.5438
 2060TIP3   OH227738   4.085   3.218   2.668  0.5087  0.0715 -0.3906
 2060TIP3    H127739   4.176   3.201   2.643  0.8524  2.9146 -1.4065
 2060TIP3    H227740   4.052   3.277   2.601 -1.4549  0.7803  1.0961
 2061TIP3   OH227741   3.318   1.575   0.586  0.2963  0.0740 -0.1987
 2061TIP3    H127742   3.395   1.529   0.620  0.1188 -0.5951 -0.7009
 2061TIP3    H227743   3.298   1.640   0.654  0.1139 -1.0571  0.8670
 2062TIP3   OH227744   5.636   3.954   7.419 -0.4733  0.2965 -0.0388
 2062TIP3    H127745   5.675   3.877   7.459  1.3966  1.3250  0.2185
 2062TIP3    H227746   5.651   3.942   7.325  2.3491  1.5759  0.1636
 2063TIP3   OH227747   5.919   1.169   0.074  0.5198  0.4342  0.0352
 2063TIP3    H127748   5.875   1.123   0.145 -0.7451 -1.6381 -1.9529
 2063TIP3    H227749   5.871   1.143  -0.005  1.8156  2.6601 -1.6064
 2064TIP3   OH227750   5.561   1.033   0.829  0.2240 -0.2812  0.4650
 2064TIP3    H127751   5.623   1.061   0.897 -0.7789  0.3352  1.1539
 2064TIP3    H227752   5.561   0.938   0.834  0.8931 -0.2757  0.6593
 2065TIP3   OH227753   5.576   5.714   0.301 -0.4281 -0.4150 -0.1831
 2065TIP3    H127754   5.635   5.683   0.232  1.2167  1.7728  0.1328
 2065TIP3    H227755   5.489   5.709   0.262  0.3220 -0.5526 -1.9289
 2066TIP3   OH227756   6.670   6.554   7.135  0.1725  0.1446 -0.3166
 2066TIP3    H127757   6.710   6.628   7.090 -1.3727  0.9375 -0.4682
 2066TIP3    H227758   6.737   6.522   7.195  0.5787  2.2465  0.4168
 2067TIP3   OH227759   4.797   5.685   0.928 -0.3438 -0.6683  0.4060
 2067TIP3    H127760   4.784   5.613   0.866 -2.5936  0.1150 -0.1520
 2067TIP3    H227761   4.708   5.715   0.947  0.4099  0.3220  2.6073
 2068TIP3   OH227762   3.954   1.155   7.579 -0.4048 -0.0473  0.0487
 2068TIP3    H127763   4.023   1.159   7.513 -1.1482 -1.0011 -0.8171
 2068TIP3    H227764   4.000   1.160   7.663  0.6436  0.1033 -0.5247
 2069TIP3   OH227765   5.351   5.760   1.287 -0.4485  0.3882 -0.6561
 2069TIP3    H127766   5.370   5.825   1.219  0.3886 -0.3786 -1.1838
 2069TIP3    H227767   5.395   5.680   1.257  0.7399  0.2563  1.2234
 2070TIP3   OH227768   5.629   4.769   0.902 -0.8472 -0.3989  0.1667
 2070TIP3    H127769   5.627   4.846   0.845 -0.1891 -1.6020 -1.5663
 2070TIP3    H227770   5.706   4.781   0.957 -0.8422  0.2394  0.0275
 2071TIP3   OH227771   5.764   0.697   7.218  0.2616  0.5911  0.3937
 2071TIP3    H127772   5.813   0.772   7.253 -1.1035  2.4209 -1.3215
 2071TIP3    H227773   5.676   0.733   7.200 -0.0665 -1.0705 -1.6643
 2072TIP3   OH227774   4.655   4.956   1.029 -0.0811 -0.4115  0.4675
 2072TIP3    H127775   4.748   4.959   1.053 -0.4067 -0.9368  1.9061
 2072TIP3    H227776   4.652   4.895   0.956  0.6842 -0.6068  0.5838
 2073TIP3   OH227777   4.311   3.807   0.992  0.3645  0.2606  0.2901
 2073TIP3    H127778   4.287   3.760   1.072 -0.8370 -0.2384 -0.3459
 2073TIP3    H227779   4.231   3.809   0.940  1.3788 -0.3684 -1.3791
 2074TIP3   OH227780   3.724   6.689   2.363  0.2421 -0.1030 -0.0790
 2074TIP3    H127781   3.789   6.759   2.369  0.5962 -0.4218 -0.1823
 2074TIP3    H227782   3.645   6.727   2.402  1.0910 -0.4433  2.0931
 2075TIP3   OH227783   1.556   3.021   1.369  0.0039  0.4002  0.1468
 2075TIP3    H127784   1.565   2.927   1.387 -0.8142 -0.2470 -2.4055
 2075TIP3    H227785   1.635   3.042   1.319 -0.5929  0.6663 -0.6923
 2076TIP3   OH227786   4.151   5.920   1.748 -0.3219 -0.1921 -0.1897
 2076TIP3    H127787   4.087   5.874   1.693  0.7538 -0.7685 -1.0112
 2076TIP3    H227788   4.195   5.980   1.687  0.0603  0.0458  0.3164
 2077TIP3   OH227789   2.271   1.839   1.197 -0.6623  0.6013  0.1307
 2077TIP3    H127790   2.251   1.827   1.104 -0.0236  0.8271 -0.0411
 2077TIP3    H227791   2.354   1.793   1.209 -1.3450 -0.4879  0.8672
 2078TIP3   OH227792   1.806   4.844   0.447  0.4623  0.3818 -0.5045
 2078TIP3    H127793   1.869   4.773   0.452 -1.5556 -1.4801  0.2202
 2078TIP3    H227794   1.791   4.870   0.538 -1.2887 -0.6769 -0.4299
 2079TIP3   OH227795   1.370   2.122   1.419 -0.2273  0.2860  0.2292
 2079TIP3    H127796   1.352   2.064   1.492  2.8977 -2.6289 -1.0117
 2079TIP3    H227797   1.380   2.209   1.459  1.2222 -1.1328  3.3004
 2080TIP3   OH227798   5.148   6.631   0.959 -0.1951  0.4026 -0.2085
 2080TIP3    H127799   5.150   6.599   1.049 -1.3079  0.9596  0.0338
 2080TIP3    H227800   5.114   6.557   0.908 -0.9044  0.5365  0.0542
 2081TIP3   OH227801   0.643   4.904   1.014  0.7308 -0.5456  0.3573
 2081TIP3    H127802   0.702   4.831   0.995 -0.2397 -0.8874 -1.6184
 2081TIP3    H227803   0.651   4.962   0.938 -0.7916 -0.1690  0.4479
 2082TIP3   OH227804   3.755   5.959   8.215 -0.0723 -0.3159  0.4613
 2082TIP3    H127805   3.690   5.968   8.285  1.7083 -0.1379  2.1689
 2082TIP3    H227806   3.815   6.032   8.229  0.1411 -0.0634 -1.5212
 2083TIP3   OH227807   1.281   6.396   7.603 -0.5095  0.5160 -0.3602
 2083TIP3    H127808   1.215   6.441   7.550 -2.3646 -1.5299  0.0203
 2083TIP3    H227809   1.323   6.335   7.542 -0.9840 -0.1507 -0.0478
 2084TIP3   OH227810   0.260   4.040   1.887 -0.2230  0.1568  0.4677
 2084TIP3    H127811   0.307   4.082   1.959  0.9648 -1.0759  0.4581
 2084TIP3    H227812   0.188   4.099   1.867 -1.5728 -0.1900  3.7171
 2085TIP3   OH227813   2.250   5.570   2.168  0.1976 -0.1777  0.3797
 2085TIP3    H127814   2.253   5.519   2.249  0.8227 -0.4745  0.1762
 2085TIP3    H227815   2.266   5.506   2.098  0.5596  0.2164  0.0929
 2086TIP3   OH227816   6.042   0.727   0.689 -0.0136 -0.2571  0.6280
 2086TIP3    H127817   6.104   0.675   0.638 -0.2782 -1.2332  1.2903
 2086TIP3    H227818   6.091   0.753   0.767  0.7566  2.1741 -0.5595
 2087TIP3   OH227819   4.490   0.722   7.183  0.1760  0.0115  0.1261
 2087TIP3    H127820   4.464   0.814   7.174  0.8416  0.1150 -0.9948
 2087TIP3    H227821   4.416   0.673   7.147 -0.5996  0.0329  1.6090
 2088TIP3   OH227822   2.059   1.900   7.600  0.1495  0.4751  0.2874
 2088TIP3    H127823   2.113   1.969   7.638  1.1106  1.1279 -2.1025
 2088TIP3    H227824   2.037   1.932   7.512  0.7530 -2.2973 -0.9743
 2089TIP3   OH227825   4.906   3.389   1.497  0.1511  0.4114  0.2053
 2089TIP3    H127826   4.913   3.380   1.402  1.8037  0.0817  0.3330
 2089TIP3    H227827   4.934   3.478   1.515  1.6867 -0.1043  0.5168
 2090TIP3   OH227828   5.855   3.799   0.674 -1.2481  0.0217 -0.2571
 2090TIP3    H127829   5.838   3.712   0.638  0.4466 -1.7744  2.7733
 2090TIP3    H227830   5.928   3.833   0.622 -1.2691 -0.8464 -0.8693
 2091TIP3   OH227831   4.175   5.205   2.299  0.3024  0.1643  0.3710
 2091TIP3    H127832   4.221   5.132   2.258  1.2910  0.2171  1.3435
 2091TIP3    H227833   4.212   5.283   2.257  0.5496  0.1737  0.6031
 2092TIP3   OH227834   3.219   5.731   6.828  0.1916  0.2461 -0.1415
 2092TIP3    H127835   3.170   5.649   6.831  0.4476  0.1218  1.0810
 2092TIP3    H227836   3.311   5.704   6.821  0.3764  0.3803  1.4661
 2093TIP3   OH227837   2.820   4.866   0.464 -1.1876 -0.5712 -0.3303
 2093TIP3    H127838   2.792   4.899   0.550  1.0827 -1.2982  0.7720
 2093TIP3    H227839   2.807   4.771   0.470  1.2481 -0.9343  0.2105
 2094TIP3   OH227840   0.481   1.410   7.802 -0.1663  0.2919  0.0653
 2094TIP3    H127841   0.548   1.343   7.802  1.9070  2.2012  2.0430
 2094TIP3    H227842   0.491   1.455   7.718  0.5485  0.0886  0.0422
 2095TIP3   OH227843   4.011   0.476   8.240  0.2072 -0.4664  0.6484
 2095TIP3    H127844   4.040   0.565   8.219  1.6085 -0.7223  1.3598
 2095TIP3    H227845   4.052   0.456   8.324 -0.2006 -1.7270  0.5743
 2096TIP3   OH227846   2.526   0.818   6.753 -0.3912  0.2575  0.4451
 2096TIP3    H127847   2.551   0.800   6.663 -0.4895  0.9219  0.2825
 2096TIP3    H227848   2.512   0.912   6.756  0.1766  0.3326  1.2903
 2097TIP3   OH227849   6.235   4.862   6.228 -0.1294  0.2491  0.2345
 2097TIP3    H127850   6.177   4.922   6.181 -0.0434  1.2215  1.3380
 2097TIP3    H227851   6.225   4.886   6.320  0.9486 -0.5229  0.5680
 2098TIP3   OH227852   2.342   1.625   1.481  0.0941  0.0087  0.2067
 2098TIP3    H127853   2.319   1.717   1.493  2.2752  0.5074  0.9553
 2098TIP3    H227854   2.313   1.605   1.392  0.1432  1.6039 -0.2015
 2099TIP3   OH227855   3.077   0.230   8.039 -0.3734 -0.1590  0.4907
 2099TIP3    H127856   3.089   0.324   8.049  1.6936 -0.4062  0.7873
 2099TIP3    H227857   2.984   0.219   8.019 -0.3221  2.0863 -1.3526
 2100TIP3   OH227858   4.186   2.601   1.471 -0.2299 -0.1024  0.4199
 2100TIP3    H127859   4.172   2.687   1.511 -1.8127 -0.6121  1.0800
 2100TIP3    H227860   4.124   2.599   1.398  1.5083  0.2006 -1.1327
 2101TIP3   OH227861   4.710   4.439   0.671 -0.5343 -0.1475 -0.7302
 2101TIP3    H127862   4.731   4.359   0.622 -1.5703 -0.3062 -0.9411
 2101TIP3    H227863   4.712   4.509   0.606  0.1137 -0.0370 -0.5959
 2102TIP3   OH227864   2.411   4.662   0.495 -0.0392  0.4121  0.0975
 2102TIP3    H127865   2.428   4.711   0.415  0.0860  0.1142 -0.0600
 2102TIP3    H227866   2.478   4.691   0.556  0.8906 -0.5363 -0.4237
 2103TIP3   OH227867   6.525   3.745   8.849  0.2408  0.6591 -0.3201
 2103TIP3    H127868   6.598   3.806   8.846  0.4954  0.6612  2.7999
 2103TIP3    H227869   6.455   3.794   8.892 -1.2281  0.2274 -2.0695
 2104TIP3   OH227870   3.444   0.299   1.190 -0.5905 -0.0997 -0.2069
 2104TIP3    H127871   3.531   0.272   1.161 -0.1942  1.0185 -0.0913
 2104TIP3    H227872   3.433   0.257   1.275 -0.0465 -0.0199 -0.0952
 2105TIP3   OH227873   3.535   6.227   1.718  0.0630  0.4353 -0.0349
 2105TIP3    H127874   3.462   6.241   1.658 -0.1761  0.5093  0.2706
 2105TIP3    H227875   3.520   6.290   1.788 -0.1488 -0.2509  0.5517
 2106TIP3   OH227876   0.020   6.635   8.418 -0.1554  0.5648 -0.4505
 2106TIP3    H127877   0.066   6.635   8.334 -0.5403  0.8884 -0.6647
 2106TIP3    H227878   0.046   6.718   8.459 -0.7501  0.8677 -0.6848
 2107TIP3   OH227879   6.022   0.109   6.675 -0.3964 -0.1655 -0.1831
 2107TIP3    H127880   5.970   0.180   6.639 -1.1212  0.5793  2.1521
 2107TIP3    H227881   6.113   0.133   6.657 -0.6600  1.0896  0.0948
 2108TIP3   OH227882   2.533   5.956   1.920 -0.1037 -0.5291  0.3189
 2108TIP3    H127883   2.566   6.018   1.985 -0.1049 -0.4409  0.2364
 2108TIP3    H227884   2.463   6.004   1.875  0.7813 -0.0932 -0.6607
 2109TIP3   OH227885   4.274   1.104   0.628  0.4178  0.0198  0.4048
 2109TIP3    H127886   4.293   1.016   0.596 -0.5645 -0.5374  1.3021
 2109TIP3    H227887   4.358   1.150   0.622  0.6066 -0.4975 -1.4939
 2110TIP3   OH227888   2.550   3.160   7.935  0.1843  0.1212  0.2125
 2110TIP3    H127889   2.642   3.149   7.960  0.3254 -0.8109 -0.6486
 2110TIP3    H227890   2.516   3.071   7.927 -1.0487  0.4625  1.3660
 2111TIP3   OH227891   2.178   1.449   1.254 -0.8005  0.5313 -0.2423
 2111TIP3    H127892   2.127   1.410   1.325 -1.2533 -0.7845 -1.2469
 2111TIP3    H227893   2.130   1.528   1.230 -1.0485  0.5853  0.4058
 2112TIP3   OH227894   6.278   5.684   0.272 -0.4309 -0.3111 -0.5140
 2112TIP3    H127895   6.299   5.772   0.243 -0.7566  0.2662  0.9360
 2112TIP3    H227896   6.354   5.655   0.322 -0.5160 -0.6756 -0.5885
 2113TIP3   OH227897   6.381   4.855   1.445 -0.0148  0.3617 -0.0281
 2113TIP3    H127898   6.459   4.805   1.470  0.4462  0.9744 -0.2306
 2113TIP3    H227899   6.319   4.839   1.517 -0.9060 -2.6506 -1.3284
 2114TIP3   OH227900   4.408   0.383   1.875  0.2361  0.4036 -0.0042
 2114TIP3    H127901   4.423   0.291   1.895 -0.5158  0.2509 -0.1076
 2114TIP3    H227902   4.457   0.431   1.943  0.2118 -0.0739  0.3544
 2115TIP3   OH227903   4.305   3.201   1.037 -0.1349  0.2913  0.4546
 2115TIP3    H127904   4.360   3.278   1.054 -0.2920  0.4733  0.1442
 2115TIP3    H227905   4.282   3.169   1.124 -1.3463  1.5029  0.6196
 2116TIP3   OH227906   0.060   2.979   7.365 -0.2983 -0.0504  0.0954
 2116TIP3    H127907   0.064   3.021   7.279 -1.6437  1.0695  0.5237
 2116TIP3    H227908  -0.015   2.919   7.359  0.1767 -0.6615  0.2098
 2117TIP3   OH227909   1.495   3.882   2.438  0.1846 -0.2653  0.2112
 2117TIP3    H127910   1.554   3.938   2.487  2.3113 -1.5188 -0.7819
 2117TIP3    H227911   1.414   3.882   2.489  0.8667  1.8092  1.4279
 2118TIP3   OH227912   3.616   0.840   0.766  0.0002  0.1870  0.3375
 2118TIP3    H127913   3.524   0.866   0.762 -0.3322 -0.0484  3.4952
 2118TIP3    H227914   3.665   0.922   0.754 -0.6355  0.4780 -0.3575
 2119TIP3   OH227915   6.104   5.859   6.268  0.8832 -0.0825  0.7501
 2119TIP3    H127916   6.080   5.951   6.281  0.6889 -0.1875  1.1322
 2119TIP3    H227917   6.155   5.859   6.187  2.7120  0.6916  1.8469
 2120TIP3   OH227918   0.572   0.545   0.736  0.2954 -0.0542  0.3025
 2120TIP3    H127919   0.477   0.530   0.727  0.5287 -0.2917 -2.6037
 2120TIP3    H227920   0.610   0.457   0.737  0.6453  0.0295 -1.7169
 2121TIP3   OH227921   2.927   1.540   7.019  0.1846  0.7102  0.8514
 2121TIP3    H127922   2.898   1.501   7.102  0.3559  1.2054  1.1461
 2121TIP3    H227923   2.911   1.634   7.029  0.0575  0.7576  0.2587
 2122TIP3   OH227924   0.676   0.078   0.321 -0.0450  0.7262 -0.2925
 2122TIP3    H127925   0.740   0.138   0.282  0.9295  1.3948  2.1656
 2122TIP3    H227926   0.729   0.016   0.371 -1.1841 -0.7882 -0.8703
 2123TIP3   OH227927   2.701   2.935   0.888 -0.2956 -0.2853  0.0530
 2123TIP3    H127928   2.764   2.875   0.848  1.1396  0.2843  1.3735
 2123TIP3    H227929   2.672   2.991   0.815 -0.0665 -1.2111 -0.7659
 2124TIP3   OH227930   6.328   3.027   0.091 -0.4314  0.3160  0.4979
 2124TIP3    H127931   6.385   3.049   0.018 -2.1419 -0.8143 -1.2806
 2124TIP3    H227932   6.315   3.110   0.137 -1.4151  1.7218 -2.0736
 2125TIP3   OH227933   0.093   2.605   1.951 -0.1774  0.0711  0.0510
 2125TIP3    H127934   0.167   2.590   2.010  1.4304  1.4382 -1.4956
 2125TIP3    H227935   0.054   2.687   1.982 -1.3374 -0.8374  1.0919
 2126TIP3   OH227936   3.936   5.558   1.669 -0.6605  0.6208 -0.1381
 2126TIP3    H127937   3.864   5.556   1.733 -0.6786  0.1886 -0.1676
 2126TIP3    H227938   4.001   5.497   1.705 -0.0210  1.5034  0.2213
 2127TIP3   OH227939   6.721   2.116   6.640  0.0104 -0.2966 -0.7167
 2127TIP3    H127940   6.674   2.057   6.583 -0.6651  0.8174 -1.3486
 2127TIP3    H227941   6.669   2.196   6.640 -0.5247 -0.5302  2.1890
 2128TIP3   OH227942   1.428   4.163   0.965 -0.1292  0.7231  0.2432
 2128TIP3    H127943   1.386   4.205   1.040  0.2715 -0.7285  1.3189
 2128TIP3    H227944   1.356   4.130   0.912 -0.3960  0.4989  0.7408
 2129TIP3   OH227945   1.807   0.464   1.786 -0.2203  0.5161  0.0936
 2129TIP3    H127946   1.783   0.473   1.694  1.0062  1.8139 -0.1333
 2129TIP3    H227947   1.727   0.435   1.829 -1.5759  2.5379 -0.9460
 2130TIP3   OH227948   1.961   5.783   6.987  0.3509  0.2834 -0.1265
 2130TIP3    H127949   1.887   5.776   7.047  0.5892 -0.2450  0.1112
 2130TIP3    H227950   1.954   5.871   6.950 -0.1462  0.3906  0.2203
 2131TIP3   OH227951   2.158   1.333   2.602  0.4478  0.0559 -1.1438
 2131TIP3    H127952   2.229   1.309   2.662  0.9563  0.3959 -1.6011
 2131TIP3    H227953   2.138   1.424   2.622 -0.5802 -0.3385 -0.3096
 2132TIP3   OH227954   2.354   1.782   2.363 -0.4085  0.7157 -0.0964
 2132TIP3    H127955   2.386   1.714   2.422 -0.1412  0.9542  0.0369
 2132TIP3    H227956   2.309   1.734   2.293 -1.8091  0.4924  0.9313
 2133TIP3   OH227957   5.399   4.970   8.223 -0.3185  0.5723 -0.3513
 2133TIP3    H127958   5.446   4.940   8.145 -2.4238  0.5161 -1.6801
 2133TIP3    H227959   5.463   4.961   8.294  1.6174  0.4349 -2.0056
 2134TIP3   OH227960   3.262   4.415   0.698  0.2998  0.0231  0.2775
 2134TIP3    H127961   3.188   4.394   0.755  0.6322  1.0763  1.1433
 2134TIP3    H227962   3.259   4.349   0.629  0.1978 -1.6929  1.8121
 2135TIP3   OH227963   5.728   5.531   7.236  0.4157  0.4384  0.4808
 2135TIP3    H127964   5.692   5.505   7.151  2.4982 -0.9920 -0.0186
 2135TIP3    H227965   5.781   5.608   7.217  0.4535  0.4428  0.6037
 2136TIP3   OH227966   3.773   4.162   0.109  0.2049 -0.0077  0.2825
 2136TIP3    H127967   3.842   4.190   0.169  1.2502 -0.8162 -0.4977
 2136TIP3    H227968   3.692   4.189   0.151  1.0105  1.4492  0.9793
 2137TIP3   OH227969   2.013   2.214   0.748 -0.0700 -0.7583 -0.2394
 2137TIP3    H127970   1.958   2.225   0.671  0.6054  1.2163 -0.4774
 2137TIP3    H227971   1.961   2.248   0.820 -0.5910 -2.3451  0.1708
 2138TIP3   OH227972   1.573   5.341   8.306 -0.1891  0.3976  0.0699
 2138TIP3    H127973   1.626   5.276   8.352 -1.1743  0.5824  1.5352
 2138TIP3    H227974   1.614   5.348   8.220  1.1309 -0.6954  0.5612
 2139TIP3   OH227975   3.624   1.322   7.875 -0.0826  0.1737  0.2465
 2139TIP3    H127976   3.533   1.295   7.884  0.0877 -1.4719 -2.1522
 2139TIP3    H227977   3.622   1.400   7.820 -0.0336 -0.1448 -0.2136
 2140TIP3   OH227978   5.617   5.439   1.724 -0.5063 -0.2376  0.6411
 2140TIP3    H127979   5.549   5.434   1.791 -1.0756 -1.4417  0.0130
 2140TIP3    H227980   5.632   5.347   1.699 -1.0704  0.2175 -1.6118
 2141TIP3   OH227981   2.585   2.716   7.759 -0.4184  0.1002 -0.9916
 2141TIP3    H127982   2.509   2.707   7.701  0.5956  0.3345 -2.4038
 2141TIP3    H227983   2.657   2.673   7.713  0.6269  1.0268 -0.2947
 2142TIP3   OH227984   1.999   0.129   8.212 -0.5962 -0.4199 -0.2555
 2142TIP3    H127985   1.994   0.200   8.276  2.0399 -0.6017  0.2358
 2142TIP3    H227986   1.909   0.121   8.178 -1.1623  2.4745  0.3424
 2143TIP3   OH227987   4.265   3.655   6.913 -0.2448  0.8329 -0.2266
 2143TIP3    H127988   4.336   3.646   6.849  0.7495  0.5205  0.8817
 2143TIP3    H227989   4.200   3.710   6.869 -1.5759 -2.6326 -3.1354
 2144TIP3   OH227990   4.292   3.923   8.135 -0.7944  0.2252 -0.9194
 2144TIP3    H127991   4.244   4.005   8.132 -0.0572  0.6506 -1.2475
 2144TIP3    H227992   4.380   3.945   8.103  0.4966  0.0735  2.1834
 2145TIP3   OH227993   2.565   0.274   8.464  0.1473  0.0497  0.0609
 2145TIP3    H127994   2.541   0.265   8.556  0.0283 -1.4635 -0.1096
 2145TIP3    H227995   2.584   0.368   8.455 -3.1856  0.9346  0.7758
 2146TIP3   OH227996   4.634   0.379   0.083  0.5247  0.5503 -0.1979
 2146TIP3    H127997   4.591   0.319   0.022 -0.0629 -0.9450  1.5923
 2146TIP3    H227998   4.721   0.392   0.046  0.0229  0.0885 -1.5982
 2147TIP3   OH227999   0.666   4.133   0.941  0.2859 -0.1744 -0.2385
 2147TIP3    H128000   0.642   4.216   0.984 -1.2077 -1.9226  2.6425
 2147TIP3    H228001   0.614   4.132   0.861 -0.4759  1.2346  0.1869
 2148TIP3   OH228002   4.488   0.104   0.613 -0.1868 -0.1005  0.1881
 2148TIP3    H128003   4.420   0.171   0.614  0.8017  0.9492 -0.3699
 2148TIP3    H228004   4.532   0.116   0.529  0.4117 -1.0357  0.3569
 2149TIP3   OH228005   4.604   1.565   0.019 -0.2667  0.0339  0.5748
 2149TIP3    H128006   4.686   1.528  -0.012  0.4262  1.2825  0.8789
 2149TIP3    H228007   4.537   1.520  -0.033  0.6671 -0.1399 -0.5225
 2150TIP3   OH228008   3.534   2.694   6.800  0.3770 -0.0281  0.1402
 2150TIP3    H128009   3.597   2.765   6.805  0.1021  0.2683 -0.5595
 2150TIP3    H228010   3.539   2.663   6.710 -0.1330 -0.3152  0.2060
 2151TIP3   OH228011   3.686   3.415   2.112  0.0762 -0.0743 -0.1095
 2151TIP3    H128012   3.767   3.377   2.145 -0.2215  0.0919  0.8451
 2151TIP3    H228013   3.710   3.502   2.081  1.0034 -1.3185 -3.3559
 2152TIP3   OH228014   0.478   5.339   0.225  0.2603  0.1211 -0.3476
 2152TIP3    H128015   0.559   5.290   0.234  1.5286  1.5330 -2.9217
 2152TIP3    H228016   0.421   5.283   0.173 -1.0572 -1.4408  2.5657
 2153TIP3   OH228017   0.930   2.029   6.465  0.2113 -0.4561 -0.0243
 2153TIP3    H128018   0.982   2.013   6.386 -0.0933 -0.1713 -0.2831
 2153TIP3    H228019   0.863   2.091   6.438 -0.3005 -0.8574  0.2965
 2154TIP3   OH228020   2.763   3.249   7.573 -0.0564  0.0061 -0.1520
 2154TIP3    H128021   2.740   3.160   7.547 -1.2789  0.4429 -0.6423
 2154TIP3    H228022   2.778   3.295   7.491 -2.6230  1.0470 -0.1139
 2155TIP3   OH228023   2.779   2.695   0.768  0.3108  0.2322  0.6331
 2155TIP3    H128024   2.802   2.626   0.830  0.0058 -1.3938 -1.0055
 2155TIP3    H228025   2.859   2.711   0.718 -0.2663 -0.7807 -0.6771
 2156TIP3   OH228026   6.042   3.189   7.525  0.3906  0.3226  1.0960
 2156TIP3    H128027   6.122   3.224   7.564  0.2124  0.4800  1.3249
 2156TIP3    H228028   6.033   3.235   7.442  0.8368 -0.1015  0.8112
 2157TIP3   OH228029   2.309   6.287   1.512  0.1332  0.2718 -0.0004
 2157TIP3    H128030   2.282   6.377   1.530  1.4732  0.4497  1.2574
 2157TIP3    H228031   2.272   6.235   1.583 -1.1411 -0.3176 -1.0358
 2158TIP3   OH228032   0.426   5.449   6.925  0.1336  0.0992  0.4977
 2158TIP3    H128033   0.414   5.386   6.996 -1.6070 -0.1690  0.0157
 2158TIP3    H228034   0.419   5.534   6.968 -0.9286 -0.0611  0.6714
 2159TIP3   OH228035   6.296   1.037   0.269 -0.1273  0.4128  0.3986
 2159TIP3    H128036   6.233   1.049   0.198 -0.4327 -0.9741  0.3949
 2159TIP3    H228037   6.250   0.983   0.333  0.8201 -0.0460  0.7203
 2160TIP3   OH228038   4.072   1.287   8.076 -0.4423  0.7555  0.7869
 2160TIP3    H128039   4.019   1.217   8.114 -1.8601  0.8553 -0.8323
 2160TIP3    H228040   4.150   1.293   8.131 -0.6673 -1.5425  1.4270
 2161TIP3   OH228041   1.893   6.713   6.976  0.2469  0.3003 -0.4087
 2161TIP3    H128042   1.832   6.662   6.923 -0.0950 -1.0280  1.2055
 2161TIP3    H228043   1.875   6.804   6.952 -0.4164 -0.2146 -1.9844
 2162TIP3   OH228044   6.572   3.451   8.343  0.4817  0.2334  0.1424
 2162TIP3    H128045   6.663   3.420   8.344  0.5697  0.4411 -0.7331
 2162TIP3    H228046   6.573   3.527   8.286 -0.3427 -0.0656 -0.2811
 2163TIP3   OH228047   4.313   5.249   1.919 -0.1401  0.1909 -0.5514
 2163TIP3    H128048   4.288   5.169   1.965 -0.9849  0.3216 -0.7623
 2163TIP3    H228049   4.251   5.315   1.951  0.5448  0.7626 -0.3845
 2164TIP3   OH228050   6.604   4.380   0.037 -0.4093 -0.1180 -0.2905
 2164TIP3    H128051   6.697   4.376   0.011 -0.6397 -1.5578 -1.0418
 2164TIP3    H228052   6.601   4.445   0.107  1.1557  0.0304 -0.3234
 2165TIP3   OH228053   1.647   3.314   1.810 -0.0412  0.3054  0.0993
 2165TIP3    H128054   1.651   3.280   1.899  1.3659 -0.3780 -0.1983
 2165TIP3    H228055   1.676   3.241   1.755 -0.7851  0.7513 -0.9147
 2166TIP3   OH228056   2.340   5.549   1.490 -0.2702 -0.0917  0.1186
 2166TIP3    H128057   2.374   5.615   1.551 -1.3284  0.6323 -0.0540
 2166TIP3    H228058   2.343   5.468   1.541 -0.7021  0.4192  1.0000
 2167TIP3   OH228059   0.202   3.074   7.136 -0.5831 -0.4692 -0.4212
 2167TIP3    H128060   0.242   3.093   7.051  1.8504 -1.5389  0.3987
 2167TIP3    H228061   0.225   2.982   7.152  0.7259  0.2356  2.2261
 2168TIP3   OH228062   4.467   6.722   7.795 -0.2990 -0.2136 -0.2340
 2168TIP3    H128063   4.505   6.698   7.711 -0.3137  0.8947 -0.5771
 2168TIP3    H228064   4.383   6.677   7.797  0.2909 -1.3355 -0.2022
 2169TIP3   OH228065   2.280   3.651   6.785  0.2602  0.7570  0.0577
 2169TIP3    H128066   2.209   3.713   6.806  0.0901  0.6648 -0.2338
 2169TIP3    H228067   2.344   3.663   6.855 -0.9677 -0.6028  1.4788
 2170TIP3   OH228068   4.456   6.286   1.889 -0.1978  0.0434  0.0952
 2170TIP3    H128069   4.540   6.321   1.917 -1.0090 -0.1398  3.0963
 2170TIP3    H228070   4.466   6.191   1.895 -0.8979  0.0403  1.5290
 2171TIP3   OH228071   0.704   2.670   8.711 -0.5653 -0.0584  0.5203
 2171TIP3    H128072   0.654   2.711   8.782  1.2714 -0.0801  1.8783
 2171TIP3    H228073   0.712   2.578   8.738 -2.6829 -0.9146 -1.3979
 2172TIP3   OH228074   3.204   3.931   8.618 -0.0771 -0.2470  0.1577
 2172TIP3    H128075   3.225   4.018   8.651  1.1988 -0.4306 -0.1104
 2172TIP3    H228076   3.159   3.888   8.691  0.6657  0.1221  0.8512
 2173TIP3   OH228077   5.806   5.065   7.495 -0.1874 -0.1091  0.7374
 2173TIP3    H128078   5.899   5.058   7.518 -0.4447  1.2150  2.3984
 2173TIP3    H228079   5.791   5.159   7.485 -1.4067 -0.2822  0.7728
 2174TIP3   OH228080   2.027   5.277   1.296 -0.2110  0.0380 -0.4116
 2174TIP3    H128081   2.055   5.210   1.358  0.0318  1.3024  0.9056
 2174TIP3    H228082   2.079   5.260   1.218  1.0314 -0.3436  0.4604
 2175TIP3   OH228083   2.290   2.142   8.066 -0.2623  0.1373 -0.6416
 2175TIP3    H128084   2.290   2.048   8.084 -0.8876  0.2209 -0.1962
 2175TIP3    H228085   2.200   2.163   8.041 -0.1002  0.5963 -0.8642
 2176TIP3   OH228086   5.633   4.595   7.057  0.2985 -0.1110 -0.2300
 2176TIP3    H128087   5.679   4.528   7.007  2.4602  0.6616  0.5661
 2176TIP3    H228088   5.584   4.645   6.991 -0.0706 -1.4840 -1.0215
 2177TIP3   OH228089   2.303   0.444   2.467 -0.6129 -0.2755 -0.2688
 2177TIP3    H128090   2.357   0.365   2.467 -1.0004 -0.5465 -0.7304
 2177TIP3    H228091   2.233   0.425   2.406 -0.6848  0.4511 -0.4204
 2178TIP3   OH228092   3.732   3.332   7.727  0.7941  0.6739 -0.3765
 2178TIP3    H128093   3.649   3.289   7.706 -0.2608  2.0161  0.8791
 2178TIP3    H228094   3.799   3.272   7.693 -0.6221 -1.5573  0.5507
 2179TIP3   OH228095   6.317   4.866   8.588  1.0077 -0.0366  0.1203
 2179TIP3    H128096   6.331   4.879   8.494  0.5636 -0.5186 -0.0196
 2179TIP3    H228097   6.292   4.774   8.596  0.0755  0.2411  0.5860
 2180TIP3   OH228098   5.281   1.521   8.463 -0.9272 -0.1923 -0.3547
 2180TIP3    H128099   5.225   1.595   8.441 -1.2882 -0.5168 -0.5355
 2180TIP3    H228100   5.334   1.553   8.536 -0.7501  0.3974 -0.7296
 2181TIP3   OH228101   3.131   2.821   7.983 -0.5852 -0.2640  0.2069
 2181TIP3    H128102   3.060   2.815   7.919 -1.3054  2.3520  0.6375
 2181TIP3    H228103   3.094   2.782   8.063 -1.6335  1.1097  0.4404
 2182TIP3   OH228104   4.022   4.701   8.365 -0.0659  0.1118  0.5472
 2182TIP3    H128105   3.960   4.674   8.298  0.8001 -1.2414  0.2535
 2182TIP3    H228106   3.999   4.648   8.442  0.7883 -0.5155  0.3892
 2183TIP3   OH228107   4.056   4.085   1.608  0.1780  0.8960 -0.4739
 2183TIP3    H128108   4.088   4.039   1.685  0.1336 -1.0354 -1.5484
 2183TIP3    H228109   3.966   4.109   1.631  0.7505  1.9986  0.7280
 2184TIP3   OH228110   1.284   3.898   7.149 -0.6495 -0.3877  0.7224
 2184TIP3    H128111   1.227   3.966   7.111 -0.3046 -0.2343  0.4707
 2184TIP3    H228112   1.322   3.854   7.073  2.5939  2.0219  0.7339
 2185TIP3   OH228113   6.548   0.487   8.591 -0.1619 -0.2004 -0.5787
 2185TIP3    H128114   6.486   0.430   8.638 -0.5229  0.6113 -0.0332
 2185TIP3    H228115   6.517   0.486   8.501 -1.2685  0.5403 -0.2338
 2186TIP3   OH228116   3.055   5.828   2.400  0.5482 -0.3307 -0.0965
 2186TIP3    H128117   3.099   5.892   2.456  0.2757  1.3070 -1.6358
 2186TIP3    H228118   3.115   5.816   2.326 -1.2365  1.6775 -2.0648
 2187TIP3   OH228119   1.778   2.517   8.700 -0.3303 -0.2093 -0.4601
 2187TIP3    H128120   1.689   2.498   8.727 -0.1746 -0.2944 -0.0076
 2187TIP3    H228121   1.803   2.595   8.749  0.0523 -0.5295 -0.1358
 2188TIP3   OH228122   6.756   4.154   6.648 -0.2270 -0.2531  0.4949
 2188TIP3    H128123   6.767   4.171   6.554 -4.1745  0.9722  0.0953
 2188TIP3    H228124   6.752   4.058   6.653 -3.4858 -0.3555 -1.2774
 2189TIP3   OH228125   0.854   0.388   1.387  0.0439 -0.2718  0.4311
 2189TIP3    H128126   0.879   0.301   1.357  0.2757 -0.3486  0.8415
 2189TIP3    H228127   0.928   0.418   1.440  0.0968  0.2975  0.0422
 2190TIP3   OH228128   3.775   2.431   7.315 -0.6027  0.1718  1.0530
 2190TIP3    H128129   3.698   2.414   7.261  0.6779  0.5193 -1.0051
 2190TIP3    H228130   3.785   2.352   7.369 -0.4922 -1.3197 -1.0527
 2191TIP3   OH228131   1.711   3.124   1.583  0.0670 -0.6037 -0.0760
 2191TIP3    H128132   1.641   3.070   1.548 -1.1449  0.2504  0.9622
 2191TIP3    H228133   1.772   3.061   1.623 -2.1825 -1.2534  2.7073
 2192TIP3   OH228134   4.911   4.591   7.716 -0.0041 -0.4616  0.2764
 2192TIP3    H128135   4.935   4.561   7.803 -1.7752 -1.6342  0.3915
 2192TIP3    H228136   4.890   4.684   7.727 -0.5720 -0.6937  1.1650
 2193TIP3   OH228137   6.452   1.868   8.020  0.1634  0.0352  0.2174
 2193TIP3    H128138   6.392   1.800   8.049 -0.2725  0.5300  0.5117
 2193TIP3    H228139   6.535   1.823   8.004 -0.3016 -0.6778 -0.2706
 2194TIP3   OH228140   3.751   2.825   7.272 -0.5701  0.5338 -0.5381
 2194TIP3    H128141   3.707   2.765   7.212 -0.8732  0.0437  0.1621
 2194TIP3    H228142   3.783   2.896   7.216  0.6110 -0.7219 -1.5367
 2195TIP3   OH228143   2.922   0.894   1.962 -0.3448 -0.1014 -0.0428
 2195TIP3    H128144   2.877   0.866   2.041  1.3608 -1.7415  0.4341
 2195TIP3    H228145   2.852   0.923   1.903 -1.8290 -0.7944  1.3035
 2196TIP3   OH228146   2.805   5.739   1.241 -0.0018 -0.0857 -0.0458
 2196TIP3    H128147   2.799   5.794   1.318  1.2991  0.0378 -0.0265
 2196TIP3    H228148   2.722   5.690   1.240 -0.4518  0.6417  0.8498
 2197TIP3   OH228149   5.846   6.709   6.312 -0.2503 -0.1342 -0.2352
 2197TIP3    H128150   5.793   6.639   6.352  0.9627 -0.4329  0.9295
 2197TIP3    H228151   5.836   6.696   6.218 -2.1514 -0.2361 -0.0576
 2198TIP3   OH228152   6.332   3.019   7.003 -0.0962 -0.6293  0.0253
 2198TIP3    H128153   6.317   3.005   6.910 -1.0117  0.1307  0.0347
 2198TIP3    H228154   6.247   3.001   7.043 -1.3556  4.1695  0.0820
 2199TIP3   OH228155   4.378   3.467   1.116  0.3895  0.1488 -0.0140
 2199TIP3    H128156   4.344   3.455   1.204  1.3806 -0.0473  0.3563
 2199TIP3    H228157   4.464   3.506   1.128 -0.7745  3.2999 -1.0241
 2200TIP3   OH228158   2.029   6.248   0.113 -0.1207 -0.2438  0.2279
 2200TIP3    H128159   2.121   6.270   0.127 -0.0127 -0.5694  0.0420
 2200TIP3    H228160   1.988   6.331   0.092 -0.0213  0.0375  1.0840
 2201TIP3   OH228161   1.806   0.512   7.139  0.4996 -0.0466  0.6236
 2201TIP3    H128162   1.892   0.476   7.156  0.0146 -1.6036 -0.0565
 2201TIP3    H228163   1.745   0.440   7.157 -0.6935  1.1097  1.3922
 2202TIP3   OH228164   5.397   5.041   7.205  0.3013 -0.1491 -0.5099
 2202TIP3    H128165   5.491   5.042   7.188  0.8315  2.5945  1.8497
 2202TIP3    H228166   5.388   5.002   7.291 -0.6031  0.5460 -0.2710
 2203TIP3   OH228167   5.618   0.421   7.299  0.4776 -0.1149 -0.1222
 2203TIP3    H128168   5.625   0.374   7.382 -0.4433 -1.7744 -0.9256
 2203TIP3    H228169   5.691   0.482   7.300  0.4270 -0.0149  1.9421
 2204TIP3   OH228170   3.713   4.863   7.661  0.3090 -0.3474  0.2341
 2204TIP3    H128171   3.638   4.921   7.666  0.7492  0.3181 -0.5710
 2204TIP3    H228172   3.683   4.789   7.608 -0.0876 -0.6073  0.8084
 2205TIP3   OH228173   1.658   0.805   7.890 -0.1907  0.2165 -0.0415
 2205TIP3    H128174   1.751   0.812   7.911 -0.4551  0.4512  1.0888
 2205TIP3    H228175   1.635   0.715   7.913 -0.5531  0.5672  1.0244
 2206TIP3   OH228176   1.180   5.002   8.182 -0.1713  0.1298  0.4807
 2206TIP3    H128177   1.210   4.938   8.118  0.6779  0.6600  0.3272
 2206TIP3    H228178   1.140   5.071   8.129  1.5589  1.1240  0.3888
 2207TIP3   OH228179   1.128   0.539   7.597 -0.4756 -0.3779  0.5685
 2207TIP3    H128180   1.044   0.581   7.613 -0.0008  0.6867  0.3793
 2207TIP3    H228181   1.158   0.576   7.514  1.0839  0.8322  1.5901
 2208TIP3   OH228182   3.153   4.445   1.164  0.1201  0.1220 -0.1575
 2208TIP3    H128183   3.099   4.369   1.183  0.0476 -0.2589 -1.6953
 2208TIP3    H228184   3.149   4.499   1.243 -0.1969 -1.2450  0.7874
 2209TIP3   OH228185   3.260   3.395   8.853 -0.5561  0.3786 -0.1914
 2209TIP3    H128186   3.321   3.467   8.871 -0.5470  0.3325 -0.0339
 2209TIP3    H228187   3.306   3.317   8.884 -2.1377  0.7173  3.4536
 2210TIP3   OH228188   2.169   5.486   0.408 -0.4692 -0.0488 -0.4515
 2210TIP3    H128189   2.223   5.509   0.332  1.6977 -0.1914  0.9470
 2210TIP3    H228190   2.158   5.391   0.403  2.4314 -0.5803  0.9821
 2211TIP3   OH228191   3.109   5.909   1.285  0.1246  0.5284 -0.5775
 2211TIP3    H128192   3.167   5.955   1.224  1.1978  0.3601  0.2815
 2211TIP3    H228193   3.032   5.964   1.292  0.0429  0.6087 -1.9824
 2212TIP3   OH228194   2.469   0.804   0.460  0.2850  0.5512  0.4759
 2212TIP3    H128195   2.508   0.771   0.541 -1.6611 -2.7339  0.2268
 2212TIP3    H228196   2.536   0.788   0.393  0.8064  0.5897  0.9840
 2213TIP3   OH228197   4.468   5.605   0.200 -0.2775 -0.4583 -0.3712
 2213TIP3    H128198   4.424   5.637   0.278  2.9956  1.6242  0.8198
 2213TIP3    H228199   4.406   5.544   0.160 -2.5531 -0.7237  3.1938
 2214TIP3   OH228200   5.621   6.132   7.044  0.0654 -0.4733  0.3564
 2214TIP3    H128201   5.671   6.102   6.968  0.0377  2.3773 -0.9169
 2214TIP3    H228202   5.542   6.077   7.044  1.3681 -2.4750  0.1463
 2215TIP3   OH228203   6.065   0.985   6.411  0.0070  0.0875 -0.2006
 2215TIP3    H128204   6.029   1.069   6.437  0.9006  1.6359 -3.3720
 2215TIP3    H228205   5.989   0.928   6.398 -0.5758  0.1495  2.4936
 2216TIP3   OH228206   0.223   2.054   7.651  0.2311 -0.0245 -0.6470
 2216TIP3    H128207   0.214   2.150   7.655  0.7091 -0.0175  0.6096
 2216TIP3    H228208   0.188   2.023   7.734  2.1347 -0.7578 -0.0771
 2217TIP3   OH228209   4.943   1.379   1.824  0.0761 -0.5107 -0.5745
 2217TIP3    H128210   5.025   1.363   1.776 -0.5949 -0.9171 -1.6283
 2217TIP3    H228211   4.936   1.305   1.884 -0.7351 -1.8659 -2.2440
 2218TIP3   OH228212   5.765   1.168   6.796 -0.2198  0.3054 -0.4957
 2218TIP3    H128213   5.838   1.115   6.765 -1.3176 -1.4356 -0.2779
 2218TIP3    H228214   5.805   1.238   6.846  1.3248 -0.2019 -0.9761
 2219TIP3   OH228215   3.660   4.483   7.318 -0.2353 -0.5970 -0.3385
 2219TIP3    H128216   3.704   4.400   7.335 -2.9673 -2.1341 -0.1749
 2219TIP3    H228217   3.649   4.486   7.223  0.9139  0.2194 -0.4700
 2220TIP3   OH228218   4.555   1.106   0.078 -0.2687  0.1522  0.3637
 2220TIP3    H128219   4.581   1.026   0.033 -0.5450  0.6925 -0.8152
 2220TIP3    H228220   4.591   1.176   0.024  0.5782  0.8263  1.7568
 2221TIP3   OH228221   4.803   5.120   7.486 -0.1657 -0.0336 -0.5764
 2221TIP3    H128222   4.732   5.075   7.439 -0.5490 -1.6274  1.4000
 2221TIP3    H228223   4.883   5.087   7.445 -0.4628 -2.1382  0.4362
 2222TIP3   OH228224   1.781   5.046   0.992 -0.1526 -0.2982 -0.3726
 2222TIP3    H128225   1.756   4.955   1.011  0.0453 -0.3822 -0.5187
 2222TIP3    H228226   1.784   5.087   1.078  1.3207 -0.8295 -0.1398
 2223TIP3   OH228227   3.798   1.304   1.091  0.2939 -0.1095  0.0649
 2223TIP3    H128228   3.782   1.307   1.185 -0.1637 -1.5490  0.0626
 2223TIP3    H228229   3.885   1.341   1.080 -0.0330  0.9688  0.9422
 2224TIP3   OH228230   0.335   5.326   7.611 -0.3344  0.0798  0.1123
 2224TIP3    H128231   0.347   5.412   7.651 -0.3176  0.4028 -0.5846
 2224TIP3    H228232   0.422   5.303   7.578 -0.0739 -0.7206  1.3019
 2225TIP3   OH228233   0.347   1.995   8.611  0.0424 -0.0702  0.2962
 2225TIP3    H128234   0.405   2.028   8.542  0.3280 -2.4057 -0.6615
 2225TIP3    H228235   0.362   2.053   8.685  1.4917  1.0811 -0.8457
 2226TIP3   OH228236   2.448   2.349   2.072 -0.1811 -0.8328  0.5294
 2226TIP3    H128237   2.354   2.359   2.087 -0.6453 -2.0884 -1.1977
 2226TIP3    H228238   2.462   2.380   1.983  0.8811 -1.4354  0.4669
 2227TIP3   OH228239   0.757   3.493   1.196 -0.3567 -0.3240 -1.1308
 2227TIP3    H128240   0.754   3.401   1.221  0.6359  0.0080  0.3492
 2227TIP3    H228241   0.671   3.511   1.158 -0.2998 -2.0411 -2.1680
 2228TIP3   OH228242   6.303   5.928   7.189  0.1379 -0.4787  0.1920
 2228TIP3    H128243   6.306   5.867   7.263 -3.0428 -0.4846  0.4404
 2228TIP3    H228244   6.369   5.994   7.210  2.9271 -3.1135  0.4621
 2229TIP3   OH228245   2.804   0.267   1.533  0.1170  0.4349  0.7001
 2229TIP3    H128246   2.812   0.358   1.564  0.5532  0.0188  1.8345
 2229TIP3    H228247   2.865   0.263   1.459  1.3283  0.6533  1.6390
 2230TIP3   OH228248   2.595   3.973   0.498 -0.4908 -0.1694  0.5987
 2230TIP3    H128249   2.647   3.923   0.561  0.0397 -0.0981  0.2248
 2230TIP3    H228250   2.527   3.911   0.469 -0.0212 -0.5832  0.3605
 2231TIP3   OH228251   3.605   0.361   7.445  0.4763  0.6348  0.6189
 2231TIP3    H128252   3.537   0.412   7.401  1.2131  0.6336 -0.5514
 2231TIP3    H228253   3.561   0.324   7.521 -1.4786 -1.1335 -1.2242
 2232TIP3   OH228254   3.243   4.589   6.947  0.2848 -0.0288  0.0326
 2232TIP3    H128255   3.306   4.585   6.875  1.6854 -1.5616  1.2431
 2232TIP3    H228256   3.226   4.497   6.969 -3.6086  0.2385 -1.1839
 2233TIP3   OH228257   6.657   3.378   7.604  0.0699 -0.0266  0.4615
 2233TIP3    H128258   6.675   3.430   7.683 -0.2200 -1.5258  1.5542
 2233TIP3    H228259   6.696   3.293   7.621  0.2097 -0.3159 -1.1409
 2234TIP3   OH228260   6.217   3.812   6.180 -1.0152 -0.2596 -0.0275
 2234TIP3    H128261   6.162   3.874   6.228  1.4633  0.1625  2.5293
 2234TIP3    H228262   6.180   3.727   6.201 -0.8516  0.0209  1.5698
 2235TIP3   OH228263   0.042   1.425   7.696  0.0939  0.2635 -0.0380
 2235TIP3    H128264   0.087   1.372   7.761 -0.9492  0.4120  0.8345
 2235TIP3    H228265   0.082   1.512   7.704  0.5673  0.0628 -0.2125
 2236TIP3   OH228266   4.739   1.341   8.171  0.2758  0.7913 -0.6731
 2236TIP3    H128267   4.696   1.318   8.089  1.8105  2.3753 -1.9899
 2236TIP3    H228268   4.672   1.386   8.222  0.1269  2.6519 -2.4151
 2237TIP3   OH228269   3.368   4.992   0.894  0.5233  0.1545  0.1273
 2237TIP3    H128270   3.381   4.897   0.894  0.5310  0.1537  0.7070
 2237TIP3    H228271   3.434   5.025   0.956  0.0838  0.4773  0.4250
 2238TIP3   OH228272   5.584   6.334   0.191  0.1615  0.5886 -0.0958
 2238TIP3    H128273   5.563   6.248   0.153 -2.1789  0.6785  0.8538
 2238TIP3    H228274   5.529   6.340   0.269  1.8198  2.1310  1.0417
 2239TIP3   OH228275   1.691   3.590   0.741 -0.4283 -0.2101 -0.5284
 2239TIP3    H128276   1.770   3.537   0.742  0.5332  1.1335 -1.2210
 2239TIP3    H228277   1.627   3.538   0.693 -0.0754 -1.4210  0.2599
 2240TIP3   OH228278   0.894   3.054   6.327  0.5585 -0.2668 -0.0340
 2240TIP3    H128279   0.801   3.076   6.325  0.7752  0.7552  0.2420
 2240TIP3    H228280   0.906   2.992   6.255 -0.0653  0.7252 -1.0286
 2241TIP3   OH228281   4.006   5.757   1.486 -0.4857 -0.1625  0.8705
 2241TIP3    H128282   3.959   5.754   1.403 -0.1599  0.6549  0.6374
 2241TIP3    H228283   3.990   5.672   1.526  0.7301 -1.2533 -0.7920
 2242TIP3   OH228284   4.960   6.123   0.019 -0.1695 -0.0457  0.2500
 2242TIP3    H128285   4.957   6.219   0.021 -1.5994 -0.0539 -0.1178
 2242TIP3    H228286   4.883   6.098  -0.033  0.3424 -1.3895  0.1005
 2243TIP3   OH228287   1.984   2.697   7.482  0.3640  0.5402  0.0051
 2243TIP3    H128288   2.054   2.733   7.428 -0.0727 -0.3826 -1.2271
 2243TIP3    H228289   1.917   2.670   7.420 -0.8548  0.8698  1.1225
 2244TIP3   OH228290   1.732   1.387   7.230  0.3502 -0.0427  0.3767
 2244TIP3    H128291   1.778   1.462   7.268 -0.4764  0.2713  0.7915
 2244TIP3    H228292   1.741   1.399   7.135  2.9991 -1.1938  0.4174
 2245TIP3   OH228293   1.880   1.630   7.712  0.2699 -0.0194 -0.0607
 2245TIP3    H128294   1.897   1.723   7.695  0.9396 -0.1253  0.0381
 2245TIP3    H228295   1.793   1.629   7.752 -0.0165  0.5091 -0.6468
 2246TIP3   OH228296   3.123   1.602   1.754  0.2643 -0.0070  0.5221
 2246TIP3    H128297   3.175   1.570   1.680  0.7417 -0.3681  1.0069
 2246TIP3    H228298   3.142   1.541   1.825  0.0033  0.4795  1.0180
 2247TIP3   OH228299   1.085   3.316   1.434  0.0821  0.9852  0.1079
 2247TIP3    H128300   1.085   3.222   1.415 -2.5345  1.1392 -1.0571
 2247TIP3    H228301   1.106   3.357   1.351  4.5868  1.5330  1.2665
 2248TIP3   OH228302   3.375   6.515   8.742  0.1559  0.3061 -0.2207
 2248TIP3    H128303   3.462   6.510   8.780  0.0356  2.8934  0.5676
 2248TIP3    H228304   3.389   6.502   8.648  1.4697  1.0822 -0.1536
 2249TIP3   OH228305   2.979   0.301   0.136 -0.5782 -0.3669  0.1545
 2249TIP3    H128306   2.929   0.254   0.069  0.5774 -0.9357 -0.3399
 2249TIP3    H228307   2.961   0.394   0.119  0.8595 -0.4040 -1.9552
 2250TIP3   OH228308   0.522   3.508   1.781  0.3963 -0.2176 -0.2938
 2250TIP3    H128309   0.501   3.433   1.726 -0.2918  1.5112 -2.5011
 2250TIP3    H228310   0.451   3.511   1.845 -0.3291 -0.6286 -1.0665
 2251TIP3   OH228311   6.500   2.013   0.281 -0.4404 -0.6277  0.0173
 2251TIP3    H128312   6.475   2.102   0.306 -0.0986 -0.7934  1.0001
 2251TIP3    H228313   6.474   2.005   0.189  0.7093  0.9184 -0.4832
 2252TIP3   OH228314   2.513   1.277   1.752 -0.0740 -0.5891  0.2330
 2252TIP3    H128315   2.479   1.364   1.729  1.2307  0.4690  2.0464
 2252TIP3    H228316   2.464   1.217   1.696 -2.0241  1.1767 -0.1054
 2253TIP3   OH228317   5.102   4.373   7.277 -0.3374 -0.0113  0.7874
 2253TIP3    H128318   5.012   4.388   7.248  0.9440  4.0076 -2.1608
 2253TIP3    H228319   5.122   4.447   7.334  0.6154 -1.9319  3.1266
 2254TIP3   OH228320   2.108   3.112   0.763 -0.2272  0.0447 -0.3738
 2254TIP3    H128321   2.155   3.030   0.746 -0.7227 -0.4048  0.3781
 2254TIP3    H228322   2.167   3.181   0.732 -0.4155 -0.6390 -2.4323
 2255TIP3   OH228323   2.893   2.594   7.000  0.1770  0.6181 -0.3979
 2255TIP3    H128324   2.882   2.614   6.907  0.3133  0.2029 -0.5073
 2255TIP3    H228325   2.977   2.549   7.004 -1.2093 -2.2009 -0.5428
 2256TIP3   OH228326   2.969   2.696   6.721  0.4208  0.2116  0.0951
 2256TIP3    H128327   3.013   2.777   6.697  0.0928  0.5313  0.5606
 2256TIP3    H228328   2.882   2.704   6.684 -0.9926  1.8204  3.3365
 2257TIP3   OH228329   3.913   1.958   6.519  0.0313 -0.0762 -0.5421
 2257TIP3    H128330   3.874   2.035   6.477 -1.2456  0.1860  1.0067
 2257TIP3    H228331   3.905   1.976   6.612  0.7399 -1.6162 -0.1608
 2258TIP3   OH228332   2.067   6.623   7.485 -0.1363 -0.3161  0.0664
 2258TIP3    H128333   2.091   6.715   7.491 -1.5139  0.0130  0.9489
 2258TIP3    H228334   2.136   6.583   7.432  1.0523  1.0103  0.5676
 2259TIP3   OH228335   6.026   4.250   1.812 -0.0724 -0.6743  0.0640
 2259TIP3    H128336   6.075   4.329   1.792  0.2978 -0.5248  1.4745
 2259TIP3    H228337   5.977   4.231   1.732  1.2487 -0.0716 -0.9098
 2260TIP3   OH228338   0.929   1.857   0.995 -0.5351  0.2839 -0.3817
 2260TIP3    H128339   0.877   1.901   1.062 -1.3464 -0.7794 -0.2958
 2260TIP3    H228340   0.867   1.838   0.924 -0.2453 -0.8635 -0.3409
 2261TIP3   OH228341   1.182   5.988   0.165  0.1955  0.0907  0.3090
 2261TIP3    H128342   1.222   6.073   0.150  3.2611 -1.3444 -0.3607
 2261TIP3    H228343   1.208   5.964   0.254  2.9098 -1.7705 -0.8523
 2262TIP3   OH228344   4.225   6.316   8.035  0.6553 -0.3142 -0.1033
 2262TIP3    H128345   4.230   6.397   7.984 -2.9223  0.3701  0.3750
 2262TIP3    H228346   4.229   6.345   8.127  1.9880 -1.0294  0.1000
 2263TIP3   OH228347   0.566   5.664   0.486 -0.1820  0.4068 -0.1318
 2263TIP3    H128348   0.539   5.579   0.522 -0.4160  1.1992  1.6822
 2263TIP3    H228349   0.662   5.661   0.489 -0.1609 -0.2404 -1.2110
 2264TIP3   OH228350   3.364   1.607   2.457  0.1275  0.7379  0.4575
 2264TIP3    H128351   3.377   1.517   2.488  0.1521  0.6890  0.3050
 2264TIP3    H228352   3.425   1.659   2.509 -0.6242  0.8183  1.2848
 2265TIP3   OH228353   1.953   5.254   0.197  0.3304 -0.0716 -0.3647
 2265TIP3    H128354   1.866   5.288   0.180  0.8688  0.7888 -1.5286
 2265TIP3    H228355   1.977   5.207   0.118  1.5147  1.0347 -0.7144
 2266TIP3   OH228356   6.295   1.811   8.306 -0.0494  0.5739  0.4295
 2266TIP3    H128357   6.307   1.739   8.367 -0.2723 -0.3381 -0.5896
 2266TIP3    H228358   6.337   1.886   8.349 -0.7837  0.1277  1.9921
 2267TIP3   OH228359   0.668   4.983   1.267 -0.2942 -0.2549 -0.0021
 2267TIP3    H128360   0.577   4.962   1.285 -0.6257  1.5975  0.6639
 2267TIP3    H228361   0.679   4.964   1.173 -0.5953 -2.9355  0.4085
 2268TIP3   OH228362   5.717   3.543   2.084 -0.0289 -0.2125 -0.2985
 2268TIP3    H128363   5.623   3.533   2.101 -0.0218 -0.3207 -0.3159
 2268TIP3    H228364   5.751   3.589   2.160 -0.5284  2.1410 -1.4000
 2269TIP3   OH228365   3.004   1.963   1.274  0.0887 -0.5256  0.2913
 2269TIP3    H128366   2.982   1.961   1.367 -2.4069 -0.2339 -0.2182
 2269TIP3    H228367   3.082   2.018   1.269  1.1171 -1.6776  2.3062
 2270TIP3   OH228368   3.679   5.585   7.691  0.6472  0.2230  0.0646
 2270TIP3    H128369   3.630   5.660   7.724 -1.1433 -1.3024  1.1171
 2270TIP3    H228370   3.649   5.574   7.601 -0.1677 -0.0304  0.3534
 2271TIP3   OH228371   1.118   2.814   7.620 -0.2640  0.2042  0.5434
 2271TIP3    H128372   1.163   2.875   7.679  0.3607  0.0723  0.2135
 2271TIP3    H228373   1.140   2.727   7.653  0.2397  0.1241  0.0231
 2272TIP3   OH228374   4.340   4.600   1.563  0.1896 -0.1448 -0.1717
 2272TIP3    H128375   4.318   4.527   1.621 -1.8453  0.6334  0.1212
 2272TIP3    H228376   4.430   4.582   1.535  0.6251 -1.4548  1.8241
 2273TIP3   OH228377   0.491   3.312   0.042  0.3940 -0.1258  0.9595
 2273TIP3    H128378   0.414   3.265   0.010  0.7429  0.7439 -1.3003
 2273TIP3    H228379   0.564   3.252   0.027  0.6992  0.6693 -0.9696
 2274TIP3   OH228380   3.894   1.252   2.094  0.2988 -0.7521  0.0038
 2274TIP3    H128381   3.974   1.199   2.101  0.8904  0.0947 -0.2213
 2274TIP3    H228382   3.903   1.318   2.162 -0.1148 -0.5199 -0.1645
 2275TIP3   OH228383   1.779   4.330   0.966  0.4271  0.1020  0.1289
 2275TIP3    H128384   1.713   4.393   0.993  0.6986  0.9346 -1.0718
 2275TIP3    H228385   1.828   4.374   0.897  0.5731 -1.4571 -0.8247
 2276TIP3   OH228386   1.347   4.875   0.777 -0.0897 -0.2989  0.1907
 2276TIP3    H128387   1.356   4.971   0.780  0.1999 -0.3305  0.3810
 2276TIP3    H228388   1.318   4.857   0.687  1.0812 -0.1306 -0.2405
 2277TIP3   OH228389   4.917   0.115   0.305  0.2498 -0.0076 -0.4985
 2277TIP3    H128390   4.951   0.076   0.385  0.8530  0.6742 -0.4104
 2277TIP3    H228391   4.875   0.196   0.334 -1.7698 -0.9470 -0.5616
 2278TIP3   OH228392   2.069   4.150   6.936 -0.2712  0.0945 -0.2262
 2278TIP3    H128393   2.043   4.215   6.871  1.7951  2.6175  1.2669
 2278TIP3    H228394   2.121   4.087   6.887 -1.3844  0.1557 -1.5393
 2279TIP3   OH228395   1.486   6.144   1.317 -0.4057 -0.1012 -0.4597
 2279TIP3    H128396   1.424   6.115   1.250  0.4079  1.0373 -1.7458
 2279TIP3    H228397   1.497   6.238   1.301 -0.7240  0.3723  1.7348
 2280TIP3   OH228398   3.221   6.499   1.482 -0.1978  0.9085  0.1771
 2280TIP3    H128399   3.180   6.421   1.445 -1.5282  0.1895  2.9308
 2280TIP3    H228400   3.240   6.555   1.406 -1.2306 -1.1139 -1.6680
 2281TIP3   OH228401   4.533   5.512   0.908 -0.4149 -0.2419 -0.1396
 2281TIP3    H128402   4.556   5.574   0.977  0.3231 -0.2891 -0.3417
 2281TIP3    H228403   4.616   5.472   0.882 -0.7522 -0.5875 -0.7113
 2282TIP3   OH228404   5.967   1.854   7.516  0.5772  0.3332  0.4712
 2282TIP3    H128405   6.004   1.806   7.590 -2.6774 -1.3922  1.1591
 2282TIP3    H228406   6.032   1.843   7.446  1.6774 -1.9511  1.7304
 2283TIP3   OH228407   0.012   3.760   1.377  0.1182  0.9458  0.1962
 2283TIP3    H128408  -0.077   3.730   1.356  0.4833  0.5622 -0.8753
 2283TIP3    H228409   0.033   3.715   1.459 -0.0176 -0.3822 -0.4579
 2284TIP3   OH228410   5.365   4.409   1.119  0.1786 -0.0378  0.2456
 2284TIP3    H128411   5.448   4.392   1.075 -0.0451 -2.7134  0.7151
 2284TIP3    H228412   5.366   4.352   1.196 -1.1290  1.5937  1.5589
 2285TIP3   OH228413   2.402   3.973   1.207 -0.0265  0.0068  0.2414
 2285TIP3    H128414   2.369   3.975   1.117 -2.3627  2.1719  1.0211
 2285TIP3    H228415   2.344   3.911   1.251 -0.6952  1.0336  0.8296
 2286TIP3   OH228416   0.334   3.210   7.829  0.0490 -0.3287 -0.0563
 2286TIP3    H128417   0.302   3.182   7.743  1.9363 -1.2198 -0.5083
 2286TIP3    H228418   0.425   3.234   7.815 -0.4515  2.6408  1.0800
 2287TIP3   OH228419   3.498   0.893   0.126  0.7503  0.8682 -0.1919
 2287TIP3    H128420   3.579   0.874   0.173 -1.8611 -2.0158  3.8001
 2287TIP3    H228421   3.472   0.810   0.088 -1.5485  1.0417  0.8685
 2288TIP3   OH228422   6.458   2.003   0.019  0.4367  0.6512 -0.2296
 2288TIP3    H128423   6.470   1.924  -0.033  0.9108 -0.2055  1.1088
 2288TIP3    H228424   6.498   2.073  -0.032  0.6001 -0.0956 -1.1432
 2289TIP3   OH228425   2.756   1.366   7.645 -0.2510  0.7610 -0.2633
 2289TIP3    H128426   2.821   1.297   7.629  0.7898  0.9732  2.4843
 2289TIP3    H228427   2.762   1.423   7.568  1.4764 -0.2263 -0.9222
 2290TIP3   OH228428   0.316   1.468   6.562 -0.2708  0.3476  0.2583
 2290TIP3    H128429   0.282   1.386   6.526  0.7226 -1.1063  2.3794
 2290TIP3    H228430   0.257   1.536   6.529 -2.0136 -1.3859 -0.3695
 2291TIP3   OH228431   4.917   1.246   7.826  0.1224  0.1362  0.0065
 2291TIP3    H128432   4.981   1.199   7.879 -1.9142 -0.0062  2.5326
 2291TIP3    H228433   4.931   1.338   7.848 -0.7545  0.0745  0.8748
 2292TIP3   OH228434   6.554   2.550   1.635 -0.3030  0.3046 -0.7149
 2292TIP3    H128435   6.609   2.489   1.685 -0.8039  0.7512  0.4130
 2292TIP3    H228436   6.599   2.635   1.643 -0.4556  0.4049 -0.9093
 2293TIP3   OH228437   2.547   1.351   0.888 -0.3203 -0.0090  0.0574
 2293TIP3    H128438   2.526   1.349   0.795 -0.0997  1.7195 -0.0497
 2293TIP3    H228439   2.643   1.344   0.891 -0.3226  0.0059  0.1613
 2294TIP3   OH228440   3.037   5.185   8.237 -0.4102  0.1014  0.5447
 2294TIP3    H128441   3.119   5.151   8.201 -0.9816 -1.2694  0.4797
 2294TIP3    H228442   3.051   5.187   8.331 -0.2971 -0.0973  0.5320
 2295TIP3   OH228443   4.184   1.931   6.695  0.5209  0.2066  0.3437
 2295TIP3    H128444   4.182   1.836   6.684  2.9066  0.3034 -1.8828
 2295TIP3    H228445   4.114   1.963   6.640 -1.3041 -0.2437  2.2790
 2296TIP3   OH228446   4.459   2.990   8.131  0.0888  0.2292 -0.2056
 2296TIP3    H128447   4.389   3.043   8.169 -0.2683 -0.1898 -0.2824
 2296TIP3    H228448   4.535   3.048   8.132 -0.1175  0.4950  0.3949
 2297TIP3   OH228449   5.994   5.459   0.972  0.0947  0.3225 -0.3556
 2297TIP3    H128450   5.905   5.436   0.999  0.5077  0.5869  1.3405
 2297TIP3    H228451   6.050   5.394   1.014  0.6602 -0.6462 -2.4662
 2298TIP3   OH228452   5.990   1.228   0.747  0.1864 -0.8298 -0.4982
 2298TIP3    H128453   5.959   1.139   0.761 -0.5927 -0.5330 -0.2679
 2298TIP3    H228454   5.968   1.274   0.828 -1.7838  0.1978 -1.5384
 2299TIP3   OH228455   1.728   3.675   8.220 -0.4235 -0.1772 -0.3298
 2299TIP3    H128456   1.721   3.733   8.144 -0.1799 -0.1666 -0.3442
 2299TIP3    H228457   1.821   3.675   8.242 -0.3725 -0.8006 -0.5190
 2300TIP3   OH228458   3.913   6.219   8.491 -0.1457 -0.0244  0.1456
 2300TIP3    H128459   3.824   6.253   8.479  0.0059  0.6226  0.7450
 2300TIP3    H228460   3.969   6.282   8.445 -0.0557 -0.9488 -1.0613
 2301TIP3   OH228461   5.825   1.152   1.811 -0.0409  0.5796  0.4085
 2301TIP3    H128462   5.921   1.147   1.813  0.0877  2.4062  0.0009
 2301TIP3    H228463   5.798   1.110   1.892  1.1671  1.0910  1.1056
 2302TIP3   OH228464   3.096   4.764   8.827 -0.4244 -0.2794 -0.0427
 2302TIP3    H128465   3.082   4.745   8.920 -0.8079  0.3141  0.0311
 2302TIP3    H228466   3.151   4.842   8.827 -3.4043  2.0104 -0.2116
 2303TIP3   OH228467   6.741   0.090   1.422 -0.2156  0.2272 -0.0906
 2303TIP3    H128468   6.768   0.141   1.498  0.6943 -0.7773  0.2959
 2303TIP3    H228469   6.823   0.058   1.384 -0.7454 -1.2871 -0.0516
 2304TIP3   OH228470   4.270   5.282   2.568  0.4770 -0.0952  0.5354
 2304TIP3    H128471   4.363   5.300   2.558  0.6829 -0.9718  0.7805
 2304TIP3    H228472   4.245   5.237   2.487  0.8654 -2.1175  1.4544
 2305TIP3   OH228473   2.332   2.480   8.326 -0.1634 -0.2601 -0.4626
 2305TIP3    H128474   2.280   2.554   8.356 -0.5552 -0.6807 -0.0911
 2305TIP3    H228475   2.378   2.450   8.405 -1.4484 -1.5778 -0.1814
 2306TIP3   OH228476   3.661   5.732   1.448 -0.1807 -0.4874 -0.1653
 2306TIP3    H128477   3.627   5.648   1.478 -0.5674 -0.8393 -1.5470
 2306TIP3    H228478   3.693   5.774   1.528 -0.3698 -1.7558  0.6061
 2307TIP3   OH228479   5.625   2.873   2.382  0.0830  0.0712  0.0864
 2307TIP3    H128480   5.602   2.908   2.469 -0.5084 -1.5776  0.6270
 2307TIP3    H228481   5.543   2.834   2.350  0.5009 -0.0257 -0.8717
 2308TIP3   OH228482   4.790   1.288   8.484 -0.4440 -0.6285 -0.1617
 2308TIP3    H128483   4.784   1.383   8.474  0.3906 -0.3188  1.9090
 2308TIP3    H228484   4.701   1.260   8.505 -0.7700 -0.3893 -1.1516
 2309TIP3   OH228485   5.686   6.611   2.148  0.1141  0.0996 -0.4622
 2309TIP3    H128486   5.700   6.637   2.058 -0.3587  2.2414  0.0254
 2309TIP3    H228487   5.614   6.667   2.178 -0.0677 -0.9050  1.1010
 2310TIP3   OH228488   3.818   3.601   8.135  0.4714  0.0188  0.2886
 2310TIP3    H128489   3.900   3.595   8.086  0.1649  0.4270 -0.2879
 2310TIP3    H228490   3.782   3.687   8.113  0.6125  0.4695  1.7092
 2311TIP3   OH228491   0.670   5.432   1.951 -0.4125 -0.0449 -0.4449
 2311TIP3    H128492   0.673   5.391   2.038 -1.9968  1.5756  0.4447
 2311TIP3    H228493   0.749   5.401   1.907  0.9912 -0.0947  1.9490
 2312TIP3   OH228494   4.032   1.286   0.666 -0.8858 -0.0093 -0.0852
 2312TIP3    H128495   4.035   1.190   0.671  0.6251 -0.0565 -1.2023
 2312TIP3    H228496   4.121   1.311   0.642 -0.8740  1.8044  1.6211
 2313TIP3   OH228497   0.716   2.235   0.092  0.8091  0.0070  0.2043
 2313TIP3    H128498   0.757   2.321   0.095 -0.5510  0.6923  2.8363
 2313TIP3    H228499   0.642   2.242   0.153 -0.8062 -2.3241 -1.3332
 2314TIP3   OH228500   1.740   2.365   0.383 -0.6902  0.1263  0.4432
 2314TIP3    H128501   1.645   2.360   0.372 -0.5636 -3.2295 -0.4221
 2314TIP3    H228502   1.755   2.341   0.474 -0.6684 -2.6542 -0.1958
 2315TIP3   OH228503   4.487   5.650   7.722 -0.3153  0.7468 -0.3401
 2315TIP3    H128504   4.419   5.615   7.664 -0.5205  1.2834 -0.4261
 2315TIP3    H228505   4.560   5.588   7.713  0.1375  1.4807 -2.1595
 2316TIP3   OH228506   4.310   4.785   1.869 -0.2627  0.7366 -0.5564
 2316TIP3    H128507   4.238   4.758   1.811 -0.2354  0.9323 -0.6830
 2316TIP3    H228508   4.377   4.819   1.810 -0.8706  2.4404 -0.3253
 2317TIP3   OH228509   1.151   1.577   2.407 -0.3591 -0.1678  0.2433
 2317TIP3    H128510   1.200   1.657   2.391 -0.7870 -0.4938 -3.7147
 2317TIP3    H228511   1.063   1.607   2.431 -0.0064  0.5083  0.7166
 2318TIP3   OH228512   2.066   6.381   7.100  0.2726 -0.3092 -0.6797
 2318TIP3    H128513   2.065   6.359   7.007  3.7998 -2.4517 -0.3704
 2318TIP3    H228514   2.060   6.297   7.145 -2.3099  0.7272  1.1923
 2319TIP3   OH228515   2.468   2.443   7.820  0.1187  0.1607  0.4053
 2319TIP3    H128516   2.490   2.422   7.910  0.4123  0.3172  0.3710
 2319TIP3    H228517   2.378   2.412   7.809  0.1462 -0.0240  0.6961
 2320TIP3   OH228518   0.891   6.479   1.501 -0.0673  0.0297 -0.1576
 2320TIP3    H128519   0.863   6.494   1.411 -1.2687  2.0878  0.4995
 2320TIP3    H228520   0.851   6.549   1.551  0.4526 -1.1371  2.0358
 2321TIP3   OH228521   4.060   2.823   1.109 -0.0832  0.0670 -0.1544
 2321TIP3    H128522   4.029   2.771   1.183 -2.3231  0.6522 -0.5882
 2321TIP3    H228523   4.078   2.759   1.040  0.8434 -0.3819  0.4790
 2322TIP3   OH228524   1.716   2.588   0.234 -0.2487 -0.1925  0.0582
 2322TIP3    H128525   1.647   2.613   0.296  0.8667 -0.4636  1.4759
 2322TIP3    H228526   1.763   2.517   0.278  3.6496  2.7683  1.2659
 2323TIP3   OH228527   4.186   1.651   6.694 -0.2464 -0.2023 -0.2759
 2323TIP3    H128528   4.278   1.635   6.673  0.0189  1.3753 -0.4786
 2323TIP3    H228529   4.140   1.572   6.666  1.1117 -1.2334  0.3423
 2324TIP3   OH228530   0.997   4.093   0.061  0.2865  0.0464 -0.0435
 2324TIP3    H128531   0.975   4.124  -0.027  1.3450  1.9184  0.2954
 2324TIP3    H228532   1.083   4.051   0.051 -0.2403 -1.0167 -0.1463
 2325TIP3   OH228533   3.265   2.752   7.153 -0.0565  0.2116 -0.3401
 2325TIP3    H128534   3.315   2.686   7.107  0.5082  0.2706  0.1786
 2325TIP3    H228535   3.311   2.764   7.236 -1.2262 -0.1303  0.3899
 2326TIP3   OH228536   2.918   2.237   7.240 -0.4860 -0.7411  0.0407
 2326TIP3    H128537   2.896   2.144   7.238  1.7022 -1.3025 -0.7991
 2326TIP3    H228538   2.912   2.264   7.149  2.3372 -1.0128 -0.3032
 2327TIP3   OH228539   0.325   6.289   0.185  0.5498  0.3227  1.4696
 2327TIP3    H128540   0.298   6.299   0.276 -1.7680  1.2379  0.7698
 2327TIP3    H228541   0.250   6.247   0.142  1.4594  0.1844 -0.0723
 2328TIP3   OH228542   0.266   1.321   7.011 -0.0080  0.2942  0.1545
 2328TIP3    H128543   0.265   1.233   7.048 -0.8384  0.4988  0.6542
 2328TIP3    H228544   0.286   1.309   6.919  1.2618 -0.3057  0.4856
 2329TIP3   OH228545   2.016   0.435   0.573  0.1687 -0.1706 -0.6480
 2329TIP3    H128546   1.964   0.472   0.502 -0.3543 -1.8476 -1.1755
 2329TIP3    H228547   2.078   0.377   0.530  0.3211 -0.6707  0.2174
 2330TIP3   OH228548   2.629   0.938   1.367 -0.2107  0.2384 -0.2977
 2330TIP3    H128549   2.710   0.908   1.407 -0.3351 -0.2496 -0.4103
 2330TIP3    H228550   2.652   0.954   1.275 -0.0935  0.6923 -0.1904
 2331TIP3   OH228551   6.359   1.469   2.114  0.5308  0.1530 -0.4048
 2331TIP3    H128552   6.323   1.398   2.167 -0.6912  1.3878  0.5082
 2331TIP3    H228553   6.306   1.546   2.138  2.1666  1.5027 -0.9210
 2332TIP3   OH228554   3.891   2.043   0.874  0.3598  0.1479  0.0010
 2332TIP3    H128555   3.796   2.055   0.875  0.4057  0.5041  1.6227
 2332TIP3    H228556   3.903   1.948   0.876  0.0547  0.0878 -0.5996
 2333TIP3   OH228557   1.566   1.153   7.060 -0.0020 -0.5653 -0.0208
 2333TIP3    H128558   1.581   1.246   7.042 -1.9208 -0.2201 -0.0293
 2333TIP3    H228559   1.589   1.110   6.978  0.7102 -0.0919 -0.0839
 2334TIP3   OH228560   0.220   0.393   7.453  0.0230  0.1488  0.6157
 2334TIP3    H128561   0.130   0.424   7.457  0.0693  0.2408  0.9780
 2334TIP3    H228562   0.219   0.310   7.500 -0.0388 -0.2538 -0.0958
 2335TIP3   OH228563   4.457   0.889   0.837  0.5307 -0.5342  0.3554
 2335TIP3    H128564   4.541   0.932   0.818 -0.8778  1.1322 -2.7513
 2335TIP3    H228565   4.431   0.850   0.754 -1.9887 -0.6307  1.1290
 2336TIP3   OH228566   3.971   6.186   2.480  0.2456 -0.0699 -0.4275
 2336TIP3    H128567   3.958   6.262   2.537  0.9303 -0.9404  0.9507
 2336TIP3    H228568   3.882   6.160   2.455 -0.0224  0.8490 -0.4751
 2337TIP3   OH228569   4.810   1.843   2.200  0.0025 -0.5464  1.1605
 2337TIP3    H128570   4.773   1.838   2.288  2.3593  0.6385  2.3165
 2337TIP3    H228571   4.800   1.754   2.165 -4.2246 -0.2115  1.0960
 2338TIP3   OH228572   0.218   3.370   6.831 -0.1138  0.3882  0.0553
 2338TIP3    H128573   0.219   3.397   6.739  1.0929  1.1924  0.2820
 2338TIP3    H228574   0.262   3.285   6.831 -0.2858  0.2962 -0.1243
 2339TIP3   OH228575   1.726   2.295   1.868  0.1271  0.2622 -0.4964
 2339TIP3    H128576   1.743   2.206   1.900  0.4923  0.8130  0.9423
 2339TIP3    H228577   1.813   2.334   1.860 -0.1069  1.2566  1.2981
 2340TIP3   OH228578   6.503   1.262   7.966 -0.1536  1.0620  0.4289
 2340TIP3    H128579   6.560   1.277   7.890 -3.1046  1.0450 -1.9885
 2340TIP3    H228580   6.455   1.344   7.976 -1.9593  0.0580  0.2822
 2341TIP3   OH228581   1.701   0.341   1.122 -0.0158 -0.6712 -0.2331
 2341TIP3    H128582   1.791   0.374   1.130  0.4761 -2.1612  1.0090
 2341TIP3    H228583   1.712   0.246   1.114 -1.4878 -0.8724 -0.0831
 2342TIP3   OH228584   2.273   6.505   0.357 -0.0206 -0.1884  0.3207
 2342TIP3    H128585   2.197   6.502   0.415 -0.1923 -2.0788  0.0757
 2342TIP3    H228586   2.340   6.453   0.403 -0.0424 -1.4037 -0.9660
 2343TIP3   OH228587   5.673   4.758   1.334  0.1619 -0.5248 -0.1061
 2343TIP3    H128588   5.694   4.830   1.394  0.2893 -0.8128  0.2010
 2343TIP3    H228589   5.592   4.785   1.291  0.9620  0.4540 -1.0549
 2344TIP3   OH228590   2.523   6.108   0.228 -0.0821 -0.1886  0.0117
 2344TIP3    H128591   2.488   6.072   0.310 -0.3972 -1.2142 -0.5594
 2344TIP3    H228592   2.543   6.199   0.249  0.1410 -0.5188  1.3224
 2345TIP3   OH228593   6.758   0.043   7.064 -0.1120  0.1166 -0.5088
 2345TIP3    H128594   6.837   0.032   7.117 -0.2741  1.2591 -0.0190
 2345TIP3    H228595   6.791   0.059   6.976  0.3104  2.6679  0.0400
 2346TIP3   OH228596   1.412   5.492   7.189  0.1926  0.4238 -0.3329
 2346TIP3    H128597   1.465   5.458   7.116  1.1735  1.4171 -0.1032
 2346TIP3    H228598   1.376   5.413   7.231  0.4442 -0.2067 -1.2668
 2347TIP3   OH228599   6.740   4.231   8.107 -0.3856  0.0562 -0.2728
 2347TIP3    H128600   6.818   4.286   8.095  1.1673 -2.1346 -0.9484
 2347TIP3    H228601   6.758   4.153   8.053 -0.4464 -3.1069  3.7964
 2348TIP3   OH228602   5.975   1.424   0.956  0.2059  0.2966 -0.1557
 2348TIP3    H128603   5.886   1.434   0.988  0.8625  1.3240  1.4433
 2348TIP3    H228604   6.015   1.359   1.013  0.6338  0.2344 -0.5161
 2349TIP3   OH228605   3.256   5.469   1.874  0.0484  0.0089  0.0079
 2349TIP3    H128606   3.207   5.506   1.948 -2.4002 -2.0404 -0.4832
 2349TIP3    H228607   3.286   5.384   1.905  1.0294  0.1073 -0.6198
 2350TIP3   OH228608   4.687   5.354   2.674 -0.5178 -0.3570  0.1363
 2350TIP3    H128609   4.691   5.450   2.677 -1.7692 -0.2939  0.6346
 2350TIP3    H228610   4.608   5.335   2.623  0.1873 -1.1472 -0.6952
 2351TIP3   OH228611   4.695   3.556   7.495  0.1878 -0.1213  0.1053
 2351TIP3    H128612   4.621   3.512   7.454  2.0414 -1.4819 -1.9712
 2351TIP3    H228613   4.738   3.488   7.546  0.6365  0.3780  0.4067
 2352TIP3   OH228614   2.794   5.293   7.341 -0.4868  0.2237  0.4642
 2352TIP3    H128615   2.761   5.203   7.330 -1.4405  0.6987 -0.7938
 2352TIP3    H228616   2.771   5.337   7.259  0.2842  1.5336  0.9243
 2353TIP3   OH228617   4.618   5.887   7.316 -0.1564 -0.3661  0.0592
 2353TIP3    H128618   4.583   5.886   7.405 -0.0880  0.1258  0.0936
 2353TIP3    H228619   4.556   5.834   7.266  0.7556 -2.1373  0.7340
 2354TIP3   OH228620   0.303   1.244   1.234 -0.0699  0.9548 -0.6099
 2354TIP3    H128621   0.360   1.233   1.311  0.1864  0.1052 -0.9032
 2354TIP3    H228622   0.230   1.297   1.266 -0.1650  0.2997  0.3443
 2355TIP3   OH228623   2.242   4.749   1.215 -0.1974  1.1575 -0.1172
 2355TIP3    H128624   2.318   4.772   1.161 -1.3803 -1.3533 -3.1199
 2355TIP3    H228625   2.265   4.665   1.254 -1.1440  0.7452 -0.4334
 2356TIP3   OH228626   6.467   0.160   6.789 -0.2033  0.2105 -0.5943
 2356TIP3    H128627   6.384   0.197   6.759 -0.2797  0.9036  0.4158
 2356TIP3    H228628   6.527   0.174   6.716 -1.0120 -0.4825 -1.4201
 2357TIP3   OH228629   1.743   2.342   6.533  0.1146 -0.4081 -0.1971
 2357TIP3    H128630   1.752   2.254   6.495  0.6683 -0.7783  0.7565
 2357TIP3    H228631   1.822   2.388   6.505  1.0536 -1.0163  1.3147
 2358TIP3   OH228632   1.106   1.310   0.292 -0.7669 -0.1955 -0.0023
 2358TIP3    H128633   1.029   1.332   0.344 -0.1830 -0.2764  0.9281
 2358TIP3    H228634   1.135   1.226   0.327  0.8065  0.6913  0.9483
 2359TIP3   OH228635   2.128   1.245   1.667  0.5055  0.1335  0.3713
 2359TIP3    H128636   2.171   1.307   1.727  1.3025 -0.8742  0.8578
 2359TIP3    H228637   2.175   1.163   1.678 -1.1139 -0.8444  0.4323
 2360TIP3   OH228638   6.456   4.290   8.070  0.1874  0.4960  0.0971
 2360TIP3    H128639   6.535   4.244   8.098 -0.2418 -0.1143  0.3276
 2360TIP3    H228640   6.423   4.239   7.996 -0.8150 -0.1346  0.9554
 2361TIP3   OH228641   3.216   3.159   2.411 -0.1839 -0.8985  0.1884
 2361TIP3    H128642   3.219   3.253   2.392  1.1632 -0.7808  0.8732
 2361TIP3    H228643   3.140   3.149   2.468 -0.2887 -0.2117  0.1802
 2362TIP3   OH228644   1.472   0.592   7.664  0.3423 -0.2883  0.2305
 2362TIP3    H128645   1.383   0.562   7.685  0.2376 -2.0694 -2.3522
 2362TIP3    H228646   1.528   0.542   7.724 -0.2497 -1.3189 -0.0366
 2363TIP3   OH228647   3.886   1.588   0.062 -0.0968 -0.5296  0.9555
 2363TIP3    H128648   3.948   1.557  -0.004 -0.2183 -0.7636  0.9475
 2363TIP3    H228649   3.911   1.679   0.078  0.9419 -0.9354  1.7640
 2364TIP3   OH228650   5.286   4.149   0.034  0.0207 -0.0579 -0.2220
 2364TIP3    H128651   5.202   4.186   0.005  0.8255  1.0283 -1.3084
 2364TIP3    H228652   5.288   4.164   0.128 -0.9397  0.0512 -0.2147
 2365TIP3   OH228653   6.348   6.388   2.250 -0.1553 -0.1685  0.0311
 2365TIP3    H128654   6.410   6.457   2.275 -1.4359  1.3680 -0.8526
 2365TIP3    H228655   6.385   6.350   2.170  0.4211 -0.3541  0.3751
 2366TIP3   OH228656   4.786   2.068   7.201 -0.1045  0.1181  0.1407
 2366TIP3    H128657   4.877   2.059   7.173  0.0901 -0.4176  0.9166
 2366TIP3    H228658   4.792   2.090   7.294 -0.7691 -1.8781  0.7194
 2367TIP3   OH228659   1.787   1.840   8.408 -0.1262  0.2455 -0.6417
 2367TIP3    H128660   1.702   1.833   8.364 -0.4384  0.7328 -0.1421
 2367TIP3    H228661   1.782   1.923   8.456 -0.8966 -1.4652  2.5490
 2368TIP3   OH228662   6.736   1.460   1.626 -0.1577 -0.5340 -0.0016
 2368TIP3    H128663   6.698   1.442   1.712  0.8997  1.3898  0.9556
 2368TIP3    H228664   6.728   1.378   1.578 -1.7413 -1.3613  1.5585
 2369TIP3   OH228665   5.898   6.255   1.190  0.5307  0.1268  0.3893
 2369TIP3    H128666   5.934   6.343   1.194  0.4410  0.1354  1.0644
 2369TIP3    H228667   5.865   6.238   1.278  0.3986 -0.5187  0.2227
 2370TIP3   OH228668   0.897   0.498   6.163  1.0072  0.6977  0.6951
 2370TIP3    H128669   0.940   0.437   6.103 -1.2332  2.8137 -3.5970
 2370TIP3    H228670   0.968   0.539   6.211  3.1021 -0.9163 -0.8192
 2371TIP3   OH228671   1.688   5.585   1.673  0.1066  0.2836  0.3334
 2371TIP3    H128672   1.599   5.575   1.706  0.1641 -1.7212  0.0359
 2371TIP3    H228673   1.689   5.670   1.630 -1.9050 -0.0075 -0.3731
 2372TIP3   OH228674   1.507   1.996   0.442  0.2011  0.5553  0.0547
 2372TIP3    H128675   1.463   1.952   0.369 -0.7674  0.1195  0.8841
 2372TIP3    H228676   1.600   1.997   0.417 -0.1437  0.6897 -1.3165
 2373TIP3   OH228677   6.370   5.731   7.376 -0.5748 -0.1263 -0.1819
 2373TIP3    H128678   6.355   5.656   7.319 -0.5326 -0.7707  0.6439
 2373TIP3    H228679   6.296   5.730   7.437 -0.5751  0.5073 -0.1603
 2374TIP3   OH228680   4.415   3.292   0.122 -0.3922 -0.2454  0.3311
 2374TIP3    H128681   4.479   3.343   0.172 -2.4334  1.3092  1.5746
 2374TIP3    H228682   4.373   3.356   0.065 -0.9921 -1.1611 -0.2831
 2375TIP3   OH228683   1.263   3.052   6.890  0.1548  0.7577 -0.9240
 2375TIP3    H128684   1.305   2.969   6.865 -0.2845  0.0294  0.6601
 2375TIP3    H228685   1.209   3.075   6.814 -0.9385 -1.2279 -0.8139
 2376TIP3   OH228686   2.248   6.750   7.773 -0.2294  0.4775  0.1251
 2376TIP3    H128687   2.209   6.802   7.844 -0.4294  2.1028 -1.1089
 2376TIP3    H228688   2.253   6.811   7.699 -0.6088 -1.3231 -1.4582
 2377TIP3   OH228689   4.336   5.197   1.396  0.5478 -0.9193  0.6076
 2377TIP3    H128690   4.326   5.109   1.433 -0.5824 -0.4367  1.5072
 2377TIP3    H228691   4.303   5.191   1.307 -0.8041 -1.1075  1.1081
 2378TIP3   OH228692   0.193   0.030   0.744  0.8007  0.2377 -0.2805
 2378TIP3    H128693   0.244  -0.051   0.749  0.9003  0.3467  0.7180
 2378TIP3    H228694   0.160   0.033   0.654 -0.1665 -1.5018 -0.0223
 2379TIP3   OH228695   4.324   0.865   2.175 -0.7361  0.0460  0.2144
 2379TIP3    H128696   4.391   0.831   2.116 -1.3237 -3.1057  1.1579
 2379TIP3    H228697   4.370   0.878   2.258 -1.2127 -2.4340  0.9561
 2380TIP3   OH228698   1.215   0.048   7.979  0.6930 -0.3553  0.2204
 2380TIP3    H128699   1.210   0.134   7.937  0.2295 -0.6206 -0.2877
 2380TIP3    H228700   1.188   0.064   8.070 -0.7015 -0.1646 -0.1944
 2381TIP3   OH228701   6.283   6.516   7.180  0.5131 -0.0275 -0.6592
 2381TIP3    H128702   6.204   6.555   7.219 -1.3243 -2.1059 -2.0696
 2381TIP3    H228703   6.342   6.502   7.255 -0.3450  1.7348  0.4180
 2382TIP3   OH228704   3.125   5.847   0.820  0.4103  0.3055 -0.3160
 2382TIP3    H128705   3.080   5.929   0.805  1.2559  1.1696  1.5397
 2382TIP3    H228706   3.182   5.836   0.744 -0.5166  0.8357 -1.1083
 2383TIP3   OH228707   5.994   0.265   7.804 -0.3224 -0.5059 -0.0007
 2383TIP3    H128708   6.076   0.280   7.851 -0.1721 -0.5320 -0.2494
 2383TIP3    H228709   5.983   0.170   7.806  0.2224 -0.5974 -0.9056
 2384TIP3   OH228710   1.461   5.271   8.545  0.0729  0.2432  0.0071
 2384TIP3    H128711   1.411   5.197   8.510  0.6627  0.1947 -0.7634
 2384TIP3    H228712   1.498   5.313   8.467 -0.0134  1.1758  0.4597
 2385TIP3   OH228713   3.988   3.597   1.790  0.3965  0.1178 -0.2174
 2385TIP3    H128714   4.029   3.510   1.787 -0.5088 -0.3551  0.6246
 2385TIP3    H228715   4.043   3.647   1.849 -0.2981 -0.5717  1.0554
 2386TIP3   OH228716   5.625   1.634   8.376 -0.1820 -0.3255  0.2657
 2386TIP3    H128717   5.575   1.577   8.434  0.8875 -1.2192  0.3462
 2386TIP3    H228718   5.659   1.575   8.308 -0.8274  0.5858 -0.8963
 2387TIP3   OH228719   6.504   1.649   8.895  0.1562 -0.2715 -0.4194
 2387TIP3    H128720   6.428   1.610   8.939  0.7290 -0.3640  0.5217
 2387TIP3    H228721   6.580   1.615   8.943  0.6939  1.8227  0.3184
 2388TIP3   OH228722   1.126   4.838   1.393  0.4020  0.0257  0.1506
 2388TIP3    H128723   1.221   4.836   1.396  0.5080 -1.2596 -1.9447
 2388TIP3    H228724   1.104   4.917   1.343  0.4850 -0.4717 -0.7085
 2389TIP3   OH228725   4.570   5.410   1.276  0.3284  0.0917  0.2861
 2389TIP3    H128726   4.626   5.343   1.236 -0.8550 -0.8827  0.1974
 2389TIP3    H228727   4.556   5.379   1.366 -0.9051 -0.2347 -0.0058
 2390TIP3   OH228728   2.321   5.898   1.362  0.3293  0.6325 -0.3869
 2390TIP3    H128729   2.247   5.900   1.423  0.1187  1.6399 -0.6642
 2390TIP3    H228730   2.296   5.832   1.297 -0.3827  1.0461 -0.5438
 2391TIP3   OH228731   6.735   0.647   8.890 -0.3939 -0.9464  0.5691
 2391TIP3    H128732   6.653   0.694   8.898  0.4000  0.1413  4.1008
 2391TIP3    H228733   6.800   0.715   8.871 -0.1067 -1.7104 -1.5236
 2392TIP3   OH228734   4.883   0.039   2.117  0.5629 -0.4858  0.1764
 2392TIP3    H128735   4.850  -0.045   2.084  0.4819 -1.6231  2.8632
 2392TIP3    H228736   4.804   0.091   2.133  0.4577 -0.7298  0.4779
 2393TIP3   OH228737   6.413   0.823   7.329 -0.8108 -0.8578  0.4315
 2393TIP3    H128738   6.445   0.894   7.273 -2.0772  0.1482  0.9317
 2393TIP3    H228739   6.440   0.848   7.417 -1.3148 -0.9433  0.6159
 2394TIP3   OH228740   4.028   3.308   0.735 -0.4429 -0.0201  0.1466
 2394TIP3    H128741   4.003   3.254   0.659  1.5882  0.9239 -1.2583
 2394TIP3    H228742   4.117   3.335   0.717 -0.7468  2.2847  1.7288
 2395TIP3   OH228743   0.016   5.216   8.786 -0.2476  0.2540 -0.3867
 2395TIP3    H128744   0.061   5.272   8.723  0.3484 -0.4874 -0.6509
 2395TIP3    H228745  -0.064   5.263   8.808  0.5161  1.4789 -0.1318
 2396TIP3   OH228746   4.138   6.657   6.468  0.1663  0.4100  0.6593
 2396TIP3    H128747   4.065   6.635   6.410  0.2658  0.4989  0.5016
 2396TIP3    H228748   4.154   6.576   6.518  0.9891 -0.1046 -0.4095
 2397TIP3   OH228749   5.998   0.203   8.205 -0.7561 -0.0490 -0.8733
 2397TIP3    H128750   5.955   0.144   8.266 -0.3161  0.3323 -0.1769
 2397TIP3    H228751   5.927   0.249   8.160 -1.0957  0.7459  0.4335
 2398TIP3   OH228752   6.210   2.278   6.021  0.6213  0.0742  0.8307
 2398TIP3    H128753   6.285   2.290   5.963  0.5244  1.7038  0.9860
 2398TIP3    H228754   6.143   2.239   5.965  1.0033  0.2897  0.2108
 2399TIP3   OH228755   1.005   0.030   6.139  0.1939 -0.0884 -0.1908
 2399TIP3    H128756   0.930   0.070   6.181  0.5207  0.0494  0.2695
 2399TIP3    H228757   0.979  -0.061   6.124  0.2007 -0.2299  0.6246
 2400TIP3   OH228758   4.954   2.652   0.677  0.4120  0.1259  0.0117
 2400TIP3    H128759   4.969   2.559   0.696 -0.5145  0.1383  0.9561
 2400TIP3    H228760   4.980   2.663   0.586  0.4522 -1.0903 -0.1410
 2401TIP3   OH228761   2.731   0.660   7.015  0.1234 -0.2652  0.1514
 2401TIP3    H128762   2.820   0.696   7.016 -0.9607  2.7253  1.3403
 2401TIP3    H228763   2.725   0.612   6.933  2.8773 -0.7723  0.1518
 2402TIP3   OH228764   1.017   6.514   8.838  0.0174  0.4443 -0.0086
 2402TIP3    H128765   1.028   6.531   8.745 -0.6165  0.1969 -0.1339
 2402TIP3    H228766   1.091   6.559   8.880 -0.4621  1.7188 -0.5006
 2403TIP3   OH228767   3.415   5.056   7.214 -0.0337  0.6178 -0.4881
 2403TIP3    H128768   3.478   5.068   7.285  0.4606 -0.8045 -0.6445
 2403TIP3    H228769   3.330   5.075   7.254  0.4123  1.7568 -0.0574
 2404TIP3   OH228770   4.135   0.262   1.842  0.6880  0.2971 -0.4896
 2404TIP3    H128771   4.048   0.226   1.861  0.5439  0.4247 -0.9090
 2404TIP3    H228772   4.196   0.196   1.877  0.4242  0.1102 -0.3789
 2405TIP3   OH228773   0.991   5.259   6.899  0.0261  0.0307  0.4867
 2405TIP3    H128774   0.920   5.323   6.891  0.4372  0.3566 -0.8239
 2405TIP3    H228775   1.066   5.309   6.930  0.2263  0.1215 -0.1147
 2406TIP3   OH228776   1.097   2.629   0.193 -0.2488  0.4046 -0.4608
 2406TIP3    H128777   1.168   2.615   0.130  0.1287  0.9097 -0.1496
 2406TIP3    H228778   1.093   2.724   0.204 -2.0304  0.5259 -1.6813
 2407TIP3   OH228779   5.723   4.006   7.144  0.4917  0.2171  0.4659
 2407TIP3    H128780   5.776   3.951   7.087 -0.3915 -0.9461  0.7198
 2407TIP3    H228781   5.664   4.052   7.084  0.0294 -0.4883  0.3565
 2408TIP3   OH228782   0.560   2.971   7.793  0.1226  0.5243  0.0662
 2408TIP3    H128783   0.625   2.945   7.727 -0.6452 -0.5732 -0.3021
 2408TIP3    H228784   0.571   3.066   7.802  1.0912  0.5034 -0.7250
 2409TIP3   OH228785   3.957   5.891   0.836 -0.1563  0.0386 -0.2636
 2409TIP3    H128786   3.998   5.853   0.758  1.6074 -0.0595  0.6418
 2409TIP3    H228787   4.022   5.878   0.905 -1.1862  1.1527  0.9673
 2410TIP3   OH228788   2.730   2.484   1.903  0.8800  0.3831 -0.7653
 2410TIP3    H128789   2.771   2.559   1.861 -1.3068  1.7705 -0.6010
 2410TIP3    H228790   2.745   2.497   1.996 -0.7294  1.4820 -0.6174
 2411TIP3   OH228791   0.797   1.435   8.006  0.2878 -0.4261  0.1619
 2411TIP3    H128792   0.768   1.446   8.096 -4.3172  1.8207 -1.2791
 2411TIP3    H228793   0.741   1.365   7.971  0.0590  0.5614 -1.5602
 2412TIP3   OH228794   1.141   6.646   0.633 -0.0433  0.9599 -0.0942
 2412TIP3    H128795   1.193   6.616   0.708  0.8452 -0.2641 -1.1668
 2412TIP3    H228796   1.063   6.591   0.635  0.5575  0.0509 -0.7623
 2413TIP3   OH228797   2.609   3.523   7.036 -0.5049 -0.1675 -0.0496
 2413TIP3    H128798   2.567   3.463   6.974  1.5011 -0.5075 -1.1591
 2413TIP3    H228799   2.595   3.482   7.121 -0.7359 -1.2716 -0.5969
 2414TIP3   OH228800   2.407   3.518   1.155 -0.2816  0.7006  0.2599
 2414TIP3    H128801   2.340   3.458   1.188  1.3280 -1.5307 -0.2260
 2414TIP3    H228802   2.390   3.525   1.061  0.2175 -0.0177  0.1027
 2415TIP3   OH228803   3.588   0.516   2.202 -0.8195  0.3068  0.5929
 2415TIP3    H128804   3.513   0.457   2.195 -1.3678  1.1299 -1.0583
 2415TIP3    H228805   3.635   0.485   2.279 -1.4035 -1.9030  0.1561
 2416TIP3   OH228806   0.484   0.372   0.133 -0.1468  0.6451 -0.3792
 2416TIP3    H128807   0.453   0.287   0.166 -0.5985  0.3021 -1.6181
 2416TIP3    H228808   0.527   0.413   0.208 -0.6338 -0.3359  0.4617
 2417TIP3   OH228809   6.375   1.165   8.319  0.4099 -0.0723 -0.0650
 2417TIP3    H128810   6.444   1.118   8.272  2.3599  1.3684  1.1892
 2417TIP3    H228811   6.306   1.178   8.254  2.0488 -0.0912 -1.9133
 2418TIP3   OH228812   2.631   1.681   7.226 -0.1622 -0.1951 -0.1210
 2418TIP3    H128813   2.579   1.761   7.220 -0.4764 -0.4932 -2.0553
 2418TIP3    H228814   2.715   1.703   7.187  0.6919 -0.1234  1.6812
 2419TIP3   OH228815   3.388   6.768   8.908  0.4055  0.2812  0.4454
 2419TIP3    H128816   3.353   6.690   8.865 -1.1118  1.5679 -0.7713
 2419TIP3    H228817   3.312   6.809   8.949  1.1100  1.3540  0.7218
 2420TIP3   OH228818   2.440   2.866   1.954 -0.4537  0.4165  0.5100
 2420TIP3    H128819   2.422   2.811   1.878  0.5924  0.5085  0.1715
 2420TIP3    H228820   2.367   2.851   2.013 -1.8287  1.1121 -0.9398
 2421TIP3   OH228821   4.176   1.892   7.531 -0.1129  0.8398 -0.5580
 2421TIP3    H128822   4.178   1.982   7.500 -1.4641  0.9836 -0.3070
 2421TIP3    H228823   4.146   1.841   7.456  1.4367  0.4548 -0.9508
 2422TIP3   OH228824   6.546   3.043   8.839 -0.0010  0.3980  0.2048
 2422TIP3    H128825   6.544   3.023   8.745 -3.2007 -0.1760  0.2962
 2422TIP3    H228826   6.639   3.059   8.858  0.9711 -1.1405 -2.6768
 2423TIP3   OH228827   5.826   2.702   1.129  0.9378  0.1758  0.3854
 2423TIP3    H128828   5.842   2.611   1.153  2.6231  0.2386 -0.3653
 2423TIP3    H228829   5.750   2.727   1.181 -1.1916 -2.3804 -1.2205
 2424TIP3   OH228830   1.940   1.354   7.637 -0.5054  0.4929  0.3667
 2424TIP3    H128831   1.935   1.449   7.648  3.0696  1.0056 -1.0905
 2424TIP3    H228832   2.022   1.330   7.680  0.1887 -1.4309 -1.8533
 2425TIP3   OH228833   3.302   2.198   0.835 -0.3652 -0.7593 -0.2795
 2425TIP3    H128834   3.305   2.288   0.803 -0.3608 -0.9620 -0.8746
 2425TIP3    H228835   3.216   2.166   0.807 -0.1949 -1.0743 -0.4541
 2426TIP3   OH228836   0.587   0.782   8.064 -0.0970  0.5868 -0.0972
 2426TIP3    H128837   0.610   0.865   8.106  0.5904  0.2490  0.2198
 2426TIP3    H228838   0.580   0.720   8.136 -1.0191  0.4525 -0.2936
 2427TIP3   OH228839   4.418   0.230   1.614  0.0427 -0.2251  0.3215
 2427TIP3    H128840   4.396   0.164   1.549  0.3056 -0.3987  0.4058
 2427TIP3    H228841   4.494   0.194   1.660 -0.0260 -0.0204  0.5991
 2428TIP3   OH228842   3.427   3.426   0.950  0.4186 -0.8007 -0.4698
 2428TIP3    H128843   3.481   3.481   0.894  0.7507  2.7118  2.8511
 2428TIP3    H228844   3.337   3.441   0.920  0.6086  0.8487 -0.3121
 2429TIP3   OH228845   2.801   4.701   2.229 -0.3124  0.1526 -0.1894
 2429TIP3    H128846   2.717   4.682   2.188  0.6679  0.0546 -2.2500
 2429TIP3    H228847   2.816   4.627   2.288 -1.2980 -0.2177 -0.3865
 2430TIP3   OH228848   0.360   6.320   2.325 -0.3089 -0.1689 -0.7946
 2430TIP3    H128849   0.386   6.370   2.248  1.2801  0.4234  0.0906
 2430TIP3    H228850   0.439   6.273   2.351 -0.8856 -0.5326  0.3455
 2431TIP3   OH228851   2.053   3.532   7.626 -0.0803 -0.3730  0.4620
 2431TIP3    H128852   2.126   3.475   7.648 -0.4260 -0.4952  1.3426
 2431TIP3    H228853   2.008   3.547   7.709 -1.7259 -1.2222 -0.2118
 2432TIP3   OH228854   5.806   3.653   7.265  0.4522 -0.0742  0.0246
 2432TIP3    H128855   5.845   3.590   7.326  1.5467 -0.0326 -0.6160
 2432TIP3    H228856   5.860   3.732   7.274 -1.3372  1.0952  1.3650
 2433TIP3   OH228857   5.210   6.512   8.045  0.3551  0.0164 -0.0355
 2433TIP3    H128858   5.265   6.561   7.983 -1.5946  0.9344 -1.1156
 2433TIP3    H228859   5.221   6.558   8.128 -0.8259  1.8926 -0.8551
 2434TIP3   OH228860   4.628   2.598   2.136 -0.2235  0.3195 -0.0068
 2434TIP3    H128861   4.550   2.628   2.182 -0.0320 -0.0027  0.5367
 2434TIP3    H228862   4.649   2.513   2.176  0.9993  0.8714  0.5882
 2435TIP3   OH228863   3.501   6.423   0.141 -0.4517  0.5852 -0.4257
 2435TIP3    H128864   3.483   6.338   0.181  0.5447  0.0321 -1.1091
 2435TIP3    H228865   3.416   6.466   0.138 -1.0821 -0.6190 -0.5960
 2436TIP3   OH228866   0.838   5.581   0.467  0.0661 -0.4145  0.5012
 2436TIP3    H128867   0.861   5.502   0.514  0.4480  0.1332  1.2505
 2436TIP3    H228868   0.888   5.650   0.510 -2.3777  0.7182  1.7246
 2437TIP3   OH228869   0.530   0.614   7.108  0.2916  0.4612 -0.4201
 2437TIP3    H128870   0.564   0.693   7.065  2.0403 -0.8523 -1.6462
 2437TIP3    H228871   0.601   0.549   7.097 -1.1918 -1.3656  0.2449
 2438TIP3   OH228872   0.803   6.655   1.768 -0.7403  0.3819 -0.3572
 2438TIP3    H128873   0.745   6.613   1.831 -2.2505 -2.0583 -3.1353
 2438TIP3    H228874   0.891   6.643   1.803 -1.5989  1.4322  2.4435
 2439TIP3   OH228875   4.348   5.045   2.131  0.3954 -0.1380  1.0127
 2439TIP3    H128876   4.413   5.084   2.190 -0.0101  0.6269  0.9680
 2439TIP3    H228877   4.366   4.951   2.134  1.6551  0.0784  0.8306
 2440TIP3   OH228878   0.904   0.399   1.821 -0.7732  0.5142 -0.1650
 2440TIP3    H128879   0.920   0.449   1.901  0.3179 -0.5714  0.3261
 2440TIP3    H228880   0.813   0.370   1.829 -0.4499 -0.2261  1.0796
 2441TIP3   OH228881   5.459   4.975   1.315 -0.1633 -0.3802 -0.2955
 2441TIP3    H128882   5.471   4.934   1.229 -0.8177  0.0540 -0.6017
 2441TIP3    H228883   5.368   4.957   1.337 -0.2069  0.1469 -0.0312
 2442TIP3   OH228884   6.701   0.835   0.223  0.0519 -0.0637  0.1988
 2442TIP3    H128885   6.615   0.857   0.188 -0.6646 -1.3646  1.0607
 2442TIP3    H228886   6.721   0.907   0.284 -0.0618  0.6363 -0.5787
 2443TIP3   OH228887   4.437   6.277   7.782 -0.2566  0.3299  0.2930
 2443TIP3    H128888   4.395   6.215   7.722 -1.8910  0.9671  0.7377
 2443TIP3    H228889   4.429   6.236   7.868  2.1877 -0.6394  0.1543
 2444TIP3   OH228890   4.221   4.808   7.435 -0.3848 -0.0267 -0.0210
 2444TIP3    H128891   4.266   4.835   7.354 -0.1384  0.3589  0.2379
 2444TIP3    H228892   4.231   4.713   7.437  0.7381  0.0758  0.1972
 2445TIP3   OH228893   0.647   0.295   0.783 -0.2379  0.4333  0.3858
 2445TIP3    H128894   0.649   0.294   0.879  0.8574 -0.2181  0.3730
 2445TIP3    H228895   0.626   0.205   0.759 -0.9609  0.6905 -0.0018
 2446TIP3   OH228896   4.935   1.059   7.630 -0.1634  0.3869 -0.3246
 2446TIP3    H128897   4.979   1.101   7.556  1.1677 -1.3364 -0.5724
 2446TIP3    H228898   4.919   1.130   7.692  0.4092  1.5456 -1.4544
 2447TIP3   OH228899   0.529   0.240   6.453  0.8792  0.1606 -0.3146
 2447TIP3    H128900   0.572   0.155   6.444 -0.5009 -0.5032 -1.0534
 2447TIP3    H228901   0.556   0.289   6.375  0.1758 -0.3374 -0.8933
 2448TIP3   OH228902   3.451   4.807   8.188 -0.2881  0.3837  0.4433
 2448TIP3    H128903   3.449   4.765   8.103  0.8136  0.7629  0.2146
 2448TIP3    H228904   3.532   4.776   8.229  0.8644  2.6353  0.0458
 2449TIP3   OH228905   1.160   6.664   1.586 -0.5320 -0.4408 -0.5989
 2449TIP3    H128906   1.147   6.642   1.678  1.6992  1.1734  0.1931
 2449TIP3    H228907   1.096   6.733   1.569  0.6425  1.0216  0.5462
 2450TIP3   OH228908   2.697   0.217   0.708  0.4014  0.0137 -0.2797
 2450TIP3    H128909   2.640   0.167   0.649  0.6371  0.5009 -0.9373
 2450TIP3    H228910   2.778   0.229   0.658  1.0094 -0.4878  0.5638
 2451TIP3   OH228911   2.189   5.746   7.560  0.1288 -0.1734 -0.2590
 2451TIP3    H128912   2.204   5.716   7.650  0.3167  1.3819  0.2673
 2451TIP3    H228913   2.116   5.694   7.529  1.3858 -2.2222  0.0257
 2452TIP3   OH228914   4.496   6.327   1.009  0.1911  0.1319  0.1197
 2452TIP3    H128915   4.560   6.394   1.032  1.1793  0.3412 -2.7873
 2452TIP3    H228916   4.548   6.252   0.982 -0.8715 -0.8350  0.6653
 2453TIP3   OH228917   0.913   2.151   7.973 -0.4924  0.0802  0.7778
 2453TIP3    H128918   0.895   2.223   7.913 -1.4867 -0.6226  0.1917
 2453TIP3    H228919   1.000   2.169   8.008  0.0666  0.5721 -0.7947
 2454TIP3   OH228920   4.630   6.357   2.261  0.6433  0.3499 -0.0243
 2454TIP3    H128921   4.554   6.304   2.238  1.3551  0.0887 -2.0414
 2454TIP3    H228922   4.598   6.447   2.258  0.1339  0.1890  0.3953
 2455TIP3   OH228923   0.419   0.292   8.797 -0.0945 -0.6823  0.4843
 2455TIP3    H128924   0.482   0.239   8.747  0.0141 -1.3001  1.2528
 2455TIP3    H228925   0.469   0.324   8.872 -0.2029  0.4071  0.1055
 2456TIP3   OH228926   0.443   2.216   1.823  0.1318 -0.4798  0.2603
 2456TIP3    H128927   0.453   2.205   1.728 -0.3119 -0.2336  0.1815
 2456TIP3    H228928   0.530   2.244   1.853  0.1888 -0.2310 -0.1261
 2457TIP3   OH228929   0.410   3.640   7.022  0.3042  0.3075 -0.4927
 2457TIP3    H128930   0.427   3.671   6.933 -2.0541 -0.1722 -1.1909
 2457TIP3    H228931   0.455   3.555   7.026  4.0101  2.1172  0.3213
 2458TIP3   OH228932   4.669   6.376   0.347  0.3169 -0.5635 -0.3018
 2458TIP3    H128933   4.706   6.298   0.387  0.9105 -0.1047  0.0567
 2458TIP3    H228934   4.659   6.438   0.420 -2.4023 -1.0982 -0.1000
 2459TIP3   OH228935   5.820   3.424   1.400  0.1563  1.1005  0.0219
 2459TIP3    H128936   5.799   3.422   1.307  1.0810  2.4238 -0.2621
 2459TIP3    H228937   5.735   3.424   1.445 -0.3543 -3.1350 -0.5897
 2460TIP3   OH228938   0.304   2.708   7.267  0.0665 -0.4966 -0.3001
 2460TIP3    H128939   0.225   2.673   7.226 -0.0041  1.8346 -2.4122
 2460TIP3    H228940   0.371   2.642   7.250 -1.0123 -1.6790 -0.0745
 2461TIP3   OH228941   4.906   2.998   8.502 -0.0904  0.1660 -0.6113
 2461TIP3    H128942   4.857   2.945   8.439 -0.6111 -1.1013  0.7869
 2461TIP3    H228943   4.863   2.981   8.586 -0.0514  2.5683 -0.0236
 2462TIP3   OH228944   5.470   3.682   7.442  0.7067 -0.2177  0.0695
 2462TIP3    H128945   5.451   3.593   7.471 -0.5380  1.0218  3.5859
 2462TIP3    H228946   5.560   3.698   7.471  0.7931 -0.1751 -0.2131
 2463TIP3   OH228947   1.917   3.364   7.937 -0.2421  0.4279  0.2162
 2463TIP3    H128948   1.858   3.346   8.011 -1.1406  1.0267 -0.3299
 2463TIP3    H228949   1.923   3.459   7.934  3.0190  0.3905  1.9614
 2464TIP3   OH228950   3.628   3.223   1.470 -0.1069  0.2512 -0.1308
 2464TIP3    H128951   3.598   3.174   1.547 -0.6805 -1.7533 -1.5666
 2464TIP3    H228952   3.718   3.248   1.491 -0.2251 -0.3219  1.1560
 2465TIP3   OH228953   1.278   5.647   7.946  0.5177  0.0131  0.1142
 2465TIP3    H128954   1.315   5.594   7.875 -0.5181  1.2212 -1.3944
 2465TIP3    H228955   1.251   5.584   8.012  0.5119 -1.2339 -1.0426
 2466TIP3   OH228956   5.489   5.430   0.453  0.5827 -0.0323  0.0030
 2466TIP3    H128957   5.407   5.420   0.403  1.2760 -0.7028 -1.0362
 2466TIP3    H228958   5.558   5.428   0.387  1.5917 -1.6376  1.0309
 2467TIP3   OH228959   0.235   1.577   8.150 -0.0600  0.7663 -0.3044
 2467TIP3    H128960   0.197   1.490   8.161  0.4769  0.6326  0.5108
 2467TIP3    H228961   0.300   1.567   8.080  0.2626  0.4345  0.0469
 2468TIP3   OH228962   0.744   4.925   1.873  0.0042 -0.0020  0.7354
 2468TIP3    H128963   0.826   4.935   1.921  2.2509 -0.8762 -2.5694
 2468TIP3    H228964   0.740   4.833   1.849 -0.2456  0.5782 -1.7915
 2469TIP3   OH228965   4.852   4.053   7.438  0.5118 -0.0477 -0.1809
 2469TIP3    H128966   4.844   3.963   7.471  0.1778 -0.0430 -0.2447
 2469TIP3    H228967   4.768   4.071   7.397  0.7021  0.1696 -0.4856
 2470TIP3   OH228968   0.001   1.070   7.451  0.0465  0.0877  0.6613
 2470TIP3    H128969   0.071   1.005   7.443 -0.5572 -0.4901 -0.0720
 2470TIP3    H228970  -0.079   1.018   7.462 -0.2657  0.7421  1.6368
 2471TIP3   OH228971   2.195   6.034   1.088  0.2385 -0.1838  0.2617
 2471TIP3    H128972   2.266   5.975   1.061 -0.0367 -0.9170  1.0991
 2471TIP3    H228973   2.225   6.071   1.171  0.1246  0.3800  0.0587
 2472TIP3   OH228974   0.104   1.140   1.717 -0.0202  0.2120  0.1782
 2472TIP3    H128975   0.145   1.158   1.802  2.3126 -1.0682 -0.5979
 2472TIP3    H228976   0.045   1.067   1.735 -0.2787  0.5790  0.8779
 2473TIP3   OH228977   0.624   3.887   1.254  0.2879  0.3169 -0.4714
 2473TIP3    H128978   0.644   3.971   1.296  0.2171  0.7227 -1.2360
 2473TIP3    H228979   0.710   3.848   1.237  0.3116  0.0013  0.3307
 2474TIP3   OH228980   3.362   3.573   6.300 -0.4747  0.1336 -0.2335
 2474TIP3    H128981   3.370   3.576   6.395 -2.7104  0.5467  0.0025
 2474TIP3    H228982   3.293   3.636   6.280  0.9700  1.1700 -2.3037
 2475TIP3   OH228983   6.153   3.420   8.691 -0.1492 -0.3197  0.4090
 2475TIP3    H128984   6.085   3.487   8.695  0.1237 -0.0991  2.2172
 2475TIP3    H228985   6.116   3.345   8.738  0.6745 -0.3426  1.0478
 2476TIP3   OH228986   0.931   1.504   7.459 -0.6445 -0.7820  0.5378
 2476TIP3    H128987   0.909   1.561   7.532 -0.1770  0.0907  0.0064
 2476TIP3    H228988   0.965   1.562   7.391  1.4009 -1.8320  0.5819
 2477TIP3   OH228989   2.956   3.372   8.199 -0.1527  0.5775  0.4749
 2477TIP3    H128990   2.903   3.372   8.278 -0.1242 -0.8307  0.5313
 2477TIP3    H228991   2.899   3.331   8.133  0.5976 -0.2953  0.3549
 2478TIP3   OH228992   3.223   0.621   8.786 -0.0778  0.1846 -0.9938
 2478TIP3    H128993   3.284   0.694   8.804  0.0825 -0.1447 -0.1314
 2478TIP3    H228994   3.182   0.604   8.871  0.6377 -1.4046 -0.9395
 2479TIP3   OH228995   3.750   4.983   0.210  0.2193 -0.4720  0.5441
 2479TIP3    H128996   3.680   5.043   0.236 -0.5493 -0.9160 -0.4474
 2479TIP3    H228997   3.830   5.025   0.242 -0.4231  0.4119  1.0430
 2480TIP3   OH228998   0.300   2.790   0.806 -0.0940  0.0825 -0.5550
 2480TIP3    H128999   0.387   2.801   0.768 -0.6617  1.4788 -1.5661
 2480TIP3    H229000   0.273   2.879   0.829 -1.5888 -0.2160 -1.0577
 2481TIP3   OH229001   3.198   5.918   8.006 -0.0577  0.6982 -0.3393
 2481TIP3    H129002   3.135   5.929   7.935  0.4629 -0.2043 -0.9651
 2481TIP3    H229003   3.280   5.897   7.962  0.5315  1.2112  0.4914
 2482TIP3   OH229004   5.603   6.703   1.855 -0.3556 -0.4025 -0.2252
 2482TIP3    H129005   5.520   6.732   1.894 -0.5066 -0.9329 -0.1412
 2482TIP3    H229006   5.661   6.779   1.862 -0.7579 -0.1067 -0.0587
 2483TIP3   OH229007   1.929   3.413   0.723  0.1991  0.2290  0.6059
 2483TIP3    H129008   1.980   3.459   0.657 -0.2418 -0.7472 -0.4537
 2483TIP3    H229009   1.991   3.395   0.793  0.7955  0.8701  0.2589
 2484TIP3   OH229010   6.046   2.718   7.351 -0.2312 -0.5707  0.0820
 2484TIP3    H129011   5.996   2.790   7.391 -1.0815 -1.3540  0.4570
 2484TIP3    H229012   6.137   2.735   7.377 -0.6496 -0.5932  1.6653
 2485TIP3   OH229013   4.165   6.099   1.985  0.0755 -0.3123 -0.1027
 2485TIP3    H129014   4.145   6.059   1.900 -1.0449 -1.3621  0.6180
 2485TIP3    H229015   4.258   6.118   1.982  0.3577 -1.7099 -1.0223
 2486TIP3   OH229016   4.413   2.617   7.728 -0.5644 -0.3197 -0.0148
 2486TIP3    H129017   4.366   2.534   7.718 -1.2766  0.2555 -2.0608
 2486TIP3    H229018   4.346   2.684   7.715  0.0435  0.6006  1.3692
 2487TIP3   OH229019   3.636   4.332   2.301  0.1279 -0.3842 -0.1625
 2487TIP3    H129020   3.689   4.306   2.226  2.1262  1.3134  0.5650
 2487TIP3    H229021   3.575   4.396   2.265  0.8394  0.1607 -0.4269
 2488TIP3   OH229022   5.245   2.430   0.385 -0.0766 -0.3399  0.1013
 2488TIP3    H129023   5.332   2.468   0.401  0.6431 -2.1124  0.5644
 2488TIP3    H229024   5.185   2.505   0.393  1.3954  0.9513 -0.3692
 2489TIP3   OH229025   3.362   6.545   2.152 -0.1442 -0.3148  0.2558
 2489TIP3    H129026   3.315   6.529   2.234 -1.5451  0.0255 -0.4492
 2489TIP3    H229027   3.454   6.538   2.175 -0.5033  0.1325  1.9329
 2490TIP3   OH229028   4.191   0.146   2.543  0.6178 -0.3172  0.5482
 2490TIP3    H129029   4.140   0.227   2.538  2.1491  0.5823 -2.3606
 2490TIP3    H229030   4.125   0.078   2.559 -1.1627  1.0974 -0.3596
 2491TIP3   OH229031   0.613   3.098   1.932  0.2345  1.2267 -0.2747
 2491TIP3    H129032   0.558   3.169   1.898 -1.8348  0.7449  1.7433
 2491TIP3    H229033   0.639   3.128   2.019  2.8372  1.1920 -0.9746
 2492TIP3   OH229034   1.663   0.262   7.638 -0.5067  0.3179 -0.5992
 2492TIP3    H129035   1.641   0.284   7.547  3.6636 -0.5476 -2.0260
 2492TIP3    H229036   1.686   0.169   7.635  0.0177  0.3548  1.2991
 2493TIP3   OH229037   2.443   4.757   8.099  0.2557 -0.7897  0.0981
 2493TIP3    H129038   2.430   4.813   8.023 -0.1742 -0.8855  0.0988
 2493TIP3    H229039   2.396   4.676   8.078  0.2643 -0.8755  0.3996
 2494TIP3   OH229040   4.133   0.823   1.631 -0.7232 -0.1480  0.4292
 2494TIP3    H129041   4.162   0.738   1.664  2.1332  0.2861 -0.6917
 2494TIP3    H229042   4.127   0.812   1.536 -1.9592  0.4810  0.4156
 2495TIP3   OH229043   5.527   2.362   0.212 -0.2250  0.2372  0.1817
 2495TIP3    H129044   5.558   2.280   0.250 -0.5035  0.0714  0.0529
 2495TIP3    H229045   5.561   2.430   0.270  0.3313  0.0561  0.0756
 2496TIP3   OH229046   2.441   5.147   7.930  0.4752  0.1335  0.0235
 2496TIP3    H129047   2.516   5.185   7.883 -0.4598  2.3580  0.1845
 2496TIP3    H229048   2.446   5.185   8.017 -0.9231  0.4769 -0.0238
 2497TIP3   OH229049   2.767   2.707   2.964  0.2692 -0.4428 -0.0284
 2497TIP3    H129050   2.824   2.671   2.897  0.0848 -0.7861 -0.0047
 2497TIP3    H229051   2.825   2.723   3.039  0.3198 -0.9018  0.0385
 2498TIP3   OH229052   2.512   1.219   1.115  0.2449 -0.5938 -0.2250
 2498TIP3    H129053   2.578   1.150   1.110  0.1670 -0.6825 -0.0585
 2498TIP3    H229054   2.524   1.270   1.035  0.7373 -0.4000 -0.0298
 2499TIP3   OH229055   1.848   4.059   1.072  0.2559 -0.4442 -0.2402
 2499TIP3    H129056   1.816   4.146   1.048 -1.4084 -1.2273 -1.0554
 2499TIP3    H229057   1.829   4.052   1.166 -0.9402 -0.4238 -0.4556
 2500TIP3   OH229058   5.056   1.940   7.398  0.2525 -0.2861  0.1151
 2500TIP3    H129059   5.076   1.964   7.308 -2.7741 -1.1074 -0.8937
 2500TIP3    H229060   4.978   1.992   7.420  0.8040 -0.2524  2.2173
 2501TIP3   OH229061   3.255   2.276   1.162  0.3076 -0.3615  0.3949
 2501TIP3    H129062   3.230   2.331   1.237 -0.3730 -1.5338  1.0551
 2501TIP3    H229063   3.182   2.285   1.101  0.2339 -0.4617  0.4677
 2502TIP3   OH229064   0.691   1.444   0.185  0.1688 -0.4183  0.3532
 2502TIP3    H129065   0.605   1.473   0.156  0.2128 -2.6052 -2.4545
 2502TIP3    H229066   0.674   1.372   0.245  0.1102  1.3544  2.5756
 2503TIP3   OH229067   0.942   4.207   7.798 -0.2386  0.0634  0.0020
 2503TIP3    H129068   0.975   4.235   7.713 -0.5845 -0.5985 -0.3552
 2503TIP3    H229069   0.969   4.277   7.858  0.6677  0.1704 -0.5060
 2504TIP3   OH229070   6.421   0.513   7.123 -0.2953 -0.0685 -0.5684
 2504TIP3    H129071   6.392   0.472   7.041 -0.4207  0.8166 -0.9866
 2504TIP3    H229072   6.369   0.594   7.128  1.3645  1.0573 -0.8212
 2505TIP3   OH229073   5.300   1.696   1.413 -0.5783 -0.0752  0.0065
 2505TIP3    H129074   5.249   1.773   1.437  0.9612  1.8004 -2.2623
 2505TIP3    H229075   5.379   1.702   1.467 -0.7262 -0.3832  0.2543
 2506TIP3   OH229076   5.976   2.248   8.282  0.3503 -0.1928 -0.2675
 2506TIP3    H129077   6.070   2.262   8.291  0.1576  0.9649  0.0813
 2506TIP3    H229078   5.942   2.333   8.254 -0.6568 -0.4703  0.0909
 2507TIP3   OH229079   4.526   0.044   7.215 -0.0843 -0.6993 -0.2622
 2507TIP3    H129080   4.504   0.112   7.151  2.9304 -0.3676 -1.0653
 2507TIP3    H229081   4.524  -0.038   7.164 -3.6958 -1.4002  0.6977
 2508TIP3   OH229082   3.392   1.168   1.969 -0.6025  0.2448  0.3876
 2508TIP3    H129083   3.351   1.146   2.053 -0.2682  0.3282  0.5782
 2508TIP3    H229084   3.486   1.163   1.987 -0.5271  0.7982  0.1649
 2509TIP3   OH229085   2.972   2.356   2.040 -0.4273  0.0759 -0.1355
 2509TIP3    H129086   2.940   2.355   1.950  0.5583 -0.5944 -0.4960
 2509TIP3    H229087   2.917   2.420   2.085 -0.3143  1.1154 -1.4476
 2510TIP3   OH229088   1.858   2.161   2.132 -0.2519  0.0294 -0.3181
 2510TIP3    H129089   1.868   2.095   2.064 -1.6670  1.6564 -2.2256
 2510TIP3    H229090   1.938   2.214   2.126  0.8169 -1.3507  1.1167
 2511TIP3   OH229091   4.414   5.332   0.414 -0.3590  0.4015 -0.1999
 2511TIP3    H129092   4.408   5.274   0.339 -0.8964  0.2457 -0.0408
 2511TIP3    H229093   4.350   5.402   0.397 -1.3343 -0.2580  0.6399
 2512TIP3   OH229094   0.131   5.166   1.628  0.3943  0.3615 -0.1839
 2512TIP3    H129095   0.109   5.083   1.671  1.3913 -0.0281 -0.3941
 2512TIP3    H229096   0.093   5.233   1.684 -0.6103 -0.2402 -0.1222
 2513TIP3   OH229097   4.777   2.414   7.475  0.0405  0.0609  0.1520
 2513TIP3    H129098   4.748   2.437   7.387  2.6511 -0.2892 -0.8880
 2513TIP3    H229099   4.747   2.487   7.530 -1.9069  0.1291 -0.9016
 2514TIP3   OH229100   1.157   6.247   0.253 -0.0511  0.3378  0.3333
 2514TIP3    H129101   1.091   6.260   0.185 -1.6168  0.0827  1.7253
 2514TIP3    H229102   1.109   6.203   0.324  1.0091  2.2107  2.3314
 2515TIP3   OH229103   0.217   1.302   7.878  0.2289 -0.0419  0.4572
 2515TIP3    H129104   0.246   1.231   7.935  2.0996 -0.1643 -0.5562
 2515TIP3    H229105   0.298   1.340   7.844 -0.7669 -0.0531 -2.1932
 2516TIP3   OH229106   4.932   1.762   8.190  0.2613 -0.2716  0.2344
 2516TIP3    H129107   4.858   1.781   8.247 -1.2418 -1.2844 -1.2662
 2516TIP3    H229108   4.908   1.803   8.106  0.6016 -1.9701 -0.7489
 2517TIP3   OH229109   0.387   5.876   0.055  0.4771  0.1555  0.1986
 2517TIP3    H129110   0.376   5.953  -0.001 -0.3601 -0.0542  0.0655
 2517TIP3    H229111   0.424   5.810  -0.003 -1.7525 -0.5322 -0.5433
 2518TIP3   OH229112   5.514   0.800   7.144 -0.1870 -0.5009  0.6113
 2518TIP3    H129113   5.545   0.861   7.077  0.1265 -1.6779 -0.3462
 2518TIP3    H229114   5.464   0.855   7.204 -1.8216  0.3940 -1.4106
 2519TIP3   OH229115   3.108   5.633   2.063 -0.6291 -0.0797 -0.2921
 2519TIP3    H129116   3.030   5.686   2.047 -2.1373 -0.9180  3.2965
 2519TIP3    H229117   3.166   5.690   2.113 -0.9487 -0.8134  0.9533
 2520TIP3   OH229118   1.547   0.013   2.121  0.0760  0.2129 -0.2323
 2520TIP3    H129119   1.550   0.036   2.029  1.0967 -0.4566 -0.3817
 2520TIP3    H229120   1.580   0.090   2.167  3.0490 -0.6328 -0.6980
 2521TIP3   OH229121   3.625   0.013   1.292  0.4612  0.0528  0.3963
 2521TIP3    H129122   3.649  -0.061   1.348  1.9581 -0.4008 -0.7811
 2521TIP3    H229123   3.546   0.049   1.333 -0.2810 -2.1485  1.0281
 2522TIP3   OH229124   6.072   3.713   6.394  0.2882 -0.3595 -0.0451
 2522TIP3    H129125   6.109   3.671   6.472 -1.2187 -0.3253  0.7402
 2522TIP3    H229126   6.096   3.805   6.403  0.0637 -0.3413  0.4480
 2523TIP3   OH229127   3.007   0.285   2.678  0.2354  0.6171 -0.0593
 2523TIP3    H129128   3.081   0.323   2.630  1.0369  1.4973  1.7685
 2523TIP3    H229129   2.981   0.354   2.740  0.5054 -1.1098  2.0748
 2524TIP3   OH229130   2.987   6.071   0.732 -0.3795  1.1581 -0.0233
 2524TIP3    H129131   2.991   6.162   0.703  0.7541  1.0840 -0.1403
 2524TIP3    H229132   2.928   6.029   0.670 -0.8793  1.7998  0.0044
 2525TIP3   OH229133   0.716   6.404   2.312  0.2951  0.6814  0.0080
 2525TIP3    H129134   0.679   6.490   2.330 -0.3370  0.1006  1.6850
 2525TIP3    H229135   0.796   6.400   2.363 -0.5577 -0.3121  1.3474
 2526TIP3   OH229136   0.853   1.273   7.549 -0.3757 -0.3418 -0.1145
 2526TIP3    H129137   0.918   1.216   7.508  1.1274  0.4310  1.0833
 2526TIP3    H229138   0.875   1.361   7.519  1.2362  0.3630  2.7064
 2527TIP3   OH229139   3.383   1.418   8.615  0.8238 -0.0259 -0.3407
 2527TIP3    H129140   3.439   1.492   8.592  0.4732  0.7051  1.0530
 2527TIP3    H229141   3.428   1.376   8.689  0.8285 -0.9952 -0.8751
 2528TIP3   OH229142   5.519   4.624   7.397  0.4098 -0.7207  0.9182
 2528TIP3    H129143   5.527   4.550   7.457  1.7015  1.3446  3.5092
 2528TIP3    H229144   5.603   4.629   7.353 -0.3747 -1.9379 -0.8489
 2529TIP3   OH229145   0.375   0.519   8.078  0.7202 -0.2750  0.0715
 2529TIP3    H129146   0.281   0.516   8.063  0.6090  0.4190  0.5782
 2529TIP3    H229147   0.387   0.592   8.140  1.6232 -0.0956 -0.3008
 2530TIP3   OH229148   5.952   2.290   7.048  0.2923  0.2562  0.1749
 2530TIP3    H129149   5.871   2.282   6.998  0.6501  1.5677 -0.6850
 2530TIP3    H229150   5.931   2.254   7.134 -1.2281  0.6607  0.0033
 2531TIP3   OH229151   5.442   2.644   0.116 -0.7619  0.5460  0.1654
 2531TIP3    H129152   5.443   2.665   0.023 -0.0980  0.1857  0.0873
 2531TIP3    H229153   5.485   2.558   0.122  0.1315  1.0251  0.9109
 2532TIP3   OH229154   4.786   4.767   7.305  0.3930 -0.5752  0.3228
 2532TIP3    H129155   4.833   4.788   7.385  0.5241  2.3793 -0.3968
 2532TIP3    H229156   4.811   4.836   7.244 -3.8967  0.5797 -0.4750
 2533TIP3   OH229157   0.688   2.809   7.462 -0.1522  0.0926 -0.4089
 2533TIP3    H129158   0.622   2.849   7.406  1.1049  2.1469 -0.4964
 2533TIP3    H229159   0.746   2.763   7.401  1.3739  2.5518 -0.9463
 2534TIP3   OH229160   3.270   5.028   1.607 -0.1025 -0.0608 -0.3664
 2534TIP3    H129161   3.198   4.976   1.644  0.3730 -0.3638  0.1539
 2534TIP3    H229162   3.230   5.110   1.581 -0.6395 -0.2269 -0.0713
 2535TIP3   OH229163   1.842   3.421   7.515  0.5553  0.0972  0.2576
 2535TIP3    H129164   1.894   3.387   7.443  1.1218  2.0455 -0.3185
 2535TIP3    H229165   1.896   3.489   7.554 -1.4565  2.2093 -0.3472
 2536TIP3   OH229166   3.468   6.211   2.298 -0.3557 -0.4910 -0.2828
 2536TIP3    H129167   3.487   6.129   2.252  0.9786  0.3126 -1.2498
 2536TIP3    H229168   3.374   6.224   2.287 -0.5041 -1.6539 -0.4976
 2537TIP3   OH229169   3.096   6.534   7.732  0.3152 -0.0511 -0.0354
 2537TIP3    H129170   3.089   6.516   7.826 -0.7422 -1.0561 -0.2822
 2537TIP3    H229171   3.086   6.448   7.691 -0.7020  0.5613 -1.1305
 2538TIP3   OH229172   0.584   4.575   7.965  0.1406 -0.2432  0.0770
 2538TIP3    H129173   0.598   4.484   7.939  1.1081 -0.2034  0.4249
 2538TIP3    H229174   0.590   4.575   8.061  0.4636  0.2315  0.0641
 2539TIP3   OH229175   4.366   5.634   0.698 -0.0378 -0.0945 -0.0080
 2539TIP3    H129176   4.428   5.707   0.701  0.6672 -0.7055  0.7241
 2539TIP3    H229177   4.399   5.572   0.762 -2.2251  0.1945  1.5197
 2540TIP3   OH229178   4.837   3.263   6.278 -0.4829  0.5176 -0.0135
 2540TIP3    H129179   4.872   3.239   6.364 -0.6431  2.6768  0.7265
 2540TIP3    H229180   4.903   3.230   6.216  0.3214  0.0995  1.0242
 2541TIP3   OH229181   6.499   2.379   8.092 -0.0982 -0.5470 -0.1676
 2541TIP3    H129182   6.455   2.416   8.015  2.0223 -0.0110 -1.1795
 2541TIP3    H229183   6.525   2.455   8.143 -1.7182 -0.9064  1.2743
 2542TIP3   OH229184   2.518   6.729   5.920 -0.1015  0.6779  0.2081
 2542TIP3    H129185   2.508   6.714   6.014 -0.9376 -0.3919 -0.0339
 2542TIP3    H229186   2.557   6.649   5.886  0.0741  1.0073 -0.3872
 2543TIP3   OH229187   3.747   5.154   6.700 -0.9049  0.1833 -0.0319
 2543TIP3    H129188   3.809   5.088   6.668 -2.0129 -1.0856  0.3554
 2543TIP3    H229189   3.725   5.206   6.623  1.3219  1.2785  0.0001
 2544TIP3   OH229190   3.956   6.160   8.163 -0.0119 -0.4022 -0.2715
 2544TIP3    H129191   4.048   6.150   8.141  0.3019 -1.0050  1.1571
 2544TIP3    H229192   3.910   6.156   8.079  1.2408 -0.2176 -0.9921
 2545TIP3   OH229193   0.814   2.423   8.765 -0.2237  0.1032 -0.2969
 2545TIP3    H129194   0.882   2.395   8.704  0.9463  2.2389 -0.0669
 2545TIP3    H229195   0.858   2.429   8.849 -1.2151 -0.4147  0.2746
 2546TIP3   OH229196   2.409   5.699   7.386  0.4451  0.4473  0.1163
 2546TIP3    H129197   2.459   5.672   7.463  0.9389 -0.9313 -0.6642
 2546TIP3    H229198   2.326   5.730   7.422  0.1778 -1.3221  1.1573
 2547TIP3   OH229199   3.575   2.340   7.162  0.7874 -0.0058  0.2929
 2547TIP3    H129200   3.604   2.390   7.085  0.1124 -1.0521 -0.6762
 2547TIP3    H229201   3.604   2.251   7.145 -0.0464 -0.4076  0.8918
 2548TIP3   OH229202   5.387   6.482   7.748 -0.5945  0.4109 -0.1221
 2548TIP3    H129203   5.400   6.507   7.656  0.0831  0.9545  0.1107
 2548TIP3    H229204   5.409   6.561   7.797  2.3374 -0.7721  0.6870
 2549TIP3   OH229205   0.091   4.523   0.044  0.2848  0.0961  0.8399
 2549TIP3    H129206   0.114   4.572   0.122  1.9707  0.0135  0.4402
 2549TIP3    H229207   0.175   4.507  -0.000 -0.5744 -0.1873 -0.7816
 2550TIP3   OH229208   2.255   2.144   0.344 -0.2918  0.0443  0.2179
 2550TIP3    H129209   2.274   2.084   0.271 -0.0295  0.9035 -0.4381
 2550TIP3    H229210   2.183   2.198   0.312 -0.7210 -0.1092  0.9158
 2551TIP3   OH229211   3.663   0.850   1.101  0.1470 -0.5996  0.0907
 2551TIP3    H129212   3.713   0.912   1.049 -2.4346  3.1919  1.7303
 2551TIP3    H229213   3.595   0.817   1.042  0.4178 -0.4494 -0.3010
 2552TIP3   OH229214   3.659   4.734   0.554  0.0899 -0.6697 -0.1660
 2552TIP3    H129215   3.715   4.805   0.523  1.0840 -1.3556  0.0107
 2552TIP3    H229216   3.575   4.747   0.509  0.1640  0.7666  0.0862
 2553TIP3   OH229217   0.700   6.315   0.561  0.2577 -0.5501  0.7356
 2553TIP3    H129218   0.651   6.243   0.602 -0.8991  0.4234  1.1002
 2553TIP3    H229219   0.640   6.352   0.497  1.3131 -0.7127 -0.3762
 2554TIP3   OH229220   4.025   5.929   2.407 -0.0836 -0.1129  0.5545
 2554TIP3    H129221   4.002   6.016   2.441 -0.3997  0.1293 -0.2687
 2554TIP3    H229222   4.008   5.870   2.480 -1.5313  0.3023  0.5817
 2555TIP3   OH229223   6.626   3.356   7.163  0.6895 -0.5046 -0.6340
 2555TIP3    H129224   6.661   3.408   7.090  2.2256 -1.4279 -0.6010
 2555TIP3    H229225   6.688   3.370   7.234  0.2411 -1.1276 -0.1072
 2556TIP3   OH229226   3.770   1.914   8.114  0.8488 -0.4103  0.1690
 2556TIP3    H129227   3.848   1.912   8.059  1.3266 -0.2253  0.8337
 2556TIP3    H229228   3.761   2.005   8.140  0.7160 -0.5201  0.5165
 2557TIP3   OH229229   1.367   5.039   7.456 -0.5842  0.2991 -0.2473
 2557TIP3    H129230   1.326   5.011   7.538 -1.8774  2.9546  0.1122
 2557TIP3    H229231   1.295   5.040   7.392  0.1027 -0.2987 -1.0487
 2558TIP3   OH229232   5.057   1.386   0.202 -0.0201  0.0309  1.0028
 2558TIP3    H129233   5.013   1.301   0.207 -0.2329  0.1731  1.6768
 2558TIP3    H229234   5.036   1.429   0.285 -0.2079  0.8889  0.5289
 2559TIP3   OH229235   2.045   0.851   0.368 -0.6808  0.5720 -0.0953
 2559TIP3    H129236   2.110   0.838   0.437 -0.4253  0.2706 -0.3872
 2559TIP3    H229237   2.097   0.877   0.291 -0.7428 -0.9426 -0.6950
 2560TIP3   OH229238   4.411   3.764   1.824 -0.3440  0.1695 -0.8901
 2560TIP3    H129239   4.469   3.725   1.889 -1.4982 -2.0464 -1.1156
 2560TIP3    H229240   4.323   3.756   1.862 -0.9989 -0.8472 -2.5489
 2561TIP3   OH229241   2.312   1.839   8.831 -1.0384 -0.4154  0.5810
 2561TIP3    H129242   2.302   1.869   8.740 -0.3007 -0.6589  0.4166
 2561TIP3    H229243   2.245   1.771   8.840  0.6666 -2.3576 -0.6632
 2562TIP3   OH229244   1.463   2.469   1.318  0.1648  0.1893  0.3007
 2562TIP3    H129245   1.400   2.444   1.386  0.1268 -0.2155  0.1186
 2562TIP3    H229246   1.545   2.481   1.366  0.4220 -1.2680  0.2728
 2563TIP3   OH229247   0.709   3.477   0.515 -0.3420 -0.3911 -0.1811
 2563TIP3    H129248   0.778   3.481   0.582 -0.7103 -1.3516  0.2749
 2563TIP3    H229249   0.708   3.564   0.476  1.5856 -0.5317 -0.6536
 2564TIP3   OH229250   2.230   0.774   1.788  0.6898  0.3434 -0.1236
 2564TIP3    H129251   2.166   0.712   1.754  0.8706  0.4483 -0.6590
 2564TIP3    H229252   2.258   0.737   1.872  1.4364 -0.7325 -0.8283
 2565TIP3   OH229253   0.540   4.709   0.135 -0.0973  0.4729  0.0360
 2565TIP3    H129254   0.632   4.715   0.109  0.1287 -2.1375  0.0094
 2565TIP3    H229255   0.505   4.797   0.119  2.6329  1.8666  1.1453
 2566TIP3   OH229256   2.148   0.210   8.710 -0.7094  0.0184 -0.4538
 2566TIP3    H129257   2.058   0.200   8.741 -0.4011  0.2271  0.5430
 2566TIP3    H229258   2.158   0.142   8.644 -1.0007 -1.2950  0.8106
 2567TIP3   OH229259   5.052   1.493   0.910  0.7168 -0.1907 -0.8627
 2567TIP3    H129260   5.032   1.487   0.816 -0.0690 -0.7892 -0.6692
 2567TIP3    H229261   5.138   1.451   0.919  1.0066  0.2831 -1.3789
 2568TIP3   OH229262   5.804   5.221   1.964 -0.2722  0.5689 -0.0822
 2568TIP3    H129263   5.898   5.226   1.980 -0.3036  0.1035  0.2670
 2568TIP3    H229264   5.773   5.152   2.023 -0.5830 -0.3910 -1.3373
 2569TIP3   OH229265   0.305   4.451   1.779 -0.1020 -0.3217  0.3071
 2569TIP3    H129266   0.237   4.480   1.840 -0.1367 -0.2275  0.2232
 2569TIP3    H229267   0.376   4.514   1.792 -0.1221 -0.2823  0.2273
 2570TIP3   OH229268   1.448   5.322   7.415  0.3412 -0.0301  1.1690
 2570TIP3    H129269   1.513   5.266   7.372 -1.1842 -0.7978 -0.2433
 2570TIP3    H229270   1.397   5.261   7.469  0.8691  0.5974  2.4124
 2571TIP3   OH229271   2.267   5.769   2.401 -0.2826 -0.9621 -0.0797
 2571TIP3    H129272   2.172   5.773   2.412 -0.0081  0.3200  2.5409
 2571TIP3    H229273   2.287   5.675   2.400 -1.3959 -1.2632  1.8307
 2572TIP3   OH229274   5.708   2.012   2.356  0.2138  0.0506  1.1855
 2572TIP3    H129275   5.749   2.094   2.382  0.1270  0.7344 -0.7026
 2572TIP3    H229276   5.615   2.032   2.352  0.3494  0.4093 -1.0259
 2573TIP3   OH229277   3.768   0.901   2.170 -0.3445  0.1313  0.5044
 2573TIP3    H129278   3.722   0.856   2.240  1.4971 -1.2888  0.8831
 2573TIP3    H229279   3.856   0.916   2.204 -0.0149  1.3162 -0.7566
 2574TIP3   OH229280   3.141   2.956   7.657  0.0391 -0.4704 -0.2529
 2574TIP3    H129281   3.199   2.902   7.710  1.0669  1.2097  0.4298
 2574TIP3    H229282   3.177   2.951   7.568  0.7064 -0.1587 -0.0046
 2575TIP3   OH229283   0.249   1.723   6.920 -0.2761 -0.6854  0.2928
 2575TIP3    H129284   0.231   1.768   6.838 -0.6314  1.0684  1.2712
 2575TIP3    H229285   0.169   1.676   6.941 -0.4069 -0.6135 -0.0472
 2576TIP3   OH229286   5.264   2.821   0.182 -0.0833 -0.5045  1.0437
 2576TIP3    H129287   5.177   2.784   0.199  0.3358 -2.3555 -0.5010
 2576TIP3    H229288   5.322   2.745   0.178  1.3816  0.5932  0.7625
 2577TIP3   OH229289   4.772   1.889   7.973  0.7191 -0.6093 -0.2108
 2577TIP3    H129290   4.763   1.896   7.878 -1.1106 -0.6233 -0.0793
 2577TIP3    H229291   4.691   1.928   8.007  0.9447 -1.3984  1.3096
 2578TIP3   OH229292   4.053   4.940   0.676  0.2963  0.5006  0.3183
 2578TIP3    H129293   4.117   4.962   0.608 -0.6316  2.4765  0.0102
 2578TIP3    H229294   4.084   4.857   0.712  2.0945  0.5601 -0.9424
 2579TIP3   OH229295   5.602   2.421   7.255  0.8205 -0.0537  0.0174
 2579TIP3    H129296   5.564   2.344   7.211 -0.0143  0.0980  0.4691
 2579TIP3    H229297   5.639   2.473   7.183 -0.9002  0.4032 -0.5727
 2580TIP3   OH229298   4.310   1.226   0.191  0.4715 -0.0546 -0.5826
 2580TIP3    H129299   4.390   1.184   0.160 -0.1837  0.5203 -3.2929
 2580TIP3    H229300   4.330   1.319   0.191 -0.4096  0.1802 -2.2228
 2581TIP3   OH229301   2.629   6.636   8.483 -0.1616 -0.4857 -0.1008
 2581TIP3    H129302   2.633   6.541   8.485  0.6165 -0.4698 -0.6386
 2581TIP3    H229303   2.589   6.660   8.567  1.0306 -1.2108  0.7070
 2582TIP3   OH229304   3.201   3.297   8.534  0.2857  0.0892  0.6572
 2582TIP3    H129305   3.294   3.319   8.538  0.4762  0.9911 -3.7338
 2582TIP3    H229306   3.157   3.379   8.552  0.0922 -0.6274  4.2044
 2583TIP3   OH229307   1.256   5.652   8.539  0.6729  0.1185 -0.1535
 2583TIP3    H129308   1.210   5.732   8.566  1.6757  1.5478 -2.4268
 2583TIP3    H229309   1.310   5.629   8.614  0.2348  1.4701  0.6070
 2584TIP3   OH229310   5.446   1.867   1.814  0.3282  0.3014 -0.8696
 2584TIP3    H129311   5.464   1.960   1.829 -1.4898  0.6052 -0.3477
 2584TIP3    H229312   5.377   1.845   1.877  1.3049 -1.6338 -0.4099
 2585TIP3   OH229313   3.130   6.265   2.045  0.3160 -0.3465 -0.2387
 2585TIP3    H129314   3.097   6.316   2.119  0.0869  0.3259 -0.7975
 2585TIP3    H229315   3.153   6.180   2.084  1.9126  0.5837  0.9505
 2586TIP3   OH229316   6.689   1.208   1.478 -0.5016  0.6524  0.1614
 2586TIP3    H129317   6.742   1.163   1.545  0.4965  0.6411 -0.6131
 2586TIP3    H229318   6.601   1.210   1.515 -0.1631 -0.2064  1.0658
 2587TIP3   OH229319   0.835   6.049   1.723 -0.2049 -0.2231 -0.1514
 2587TIP3    H129320   0.759   6.077   1.671  1.0366  1.4025 -1.1811
 2587TIP3    H229321   0.899   6.119   1.711  1.3309 -1.3725  1.0112
 2588TIP3   OH229322   6.195   1.026   0.609 -0.0049  0.2148  0.1375
 2588TIP3    H129323   6.169   1.004   0.698  2.2610 -1.6950  0.4135
 2588TIP3    H229324   6.139   1.100   0.585 -0.0848  1.3810  3.4606
 2589TIP3   OH229325   6.751   5.901   7.719 -0.0654 -0.1349  0.3546
 2589TIP3    H129326   6.752   5.810   7.749 -1.7549 -0.4354 -0.4303
 2589TIP3    H229327   6.668   5.935   7.750 -0.0023  0.7731 -0.4417
 2590TIP3   OH229328   5.202   6.415   7.350  0.2008 -0.5342  0.4801
 2590TIP3    H129329   5.169   6.326   7.342  1.0852 -0.8075 -0.4391
 2590TIP3    H229330   5.125   6.471   7.340 -0.3389 -1.1891  0.9113
 2591TIP3   OH229331   5.228   0.880   6.992  0.0797 -0.3792  0.1538
 2591TIP3    H129332   5.295   0.813   6.980  0.9932  0.7976 -1.7579
 2591TIP3    H229333   5.224   0.926   6.908 -2.4954  0.1912  0.5071
 2592TIP3   OH229334   0.950   0.389   8.841 -0.0578 -0.3934 -0.3286
 2592TIP3    H129335   0.948   0.473   8.887  2.3891 -1.0884  1.2555
 2592TIP3    H229336   1.018   0.399   8.775  0.9649 -1.3806  0.5299
 2593TIP3   OH229337   0.862   1.321   8.357 -0.2450  0.5916  0.4431
 2593TIP3    H129338   0.945   1.326   8.310 -0.8208  0.0429 -0.6851
 2593TIP3    H229339   0.815   1.401   8.332 -1.0180 -0.2373 -0.8933
 2594TIP3   OH229340   6.058   3.168   8.802 -0.0198 -0.2496 -0.7196
 2594TIP3    H129341   6.004   3.089   8.806 -0.1444 -0.1828 -1.0273
 2594TIP3    H229342   6.135   3.141   8.752  1.2867 -0.9477  1.5180
 2595TIP3   OH229343   3.186   6.554   6.837 -0.3873 -0.0357  0.6989
 2595TIP3    H129344   3.225   6.600   6.763  1.0608 -0.3982  1.2022
 2595TIP3    H229345   3.101   6.523   6.804  0.5867 -0.9451 -1.1260
 2596TIP3   OH229346   2.207   0.252   0.477 -0.4594 -0.0592  0.0437
 2596TIP3    H129347   2.221   0.299   0.395  1.8263  0.6752  0.7903
 2596TIP3    H229348   2.263   0.174   0.470 -1.3847 -0.7684  0.3229
 2597TIP3   OH229349   4.614   5.008   7.298  0.1643 -0.6085 -0.4107
 2597TIP3    H129350   4.525   4.978   7.278 -0.2615  0.2389  0.1215
 2597TIP3    H229351   4.665   4.984   7.221 -0.0948 -2.7699  0.0211
 2598TIP3   OH229352   1.146   5.516   0.732 -0.1383 -0.5565 -0.3575
 2598TIP3    H129353   1.229   5.504   0.687 -0.0967  0.9216 -0.7079
 2598TIP3    H229354   1.169   5.514   0.825  0.6634  1.8521 -0.4266
 2599TIP3   OH229355   0.053   1.151   0.075 -0.3570 -0.5524 -0.1060
 2599TIP3    H129356   0.136   1.181   0.113  0.3055 -1.2105 -0.9830
 2599TIP3    H229357   0.038   1.065   0.114 -1.3556  0.1309  1.0864
 2600TIP3   OH229358   6.120   3.465   8.171 -0.2722  0.3335 -0.2123
 2600TIP3    H129359   6.051   3.467   8.104 -2.0624  1.8693  1.5366
 2600TIP3    H229360   6.120   3.375   8.202 -0.2087 -0.1181 -1.4504
 2601TIP3   OH229361   2.649   6.622   0.220 -0.3010 -0.5586 -0.2323
 2601TIP3    H129362   2.673   6.667   0.301  3.2394  2.8694 -2.8038
 2601TIP3    H229363   2.561   6.654   0.201 -0.5679 -0.1672  1.4372
 2602TIP3   OH229364   1.313   1.466   1.279  0.1991  0.4110 -0.9230
 2602TIP3    H129365   1.228   1.460   1.235 -0.5896  0.2409  0.5687
 2602TIP3    H229366   1.298   1.429   1.366  1.2630  2.2589  0.1184
 2603TIP3   OH229367   2.170   0.477   6.967 -0.3331  0.2338 -0.3484
 2603TIP3    H129368   2.169   0.469   7.062  2.3247 -1.6103 -0.3579
 2603TIP3    H229369   2.218   0.558   6.950  0.7586 -0.3379 -0.0742
 2604TIP3   OH229370   4.220   5.811   7.663  0.0466 -0.2316  0.1674
 2604TIP3    H129371   4.258   5.724   7.652  2.3392  0.4089  2.1465
 2604TIP3    H229372   4.209   5.821   7.757 -1.1911  1.2591 -0.0905
 2605TIP3   OH229373   0.998   3.630   8.186 -0.6292  0.3398 -0.0707
 2605TIP3    H129374   1.012   3.670   8.100  0.1093 -0.8473 -0.5419
 2605TIP3    H229375   0.942   3.554   8.167 -0.2536 -0.0732  0.4659
 2606TIP3   OH229376   4.334   4.396   0.405 -0.1989  0.4098  1.1393
 2606TIP3    H129377   4.307   4.410   0.314  0.8050 -1.0745  0.5835
 2606TIP3    H229378   4.359   4.483   0.436  0.9549  0.7178 -0.5168
 2607TIP3   OH229379   2.604   4.751   7.440  0.2972  0.3359 -0.1559
 2607TIP3    H129380   2.671   4.683   7.445 -0.1435 -0.0743  0.1813
 2607TIP3    H229381   2.582   4.756   7.347  0.2193 -0.0924 -0.1610
 2608TIP3   OH229382   5.862   0.969   0.757  0.3762 -0.2311  0.0817
 2608TIP3    H129383   5.808   0.975   0.677  2.6861 -3.0313 -1.9096
 2608TIP3    H229384   5.910   0.887   0.747  3.5806  1.1245  2.6207
 2609TIP3   OH229385   6.624   3.237   1.910 -0.1787 -0.4787  0.3655
 2609TIP3    H129386   6.582   3.235   1.995 -2.3472 -0.2730 -0.6363
 2609TIP3    H229387   6.673   3.319   1.909 -1.4161  0.2930  0.8605
 2610TIP3   OH229388   3.002   2.848   7.157 -0.4553  0.0414 -0.0779
 2610TIP3    H129389   3.052   2.783   7.107 -0.4974  0.4646 -0.6960
 2610TIP3    H229390   2.911   2.818   7.152 -0.6231  0.6707 -1.2475
 2611TIP3   OH229391   3.246   6.506   0.207 -0.0489 -0.0223 -0.1778
 2611TIP3    H129392   3.156   6.538   0.199  0.1315  0.3244 -0.9496
 2611TIP3    H229393   3.247   6.458   0.289 -0.8061  0.4165  0.1030
 2612TIP3   OH229394   1.302   5.636   7.408  0.1296 -0.0905 -0.3519
 2612TIP3    H129395   1.362   5.599   7.344  0.5649 -0.6039  0.3377
 2612TIP3    H229396   1.349   5.711   7.444 -0.7473  1.1768 -1.7403
 2613TIP3   OH229397   3.043   1.961   8.561 -0.5193  0.4753 -0.1256
 2613TIP3    H129398   3.087   2.046   8.568 -1.2582  0.8577 -0.0655
 2613TIP3    H229399   3.089   1.905   8.624 -0.5223  1.0533  0.3992
 2614TIP3   OH229400   3.799   3.809   1.158  0.0758  0.5817 -0.1192
 2614TIP3    H129401   3.716   3.852   1.178 -0.6947 -1.6516  1.8592
 2614TIP3    H229402   3.863   3.855   1.212 -0.2560  0.8752  0.0321
 2615TIP3   OH229403   2.764   0.962   6.937 -0.2423 -0.4841 -0.0758
 2615TIP3    H129404   2.685   0.920   6.973  0.3312 -0.0260  1.8388
 2615TIP3    H229405   2.770   1.045   6.984  0.5251  0.2161 -1.3610
 2616TIP3   OH229406   0.574   2.823   0.741 -0.3577  0.3714 -0.1218
 2616TIP3    H129407   0.665   2.819   0.769 -0.2409  1.9920 -0.1719
 2616TIP3    H229408   0.564   2.748   0.683  0.5145 -0.6863  1.0448
 2617TIP3   OH229409   2.658   3.662   8.789 -0.5270  0.1218  0.6172
 2617TIP3    H129410   2.667   3.735   8.728 -0.7792 -1.7733 -1.8185
 2617TIP3    H229411   2.563   3.653   8.801 -0.6558 -1.4717 -1.2945
 2618TIP3   OH229412   0.812   6.685   2.284 -0.4520  0.2218 -0.1660
 2618TIP3    H129413   0.722   6.701   2.255 -0.2392  2.9495  0.3310
 2618TIP3    H229414   0.842   6.771   2.314  2.1165 -0.7549  0.2910
 2619TIP3   OH229415   2.503   3.046   8.251 -0.1297  0.5933  0.1496
 2619TIP3    H129416   2.515   3.122   8.307  0.0517  0.2368  0.6054
 2619TIP3    H229417   2.590   3.007   8.244 -0.3401  0.0465  0.4791
 2620TIP3   OH229418   0.200   2.293   0.620 -0.1285  0.0731 -0.3648
 2620TIP3    H129419   0.187   2.200   0.601  1.3351 -0.2835  0.2858
 2620TIP3    H229420   0.176   2.337   0.538 -0.1459 -0.9316 -0.9242
 2621TIP3   OH229421   1.015   3.199   8.704  0.0057  0.9818 -0.0750
 2621TIP3    H129422   0.954   3.260   8.745  0.2139  0.7312  0.6341
 2621TIP3    H229423   1.097   3.249   8.697  0.0945  0.8807  0.2334
 2622TIP3   OH229424   6.521   6.674   1.380 -0.3120 -0.5115 -0.3836
 2622TIP3    H129425   6.590   6.738   1.399 -0.6843  0.3322 -1.7203
 2622TIP3    H229426   6.567   6.590   1.378  0.5798 -0.0328 -0.7069
 2623TIP3   OH229427   2.459   4.757   6.848 -0.0843  0.1584 -0.5709
 2623TIP3    H129428   2.511   4.834   6.824  2.1037 -1.2307 -0.5198
 2623TIP3    H229429   2.377   4.794   6.883  1.7646  2.5885  1.6181
 2624TIP3   OH229430   5.475   2.216   6.755 -0.1936 -0.0510 -0.2001
 2624TIP3    H129431   5.515   2.166   6.685  1.4656 -1.2247  1.4827
 2624TIP3    H229432   5.431   2.151   6.809  0.4523  0.4928  1.0310
 2625TIP3   OH229433   3.128   3.581   1.537 -0.2755  0.7749 -0.4150
 2625TIP3    H129434   3.064   3.534   1.483  1.6194 -2.3070 -0.2708
 2625TIP3    H229435   3.211   3.568   1.492  1.6398 -2.9302  3.4365
 2626TIP3   OH229436   2.245   3.041   7.965  0.0151 -0.2501 -0.1056
 2626TIP3    H129437   2.326   2.992   7.976  0.6344  0.6758 -0.4030
 2626TIP3    H229438   2.257   3.120   8.018 -1.4395 -0.9314  1.3170
 2627TIP3   OH229439   1.997   1.849   8.708 -0.0373  0.2393 -0.4594
 2627TIP3    H129440   2.063   1.830   8.642 -1.8960 -2.3424 -1.7457
 2627TIP3    H229441   1.998   1.944   8.716  2.2382  0.4308 -2.0769
 2628TIP3   OH229442   0.307   5.135   8.717  0.8912 -0.0137  0.3952
 2628TIP3    H129443   0.217   5.163   8.705  1.0925  0.1440 -0.8534
 2628TIP3    H229444   0.312   5.050   8.672  1.1878 -0.3898  1.1062
 2629TIP3   OH229445   6.710   6.601   7.790 -0.4707  0.4023 -0.0308
 2629TIP3    H129446   6.806   6.608   7.791 -0.4259  0.2051 -1.2612
 2629TIP3    H229447   6.689   6.581   7.699 -1.7850  1.8729 -0.0845
 2630TIP3   OH229448   0.867   4.342   7.245 -0.2292  0.4314 -0.1705
 2630TIP3    H129449   0.865   4.421   7.299 -1.7368  0.5442 -0.3482
 2630TIP3    H229450   0.915   4.368   7.166  1.1903  0.5228  0.6894
 2631TIP3   OH229451   4.886   2.193   7.781  0.2217 -0.0376 -0.8710
 2631TIP3    H129452   4.954   2.132   7.810 -0.9255  0.0765  2.5353
 2631TIP3    H229453   4.905   2.274   7.828 -3.7497 -0.8830  2.8541
 2632TIP3   OH229454   5.249   0.894   7.982  0.4552 -0.1393  0.3314
 2632TIP3    H129455   5.176   0.836   7.960  0.4113  0.2125 -0.4894
 2632TIP3    H229456   5.316   0.875   7.916  0.1609  1.2344 -0.4047
 2633TIP3   OH229457   5.634   0.234   8.117 -0.3083  0.2918  0.0560
 2633TIP3    H129458   5.571   0.300   8.144 -1.9620 -1.8273  1.7905
 2633TIP3    H229459   5.708   0.283   8.082 -2.7882  2.9435 -1.9343
 2634TIP3   OH229460   0.532   5.920   1.811 -0.2152  0.6963 -0.0952
 2634TIP3    H129461   0.470   5.937   1.883  0.3170  1.3974  0.2108
 2634TIP3    H229462   0.615   5.900   1.855 -0.2206 -0.3143 -0.5009
 2635TIP3   OH229463   3.017   5.307   7.529 -0.7572  0.4775 -0.2981
 2635TIP3    H129464   2.945   5.276   7.474 -0.5516 -0.8004  0.1281
 2635TIP3    H229465   3.047   5.387   7.486 -1.6590  0.3854 -1.1297
 2636TIP3   OH229466   1.130   6.167   7.705 -0.1719 -0.1116  0.1585
 2636TIP3    H129467   1.202   6.104   7.712 -0.0026  0.0441 -0.1171
 2636TIP3    H229468   1.173   6.252   7.708 -0.3508 -0.0159  0.0566
 2637TIP3   OH229469   0.092   0.108   7.703 -0.2026 -0.6151 -0.3707
 2637TIP3    H129470   0.172   0.153   7.731 -0.9667  0.9603 -0.5840
 2637TIP3    H229471   0.052   0.169   7.641 -2.4056 -0.5899  0.9768
 2638TIP3   OH229472   2.598   0.300   8.859 -0.3454 -0.1321 -0.5672
 2638TIP3    H129473   2.656   0.375   8.847 -1.1381  0.6505  0.3543
 2638TIP3    H229474   2.521   0.320   8.805 -0.2322 -0.6479 -0.9230
 2639TIP3   OH229475   1.622   6.534   8.696 -0.0426  0.1411  0.0229
 2639TIP3    H129476   1.597   6.625   8.678  0.7367  0.3454 -0.0420
 2639TIP3    H229477   1.542   6.494   8.729 -0.4749  0.7717 -0.2375
 2640TIP3   OH229478   0.019   3.588   6.710 -0.4150  0.5408  0.2428
 2640TIP3    H129479  -0.042   3.637   6.656 -0.5672  0.5965  0.4667
 2640TIP3    H229480   0.105   3.605   6.671 -0.6262 -0.2448 -0.6169
 2641TIP3   OH229481   4.959   3.721   8.591 -0.5935  0.0896 -0.1864
 2641TIP3    H129482   5.002   3.769   8.662 -0.5610  0.8043 -0.6709
 2641TIP3    H229483   4.910   3.651   8.634  2.8332 -2.2404  0.2853
 2642TIP3   OH229484   4.155   1.082   1.749  0.0218 -0.2600 -0.4952
 2642TIP3    H129485   4.166   0.990   1.726 -1.7586 -0.9266  1.0335
 2642TIP3    H229486   4.073   1.084   1.800 -0.1703  2.2273 -0.8044
 2643TIP3   OH229487   2.524   0.885   7.079  0.0755 -0.5623  0.9906
 2643TIP3    H129488   2.512   0.800   7.036 -1.0989 -1.1971  2.4973
 2643TIP3    H229489   2.565   0.864   7.163  0.5279  0.4479  1.0396
 2644TIP3   OH229490   5.499   5.337   1.136  0.3285  0.0066  0.4647
 2644TIP3    H129491   5.528   5.290   1.214 -1.8178 -0.6980  0.9215
 2644TIP3    H229492   5.500   5.430   1.162  1.0958 -0.0903  0.7977
 2645TIP3   OH229493   4.683   5.229   0.595 -0.3452  0.1167 -0.1310
 2645TIP3    H129494   4.713   5.139   0.585  1.6182  0.8328 -1.0871
 2645TIP3    H229495   4.600   5.233   0.547 -0.1697 -1.0265 -0.5394
 2646TIP3   OH229496   1.063   4.250   7.564  0.9962  0.7497 -0.0818
 2646TIP3    H129497   1.032   4.313   7.498  0.0142  0.3649 -0.0087
 2646TIP3    H229498   1.079   4.170   7.514 -0.1555  0.3292  0.1808
 2647TIP3   OH229499   4.430   5.173   0.142  0.5663  0.5171  0.2308
 2647TIP3    H129500   4.375   5.176   0.064  0.3757 -1.6219  0.2181
 2647TIP3    H229501   4.519   5.188   0.109  0.1488  3.4069  0.1779
 2648TIP3   OH229502   2.063   5.563   1.415  0.4049  0.1826  0.2244
 2648TIP3    H129503   2.081   5.489   1.356  2.4668 -0.4390  1.5079
 2648TIP3    H229504   2.149   5.585   1.452 -0.7758  0.5583  2.9655
 2649TIP3   OH229505   0.515   2.593   7.115 -0.7339  0.4897  0.2288
 2649TIP3    H129506   0.600   2.560   7.088  0.2176  2.0047  1.2053
 2649TIP3    H229507   0.453   2.557   7.051  0.9050  1.0387 -1.7611
 2650TIP3   OH229508   2.547   0.521   7.870  0.1289 -0.1654  0.2744
 2650TIP3    H129509   2.501   0.591   7.825  1.4462  0.0982 -0.6904
 2650TIP3    H229510   2.477   0.465   7.905 -0.9155  0.6798 -0.4292
 2651TIP3   OH229511   3.714   5.998   0.757 -0.3620  0.0745 -0.4187
 2651TIP3    H129512   3.804   5.969   0.764 -1.1203 -2.5628 -0.6852
 2651TIP3    H229513   3.682   5.998   0.848 -0.2338  0.5706 -0.3708
 2652TIP3   OH229514   4.458   6.574   8.151 -0.0989 -0.3036  0.4502
 2652TIP3    H129515   4.507   6.494   8.133  0.1319 -0.0050 -0.2695
 2652TIP3    H229516   4.525   6.638   8.175 -0.1890 -0.0617  0.0645
 2653TIP3   OH229517   4.712   4.084   0.895  0.5649  0.2104 -0.7670
 2653TIP3    H129518   4.733   4.059   0.806  0.1468 -1.1565 -0.5089
 2653TIP3    H229519   4.796   4.088   0.940  0.6587 -0.5492 -0.8708
 2654TIP3   OH229520   6.718   2.202   1.082 -0.0925 -0.5737 -0.2568
 2654TIP3    H129521   6.810   2.198   1.059 -0.1046  0.4547 -0.5243
 2654TIP3    H229522   6.713   2.167   1.171  0.5340 -0.7494 -0.2920
 2655TIP3   OH229523   5.565   6.579   0.060 -0.2818  0.5891  0.2320
 2655TIP3    H129524   5.586   6.501   0.110  1.2953  1.8234  1.5845
 2655TIP3    H229525   5.505   6.629   0.116 -0.2392  0.9688 -0.0505
 2656TIP3   OH229526   3.187   3.089   7.981  0.1465 -0.1242 -0.1746
 2656TIP3    H129527   3.146   3.011   8.017 -0.8472  0.7403  0.6349
 2656TIP3    H229528   3.120   3.127   7.924  0.0542  0.9287  0.6074
 2657TIP3   OH229529   3.437   4.138   8.563  0.4018 -0.2248 -0.1279
 2657TIP3    H129530   3.357   4.129   8.510 -0.9940 -0.0705  1.8507
 2657TIP3    H229531   3.452   4.232   8.566 -0.1528 -0.1530  0.6154
 2658TIP3   OH229532   2.165   5.783   0.361 -0.2327  0.0900 -0.0475
 2658TIP3    H129533   2.086   5.787   0.414 -0.7512 -0.7573 -0.7241
 2658TIP3    H229534   2.201   5.696   0.379 -0.9418 -0.6090 -1.7679
 2659TIP3   OH229535   0.051   4.490   7.511  0.7067 -0.3567  0.4361
 2659TIP3    H129536   0.039   4.565   7.569 -0.5015  0.3863 -0.7155
 2659TIP3    H229537   0.145   4.485   7.498  0.7812  1.3332  0.0897
 2660TIP3   OH229538   6.281   6.213   8.892 -0.6212 -0.0075  0.6420
 2660TIP3    H129539   6.331   6.295   8.900  1.3069 -1.2398  1.8152
 2660TIP3    H229540   6.295   6.186   8.801 -2.0726  1.4065 -0.0477
 2661TIP3   OH229541   3.968   6.398   7.646  0.3150 -0.3007 -0.0614
 2661TIP3    H129542   4.003   6.441   7.723 -0.2154  0.4038 -0.2038
 2661TIP3    H229543   3.887   6.446   7.626 -1.8358 -3.0427  1.4200
 2662TIP3   OH229544   6.331   3.525   7.129 -0.2093 -0.5766  0.2282
 2662TIP3    H129545   6.287   3.536   7.045 -0.9844 -1.0086  0.5602
 2662TIP3    H229546   6.403   3.588   7.127 -0.9948  0.3404 -0.2430
 2663TIP3   OH229547   3.462   1.684   0.373 -0.3267  0.2101  0.1201
 2663TIP3    H129548   3.471   1.605   0.320  2.5196 -0.7431  1.8088
 2663TIP3    H229549   3.404   1.659   0.445  1.1900 -0.6450  1.0795
 2664TIP3   OH229550   5.597   1.943   7.032 -0.5605  0.4451 -0.3438
 2664TIP3    H129551   5.593   1.926   7.126 -1.3196  0.6143 -0.3431
 2664TIP3    H229552   5.506   1.953   7.005 -0.2831  3.6524 -0.4975
 2665TIP3   OH229553   1.750   5.917   6.596 -0.0276  0.0698  0.2519
 2665TIP3    H129554   1.745   5.933   6.690  2.0413  2.5327  0.0709
 2665TIP3    H229555   1.765   6.004   6.558  1.5231 -1.1041 -2.1131
 2666TIP3   OH229556   2.700   3.252   7.034  0.0442  0.2032  0.2131
 2666TIP3    H129557   2.722   3.226   6.945  0.6119  2.3005 -0.3111
 2666TIP3    H229558   2.768   3.315   7.059  0.4662 -1.0703  2.5199
 2667TIP3   OH229559   6.105   5.445   2.068  0.1920 -0.4516  0.3557
 2667TIP3    H129560   6.043   5.417   2.135 -1.3591  0.5617 -0.6182
 2667TIP3    H229561   6.114   5.540   2.081  0.6579 -0.4036 -0.2493
 2668TIP3   OH229562   5.039   1.257   6.752  0.5498  0.7336 -0.2549
 2668TIP3    H129563   5.129   1.287   6.763  0.5774  0.2666  0.9023
 2668TIP3    H229564   4.987   1.338   6.755  0.8854  0.9549 -0.3613
 2669TIP3   OH229565   6.332   2.653   6.679 -0.8521 -0.6459  0.4381
 2669TIP3    H129566   6.306   2.673   6.589 -2.1450 -0.7567  0.7521
 2669TIP3    H229567   6.325   2.737   6.725  0.4631 -0.4485  0.3084
 2670TIP3   OH229568   2.280   2.648   7.888  0.4654 -0.0095 -0.5928
 2670TIP3    H129569   2.278   2.685   7.800  1.1818  0.8421 -0.2668
 2670TIP3    H229570   2.354   2.587   7.886  1.1951  0.8546 -0.2645
 2671TIP3   OH229571   6.566   5.992   1.211 -0.1001  0.6562  0.4292
 2671TIP3    H129572   6.495   5.990   1.274  0.5046  1.4637  1.1523
 2671TIP3    H229573   6.588   5.900   1.196  0.1089  0.4643  1.8101
 2672TIP3   OH229574   6.636   5.869   8.898  0.9384 -0.1776 -0.3554
 2672TIP3    H129575   6.631   5.956   8.939 -0.1023 -0.4391  0.0963
 2672TIP3    H229576   6.655   5.809   8.969  0.6054 -0.4475 -0.4902
 2673TIP3   OH229577   0.653   1.739   8.015 -0.2115 -0.2033  1.2210
 2673TIP3    H129578   0.738   1.703   8.042 -0.2101 -0.5742  0.7443
 2673TIP3    H229579   0.661   1.833   8.030 -0.0540 -0.3435  2.0645
 2674TIP3   OH229580   0.480   1.376   8.367 -0.4885  0.4456 -0.6587
 2674TIP3    H129581   0.481   1.342   8.277  1.7259  1.2393 -0.9970
 2674TIP3    H229582   0.392   1.357   8.399 -0.8452 -1.2728 -2.4552
 2675TIP3   OH229583   0.184   2.056   2.404  0.0034 -0.4232 -0.3421
 2675TIP3    H129584   0.247   2.127   2.412 -0.3249 -0.0375 -1.0760
 2675TIP3    H229585   0.215   2.004   2.330 -0.3875 -0.3764 -0.5444
 2676TIP3   OH229586   1.133   5.285   0.458 -0.4068 -0.1848 -0.4216
 2676TIP3    H129587   1.116   5.207   0.511  2.0282  0.7514  1.9257
 2676TIP3    H229588   1.057   5.341   0.472 -0.8358 -0.9054  0.2041
 2677TIP3   OH229589   5.545   6.065   1.835 -0.6401 -0.4924  0.3731
 2677TIP3    H129590   5.571   6.008   1.907 -0.7640 -0.0835  0.7445
 2677TIP3    H229591   5.456   6.038   1.812 -0.6990 -0.4488  0.5501
 2678TIP3   OH229592   3.617   3.838   0.776 -0.3940 -0.1223  0.4165
 2678TIP3    H129593   3.611   3.742   0.771  1.6060 -0.2741 -0.1142
 2678TIP3    H229594   3.696   3.859   0.726  0.0302  1.6784  1.7426
 2679TIP3   OH229595   5.711   6.271   7.561 -0.1214 -0.2233 -0.0654
 2679TIP3    H129596   5.773   6.219   7.612 -1.0477 -1.7684 -0.4434
 2679TIP3    H229597   5.630   6.267   7.611 -0.4304  0.1679 -0.5260
 2680TIP3   OH229598   1.902   1.141   0.584 -0.1593  0.0160 -0.5041
 2680TIP3    H129599   1.839   1.082   0.625 -0.0164 -0.5054 -1.0268
 2680TIP3    H229600   1.852   1.222   0.570  0.4003  1.1239  2.8630
 2681TIP3   OH229601   5.971   3.485   7.927 -0.1386  0.1300  0.6040
 2681TIP3    H129602   5.881   3.518   7.933 -0.1802 -0.0071  0.7228
 2681TIP3    H229603   6.017   3.551   7.875 -0.1045  0.6106  1.2470
 2682TIP3   OH229604   5.343   0.930   8.480 -0.3765  0.2465 -0.0907
 2682TIP3    H129605   5.303   0.843   8.478 -1.4633  0.7272 -0.2223
 2682TIP3    H229606   5.394   0.934   8.399 -0.8355 -0.0477 -0.4045
 2683TIP3   OH229607   4.459   2.271   1.778 -0.2524 -0.3558  0.3481
 2683TIP3    H129608   4.437   2.314   1.862 -1.0550 -1.3064  0.6407
 2683TIP3    H229609   4.404   2.316   1.714  0.8661  0.8451  0.1922
 2684TIP3   OH229610   1.620   2.684   7.595 -0.0241  0.0725  0.0644
 2684TIP3    H129611   1.650   2.694   7.505  0.5052  1.3496  0.3614
 2684TIP3    H229612   1.700   2.670   7.646 -0.0139  1.9684  0.6554
 2685TIP3   OH229613   2.182   6.737   7.041 -0.0603 -0.4558 -0.1184
 2685TIP3    H129614   2.192   6.663   6.982  1.1745  0.5138 -1.1921
 2685TIP3    H229615   2.090   6.736   7.066 -0.1405 -2.1359 -0.3644
 2686TIP3   OH229616   0.331   2.098   7.393 -0.4942 -0.1871 -0.1208
 2686TIP3    H129617   0.322   2.029   7.328  2.4381 -0.5198 -0.3066
 2686TIP3    H229618   0.302   2.058   7.475  0.7825 -1.5459 -0.3028
 2687TIP3   OH229619   3.561   0.185   8.797  0.3227 -0.0628  0.0939
 2687TIP3    H129620   3.564   0.160   8.705 -1.3124 -0.5700  0.1469
 2687TIP3    H229621   3.493   0.130   8.835 -0.2393  1.3243  1.2119
 2688TIP3   OH229622   1.029   4.100   1.681 -0.2664 -0.2159 -0.7886
 2688TIP3    H129623   1.004   4.168   1.620  1.3972  1.4632  0.3219
 2688TIP3    H229624   0.977   4.118   1.760 -0.1087 -0.4647 -0.6237
 2689TIP3   OH229625   6.057   3.974   0.307  0.1919 -0.6561 -0.4814
 2689TIP3    H129626   5.961   3.966   0.306  0.0876  0.3971 -0.2786
 2689TIP3    H229627   6.075   4.043   0.243  0.8197 -0.9014 -0.5669
 2690TIP3   OH229628   1.430   1.002   1.546  0.2394  0.6011  0.3536
 2690TIP3    H129629   1.523   1.016   1.564  0.0238  0.7686  1.3557
 2690TIP3    H229630   1.394   1.090   1.537  0.1496  0.5387  0.0855
 2691TIP3   OH229631   0.345   4.264   1.305  0.9717 -0.0164 -0.0764
 2691TIP3    H129632   0.392   4.199   1.252  0.8618 -0.2016  0.0547
 2691TIP3    H229633   0.375   4.248   1.394  2.6858  1.5766 -0.2941
 2692TIP3   OH229634   3.132   3.871   8.218  0.2640  0.5339 -0.2105
 2692TIP3    H129635   3.156   3.783   8.245 -1.1065  0.3667  0.5686
 2692TIP3    H229636   3.146   3.872   8.123 -2.5968 -1.5814 -0.8101
 2693TIP3   OH229637   2.515   1.345   2.163  0.0804 -0.1809 -0.6262
 2693TIP3    H129638   2.599   1.384   2.186  0.1035  0.3607 -1.5632
 2693TIP3    H229639   2.468   1.339   2.246  1.1235 -0.7015 -0.0630
 2694TIP3   OH229640   5.994   5.455   8.559  0.2449  0.1192  0.5765
 2694TIP3    H129641   5.939   5.392   8.512 -0.8947 -0.5691  2.6941
 2694TIP3    H229642   6.054   5.489   8.493 -0.8653 -1.2275 -1.2066
 2695TIP3   OH229643   0.053   0.221   8.006 -0.8544 -0.3066  0.1935
 2695TIP3    H129644   0.095   0.220   7.920  0.0350 -0.9081  0.6170
 2695TIP3    H229645  -0.013   0.152   8.002 -1.5769  0.3931 -0.3536
 2696TIP3   OH229646   6.660   2.290   6.893  0.1168 -0.5067 -0.2468
 2696TIP3    H129647   6.744   2.305   6.848  0.0154  0.1204 -0.2348
 2696TIP3    H229648   6.622   2.378   6.902 -0.2569 -0.7238  0.3017
 2697TIP3   OH229649   6.595   6.402   1.320 -0.0786 -0.5339  0.0427
 2697TIP3    H129650   6.684   6.438   1.314 -1.4601  3.2346 -0.1965
 2697TIP3    H229651   6.605   6.325   1.377  3.2187  0.1175  0.5884
 2698TIP3   OH229652   4.289   6.555   7.916 -0.3152 -0.4760 -0.4905
 2698TIP3    H129653   4.363   6.548   7.977  0.3796 -0.4349 -1.3098
 2698TIP3    H229654   4.234   6.624   7.953 -1.3262 -2.2664  1.5430
 2699TIP3   OH229655   0.294   2.902   7.449 -0.1313 -0.2098 -0.1191
 2699TIP3    H129656   0.199   2.908   7.439 -0.1845 -0.8195  0.0283
 2699TIP3    H229657   0.321   2.833   7.389  0.3285  0.5003 -0.7598
 2700TIP3   OH229658   1.343   1.560   0.837 -0.7721 -0.7680 -0.1084
 2700TIP3    H129659   1.283   1.488   0.856 -1.4286 -0.4221 -0.7987
 2700TIP3    H229660   1.411   1.553   0.903 -1.0074 -1.8176  0.0396
 2701TIP3   OH229661   2.667   0.995   1.079 -0.1428  0.2068 -0.4307
 2701TIP3    H129662   2.624   0.973   0.997  0.1600  0.0229 -0.5436
 2701TIP3    H229663   2.760   0.980   1.062  0.1145  1.8380 -0.5980
 2702TIP3   OH229664   0.184   0.811   6.556 -0.1591  0.1924 -0.1785
 2702TIP3    H129665   0.233   0.745   6.604 -0.6487  0.4755  0.7275
 2702TIP3    H229666   0.112   0.763   6.516 -1.1050  0.3141  1.3189
 2703TIP3   OH229667   1.987   1.244   8.178 -0.0969 -0.4475 -0.2337
 2703TIP3    H129668   2.012   1.166   8.128 -0.3105 -0.0240 -1.0165
 2703TIP3    H229669   1.929   1.292   8.120 -0.3188  0.0852  0.4151
 2704TIP3   OH229670   1.719   3.668   1.034 -0.2488 -0.4527 -0.6481
 2704TIP3    H129671   1.630   3.672   1.067 -0.2517  0.7539 -0.7642
 2704TIP3    H229672   1.733   3.753   0.992  1.1403 -0.4061 -0.1432
 2705TIP3   OH229673   2.387   4.919   1.594 -0.2844  1.2271  0.4141
 2705TIP3    H129674   2.388   4.965   1.510 -2.8445  0.0198 -0.3674
 2705TIP3    H229675   2.442   4.842   1.580  0.0080  1.4814  0.1423
 2706TIP3   OH229676   4.429   0.847   8.585  0.0474 -0.2527 -0.1218
 2706TIP3    H129677   4.447   0.792   8.662 -1.0612 -0.8328 -0.2617
 2706TIP3    H229678   4.364   0.910   8.616  1.9230  1.5982  0.2835
 2707TIP3   OH229679   0.351   6.736   6.753 -0.1670  0.4244  0.0587
 2707TIP3    H129680   0.393   6.703   6.673  0.4277  3.5406 -1.0617
 2707TIP3    H229681   0.421   6.782   6.799 -0.9776  0.3398  1.4095
 2708TIP3   OH229682   5.826   1.059   8.097  0.6431  0.5208  0.0117
 2708TIP3    H129683   5.814   0.989   8.161  2.1800 -0.2725 -0.5154
 2708TIP3    H229684   5.902   1.032   8.046  2.1385  3.1938  0.6067
 2709TIP3   OH229685   2.582   1.944   7.155  0.1620  0.5457  0.7755
 2709TIP3    H129686   2.546   2.033   7.152  1.0550  0.8912  0.0407
 2709TIP3    H229687   2.677   1.956   7.151  0.2754 -0.4606  0.1800
 2710TIP3   OH229688   5.300   2.606   7.769 -0.1856  0.1462 -0.0999
 2710TIP3    H129689   5.274   2.697   7.784  0.0956  0.2823 -0.4328
 2710TIP3    H229690   5.247   2.556   7.832 -2.0420  0.3137 -1.4473
 2711TIP3   OH229691   3.641   6.447   2.154 -0.9029  0.0100  0.2728
 2711TIP3    H129692   3.726   6.407   2.174  0.5061  1.9970 -1.3506
 2711TIP3    H229693   3.617   6.411   2.069 -1.8136 -0.6681  0.7980
 2712TIP3   OH229694   0.072   4.000   7.962 -0.1904 -0.2696 -0.2842
 2712TIP3    H129695   0.080   3.924   7.904 -1.1007  0.0971 -0.9075
 2712TIP3    H229696   0.153   4.050   7.948 -0.4583 -0.1128 -1.3500
 2713TIP3   OH229697   4.854   0.407   0.350 -0.0111 -0.8494 -0.0528
 2713TIP3    H129698   4.834   0.440   0.438 -1.0108 -1.3045 -0.1042
 2713TIP3    H229699   4.785   0.443   0.294 -1.9011 -3.9026  0.0806
 2714TIP3   OH229700   0.376   6.513   1.104 -0.2425 -0.5773 -0.1929
 2714TIP3    H129701   0.337   6.431   1.137  0.0048  0.3639  2.7727
 2714TIP3    H229702   0.451   6.528   1.161  0.9984  0.6695 -2.0583
 2715TIP3   OH229703   6.664   2.769   6.880  0.3547  0.3527  0.6714
 2715TIP3    H129704   6.671   2.846   6.936  0.1063  1.0452 -0.2174
 2715TIP3    H229705   6.687   2.801   6.793  2.7225 -1.1300  0.6623
 2716TIP3   OH229706   3.945   1.972   8.493  0.2304  0.4288  0.1359
 2716TIP3    H129707   3.858   2.008   8.511 -0.3666 -0.8502 -0.0380
 2716TIP3    H229708   4.004   2.017   8.553 -0.1646  2.8752 -1.1835
 2717TIP3   OH229709   3.590   0.372   7.917 -0.3522  0.0083 -0.7587
 2717TIP3    H129710   3.513   0.318   7.901 -0.5566  0.4346 -1.2234
 2717TIP3    H229711   3.661   0.309   7.929 -0.9758 -0.4466  0.8984
 2718TIP3   OH229712   3.177   2.318   8.770 -0.5350  0.1741 -0.4246
 2718TIP3    H129713   3.252   2.300   8.827 -1.6132 -0.0926  0.9858
 2718TIP3    H229714   3.197   2.273   8.688  1.1310  0.6790 -0.3219
 2719TIP3   OH229715   6.637   1.230   7.742  0.3328  0.4019 -0.0660
 2719TIP3    H129716   6.583   1.201   7.669  0.2873 -1.4548  0.6563
 2719TIP3    H229717   6.705   1.284   7.702 -0.1385  0.0481 -1.3799
 2720TIP3   OH229718   5.018   5.354   0.743 -0.1214  0.1429 -0.1708
 2720TIP3    H129719   5.076   5.280   0.723 -1.7561 -1.3521  0.3404
 2720TIP3    H229720   5.070   5.411   0.799  0.5173 -1.7764  1.3052
 2721TIP3   OH229721   4.601   0.079   1.068 -0.1315 -0.2737 -0.5131
 2721TIP3    H129722   4.534   0.075   1.000 -0.5536 -1.2341 -0.0525
 2721TIP3    H229723   4.559   0.125   1.140  0.0623  0.0497 -0.5999
 2722TIP3   OH229724   4.337   2.930   0.277  0.1446 -0.2775 -0.4308
 2722TIP3    H129725   4.411   2.902   0.330  0.8403  0.2812 -1.0836
 2722TIP3    H229726   4.376   2.984   0.208 -0.8985  0.2460 -0.6298
 2723TIP3   OH229727   1.404   4.037   7.636  0.0010 -0.2386 -0.5114
 2723TIP3    H129728   1.421   3.981   7.561  0.3582 -1.4471  0.4450
 2723TIP3    H229729   1.488   4.079   7.655 -0.0634 -0.0163 -0.7093
 2724TIP3   OH229730   4.513   0.413   8.083  0.6871 -0.4594 -0.4898
 2724TIP3    H129731   4.591   0.358   8.084 -0.1631 -1.7391 -1.4155
 2724TIP3    H229732   4.511   0.450   7.995  0.1316 -0.6196 -0.5495
 2725TIP3   OH229733   1.371   3.856   8.444  0.2097 -0.5380 -0.1067
 2725TIP3    H129734   1.375   3.789   8.376 -1.5341  0.0680 -0.8608
 2725TIP3    H229735   1.295   3.831   8.498  1.9511 -1.4090  2.1253
 2726TIP3   OH229736   5.723   6.013   7.299 -0.0313 -0.5256 -0.4460
 2726TIP3    H129737   5.758   6.083   7.244  0.0344  0.0968  0.3674
 2726TIP3    H229738   5.640   6.047   7.332  1.0685  0.2005  1.8451
 2727TIP3   OH229739   3.077   3.400   7.930  0.1177  0.0671 -0.1097
 2727TIP3    H129740   3.029   3.461   7.874 -1.0283 -0.7260 -0.0490
 2727TIP3    H229741   3.021   3.389   8.007  1.1006  0.2144  0.6510
 2728TIP3   OH229742   4.801   6.691   1.041  0.1345  0.2013  0.4923
 2728TIP3    H129743   4.729   6.754   1.042  0.2151  0.2988  0.2227
 2728TIP3    H229744   4.766   6.615   1.087  0.2317  0.6494  1.3284
 2729TIP3   OH229745   6.448   2.660   1.023  0.3837  0.1611 -0.3426
 2729TIP3    H129746   6.467   2.741   1.070  0.3762  0.5778 -1.0378
 2729TIP3    H229747   6.456   2.591   1.089  1.7090  0.5852 -0.0240
 2730TIP3   OH229748   5.708   2.722   8.539  0.3716  0.1347 -0.4260
 2730TIP3    H129749   5.741   2.651   8.594  1.9031  1.9812  1.1941
 2730TIP3    H229750   5.734   2.699   8.450  2.2431 -0.5886  0.2814
 2731TIP3   OH229751   2.113   1.321   8.706 -0.2427  0.0930 -0.1882
 2731TIP3    H129752   2.113   1.354   8.616 -0.4534  0.6693  0.0224
 2731TIP3    H229753   2.028   1.277   8.715  0.5297 -1.6456 -0.8687
 2732TIP3   OH229754   1.230   2.994   0.474  0.6325 -0.3900  0.3342
 2732TIP3    H129755   1.179   3.074   0.488  0.3643 -0.5012  0.0044
 2732TIP3    H229756   1.271   2.976   0.558  1.9014  0.9274  0.0347
 2733TIP3   OH229757   3.702   0.994   0.507  0.1868 -0.2934  0.1822
 2733TIP3    H129758   3.629   1.045   0.471 -0.5749 -1.5330 -0.0919
 2733TIP3    H229759   3.691   0.907   0.469  1.8293 -0.5006  0.1367
 2734TIP3   OH229760   4.920   6.765   0.813  0.1336 -0.3782 -0.0826
 2734TIP3    H129761   4.928   6.858   0.833  0.7201 -0.6408  0.9697
 2734TIP3    H229762   4.858   6.732   0.879 -2.1128 -0.2884 -2.0013
 2735TIP3   OH229763   1.606   6.065   8.086  0.2551 -0.2486 -0.4741
 2735TIP3    H129764   1.629   6.124   8.014  0.8549 -0.3780 -0.3918
 2735TIP3    H229765   1.622   5.978   8.052  0.1425 -0.3294 -0.3216
 2736TIP3   OH229766   0.993   1.564   0.067 -0.4161 -0.0487 -0.4511
 2736TIP3    H129767   0.961   1.541  -0.020 -0.1234  0.3947 -0.6767
 2736TIP3    H229768   0.930   1.525   0.127 -0.4390 -0.6402 -0.8525
 2737TIP3   OH229769   4.221   3.361   8.398  0.1099  0.2045  0.0060
 2737TIP3    H129770   4.145   3.303   8.395 -1.2094  1.8495  0.1736
 2737TIP3    H229771   4.253   3.365   8.308 -0.2927 -0.1250 -0.1528
 2738TIP3   OH229772   0.091   0.216   5.984  0.6764  1.0262 -0.0055
 2738TIP3    H129773   0.182   0.209   6.013  1.1795 -0.4886 -1.7524
 2738TIP3    H229774   0.098   0.245   5.893 -0.5226  0.0952 -0.4165
 2739TIP3   OH229775   1.402   2.614   7.931 -0.1766  0.0745 -0.6191
 2739TIP3    H129776   1.357   2.578   8.007 -0.6403 -0.0575 -0.9545
 2739TIP3    H229777   1.342   2.601   7.858 -0.9227  2.5983 -0.5753
 2740TIP3   OH229778   5.495   2.219   7.755 -0.0878  0.0613 -0.0204
 2740TIP3    H129779   5.548   2.263   7.688 -1.8840  2.5199  0.0470
 2740TIP3    H229780   5.509   2.272   7.834  0.1766 -1.4323  0.9617
 2741TIP3   OH229781   2.219   3.203   7.130  0.1616 -0.2051 -0.2634
 2741TIP3    H129782   2.159   3.140   7.171 -1.5472  0.1618 -2.0576
 2741TIP3    H229783   2.297   3.201   7.185 -2.1462  0.7449  3.3874
 2742TIP3   OH229784   6.631   6.124   0.686  0.1605  0.2001  0.3466
 2742TIP3    H129785   6.584   6.041   0.692 -0.1425  0.4718  2.2242
 2742TIP3    H229786   6.657   6.144   0.776 -0.6033  2.5906  0.1110
 2743TIP3   OH229787   3.909   2.625   7.734 -0.0883  0.1970  0.0515
 2743TIP3    H129788   3.924   2.599   7.825 -0.5208 -0.4794 -0.0611
 2743TIP3    H229789   3.816   2.608   7.719 -0.1580  0.8778 -0.3411
 2744TIP3   OH229790   0.164   2.812   8.143  0.2445 -0.0949  0.0389
 2744TIP3    H129791   0.216   2.754   8.088 -1.2816  0.1603 -1.7762
 2744TIP3    H229792   0.200   2.899   8.126  0.3255 -0.1113  0.1241
 2745TIP3   OH229793   2.844   0.967   1.551  0.1794 -0.1447 -0.5344
 2745TIP3    H129794   2.922   0.997   1.504  0.4366  0.0982  0.0397
 2745TIP3    H229795   2.819   1.041   1.606  2.5828 -1.8312  3.2098
 2746TIP3   OH229796   1.171   3.686   1.169  0.0462 -0.0222 -0.1452
 2746TIP3    H129797   1.186   3.706   1.261 -2.8717  1.4546  0.0984
 2746TIP3    H229798   1.170   3.590   1.165  0.9334 -0.1137  1.1744
 2747TIP3   OH229799   3.450   0.918   8.234 -0.7029 -0.1931  0.5550
 2747TIP3    H129800   3.454   1.003   8.192  2.0821 -0.9370 -0.8977
 2747TIP3    H229801   3.487   0.932   8.321 -0.2558  0.0931  0.3189
 2748TIP3   OH229802   5.556   3.192   1.210 -0.1934 -0.0403 -0.2067
 2748TIP3    H129803   5.464   3.166   1.206 -0.2338  0.0978 -0.1797
 2748TIP3    H229804   5.583   3.176   1.300 -0.7150  1.6744  0.2999
 2749TIP3   OH229805   5.993   6.768   7.821 -0.6532  0.0720  0.6571
 2749TIP3    H129806   5.941   6.697   7.784  2.8725 -1.2315 -2.3071
 2749TIP3    H229807   6.069   6.725   7.860  0.8263  2.0882  0.1620
 2750TIP3   OH229808   4.306   6.578   0.615 -0.1088 -0.0815  0.0254
 2750TIP3    H129809   4.399   6.598   0.600 -0.3828  0.3887 -1.1914
 2750TIP3    H229810   4.280   6.529   0.537 -1.1192  0.6542 -0.1132
 2751TIP3   OH229811   0.222   2.935   0.410  0.0570 -0.2578  0.1202
 2751TIP3    H129812   0.245   3.025   0.386 -1.0274 -0.3452 -1.4429
 2751TIP3    H229813   0.133   2.924   0.377 -0.5434 -1.3270  1.9546
 2752TIP3   OH229814   2.390   1.083   0.446 -0.0301  0.2381  0.5834
 2752TIP3    H129815   2.416   1.122   0.362  2.0971  1.1752  1.5958
 2752TIP3    H229816   2.386   0.989   0.428 -0.9925  0.5227 -0.8728
 2753TIP3   OH229817   2.074   6.662   6.629  0.3531 -0.2816 -0.2363
 2753TIP3    H129818   2.067   6.675   6.534 -2.3829  0.3709 -0.0344
 2753TIP3    H229819   2.108   6.746   6.662 -1.8299  0.7365 -0.4079
 2754TIP3   OH229820   5.990   3.598   1.060 -0.3806  0.2321 -0.1634
 2754TIP3    H129821   5.904   3.556   1.049 -0.7234  0.7207  0.5952
 2754TIP3    H229822   5.989   3.630   1.150  0.6010  0.2475 -0.1549
 2755TIP3   OH229823   6.651   1.701   6.327  0.4439  0.2696  0.2846
 2755TIP3    H129824   6.631   1.786   6.368  0.8213  0.2777  0.4504
 2755TIP3    H229825   6.588   1.695   6.255  2.5370  2.2693 -1.9260
 2756TIP3   OH229826   4.087   3.582   0.924  0.2457  0.1460 -0.5419
 2756TIP3    H129827   4.180   3.566   0.906  0.6103  0.0735  1.2721
 2756TIP3    H229828   4.041   3.519   0.869  1.3359 -0.9296 -0.2540
 2757TIP3   OH229829   3.838   5.257   6.929 -0.2589  0.2625 -0.5027
 2757TIP3    H129830   3.806   5.346   6.941 -2.1588 -0.5287  0.6457
 2757TIP3    H229831   3.795   5.226   6.849  0.8017  0.5102 -1.1948
 2758TIP3   OH229832   4.768   3.404   0.853  0.1689  0.2017  0.0492
 2758TIP3    H129833   4.861   3.423   0.842  0.4740  1.7366  3.8139
 2758TIP3    H229834   4.764   3.343   0.926 -1.7705  1.4322  1.0789
 2759TIP3   OH229835   5.541   3.580   7.910 -0.2984  0.2273  0.2234
 2759TIP3    H129836   5.573   3.523   7.841  0.5495  0.3719  0.4870
 2759TIP3    H229837   5.602   3.567   7.983 -1.3318 -0.1278  1.0466
 2760TIP3   OH229838   6.465   0.437   7.367 -0.0569  0.2872  0.2571
 2760TIP3    H129839   6.372   0.428   7.390 -0.2411 -0.2317 -0.6586
 2760TIP3    H229840   6.465   0.452   7.273  0.7697  0.8932  0.3449
 2761TIP3   OH229841   2.229   0.657   7.994 -0.0757  0.1796 -0.2236
 2761TIP3    H129842   2.252   0.595   8.064  0.1152 -0.5292 -0.9026
 2761TIP3    H229843   2.282   0.734   8.013 -2.3279  1.2893  2.2507
 2762TIP3   OH229844   4.651   3.827   6.898  0.4707 -0.6834 -0.3496
 2762TIP3    H129845   4.620   3.754   6.845 -2.9805 -0.2672  0.8425
 2762TIP3    H229846   4.614   3.904   6.856 -0.2471 -0.1357  1.2069
 2763TIP3   OH229847   6.167   3.623   6.621  0.0587 -0.5063  0.2400
 2763TIP3    H129848   6.125   3.693   6.670  1.5234  0.2736  0.4595
 2763TIP3    H229849   6.112   3.546   6.635 -1.3157  0.4766  0.3943
 2764TIP3   OH229850   6.119   4.920   8.149  0.1768  0.1484 -0.4309
 2764TIP3    H129851   6.026   4.929   8.170  0.2806  0.2748 -0.0180
 2764TIP3    H229852   6.128   4.829   8.121 -0.4334  0.6295 -2.3461
 2765TIP3   OH229853   4.826   3.879   7.096 -0.6398 -0.0977 -0.0348
 2765TIP3    H129854   4.761   3.854   7.030  0.5533  0.2123 -1.3710
 2765TIP3    H229855   4.782   3.944   7.150 -0.9018  1.5035 -2.0516
 2766TIP3   OH229856   3.597   2.470   1.991  0.2979 -0.4697  0.1086
 2766TIP3    H129857   3.502   2.474   1.986  0.1712 -1.2566  1.2772
 2766TIP3    H229858   3.615   2.442   2.081  1.6909  1.0098  0.3430
 2767TIP3   OH229859   5.898   1.511   7.324  0.2913  0.2569  0.1666
 2767TIP3    H129860   5.834   1.459   7.275 -0.0042  0.1498  0.6549
 2767TIP3    H229861   5.890   1.479   7.414 -1.3146  2.4673  0.9003
 2768TIP3   OH229862   4.350   1.086   7.982  0.8006  0.2623  0.1971
 2768TIP3    H129863   4.418   1.031   7.943  0.7521  0.3715 -0.0439
 2768TIP3    H229864   4.383   1.105   8.070  0.3004 -1.0720  0.6926
 2769TIP3   OH229865   1.056   3.085   1.266  0.9283 -0.2096 -0.0260
 2769TIP3    H129866   1.023   3.050   1.184  0.9140 -3.2248  1.1286
 2769TIP3    H229867   1.149   3.064   1.265  0.8442 -0.6751  0.8785
 2770TIP3   OH229868   2.875   4.407   1.038 -0.4926  0.0626  0.0122
 2770TIP3    H129869   2.788   4.374   1.015 -0.6135  0.6561 -0.4289
 2770TIP3    H229870   2.859   4.496   1.070 -0.4540 -1.0770  3.5447
 2771TIP3   OH229871   5.049   1.721   0.566  0.0788 -0.6456  0.4929
 2771TIP3    H129872   4.990   1.746   0.495 -2.1596  1.2604  2.8228
 2771TIP3    H229873   5.094   1.643   0.534 -1.3669 -0.3275 -2.6564
 2772TIP3   OH229874   2.481   2.700   8.184 -0.3000 -0.2279 -0.0366
 2772TIP3    H129875   2.431   2.622   8.160 -1.3341 -0.0763  1.4656
 2772TIP3    H229876   2.538   2.672   8.256  0.5428  0.0110 -0.6023
 2773TIP3   OH229877   4.015   3.335   1.568  0.2881 -0.0473  0.1998
 2773TIP3    H129878   4.068   3.389   1.627  0.3002  2.5614 -2.0048
 2773TIP3    H229879   3.958   3.397   1.522 -1.0724 -2.1630 -1.1819
 2774TIP3   OH229880   5.042   2.433   8.716 -0.2599 -0.5013 -0.3365
 2774TIP3    H129881   4.981   2.504   8.698  0.1381 -0.0382  0.0802
 2774TIP3    H229882   4.992   2.370   8.768 -0.1615  0.2759  0.7340
 2775TIP3   OH229883   4.466   4.246   0.594 -0.0573 -0.7321 -0.0064
 2775TIP3    H129884   4.419   4.310   0.541 -3.0759 -0.8033  2.2760
 2775TIP3    H229885   4.511   4.299   0.661 -2.4305 -0.7952  1.7883
 2776TIP3   OH229886   4.488   3.926   0.815 -0.5095  0.3433  0.2638
 2776TIP3    H129887   4.448   3.865   0.877  0.0343 -2.0513 -1.5827
 2776TIP3    H229888   4.560   3.966   0.863 -0.3023 -1.1932  1.2802
 2777TIP3   OH229889   3.805   6.292   1.671  0.1699 -0.5595  0.1117
 2777TIP3    H129890   3.714   6.283   1.698  0.5679 -0.6059  1.5542
 2777TIP3    H229891   3.801   6.324   1.581 -1.2650 -0.1850  0.2878
 2778TIP3   OH229892   4.601   4.079   6.794  0.0712  0.0264 -0.4971
 2778TIP3    H129893   4.689   4.092   6.829  0.1868 -0.2164 -0.6983
 2778TIP3    H229894   4.559   4.165   6.803 -0.1793 -0.2200  1.0010
 2779TIP3   OH229895   5.410   2.708   2.316 -0.5539 -0.0648  0.4013
 2779TIP3    H129896   5.391   2.699   2.223 -0.9721 -0.3667  0.5131
 2779TIP3    H229897   5.387   2.623   2.354 -1.9902  0.5641  1.0409
 2780TIP3   OH229898   6.097   3.219   8.267  0.3452 -0.0843  0.6445
 2780TIP3    H129899   6.054   3.189   8.347 -0.4734 -0.9128 -0.0860
 2780TIP3    H229900   6.166   3.155   8.252 -0.4469 -0.7918 -0.0983
 2781TIP3   OH229901   2.232   1.388   1.881 -0.0008  0.1342  0.0357
 2781TIP3    H129902   2.247   1.481   1.895  0.9231  0.1750 -1.0314
 2781TIP3    H229903   2.316   1.347   1.902 -0.0862 -0.3303 -0.5123
 2782TIP3   OH229904   0.905   3.387   7.811  0.3498 -0.3821 -0.5550
 2782TIP3    H129905   0.946   3.406   7.895  0.1515 -0.7459 -0.3762
 2782TIP3    H229906   0.884   3.294   7.814 -0.9189 -0.1166 -0.4518
 2783TIP3   OH229907   6.204   5.402   7.755 -0.2567  0.0117 -0.1958
 2783TIP3    H129908   6.240   5.469   7.813  0.6166  0.2081 -0.9331
 2783TIP3    H229909   6.191   5.446   7.671  1.0418 -0.8717 -0.9110
 2784TIP3   OH229910   6.347   4.587   7.665  0.2078 -0.5683  0.0783
 2784TIP3    H129911   6.314   4.673   7.639 -1.0485 -2.0095 -3.7685
 2784TIP3    H229912   6.268   4.534   7.678  0.9821 -1.6018  0.7767
 2785TIP3   OH229913   2.198   2.876   7.380 -0.0973  0.0630 -0.4673
 2785TIP3    H129914   2.139   2.936   7.333 -1.4137  0.1929  1.2448
 2785TIP3    H229915   2.228   2.926   7.455  0.5918 -0.6972 -0.2301
 2786TIP3   OH229916   4.217   2.075   6.965 -0.3495  0.2140  0.1094
 2786TIP3    H129917   4.171   2.055   7.046 -0.3687  3.0434  0.8817
 2786TIP3    H229918   4.159   2.043   6.895 -1.4133 -0.1428  1.1374
 2787TIP3   OH229919   2.006   3.665   8.851 -0.3487 -0.3143 -0.0927
 2787TIP3    H129920   2.021   3.570   8.851  0.4027 -0.2008  0.3625
 2787TIP3    H229921   2.000   3.689   8.759  1.3720 -0.5195 -0.2914
 2788TIP3   OH229922   6.398   1.793   8.705  0.9384  0.5496  0.2310
 2788TIP3    H129923   6.326   1.752   8.658  1.6043  1.1802 -1.3929
 2788TIP3    H229924   6.426   1.727   8.769  0.1274 -0.4078 -0.3734
 2789TIP3   OH229925   1.552   0.562   7.975 -0.1879  0.0985  0.1148
 2789TIP3    H129926   1.597   0.523   8.050  1.1600  1.3438 -0.0189
 2789TIP3    H229927   1.463   0.578   8.006 -0.0317 -0.6813  0.9899
 2790TIP3   OH229928   3.117   4.668   0.573  0.0379 -0.0692 -0.1438
 2790TIP3    H129929   3.125   4.633   0.661  1.0957  0.8900  0.1624
 2790TIP3    H229930   3.076   4.754   0.585  0.4449  0.1880 -0.5569
 2791TIP3   OH229931   4.508   4.852   6.601  0.0957 -0.7419  0.2208
 2791TIP3    H129932   4.587   4.843   6.547 -0.4173 -1.5583 -0.4082
 2791TIP3    H229933   4.464   4.929   6.566 -0.5905 -1.6659 -1.0125
 2792TIP3   OH229934   5.965   5.374   8.834  0.0167 -0.4499 -0.6697
 2792TIP3    H129935   5.955   5.432   8.759 -0.8701  0.4126  0.0870
 2792TIP3    H229936   5.998   5.431   8.904  0.9482 -1.2611 -0.4222
 2793TIP3   OH229937   2.798   1.894   8.131 -0.4088 -0.4343  0.2483
 2793TIP3    H129938   2.763   1.918   8.217 -0.2085  0.3203  0.1233
 2793TIP3    H229939   2.721   1.891   8.074 -0.5136 -0.7151  0.4012
 2794TIP3   OH229940   1.565   5.398   2.149 -0.1733  0.2298 -0.4188
 2794TIP3    H129941   1.549   5.310   2.183  1.2339 -0.1351 -0.6281
 2794TIP3    H229942   1.500   5.453   2.192 -1.1902 -0.9368 -0.4195
 2795TIP3   OH229943   3.172   3.783   7.714  0.2375 -0.2295 -0.4988
 2795TIP3    H129944   3.146   3.748   7.799 -0.4416 -2.2070 -1.4704
 2795TIP3    H229945   3.148   3.876   7.719  0.1402 -0.3119  1.4227
 2796TIP3   OH229946   4.172   3.484   7.101  0.3208  0.1995 -0.0760
 2796TIP3    H129947   4.219   3.529   7.031 -0.6809  0.9190 -0.3173
 2796TIP3    H229948   4.080   3.502   7.083 -0.0056 -0.4418  0.8726
 2797TIP3   OH229949   5.523   6.205   7.814  0.2072  0.1933 -0.0940
 2797TIP3    H129950   5.479   6.289   7.829  1.4586  0.7457  0.7232
 2797TIP3    H229951   5.528   6.165   7.901  0.3530 -0.3442 -0.3461
 2798TIP3   OH229952   4.097   3.918   6.983  0.6112  0.2964 -0.6478
 2798TIP3    H129953   4.170   3.940   6.925 -0.3366  0.8969 -1.6344
 2798TIP3    H229954   4.029   3.883   6.925 -0.9439  2.3132 -0.1653
 2799TIP3   OH229955   5.227   3.791   0.455  0.0451 -0.1136  0.6330
 2799TIP3    H129956   5.183   3.815   0.373  1.3229  0.8160  0.1772
 2799TIP3    H229957   5.217   3.696   0.461  1.6390 -0.5150 -1.6840
 2800TIP3   OH229958   0.827   4.676   0.039 -0.0730 -0.4010 -0.2985
 2800TIP3    H129959   0.887   4.611   0.004 -0.8825 -2.3577  1.7280
 2800TIP3    H229960   0.865   4.702   0.123 -2.2489 -2.1641  1.3372
 2801TIP3   OH229961   3.495   0.712   7.203  0.4402  0.6396 -0.3715
 2801TIP3    H129962   3.450   0.628   7.206  1.9541 -0.2000 -0.5791
 2801TIP3    H229963   3.429   0.773   7.171 -0.8926 -0.3045  0.4690
 2802TIP3   OH229964   1.676   0.056   6.693 -0.1250  0.7088  0.2337
 2802TIP3    H129965   1.590   0.069   6.652 -0.0583 -2.4135 -1.1120
 2802TIP3    H229966   1.737   0.102   6.636 -0.3107 -1.7788 -2.1710
 2803TIP3   OH229967   2.972   2.986   1.136  0.0941  0.1624  0.4247
 2803TIP3    H129968   2.877   2.998   1.135  0.3071  2.7167  1.3940
 2803TIP3    H229969   2.992   2.949   1.050 -1.6241  1.1728 -0.4771
 2804TIP3   OH229970   2.292   1.715   0.446 -0.2007 -0.2463 -0.3330
 2804TIP3    H129971   2.374   1.746   0.484 -0.2578  0.7286 -0.9698
 2804TIP3    H229972   2.309   1.624   0.423  1.3122  0.3972 -2.0629
 2805TIP3   OH229973   1.869   3.452   0.254 -0.0444 -0.2162  0.3728
 2805TIP3    H129974   1.816   3.442   0.174  0.9213  3.0499 -0.8404
 2805TIP3    H229975   1.922   3.373   0.258 -0.8297 -0.9156 -1.6784
 2806TIP3   OH229976   2.767   1.718   0.857 -0.0511 -0.4633  0.1807
 2806TIP3    H129977   2.678   1.696   0.885 -0.0347  0.5531  1.1048
 2806TIP3    H229978   2.815   1.734   0.938  0.7107 -0.0442 -0.3354
 2807TIP3   OH229979   6.288   1.379   8.708  0.1799 -0.3003 -0.2846
 2807TIP3    H129980   6.344   1.314   8.752  1.3973 -0.1580 -1.5473
 2807TIP3    H229981   6.206   1.378   8.757  1.0718 -0.9755  1.2558
 2808TIP3   OH229982   0.782   3.224   1.290  0.3459  0.7235  0.1499
 2808TIP3    H129983   0.728   3.168   1.235 -0.2804  1.3588  0.1065
 2808TIP3    H229984   0.865   3.177   1.298 -0.5883 -0.8476  1.1958
 2809TIP3   OH229985   1.866   5.497   6.943  0.2459  0.1627  0.2671
 2809TIP3    H129986   1.779   5.531   6.966  0.0234  0.7073 -1.2418
 2809TIP3    H229987   1.894   5.448   7.020 -1.2107  0.3472  0.9497
 2810TIP3   OH229988   6.408   1.632   1.645  0.5936 -0.2916  0.1783
 2810TIP3    H129989   6.437   1.617   1.735  0.4256 -0.7910  0.1546
 2810TIP3    H229990   6.489   1.653   1.597  0.5645  0.8608  0.6147
 2811TIP3   OH229991   5.652   5.053   8.383 -0.4519 -0.2668  0.0986
 2811TIP3    H129992   5.705   4.988   8.428 -1.6316 -0.9120  0.6171
 2811TIP3    H229993   5.583   5.076   8.446 -0.8229  0.4927 -0.5627
 2812TIP3   OH229994   2.233   3.119   8.494 -0.2173  0.3596 -0.2521
 2812TIP3    H129995   2.246   3.053   8.426 -0.5251 -0.0320  0.0660
 2812TIP3    H229996   2.319   3.128   8.536 -0.3528 -0.4102  0.2105
 2813TIP3   OH229997   1.425   6.140   0.472  0.5379 -0.0550 -0.7285
 2813TIP3    H129998   1.341   6.095   0.467  0.7908 -0.6065 -0.0274
 2813TIP3    H229999   1.412   6.210   0.536  1.0424 -1.1061  0.5625
 2814TIP3   OH230000   6.682   5.770   0.220  0.1453 -0.2653  0.1156
 2814TIP3    H130001   6.739   5.693   0.215  4.2460  2.2826  2.0031
 2814TIP3    H230002   6.616   5.747   0.285  0.5201 -2.5461 -0.2454
 2815TIP3   OH230003   6.258   2.493   0.416 -0.2449  0.3585  0.3003
 2815TIP3    H130004   6.311   2.414   0.417 -1.1440 -0.2519  0.0146
 2815TIP3    H230005   6.202   2.486   0.494 -0.1710  0.8310  0.4045
 2816TIP3   OH230006   1.234   4.429   7.332  0.3789  0.0087  0.2322
 2816TIP3    H130007   1.196   4.375   7.263  0.7510  1.7700 -1.4501
 2816TIP3    H230008   1.159   4.457   7.384 -0.2365  0.5540 -0.9035
 2817TIP3   OH230009   4.147   5.881   7.332  0.0408 -0.1599  0.6392
 2817TIP3    H130010   4.091   5.941   7.282 -0.9668 -0.1482  1.7443
 2817TIP3    H230011   4.227   5.931   7.347 -0.3842  0.5325  0.6678
 2818TIP3   OH230012   0.327   2.854   7.724 -0.5020  0.0687 -0.0920
 2818TIP3    H130013   0.325   2.872   7.630  0.3038 -0.1391 -0.1517
 2818TIP3    H230014   0.409   2.892   7.754 -0.8839  0.3854  0.5861
 2819TIP3   OH230015   5.818   4.411   0.286 -0.7568  0.2433  0.5806
 2819TIP3    H130016   5.853   4.493   0.322  0.5519 -0.3633  0.7367
 2819TIP3    H230017   5.767   4.374   0.357  2.2860 -1.2395  2.1945
 2820TIP3   OH230018   1.652   0.357   8.620 -0.1804 -0.6006  0.6390
 2820TIP3    H130019   1.615   0.409   8.549 -0.2071 -0.1507  0.9781
 2820TIP3    H230020   1.580   0.303   8.651 -0.0534 -1.1352  0.0257
 2821TIP3   OH230021   4.696   0.750   0.591 -0.0530  0.0505 -0.3336
 2821TIP3    H130022   4.696   0.655   0.597 -3.4215 -0.0719 -0.1051
 2821TIP3    H230023   4.698   0.780   0.682  0.8232  0.2033 -0.3988
 2822TIP3   OH230024   0.279   5.678   6.754  0.1530  0.0457  0.6266
 2822TIP3    H130025   0.224   5.600   6.765  1.9485 -1.3022  0.3939
 2822TIP3    H230026   0.348   5.651   6.695 -0.2576  2.4285 -1.1027
 2823TIP3   OH230027   5.032   5.595   8.151 -0.3562 -0.5838  0.0470
 2823TIP3    H130028   5.118   5.627   8.177 -0.6627 -0.3883  0.8503
 2823TIP3    H230029   5.004   5.539   8.224 -1.2487 -0.0062  0.1616
 2824TIP3   OH230030   1.547   2.417   0.017  0.2370 -0.5218  0.3748
 2824TIP3    H130031   1.499   2.343   0.053  0.3595 -1.2777 -0.9439
 2824TIP3    H230032   1.619   2.430   0.079 -0.4462 -0.7366  1.2420
 2825TIP3   OH230033   5.575   4.111   0.447  0.0985  0.2823  0.4697
 2825TIP3    H130034   5.540   4.200   0.452  0.2604  0.3036  1.4465
 2825TIP3    H230035   5.603   4.091   0.537 -0.0508 -0.8044  0.2861
 2826TIP3   OH230036   4.597   5.933   1.253 -0.7550 -0.3282 -0.2409
 2826TIP3    H130037   4.516   5.983   1.249  0.1351  1.0997 -1.1173
 2826TIP3    H230038   4.622   5.936   1.346  0.3786  2.8191 -0.4986
 2827TIP3   OH230039   0.041   1.916   1.735  0.0785  0.0339 -0.8729
 2827TIP3    H130040   0.102   1.900   1.807  1.9576  0.4326 -2.3089
 2827TIP3    H230041  -0.027   1.850   1.746  1.3699 -1.1854  0.1355
 2828TIP3   OH230042   5.981   2.220   7.673 -0.4324  0.3072 -0.4644
 2828TIP3    H130043   5.981   2.316   7.665  0.4742  0.3461 -0.1786
 2828TIP3    H230044   5.894   2.199   7.706 -0.3110  1.1360  0.4443
 2829TIP3   OH230045   3.384   6.259   8.269  0.1907  0.7830 -0.0519
 2829TIP3    H130046   3.466   6.291   8.231 -0.1318  0.8770 -0.6786
 2829TIP3    H230047   3.323   6.333   8.259 -0.2282  0.3902 -0.4331
 2830TIP3   OH230048   5.890   1.195   7.849  0.2476 -0.7894  0.6966
 2830TIP3    H130049   5.814   1.145   7.820 -0.4788  0.8730 -0.4116
 2830TIP3    H230050   5.956   1.180   7.781 -0.4355  0.7747 -0.3437
 2831TIP3   OH230051   3.630   0.267   8.537  0.1924 -0.0609 -0.6407
 2831TIP3    H130052   3.719   0.281   8.567  0.3580 -2.1082 -0.0175
 2831TIP3    H230053   3.584   0.349   8.556  0.9602 -0.3073  2.7532
 2832TIP3   OH230054   2.346   6.741   0.798  0.7581 -0.7941 -0.2965
 2832TIP3    H130055   2.322   6.766   0.887  0.6252 -0.5369 -0.4019
 2832TIP3    H230056   2.359   6.647   0.802  1.2536 -0.7099  0.1086
 2833TIP3   OH230057   3.688   3.091   2.161  0.2196  0.0344 -0.2578
 2833TIP3    H130058   3.688   3.055   2.250 -1.0633 -0.2215 -0.3463
 2833TIP3    H230059   3.696   3.185   2.174 -1.2212  0.1142  0.2098
 2834TIP3   OH230060   2.219   3.541   7.135  0.0642 -0.2269 -0.1135
 2834TIP3    H130061   2.135   3.581   7.157  0.5872  0.6592  0.3309
 2834TIP3    H230062   2.201   3.487   7.058 -0.6971  0.8016 -0.6758
 2835TIP3   OH230063   1.802   3.860   7.784  0.0527  0.0057  0.0587
 2835TIP3    H130064   1.831   3.952   7.784 -0.6733  0.3164  2.6659
 2835TIP3    H230065   1.755   3.850   7.702 -0.5742  2.2485  0.0734
 2836TIP3   OH230066   5.516   0.255   1.900 -0.0872 -0.2165  0.0931
 2836TIP3    H130067   5.469   0.189   1.951 -1.9595  0.2241 -0.9752
 2836TIP3    H230068   5.595   0.210   1.869 -2.5110 -2.9112 -2.7645
 2837TIP3   OH230069   5.363   0.211   1.463  0.2339  0.3586  0.0969
 2837TIP3    H130070   5.436   0.166   1.505  0.0730  0.3213  0.3361
 2837TIP3    H230071   5.401   0.246   1.382  0.3349 -0.2882 -0.1457
 2838TIP3   OH230072   2.651   6.056   2.163  0.0048 -0.4687 -0.1556
 2838TIP3    H130073   2.735   6.057   2.208 -0.3545  1.9405  0.5963
 2838TIP3    H230074   2.587   6.039   2.233 -0.2789 -0.3756 -0.3905
 2839TIP3   OH230075   6.600   6.645   8.674 -0.6842  0.2610  0.5607
 2839TIP3    H130076   6.572   6.712   8.612 -0.2987  1.4354  1.5869
 2839TIP3    H230077   6.682   6.612   8.638 -1.1891 -0.1060 -0.2696
 2840TIP3   OH230078   4.082   2.114   0.061 -0.8079 -0.0132  0.2631
 2840TIP3    H130079   4.156   2.169   0.086  0.5539 -2.4837  2.0084
 2840TIP3    H230080   4.105   2.081  -0.026 -0.9850  0.9656 -0.1791
 2841TIP3   OH230081   5.215   1.802   8.447  0.1551  0.2384 -0.0255
 2841TIP3    H130082   5.199   1.870   8.511  1.9002  0.2606  0.4190
 2841TIP3    H230083   5.172   1.834   8.367 -0.8195  0.8601  0.7203
 2842TIP3   OH230084   1.056   3.034   7.378 -0.3445  0.5109  0.1263
 2842TIP3    H130085   1.006   3.056   7.300 -0.3511 -2.6742 -0.8816
 2842TIP3    H230086   1.002   2.971   7.425  1.3632 -0.7060  0.5807
 2843TIP3   OH230087   1.275   3.260   7.080 -0.0701  0.2309 -0.8631
 2843TIP3    H130088   1.305   3.226   6.995  2.7658  1.3095 -0.3977
 2843TIP3    H230089   1.286   3.355   7.073 -0.2257  0.3707  0.5461
 2844TIP3   OH230090   6.524   0.839   8.911 -0.2336  0.4990 -0.2438
 2844TIP3    H130091   6.568   0.903   8.856 -0.0808  0.8948  0.3278
 2844TIP3    H230092   6.433   0.841   8.882 -0.1419  0.6646 -0.5210
 2845TIP3   OH230093   0.404   0.683   1.360 -0.3492  0.4872 -0.2823
 2845TIP3    H130094   0.496   0.655   1.356 -0.3390  0.5416 -0.4646
 2845TIP3    H230095   0.405   0.773   1.327 -0.2286  1.0993  1.3336
 2846TIP3   OH230096   3.234   2.694   0.987  0.4099  0.3370  0.1642
 2846TIP3    H130097   3.194   2.609   1.006 -0.6667  0.6910 -0.4484
 2846TIP3    H230098   3.165   2.745   0.945  1.6044  0.8470 -1.2868
 2847TIP3   OH230099   2.268   0.712   6.904  0.4674  0.1765 -0.8033
 2847TIP3    H130100   2.205   0.779   6.930 -3.2212 -2.5320 -1.9469
 2847TIP3    H230101   2.310   0.747   6.825  1.2424  2.4397  0.5048
 2848TIP3   OH230102   4.001   0.974   7.777  0.4415  0.0749 -0.3675
 2848TIP3    H130103   3.914   1.012   7.787  0.0431 -0.4189 -1.6741
 2848TIP3    H230104   3.985   0.891   7.733  1.6282  0.3407 -1.3437
 2849TIP3   OH230105   1.709   3.156   0.912  0.3091 -0.2547 -0.1053
 2849TIP3    H130106   1.801   3.136   0.925 -0.0464 -1.2790  0.9170
 2849TIP3    H230107   1.663   3.075   0.934 -0.8432  0.2704 -0.5106
 2850TIP3   OH230108   4.142   2.917   8.534 -0.3499  0.0015 -0.1558
 2850TIP3    H130109   4.168   2.866   8.611 -0.3342  1.5739  0.9276
 2850TIP3    H230110   4.048   2.900   8.525 -0.5166  0.4278  0.7129
 2851TIP3   OH230111   2.819   3.280   0.719  0.0937 -0.0205 -0.2456
 2851TIP3    H130112   2.829   3.225   0.642 -0.6446  1.1078 -1.1962
 2851TIP3    H230113   2.872   3.358   0.700  1.3695 -0.4704  1.1955
 2852TIP3   OH230114   6.479   0.916   7.587 -0.6180 -0.3261 -0.1220
 2852TIP3    H130115   6.461   1.011   7.589  0.5782 -0.0813 -0.3489
 2852TIP3    H230116   6.480   0.891   7.680 -0.0164  0.0739 -0.0148
 2853TIP3   OH230117   5.966   0.223   8.778  0.3439  0.0628 -0.4882
 2853TIP3    H130118   5.903   0.152   8.765 -0.5965  0.6758  0.5831
 2853TIP3    H230119   6.043   0.179   8.815 -0.3928 -0.3613  0.5981
 2854TIP3   OH230120   1.118   5.956   7.431 -0.1975  0.1555  0.2745
 2854TIP3    H130121   1.085   5.867   7.446  0.0796 -0.4422 -2.1538
 2854TIP3    H230122   1.045   6.012   7.456 -1.1249 -0.8779 -0.0145
 2855TIP3   OH230123   1.021   3.320   7.273 -0.3255 -0.4117 -0.4445
 2855TIP3    H130124   0.928   3.319   7.250 -0.6988  1.3389  0.7970
 2855TIP3    H230125   1.022   3.327   7.369  1.0320  1.3310 -0.5332
 2856TIP3   OH230126   2.566   1.906   7.656 -0.4622 -0.4397  0.1341
 2856TIP3    H130127   2.496   1.894   7.593  0.0014 -1.5333 -0.1861
 2856TIP3    H230128   2.629   1.962   7.612 -0.0822 -1.2996 -0.4328
 2857TIP3   OH230129   2.515   3.987   1.485 -0.0295 -0.4400  0.7587
 2857TIP3    H130130   2.480   3.939   1.410  1.3524  0.4837 -0.5370
 2857TIP3    H230131   2.470   4.071   1.482  0.9293  0.0749  0.1630
 2858TIP3   OH230132   5.236   3.513   0.376  0.4024 -0.1425  0.3421
 2858TIP3    H130133   5.276   3.439   0.422  0.9089  0.6051  1.1115
 2858TIP3    H230134   5.251   3.493   0.283 -2.4820 -2.7362  0.2801
 2859TIP3   OH230135   5.849   0.537   0.781  0.8927 -0.1349 -0.1881
 2859TIP3    H130136   5.909   0.502   0.847  2.5558  1.3785 -0.8104
 2859TIP3    H230137   5.903   0.598   0.730 -0.3547 -1.1781 -2.9105
 2860TIP3   OH230138   2.562   4.225   0.600  0.2524  0.8289  0.4091
 2860TIP3    H130139   2.485   4.260   0.555 -1.4530 -0.7847  1.9029
 2860TIP3    H230140   2.577   4.139   0.560 -0.3113  0.0632  1.7772
 2861TIP3   OH230141   3.347   3.622   2.332  0.3070 -0.4957  0.2551
 2861TIP3    H130142   3.304   3.665   2.406 -1.3319  0.3761 -1.1279
 2861TIP3    H230143   3.421   3.679   2.310 -1.0242  0.9795 -0.6711
 2862TIP3   OH230144   6.529   4.852   7.170 -0.2277  0.2427 -0.0946
 2862TIP3    H130145   6.524   4.926   7.230  1.1297  2.7480 -2.7972
 2862TIP3    H230146   6.468   4.787   7.205  0.9923  1.1345  4.2926
 2863TIP3   OH230147   2.986   5.423   8.066  0.2456  0.1299  0.3508
 2863TIP3    H130148   2.961   5.341   8.110 -1.0606  0.5176  0.3599
 2863TIP3    H230149   3.001   5.398   7.975  1.9564 -0.4884  0.7558
 2864TIP3   OH230150   1.813   1.176   1.088 -0.4188 -0.4171 -0.1253
 2864TIP3    H130151   1.898   1.132   1.087  0.0261  0.4033 -1.2885
 2864TIP3    H230152   1.817   1.238   1.015 -1.7308  0.1938  0.2797
 2865TIP3   OH230153   5.017   5.180   7.728  0.5780 -0.8270 -0.1662
 2865TIP3    H130154   4.922   5.180   7.720  0.6576 -2.2188 -1.4451
 2865TIP3    H230155   5.043   5.268   7.701 -0.2967 -0.6106 -0.3459
 2866TIP3   OH230156   6.731   1.618   7.255 -0.3771 -0.2279 -0.4579
 2866TIP3    H130157   6.757   1.710   7.247  0.5219 -0.5228 -1.1768
 2866TIP3    H230158   6.735   1.600   7.349 -3.8187  1.3321  0.1424
 2867TIP3   OH230159   3.028   0.950   0.144 -0.2530  0.0980 -0.0282
 2867TIP3    H130160   2.946   0.965   0.191 -0.1169 -1.0117  0.6109
 2867TIP3    H230161   3.085   0.907   0.208  0.6550  0.3840 -0.6161
 2868TIP3   OH230162   1.516   0.251   0.481 -0.3205 -0.9824 -0.2285
 2868TIP3    H130163   1.594   0.301   0.504 -0.2524 -0.8202 -0.7970
 2868TIP3    H230164   1.551   0.174   0.435 -0.5147 -0.6926 -0.8676
 2869TIP3   OH230165   5.990   1.732   1.105 -0.5504 -0.7441  0.0636
 2869TIP3    H130166   6.045   1.716   1.182  1.9856 -0.1775 -1.4956
 2869TIP3    H230167   5.979   1.645   1.065  0.1791 -0.7305 -0.1862
 2870TIP3   OH230168   6.279   5.358   1.412 -0.6555  0.2455 -0.3517
 2870TIP3    H130169   6.342   5.294   1.445 -0.6609  0.0208 -0.7686
 2870TIP3    H230170   6.332   5.421   1.363 -0.8192 -0.3989 -1.4162
 2871TIP3   OH230171   2.648   2.446   8.781 -0.6944 -0.0278  0.4256
 2871TIP3    H130172   2.646   2.409   8.869  0.6347 -1.3920 -0.0731
 2871TIP3    H230173   2.707   2.522   8.788 -1.8570  0.8436  1.0275
 2872TIP3   OH230174   0.923   5.388   0.622 -0.3585 -0.7051 -0.0450
 2872TIP3    H130175   0.922   5.306   0.672  0.5300 -0.4807  0.3534
 2872TIP3    H230176   0.984   5.444   0.669 -0.2114 -0.1537 -0.8754
 2873TIP3   OH230177   2.575   5.169   8.791  0.5398 -0.1538 -0.0070
 2873TIP3    H130178   2.598   5.082   8.758  1.2319 -0.3383  0.9227
 2873TIP3    H230179   2.639   5.186   8.860  0.7024  1.2967 -0.4853
 2874TIP3   OH230180   2.113   4.818   0.169  0.1183  0.5124 -0.3624
 2874TIP3    H130181   2.174   4.753   0.135  0.3040  0.0983  0.7225
 2874TIP3    H230182   2.164   4.870   0.231 -0.0913  1.5528 -1.0282
 2875TIP3   OH230183   6.245   0.712   7.143 -0.0673  0.2390 -0.5418
 2875TIP3    H130184   6.296   0.755   7.211 -2.3944  0.1872  1.3927
 2875TIP3    H230185   6.184   0.779   7.113 -2.6355 -1.0654  1.3412
 2876TIP3   OH230186   2.883   6.518   0.434 -0.3252  0.2493 -0.1344
 2876TIP3    H130187   2.869   6.613   0.435  0.6512  0.4252 -1.2414
 2876TIP3    H230188   2.836   6.487   0.511 -1.3617  1.5266 -0.2015
 2877TIP3   OH230189   0.870   4.971   0.297 -0.2221 -0.0757 -0.5920
 2877TIP3    H130190   0.863   4.979   0.202  3.0642 -1.0371 -1.0393
 2877TIP3    H230191   0.877   4.877   0.313 -1.0186  0.0547  0.6564
 2878TIP3   OH230192   4.810   3.876   6.656 -0.3942  0.2135  0.0424
 2878TIP3    H130193   4.804   3.943   6.723 -0.1698  1.8162 -1.4625
 2878TIP3    H230194   4.737   3.817   6.674  0.5968 -0.3373  2.5942
 2879TIP3   OH230195   4.641   4.523   1.930 -0.1617  0.5875  0.3953
 2879TIP3    H130196   4.637   4.438   1.974  1.8691  1.3080  2.1601
 2879TIP3    H230197   4.576   4.576   1.975  0.0512  0.5562  0.7448
 2880TIP3   OH230198   1.337   5.678   8.801  0.3832  0.0409 -0.3454
 2880TIP3    H130199   1.263   5.664   8.860  1.0897 -0.8483  0.3655
 2880TIP3    H230200   1.322   5.765   8.765 -1.2593 -0.3187 -0.6077
 2881TIP3   OH230201   3.467   0.408   8.270  0.6597 -0.0621 -0.2936
 2881TIP3    H130202   3.452   0.343   8.201 -0.4110  0.4601 -0.5788
 2881TIP3    H230203   3.554   0.388   8.304  0.3141 -1.7019 -0.3090
 2882TIP3   OH230204   5.928   0.458   7.527 -0.3964 -0.5582 -0.6479
 2882TIP3    H130205   5.977   0.495   7.454 -0.8123  0.8046 -0.2546
 2882TIP3    H230206   5.980   0.481   7.604 -0.5306 -1.0234 -0.4151
 2883TIP3   OH230207   5.948   2.319   6.377 -0.2003 -0.8044 -0.1503
 2883TIP3    H130208   5.889   2.379   6.422  0.6815 -0.3565  0.4484
 2883TIP3    H230209   5.934   2.235   6.419 -1.7913 -1.1703 -1.3131
 2884TIP3   OH230210   6.386   6.077   1.830 -0.0810 -0.5581 -0.2789
 2884TIP3    H130211   6.329   6.015   1.875 -1.4713  0.5413 -0.4335
 2884TIP3    H230212   6.352   6.080   1.740  0.6159 -0.3328 -0.5439
 2885TIP3   OH230213   3.634   2.085   0.986 -0.4643  1.2143  0.0313
 2885TIP3    H130214   3.581   2.093   0.907 -2.1205 -0.6816  0.8684
 2885TIP3    H230215   3.595   2.146   1.048 -0.0665  1.6459 -0.1352
 2886TIP3   OH230216   4.303   2.921   6.431 -1.1396 -0.6489  0.5823
 2886TIP3    H130217   4.284   2.828   6.441 -1.9583 -0.9425 -2.6992
 2886TIP3    H230218   4.219   2.962   6.413 -0.8142  0.8070  2.1080
 2887TIP3   OH230219   6.190   0.946   6.131  0.1329  0.0881  0.3306
 2887TIP3    H130220   6.143   0.873   6.090  0.2691  1.1611 -1.8670
 2887TIP3    H230221   6.121   1.001   6.167 -0.0155 -0.6014  1.1428
 2888TIP3   OH230222   4.028   2.201   2.169  0.4672 -0.7719  0.1071
 2888TIP3    H130223   3.966   2.255   2.218 -0.2334  0.0014 -1.5287
 2888TIP3    H230224   4.012   2.224   2.077  1.7835 -2.0667 -0.4933
 2889TIP3   OH230225   3.833   2.668   0.793  0.3888 -0.0960 -0.0117
 2889TIP3    H130226   3.774   2.594   0.780  0.0195  0.2446 -0.3019
 2889TIP3    H230227   3.788   2.724   0.857  0.2426  0.3180 -0.4673
 2890TIP3   OH230228   6.560   0.109   8.543 -0.4267  0.1121  0.2521
 2890TIP3    H130229   6.503   0.147   8.476  0.3719 -1.8006 -1.6433
 2890TIP3    H230230   6.649   0.127   8.512 -0.0000 -2.9162 -0.6706
 2891TIP3   OH230231   3.274   4.135   0.247  1.1824 -0.5972 -0.2288
 2891TIP3    H130232   3.208   4.145   0.315  1.4664 -0.5686  0.0430
 2891TIP3    H230233   3.326   4.060   0.274  2.5850  0.6426  0.6758
 2892TIP3   OH230234   5.841   4.163   1.637  0.2184 -0.3950  0.0241
 2892TIP3    H130235   5.796   4.107   1.701 -1.4356  0.4943 -0.3032
 2892TIP3    H230236   5.783   4.239   1.627  2.4949  1.5257  0.6267
 2893TIP3   OH230237   5.558   1.049   6.644 -0.2101 -0.4111  0.2073
 2893TIP3    H130238   5.608   1.126   6.673 -0.4159 -0.2191  0.0606
 2893TIP3    H230239   5.622   0.978   6.642  0.0827 -0.1421 -0.0839
 2894TIP3   OH230240   4.850   5.022   0.730 -0.7244 -0.4093  0.1490
 2894TIP3    H130241   4.843   5.118   0.728 -1.4437 -0.4043  1.4633
 2894TIP3    H230242   4.944   5.005   0.737 -0.6822  0.3232  2.1444
 2895TIP3   OH230243   1.788   0.861   1.532 -0.2082  0.2976 -0.0217
 2895TIP3    H130244   1.840   0.794   1.578 -0.0231  0.7809  0.4892
 2895TIP3    H230245   1.758   0.919   1.602 -2.2364 -0.4705 -0.1728
 2896TIP3   OH230246   0.176   6.430   0.895 -0.1720 -0.3724  0.2369
 2896TIP3    H130247   0.180   6.490   0.968 -0.5443  1.3116 -1.0630
 2896TIP3    H230248   0.095   6.380   0.908 -0.9065  0.8185  0.3164
 2897TIP3   OH230249   2.061   5.903   7.362 -0.4926  0.3439 -0.3280
 2897TIP3    H130250   2.067   5.940   7.450  0.5213 -0.7784  0.1068
 2897TIP3    H230251   2.050   5.809   7.376  0.1140  0.0938 -1.3882
 2898TIP3   OH230252   5.161   2.400   1.445 -0.6978  0.8110  0.5008
 2898TIP3    H130253   5.139   2.465   1.378 -1.7067  0.7329  0.7500
 2898TIP3    H230254   5.078   2.357   1.466 -0.1392 -0.2162  0.7064
 2899TIP3   OH230255   1.781   0.877   0.227  0.6895  1.0386 -0.3110
 2899TIP3    H130256   1.872   0.876   0.257  0.4801 -1.9384  0.5736
 2899TIP3    H230257   1.787   0.882   0.132  2.0036 -1.7361 -0.4870
 2900TIP3   OH230258   3.263   2.151   8.562  0.7353 -0.4774 -0.1812
 2900TIP3    H130259   3.297   2.143   8.473 -0.2188 -0.0074 -0.5987
 2900TIP3    H230260   3.340   2.141   8.618  1.6888  1.2605 -1.1131
 2901TIP3   OH230261   3.295   3.529   0.510 -0.0186 -0.7456  0.0209
 2901TIP3    H130262   3.345   3.493   0.437  2.4829  1.4411  0.5358
 2901TIP3    H230263   3.256   3.610   0.476 -1.3613 -1.2301  0.3151
 2902TIP3   OH230264   2.809   4.197   1.818  0.1723 -0.1778 -0.0113
 2902TIP3    H130265   2.839   4.281   1.783  1.2241 -0.5304  0.0107
 2902TIP3    H230266   2.879   4.136   1.798 -0.8711 -1.2226 -0.6451
 2903TIP3   OH230267   5.627   1.468   1.124  0.1131  0.0883  0.1034
 2903TIP3    H130268   5.549   1.502   1.081  0.9356  0.8700 -0.8137
 2903TIP3    H230269   5.637   1.524   1.202 -0.4433 -0.2626  0.4350
 2904TIP3   OH230270   0.672   1.225   0.344  0.2618  0.2393 -0.4415
 2904TIP3    H130271   0.688   1.163   0.273 -1.0388 -1.1171  0.3927
 2904TIP3    H230272   0.728   1.194   0.415  0.0589  0.3882 -0.2153
 2905TIP3   OH230273   0.655   5.731   7.008 -0.1257  0.2551 -0.3435
 2905TIP3    H130274   0.569   5.692   7.026  0.2714 -0.2410  0.5494
 2905TIP3    H230275   0.683   5.767   7.092  0.9354 -0.3960 -0.4006
 2906TIP3   OH230276   1.975   3.205   0.982 -0.0350 -0.4649 -0.2621
 2906TIP3    H130277   2.023   3.277   1.023  0.2591  0.9314 -2.8674
 2906TIP3    H230278   2.029   3.178   0.908 -2.4648  0.1592 -2.4296
 2907TIP3   OH230279   4.587   3.866   7.331  0.2065 -0.7977 -0.2887
 2907TIP3    H130280   4.515   3.844   7.271  1.4010 -2.6047 -1.1633
 2907TIP3    H230281   4.610   3.956   7.309 -2.2973  0.1618  0.6143
 2908TIP3   OH230282   2.315   0.470   8.513  0.0148 -0.4847 -0.4289
 2908TIP3    H130283   2.240   0.511   8.471  0.1406  0.2024  0.0040
 2908TIP3    H230284   2.391   0.519   8.481  0.7585 -3.2454 -3.6054
 2909TIP3   OH230285   0.890   0.974   7.896 -0.5495  0.4214  0.0936
 2909TIP3    H130286   0.884   0.913   7.970 -0.7039 -0.7150 -0.8130
 2909TIP3    H230287   0.944   0.928   7.831 -0.8569  1.1540 -0.7088
 2910TIP3   OH230288   4.728   6.518   1.546 -0.1055 -0.2092  0.1241
 2910TIP3    H130289   4.670   6.504   1.621  1.3382 -2.0241  0.9727
 2910TIP3    H230290   4.781   6.594   1.571 -1.8634  1.3283 -0.5650
 2911TIP3   OH230291   3.439   1.918   8.541  0.9830 -0.3077 -0.3742
 2911TIP3    H130292   3.450   1.824   8.532 -1.6752 -0.7683  0.4434
 2911TIP3    H230293   3.390   1.929   8.622 -0.8833  1.5789 -1.6482
 2912TIP3   OH230294   2.630   4.492   7.335  0.5875 -0.2101  0.4447
 2912TIP3    H130295   2.576   4.483   7.414  0.8614 -0.2818  0.6239
 2912TIP3    H230296   2.715   4.457   7.360  0.3896 -1.1911 -0.1882
 2913TIP3   OH230297   0.945   4.949   7.676 -0.4352 -0.3156 -0.2399
 2913TIP3    H130298   0.913   5.031   7.714 -1.0050 -0.4723 -0.3822
 2913TIP3    H230299   0.982   4.975   7.592 -0.3561 -0.1658 -0.1599
 2914TIP3   OH230300   0.203   1.848   0.017 -0.5192 -0.0045 -0.0605
 2914TIP3    H130301   0.132   1.905   0.047 -0.3016  0.3930 -0.2843
 2914TIP3    H230302   0.281   1.903   0.022 -0.2685 -0.3614 -0.0554
 2915TIP3   OH230303   2.490   5.968   7.461  0.2626 -0.5896 -0.0739
 2915TIP3    H130304   2.523   5.961   7.551 -0.6038 -1.2558  0.2041
 2915TIP3    H230305   2.433   5.892   7.450 -1.2055  0.5214 -0.5081
 2916TIP3   OH230306   5.790   6.464   6.642  0.2544 -0.0797 -0.3531
 2916TIP3    H130307   5.765   6.436   6.554  0.7231  1.5317 -1.0327
 2916TIP3    H230308   5.871   6.513   6.630  0.5116 -0.1216  1.0300
 2917TIP3   OH230309   3.382   0.957   0.623 -0.8393  0.0758  0.5879
 2917TIP3    H130310   3.430   0.999   0.552 -1.9384 -0.0400 -0.2545
 2917TIP3    H230311   3.374   0.866   0.596 -0.0348 -0.3059  1.5560
 2918TIP3   OH230312   2.293   0.062   6.627 -0.0239  0.2314  0.4604
 2918TIP3    H130313   2.369   0.053   6.684  1.1490 -0.4590 -1.1230
 2918TIP3    H230314   2.330   0.080   6.541 -1.4896 -2.5798 -0.8963
 2919TIP3   OH230315   4.217   6.298   1.731  0.4676 -0.2045  0.4810
 2919TIP3    H130316   4.237   6.219   1.680 -0.9978 -0.1063 -0.3123
 2919TIP3    H230317   4.273   6.292   1.808 -0.0311 -2.3466  0.7441
 2920TIP3   OH230318   6.304   5.852   8.040 -0.4025  0.1101  0.3189
 2920TIP3    H130319   6.350   5.892   7.967 -0.8926 -1.9174 -1.1901
 2920TIP3    H230320   6.356   5.876   8.117  0.8285  1.2872 -0.8224
 2921TIP3   OH230321   1.591   5.696   7.808  0.3563  0.8370 -0.2505
 2921TIP3    H130322   1.680   5.692   7.773  0.1984  2.4677 -0.9079
 2921TIP3    H230323   1.566   5.788   7.801 -1.4377  0.3941 -0.1811
 2922TIP3   OH230324   2.080   3.629   6.525  0.0919 -0.6163 -0.2243
 2922TIP3    H130325   2.084   3.718   6.557  1.2304 -0.1469 -1.5301
 2922TIP3    H230326   2.154   3.585   6.568 -0.4174 -0.9093  0.3544
 2923TIP3   OH230327   1.444   6.775   1.083 -0.1248 -0.3111 -0.1393
 2923TIP3    H130328   1.379   6.720   1.040 -2.1833  0.9229  1.2065
 2923TIP3    H230329   1.449   6.853   1.028  0.9151 -0.7650 -0.7088
 2924TIP3   OH230330   0.983   4.332   1.540 -0.5633 -0.2721  0.2775
 2924TIP3    H130331   1.001   4.407   1.597  0.4613  0.0584 -0.4645
 2924TIP3    H230332   0.890   4.341   1.518 -0.7993 -0.0140  1.3171
 2925TIP3   OH230333   2.970   3.998   8.409 -0.1528  0.6456  0.0609
 2925TIP3    H130334   3.011   3.940   8.344  0.2370 -0.1899  1.0322
 2925TIP3    H230335   3.043   4.033   8.459 -0.3886  2.0142 -0.5192
 2926TIP3   OH230336   0.198   6.743   7.204 -0.1127 -0.1861 -0.2321
 2926TIP3    H130337   0.236   6.662   7.238 -0.4224 -0.5749 -0.7959
 2926TIP3    H230338   0.268   6.808   7.212 -0.2705 -0.1721  1.4381
 2927TIP3   OH230339   4.641   4.640   7.691 -0.0748 -0.2474  0.1187
 2927TIP3    H130340   4.612   4.607   7.776 -0.9760  1.5198  0.5542
 2927TIP3    H230341   4.680   4.564   7.647 -0.5123 -1.4315  1.6964
 2928TIP3   OH230342   4.171   5.865   7.938  0.3334 -0.2547 -0.2302
 2928TIP3    H130343   4.117   5.935   7.901 -2.4692 -1.8152  0.5851
 2928TIP3    H230344   4.200   5.899   8.023 -1.7874 -0.3008  0.5863
 2929TIP3   OH230345   0.579   2.361   6.625 -0.4828  0.2550  0.3181
 2929TIP3    H130346   0.653   2.316   6.665 -0.7770 -0.6066 -0.0590
 2929TIP3    H230347   0.590   2.453   6.649  0.6690  0.1329  0.3096
 2930TIP3   OH230348   6.030   2.786   8.674 -0.2662 -0.0452 -1.0659
 2930TIP3    H130349   6.016   2.692   8.670  2.8530 -0.5646 -1.7197
 2930TIP3    H230350   6.124   2.798   8.663 -0.3366  3.0834  0.4334
 2931TIP3   OH230351   5.395   0.401   6.658  0.1252  0.2014 -0.1721
 2931TIP3    H130352   5.395   0.460   6.583  0.0057  0.1862 -0.1835
 2931TIP3    H230353   5.333   0.440   6.720  1.1591  0.9052  0.4624
 2932TIP3   OH230354   6.555   5.011   0.215  0.2918 -0.4523  0.3071
 2932TIP3    H130355   6.627   5.068   0.188 -0.7458  0.9032  0.3205
 2932TIP3    H230356   6.484   5.071   0.237 -0.7625 -1.7565  0.5518
 2933TIP3   OH230357   6.546   3.303   0.832  0.3700  0.0772  0.0076
 2933TIP3    H130358   6.495   3.363   0.887  0.3985 -1.7426  2.1854
 2933TIP3    H230359   6.624   3.353   0.809  0.8888  0.6153  2.6236
 2934TIP3   OH230360   5.478   0.071   7.666 -0.0878 -0.0663  0.7271
 2934TIP3    H130361   5.474  -0.015   7.625  1.8760  0.3012 -0.3889
 2934TIP3    H230362   5.533   0.058   7.744 -1.5102 -0.2091  1.7318
 2935TIP3   OH230363   0.040   0.828   1.698  0.1343  0.1304  0.1272
 2935TIP3    H130364   0.078   0.849   1.612 -0.5557 -1.2694 -0.5549
 2935TIP3    H230365  -0.052   0.854   1.690  0.0355 -0.1391  0.3881
 2936TIP3   OH230366   4.104   1.403   6.615 -0.2295  0.5537  0.2614
 2936TIP3    H130367   4.173   1.349   6.652 -0.0441  0.9293  0.4637
 2936TIP3    H230368   4.023   1.355   6.634  0.0510 -0.5243 -1.0606
 2937TIP3   OH230369   2.257   1.100   6.111  0.4687  0.4383 -0.3434
 2937TIP3    H130370   2.280   1.015   6.149  3.4656  0.6596 -1.3921
 2937TIP3    H230371   2.207   1.144   6.180  0.1555 -1.5622  0.8019
 2938TIP3   OH230372   5.836   3.491   2.446  0.3033  0.5423  0.0649
 2938TIP3    H130373   5.926   3.499   2.480  0.9734  0.3364 -1.5610
 2938TIP3    H230374   5.812   3.400   2.464  0.6883  0.4036 -0.1081
 2939TIP3   OH230375   1.512   4.232   0.431  0.1139  0.5833 -0.1569
 2939TIP3    H130376   1.464   4.182   0.497 -0.8475  0.8316 -0.6393
 2939TIP3    H230377   1.447   4.294   0.397  0.6068  0.5208 -1.2643
 2940TIP3   OH230378   0.043   1.203   0.602  0.5759  0.1287  0.1577
 2940TIP3    H130379   0.121   1.153   0.626 -0.1056  0.0894  2.6217
 2940TIP3    H230380   0.073   1.294   0.597  1.0018 -0.0248 -0.1743
 2941TIP3   OH230381   6.161   1.991   8.911  0.2075  0.7461 -0.1017
 2941TIP3    H130382   6.224   1.988   8.839 -0.1983  1.1989 -0.4810
 2941TIP3    H230383   6.203   2.043   8.979  0.8261 -0.1499  0.2291
 2942TIP3   OH230384   3.342   4.013   2.372  0.4268  0.5263  0.1529
 2942TIP3    H130385   3.377   4.059   2.295  3.6140 -1.6692  0.1251
 2942TIP3    H230386   3.369   4.066   2.446  1.1103  0.4780 -0.0528
 2943TIP3   OH230387   1.490   5.702   2.053  0.7450 -0.4894  0.0363
 2943TIP3    H130388   1.504   5.636   2.120  0.4058 -0.4690  0.1274
 2943TIP3    H230389   1.520   5.784   2.094 -0.5621 -0.2692  0.6067
 2944TIP3   OH230390   2.078   1.895   2.174  0.3137 -0.5300 -0.2926
 2944TIP3    H130391   2.114   1.813   2.206 -0.1336 -1.3357 -1.7456
 2944TIP3    H230392   1.988   1.896   2.206  1.2494  1.1027  2.6566
 2945TIP3   OH230393   1.747   4.210   8.554  0.5289 -0.4785  0.0182
 2945TIP3    H130394   1.670   4.234   8.605  1.1416 -2.4792  2.0799
 2945TIP3    H230395   1.738   4.258   8.472 -2.3314  0.1680  0.6046
 2946TIP3   OH230396   3.252   3.595   7.442  0.2308 -0.4493 -0.4648
 2946TIP3    H130397   3.281   3.637   7.522  0.4763 -1.3171 -0.0855
 2946TIP3    H230398   3.257   3.664   7.375  1.8808 -0.2186 -0.1468
 2947TIP3   OH230399   1.417   5.722   0.738  0.4787 -0.2972  0.1482
 2947TIP3    H130400   1.363   5.739   0.816  0.7096  2.7420 -0.2063
 2947TIP3    H230401   1.507   5.718   0.772  0.6866  1.9927  0.0598
 2948TIP3   OH230402   3.148   5.137   0.814 -0.1096 -0.2577  0.0763
 2948TIP3    H130403   3.237   5.109   0.838 -0.5388 -1.8170 -0.0188
 2948TIP3    H230404   3.106   5.157   0.897  0.6860  1.7310  0.0447
 2949TIP3   OH230405   3.595   3.441   1.177 -0.1548 -0.0464  0.2122
 2949TIP3    H130406   3.532   3.439   1.105 -0.4984 -0.8794  0.5310
 2949TIP3    H230407   3.584   3.528   1.216 -0.3393  0.2144 -0.4060
 2950TIP3   OH230408   3.623   4.539   7.735 -0.1537  0.2337  0.4205
 2950TIP3    H130409   3.608   4.579   7.649  1.7583 -1.6732 -0.9170
 2950TIP3    H230410   3.579   4.454   7.729  0.3169 -0.0680  1.1684
 2951TIP3   OH230411   5.568   0.801   1.905  0.2469 -0.5437  0.0133
 2951TIP3    H130412   5.624   0.730   1.936 -0.1047 -1.0411 -0.4729
 2951TIP3    H230413   5.491   0.798   1.963  0.7692  0.2302  0.7723
 2952TIP3   OH230414   0.172   3.791   0.760 -0.3517 -0.1456  0.2646
 2952TIP3    H130415   0.247   3.732   0.763  0.3651  0.6220 -1.3683
 2952TIP3    H230416   0.126   3.767   0.680 -0.2701  1.2191 -0.2194
 2953TIP3   OH230417   1.435   4.891   0.332 -0.2977  0.0849  0.3295
 2953TIP3    H130418   1.488   4.938   0.396  0.5888 -0.2581 -0.1431
 2953TIP3    H230419   1.427   4.952   0.258  0.0173 -0.1316  0.1187
 2954TIP3   OH230420   0.831   0.662   7.368 -0.3416 -0.5626 -0.2263
 2954TIP3    H130421   0.855   0.691   7.280 -0.2918  0.6488  0.1663
 2954TIP3    H230422   0.899   0.699   7.425 -0.8270 -0.6464  0.4200
 2955TIP3   OH230423   6.048   3.545   2.108  0.0348  0.6932 -0.8445
 2955TIP3    H130424   6.136   3.546   2.146 -0.5229  0.1552  0.5334
 2955TIP3    H230425   6.023   3.637   2.103  0.2336  0.7906 -0.1443
 2956TIP3   OH230426   5.663   2.764   7.874  0.0629 -0.0392  0.0671
 2956TIP3    H130427   5.591   2.723   7.922  0.0518  0.1347  0.2046
 2956TIP3    H230428   5.738   2.707   7.889  0.3903  0.6947  1.4116
 2957TIP3   OH230429   3.791   6.472   7.270  0.6115 -0.1436  0.0080
 2957TIP3    H130430   3.800   6.460   7.365 -1.8483 -1.3900  0.1505
 2957TIP3    H230431   3.761   6.388   7.237  3.0578 -0.2979 -2.2300
 2958TIP3   OH230432   1.435   6.383   1.025 -0.2031 -0.1179  0.3170
 2958TIP3    H130433   1.397   6.311   0.975  3.2503 -3.0643  1.5835
 2958TIP3    H230434   1.389   6.381   1.109 -1.4818  0.5587 -0.3306
 2959TIP3   OH230435   3.799   3.532   0.475 -0.2184  0.2423  0.2995
 2959TIP3    H130436   3.835   3.569   0.394 -1.7207  1.4646  0.1584
 2959TIP3    H230437   3.706   3.553   0.472 -0.8293 -2.0576  1.0838
 2960TIP3   OH230438   0.579   0.958   7.616  0.2612 -0.1170 -0.1905
 2960TIP3    H130439   0.527   0.900   7.561  0.7729  0.3098 -1.1468
 2960TIP3    H230440   0.657   0.907   7.639  1.4147  0.6123 -2.2180
 2961TIP3   OH230441   0.923   2.023   1.366 -0.2398 -0.5604 -0.4330
 2961TIP3    H130442   0.876   2.104   1.390 -1.1337 -1.2443  0.1886
 2961TIP3    H230443   0.878   1.992   1.288 -0.4176 -0.8735 -0.2087
 2962TIP3   OH230444   4.293   0.521   1.095  0.3619  0.6830  0.0547
 2962TIP3    H130445   4.206   0.485   1.113 -0.6361  2.1794 -1.4469
 2962TIP3    H230446   4.301   0.515   0.999  1.2582  1.9669  0.0366
 2963TIP3   OH230447   6.268   4.370   7.078  0.0041  0.0102 -0.7553
 2963TIP3    H130448   6.192   4.378   7.135  0.6455  3.2895 -0.1630
 2963TIP3    H230449   6.236   4.390   6.990  0.2740  2.6250 -0.3350
 2964TIP3   OH230450   0.669   0.474   7.693  0.3552 -0.5393  0.2839
 2964TIP3    H130451   0.659   0.431   7.778 -3.6745 -0.1121  0.2310
 2964TIP3    H230452   0.680   0.566   7.713  0.6751 -0.5953  0.3612
 2965TIP3   OH230453   6.155   4.155   1.539 -0.2898 -0.1207  0.4023
 2965TIP3    H130454   6.062   4.172   1.525 -0.3015 -0.5681 -0.0837
 2965TIP3    H230455   6.185   4.112   1.459  0.0682 -1.0434  1.0071
 2966TIP3   OH230456   1.273   3.527   0.928 -0.1155 -0.0215 -0.1747
 2966TIP3    H130457   1.358   3.526   0.885  0.1232  2.0265  0.1660
 2966TIP3    H230458   1.256   3.619   0.946 -1.7854 -0.5115  1.0051
 2967TIP3   OH230459   4.998   3.646   1.052 -0.3667 -0.7286  0.1303
 2967TIP3    H130460   4.990   3.610   0.964 -0.7397  0.3664 -0.3106
 2967TIP3    H230461   5.085   3.620   1.081 -0.9004 -2.6069  0.1587
 2968TIP3   OH230462   0.746   1.600   1.800 -0.0197 -0.2656 -0.3039
 2968TIP3    H130463   0.740   1.597   1.896 -2.1643 -1.6779 -0.4158
 2968TIP3    H230464   0.784   1.516   1.776  1.1874  0.3716 -0.7032
 2969TIP3   OH230465   3.754   0.236   7.685 -0.1807 -0.3698 -0.0748
 2969TIP3    H130466   3.665   0.268   7.701 -0.3244 -0.0680 -1.3126
 2969TIP3    H230467   3.810   0.308   7.712 -0.4884  0.9008 -2.4801
 2970TIP3   OH230468   4.583   2.902   1.439  0.0748 -0.0776  0.1650
 2970TIP3    H130469   4.665   2.902   1.489 -0.7572  1.1506  1.6159
 2970TIP3    H230470   4.514   2.902   1.506 -1.0951  0.2219 -1.0050
 2971TIP3   OH230471   3.945   6.458   8.041  0.0810 -0.7002  0.1097
 2971TIP3    H130472   3.988   6.416   8.114  1.3058 -0.4462 -0.4456
 2971TIP3    H230473   3.976   6.549   8.043 -0.6976 -0.4116 -0.1036
 2972TIP3   OH230474   6.194   0.510   1.140  0.7665 -0.0581  0.1458
 2972TIP3    H130475   6.194   0.414   1.142 -0.5967 -0.0681  0.1723
 2972TIP3    H230476   6.267   0.535   1.197  1.5652 -1.0711 -0.3958
 2973TIP3   OH230477   1.595   2.969   7.747  0.2809  0.6640  0.1276
 2973TIP3    H130478   1.628   2.885   7.717  0.6932 -0.0149  2.2859
 2973TIP3    H230479   1.519   2.987   7.692 -0.3389 -1.5508  0.1972
 2974TIP3   OH230480   6.553   5.390   8.853 -0.1830 -0.4615  0.0721
 2974TIP3    H130481   6.508   5.320   8.900 -1.5726  1.3024  1.4898
 2974TIP3    H230482   6.483   5.444   8.817  0.7765  1.2245  0.6113
 2975TIP3   OH230483   3.117   3.056   0.268 -0.1414 -0.0631  0.3431
 2975TIP3    H130484   3.201   3.020   0.296 -0.0540  0.0789  0.2652
 2975TIP3    H230485   3.067   2.980   0.237  1.2519  0.1993 -2.9773
 2976TIP3   OH230486   1.763   2.266   7.660 -0.1763 -0.2032  0.1965
 2976TIP3    H130487   1.728   2.276   7.572 -0.9446  1.0541  0.6142
 2976TIP3    H230488   1.715   2.331   7.712 -0.1570 -1.3223  1.6574
 2977TIP3   OH230489   3.835   2.818   1.474  0.2750  0.4188  0.0064
 2977TIP3    H130490   3.768   2.834   1.408 -0.3260 -1.7729  0.0274
 2977TIP3    H230491   3.799   2.858   1.554  1.4358  3.9672 -1.0337
 2978TIP3   OH230492   5.679   2.242   1.117 -0.1629  0.4029  0.5945
 2978TIP3    H130493   5.594   2.285   1.123 -0.0753  0.4532  1.5539
 2978TIP3    H230494   5.692   2.228   1.023 -1.0116  0.8219  0.4070
 2979TIP3   OH230495   0.988   2.830   7.960  0.2285 -0.0886  0.2295
 2979TIP3    H130496   0.966   2.841   8.053 -1.0123  0.2555 -0.0889
 2979TIP3    H230497   0.907   2.801   7.919  0.2088  1.6127 -1.0663
 2980TIP3   OH230498   4.038   5.755   0.067  0.2708  0.3777 -0.0512
 2980TIP3    H130499   4.007   5.782  -0.019  0.8261 -1.9583 -1.0755
 2980TIP3    H230500   4.029   5.659   0.066  3.1067  0.0106  1.3189
 2981TIP3   OH230501   6.450   5.196   1.555 -0.3277 -0.1564  0.3276
 2981TIP3    H130502   6.472   5.262   1.620 -0.1014 -0.5336  0.6416
 2981TIP3    H230503   6.516   5.127   1.568 -0.2781 -0.2354 -0.2999
 2982TIP3   OH230504   0.996   5.619   7.860  0.0816 -0.1627  0.0067
 2982TIP3    H130505   1.019   5.553   7.795  1.1757  0.4842 -0.2826
 2982TIP3    H230506   1.028   5.583   7.943  0.8488  0.0864 -0.1793
 2983TIP3   OH230507   3.189   1.447   0.205 -0.1166 -0.2020  0.1427
 2983TIP3    H130508   3.168   1.454   0.298  0.3098 -0.2729  0.2457
 2983TIP3    H230509   3.141   1.369   0.175 -1.3300  0.5716 -0.0096
 2984TIP3   OH230510   5.756   3.963   1.267  0.4098  0.3250 -0.9447
 2984TIP3    H130511   5.689   3.950   1.334  1.3783 -0.6717 -0.1324
 2984TIP3    H230512   5.750   4.056   1.245 -0.0875  0.6236  0.3560
 2985TIP3   OH230513   3.173   4.524   8.714 -0.0221 -0.4221 -0.8116
 2985TIP3    H130514   3.123   4.588   8.766  0.2310 -1.2816  0.5592
 2985TIP3    H230515   3.264   4.549   8.727  0.1935 -1.9356  1.0645
 2986TIP3   OH230516   4.114   6.119   7.903  0.4565 -0.5748 -0.0989
 2986TIP3    H130517   4.164   6.158   7.975  1.1573 -2.7037  0.6591
 2986TIP3    H230518   4.145   6.164   7.825  0.7594  0.7773  0.7778
 2987TIP3   OH230519   4.437   1.723   8.381 -0.0820  0.3095  0.2898
 2987TIP3    H130520   4.495   1.787   8.340  0.3896  0.0636  0.5581
 2987TIP3    H230521   4.383   1.691   8.309 -0.5437  1.2318  0.2155
 2988TIP3   OH230522   1.378   3.887   7.997  0.4883  0.2262 -0.1408
 2988TIP3    H130523   1.328   3.913   7.919 -0.6172 -1.3656 -0.0052
 2988TIP3    H230524   1.314   3.841   8.052  1.7133 -0.3641  0.8266
 2989TIP3   OH230525   3.760   2.348   1.785  0.2725  0.7803 -0.6192
 2989TIP3    H130526   3.701   2.276   1.761  1.8844 -1.1451  0.7910
 2989TIP3    H230527   3.703   2.417   1.819 -1.2667 -0.3231 -0.8668
 2990TIP3   OH230528   1.561   4.602   8.479  0.1587 -0.2202 -0.3814
 2990TIP3    H130529   1.518   4.609   8.394 -1.8487  2.3794  0.7050
 2990TIP3    H230530   1.507   4.541   8.529 -0.4666  0.6022 -0.0326
 2991TIP3   OH230531   4.938   6.750   0.544  0.5278 -0.2843  0.3228
 2991TIP3    H130532   4.915   6.721   0.632 -1.3255 -1.7443 -0.5777
 2991TIP3    H230533   4.993   6.679   0.509  1.0763  0.1862  0.2150
 2992TIP3   OH230534   1.440   5.398   8.783  0.2962 -0.2007  0.6042
 2992TIP3    H130535   1.401   5.376   8.699  0.5995 -1.9869  0.9027
 2992TIP3    H230536   1.413   5.489   8.799 -2.1367 -0.7514 -0.0588
 2993TIP3   OH230537   5.352   5.099   2.085  0.0678 -0.3296  0.0772
 2993TIP3    H130538   5.351   5.155   2.162 -4.1820  0.4396 -0.3224
 2993TIP3    H230539   5.419   5.034   2.104  1.8728  2.0610  2.6466
 2994TIP3   OH230540   6.682   3.203   2.590 -0.1404 -0.3579  0.0031
 2994TIP3    H130541   6.605   3.230   2.639  0.5367  1.1905  0.2739
 2994TIP3    H230542   6.690   3.109   2.607 -2.9305 -0.9651 -1.4382
 2995TIP3   OH230543   1.590   0.604   1.363  0.4269  0.0080 -0.3739
 2995TIP3    H130544   1.533   0.575   1.292  0.7487 -1.2331 -0.1388
 2995TIP3    H230545   1.537   0.668   1.411 -0.9874 -1.4916  0.1484
 2996TIP3   OH230546   1.091   1.045   6.638 -0.2250 -0.5173 -0.1988
 2996TIP3    H130547   1.008   1.090   6.650 -0.0349  0.2680 -1.6064
 2996TIP3    H230548   1.150   1.111   6.601  0.7808 -1.2768 -0.0105
 2997TIP3   OH230549   5.813   6.193   1.458 -0.6599  0.3733  0.4782
 2997TIP3    H130550   5.814   6.099   1.441 -1.1846  0.6874 -1.5423
 2997TIP3    H230551   5.769   6.202   1.542 -0.7191 -1.1645  0.6419
 2998TIP3   OH230552   1.526   0.348   7.384 -0.1922 -0.3067 -0.5229
 2998TIP3    H130553   1.548   0.294   7.308  1.2474  0.1509 -0.4614
 2998TIP3    H230554   1.600   0.408   7.394 -1.1981  0.8844  0.1374
 2999TIP3   OH230555   4.438   0.447   8.518  0.1599 -0.2190  0.5887
 2999TIP3    H130556   4.439   0.455   8.613  1.7125  0.7477  0.5267
 2999TIP3    H230557   4.525   0.413   8.496  0.1274  0.3732 -0.5446
 3000TIP3   OH230558   2.142   2.935   0.160  0.1334  0.5482  0.8579
 3000TIP3    H130559   2.062   2.894   0.194 -1.3801  1.5521 -1.2227
 3000TIP3    H230560   2.137   3.026   0.191 -1.0220  1.3478 -1.4266
 3001TIP3   OH230561   4.340   6.514   7.653  0.7459 -0.1905  0.4167
 3001TIP3    H130562   4.320   6.531   7.745 -1.3350  0.2759 -0.0771
 3001TIP3    H230563   4.391   6.433   7.655  2.9780  1.1328  2.1214
 3002TIP3   OH230564   2.676   4.586   0.173  0.0313 -0.0492  0.0503
 3002TIP3    H130565   2.734   4.572   0.248  0.3250 -1.6781 -0.4433
 3002TIP3    H230566   2.617   4.511   0.174 -0.2186  0.1213 -1.1302
 3003TIP3   OH230567   2.451   4.163   7.805  0.0558 -0.0913  0.3519
 3003TIP3    H130568   2.481   4.080   7.842 -2.3396 -1.6530 -0.9834
 3003TIP3    H230569   2.532   4.209   7.781  1.4901 -1.3403  2.4464
 3004TIP3   OH230570   0.879   1.694   8.426 -0.2936  0.2951 -0.6257
 3004TIP3    H130571   0.851   1.778   8.461  0.5666  1.2268 -2.0787
 3004TIP3    H230572   0.883   1.636   8.503  1.6570  2.2702  0.8794
 3005TIP3   OH230573   3.012   1.219   0.270 -0.4595 -0.5899  0.1072
 3005TIP3    H130574   2.921   1.249   0.267 -0.0860  0.5478 -0.3241
 3005TIP3    H230575   3.048   1.259   0.349  0.3149  0.9655 -0.9826
 3006TIP3   OH230576   1.314   6.122   8.142  0.4607  0.1011 -0.8135
 3006TIP3    H130577   1.391   6.108   8.087 -0.0299 -0.0114 -1.4919
 3006TIP3    H230578   1.314   6.216   8.159  1.1122  0.0084 -0.2424
 3007TIP3   OH230579   3.840   5.999   7.050 -0.6495  0.5260 -0.8140
 3007TIP3    H130580   3.929   6.031   7.059 -0.0919 -0.8182 -1.2808
 3007TIP3    H230581   3.832   5.974   6.958 -2.1456  2.3892 -1.2386
 3008TIP3   OH230582   6.059   3.411   1.286 -1.0382 -0.3972 -0.2837
 3008TIP3    H130583   6.087   3.339   1.342  0.5627 -1.4670 -2.3361
 3008TIP3    H230584   5.964   3.412   1.293 -1.1286 -2.9256 -0.4410
 3009TIP3   OH230585   3.646   1.604   7.835 -0.4351  0.4481 -0.1288
 3009TIP3    H130586   3.640   1.610   7.931  1.2181 -0.1992  0.0443
 3009TIP3    H230587   3.656   1.694   7.806  0.7482  0.5219  0.4611
 3010TIP3   OH230588   5.039   6.395   0.007 -0.0138 -0.1105  0.1758
 3010TIP3    H130589   5.112   6.422   0.063 -1.2016  0.2448  1.6384
 3010TIP3    H230590   4.963   6.437   0.046 -1.4417 -2.7471  0.4424
 3011TIP3   OH230591   3.963   5.449   2.592  0.0541 -0.5127 -0.1189
 3011TIP3    H130592   3.891   5.404   2.548 -0.1367 -0.1235 -0.2142
 3011TIP3    H230593   4.036   5.443   2.530 -0.2711  0.2035 -0.5807
 3012TIP3   OH230594   2.671   3.656   8.401 -0.3668 -0.2807  0.0856
 3012TIP3    H130595   2.722   3.737   8.398 -0.3423 -0.3229 -1.1761
 3012TIP3    H230596   2.580   3.684   8.408 -0.3977 -0.1166 -0.8551
 3013TIP3   OH230597   3.796   5.667   8.276 -0.4485 -0.6467  0.1916
 3013TIP3    H130598   3.863   5.690   8.341  0.7103  0.8817 -1.4523
 3013TIP3    H230599   3.742   5.746   8.268 -0.6218 -0.8402 -0.6392
 3014TIP3   OH230600   0.054   0.179   1.124 -0.1093  0.1757  0.2440
 3014TIP3    H130601   0.021   0.216   1.205  3.2214  2.0197  0.9076
 3014TIP3    H230602  -0.012   0.201   1.059 -1.8537  0.4870  2.0269
 3015TIP3   OH230603   0.261   0.758   0.160  0.1738  0.5656  0.0942
 3015TIP3    H130604   0.295   0.749   0.071 -1.3016 -1.6380 -0.3482
 3015TIP3    H230605   0.331   0.725   0.216  0.1080 -0.6801 -0.5167
 3016TIP3   OH230606   1.797   6.399   8.016 -0.2853  0.4154  0.3323
 3016TIP3    H130607   1.771   6.382   8.107  1.2789  1.6602  1.0599
 3016TIP3    H230608   1.871   6.341   8.001  0.1389  0.9785  0.2225
 3017TIP3   OH230609   1.788   3.819   0.035 -0.3394 -0.3492 -0.8629
 3017TIP3    H130610   1.831   3.880   0.095  0.0583 -0.2305 -1.2622
 3017TIP3    H230611   1.855   3.753   0.015 -0.5354 -0.5088 -1.0098
 3018TIP3   OH230612   1.606   4.894   7.498  0.1745  0.3985 -0.0060
 3018TIP3    H130613   1.601   4.837   7.421 -2.4493 -1.2213  1.2145
 3018TIP3    H230614   1.521   4.938   7.501  0.8102  1.6087  1.1109
 3019TIP3   OH230615   0.021   0.157   0.239 -0.3762 -0.7456 -0.3173
 3019TIP3    H130616   0.046   0.191   0.153  0.3039  2.1144  0.8778
 3019TIP3    H230617  -0.075   0.164   0.241 -0.4889 -1.9122 -1.2293
 3020TIP3   OH230618   4.346   4.064   7.769  0.0794  0.1243  0.0120
 3020TIP3    H130619   4.394   4.049   7.688 -0.7029  0.1616 -0.4729
 3020TIP3    H230620   4.398   4.020   7.837 -0.2251 -1.5699 -0.7960
 3021TIP3   OH230621   6.370   2.651   8.852 -0.2486  0.2507  0.2692
 3021TIP3    H130622   6.386   2.721   8.915  3.1882 -0.5435  0.4358
 3021TIP3    H230623   6.348   2.575   8.905  1.6704 -0.1675  0.5325
 3022TIP3   OH230624   3.647   3.667   1.845  0.1953  0.4837 -0.1216
 3022TIP3    H130625   3.695   3.668   1.928  3.2428  0.9647 -1.7268
 3022TIP3    H230626   3.621   3.576   1.833 -0.8664  0.5180  1.6048
 3023TIP3   OH230627   4.419   6.567   0.293  0.7779 -0.0868 -0.6058
 3023TIP3    H130628   4.482   6.550   0.364 -0.2804  0.9729  0.6438
 3023TIP3    H230629   4.474   6.594   0.219  2.0598 -3.1739 -0.9116
 3024TIP3   OH230630   6.186   0.516   0.627  0.3634  0.2702 -0.0847
 3024TIP3    H130631   6.262   0.463   0.604  1.1598  1.2428  0.2459
 3024TIP3    H230632   6.151   0.474   0.705  1.0088  0.2517  0.2007
 3025TIP3   OH230633   5.119   2.963   1.589 -0.7558 -0.4098  0.0333
 3025TIP3    H130634   5.149   2.960   1.679 -1.0043  0.3764  0.1476
 3025TIP3    H230635   5.098   3.055   1.573  1.7103 -0.0340 -1.6200
 3026TIP3   OH230636   6.509   5.356   1.769  0.8692  0.3456  0.1151
 3026TIP3    H130637   6.531   5.450   1.770 -0.2824  0.6340  0.1700
 3026TIP3    H230638   6.427   5.351   1.819  0.9850 -0.7142  0.2100
 3027TIP3   OH230639   5.908   2.233   7.351 -0.3422  0.6760  0.6092
 3027TIP3    H130640   5.920   2.326   7.373 -0.4793  0.7621  0.3156
 3027TIP3    H230641   5.840   2.203   7.412 -1.5465  1.1997 -0.4358
 3028TIP3   OH230642   5.468   1.907   0.150  0.0854 -0.7028  0.6223
 3028TIP3    H130643   5.417   1.899   0.070 -0.4406  1.0629  0.7190
 3028TIP3    H230644   5.534   1.838   0.145  1.0202  0.2370 -2.0561
 3029TIP3   OH230645   1.146   0.116   8.845 -0.3952  0.4720  0.2372
 3029TIP3    H130646   1.124   0.079   8.930 -0.8456 -1.5876 -0.7078
 3029TIP3    H230647   1.160   0.209   8.862 -2.6312  0.5401  2.1676
 3030TIP3   OH230648   1.914   1.946   7.956 -0.4186  0.1614 -0.5886
 3030TIP3    H130649   1.875   1.974   7.874 -2.2580  0.4945  0.3414
 3030TIP3    H230650   1.893   2.015   8.018  0.8364 -0.1368  0.2207
 3031TIP3   OH230651   0.989   3.936   7.735 -0.3472 -0.0320  0.2178
 3031TIP3    H130652   0.902   3.908   7.763 -0.4346  1.7470  1.9649
 3031TIP3    H230653   0.981   4.031   7.720  1.1736  0.1054  0.0407
 3032TIP3   OH230654   4.013   5.296   7.145  0.0618  0.0912  0.2430
 3032TIP3    H130655   4.097   5.250   7.143  0.8846  1.5594 -0.1531
 3032TIP3    H230656   3.974   5.278   7.059 -0.1362 -0.7515  0.5000
 3033TIP3   OH230657   5.435   3.232   7.725  0.1788 -0.1635 -0.1649
 3033TIP3    H130658   5.406   3.195   7.809  1.6181 -1.5434 -0.2179
 3033TIP3    H230659   5.449   3.155   7.669  0.8596  0.6354 -1.1213
 3034TIP3   OH230660   4.064   1.983   7.174  0.7017 -0.8903 -0.0682
 3034TIP3    H130661   3.970   1.974   7.192  0.5215  0.7223 -0.0514
 3034TIP3    H230662   4.102   2.006   7.259  0.8928 -0.1034 -0.3627
 3035TIP3   OH230663   2.575   3.069   1.772 -0.1780 -0.0138  1.0519
 3035TIP3    H130664   2.543   3.143   1.720 -0.2617 -1.7562 -1.5584
 3035TIP3    H230665   2.496   3.018   1.791  0.0547 -0.1786  1.5827
 3036TIP3   OH230666   5.304   5.915   6.226  0.1718 -0.8130 -0.3215
 3036TIP3    H130667   5.257   5.994   6.255  0.0852 -0.8392 -0.3930
 3036TIP3    H230668   5.380   5.949   6.179  0.5105 -0.7640  0.2445
 3037TIP3   OH230669   3.364   2.261   0.089 -0.2417 -0.3098  0.1712
 3037TIP3    H130670   3.396   2.326   0.152 -0.0658  0.0769 -0.3152
 3037TIP3    H230671   3.280   2.233   0.125 -0.5684  0.5770  0.1187
 3038TIP3   OH230672   2.025   3.043   7.242 -0.2728  0.6383 -0.4303
 3038TIP3    H130673   1.948   3.034   7.299 -0.7137  0.0562 -1.1085
 3038TIP3    H230674   1.993   3.024   7.154  1.0244 -1.5456 -0.4958
 3039TIP3   OH230675   3.264   6.318   0.926 -0.2094  0.3138 -0.2380
 3039TIP3    H130676   3.189   6.369   0.896  0.7621 -0.0841 -3.8070
 3039TIP3    H230677   3.301   6.281   0.846  1.6688 -2.4971  1.7536
 3040TIP3   OH230678   4.390   0.443   8.777  0.5059  0.2805 -0.5341
 3040TIP3    H130679   4.418   0.352   8.773  1.4966  0.4988  0.7935
 3040TIP3    H230680   4.312   0.441   8.833  1.0706  0.3533  0.2668
 3041TIP3   OH230681   5.372   1.677   0.333 -0.0762  0.1469 -0.2859
 3041TIP3    H130682   5.334   1.664   0.246 -1.3691 -1.1938  0.4432
 3041TIP3    H230683   5.467   1.674   0.318 -0.2665 -2.0899 -1.3866
 3042TIP3   OH230684   6.486   0.425   7.838 -0.0136 -0.5860  0.2236
 3042TIP3    H130685   6.520   0.455   7.923 -0.8018  0.3326  0.2271
 3042TIP3    H230686   6.526   0.339   7.826 -0.3431 -0.9889  1.8050
 3043TIP3   OH230687   0.879   1.942   7.789 -0.0396  0.4773  0.2146
 3043TIP3    H130688   0.949   1.986   7.741 -0.7654  2.3281  0.7750
 3043TIP3    H230689   0.862   1.999   7.864 -2.0462  0.0106  0.1588
 3044TIP3   OH230690   6.133   4.778   7.544 -0.0892  0.3787  0.3303
 3044TIP3    H130691   6.139   4.791   7.449 -0.4543  0.0141  0.2555
 3044TIP3    H230692   6.051   4.730   7.556 -0.3838  1.0009  0.8852
 3045TIP3   OH230693   2.110   3.375   1.128 -0.4515 -0.2950 -0.2329
 3045TIP3    H130694   2.148   3.341   1.209 -0.0937  0.9547  0.1588
 3045TIP3    H230695   2.051   3.445   1.157 -0.5643 -0.0544 -1.0312
 3046TIP3   OH230696   3.840   6.465   1.218 -0.1384 -0.0609 -0.5831
 3046TIP3    H130697   3.908   6.420   1.168 -0.7206 -0.9423 -0.6054
 3046TIP3    H230698   3.871   6.555   1.226  2.5393 -1.0411  1.9520
 3047TIP3   OH230699   5.266   6.369   6.987  0.1752  0.5318  0.0621
 3047TIP3    H130700   5.182   6.329   7.012  0.7484 -1.5878 -1.2282
 3047TIP3    H230701   5.252   6.399   6.897  0.0646  2.5022  0.6831
 3048TIP3   OH230702   5.063   2.948   1.197  0.6839 -0.0023 -0.3235
 3048TIP3    H130703   4.981   2.989   1.223  1.3257  0.1026  1.7685
 3048TIP3    H230704   5.061   2.861   1.237  0.7476 -0.8085 -1.9719
 3049TIP3   OH230705   0.113   2.326   7.501 -0.6053 -0.3637 -0.0452
 3049TIP3    H130706   0.135   2.330   7.408  0.3201 -1.3230  0.1036
 3049TIP3    H230707   0.068   2.408   7.519  0.7621  0.6249 -0.9561
 3050TIP3   OH230708   5.972   2.749   0.886  0.5445  0.0600  0.2620
 3050TIP3    H130709   6.045   2.687   0.892 -0.0337 -0.7440 -0.6593
 3050TIP3    H230710   5.915   2.727   0.960 -0.0200 -1.0167 -0.4717
 3051TIP3   OH230711   2.109   4.375   8.090  0.2152  0.4839  0.2639
 3051TIP3    H130712   2.116   4.285   8.059 -0.4945  0.4131  0.2896
 3051TIP3    H230713   2.027   4.376   8.140  0.1852  1.1621  0.1996
 3052TIP3   OH230714   0.590   6.641   7.487 -0.3492  0.1853 -0.2192
 3052TIP3    H130715   0.625   6.590   7.560 -0.7608  0.3191  0.0779
 3052TIP3    H230716   0.667   6.666   7.435 -0.1314 -0.6319 -0.3056
 3053TIP3   OH230717   1.157   4.944   7.903  0.2040  0.0057 -0.2616
 3053TIP3    H130718   1.063   4.942   7.922  0.4575 -0.6255  1.0196
 3053TIP3    H230719   1.164   4.996   7.823 -1.2249  0.1555 -0.3148
 3054TIP3   OH230720   4.892   0.413   7.491  0.3158  0.1838  0.1079
 3054TIP3    H130721   4.842   0.348   7.540 -0.4278  1.9229  1.7643
 3054TIP3    H230722   4.957   0.362   7.443 -1.4083 -1.9233 -0.1232
 3055TIP3   OH230723   4.296   0.019   2.313  0.3466 -0.4006 -0.0095
 3055TIP3    H130724   4.239  -0.056   2.331 -0.3224  0.0559 -0.1763
 3055TIP3    H230725   4.270   0.084   2.378  0.2501  0.0395 -0.4870
 3056TIP3   OH230726   3.544   2.307   8.418 -0.3246  0.2621  0.3762
 3056TIP3    H130727   3.491   2.325   8.340  0.2840  1.0747  0.1400
 3056TIP3    H230728   3.547   2.391   8.465  1.1476  0.3646  0.1406
 3057TIP3   OH230729   0.215   3.816   6.652  0.3040  0.3340  0.6832
 3057TIP3    H130730   0.269   3.849   6.580  0.6093  0.0988  0.8002
 3057TIP3    H230731   0.276   3.765   6.706 -0.3811 -1.5207 -0.1765
 3058TIP3   OH230732   2.354   2.342   1.667  0.1964  0.5369 -0.3067
 3058TIP3    H130733   2.408   2.399   1.721  0.4735  0.8985 -0.9558
 3058TIP3    H230734   2.332   2.395   1.590  0.0946 -0.0846 -0.7142
 3059TIP3   OH230735   1.506   3.035   7.243 -0.0406 -0.7090 -0.2254
 3059TIP3    H130736   1.464   3.108   7.290  0.5518 -0.2930 -0.3319
 3059TIP3    H230737   1.433   2.978   7.218 -0.2606 -2.1022  3.0732
 3060TIP3   OH230738   1.955   2.768   0.239  0.4730 -0.0645 -0.3126
 3060TIP3    H130739   1.860   2.764   0.230  0.6006 -0.0009 -1.8032
 3060TIP3    H230740   1.974   2.710   0.312 -0.5737 -1.2793 -0.9685
 3061TIP3   OH230741   2.900   4.239   1.456 -0.4520  0.4173 -0.1351
 3061TIP3    H130742   2.902   4.190   1.374 -0.8452  0.1638  0.0017
 3061TIP3    H230743   2.959   4.313   1.442  0.3313 -0.2245 -0.2621
 3062TIP3   OH230744   4.647   3.356   1.230  0.0284 -0.1072  0.1687
 3062TIP3    H130745   4.639   3.270   1.270 -0.1180 -0.6650 -0.9980
 3062TIP3    H230746   4.741   3.372   1.225  0.1424 -1.0590 -1.2998
 3063TIP3   OH230747   1.908   2.813   0.717 -0.0043  0.1152 -0.3091
 3063TIP3    H130748   1.918   2.865   0.797 -0.9372  0.8032 -0.6221
 3063TIP3    H230749   1.938   2.871   0.647  0.3417 -0.3055 -0.5105
 3064TIP3   OH230750   0.286   2.669   1.158  0.2022 -0.1280 -0.0125
 3064TIP3    H130751   0.298   2.621   1.240  1.3994 -0.1585 -0.1884
 3064TIP3    H230752   0.371   2.661   1.113  0.1151  1.3606 -0.4707
 3065TIP3   OH230753   5.593   0.398   0.763  0.0832 -0.2222 -0.0151
 3065TIP3    H130754   5.548   0.466   0.813 -0.5441 -1.0237  0.5454
 3065TIP3    H230755   5.681   0.433   0.748 -0.1067  0.5426  0.6018
 3066TIP3   OH230756   2.977   0.444   2.036  0.3210 -0.6365 -0.3467
 3066TIP3    H130757   3.040   0.484   2.096  0.8442 -1.0290 -0.6236
 3066TIP3    H230758   2.985   0.350   2.052 -2.2312 -0.6374  1.6500
 3067TIP3   OH230759   3.196   2.959   7.369  0.4745  0.2606  0.4875
 3067TIP3    H130760   3.157   2.899   7.306  1.4100 -1.4637  1.4752
 3067TIP3    H230761   3.282   2.923   7.387  0.5785  1.1894  2.0935
 3068TIP3   OH230762   4.601   0.173   1.834 -0.0639  0.6492 -0.4051
 3068TIP3    H130763   4.628   0.171   1.925  0.1906 -2.1423 -0.4713
 3068TIP3    H230764   4.644   0.251   1.798  1.4579  0.6874  1.3688
 3069TIP3   OH230765   2.016   6.438   7.735  0.0071  0.4303  0.0954
 3069TIP3    H130766   2.090   6.456   7.677  0.6583  1.3257  1.1503
 3069TIP3    H230767   1.939   6.443   7.678  0.4441  3.2052 -0.4056
 3070TIP3   OH230768   5.296   5.615   8.209  0.2834 -0.2969  1.0543
 3070TIP3    H130769   5.324   5.588   8.121  0.6188 -0.0409  1.0814
 3070TIP3    H230770   5.333   5.702   8.220  0.4852 -0.4491  1.5674
 3071TIP3   OH230771   3.953   3.305   0.468  0.0501  0.1266 -0.1064
 3071TIP3    H130772   4.024   3.337   0.412 -0.7560 -0.3180 -1.4471
 3071TIP3    H230773   3.906   3.383   0.495  0.5441  0.3610  0.0827
 3072TIP3   OH230774   5.770   4.791   6.793 -0.6163 -0.6648 -0.0305
 3072TIP3    H130775   5.801   4.715   6.745  1.3889 -0.2787  0.5794
 3072TIP3    H230776   5.807   4.866   6.747  2.2051 -0.3063  2.5352
 3073TIP3   OH230777   4.604   0.963   7.924  0.4082  0.1503  0.3457
 3073TIP3    H130778   4.683   0.945   7.872  0.1345 -1.4920  0.4452
 3073TIP3    H230779   4.579   0.877   7.959 -1.2474  0.6966  0.5585
 3074TIP3   OH230780   6.132   1.744   1.713  0.5552 -0.0254 -0.1481
 3074TIP3    H130781   6.216   1.721   1.672  0.4949  0.4523 -0.5435
 3074TIP3    H230782   6.155   1.769   1.803  0.9306  0.8221 -0.4755
 3075TIP3   OH230783   4.132   6.443   0.170  0.3846  0.2553  0.3035
 3075TIP3    H130784   4.037   6.453   0.177  0.1968 -0.8591 -0.3897
 3075TIP3    H230785   4.162   6.434   0.261 -0.0294  1.6616  0.5993
 3076TIP3   OH230786   6.253   2.173   8.313 -0.5126  0.0106  0.0085
 3076TIP3    H130787   6.336   2.129   8.295  0.0287  0.9251  0.1881
 3076TIP3    H230788   6.225   2.138   8.398 -0.2447 -0.2077  0.0065
 3077TIP3   OH230789   1.401   5.692   6.456  0.0997  0.1424 -0.5021
 3077TIP3    H130790   1.380   5.712   6.365  0.1219  0.1301 -0.5101
 3077TIP3    H230791   1.350   5.754   6.508  0.2971  0.3298 -0.5318
 3078TIP3   OH230792   6.410   0.151   8.330  0.0191 -0.0937 -0.0921
 3078TIP3    H130793   6.448   0.238   8.334 -0.4149  0.0609  1.0383
 3078TIP3    H230794   6.399   0.134   8.236  1.0925  0.6182 -0.3700
 3079TIP3   OH230795   0.984   2.585   1.762  0.1500 -1.0310  0.0561
 3079TIP3    H130796   1.008   2.641   1.836 -1.0255  0.9562 -0.9858
 3079TIP3    H230797   1.059   2.590   1.703 -0.8817  1.5848 -1.1733
 3080TIP3   OH230798   5.977   1.598   0.078 -0.2269 -0.4924  0.1537
 3080TIP3    H130799   5.947   1.686   0.058 -0.0059 -0.7795 -1.5490
 3080TIP3    H230800   5.984   1.596   0.174 -1.5896  0.8743  0.3107
 3081TIP3   OH230801   1.160   6.563   7.974 -0.2354  0.0062 -0.0087
 3081TIP3    H130802   1.163   6.659   7.972  0.1681  0.0147  0.6481
 3081TIP3    H230803   1.252   6.537   7.975 -0.3262 -0.3292  1.4550
 3082TIP3   OH230804   2.218   2.134   1.775  0.3523  0.1392 -0.2399
 3082TIP3    H130805   2.263   2.208   1.733  1.9492 -0.0712  0.9978
 3082TIP3    H230806   2.127   2.162   1.783 -0.8256 -0.7275 -6.0115
 3083TIP3   OH230807   1.591   6.585   8.347  0.0818 -0.2000 -0.2876
 3083TIP3    H130808   1.561   6.636   8.272 -1.6794  2.8025  2.2087
 3083TIP3    H230809   1.687   6.589   8.342 -0.0005  1.2904 -1.5408
 3084TIP3   OH230810   2.269   6.505   7.656 -0.4258 -0.0340  0.3202
 3084TIP3    H130811   2.279   6.451   7.734  1.4345  1.4754  1.2333
 3084TIP3    H230812   2.267   6.595   7.689  1.2573  0.7066 -1.3536
 3085TIP3   OH230813   4.273   5.180   0.588 -0.1813  0.7175  0.0362
 3085TIP3    H130814   4.194   5.211   0.631 -0.0907  1.7699 -0.5137
 3085TIP3    H230815   4.304   5.256   0.538  2.6468  1.2329  2.2850
 3086TIP3   OH230816   1.328   1.413   7.026 -0.0510  0.0088 -0.5648
 3086TIP3    H130817   1.417   1.422   6.994  0.2607  1.8232  0.6200
 3086TIP3    H230818   1.274   1.456   6.959  0.2723  1.1876 -0.0947
 3087TIP3   OH230819   3.367   2.580   6.970 -0.8138  0.7431  0.4900
 3087TIP3    H130820   3.394   2.489   6.956 -2.8053  0.2114 -0.3147
 3087TIP3    H230821   3.421   2.631   6.910 -0.0746  0.0204  0.5299
 3088TIP3   OH230822   4.498   2.022   0.694 -0.0459 -0.1538 -0.1789
 3088TIP3    H130823   4.582   1.986   0.666  0.0816 -1.2128  1.4348
 3088TIP3    H230824   4.482   2.094   0.634  1.5657 -0.5166 -1.1072
 3089TIP3   OH230825   2.639   2.268   7.416  0.1792  0.3143  0.0176
 3089TIP3    H130826   2.689   2.303   7.342  0.1939  0.6439  0.1822
 3089TIP3    H230827   2.644   2.337   7.483  1.8306 -0.7539  1.0801
 3090TIP3   OH230828   4.761   3.193   1.905 -0.1453 -0.2096  0.2478
 3090TIP3    H130829   4.720   3.261   1.958 -1.1661 -0.6025 -0.0293
 3090TIP3    H230830   4.767   3.117   1.963  0.5638 -0.0426  0.4081
 3091TIP3   OH230831   4.801   6.155   0.445 -1.0971 -0.8679 -0.0951
 3091TIP3    H130832   4.865   6.140   0.515 -0.1552  0.5370 -0.6166
 3091TIP3    H230833   4.830   6.098   0.374 -0.3807 -0.2236 -0.3357
 3092TIP3   OH230834   6.290   1.783   7.755 -0.5813 -0.4814 -0.1343
 3092TIP3    H130835   6.342   1.843   7.808 -1.2611 -0.8134  0.9333
 3092TIP3    H230836   6.229   1.839   7.707  1.8525  0.1217 -2.8273
 3093TIP3   OH230837   4.012   6.387   1.013  0.7636  0.0178  0.0524
 3093TIP3    H130838   4.059   6.437   0.946 -0.2091  1.1952  0.2119
 3093TIP3    H230839   4.050   6.299   1.008  1.0689  0.2054 -1.6908
 3094TIP3   OH230840   2.088   4.099   0.820  0.3269  0.0008 -0.2703
 3094TIP3    H130841   2.088   4.174   0.760  1.3694  2.4480  2.5681
 3094TIP3    H230842   1.997   4.090   0.846  0.3731  1.2362  0.4021
 3095TIP3   OH230843   0.096   5.967   0.123 -0.0578  0.4502 -0.0307
 3095TIP3    H130844   0.030   5.921   0.175 -1.0508 -0.4757 -2.0162
 3095TIP3    H230845   0.152   5.897   0.089  0.7233  1.0676 -0.0518
 3096TIP3   OH230846   0.774   0.557   6.502 -0.6647  0.0158 -0.3259
 3096TIP3    H130847   0.824   0.476   6.492  0.4356  0.6679 -0.1831
 3096TIP3    H230848   0.717   0.541   6.577 -0.3845 -0.5916 -0.2394
 3097TIP3   OH230849   2.982   3.984   8.875  0.1568  0.2007 -0.2710
 3097TIP3    H130850   2.917   3.987   8.945 -1.1363 -0.1823 -1.4034
 3097TIP3    H230851   2.952   4.049   8.812  0.4462 -0.5182 -1.1646
 3098TIP3   OH230852   4.636   0.397   7.806 -0.2113  0.2823 -0.1532
 3098TIP3    H130853   4.647   0.333   7.877 -2.2638 -0.1748 -0.1796
 3098TIP3    H230854   4.636   0.345   7.726  2.6622  0.8548 -0.6250
 3099TIP3   OH230855   2.889   4.681   1.050  0.3826  0.2752 -0.1710
 3099TIP3    H130856   2.823   4.718   1.109 -0.4566  1.9709 -2.0412
 3099TIP3    H230857   2.957   4.748   1.044  1.6746 -0.9145  0.7173
 3100TIP3   OH230858   6.451   0.352   0.094  0.5223  0.5866 -0.0859
 3100TIP3    H130859   6.426   0.428   0.042 -0.3726  0.3261 -0.0591
 3100TIP3    H230860   6.487   0.290   0.031  0.0392  0.5248 -0.3081
 3101TIP3   OH230861   6.534   2.906   1.960 -0.2490 -0.0113  0.0319
 3101TIP3    H130862   6.594   2.846   2.005  0.2403 -0.0523 -0.6536
 3101TIP3    H230863   6.568   2.909   1.870  0.2106  1.9236  0.2381
 3102TIP3   OH230864   2.980   1.286   2.718  0.3618 -0.7383  0.2308
 3102TIP3    H130865   2.953   1.372   2.751 -0.2113 -1.0485  0.5741
 3102TIP3    H230866   2.923   1.269   2.643  0.7223 -0.6586 -0.0642
 3103TIP3   OH230867   3.052   4.449   7.844  0.0472  0.2149 -0.7500
 3103TIP3    H130868   3.029   4.365   7.885 -1.1748  1.4771  1.3386
 3103TIP3    H230869   3.071   4.426   7.753  2.1602 -2.6534  0.2477
 3104TIP3   OH230870   4.911   3.143   1.609 -0.3301 -0.0893  0.3850
 3104TIP3    H130871   4.913   3.230   1.570  0.6733  0.0115  0.6403
 3104TIP3    H230872   4.830   3.142   1.661 -0.6829  0.4447 -0.1406
 3105TIP3   OH230873   2.292   0.254   1.259 -0.1664  0.0540  0.4112
 3105TIP3    H130874   2.263   0.315   1.191  0.4113 -0.3964 -0.2558
 3105TIP3    H230875   2.222   0.189   1.265  0.0597 -0.2507 -0.1977
 3106TIP3   OH230876   4.665   2.315   1.456  0.4102 -0.2394 -0.1382
 3106TIP3    H130877   4.636   2.404   1.438  0.3385 -0.4843 -1.3281
 3106TIP3    H230878   4.585   2.265   1.468  0.4586  0.1704  2.3668
 3107TIP3   OH230879   0.954   5.840   0.549  0.0119  0.3428 -0.3724
 3107TIP3    H130880   0.921   5.853   0.638 -0.6743 -2.0343 -0.2258
 3107TIP3    H230881   0.886   5.878   0.493 -2.0837 -2.5508  0.0049
 3108TIP3   OH230882   3.639   6.750   8.491 -0.0164  0.2561  0.2413
 3108TIP3    H130883   3.626   6.842   8.517  0.8187  0.2808  0.5762
 3108TIP3    H230884   3.715   6.752   8.433  1.8678 -0.5969  2.5459
 3109TIP3   OH230885   3.670   1.853   0.336 -0.1623  0.6032  0.4739
 3109TIP3    H130886   3.594   1.795   0.348  0.2418  0.2294  1.3118
 3109TIP3    H230887   3.730   1.828   0.405  0.7639  0.8601 -0.2204
 3110TIP3   OH230888   3.682   4.885   8.022 -0.1484  0.5993 -0.2028
 3110TIP3    H130889   3.619   4.854   7.957 -0.7390  1.7834 -0.2155
 3110TIP3    H230890   3.634   4.951   8.073  1.5744  2.9161 -1.3976
 3111TIP3   OH230891   5.480   1.635   1.616  0.3392  0.2644  0.0714
 3111TIP3    H130892   5.569   1.605   1.630  0.0991 -0.1065  0.8386
 3111TIP3    H230893   5.466   1.701   1.684 -0.1301 -0.0159  0.2467
 3112TIP3   OH230894   6.436   5.129   1.008  0.3688  0.5350  0.0751
 3112TIP3    H130895   6.500   5.113   1.077 -0.8345  0.4939  1.2276
 3112TIP3    H230896   6.464   5.073   0.935  0.4581 -1.1278  1.3247
 3113TIP3   OH230897   2.022   1.555   7.090 -0.2066 -0.4262  0.0981
 3113TIP3    H130898   1.939   1.533   7.047 -0.0038  0.7586 -0.9378
 3113TIP3    H230899   2.082   1.575   7.018  0.7236 -0.3735  0.8707
 3114TIP3   OH230900   6.165   2.820   0.207  0.3836 -0.6038 -0.0460
 3114TIP3    H130901   6.237   2.820   0.270 -0.9276  0.4592  1.5286
 3114TIP3    H230902   6.201   2.863   0.129  1.3826  0.1494  0.8090
 3115TIP3   OH230903   6.222   5.495   6.606  0.0260 -0.2777 -0.2425
 3115TIP3    H130904   6.197   5.552   6.533  0.3027  1.9317  1.3025
 3115TIP3    H230905   6.317   5.482   6.595  0.7052  2.6124  1.3009
 3116TIP3   OH230906   4.665   0.996   7.496 -0.4703  0.4609 -0.5307
 3116TIP3    H130907   4.708   0.914   7.471 -1.0910  0.4567 -1.6531
 3116TIP3    H230908   4.720   1.032   7.565 -0.5669 -1.2517  0.4954
 3117TIP3   OH230909   4.460   3.121   8.512  0.3190  0.9896 -0.0098
 3117TIP3    H130910   4.441   3.163   8.427 -1.9920  0.4718  0.1662
 3117TIP3    H230911   4.505   3.040   8.489  1.3012  1.6791 -0.6060
 3118TIP3   OH230912   5.607   2.987   2.036 -0.2205 -0.1780  0.3691
 3118TIP3    H130913   5.630   2.920   2.100 -0.9926  0.9041  1.8494
 3118TIP3    H230914   5.663   3.061   2.058 -0.5953  0.2603 -0.1169
 3119TIP3   OH230915   0.090   2.029   0.491 -0.7671 -0.2651 -0.0911
 3119TIP3    H130916   0.160   1.972   0.522  0.2443  0.3876 -1.1325
 3119TIP3    H230917   0.036   1.972   0.435  1.3328  0.1762 -2.7341
 3120TIP3   OH230918   3.219   3.789   2.531 -0.6110 -0.1215 -0.1576
 3120TIP3    H130919   3.126   3.772   2.520 -0.8279  1.6535 -1.4086
 3120TIP3    H230920   3.237   3.866   2.477  2.0685 -1.8234 -1.9510
 3121TIP3   OH230921   2.186   4.173   7.912  0.9652  0.1222  0.4889
 3121TIP3    H130922   2.190   4.079   7.930  1.0997  0.2808  1.3057
 3121TIP3    H230923   2.255   4.188   7.848  0.0829 -0.5539 -0.6542
 3122TIP3   OH230924   5.835   1.146   6.475  0.3227 -0.0537  1.0173
 3122TIP3    H130925   5.910   1.198   6.503  1.6327  0.0318 -2.1746
 3122TIP3    H230926   5.776   1.209   6.433  0.2235 -0.6237  0.2826
 3123TIP3   OH230927   5.363   4.893   0.580 -0.7989 -0.3222  0.4555
 3123TIP3    H130928   5.371   4.919   0.672  0.6088 -0.1719  0.3098
 3123TIP3    H230929   5.377   4.974   0.531 -1.3667 -0.4342  0.1047
 3124TIP3   OH230930   2.831   2.897   6.934 -0.2649  0.1623  0.1528
 3124TIP3    H130931   2.850   2.979   6.888  0.9459 -0.9126 -1.3689
 3124TIP3    H230932   2.825   2.831   6.865 -2.8247 -0.8138  1.1800
 3125TIP3   OH230933   0.400   6.106   8.829  0.1311  0.2525 -0.3146
 3125TIP3    H130934   0.374   6.095   8.737 -0.3697  0.8100 -0.2423
 3125TIP3    H230935   0.401   6.200   8.843  1.9018  0.2636 -0.2243
 3126TIP3   OH230936   6.020   3.812   2.046 -0.4809 -0.0031  0.3036
 3126TIP3    H130937   6.072   3.878   2.000  0.0139 -0.5179  0.1061
 3126TIP3    H230938   5.998   3.854   2.129  0.4183  0.1661  0.4727
 3127TIP3   OH230939   5.669   5.311   7.864  0.1104 -0.0176  0.1145
 3127TIP3    H130940   5.726   5.318   7.787 -0.1319  1.6589  0.0612
 3127TIP3    H230941   5.658   5.401   7.894 -1.0185 -0.5046  1.2272
 3128TIP3   OH230942   3.347   0.194   1.709  0.0933 -0.9658 -0.3806
 3128TIP3    H130943   3.388   0.234   1.786  0.0698 -0.1660 -0.7867
 3128TIP3    H230944   3.358   0.100   1.724  1.1755 -0.7958  0.0112
 3129TIP3   OH230945   0.500   6.330   7.687  0.9387 -0.4693  0.0216
 3129TIP3    H130946   0.411   6.356   7.666  1.0534  0.0227  0.1330
 3129TIP3    H230947   0.552   6.410   7.680  1.0500 -0.3511  1.7296
 3130TIP3   OH230948   5.877   0.662   0.129 -0.7260  0.6196  0.0027
 3130TIP3    H130949   5.860   0.622   0.044 -0.4126 -0.3640  0.3822
 3130TIP3    H230950   5.805   0.632   0.184  1.4229 -2.7580  1.3537
 3131TIP3   OH230951   3.366   3.321   7.449  0.2956 -0.1504 -0.3197
 3131TIP3    H130952   3.320   3.403   7.433  0.0987 -0.2916 -0.4743
 3131TIP3    H230953   3.415   3.305   7.368 -1.9573 -1.7021 -1.4778
 3132TIP3   OH230954   1.528   1.985   8.863 -0.1870  0.0963  0.4142
 3132TIP3    H130955   1.482   2.018   8.786 -1.0658  2.0386  1.6846
 3132TIP3    H230956   1.589   1.920   8.829 -0.3495  1.0819 -1.9394
 3133TIP3   OH230957   2.382   6.303   6.948  0.0468  0.2520 -0.0658
 3133TIP3    H130958   2.371   6.212   6.922 -0.3897  0.3446 -0.2145
 3133TIP3    H230959   2.293   6.335   6.963  0.1605  0.7927 -0.5071
 3134TIP3   OH230960   2.568   5.195   0.949 -0.3795 -0.1053  0.5865
 3134TIP3    H130961   2.530   5.240   0.873 -1.6502  0.9597  1.7902
 3134TIP3    H230962   2.511   5.119   0.963 -0.5050  0.0298  0.8176
 3135TIP3   OH230963   3.127   0.334   7.255  0.1556  1.3861 -0.2669
 3135TIP3    H130964   3.056   0.394   7.280  2.5089  4.3284 -0.1123
 3135TIP3    H230965   3.117   0.324   7.161 -0.9549  1.0731 -0.1278
 3136TIP3   OH230966   1.900   4.985   8.025 -0.1727  0.1742  0.1088
 3136TIP3    H130967   1.853   5.022   7.951 -1.0744 -2.1696 -0.5924
 3136TIP3    H230968   1.963   5.052   8.050 -1.8016  2.1938 -0.8954
 3137TIP3   OH230969   5.866   6.315   6.875 -0.0175  0.4693 -0.1795
 3137TIP3    H130970   5.805   6.347   6.809  1.9387  1.9910 -1.3513
 3137TIP3    H230971   5.911   6.243   6.833  0.9963  1.2243 -0.4124
 3138TIP3   OH230972   2.720   3.835   0.700  0.7884  0.4187 -0.2862
 3138TIP3    H130973   2.697   3.743   0.716 -0.9648  0.7554 -0.7068
 3138TIP3    H230974   2.673   3.884   0.768  1.3505  1.0555 -0.3447
 3139TIP3   OH230975   6.333   4.624   0.244  0.2712  0.2338  0.3054
 3139TIP3    H130976   6.277   4.597   0.317 -1.2882 -0.1519 -0.9787
 3139TIP3    H230977   6.318   4.718   0.234  0.9714  0.4150  0.8530
 3140TIP3   OH230978   3.977   4.262   8.808  0.0125  0.1983 -0.2332
 3140TIP3    H130979   4.005   4.240   8.897  0.5479  2.0128  0.0879
 3140TIP3    H230980   3.898   4.209   8.794 -0.2307  0.0660  1.4250
 3141TIP3   OH230981   6.263   4.203   6.324 -1.0113 -0.4530 -0.1682
 3141TIP3    H130982   6.336   4.184   6.382 -0.5592 -0.4335 -0.7237
 3141TIP3    H230983   6.283   4.290   6.288 -1.5917 -0.1992  0.1086
 3142TIP3   OH230984   0.584   2.779   0.026 -0.7385 -0.4487 -0.1243
 3142TIP3    H130985   0.669   2.804   0.062  0.3053 -1.1481 -1.9698
 3142TIP3    H230986   0.524   2.845   0.060  0.6612  0.4845  0.6651
 3143TIP3   OH230987   4.434   0.096   8.266  0.0657 -0.2116  0.2578
 3143TIP3    H130988   4.404   0.033   8.332 -3.1337 -1.1460 -1.8672
 3143TIP3    H230989   4.467   0.041   8.195  3.6621  0.7829  0.9297
 3144TIP3   OH230990   1.737   6.741   6.110  0.0581 -0.0806  0.7038
 3144TIP3    H130991   1.722   6.791   6.190  0.5016  0.7600  0.2755
 3144TIP3    H230992   1.674   6.669   6.114 -1.1680  0.9698  0.9457
 3145TIP3   OH230993   0.220   5.303   0.072  0.1513 -0.1879 -0.0849
 3145TIP3    H130994   0.163   5.363   0.022 -1.7857 -1.0517  0.9794
 3145TIP3    H230995   0.194   5.216   0.043 -1.2047 -0.7310  2.5165
 3146TIP3   OH230996   5.281   3.563   7.965 -0.3419 -0.3026  0.1584
 3146TIP3    H130997   5.296   3.564   8.060  0.2911  1.0423  0.0692
 3146TIP3    H230998   5.368   3.573   7.927 -0.8623  3.3223 -0.4584
 3147TIP3   OH230999   3.938   6.078   2.151  0.3549  0.1604  0.3028
 3147TIP3    H131000   3.962   6.023   2.225  2.9936  0.2690 -0.3691
 3147TIP3    H231001   4.020   6.088   2.101 -0.6706  2.4058 -1.0782
 3148TIP3   OH231002   3.580   5.328   7.937  0.3599  0.0575  0.4539
 3148TIP3    H131003   3.570   5.330   7.842 -0.3708  0.2185  0.5289
 3148TIP3    H231004   3.603   5.417   7.962  0.1373  0.1069  0.4764
 3149TIP3   OH231005   0.414   1.619   7.957  0.0900  0.1485 -0.2739
 3149TIP3    H131006   0.427   1.535   7.913  0.7463  1.4429 -2.7555
 3149TIP3    H231007   0.502   1.652   7.973 -0.1438  0.8424 -0.3665
 3150TIP3   OH231008   4.502   3.032   0.071  0.3249 -0.2078 -0.0950
 3150TIP3    H131009   4.457   3.115   0.090  0.5639 -0.0854 -0.0554
 3150TIP3    H231010   4.581   3.058   0.023  0.0587 -0.4669 -0.6789
 3151TIP3   OH231011   2.760   2.343   8.548  0.2350 -0.3066  0.0095
 3151TIP3    H131012   2.831   2.406   8.559  0.4674 -0.6984  0.8637
 3151TIP3    H231013   2.708   2.352   8.628 -1.0578  0.4205 -0.8640
 3152TIP3   OH231014   5.309   2.535   0.841  0.1943  0.8822 -0.4929
 3152TIP3    H131015   5.401   2.555   0.824  0.2753  1.4314  0.5293
 3152TIP3    H231016   5.287   2.587   0.918 -0.2283 -1.2871  0.9262
 3153TIP3   OH231017   5.221   4.654   8.068 -0.3813 -0.1899  0.9025
 3153TIP3    H131018   5.188   4.642   8.157 -1.6923 -1.1543  0.3207
 3153TIP3    H231019   5.144   4.677   8.017  0.6172  1.9497  0.2719
 3154TIP3   OH231020   0.100   5.119   0.851 -0.0964  0.5177 -0.1276
 3154TIP3    H131021   0.124   5.027   0.867  0.5628  0.8744  1.0364
 3154TIP3    H231022   0.043   5.142   0.924  0.2241  1.2014 -0.0811
 3155TIP3   OH231023   1.328   4.590   2.327  0.1787  0.8511  0.6467
 3155TIP3    H131024   1.238   4.589   2.296 -0.0668 -4.4181  0.5935
 3155TIP3    H231025   1.322   4.563   2.419  1.6565  0.2138  0.5961
 3156TIP3   OH231026   3.004   0.572   0.650  0.5978  0.0546  0.1119
 3156TIP3    H131027   2.947   0.637   0.608 -0.7403 -0.6906  0.7217
 3156TIP3    H231028   2.947   0.525   0.711  1.9154 -0.6056  0.8855
 3157TIP3   OH231029   6.248   2.028   8.541  0.6386  0.1993  0.1159
 3157TIP3    H131030   6.325   2.034   8.598  0.8488 -1.2134  0.0159
 3157TIP3    H231031   6.175   2.056   8.596  1.0099  0.0287  0.7067
 3158TIP3   OH231032   0.664   5.162   0.347 -0.0131 -0.1584 -0.2026
 3158TIP3    H131033   0.738   5.115   0.308 -1.0068 -0.1522 -2.2091
 3158TIP3    H231034   0.629   5.101   0.412 -1.1066 -2.2435 -2.5371
 3159TIP3   OH231035   6.416   3.504   0.988  0.1293  0.7329 -0.1453
 3159TIP3    H131036   6.339   3.462   0.949  0.3485 -2.2498  2.2522
 3159TIP3    H231037   6.382   3.547   1.067  0.6556  0.7076  0.1018
 3160TIP3   OH231038   2.006   4.639   1.069 -0.0247 -0.6237 -0.4542
 3160TIP3    H131039   2.047   4.695   1.135  0.5946 -0.7335 -0.7464
 3160TIP3    H231040   2.035   4.550   1.092  3.0736 -0.3921 -2.8673
 3161TIP3   OH231041   0.924   1.759   0.721 -0.0570 -0.3516  0.0686
 3161TIP3    H131042   0.995   1.746   0.659 -0.1065  1.4836 -0.4261
 3161TIP3    H231043   0.865   1.821   0.678 -1.3391 -0.8770  0.9732
 3162TIP3   OH231044   4.165   1.285   7.427 -0.7050  0.0993 -0.2024
 3162TIP3    H131045   4.144   1.295   7.334 -0.2580 -0.0398 -0.3224
 3162TIP3    H231046   4.130   1.364   7.468  0.1624  0.7516 -0.6815
 3163TIP3   OH231047   4.709   2.247   7.020  0.1941 -0.1549 -0.1271
 3163TIP3    H131048   4.707   2.164   7.067  0.3776 -0.1181 -0.0521
 3163TIP3    H231049   4.799   2.278   7.031  0.2678 -0.1981 -0.5890
 3164TIP3   OH231050   3.551   6.089   0.970  0.2977  0.5039 -0.1104
 3164TIP3    H131051   3.490   6.079   0.897  2.2706 -1.8926 -1.6035
 3164TIP3    H231052   3.592   6.174   0.957 -0.7240  0.9223 -0.6762
 3165TIP3   OH231053   2.156   0.529   0.792 -0.1026 -0.0197 -0.3149
 3165TIP3    H131054   2.084   0.592   0.802  0.8118  1.0526 -0.2334
 3165TIP3    H231055   2.140   0.487   0.707  0.4234  1.9308 -1.4614
 3166TIP3   OH231056   2.931   5.366   1.883 -0.2634  0.0254  0.5377
 3166TIP3    H131057   2.984   5.427   1.935  0.2980  0.3872 -0.4258
 3166TIP3    H231058   2.919   5.411   1.799  1.3158 -1.7001 -0.7041
 3167TIP3   OH231059   0.579   4.238   7.513 -0.2651 -1.2407  0.9374
 3167TIP3    H131060   0.594   4.145   7.529  0.9018 -0.8845  2.1376
 3167TIP3    H231061   0.623   4.282   7.586  3.2491  0.4668 -1.9511
 3168TIP3   OH231062   0.066   5.899   0.444 -0.1153  0.4951  0.1874
 3168TIP3    H131063  -0.026   5.876   0.427  0.0676 -0.9207  0.9478
 3168TIP3    H231064   0.100   5.825   0.494  2.6834 -1.3090 -3.8437
 3169TIP3   OH231065   0.476   0.998   6.639 -0.5336 -0.4420 -0.0424
 3169TIP3    H131066   0.550   1.059   6.629 -0.7597 -0.3830 -1.4605
 3169TIP3    H231067   0.501   0.943   6.713  1.4466 -1.1195 -1.1421
 3170TIP3   OH231068   6.764   4.336   7.762  0.0643  0.5869  0.5958
 3170TIP3    H131069   6.851   4.304   7.787 -0.2799 -0.1431  0.8887
 3170TIP3    H231070   6.762   4.328   7.667  0.0994  0.0139  0.6366
 3171TIP3   OH231071   0.164   4.781   8.836 -0.8279 -0.7518 -0.0690
 3171TIP3    H131072   0.085   4.729   8.824 -2.0596  0.9563  0.2650
 3171TIP3    H231073   0.236   4.717   8.833 -2.2432 -2.4278  0.2184
 3172TIP3   OH231074   1.009   2.017   7.215 -0.3897  0.3632  0.1274
 3172TIP3    H131075   0.947   2.021   7.143 -1.4134  0.1441  0.9748
 3172TIP3    H231076   1.026   2.108   7.238  1.2559  0.5244 -1.4393
 3173TIP3   OH231077   3.964   5.557   7.753  0.1752 -0.5120  0.4543
 3173TIP3    H131078   3.894   5.502   7.720  0.6933 -1.0288  0.2067
 3173TIP3    H231079   3.942   5.645   7.723  0.6712 -0.9647 -1.3713
 3174TIP3   OH231080   6.090   3.761   8.668  0.7444  0.0827  0.4950
 3174TIP3    H131081   6.112   3.736   8.578 -2.2539  0.7440 -0.5290
 3174TIP3    H231082   6.037   3.839   8.659  0.9154  0.5529  2.9369
 3175TIP3   OH231083   0.080   0.534   8.053  0.0785  0.2538  0.5794
 3175TIP3    H131084   0.056   0.450   8.014  0.6279  0.5964 -0.5264
 3175TIP3    H231085   0.053   0.599   7.988 -0.3069  0.9424  1.4048
 3176TIP3   OH231086   6.006   3.983   1.126  0.2188 -0.2730  0.2471
 3176TIP3    H131087   5.937   3.938   1.175 -0.5674 -0.2231 -0.7759
 3176TIP3    H231088   5.975   3.981   1.035  0.8364  1.1009 -0.0102
 3177TIP3   OH231089   5.003   2.398   8.408  0.1058  0.1299 -0.4126
 3177TIP3    H131090   5.094   2.400   8.376  0.9254  0.4792  1.7888
 3177TIP3    H231091   5.011   2.378   8.501 -2.2186 -1.7540 -0.5129
 3178TIP3   OH231092   2.848   5.314   0.425 -0.2309 -0.0039  0.0908
 3178TIP3    H131093   2.840   5.292   0.518  0.0142  0.0518  0.1268
 3178TIP3    H231094   2.822   5.235   0.379  1.7303 -0.7951  0.2210
 3179TIP3   OH231095   5.364   6.389   0.725  0.7023 -0.1830  0.2319
 3179TIP3    H131096   5.290   6.428   0.771 -0.2278 -1.2036 -0.3402
 3179TIP3    H231097   5.435   6.452   0.736 -0.6204  1.5171 -0.3614
 3180TIP3   OH231098   1.092   2.554   1.398  0.1928  0.0031  0.2996
 3180TIP3    H131099   1.152   2.568   1.471  0.3332 -1.4785  0.5097
 3180TIP3    H231100   1.096   2.459   1.382  0.7824  0.3763 -2.1689
 3181TIP3   OH231101   3.605   4.380   8.468 -0.3603 -0.2501  0.0278
 3181TIP3    H131102   3.679   4.437   8.491  0.2939 -1.0268 -0.1200
 3181TIP3    H231103   3.545   4.438   8.421  0.3854  0.2820 -0.2978
 3182TIP3   OH231104   6.582   2.951   8.074 -0.0871  0.1364 -0.5512
 3182TIP3    H131105   6.637   2.873   8.071  0.2091  0.3164 -0.1014
 3182TIP3    H231106   6.593   2.983   8.164  0.6717  1.3087 -1.0334
 3183TIP3   OH231107   4.045   4.686   0.795 -0.6631  0.2946  0.0013
 3183TIP3    H131108   3.984   4.636   0.849 -0.6671  0.3430  0.0430
 3183TIP3    H231109   4.018   4.670   0.705 -1.3130  1.0496  0.0512
 3184TIP3   OH231110   5.167   1.918   0.235 -0.2487  0.5902 -0.4237
 3184TIP3    H131111   5.236   1.859   0.265  0.1251  1.3160  0.1814
 3184TIP3    H231112   5.200   2.005   0.255 -0.5980  1.0366 -1.7178
 3185TIP3   OH231113   6.088   0.806   8.827  0.3498  0.5755 -0.4589
 3185TIP3    H131114   6.129   0.730   8.785  0.1894  0.5763 -0.6218
 3185TIP3    H231115   6.048   0.771   8.906  0.9067  0.6266 -0.1510
 3186TIP3   OH231116   2.495   4.778   7.182  0.2897 -0.5960 -0.2415
 3186TIP3    H131117   2.427   4.842   7.200 -0.3335 -1.6258  1.2811
 3186TIP3    H231118   2.448   4.697   7.162  1.0723 -0.8971 -0.9845
 3187TIP3   OH231119   3.588   5.927   7.151 -0.4078  0.0521  0.5675
 3187TIP3    H131120   3.683   5.934   7.149 -0.3435 -0.5911  1.3154
 3187TIP3    H231121   3.569   5.841   7.115 -0.6698 -0.1111  1.0867
 3188TIP3   OH231122   4.691   4.637   0.453  0.2516  0.3848 -0.0669
 3188TIP3    H131123   4.762   4.699   0.436  0.7978 -0.3505 -0.4929
 3188TIP3    H231124   4.651   4.622   0.368 -0.1800  0.5095  0.1124
 3189TIP3   OH231125   2.629   6.076   0.772 -0.1881  0.2361 -0.6410
 3189TIP3    H131126   2.564   6.136   0.737 -2.2817 -1.1081  0.7588
 3189TIP3    H231127   2.642   6.011   0.703 -1.0794 -0.0269 -0.5657
 3190TIP3   OH231128   4.669   3.739   8.202 -0.4263  0.1171 -0.1719
 3190TIP3    H131129   4.763   3.732   8.216 -0.5763  0.1576  0.9877
 3190TIP3    H231130   4.657   3.727   8.108  0.7428  0.2147 -0.3430
 3191TIP3   OH231131   1.201   3.841   1.732 -0.2742  0.0462  0.2147
 3191TIP3    H131132   1.115   3.879   1.749 -0.2123 -0.0466  0.7533
 3191TIP3    H231133   1.233   3.815   1.818 -1.2078 -3.2259 -0.3204
 3192TIP3   OH231134   2.904   5.908   0.525  0.0730  0.3651 -0.3984
 3192TIP3    H131135   2.850   5.941   0.453 -1.1362  0.3070  0.4457
 3192TIP3    H231136   2.850   5.840   0.566  0.7136  0.4342  0.6018
 3193TIP3   OH231137   2.735   3.809   6.322  0.0130 -0.0657 -0.3709
 3193TIP3    H131138   2.741   3.714   6.318 -2.8452 -0.3225 -0.9059
 3193TIP3    H231139   2.809   3.836   6.376  0.9595 -2.5654 -0.3013
 3194TIP3   OH231140   4.492   0.396   7.267 -0.0961  0.0383 -0.4749
 3194TIP3    H131141   4.408   0.438   7.287  0.6440  2.0408 -1.2972
 3194TIP3    H231142   4.482   0.363   7.178 -0.8841 -2.2144  0.3816
 3195TIP3   OH231143   5.635   2.864   1.710 -0.3394  0.1212  0.3294
 3195TIP3    H131144   5.717   2.913   1.706  0.3159 -0.7391  2.2351
 3195TIP3    H231145   5.654   2.790   1.768 -1.4513 -2.0861 -1.8888
 3196TIP3   OH231146   1.527   1.811   7.244  0.2449  0.3704  0.2986
 3196TIP3    H131147   1.493   1.797   7.155  0.6539  1.1705 -0.0036
 3196TIP3    H231148   1.468   1.877   7.281  0.6655  0.7814  0.2483
 3197TIP3   OH231149   2.870   1.590   0.370  0.1513 -0.1611 -0.2507
 3197TIP3    H131150   2.899   1.501   0.348 -1.1148 -0.9002  0.9399
 3197TIP3    H231151   2.907   1.607   0.456 -0.1510  0.1979 -0.1892
 3198TIP3   OH231152   0.498   1.566   6.768  0.1487 -0.2060 -0.3453
 3198TIP3    H131153   0.448   1.522   6.699 -0.6113 -0.7931  0.5655
 3198TIP3    H231154   0.555   1.498   6.804  0.4286  0.0596 -0.2787
 3199TIP3   OH231155   4.957   4.402   0.413 -0.4920 -0.0624 -0.5161
 3199TIP3    H131156   4.964   4.497   0.423  2.9555 -0.1206 -1.1270
 3199TIP3    H231157   4.966   4.368   0.502  0.6973  0.1775 -0.5234
 3200TIP3   OH231158   2.445   4.398   8.347  0.2351 -0.3173 -0.5094
 3200TIP3    H131159   2.520   4.413   8.290 -0.0358 -1.2917 -1.1480
 3200TIP3    H231160   2.477   4.420   8.434  1.4210 -1.1621 -0.7007
 3201TIP3   OH231161   4.161   4.942   7.841 -0.5726  0.6454  0.1985
 3201TIP3    H131162   4.188   4.874   7.902 -0.4973  0.7295  0.2591
 3201TIP3    H231163   4.079   4.910   7.804  1.0049 -0.9572 -2.1295
 3202TIP3   OH231164   2.264   3.784   8.783  0.2156 -0.1486 -0.3743
 3202TIP3    H131165   2.232   3.868   8.817  0.9266 -0.1194  0.2485
 3202TIP3    H231166   2.187   3.744   8.742 -0.4989  0.1468  0.6361
 3203TIP3   OH231167   2.346   5.001   7.238 -0.0137 -0.3542 -0.1006
 3203TIP3    H131168   2.292   5.032   7.165 -0.0240 -0.4622 -0.1389
 3203TIP3    H231169   2.332   5.066   7.307 -0.2554 -0.4232 -0.0812
 3204TIP3   OH231170   0.210   6.166   6.211  0.0069 -0.2698 -0.4417
 3204TIP3    H131171   0.170   6.080   6.199 -1.1091  0.5396 -3.6694
 3204TIP3    H231172   0.143   6.228   6.182  1.3726  1.5857  0.1862
 3205TIP3   OH231173   3.246   5.741   7.598  0.3625  0.7016  0.0714
 3205TIP3    H131174   3.256   5.649   7.623  0.4445  0.2319 -1.5988
 3205TIP3    H231175   3.334   5.778   7.605 -0.0735  1.4422  3.4218
 3206TIP3   OH231176   5.304   2.694   1.083  0.0591 -0.2322 -0.8887
 3206TIP3    H131177   5.217   2.710   1.046  0.0190  0.6861 -0.4324
 3206TIP3    H231178   5.286   2.645   1.164 -0.0535  0.1334 -0.6898
 3207TIP3   OH231179   5.552   2.906   1.034  0.2357 -0.3449  0.0156
 3207TIP3    H131180   5.576   2.846   0.963  0.2686 -0.7895  0.3976
 3207TIP3    H231181   5.470   2.945   1.005 -1.1622 -2.4874  0.8743
 3208TIP3   OH231182   6.039   3.042   1.639  0.5754  0.4011 -0.6541
 3208TIP3    H131183   5.958   3.050   1.689  0.0262 -1.0045 -1.2780
 3208TIP3    H231184   6.079   3.129   1.645  0.3727  0.3963  1.8905
 3209TIP3   OH231185   1.669   0.242   6.056 -0.7191 -0.1880  0.0865
 3209TIP3    H131186   1.710   0.182   5.994 -0.8214  0.2786 -0.4350
 3209TIP3    H231187   1.624   0.306   6.001 -2.1659 -0.6913  0.6255
 3210TIP3   OH231188   0.866   4.075   7.342 -0.0189 -0.0244 -0.3729
 3210TIP3    H131189   0.811   4.046   7.416  0.5715  0.9858  0.4879
 3210TIP3    H231190   0.847   4.168   7.333  1.4050  0.3175 -0.1563
 3211TIP3   OH231191   1.591   2.300   7.415  0.6823 -0.7076  0.0462
 3211TIP3    H131192   1.678   2.302   7.375  0.2111 -0.9200 -0.9896
 3211TIP3    H231193   1.531   2.282   7.343 -0.1452 -1.4552  0.8974
 3212TIP3   OH231194   2.520   2.016   0.660 -0.1065  0.1228 -0.2650
 3212TIP3    H131195   2.426   2.033   0.670 -0.2088  0.1518 -1.2355
 3212TIP3    H231196   2.524   1.933   0.613  0.3568  0.3482 -0.6250
 3213TIP3   OH231197   5.113   3.438   2.444 -0.7412 -0.7320 -0.0291
 3213TIP3    H131198   5.159   3.355   2.458  2.1467  1.0162  1.7762
 3213TIP3    H231199   5.053   3.419   2.372  1.0144 -3.9246 -0.8788
 3214TIP3   OH231200   6.537   3.968   6.417 -0.0968  0.7016  0.6290
 3214TIP3    H131201   6.530   4.053   6.461  1.0205  1.0295  0.1910
 3214TIP3    H231202   6.523   3.988   6.325  2.2502  0.7747  0.2319
 3215TIP3   OH231203   0.597   2.555   8.498  0.1246 -0.3472 -0.3568
 3215TIP3    H131204   0.608   2.597   8.583 -1.9511  0.4384 -0.4190
 3215TIP3    H231205   0.611   2.625   8.435  1.2179 -0.8298 -0.6808
 3216TIP3   OH231206   2.840   4.353   0.662 -0.2872  0.0272 -0.4953
 3216TIP3    H131207   2.915   4.312   0.618  0.3207 -0.5527  1.0004
 3216TIP3    H231208   2.768   4.290   0.649  0.0873 -0.5108 -0.0372
 3217TIP3   OH231209   3.964   3.228   8.388 -0.0866 -0.0030  0.4108
 3217TIP3    H131210   3.886   3.258   8.434 -1.2998 -1.9275 -0.2779
 3217TIP3    H231211   3.982   3.141   8.424  0.6725 -0.3283 -0.6910
 3218TIP3   OH231212   1.167   0.459   0.503 -0.1778  0.0668 -0.2394
 3218TIP3    H131213   1.188   0.542   0.547 -0.6326  0.6803 -1.1465
 3218TIP3    H231214   1.143   0.485   0.414 -0.5456 -1.0278 -0.4687
 3219TIP3   OH231215   2.109   3.406   8.192 -0.4146  0.9709 -0.0311
 3219TIP3    H131216   2.080   3.319   8.219 -2.0799  1.9077  1.3951
 3219TIP3    H231217   2.204   3.399   8.186 -0.3365 -0.4617  1.9552
 3220TIP3   OH231218   4.055   3.767   6.747  0.1349 -0.1065  0.6095
 3220TIP3    H131219   3.973   3.787   6.702  0.3616  0.1066  0.2801
 3220TIP3    H231220   4.089   3.690   6.702 -0.7894 -1.3414  1.9508
 3221TIP3   OH231221   1.578   3.198   0.377 -0.1598 -0.1613  0.1478
 3221TIP3    H131222   1.627   3.174   0.455  0.3016 -0.5367 -0.2490
 3221TIP3    H231223   1.533   3.279   0.400 -0.9671 -0.8809  1.1966
 3222TIP3   OH231224   4.578   0.926   8.344 -0.1787 -0.2650  0.2224
 3222TIP3    H131225   4.517   0.932   8.417 -1.3811  0.2080 -0.7719
 3222TIP3    H231226   4.653   0.979   8.370 -0.9460  0.5753  0.7781
 3223TIP3   OH231227   3.568   4.681   1.208 -0.3000  0.2988 -0.4795
 3223TIP3    H131228   3.535   4.700   1.120  1.7809  0.6301 -1.2545
 3223TIP3    H231229   3.540   4.592   1.226 -1.3289  0.4635 -1.1930
 3224TIP3   OH231230   0.161   4.318   6.905 -0.1452  0.6364 -0.1640
 3224TIP3    H131231   0.196   4.407   6.906 -0.7736  0.9327 -1.6948
 3224TIP3    H231232   0.152   4.294   6.997  1.9510  1.3770  0.2841
 3225TIP3   OH231233   1.797   6.207   8.665 -0.9256 -0.1548  0.6785
 3225TIP3    H131234   1.786   6.218   8.760  1.6511  0.1958  1.0051
 3225TIP3    H231235   1.708   6.199   8.632 -2.0370  1.7253  2.8761
 3226TIP3   OH231236   3.687   0.600   8.226 -0.7659  0.0041  0.4405
 3226TIP3    H131237   3.673   0.693   8.239  0.1043  0.2219 -0.0996
 3226TIP3    H231238   3.696   0.589   8.131  0.5426 -0.3994  0.5830
 3227TIP3   OH231239   0.712   1.117   0.837  0.1258 -0.0164  0.2092
 3227TIP3    H131240   0.662   1.036   0.826  0.9973 -0.6463  0.7729
 3227TIP3    H231241   0.697   1.144   0.927  0.0914  0.2870  0.1163
 3228TIP3   OH231242   1.858   5.008   1.720  0.0247 -0.2175 -0.1583
 3228TIP3    H131243   1.812   5.085   1.686 -0.1083 -1.3594 -2.8356
 3228TIP3    H231244   1.790   4.940   1.724  0.7602 -1.0153 -0.8875
 3229TIP3   OH231245   2.964   4.764   1.396 -0.2869 -0.5848 -0.1443
 3229TIP3    H131246   2.989   4.807   1.314 -0.4921  1.2244  0.7031
 3229TIP3    H231247   3.048   4.743   1.438 -0.1516 -2.7977 -1.4061
 3230TIP3   OH231248   1.874   2.126   2.426  0.3232 -0.8149 -0.0873
 3230TIP3    H131249   1.879   2.219   2.407 -1.6981 -0.4894  0.7647
 3230TIP3    H231250   1.848   2.086   2.343 -1.8471 -0.1994  0.2324
 3231TIP3   OH231251   2.782   2.710   1.772  0.4277 -0.5865 -0.2100
 3231TIP3    H131252   2.801   2.645   1.704  0.6418 -0.3491 -0.3830
 3231TIP3    H231253   2.836   2.786   1.748  0.1185 -0.3149 -0.0603
 3232TIP3   OH231254   6.423   1.643   6.166  0.5113 -0.2315  0.4076
 3232TIP3    H131255   6.454   1.558   6.134  0.5458  0.2424 -0.8592
 3232TIP3    H231256   6.341   1.658   6.119  0.2671  0.2261  0.9711
 3233TIP3   OH231257   0.539   2.841   8.030 -0.1857  0.2295  0.2831
 3233TIP3    H131258   0.541   2.899   7.954 -2.0927  0.8400  0.6444
 3233TIP3    H231259   0.491   2.763   8.000  2.2914 -1.2003 -0.1793
 3234TIP3   OH231260   1.391   4.415   8.666  0.6056 -0.7028  0.2108
 3234TIP3    H131261   1.415   4.326   8.691  2.0053 -0.2440  0.6308
 3234TIP3    H231262   1.320   4.405   8.603 -0.5128 -2.0285  1.6295
 3235TIP3   OH231263   5.342   4.326   2.078 -0.2903  0.1313  0.4895
 3235TIP3    H131264   5.418   4.309   2.134  0.4941 -1.7031 -1.0436
 3235TIP3    H231265   5.266   4.314   2.136  0.5187 -0.8356  1.3791
 3236TIP3   OH231266   4.453   2.282   8.398 -0.4876  0.2784  0.7636
 3236TIP3    H131267   4.497   2.356   8.358 -0.6839  0.6327  1.1982
 3236TIP3    H231268   4.451   2.215   8.329  0.8600  0.1883  0.7831
 3237TIP3   OH231269   6.200   5.263   8.717  0.0615  0.2391  0.9806
 3237TIP3    H131270   6.201   5.241   8.624 -0.4512  1.3747  0.6928
 3237TIP3    H231271   6.111   5.292   8.735  0.7683  2.5216  1.1881
 3238TIP3   OH231272   5.158   2.110   1.784  0.3817 -0.2685 -0.3058
 3238TIP3    H131273   5.245   2.123   1.822  0.0840 -0.4605  0.4377
 3238TIP3    H231274   5.176   2.079   1.695  1.0895  1.6826 -0.9120
 3239TIP3   OH231275   1.504   0.261   6.273  0.0703  0.1630 -0.1495
 3239TIP3    H131276   1.571   0.225   6.214  0.3775  0.3280  0.0910
 3239TIP3    H231277   1.454   0.321   6.218 -0.2922 -0.4499 -0.4917
 3240TIP3   OH231278   0.656   4.284   0.579  0.1407 -0.6811  0.0274
 3240TIP3    H131279   0.619   4.369   0.603  0.5818 -0.5170  0.1297
 3240TIP3    H231280   0.590   4.220   0.607  0.6950 -0.5106  1.8443
 3241TIP3   OH231281   2.445   0.552   7.072  0.0503 -0.0177 -0.2260
 3241TIP3    H131282   2.534   0.554   7.037  0.5947  1.5869  1.1165
 3241TIP3    H231283   2.391   0.589   7.002  0.4057 -0.9863 -1.0433
 3242TIP3   OH231284   5.302   3.115   1.177  0.2993 -0.0922  0.0183
 3242TIP3    H131285   5.235   3.059   1.217 -0.2691  0.5268 -0.0420
 3242TIP3    H231286   5.303   3.090   1.085 -1.4575  1.3958 -0.4628
 3243TIP3   OH231287   6.634   6.222   1.792  0.4743  0.2585 -0.0833
 3243TIP3    H131288   6.566   6.156   1.776  3.2982 -2.5747 -1.6115
 3243TIP3    H231289   6.673   6.196   1.875  1.9292 -0.3855 -0.9328
 3244TIP3   OH231290   3.344   2.865   2.252 -0.1342 -0.0295  0.7445
 3244TIP3    H131291   3.262   2.838   2.295  0.3254 -2.6472  0.1472
 3244TIP3    H231292   3.391   2.913   2.320 -2.6605  2.8364  0.6982
 3245TIP3   OH231293   0.899   4.786   2.186 -0.2021  0.2478  0.1852
 3245TIP3    H131294   0.930   4.867   2.144 -1.3084 -0.2503 -1.7489
 3245TIP3    H231295   0.805   4.783   2.164 -1.0021  0.1844  3.2149
 3246TIP3   OH231296   0.771   4.838   7.278  0.1531 -0.4417 -0.5829
 3246TIP3    H131297   0.768   4.788   7.196  2.1047 -1.3748 -0.1498
 3246TIP3    H231298   0.857   4.880   7.277 -0.1457  0.2432  0.6011
 3247TIP3   OH231299   0.615   1.456   1.067 -0.9747  0.2484 -0.3259
 3247TIP3    H131300   0.618   1.360   1.068  1.9001  0.2295  0.4532
 3247TIP3    H231301   0.691   1.481   1.014  1.1490  2.0086  3.1897
 3248TIP3   OH231302   5.730   1.288   1.569 -0.1548  0.5546 -0.6058
 3248TIP3    H131303   5.799   1.257   1.511 -0.8160 -1.2106 -0.4987
 3248TIP3    H231304   5.739   1.235   1.648 -2.7296 -1.0729 -1.2704
 3249TIP3   OH231305   1.981   3.096   8.644 -0.6298  0.6776 -0.1467
 3249TIP3    H131306   1.952   3.004   8.642 -0.9712  0.7130  1.4794
 3249TIP3    H231307   2.067   3.095   8.603  0.5098 -0.8461  2.0559
 3250TIP3   OH231308   4.661   2.492   8.583  0.0642 -1.0870  0.3089
 3250TIP3    H131309   4.584   2.514   8.531 -0.2941 -0.9501  0.8797
 3250TIP3    H231310   4.722   2.450   8.522 -0.5960 -1.4921 -0.0706
 3251TIP3   OH231311   6.019   6.129   8.771 -0.0363  0.5333 -0.1824
 3251TIP3    H131312   6.036   6.069   8.699 -1.0187 -0.5897  0.4907
 3251TIP3    H231313   6.077   6.203   8.754 -0.6315  0.5623 -2.4074
 3252TIP3   OH231314   2.192   2.747   8.484 -0.1693 -0.0784 -0.0403
 3252TIP3    H131315   2.169   2.774   8.395 -0.7434  0.7798  0.3577
 3252TIP3    H231316   2.273   2.794   8.504  0.6456 -1.2150 -0.5390
 3253TIP3   OH231317   0.826   3.116   0.621  0.8434  0.4146 -0.2878
 3253TIP3    H131318   0.915   3.151   0.610  0.1767  2.7731  0.9991
 3253TIP3    H231319   0.790   3.113   0.532  2.1977 -0.6766 -0.8395
 3254TIP3   OH231320   0.765   2.539   7.002 -0.7995  0.0616 -0.2368
 3254TIP3    H131321   0.731   2.543   6.912  1.9420  1.6383 -1.3125
 3254TIP3    H231322   0.831   2.608   7.006 -0.1323 -0.6062  2.7300
 3255TIP3   OH231323   2.045   1.536   0.561  0.2574 -0.4450 -0.0832
 3255TIP3    H131324   2.098   1.517   0.484 -1.7774  0.9786 -1.9666
 3255TIP3    H231325   2.036   1.631   0.562 -1.9456 -0.5933  0.3018
 3256TIP3   OH231326   0.848   3.696   0.357  0.4589  0.4039  1.0599
 3256TIP3    H131327   0.810   3.779   0.330  1.2753  1.2204  2.3056
 3256TIP3    H231328   0.902   3.718   0.433 -0.9968 -1.6010  2.7876
 3257TIP3   OH231329   4.886   4.648   1.900  0.5395  0.1969 -0.0233
 3257TIP3    H131330   4.913   4.572   1.952 -0.0072 -0.8903 -1.2719
 3257TIP3    H231331   4.793   4.633   1.884 -0.3412  2.6525  2.1821
 3258TIP3   OH231332   6.748   2.711   7.972 -0.3500  0.0739  0.3832
 3258TIP3    H131333   6.819   2.708   8.036 -1.3162  1.0291  1.5535
 3258TIP3    H231334   6.785   2.756   7.897  0.6909 -0.6934  0.4303
 3259TIP3   OH231335   2.701   5.750   2.792 -0.0751 -0.3672 -0.5778
 3259TIP3    H131336   2.632   5.725   2.854  0.5265  1.0520  0.7220
 3259TIP3    H231337   2.779   5.702   2.822 -0.3403 -1.6157 -1.7738
 3260TIP3   OH231338   4.879   4.913   1.846 -0.1173 -1.0278 -0.2330
 3260TIP3    H131339   4.964   4.939   1.880  0.0730 -0.9976 -0.7231
 3260TIP3    H231340   4.877   4.818   1.858 -0.2542 -0.9570  0.3097
 3261TIP3   OH231341   5.238   3.763   6.926  0.1593  0.4305  0.4782
 3261TIP3    H131342   5.208   3.727   6.842  0.3542  0.3424  0.4460
 3261TIP3    H231343   5.220   3.693   6.990  2.0201 -0.4093  0.1682
 3262TIP3   OH231344   2.679   2.990   8.625  0.5889  0.4876 -0.3857
 3262TIP3    H131345   2.683   2.955   8.714  1.5595  0.6768 -0.3466
 3262TIP3    H231346   2.765   3.030   8.611  0.0462  1.4963 -0.9863
 3263TIP3   OH231347   6.683   1.715   1.572  0.2549 -0.1547  0.3514
 3263TIP3    H131348   6.761   1.770   1.563  0.6826 -0.7207  0.5403
 3263TIP3    H231349   6.716   1.631   1.604 -0.4605 -0.3269  0.6665
 3264TIP3   OH231350   2.931   0.027   0.650 -0.4145 -0.5615  0.9221
 3264TIP3    H131351   2.872   0.036   0.725  0.0114 -1.0035  1.3173
 3264TIP3    H231352   2.996   0.096   0.663 -0.8067 -0.1010  0.5079
 3265TIP3   OH231353   3.873   1.447   0.307  0.2988 -0.1950 -0.7114
 3265TIP3    H131354   3.874   1.480   0.217  1.8387  1.1354 -0.2402
 3265TIP3    H231355   3.958   1.405   0.318  0.0228 -0.5785  0.0667
 3266TIP3   OH231356   2.505   0.047   0.571 -0.0357  0.5148 -0.3760
 3266TIP3    H131357   2.459   0.043   0.655  2.2187 -5.0900  1.0174
 3266TIP3    H231358   2.435   0.048   0.505 -1.9208  1.2929  1.5174
 3267TIP3   OH231359   5.060   0.388   8.559 -0.3147 -0.0193 -0.1012
 3267TIP3    H131360   5.033   0.477   8.536  0.7117  0.5423  0.7689
 3267TIP3    H231361   4.986   0.353   8.608 -0.9869  0.1130 -0.9985
 3268TIP3   OH231362   2.666   0.963   7.689  0.4729 -0.2798 -0.1663
 3268TIP3    H131363   2.633   0.961   7.599  0.4916 -0.0966 -0.1790
 3268TIP3    H231364   2.727   0.889   7.695  0.2548 -0.4621 -0.2190
 3269TIP3   OH231365   5.319   6.068   7.692  0.3125 -0.3104 -0.0852
 3269TIP3    H131366   5.389   6.113   7.739  0.8835 -0.8963 -0.3582
 3269TIP3    H231367   5.276   6.013   7.758  1.1553 -1.1841 -0.2530
 3270TIP3   OH231368   3.442   3.174   1.084 -0.3234 -0.0801 -0.2168
 3270TIP3    H131369   3.417   3.225   1.007 -0.4841 -0.0479 -0.1450
 3270TIP3    H231370   3.521   3.218   1.117 -1.0264  0.7470  0.4305
 3271TIP3   OH231371   2.486   1.117   1.505  0.4059 -0.6944  0.5160
 3271TIP3    H131372   2.546   1.065   1.451  2.8878  1.2751  1.2172
 3271TIP3    H231373   2.461   1.191   1.449  0.7775 -0.1015  1.1239
 3272TIP3   OH231374   5.295   5.933   1.749 -0.9199  0.0448  0.4350
 3272TIP3    H131375   5.217   5.888   1.780  1.3036 -3.5501  1.3439
 3272TIP3    H231376   5.368   5.878   1.777  2.0426  3.3117 -0.1024
 3273TIP3   OH231377   5.353   0.750   2.080 -0.5799 -0.2210 -0.3279
 3273TIP3    H131378   5.259   0.755   2.062 -0.6335  0.8216  0.1262
 3273TIP3    H231379   5.366   0.664   2.118 -1.5624  0.0537  0.6954
 3274TIP3   OH231380   0.196   6.065   6.976  0.0033 -0.2643  0.0886
 3274TIP3    H131381   0.152   6.140   7.015  1.0470  0.6192 -0.3770
 3274TIP3    H231382   0.232   6.098   6.893  1.4326 -0.9550  0.4003
 3275TIP3   OH231383   5.045   3.157   8.297  0.0761  0.2063 -0.0953
 3275TIP3    H131384   4.964   3.117   8.327 -0.2403  1.0280  0.1695
 3275TIP3    H231385   5.098   3.165   8.377  0.5788 -0.6766 -0.3294
 3276TIP3   OH231386   5.547   5.809   7.619 -0.0582 -0.8084 -0.1676
 3276TIP3    H131387   5.602   5.869   7.670 -1.0046  0.4334 -0.5686
 3276TIP3    H231388   5.524   5.740   7.681 -0.0616 -0.0418  0.7037
 3277TIP3   OH231389   3.329   0.741   7.867  0.6676  0.8406  0.2144
 3277TIP3    H131390   3.384   0.817   7.848  1.1715  1.0099  2.1447
 3277TIP3    H231391   3.371   0.699   7.942  0.0013 -0.9509 -0.3652
 3278TIP3   OH231392   2.545   1.794   0.077  0.2796  0.1655  0.2539
 3278TIP3    H131393   2.467   1.816   0.026  0.2382 -1.8968 -0.6681
 3278TIP3    H231394   2.510   1.757   0.158  0.2555 -1.2990 -0.4017
 3279TIP3   OH231395   6.488   5.643   2.059 -0.0716 -0.1900  0.3338
 3279TIP3    H131396   6.466   5.667   2.149  0.6067 -0.8639  0.6995
 3279TIP3    H231397   6.404   5.645   2.012 -0.2883  1.0983  0.7441
 3280TIP3   OH231398   4.107   4.196   7.101 -0.5503 -0.3888  0.0745
 3280TIP3    H131399   4.165   4.234   7.036 -1.2101 -0.3163 -0.4825
 3280TIP3    H231400   4.070   4.119   7.059  2.8074 -3.4222  2.0653
 3281TIP3   OH231401   0.007   2.258   2.217  0.0641 -0.3357 -0.7990
 3281TIP3    H131402  -0.028   2.183   2.265  0.3674  0.5486  0.8824
 3281TIP3    H231403   0.096   2.231   2.193 -0.4748 -1.2146 -1.9084
 3282TIP3   OH231404   1.019   6.565   0.239  0.0345 -0.1444 -0.3120
 3282TIP3    H131405   1.022   6.472   0.257 -0.1699 -0.0325  0.3217
 3282TIP3    H231406   0.937   6.578   0.191 -0.0757 -0.2475 -0.1504
 3283TIP3   OH231407   0.791   6.605   0.088  0.0449  0.0336 -0.4674
 3283TIP3    H131408   0.842   6.556   0.023  0.3425 -0.1149 -0.1271
 3283TIP3    H231409   0.737   6.664   0.036 -0.5007 -0.8205 -0.8956
 3284TIP3   OH231410   0.696   4.819   7.894  0.2968 -0.3919  0.1390
 3284TIP3    H131411   0.675   4.810   7.801 -1.3717  0.3238  0.4094
 3284TIP3    H231412   0.650   4.746   7.936 -1.5083  0.9884  0.7046
 3285TIP3   OH231413   5.884   3.980   0.062 -0.0491  0.0894  0.6356
 3285TIP3    H131414   5.945   4.047   0.030 -1.7545  1.6048  0.3894
 3285TIP3    H231415   5.834   4.024   0.131 -1.7440 -0.6663 -0.0531
 3286TIP3   OH231416   6.452   1.647   1.918 -0.3197  0.2010 -0.5899
 3286TIP3    H131417   6.396   1.724   1.912  1.1766  1.3789 -0.2494
 3286TIP3    H231418   6.419   1.599   1.994  1.1358  2.6752  1.7980
 3287TIP3   OH231419   0.430   0.354   8.391 -0.2241  0.0965  0.3988
 3287TIP3    H131420   0.371   0.348   8.315  0.5393  2.9915 -0.5580
 3287TIP3    H231421   0.373   0.377   8.464 -0.5408  1.4751 -0.2340
 3288TIP3   OH231422   4.006   1.448   2.328 -0.1399 -0.3348  0.5895
 3288TIP3    H131423   3.934   1.511   2.319 -0.7552 -1.0390  0.5526
 3288TIP3    H231424   3.974   1.383   2.391 -0.2953 -1.7042 -0.8546
 3289TIP3   OH231425   4.098   5.468   1.262  0.4399  0.1599  0.3004
 3289TIP3    H131426   4.182   5.488   1.221  0.6919 -0.1139  0.6825
 3289TIP3    H231427   4.120   5.414   1.337 -0.0543  0.3519  0.5871
 3290TIP3   OH231428   3.129   0.968   8.662 -0.1000 -0.3854 -0.2827
 3290TIP3    H131429   3.153   1.037   8.724  0.3533 -0.8266  0.0546
 3290TIP3    H231430   3.146   1.005   8.576 -2.2879  0.8202 -0.2457
 3291TIP3   OH231431   5.537   3.904   1.419  0.5265 -0.5144  0.0012
 3291TIP3    H131432   5.489   3.826   1.394  1.7072 -1.4627  0.5815
 3291TIP3    H231433   5.502   3.928   1.505 -0.3521  0.0524 -0.5031
 3292TIP3   OH231434   0.829   6.062   7.505 -0.0760 -0.0428  0.2270
 3292TIP3    H131435   0.785   5.980   7.528  0.9228 -1.4491 -2.4255
 3292TIP3    H231436   0.866   6.093   7.588 -1.5641 -1.5652  1.5432
 3293TIP3   OH231437   1.626   2.726   8.447  0.1674  0.0839 -0.4702
 3293TIP3    H131438   1.674   2.807   8.466  0.3000 -0.0236 -0.3455
 3293TIP3    H231439   1.624   2.680   8.531 -1.1253  0.6031 -0.1961
 3294TIP3   OH231440   5.675   1.934   8.769  0.2890 -0.0166  0.0041
 3294TIP3    H131441   5.583   1.937   8.792  0.6920  1.5287  1.5339
 3294TIP3    H231442   5.702   1.844   8.789 -1.0873 -0.8302 -1.5294
 3295TIP3   OH231443   4.474   5.176   0.966  0.4108 -0.2124 -0.5409
 3295TIP3    H131444   4.493   5.263   1.000 -0.5130  0.2251 -1.1188
 3295TIP3    H231445   4.556   5.127   0.977  1.3835  1.1419 -1.5151
 3296TIP3   OH231446   3.851   0.308   1.976  0.4676  0.0501  0.2743
 3296TIP3    H131447   3.842   0.337   2.067 -0.5930 -1.1215  0.5672
 3296TIP3    H231448   3.861   0.390   1.926 -0.0267  0.7798  1.3282
 3297TIP3   OH231449   2.163   3.936   8.525  0.5124 -0.5591  0.1123
 3297TIP3    H131450   2.133   4.017   8.566 -2.3341 -1.4952  0.1711
 3297TIP3    H231451   2.148   3.949   8.431  1.4643 -0.4888 -0.0311
 3298TIP3   OH231452   1.208   3.007   8.636 -0.3835 -0.1459 -0.8234
 3298TIP3    H131453   1.128   3.058   8.643 -0.8236 -0.8887 -0.2924
 3298TIP3    H231454   1.217   2.987   8.543 -0.9580 -0.2807 -0.8511
 3299TIP3   OH231455   2.527   1.395   7.991 -0.2599 -0.2613  0.9473
 3299TIP3    H131456   2.468   1.469   7.974 -1.4503 -1.1391  1.1339
 3299TIP3    H231457   2.519   1.340   7.913 -2.5298 -2.1973  2.3882
 3300TIP3   OH231458   4.580   1.453   1.837 -0.1207  0.1792 -0.1738
 3300TIP3    H131459   4.567   1.545   1.814  0.7280 -0.2744 -2.8167
 3300TIP3    H231460   4.597   1.455   1.931  0.0911  2.7535 -0.1723
 3301TIP3   OH231461   6.424   6.500   1.151 -0.6274  0.6551  0.2998
 3301TIP3    H131462   6.454   6.576   1.101  0.8615 -0.0875  0.0008
 3301TIP3    H231463   6.495   6.482   1.213 -1.1723 -0.1964  0.7060
 3302TIP3   OH231464   4.580   2.952   2.046  0.4780  0.3624 -0.4833
 3302TIP3    H131465   4.658   2.956   2.102 -0.6243  0.3430  1.1418
 3302TIP3    H231466   4.509   2.927   2.106 -0.4087 -1.8603 -2.2911
 3303TIP3   OH231467   3.109   1.771   8.374 -0.4558 -0.0331 -0.0650
 3303TIP3    H131468   3.141   1.693   8.421  1.1771 -0.1018 -1.2080
 3303TIP3    H231469   3.110   1.840   8.440  0.6962 -0.3802  0.3194
 3304TIP3   OH231470   3.484   4.742   0.777  0.1846 -0.2390  0.1217
 3304TIP3    H131471   3.534   4.714   0.700  1.0925 -0.2478  0.7022
 3304TIP3    H231472   3.475   4.663   0.830 -0.0841 -0.1435  0.2204
 3305TIP3   OH231473   2.838   0.690   7.734  0.1999 -0.5411  0.3166
 3305TIP3    H131474   2.796   0.676   7.819  0.4089  0.5137  0.5963
 3305TIP3    H231475   2.918   0.638   7.738 -1.3049 -3.1669 -0.4763
 3306TIP3   OH231476   4.723   5.644   2.103 -0.5534  0.1762  0.2389
 3306TIP3    H131477   4.649   5.588   2.128 -1.5520  0.6198 -1.5385
 3306TIP3    H231478   4.774   5.654   2.184 -1.0804 -2.1364  0.9388
 3307TIP3   OH231479   3.350   3.786   6.537 -0.0535  0.1876  0.0001
 3307TIP3    H131480   3.444   3.784   6.524 -0.1590  1.6531 -1.2653
 3307TIP3    H231481   3.335   3.858   6.599 -0.3583 -0.0660  0.2329
 3308TIP3   OH231482   4.581   5.147   2.231  0.8809 -0.0097 -0.1449
 3308TIP3    H131483   4.600   5.090   2.157  0.9442  0.8328 -0.7884
 3308TIP3    H231484   4.649   5.127   2.295  1.9791  0.6157 -1.0956
 3309TIP3   OH231485   5.698   4.836   7.750 -0.3611  0.1830 -0.5166
 3309TIP3    H131486   5.706   4.921   7.793 -0.0687  0.2293 -0.6626
 3309TIP3    H231487   5.607   4.832   7.721 -0.2682  0.6176 -0.8687
 3310TIP3   OH231488   5.794   4.645   7.353 -0.6199 -0.6868 -0.2595
 3310TIP3    H131489   5.851   4.629   7.428 -0.9485  0.8895  0.3767
 3310TIP3    H231490   5.831   4.592   7.282  1.5305  0.1239  0.1901
 3311TIP3   OH231491   1.079   0.390   8.135 -0.1637  0.2728 -0.6112
 3311TIP3    H131492   1.111   0.300   8.144  1.2151  0.8124  0.1913
 3311TIP3    H231493   1.134   0.441   8.194 -1.9809  1.4269  0.1607
 3312TIP3   OH231494   6.658   3.680   7.959  0.1399 -0.0870  0.7954
 3312TIP3    H131495   6.739   3.694   7.910  1.4378 -2.3031  2.1273
 3312TIP3    H231496   6.637   3.588   7.943 -1.6390  0.2078  1.2338
 3313TIP3   OH231497   6.719   2.740   0.585 -0.0212  0.1753  0.0804
 3313TIP3    H131498   6.767   2.735   0.668  0.8890  2.4255 -0.2378
 3313TIP3    H231499   6.632   2.705   0.605  0.6751 -0.7902  1.5661
 3314TIP3   OH231500   3.369   2.399   8.181  0.3233  0.0202  0.8779
 3314TIP3    H131501   3.394   2.397   8.089 -2.3362  0.5777  0.0881
 3314TIP3    H231502   3.398   2.484   8.213 -1.1797  0.9791 -0.2241
 3315TIP3   OH231503   4.235   2.485   2.183  0.0573  0.4497 -0.0691
 3315TIP3    H131504   4.148   2.467   2.218  0.6288 -0.8390  0.7672
 3315TIP3    H231505   4.274   2.545   2.246  0.7797 -1.2161  1.1570
 3316TIP3   OH231506   4.336   1.685   2.661 -0.4114  0.2556 -0.2621
 3316TIP3    H131507   4.278   1.624   2.615  0.0076  1.7246 -2.9610
 3316TIP3    H231508   4.279   1.730   2.723 -1.1417 -1.4321  0.3508
 3317TIP3   OH231509   0.095   0.254   8.909 -0.0675 -0.2507  0.0774
 3317TIP3    H131510   0.049   0.297   8.837  0.1974  1.1442  0.6982
 3317TIP3    H231511   0.144   0.325   8.952 -0.4206 -0.9832  1.7863
 3318TIP3   OH231512   3.405   3.416   2.047  0.4405 -0.0639  0.0437
 3318TIP3    H131513   3.500   3.422   2.043  0.3131  2.2036 -0.5942
 3318TIP3    H231514   3.381   3.360   1.973  1.1955  0.5664 -0.6843
 3319TIP3   OH231515   5.054   3.701   1.805 -0.0945 -0.1098  0.7541
 3319TIP3    H131516   5.024   3.632   1.864  0.1097 -1.2112 -0.3918
 3319TIP3    H231517   5.106   3.759   1.861 -0.4616 -0.7541  1.7893
 3320TIP3   OH231518   3.064   4.940   0.657 -0.0287  0.7846  0.1593
 3320TIP3    H131519   3.080   5.014   0.715  0.0559 -0.0622  1.2585
 3320TIP3    H231520   2.987   4.965   0.607 -1.3492  0.7831  2.0580
 3321TIP3   OH231521   1.094   0.814   7.405 -0.5281 -0.0739  0.6152
 3321TIP3    H131522   1.067   0.818   7.313 -1.8198  0.7717  0.9999
 3321TIP3    H231523   1.185   0.785   7.402 -0.8347 -0.9799 -0.8739
 3322TIP3   OH231524   2.815   2.995   1.661  0.2028  0.3039 -0.0975
 3322TIP3    H131525   2.797   2.992   1.567 -0.6761 -2.0846  0.0734
 3322TIP3    H231526   2.730   3.009   1.702  0.1687 -1.1564  0.3963
 3323TIP3   OH231527   2.658   1.299   0.099 -0.4577 -0.1200 -0.3834
 3323TIP3    H131528   2.744   1.302   0.056 -0.6020  2.0578 -0.5846
 3323TIP3    H231529   2.600   1.260   0.034 -0.2456  1.2647 -1.4501
 3324TIP3   OH231530   5.981   3.894   7.237 -0.4242  0.2098  0.2209
 3324TIP3    H131531   5.947   3.870   7.151 -3.0017  1.0667  0.9132
 3324TIP3    H231532   5.999   3.987   7.232 -3.2151  0.9288  1.2546
 3325TIP3   OH231533   2.472   4.717   1.090 -0.5188 -0.4761  0.7734
 3325TIP3    H131534   2.530   4.661   1.141  1.0886 -0.7338 -1.1851
 3325TIP3    H231535   2.482   4.685   1.000 -0.2089  2.3580 -0.2961
 3326TIP3   OH231536   0.781   0.145   6.242  0.1864  0.1333  0.4851
 3326TIP3    H131537   0.706   0.101   6.281  0.7559 -0.9663  0.3724
 3326TIP3    H231538   0.743   0.217   6.191 -0.7879 -0.4638  0.3532
 3327TIP3   OH231539   5.548   6.769   1.302 -0.4086 -0.0837  0.6618
 3327TIP3    H131540   5.456   6.775   1.327 -0.4442  0.4485  0.4149
 3327TIP3    H231541   5.563   6.846   1.246  0.4099  0.3517  1.4476
 3328TIP3   OH231542   1.825   5.637   7.608  0.2031  0.2060 -0.3605
 3328TIP3    H131543   1.754   5.582   7.575  0.7699 -0.0031 -1.2615
 3328TIP3    H231544   1.879   5.577   7.659  0.8591 -0.1156 -1.3999
 3329TIP3   OH231545   6.320   5.594   7.927  0.2529 -0.0699 -0.2805
 3329TIP3    H131546   6.353   5.666   7.981  1.3640 -1.7378  1.4051
 3329TIP3    H231547   6.351   5.614   7.839 -2.1222  3.0494 -0.5817
 3330TIP3   OH231548   1.515   0.202   0.928 -0.3578 -0.4133 -0.0618
 3330TIP3    H131549   1.490   0.188   0.837  1.7425 -1.5390 -0.5277
 3330TIP3    H231550   1.599   0.247   0.923 -1.1192  1.3175  1.3938
 3331TIP3   OH231551   3.241   0.608   0.790  0.3439  0.0973 -0.0224
 3331TIP3    H131552   3.159   0.606   0.740  0.9767 -2.5074 -1.1630
 3331TIP3    H231553   3.220   0.565   0.873  0.4350 -0.1860 -0.1434
 3332TIP3   OH231554   6.562   6.542   2.097  0.4528  0.2312  0.8267
 3332TIP3    H131555   6.657   6.554   2.106  0.2826  0.8593  2.0033
 3332TIP3    H231556   6.527   6.631   2.096 -0.2695 -0.0150  2.3886
 3333TIP3   OH231557   0.510   0.277   7.581 -0.1026 -0.1805  0.1135
 3333TIP3    H131558   0.544   0.363   7.606 -1.9499  0.8410 -0.6755
 3333TIP3    H231559   0.550   0.260   7.495  0.6912 -0.3802  0.5152
 3334TIP3   OH231560   3.085   1.287   0.967  0.2050 -0.0699  0.2209
 3334TIP3    H131561   3.180   1.284   0.973  0.1967  1.1985  1.4573
 3334TIP3    H231562   3.054   1.248   1.049 -0.3103  0.3004  0.2099
 3335TIP3   OH231563   1.546   1.501   0.483 -0.3378  0.4992 -0.0644
 3335TIP3    H131564   1.452   1.498   0.464 -0.6030 -1.0010  1.3463
 3335TIP3    H231565   1.587   1.516   0.397 -1.8965  2.6073 -0.5146
 3336TIP3   OH231566   6.522   0.405   8.316 -0.5329  0.0288  0.1373
 3336TIP3    H131567   6.483   0.451   8.243  1.2018  2.4416  0.6230
 3336TIP3    H231568   6.608   0.446   8.328  0.0183 -1.5652  2.3170
 3337TIP3   OH231569   4.503   0.783   8.111 -0.1224 -0.0722 -0.1718
 3337TIP3    H131570   4.522   0.846   8.181 -0.3005  1.9091 -1.7864
 3337TIP3    H231571   4.466   0.707   8.155 -0.2543  1.1163  1.8691
 3338TIP3   OH231572   0.123   3.904   0.438  0.0916 -0.0090 -0.6404
 3338TIP3    H131573   0.085   3.822   0.467 -1.7499  0.9402 -0.2328
 3338TIP3    H231574   0.058   3.941   0.378  1.0088  1.0277 -1.0312
 3339TIP3   OH231575   5.550   2.606   8.096 -0.1839 -0.0829  0.0655
 3339TIP3    H131576   5.620   2.548   8.126 -0.8862 -1.6162 -1.1580
 3339TIP3    H231577   5.514   2.644   8.177  0.3008 -1.3427  0.8916
 3340TIP3   OH231578   5.603   3.391   1.530 -0.8131  0.1321  0.6786
 3340TIP3    H131579   5.580   3.299   1.523 -1.0024  0.2313 -0.1312
 3340TIP3    H231580   5.624   3.404   1.622 -0.1347 -0.8688  0.6737
 3341TIP3   OH231581   5.482   0.100   0.464 -0.6602  0.1733 -0.6033
 3341TIP3    H131582   5.500   0.099   0.558 -0.7119 -1.1313 -0.5896
 3341TIP3    H231583   5.543   0.165   0.429  1.3043 -1.2595 -0.0213
 3342TIP3   OH231584   6.229   1.564   0.907 -1.1699  1.0204 -0.2759
 3342TIP3    H131585   6.148   1.514   0.919 -1.2902  1.2435 -0.1534
 3342TIP3    H231586   6.240   1.568   0.812 -0.4529 -0.3653 -0.2700
 3343TIP3   OH231587   3.645   1.118   2.065  0.5734 -0.0516  0.0539
 3343TIP3    H131588   3.725   1.170   2.059  0.9257 -0.5509  0.3103
 3343TIP3    H231589   3.674   1.033   2.100  0.0996 -0.6163 -0.8693
 3344TIP3   OH231590   0.134   2.741   8.397 -0.2633 -0.0457  0.0974
 3344TIP3    H131591   0.157   2.767   8.308 -1.9239  1.1051 -0.0411
 3344TIP3    H231592   0.177   2.805   8.453 -1.1506  0.6916 -0.0355
 3345TIP3   OH231593   3.716   0.580   0.701  0.6291 -0.2262  0.1455
 3345TIP3    H131594   3.686   0.536   0.781  0.3008  0.6014  0.4876
 3345TIP3    H231595   3.675   0.667   0.705 -0.8160 -0.7611 -1.7993
 3346TIP3   OH231596   1.636   1.651   7.466 -0.3711  0.4138 -0.2500
 3346TIP3    H131597   1.712   1.623   7.414 -0.9544 -1.2869 -0.2535
 3346TIP3    H231598   1.587   1.709   7.407  0.8133  1.3734 -0.3115
 3347TIP3   OH231599   5.542   0.118   0.756  0.2641  0.4879  0.1531
 3347TIP3    H131600   5.547   0.213   0.742 -1.6116  0.2570 -2.9198
 3347TIP3    H231601   5.467   0.107   0.815 -0.6753  0.8625 -0.9409
 3348TIP3   OH231602   6.515   0.354   2.323  0.5457 -0.7701  0.6516
 3348TIP3    H131603   6.454   0.282   2.336  0.7451 -1.1231 -0.3073
 3348TIP3    H231604   6.543   0.346   2.232  0.3024  0.7255  0.4144
 3349TIP3   OH231605   0.647   6.310   7.105 -0.1081 -0.2970  0.3879
 3349TIP3    H131606   0.587   6.378   7.136  1.7702  2.5164 -1.6107
 3349TIP3    H231607   0.685   6.273   7.185 -2.1400  0.0612  1.5738
 3350TIP3   OH231608   3.414   2.105   1.290  0.1570 -0.6766  0.0558
 3350TIP3    H131609   3.390   2.041   1.223 -1.6028 -0.3858  0.3436
 3350TIP3    H231610   3.361   2.182   1.268  0.1105 -0.3291  1.3450
 3351TIP3   OH231611   4.204   3.636   7.552  0.7736 -0.4303 -0.3709
 3351TIP3    H131612   4.186   3.542   7.559  1.1485 -0.4387  0.5219
 3351TIP3    H231613   4.299   3.643   7.555  0.7163  0.0453  0.5221
 3352TIP3   OH231614   6.055   6.657   8.330 -0.3007 -0.1292  0.6854
 3352TIP3    H131615   6.051   6.561   8.325 -0.3194 -0.0718 -0.6584
 3352TIP3    H231616   6.127   6.681   8.271 -0.3551  0.6935  0.9448
 3353TIP3   OH231617   3.052   0.075   1.591  0.4324  0.1315 -0.1588
 3353TIP3    H131618   2.971   0.038   1.626  0.7142 -1.1431 -0.7642
 3353TIP3    H231619   3.048   0.168   1.612 -0.6317 -0.1220  0.8639
 3354TIP3   OH231620   6.331   3.079   8.180 -0.3622 -0.1061 -0.6306
 3354TIP3    H131621   6.327   2.985   8.200  0.5616 -0.0640 -0.1947
 3354TIP3    H231622   6.330   3.084   8.085 -0.1185 -0.5729 -0.6578
 3355TIP3   OH231623   2.609   1.876   7.957 -0.2198 -0.0785 -0.6856
 3355TIP3    H131624   2.598   1.837   7.870 -0.8548 -1.3941 -0.0505
 3355TIP3    H231625   2.571   1.963   7.950 -2.5133 -1.0482 -1.1001
 3356TIP3   OH231626   5.113   5.756   8.743  0.0196 -0.3048 -0.5010
 3356TIP3    H131627   5.018   5.748   8.748  0.0670 -0.2921  0.7696
 3356TIP3    H231628   5.130   5.846   8.771  0.4249 -0.4486 -0.2805
 3357TIP3   OH231629   2.223   5.741   1.871  0.3162  0.2224  0.0378
 3357TIP3    H131630   2.296   5.742   1.932  0.9660  0.9865 -0.7310
 3357TIP3    H231631   2.259   5.773   1.788 -0.3554 -1.4941 -0.9829
 3358TIP3   OH231632   0.238   1.035   8.258 -0.2159 -0.0055 -0.3929
 3358TIP3    H131633   0.209   0.996   8.175  0.9374  0.5145 -1.0512
 3358TIP3    H231634   0.194   1.119   8.262 -0.1909  0.0136 -0.5240
 3359TIP3   OH231635   5.595   3.132   1.525  1.0498 -0.1839 -0.2802
 3359TIP3    H131636   5.564   3.149   1.614  0.5511 -0.6678 -0.3585
 3359TIP3    H231637   5.577   3.039   1.510  0.3905  0.0770 -1.1738
 3360TIP3   OH231638   4.542   3.178   1.714  0.2404  0.1677 -0.0926
 3360TIP3    H131639   4.465   3.168   1.769  0.3704 -0.0713  0.0476
 3360TIP3    H231640   4.613   3.137   1.764  0.4507  0.3533 -0.2344
 3361TIP3   OH231641   0.977   0.680   0.033  0.0935 -0.1803  0.0318
 3361TIP3    H131642   1.008   0.762  -0.005  1.3105  0.1210  1.5822
 3361TIP3    H231643   0.891   0.701   0.070  1.3304  1.0449  2.3892
 3362TIP3   OH231644   5.565   5.441   0.730 -0.0622 -0.1037 -0.8338
 3362TIP3    H131645   5.556   5.451   0.635  0.2424  2.9491 -0.6403
 3362TIP3    H231646   5.652   5.403   0.742  0.3465  0.4962 -1.7711
 3363TIP3   OH231647   6.295   0.404   8.650 -0.4722 -0.0952 -0.7048
 3363TIP3    H131648   6.219   0.345   8.655  0.8866 -1.8855 -0.2047
 3363TIP3    H231649   6.257   0.492   8.644 -2.5799 -0.8968  0.0155
 3364TIP3   OH231650   5.912   4.610   2.232  0.0535  0.4949  0.3528
 3364TIP3    H131651   5.958   4.650   2.158 -0.5846 -1.4152 -1.1827
 3364TIP3    H231652   5.819   4.629   2.214 -0.2289 -1.2540 -0.2232
 3365TIP3   OH231653   0.366   3.233   0.692 -0.2678  0.2106 -0.0404
 3365TIP3    H131654   0.376   3.268   0.604  0.3859 -0.8957 -0.4287
 3365TIP3    H231655   0.427   3.284   0.745  0.5297 -0.1720 -0.5585
 3366TIP3   OH231656   6.590   1.331   0.724 -0.0363  0.7981  0.0781
 3366TIP3    H131657   6.560   1.376   0.645 -1.2638  2.3148  1.3404
 3366TIP3    H231658   6.644   1.259   0.691 -1.2063  0.8430 -2.1523
 3367TIP3   OH231659   2.025   3.518   1.679  0.3308  0.2198  0.2613
 3367TIP3    H131660   2.036   3.497   1.772  0.1944  1.6509  0.6268
 3367TIP3    H231661   1.954   3.461   1.649 -1.0537  1.1934  1.5675
 3368TIP3   OH231662   1.448   1.807   0.949  0.4714  0.2078 -0.4034
 3368TIP3    H131663   1.413   1.832   1.035  2.7800 -0.7350  0.8855
 3368TIP3    H231664   1.372   1.811   0.891 -0.8141  2.6833  1.2566
 3369TIP3   OH231665   0.677   5.544   1.496  0.0274 -0.4872 -0.5513
 3369TIP3    H131666   0.705   5.456   1.471 -0.7275 -0.3047 -2.2134
 3369TIP3    H231667   0.739   5.602   1.454  1.1985 -0.1838  1.4557
 3370TIP3   OH231668   0.042   4.979   8.249 -0.0238 -0.1520  0.3733
 3370TIP3    H131669   0.036   4.968   8.343 -0.0747 -0.2021  0.3639
 3370TIP3    H231670  -0.035   5.032   8.225  1.5619  2.5048  0.7597
 3371TIP3   OH231671   0.208   0.456   0.167  0.5026  0.0342  0.3236
 3371TIP3    H131672   0.219   0.453   0.262  1.1092 -0.1962  0.2483
 3371TIP3    H231673   0.295   0.437   0.132 -0.1562 -2.1196 -0.2900
 3372TIP3   OH231674   3.477   3.941   0.305  0.3157 -0.1721 -1.0037
 3372TIP3    H131675   3.526   3.969   0.382 -0.9175  0.0086 -0.2393
 3372TIP3    H231676   3.429   3.863   0.335 -1.9678  1.1915 -0.7947
 3373TIP3   OH231677   3.596   6.026   8.434 -0.2464 -0.8498  0.5915
 3373TIP3    H131678   3.504   6.002   8.418 -0.4046 -0.0070  0.1647
 3373TIP3    H231679   3.590   6.099   8.496  0.0690 -0.0249 -0.3253
 3374TIP3   OH231680   5.243   5.921   7.463 -0.2496  0.3214  0.1239
 3374TIP3    H131681   5.308   5.850   7.458  1.5074  1.8145  0.6742
 3374TIP3    H231682   5.273   5.975   7.536 -3.6229 -0.3129  2.1366
 3375TIP3   OH231683   1.301   2.859   7.135 -0.2324 -0.0132  0.5568
 3375TIP3    H131684   1.273   2.785   7.082 -0.2369  0.6088 -0.3370
 3375TIP3    H231685   1.227   2.920   7.133  0.0933  0.3903  0.5621
 3376TIP3   OH231686   4.499   5.325   2.450  0.0249 -0.2777 -0.3937
 3376TIP3    H131687   4.546   5.407   2.433  1.7929 -1.2450 -0.4013
 3376TIP3    H231688   4.502   5.277   2.367  1.9149 -1.7008  0.4064
 3377TIP3   OH231689   4.514   1.689   1.009 -0.2136  0.6374 -0.4313
 3377TIP3    H131690   4.451   1.631   1.050  0.2938  0.4779  0.1422
 3377TIP3    H231691   4.585   1.631   0.980  1.7630  1.1730  2.8217
 3378TIP3   OH231692   3.371   0.074   0.452 -0.5765 -0.7505  0.4215
 3378TIP3    H131693   3.419   0.066   0.370 -1.9364 -2.5332 -0.2620
 3378TIP3    H231694   3.333   0.162   0.450  0.4603 -0.2993 -0.2264
 3379TIP3   OH231695   1.117   2.865   1.503 -0.6881  0.2914  0.3309
 3379TIP3    H131696   1.154   2.950   1.527 -0.4322  0.3608 -0.3065
 3379TIP3    H231697   1.184   2.802   1.529 -0.8399  0.2858  0.7207
 3380TIP3   OH231698   1.628   4.188   7.774 -0.7954  0.1441  0.1366
 3380TIP3    H131699   1.628   4.279   7.745 -1.5812 -1.0810 -4.3814
 3380TIP3    H231700   1.720   4.168   7.789 -0.7181  1.9684  2.8155
 3381TIP3   OH231701   1.946   0.701   1.273 -0.2522  0.3993 -0.3544
 3381TIP3    H131702   1.871   0.745   1.232 -0.9505 -0.2302  0.1977
 3381TIP3    H231703   1.922   0.695   1.366  0.8128  0.8309 -0.0367
 3382TIP3   OH231704   4.409   1.177   7.365 -0.0555  0.4793 -0.5335
 3382TIP3    H131705   4.481   1.236   7.387  0.4703  0.5061 -2.1968
 3382TIP3    H231706   4.330   1.226   7.387  0.4079  1.0676 -0.1577
 3383TIP3   OH231707   6.488   1.935   0.544  0.0319 -0.6520 -0.0882
 3383TIP3    H131708   6.483   1.982   0.460 -1.0659 -0.3865  0.1121
 3383TIP3    H231709   6.568   1.969   0.585 -0.3032  0.4532 -0.3028
 3384TIP3   OH231710   3.058   4.778   2.154  0.1271  0.3855  0.0407
 3384TIP3    H131711   3.124   4.713   2.176  0.3412  0.3575 -0.6658
 3384TIP3    H231712   2.975   4.734   2.170  0.2532  0.5512  1.3206
 3385TIP3   OH231713   5.299   6.099   0.536 -0.2344  0.0365 -0.6761
 3385TIP3    H131714   5.315   6.112   0.630 -2.1826 -1.1421 -0.1314
 3385TIP3    H231715   5.379   6.055   0.505  1.5717  2.7312 -0.2037
 3386TIP3   OH231716   4.420   0.587   7.807 -0.0761 -0.0601 -0.2873
 3386TIP3    H131717   4.480   0.514   7.788 -0.2951  0.2019 -2.2381
 3386TIP3    H231718   4.462   0.635   7.878  1.3645 -0.6422 -0.7047
 3387TIP3   OH231719   0.600   1.568   1.318 -0.4709  0.3141  0.0305
 3387TIP3    H131720   0.602   1.534   1.228 -0.0696  1.2304 -0.3189
 3387TIP3    H231721   0.644   1.501   1.370 -0.0642  0.1011 -0.5798
 3388TIP3   OH231722   6.362   2.702   7.294 -0.0856  0.0967 -0.0041
 3388TIP3    H131723   6.405   2.781   7.328 -0.8425  1.3196 -1.7608
 3388TIP3    H231724   6.426   2.664   7.235 -0.2403  0.1928 -0.2361
 3389TIP3   OH231725   2.492   4.217   0.857  0.1511  0.5468 -0.2750
 3389TIP3    H131726   2.422   4.282   0.864  1.0295  1.7226 -1.7773
 3389TIP3    H231727   2.508   4.209   0.763  1.3003 -0.5113 -0.0151
 3390TIP3   OH231728   2.722   2.021   7.483 -0.5445  0.5497  0.0436
 3390TIP3    H131729   2.760   1.989   7.401  0.0724  0.7400  0.2485
 3390TIP3    H231730   2.672   2.099   7.457  0.3560  1.1234 -0.0492
 3391TIP3   OH231731   0.445   2.900   2.024  0.0372 -0.1480  0.0917
 3391TIP3    H131732   0.351   2.890   2.041  0.1008 -1.8806 -0.3779
 3391TIP3    H231733   0.452   2.983   1.978 -1.4887 -0.7936 -1.4159
 3392TIP3   OH231734   4.509   6.687   1.866 -0.2659 -0.1600 -0.2136
 3392TIP3    H131735   4.540   6.776   1.847  1.2234  0.6308  4.5999
 3392TIP3    H231736   4.416   6.698   1.889 -0.4479 -0.1411 -0.9215
 3393TIP3   OH231737   1.668   1.113   6.765  0.2848 -1.0730 -0.6715
 3393TIP3    H131738   1.583   1.076   6.739  0.3624 -1.5698 -0.2414
 3393TIP3    H231739   1.724   1.036   6.778  0.2957 -0.8423  0.7908
 3394TIP3   OH231740   6.301   2.274   1.289 -0.4904 -0.9479  0.1658
 3394TIP3    H131741   6.337   2.192   1.256  0.4707 -0.8549  0.9172
 3394TIP3    H231742   6.344   2.286   1.374 -0.3932  0.4739 -0.0559
 3395TIP3   OH231743   6.487   0.192   8.788  0.5204  0.6829 -0.7590
 3395TIP3    H131744   6.504   0.132   8.716  1.7719  0.0013  0.0745
 3395TIP3    H231745   6.392   0.205   8.786  0.2931 -0.8834 -1.2996
 3396TIP3   OH231746   0.279   1.055   8.509  0.0827 -0.1601 -0.0746
 3396TIP3    H131747   0.196   1.087   8.544 -0.3315 -0.0885 -1.0735
 3396TIP3    H231748   0.264   1.049   8.414  1.5531  0.8826 -0.4142
 3397TIP3   OH231749   0.011   3.981   7.285 -0.0603  0.5596 -0.4369
 3397TIP3    H131750  -0.041   4.061   7.291 -0.8501  0.0405 -0.0865
 3397TIP3    H231751   0.079   4.001   7.221  0.3690  1.8377  0.3733
 3398TIP3   OH231752   4.709   4.567   8.673 -0.3287 -0.0251  0.2124
 3398TIP3    H131753   4.685   4.521   8.754 -2.5348 -0.6847 -0.7331
 3398TIP3    H231754   4.651   4.530   8.607 -1.1869  3.0815 -0.9313
 3399TIP3   OH231755   2.112   1.007   8.113 -0.4110 -0.3437 -0.5474
 3399TIP3    H131756   2.123   0.912   8.104 -1.8917 -0.5397 -0.5055
 3399TIP3    H231757   2.121   1.024   8.206 -0.5979 -0.5177 -0.4959
 3400TIP3   OH231758   4.814   0.172   7.255 -0.0276 -0.2786 -0.3005
 3400TIP3    H131759   4.773   0.149   7.171 -0.9586  0.0196  0.0666
 3400TIP3    H231760   4.742   0.169   7.318  0.3889  0.9082  0.2419
 3401TIP3   OH231761   3.113   0.118   6.581 -0.2524  0.1431 -0.3352
 3401TIP3    H131762   3.198   0.146   6.547 -0.7656  2.6019  0.1962
 3401TIP3    H231763   3.124   0.025   6.601  2.4048  0.4587 -0.0259
 3402TIP3   OH231764   1.020   4.144   6.720 -0.3030  0.3030  0.2594
 3402TIP3    H131765   1.080   4.085   6.674 -0.2352 -0.8447  1.7515
 3402TIP3    H231766   1.076   4.212   6.756  0.3474 -1.3452  2.5697
 3403TIP3   OH231767   2.176   0.666   2.053 -0.0650  0.3382 -0.0471
 3403TIP3    H131768   2.083   0.670   2.032  0.1108 -1.8386 -1.6751
 3403TIP3    H231769   2.195   0.573   2.061  1.5590  0.7876  2.5721
 3404TIP3   OH231770   1.761   4.276   7.185 -0.9972  0.1388  0.3666
 3404TIP3    H131771   1.722   4.272   7.098 -1.2785 -1.0952  0.5309
 3404TIP3    H231772   1.692   4.246   7.244 -0.4769 -0.0397  0.8982
 3405TIP3   OH231773   1.220   4.317   8.893 -0.2903 -0.5095  0.5069
 3405TIP3    H131774   1.182   4.382   8.835  1.1322  0.9272  1.1065
 3405TIP3    H231775   1.236   4.241   8.837  0.8497  0.7536 -0.9692
 3406TIP3   OH231776   5.301   0.470   7.439  0.2052 -0.4933 -0.5446
 3406TIP3    H131777   5.322   0.484   7.347  1.2606 -0.0577 -0.2586
 3406TIP3    H231778   5.254   0.387   7.441 -1.0596  0.1559 -1.6241
 3407TIP3   OH231779   5.227   2.775   1.415 -0.0255 -0.2877  0.2028
 3407TIP3    H131780   5.188   2.838   1.476 -0.4619 -0.0359 -0.3314
 3407TIP3    H231781   5.153   2.739   1.367  0.4970  2.7919 -3.3928
 3408TIP3   OH231782   0.615   1.859   1.375  0.7457  0.0718  0.5380
 3408TIP3    H131783   0.602   1.767   1.351 -0.8978 -0.2249  2.2953
 3408TIP3    H231784   0.628   1.858   1.469 -0.5556  1.7105  0.7886
 3409TIP3   OH231785   4.934   3.411   2.232 -0.2254  0.3472 -0.1018
 3409TIP3    H131786   4.903   3.328   2.269  0.2751  0.2383  0.0768
 3409TIP3    H231787   4.857   3.468   2.235 -0.6377 -0.1718 -0.4262
 3410TIP3   OH231788   0.376   5.394   7.218 -0.2983  0.3271  0.4113
 3410TIP3    H131789   0.347   5.449   7.291 -0.6334  0.4803  0.1665
 3410TIP3    H231790   0.319   5.318   7.221 -0.6250  0.5563  0.0209
 3411TIP3   OH231791   4.036   4.536   6.951 -0.3726 -0.1462  0.0581
 3411TIP3    H131792   4.131   4.528   6.946  0.1110  2.5582  2.3464
 3411TIP3    H231793   4.018   4.625   6.919 -2.1329 -0.5190 -0.1062
 3412TIP3   OH231794   0.137   2.032   8.291 -0.0927 -0.3527  0.4416
 3412TIP3    H131795   0.163   2.115   8.330 -1.5386  0.6454 -0.5767
 3412TIP3    H231796   0.186   2.027   8.209 -0.1186 -0.4271  0.4300
 3413TIP3   OH231797   4.994   4.295   0.677  0.5386  0.0975 -0.0461
 3413TIP3    H131798   5.064   4.360   0.678  0.2998  0.4024  2.1877
 3413TIP3    H231799   4.970   4.284   0.769 -1.0653 -1.4029 -0.5832
 3414TIP3   OH231800   3.140   1.531   8.586 -0.1578  0.0920 -0.1845
 3414TIP3    H131801   3.227   1.495   8.606  0.4925  1.3719 -0.5802
 3414TIP3    H231802   3.098   1.539   8.672  1.3209  2.3335  0.4310
 3415TIP3   OH231803   1.326   5.683   0.491  0.6151 -0.2766  0.1808
 3415TIP3    H131804   1.360   5.677   0.580  1.8246 -0.0006 -0.2449
 3415TIP3    H231805   1.403   5.698   0.437 -0.0986 -0.4877 -0.9237
 3416TIP3   OH231806   2.378   4.548   7.084 -0.8561 -0.2056 -0.1249
 3416TIP3    H131807   2.382   4.485   7.156 -2.0944  0.3117  0.4357
 3416TIP3    H231808   2.295   4.528   7.041 -1.2073  0.9555 -0.0052
 3417TIP3   OH231809   5.705   5.012   0.669  0.0072 -0.0190 -0.6468
 3417TIP3    H131810   5.637   5.075   0.644 -1.0994 -0.7632  0.4251
 3417TIP3    H231811   5.765   5.063   0.723 -0.1246  0.4462 -0.9255
 3418TIP3   OH231812   1.892   1.598   7.333  0.0785 -0.2688 -0.3612
 3418TIP3    H131813   1.957   1.585   7.403 -0.8415 -0.9483  0.3932
 3418TIP3    H231814   1.939   1.575   7.253  0.9457 -0.1688  0.1063
 3419TIP3   OH231815   2.624   4.727   7.742  0.2115  0.4283  0.4377
 3419TIP3    H131816   2.679   4.649   7.752 -0.4958 -0.1625 -0.1905
 3419TIP3    H231817   2.578   4.713   7.660  0.4228  1.7411  0.0824
 3420TIP3   OH231818   6.154   1.611   7.240  0.4993 -0.4295  0.1193
 3420TIP3    H131819   6.062   1.589   7.257 -0.3277  1.1274 -2.0219
 3420TIP3    H231820   6.176   1.675   7.308 -0.5238  0.4094 -0.3223
 3421TIP3   OH231821   3.768   4.345   6.368  0.5231  0.6315 -0.2085
 3421TIP3    H131822   3.844   4.311   6.415  1.4590  2.6739 -0.1280
 3421TIP3    H231823   3.714   4.385   6.435 -0.6040 -0.7164 -0.2816
 3422TIP3   OH231824   1.317   4.163   6.715 -0.0546  0.1138  0.2873
 3422TIP3    H131825   1.290   4.075   6.744 -0.8866 -0.2635 -1.5076
 3422TIP3    H231826   1.337   4.209   6.796  1.6914 -2.1208  1.2472
 3423TIP3   OH231827   4.316   4.406   7.869  0.3068  0.1319  0.2866
 3423TIP3    H131828   4.382   4.346   7.904 -0.3617 -1.0132 -0.3622
 3423TIP3    H231829   4.264   4.353   7.809 -2.3846  0.4778  2.1101
 3424TIP3   OH231830   4.183   0.748   8.262  0.2929  0.4173 -0.2857
 3424TIP3    H131831   4.192   0.753   8.167  0.8452  0.2812 -0.2432
 3424TIP3    H231832   4.235   0.673   8.287 -1.6762 -0.9580 -0.0901
 3425TIP3   OH231833   1.949   0.843   0.914 -0.3095 -0.3068  0.4705
 3425TIP3    H131834   2.036   0.804   0.925  0.8035  2.0436  0.5370
 3425TIP3    H231835   1.943   0.909   0.983 -2.2737 -0.5773  0.6096
 3426TIP3   OH231836   3.747   6.762   7.158 -0.1501  0.1394  0.6605
 3426TIP3    H131837   3.798   6.807   7.225  0.1626 -0.3395  0.7524
 3426TIP3    H231838   3.757   6.669   7.179  1.2306 -0.1379 -0.9171
 3427TIP3   OH231839   5.792   2.763   0.696  0.2857  0.3692  0.3684
 3427TIP3    H131840   5.863   2.762   0.760  0.2161 -0.1624  0.4397
 3427TIP3    H231841   5.833   2.730   0.615  0.2421  0.5288  0.2818
 3428TIP3   OH231842   0.310   1.805   7.522  0.4406 -0.5097  0.4464
 3428TIP3    H131843   0.370   1.793   7.448 -0.1245 -1.1890  0.0877
 3428TIP3    H231844   0.367   1.830   7.595  1.0252  0.0189 -0.1745
 3429TIP3   OH231845   6.104   4.999   7.764  0.0318  0.1994 -0.0082
 3429TIP3    H131846   6.080   4.981   7.673  0.7665  0.7758 -0.3295
 3429TIP3    H231847   6.098   4.913   7.808 -1.0435  0.0545 -0.4167
 3430TIP3   OH231848   2.938   6.046   0.113 -0.3441  0.2641  0.0093
 3430TIP3    H131849   2.948   6.094   0.195 -2.9464  1.9282 -0.5325
 3430TIP3    H231850   2.908   5.959   0.140 -0.1094  0.4304  0.8496
 3431TIP3   OH231851   6.115   3.720   1.644  0.6066  0.0582 -0.7652
 3431TIP3    H131852   6.057   3.792   1.617 -0.1370 -0.5802 -0.9228
 3431TIP3    H231853   6.085   3.645   1.592  3.0468  0.2058 -2.5241
 3432TIP3   OH231854   4.477   0.975   0.314 -0.0548 -0.0567  0.0008
 3432TIP3    H131855   4.453   1.024   0.235  0.5648  0.3105  0.0373
 3432TIP3    H231856   4.519   0.896   0.280  0.3212  0.1579 -0.0417
 3433TIP3   OH231857   3.891   2.079   0.281 -0.0443  0.0742 -0.0775
 3433TIP3    H131858   3.947   2.115   0.212  0.1705 -1.1602 -0.5622
 3433TIP3    H231859   3.803   2.107   0.256  0.2886  1.8910  0.6028
 3434TIP3   OH231860   2.459   4.940   7.627 -0.2926 -0.1790  0.2482
 3434TIP3    H131861   2.486   4.906   7.713  1.0349  0.7997  0.2486
 3434TIP3    H231862   2.524   4.905   7.566  1.6709  2.9372  0.3779
 3435TIP3   OH231863   2.520   5.674   6.803 -0.1223  0.4276 -0.3342
 3435TIP3    H131864   2.578   5.604   6.835 -0.1658  0.6703  0.2978
 3435TIP3    H231865   2.580   5.740   6.768 -0.0648  0.2203 -0.6253
 3436TIP3   OH231866   1.064   5.214   8.010 -0.0059  0.2775 -0.6349
 3436TIP3    H131867   1.032   5.284   8.067 -0.3896 -1.1290  0.9888
 3436TIP3    H231868   0.987   5.157   7.998  0.8812 -1.1806  0.2162
 3437TIP3   OH231869   3.872   1.091   2.437 -0.1855  0.0967 -0.0971
 3437TIP3    H131870   3.796   1.036   2.419  0.0296 -0.2605  0.0954
 3437TIP3    H231871   3.840   1.155   2.501 -0.8437  1.1176 -1.3927
 3438TIP3   OH231872   2.941   3.298   8.750 -0.4923 -0.0574  0.0702
 3438TIP3    H131873   2.985   3.370   8.705  3.5178 -1.4162  1.3359
 3438TIP3    H231874   2.918   3.334   8.835 -1.5660  0.5800 -0.4728
 3439TIP3   OH231875   4.366   2.281   2.041 -1.0392  0.2633  0.6261
 3439TIP3    H131876   4.419   2.221   2.093 -0.4730  0.9715  0.8859
 3439TIP3    H231877   4.321   2.336   2.105  2.4448  3.6219  0.5637
 3440TIP3   OH231878   2.328   3.393   6.719 -0.3014 -0.8280 -0.2592
 3440TIP3    H131879   2.369   3.354   6.796 -0.7709 -0.1339  0.3621
 3440TIP3    H231880   2.294   3.477   6.750 -0.7141 -0.6429 -1.1681
 3441TIP3   OH231881   1.945   5.052   8.910  0.5973 -0.1675 -0.1811
 3441TIP3    H131882   1.880   5.036   8.979  1.3820 -0.5720  0.4784
 3441TIP3    H231883   1.894   5.087   8.837 -1.0016 -3.6952 -1.0080
 3442TIP3   OH231884   0.763   0.892   8.815 -0.1323 -0.3116  0.6985
 3442TIP3    H131885   0.845   0.889   8.765  0.0640 -0.4320  1.0259
 3442TIP3    H231886   0.695   0.901   8.749  0.1784  0.2153  0.4471
 3443TIP3   OH231887   1.578   5.878   1.326  0.9720  0.9294 -0.3881
 3443TIP3    H131888   1.523   5.956   1.328 -0.7037 -0.2088  0.4351
 3443TIP3    H231889   1.608   5.868   1.417  0.0421 -0.1156 -0.1755
 3444TIP3   OH231890   6.275   3.564   1.259  0.1273 -0.0535 -0.0635
 3444TIP3    H131891   6.196   3.512   1.276 -0.1477 -0.0965 -1.3935
 3444TIP3    H231892   6.258   3.649   1.299  0.0775 -0.5796  1.0620
 3445TIP3   OH231893   0.268   5.169   1.184  0.3125 -0.4442 -0.2688
 3445TIP3    H131894   0.231   5.231   1.121  0.0783 -0.3822 -0.0679
 3445TIP3    H231895   0.255   5.209   1.269 -1.7321 -1.6844  0.0728
 3446TIP3   OH231896   2.929   4.783   2.534 -0.3996  0.4547  0.1048
 3446TIP3    H131897   2.835   4.764   2.539 -0.2729  0.0710  1.5763
 3446TIP3    H231898   2.969   4.699   2.512 -0.4188  0.7365 -1.0913
 3447TIP3   OH231899   0.613   4.404   8.880 -0.1121 -0.2763  0.4368
 3447TIP3    H131900   0.574   4.423   8.965 -0.1376  1.5218  0.0728
 3447TIP3    H231901   0.701   4.442   8.885  0.2109 -0.9325 -0.0514
 3448TIP3   OH231902   3.832   6.464   2.471  0.4619  0.6413  0.4618
 3448TIP3    H131903   3.771   6.538   2.477  0.2396  0.4740  0.3176
 3448TIP3    H231904   3.814   6.426   2.385 -0.7210 -0.6919  1.2546
 3449TIP3   OH231905   1.970   2.229   1.217  0.5569 -0.7969 -0.4606
 3449TIP3    H131906   1.939   2.287   1.147  0.9045 -0.3423 -0.2422
 3449TIP3    H231907   1.890   2.195   1.257  0.3447 -0.2146 -0.3857
 3450TIP3   OH231908   6.745   4.118   8.810 -0.2915 -0.0737 -0.1607
 3450TIP3    H131909   6.759   4.106   8.904  0.0394 -0.6879 -0.2821
 3450TIP3    H231910   6.667   4.065   8.791 -0.8470  0.7011 -0.0909
 3451TIP3   OH231911   5.316   0.987   6.405 -0.3152  0.1095  0.3274
 3451TIP3    H131912   5.372   0.927   6.355 -0.0591  0.9470 -0.4209
 3451TIP3    H231913   5.328   1.071   6.362 -0.7784  0.6719  1.2767
 3452TIP3   OH231914   4.231   4.947   0.442  0.1551 -0.0477  0.2458
 3452TIP3    H131915   4.244   5.041   0.436  0.8248 -0.0340  1.5534
 3452TIP3    H231916   4.316   4.912   0.469 -0.4114 -0.8678  1.0404
 3453TIP3   OH231917   3.387   1.479   8.020  0.3382 -0.7515  0.0639
 3453TIP3    H131918   3.474   1.484   8.059  0.6498  1.8937 -0.7982
 3453TIP3    H231919   3.328   1.513   8.087  0.2950 -0.3786 -0.1579
 3454TIP3   OH231920   4.273   0.569   6.720 -0.8569 -1.2705 -0.3453
 3454TIP3    H131921   4.195   0.598   6.672 -1.2472 -1.4697  0.1529
 3454TIP3    H231922   4.246   0.569   6.812  0.0543 -0.3683 -0.0690
 3455TIP3   OH231923   5.027   0.815   6.751 -0.0284  0.3943 -0.0624
 3455TIP3    H131924   5.032   0.728   6.791  0.6584 -0.7143 -2.3735
 3455TIP3    H231925   4.941   0.818   6.710 -0.3445  1.1280  0.6280
 3456TIP3   OH231926   6.556   3.702   7.104  0.3557 -0.1313 -0.4771
 3456TIP3    H131927   6.601   3.635   7.155 -1.6453 -1.8947 -0.8614
 3456TIP3    H231928   6.516   3.759   7.169  1.7067  0.4656 -0.1380
 3457TIP3   OH231929   0.303   6.198   8.198 -0.4848  0.1818  0.1351
 3457TIP3    H131930   0.318   6.235   8.110  0.3780  1.5709  0.8337
 3457TIP3    H231931   0.374   6.234   8.251 -1.2092 -0.3472  1.4946
 3458TIP3   OH231932   0.524   4.999   8.112 -0.2189 -0.2300  0.1695
 3458TIP3    H131933   0.534   5.092   8.131  1.8838 -0.3860  0.1219
 3458TIP3    H231934   0.463   4.996   8.038 -0.8974  1.0388  0.6549
 3459TIP3   OH231935   0.828   2.568   7.371  0.0412  0.0702 -0.0431
 3459TIP3    H131936   0.803   2.502   7.307  1.6228 -0.8467  0.2324
 3459TIP3    H231937   0.875   2.634   7.320  1.1340 -0.5651  0.1194
 3460TIP3   OH231938   5.890   4.639   7.622 -0.2691 -0.4163  0.0166
 3460TIP3    H131939   5.836   4.712   7.652 -1.7225 -1.0137 -1.0436
 3460TIP3    H231940   5.876   4.570   7.687  2.3772  0.6913  1.9359
 3461TIP3   OH231941   6.722   6.764   8.907  0.0850 -0.1588 -0.4286
 3461TIP3    H131942   6.720   6.853   8.870 -2.9887 -0.2146 -0.6750
 3461TIP3    H231943   6.684   6.709   8.839 -1.1429 -1.0688  0.9276
 3462TIP3   OH231944   0.960   2.731   8.616  0.5082 -0.1135 -0.0938
 3462TIP3    H131945   0.881   2.694   8.654  0.3578  0.1950 -0.0998
 3462TIP3    H231946   1.022   2.737   8.689  0.8127 -1.1201 -0.2608
 3463TIP3   OH231947   5.993   5.435   7.985  0.1788 -0.0922  0.1406
 3463TIP3    H131948   6.087   5.429   7.995  0.0056 -0.3129  2.0772
 3463TIP3    H231949   5.969   5.360   7.930  1.0020 -0.7017  0.5937
 3464TIP3   OH231950   0.379   3.540   0.627  0.3020  0.3110  0.3097
 3464TIP3    H131951   0.357   3.505   0.714  1.2455  0.0754  0.4589
 3464TIP3    H231952   0.304   3.515   0.572 -1.5557  2.6206  1.5651
 3465TIP3   OH231953   5.946   6.520   7.903  0.0238  0.1408 -0.2508
 3465TIP3    H131954   5.917   6.457   7.969 -1.8585  1.5329  0.3385
 3465TIP3    H231955   6.041   6.527   7.917  0.3352 -2.6380 -0.4762
 3466TIP3   OH231956   2.568   6.380   0.292 -0.1255 -0.5810  0.0347
 3466TIP3    H131957   2.620   6.459   0.281  0.9881 -1.4097 -0.9085
 3466TIP3    H231958   2.480   6.404   0.263  0.2815  0.2109 -0.5575
 3467TIP3   OH231959   1.558   3.567   8.393  0.8336 -0.1593  0.0109
 3467TIP3    H131960   1.621   3.603   8.330  0.6672 -1.4989 -0.9409
 3467TIP3    H231961   1.474   3.569   8.348  0.7109 -1.1425  0.1815
 3468TIP3   OH231962   6.082   1.750   6.466 -0.5557  0.7436  0.4959
 3468TIP3    H131963   6.104   1.661   6.491 -1.9382  0.5110  1.0098
 3468TIP3    H231964   6.159   1.802   6.487 -0.3504 -0.0558  1.8242
 3469TIP3   OH231965   5.948   5.208   0.158 -0.4352 -0.0382  0.2062
 3469TIP3    H131966   5.891   5.130   0.159  0.0589 -0.3999  0.3674
 3469TIP3    H231967   5.921   5.255   0.079  0.0790 -0.9993 -0.5820
 3470TIP3   OH231968   5.018   1.669   7.484  0.2021  0.4652 -0.0829
 3470TIP3    H131969   5.037   1.759   7.458  0.5346  0.2623 -0.5607
 3470TIP3    H231970   5.103   1.633   7.507  0.2471 -0.0932 -1.0772
 3471TIP3   OH231971   2.810   6.382   6.961  0.3337  1.0692  0.6119
 3471TIP3    H131972   2.864   6.398   6.884 -2.5294  1.3042 -1.5086
 3471TIP3    H231973   2.721   6.406   6.934 -0.8322  1.1900  4.0177
 3472TIP3   OH231974   0.625   5.425   6.210  0.2562 -0.0766  0.2174
 3472TIP3    H131975   0.640   5.506   6.259  0.9779  0.5842 -1.0487
 3472TIP3    H231976   0.533   5.403   6.227  0.0087  1.0849  0.4496
 3473TIP3   OH231977   2.097   5.992   1.962  0.0044 -0.2908  0.3312
 3473TIP3    H131978   2.149   5.912   1.969  1.8664  0.9290  1.4979
 3473TIP3    H231979   2.147   6.047   1.902 -1.3171 -0.0122 -0.5534
 3474TIP3   OH231980   4.345   5.972   0.383 -0.0806  0.4773 -0.1002
 3474TIP3    H131981   4.404   5.903   0.352  1.8683  2.5195 -1.1269
 3474TIP3    H231982   4.337   6.032   0.309  0.8092  2.9823  1.6963
 3475TIP3   OH231983   2.520   2.131   7.949 -0.4571  0.0022  0.2136
 3475TIP3    H131984   2.573   2.211   7.949 -0.3355 -0.0646 -0.6438
 3475TIP3    H231985   2.437   2.157   7.989 -0.5150  0.6241 -0.3008
 3476TIP3   OH231986   1.187   0.513   8.747  0.0745 -0.4940  0.3968
 3476TIP3    H131987   1.280   0.500   8.729  0.2961  3.0718 -2.0575
 3476TIP3    H231988   1.185   0.573   8.821 -0.3035 -0.7671  0.6123
 3477TIP3   OH231989   4.196   4.687   1.191 -0.1899 -0.0227 -0.0258
 3477TIP3    H131990   4.256   4.612   1.189  1.7286  1.3230  2.1248
 3477TIP3    H231991   4.109   4.647   1.199  0.3564 -2.0285 -2.7976
 3478TIP3   OH231992   2.172   6.426   0.590 -0.0562 -0.5175 -0.1769
 3478TIP3    H131993   2.152   6.481   0.666 -0.3663 -0.8201 -0.0306
 3478TIP3    H231994   2.105   6.357   0.593 -0.8193  0.1431 -1.4192
 3479TIP3   OH231995   5.755   0.575   7.703  0.2123 -0.2134  0.1215
 3479TIP3    H131996   5.660   0.570   7.714  0.2605 -0.4599  0.4234
 3479TIP3    H231997   5.775   0.510   7.636  0.2073 -0.3962  0.2970
 3480TIP3   OH231998   3.247   5.416   7.815  0.0523  0.1154 -0.9936
 3480TIP3    H131999   3.289   5.434   7.731 -1.0707  1.1416 -1.3658
 3480TIP3    H232000   3.294   5.472   7.878  0.4737 -0.1727 -1.0473
 3481TIP3   OH232001   1.008   4.540   7.428 -0.0027 -0.2580  0.2223
 3481TIP3    H132002   1.027   4.622   7.382 -0.4300 -0.3179 -0.0617
 3481TIP3    H232003   0.988   4.567   7.518 -1.0413  0.0490 -0.0837
 3482TIP3   OH232004   6.250   1.381   6.947  0.1914  0.2280 -0.1726
 3482TIP3    H132005   6.296   1.438   7.010  1.0635 -0.0394 -0.5526
 3482TIP3    H232006   6.204   1.442   6.890 -1.8020  0.4476  1.5706
 3483TIP3   OH232007   0.088   1.383   1.340 -0.2412  0.5586  0.3426
 3483TIP3    H132008   0.038   1.461   1.317 -1.7399 -1.0592 -2.4229
 3483TIP3    H232009   0.023   1.321   1.373  0.5338 -0.3033  0.2987
 3484TIP3   OH232010   4.498   4.663   8.161 -0.0924  1.1081 -0.0327
 3484TIP3    H132011   4.569   4.728   8.159  0.4176  0.6036  0.8681
 3484TIP3    H232012   4.445   4.689   8.237 -0.2482  0.8523 -0.0533
 3485TIP3   OH232013   3.935   1.933   1.959  0.2992  0.5212  0.0580
 3485TIP3    H132014   3.865   1.947   2.022 -0.4385 -1.5750 -0.2140
 3485TIP3    H232015   4.006   1.894   2.011  0.6683  1.1529  0.0370
 3486TIP3   OH232016   5.630   2.219   8.710 -0.7120 -0.5187 -0.5474
 3486TIP3    H132017   5.592   2.147   8.761 -0.8539 -0.9670 -1.2761
 3486TIP3    H232018   5.709   2.182   8.673 -0.3887 -0.0618 -0.3160
 3487TIP3   OH232019   0.866   1.489   8.750  0.7369 -0.0408 -0.1346
 3487TIP3    H132020   0.796   1.496   8.686  0.9034  2.0084 -0.1504
 3487TIP3    H232021   0.946   1.478   8.698  0.6824 -0.0893 -0.2074
 3488TIP3   OH232022   0.999   4.590   1.344  0.4819 -0.3690 -0.0240
 3488TIP3    H132023   1.028   4.666   1.394 -3.0868  0.6354  0.8693
 3488TIP3    H232024   1.049   4.593   1.263  3.0867  0.6911  1.5041
 3489TIP3   OH232025   4.712   2.617   0.385  0.0441 -0.1082 -0.1756
 3489TIP3    H132026   4.802   2.641   0.362 -0.1288  0.7920  0.0541
 3489TIP3    H232027   4.717   2.589   0.477 -0.0374  0.7626  0.1080
 3490TIP3   OH232028   1.138   0.610   0.263 -0.3213 -0.4902 -0.4280
 3490TIP3    H132029   1.062   0.593   0.207  0.7012 -0.9176 -1.7380
 3490TIP3    H232030   1.200   0.656   0.206  0.2415  0.2552  0.7452
 3491TIP3   OH232031   6.241   2.535   0.144 -0.1704  0.3204 -0.2100
 3491TIP3    H132032   6.155   2.568   0.118 -0.2256  0.0455 -0.3824
 3491TIP3    H232033   6.234   2.525   0.239 -1.0846 -1.7645 -0.4452
 3492TIP3   OH232034   1.235   5.935   8.689 -0.5057 -0.6400 -0.0632
 3492TIP3    H132035   1.154   5.986   8.695  0.1325  0.2974  1.1202
 3492TIP3    H232036   1.301   5.999   8.661  0.1037 -1.0712  0.3758
 3493TIP3   OH232037   2.959   0.282   8.617 -0.3282  0.0720 -0.1662
 3493TIP3    H132038   2.925   0.354   8.670 -0.4623 -0.0185 -0.1283
 3493TIP3    H232039   2.930   0.203   8.662 -0.3358 -0.0054 -0.3051
 3494TIP3   OH232040   6.272   1.261   0.440  0.2289  0.0859  0.0727
 3494TIP3    H132041   6.294   1.169   0.427 -1.0688 -0.9421  3.8603
 3494TIP3    H232042   6.355   1.303   0.463  0.2954 -0.9844  1.9101
 3495TIP3   OH232043   3.347   2.254   0.488 -0.6349 -0.0801  0.3835
 3495TIP3    H132044   3.396   2.172   0.480 -0.6603 -0.0241 -0.3683
 3495TIP3    H232045   3.294   2.258   0.409 -1.4184  0.1526  0.9124
 3496TIP3   OH232046   0.073   1.666   8.768  0.2360 -0.5752  0.2095
 3496TIP3    H132047   0.077   1.670   8.673  1.2315 -0.3997  0.2408
 3496TIP3    H232048   0.119   1.745   8.797  0.6680 -1.0454  0.8338
 3497TIP3   OH232049   5.490   1.029   6.933 -0.1504  0.8666  0.3142
 3497TIP3    H132050   5.454   1.116   6.951 -2.0843  0.2981 -0.6162
 3497TIP3    H232051   5.456   1.006   6.847  1.8476 -0.0803 -0.2863
 3498TIP3   OH232052   5.747   0.564   1.439 -0.1676  0.5265  0.3557
 3498TIP3    H132053   5.768   0.590   1.528  0.5956  0.5716  0.1736
 3498TIP3    H232054   5.826   0.519   1.408  0.2654  2.0222 -0.8791
 3499TIP3   OH232055   5.137   2.654   7.517  0.0344  0.1636  0.2966
 3499TIP3    H132056   5.051   2.696   7.509  0.6543  1.4659  0.2373
 3499TIP3    H232057   5.193   2.722   7.555  1.3394 -0.2277 -0.8336
 3500TIP3   OH232058   3.382   5.490   0.471 -0.1512 -0.2775  0.0732
 3500TIP3    H132059   3.448   5.492   0.541 -0.4153  4.1745  0.5334
 3500TIP3    H232060   3.418   5.547   0.403 -1.3484 -1.8823 -2.0252
 3501TIP3   OH232061   0.081   5.647   7.942 -0.7949  0.2347 -0.2958
 3501TIP3    H132062   0.172   5.629   7.919 -0.4344  2.5276 -0.9255
 3501TIP3    H232063   0.066   5.597   8.022  0.6276 -1.0983 -0.8047
 3502TIP3   OH232064   5.134   3.705   2.367  0.3679 -0.2449 -0.0392
 3502TIP3    H132065   5.080   3.754   2.429 -1.5733 -1.5086 -0.6534
 3502TIP3    H232066   5.133   3.616   2.401  3.2567 -0.1063  0.6720
 3503TIP3   OH232067   4.991   3.343   7.384  0.0941 -0.0048  0.3140
 3503TIP3    H132068   4.914   3.306   7.427  0.6098 -0.7248  0.6495
 3503TIP3    H232069   5.016   3.417   7.439 -1.5667  1.5829 -0.9284
 3504TIP3   OH232070   3.735   5.296   1.513  0.3931 -0.8754  0.4938
 3504TIP3    H132071   3.718   5.208   1.479 -1.1552 -0.6646  0.6169
 3504TIP3    H232072   3.738   5.285   1.608  1.7960 -1.0196  0.4485
 3505TIP3   OH232073   1.947   1.259   7.079  0.5794 -0.0829  0.2546
 3505TIP3    H132074   1.936   1.171   7.043 -2.4618 -0.1327  1.0342
 3505TIP3    H232075   1.877   1.267   7.144  0.7352  2.9422  0.1634
 3506TIP3   OH232076   4.962   4.441   7.957 -0.7078  0.1107 -0.9114
 3506TIP3    H132077   4.916   4.361   7.932  0.0275 -1.1797  1.5307
 3506TIP3    H232078   5.052   4.413   7.973 -0.9352  0.7823  2.3544
 3507TIP3   OH232079   5.315   6.576   8.606  0.1549  0.0757 -0.3221
 3507TIP3    H132080   5.347   6.646   8.550 -1.2513  1.0599  0.0377
 3507TIP3    H232081   5.276   6.513   8.546  2.3797 -0.9845 -0.7335
 3508TIP3   OH232082   3.279   3.410   7.765  0.0216  0.0320 -0.9358
 3508TIP3    H132083   3.197   3.423   7.813  0.4741 -1.1240  0.1981
 3508TIP3    H232084   3.298   3.496   7.727 -1.3814  0.4775 -0.6922
 3509TIP3   OH232085   4.389   1.745   0.246  0.1115 -0.0197  0.6279
 3509TIP3    H132086   4.323   1.730   0.314 -1.9672  1.7593 -0.8268
 3509TIP3    H232087   4.340   1.737   0.164  1.4645  2.3927 -0.5029
 3510TIP3   OH232088   6.592   4.226   6.196  0.3833  0.0545 -0.0859
 3510TIP3    H132089   6.552   4.149   6.156  1.3602 -0.6669  0.2818
 3510TIP3    H232090   6.530   4.297   6.180 -1.5833 -1.2239  1.3955
 3511TIP3   OH232091   5.759   6.513   1.035 -0.1234 -0.0187 -0.6912
 3511TIP3    H132092   5.821   6.586   1.045  1.1222 -0.9899 -1.0123
 3511TIP3    H232093   5.701   6.520   1.110  0.6954  0.6540 -0.1027
 3512TIP3   OH232094   5.489   0.482   7.640 -0.1989 -0.6679  1.1283
 3512TIP3    H132095   5.538   0.415   7.593  0.6254  0.8425 -0.2675
 3512TIP3    H232096   5.421   0.509   7.578  0.6062  1.0239  0.9215
 3513TIP3   OH232097   0.609   0.375   1.861  0.5071  0.3579 -0.0979
 3513TIP3    H132098   0.601   0.335   1.775  1.8110  1.2689 -0.6711
 3513TIP3    H232099   0.529   0.427   1.871 -1.3791 -2.4853  0.7932
 3514TIP3   OH232100   5.272   4.274   0.293  0.7531 -0.3905  0.0794
 3514TIP3    H132101   5.222   4.354   0.282  0.5010 -0.4187  0.9150
 3514TIP3    H232102   5.306   4.279   0.383 -1.2877 -2.3232  1.0467
 3515TIP3   OH232103   4.036   1.489   7.539 -0.0747 -0.5201  0.0055
 3515TIP3    H132104   3.959   1.436   7.518 -0.8268  0.5210  0.0620
 3515TIP3    H232105   4.020   1.522   7.627 -0.1521  0.7030 -0.4499
 3516TIP3   OH232106   2.636   4.533   8.020  0.8937  0.5804  0.1467
 3516TIP3    H132107   2.572   4.604   8.022  0.5779  0.2849  0.8263
 3516TIP3    H232108   2.680   4.543   7.936  2.1653  2.7437  0.9727
 3517TIP3   OH232109   4.097   4.388   0.578  0.8279  0.4279  0.7521
 3517TIP3    H132110   4.180   4.411   0.535 -0.1395  1.3068 -0.7302
 3517TIP3    H232111   4.037   4.458   0.554 -0.2805  0.0057  2.1070
 3518TIP3   OH232112   3.654   6.010   1.606 -0.1368 -0.5137  0.0668
 3518TIP3    H132113   3.649   6.102   1.634 -0.9668 -0.6082  0.2528
 3518TIP3    H232114   3.657   6.014   1.510 -0.1057 -0.2915  0.0766
 3519TIP3   OH232115   1.916   0.829   7.150 -0.4475 -0.1465  0.0812
 3519TIP3    H132116   1.893   0.830   7.243  1.8445 -1.9836  0.7615
 3519TIP3    H232117   1.916   0.736   7.128 -0.9786  0.2659 -1.8144
 3520TIP3   OH232118   4.342   2.364   1.423 -0.7655  0.1461  0.0034
 3520TIP3    H132119   4.310   2.452   1.439  0.3230  0.5122  0.2307
 3520TIP3    H232120   4.280   2.307   1.469  0.4921  0.9802  2.9814
 3521TIP3   OH232121   3.027   4.262   0.097  0.5378  0.1748 -0.0480
 3521TIP3    H132122   2.968   4.198   0.138 -0.0062  0.7963  0.1647
 3521TIP3    H232123   3.106   4.260   0.151  1.0310 -1.2193 -0.7811
 3522TIP3   OH232124   3.521   5.514   1.788  0.1799  0.3377 -0.3986
 3522TIP3    H132125   3.438   5.473   1.812 -0.9139  1.8737 -1.2998
 3522TIP3    H232126   3.520   5.515   1.692  1.3496  0.1861 -0.4270
 3523TIP3   OH232127   2.520   5.314   2.107  1.3189  1.0092  0.3347
 3523TIP3    H132128   2.553   5.339   2.021 -1.5709  1.0672 -0.8731
 3523TIP3    H232129   2.425   5.317   2.098  0.9065  0.0572  3.2778
 3524TIP3   OH232130   5.628   2.336   7.514 -0.1655 -0.1781 -0.1069
 3524TIP3    H132131   5.634   2.243   7.492  0.1506  0.2858 -2.2305
 3524TIP3    H232132   5.625   2.381   7.429 -1.4197  1.7033  0.8520
 3525TIP3   OH232133   4.330   1.641   6.971  0.1822  0.3557  0.5809
 3525TIP3    H132134   4.277   1.561   6.972  1.0022 -0.2438 -0.8205
 3525TIP3    H232135   4.327   1.671   6.881  1.5042  0.7931  0.6528
 3526TIP3   OH232136   0.264   3.754   1.835 -0.0701  0.1656 -0.2498
 3526TIP3    H132137   0.230   3.776   1.749  1.2685  0.7826 -0.6534
 3526TIP3    H232138   0.255   3.835   1.886  1.4416  0.5884 -0.5998
 3527TIP3   OH232139   4.255   1.856   1.675 -0.2526 -0.1783 -0.0009
 3527TIP3    H132140   4.216   1.778   1.714  2.1868 -1.0180  0.9222
 3527TIP3    H232141   4.296   1.902   1.748  2.7776 -0.7913 -1.1643
 3528TIP3   OH232142   6.376   6.327   7.784 -0.3108 -0.6961  0.3821
 3528TIP3    H132143   6.379   6.422   7.776 -0.3107 -0.6392  1.0101
 3528TIP3    H232144   6.420   6.309   7.868 -1.8206 -1.1165  1.1175
 3529TIP3   OH232145   5.522   1.991   7.309  0.3237  0.7706 -0.0503
 3529TIP3    H132146   5.483   1.946   7.384  0.5040  0.7217  0.0157
 3529TIP3    H232147   5.615   1.965   7.312  0.0818 -0.3042 -1.0595
 3530TIP3   OH232148   6.422   1.958   1.652 -0.3059  0.1005  0.5078
 3530TIP3    H132149   6.507   1.924   1.680  0.0550  1.2913  0.9267
 3530TIP3    H232150   6.375   1.976   1.734 -0.6010  0.3211  0.2931
 3531TIP3   OH232151   6.651   4.498   7.959  0.0471 -0.2113 -0.3175
 3531TIP3    H132152   6.676   4.458   7.875  0.3598  0.3611 -0.5024
 3531TIP3    H232153   6.614   4.425   8.010 -0.0122 -0.5946 -0.8951
 3532TIP3   OH232154   1.284   2.854   0.968  0.0471 -0.0274 -0.3348
 3532TIP3    H132155   1.373   2.874   0.939  0.5927 -3.7317 -1.7204
 3532TIP3    H232156   1.296   2.802   1.047 -0.9057 -0.3180 -0.3740
 3533TIP3   OH232157   2.248   4.017   1.560  0.0669 -0.1416 -0.4264
 3533TIP3    H132158   2.230   4.092   1.617 -0.6686  0.0300 -0.8743
 3533TIP3    H232159   2.205   3.944   1.603 -0.6721  0.0297 -0.8645
 3534TIP3   OH232160   2.949   3.776   6.529 -0.0488  0.5073  0.1157
 3534TIP3    H132161   2.989   3.815   6.607 -0.8657 -1.0071  1.3208
 3534TIP3    H232162   3.024   3.745   6.477  0.4576  0.0782  1.0727
 3535TIP3   OH232163   0.978   4.097   1.117 -0.1582  0.1247 -0.1251
 3535TIP3    H132164   0.953   4.014   1.156  0.5552 -0.4231 -0.7874
 3535TIP3    H232165   0.914   4.111   1.048 -0.8874  0.6482  0.6398
 3536TIP3   OH232166   0.234   1.372   8.553 -0.1599 -0.0130 -1.0646
 3536TIP3    H132167   0.203   1.356   8.642  0.8751  1.0957 -0.4794
 3536TIP3    H232168   0.156   1.396   8.504 -0.3935  1.9670  0.1821
 3537TIP3   OH232169   5.660   5.086   7.239  0.7007 -0.1419  0.2697
 3537TIP3    H132170   5.714   5.073   7.318  1.2905  1.1802  0.1023
 3537TIP3    H232171   5.723   5.101   7.169  0.1572 -0.6916 -0.3473
 3538TIP3   OH232172   1.693   2.520   8.232  0.3373  0.5651 -0.2349
 3538TIP3    H132173   1.739   2.571   8.166 -0.5071 -0.3534 -1.5763
 3538TIP3    H232174   1.665   2.584   8.297  1.7043  1.4061 -0.4281
 3539TIP3   OH232175   2.037   0.139   7.542  0.1336  0.1508  0.3829
 3539TIP3    H132176   2.107   0.190   7.584 -0.8103  2.2956 -0.5063
 3539TIP3    H232177   1.978   0.115   7.614 -1.2417  3.4157  0.5207
 3540TIP3   OH232178   5.166   1.923   6.509  0.0158 -0.5210  0.1807
 3540TIP3    H132179   5.182   1.982   6.435 -0.9617 -0.4690 -0.0068
 3540TIP3    H232180   5.252   1.887   6.530  0.6960  1.1988  0.5085
 3541TIP3   OH232181   6.099   0.690   0.956 -0.0544  0.6069  0.4259
 3541TIP3    H132182   6.116   0.622   1.022 -0.5778 -1.8251 -1.7526
 3541TIP3    H232183   6.039   0.750   0.999  1.7849  0.7758  3.0572
 3542TIP3   OH232184   5.188   3.641   8.370  0.3176  0.4622  0.0390
 3542TIP3    H132185   5.216   3.565   8.319  1.7531  0.6818  0.4504
 3542TIP3    H232186   5.269   3.675   8.408 -0.1033  2.8047 -0.9617
 3543TIP3   OH232187   3.120   6.435   7.984  0.2612  0.3682  0.6663
 3543TIP3    H132188   3.162   6.424   8.069 -0.2943  1.2823  1.0790
 3543TIP3    H232189   3.058   6.363   7.978 -0.2517  0.7391  1.3904
 3544TIP3   OH232190   1.778   1.495   1.149 -0.1241 -0.4655 -0.3257
 3544TIP3    H132191   1.684   1.485   1.135 -0.0538 -1.7380  0.0046
 3544TIP3    H232192   1.818   1.434   1.087  0.4903  0.1330 -0.5256
 3545TIP3   OH232193   1.330   5.528   2.256 -0.9650  0.2945 -0.2499
 3545TIP3    H132194   1.297   5.553   2.342 -1.1638 -0.4356 -0.1014
 3545TIP3    H232195   1.269   5.569   2.194  0.7058  3.1025 -0.1907
 3546TIP3   OH232196   4.605   1.152   6.604 -0.1585  0.1157 -0.2728
 3546TIP3    H132197   4.637   1.124   6.518 -1.9471 -0.3880 -0.8086
 3546TIP3    H232198   4.645   1.238   6.617  0.5843 -0.0382 -1.3456
 3547TIP3   OH232199   5.650   1.016   1.366 -0.1209 -0.3422 -0.1638
 3547TIP3    H132200   5.639   1.111   1.369 -2.6641 -0.4552 -1.8956
 3547TIP3    H232201   5.629   0.987   1.455  0.5307  0.6931  0.3507
 3548TIP3   OH232202   2.641   2.769   7.402  0.2627 -0.4245  1.2779
 3548TIP3    H132203   2.708   2.730   7.458  0.2244 -1.3059  0.7253
 3548TIP3    H232204   2.605   2.696   7.353  0.2278  0.3145  0.1615
 3549TIP3   OH232205   3.101   2.174   1.847  0.2224 -0.4896 -0.4285
 3549TIP3    H132206   3.193   2.180   1.823  0.7039  2.2875  1.6454
 3549TIP3    H232207   3.096   2.212   1.935 -3.1671  1.3720 -1.2466
 3550TIP3   OH232208   0.464   5.329   8.804  0.1831 -0.4169 -0.3360
 3550TIP3    H132209   0.421   5.252   8.766  1.7789 -2.1588  1.2039
 3550TIP3    H232210   0.402   5.360   8.870 -0.4686 -0.3392 -0.9620
 3551TIP3   OH232211   4.163   0.976   2.465 -0.0231  0.1191 -0.2225
 3551TIP3    H132212   4.153   1.065   2.498 -0.9349 -0.0561  0.0139
 3551TIP3    H232213   4.078   0.935   2.481 -0.3872 -0.0920 -2.4404
 3552TIP3   OH232214   2.828   4.963   2.313  0.3021 -0.4191 -0.0548
 3552TIP3    H132215   2.884   4.988   2.239 -2.0187 -0.9727 -2.1274
 3552TIP3    H232216   2.826   4.868   2.309  0.3796 -0.4674  0.9380
 3553TIP3   OH232217   0.860   4.648   0.627 -0.4381 -1.0432 -0.4249
 3553TIP3    H132218   0.881   4.594   0.551  1.4403 -1.7979  0.5704
 3553TIP3    H232219   0.793   4.597   0.674  0.0923 -1.7092 -0.3739
 3554TIP3   OH232220   6.320   5.955   1.253  0.9143  0.8763  0.5795
 3554TIP3    H132221   6.332   5.921   1.165 -0.5190  2.6404 -0.3684
 3554TIP3    H232222   6.290   5.879   1.304  0.2000  0.1611 -0.8365
 3555TIP3   OH232223   5.120   2.974   0.459 -0.1211 -0.4536  0.0462
 3555TIP3    H132224   5.157   3.013   0.379  0.5977  0.8692  0.9865
 3555TIP3    H232225   5.105   2.883   0.436 -3.8032  0.6532 -2.9445
 3556TIP3   OH232226   0.162   6.426   8.570 -0.2124 -0.5189  0.3426
 3556TIP3    H132227   0.108   6.484   8.516  2.7885  1.0364 -1.2778
 3556TIP3    H232228   0.154   6.462   8.658 -0.0545  1.1445 -0.2754
 3557TIP3   OH232229   2.323   4.173   8.845 -0.0771 -0.5217  0.3497
 3557TIP3    H132230   2.254   4.107   8.845 -1.2274  0.6511  0.3432
 3557TIP3    H232231   2.367   4.162   8.761 -0.5363 -0.9909  0.1713
 3558TIP3   OH232232   5.905   4.064   7.886 -0.0793 -0.0034 -0.2663
 3558TIP3    H132233   5.813   4.052   7.908  0.4343 -1.3251  1.3581
 3558TIP3    H232234   5.944   4.102   7.965  0.6669  1.1502 -1.1555
 3559TIP3   OH232235   1.840   6.379   1.443 -0.1754  0.2061 -0.0992
 3559TIP3    H132236   1.843   6.327   1.363  0.8441 -0.3039  0.2461
 3559TIP3    H232237   1.824   6.469   1.413 -1.4242 -0.2157 -0.7374
 3560TIP3   OH232238   1.586   0.793   6.928  0.4703 -0.0499  0.3234
 3560TIP3    H132239   1.677   0.772   6.947  0.0033 -1.2890  1.3098
 3560TIP3    H232240   1.536   0.722   6.967 -0.8483 -0.3103 -1.6695
 3561TIP3   OH232241   3.719   3.281   0.168  0.4098 -0.0484 -0.0179
 3561TIP3    H132242   3.734   3.194   0.133  0.6791  0.2558 -0.6778
 3561TIP3    H232243   3.667   3.267   0.247 -0.9673 -0.6794 -1.0114
 3562TIP3   OH232244   4.532   1.521   7.769 -0.2705  0.0845 -0.1565
 3562TIP3    H132245   4.554   1.453   7.706 -4.9089 -0.1950 -1.8540
 3562TIP3    H232246   4.516   1.474   7.851 -2.6117 -0.9152 -1.0994
 3563TIP3   OH232247   0.400   6.512   8.233  0.7103  0.3180  0.3779
 3563TIP3    H132248   0.458   6.572   8.185 -0.2719  1.6131  0.7713
 3563TIP3    H232249   0.407   6.540   8.324 -0.4656  0.4297  0.4419
 3564TIP3   OH232250   1.176   0.130   8.253  0.4572 -0.0666  0.4989
 3564TIP3    H132251   1.153   0.038   8.264 -0.0142  0.0537  0.5302
 3564TIP3    H232252   1.217   0.154   8.336  0.1901 -0.1356  0.6533
 3565TIP3   OH232253   2.602   2.312   0.854 -0.3235  0.3437 -0.3004
 3565TIP3    H132254   2.628   2.294   0.763 -0.6596  2.2994 -0.8303
 3565TIP3    H232255   2.507   2.302   0.854 -0.2706 -0.2244  0.0039
 3566TIP3   OH232256   5.404   5.504   7.603 -0.9277  0.2364 -0.0076
 3566TIP3    H132257   5.425   5.515   7.510 -2.6878  0.2200 -0.4347
 3566TIP3    H232258   5.401   5.409   7.616  0.2023  0.2209  0.3154
 3567TIP3   OH232259   4.144   5.326   7.462 -0.5046  0.3272  0.0483
 3567TIP3    H132260   4.125   5.250   7.516 -0.0949 -0.3312 -0.7185
 3567TIP3    H232261   4.183   5.290   7.382  1.3198  1.4366  0.3910
 3568TIP3   OH232262   0.954   0.794   6.598  0.2468 -0.6495  0.8829
 3568TIP3    H132263   0.890   0.779   6.529  0.4724  0.4511  0.4130
 3568TIP3    H232264   1.001   0.873   6.570  1.9080 -1.5165  1.1389
 3569TIP3   OH232265   1.946   3.675   1.450  1.0911 -0.2352 -0.7284
 3569TIP3    H132266   1.998   3.650   1.527 -1.7096  2.9983  2.5643
 3569TIP3    H232267   1.860   3.635   1.466  0.4103  0.6171 -2.1431
 3570TIP3   OH232268   2.892   0.043   6.836  0.1727 -0.0449  0.5071
 3570TIP3    H132269   2.868   0.018   6.926 -1.1764 -0.1119  0.1492
 3570TIP3    H232270   2.923  -0.038   6.796  1.7856  0.1934  1.1999
 3571TIP3   OH232271   6.088   5.098   7.497 -0.2901  0.6921  0.3737
 3571TIP3    H132272   6.085   5.185   7.458  0.7860  0.4124 -0.3708
 3571TIP3    H232273   6.163   5.055   7.456 -0.5395 -0.4414  1.0417
 3572TIP3   OH232274   5.812   5.688   0.157 -0.2074 -0.0188 -0.3846
 3572TIP3    H132275   5.853   5.752   0.215  0.0910 -1.1165  0.6560
 3572TIP3    H232276   5.811   5.730   0.071  0.1726  1.2843  0.2275
 3573TIP3   OH232277   2.352   2.979   7.719  0.4004 -0.6859 -0.0675
 3573TIP3    H132278   2.297   3.028   7.659  2.2818  0.1536 -1.1976
 3573TIP3    H232279   2.311   2.991   7.805 -0.3896  1.0550 -0.6416
 3574TIP3   OH232280   3.137   0.366   1.638  0.4894  0.4237  0.9392
 3574TIP3    H132281   3.132   0.432   1.569 -0.1418  0.0038  0.5676
 3574TIP3    H232282   3.226   0.331   1.633  1.2231  2.0391  1.9013
 3575TIP3   OH232283   4.840   5.762   8.769  0.4792 -0.3097 -0.0434
 3575TIP3    H132284   4.846   5.856   8.782  0.0617 -0.3513  0.5186
 3575TIP3    H232285   4.749   5.746   8.747  0.4981 -0.6008  0.0723
 3576TIP3   OH232286   0.204   3.183   7.549  0.1525  0.2480 -0.3676
 3576TIP3    H132287   0.241   3.100   7.520 -0.0940  0.0830 -0.2144
 3576TIP3    H232288   0.207   3.239   7.472  0.2837  0.0844 -0.4812
 3577TIP3   OH232289   0.748   5.930   0.377  0.1579  0.2296 -0.9007
 3577TIP3    H132290   0.699   5.848   0.375 -0.6001  0.6473 -0.2318
 3577TIP3    H232291   0.695   5.991   0.327 -0.3711  0.8643  0.3876
 3578TIP3   OH232292   3.013   3.017   2.227  0.1894 -0.3921  0.3372
 3578TIP3    H132293   2.985   3.107   2.211 -1.5881 -1.1641 -1.2626
 3578TIP3    H232294   3.097   3.025   2.271 -1.3634  2.1002  3.2256
 3579TIP3   OH232295   5.698   1.486   0.744  0.3750 -0.7358  0.0476
 3579TIP3    H132296   5.676   1.524   0.658  0.1724 -0.5640  0.1737
 3579TIP3    H232297   5.705   1.562   0.802 -3.6766 -0.9798  1.1776
 3580TIP3   OH232298   1.687   5.752   8.110 -0.5516  0.0244 -0.4771
 3580TIP3    H132299   1.676   5.750   8.205 -0.6484 -0.1469 -0.4910
 3580TIP3    H232300   1.606   5.714   8.076 -1.3887  1.9206 -0.7031
 3581TIP3   OH232301   5.999   1.858   8.408 -0.1728 -0.0517  0.6492
 3581TIP3    H132302   5.953   1.820   8.483 -0.4030  0.4399  0.7548
 3581TIP3    H232303   6.088   1.872   8.439 -0.4247  0.7395  1.0350
 3582TIP3   OH232304   6.164   4.639   2.113 -0.1206  0.0266 -0.3330
 3582TIP3    H132305   6.158   4.642   2.208 -1.7086  1.7432 -0.4281
 3582TIP3    H232306   6.136   4.726   2.084  1.0841 -0.1811 -2.3561
 3583TIP3   OH232307   4.229   4.205   8.171 -0.1248 -0.0772 -0.1891
 3583TIP3    H132308   4.181   4.217   8.253 -1.7374  0.1023 -1.1146
 3583TIP3    H232309   4.170   4.239   8.103  1.8787  1.4627 -1.2802
 3584TIP3   OH232310   1.271   1.310   2.645 -0.1707 -0.0033  0.4811
 3584TIP3    H132311   1.242   1.394   2.609  0.1973  0.3179  0.9247
 3584TIP3    H232312   1.308   1.264   2.570 -0.2634  0.2789  0.2575
 3585TIP3   OH232313   4.677   0.184   1.433 -0.7565  0.0661 -0.3697
 3585TIP3    H132314   4.585   0.204   1.420 -0.8776 -0.6186 -0.6318
 3585TIP3    H232315   4.721   0.219   1.356 -1.2232 -2.3188 -1.8534
 3586TIP3   OH232316   5.022   2.663   1.296  0.6267 -0.0838 -0.5954
 3586TIP3    H132317   5.007   2.608   1.219 -0.9424 -0.3949 -0.1093
 3586TIP3    H232318   4.963   2.628   1.363  0.6563  1.2691  0.1937
 3587TIP3   OH232319   6.067   5.886   1.603 -0.5215 -0.1762 -0.3144
 3587TIP3    H132320   6.066   5.846   1.689  1.5560  0.3591  0.0300
 3587TIP3    H232321   6.018   5.968   1.613  1.0405  0.6741  0.8462
 3588TIP3   OH232322   0.841   6.373   8.531  0.0370  0.1184 -0.1868
 3588TIP3    H132323   0.874   6.360   8.443 -2.8257  1.0080 -1.4958
 3588TIP3    H232324   0.825   6.468   8.538 -1.6342 -0.1739  0.5229
 3589TIP3   OH232325   1.412   4.226   1.240 -0.5561 -0.3626 -0.0304
 3589TIP3    H132326   1.437   4.135   1.229 -0.8845 -0.2192 -2.4684
 3589TIP3    H232327   1.317   4.223   1.255 -0.8869 -0.3951 -1.8775
 3590TIP3   OH232328   0.577   1.543   7.303  0.2501  0.0399 -0.2222
 3590TIP3    H132329   0.511   1.545   7.233 -0.4684 -0.1535  0.4313
 3590TIP3    H232330   0.535   1.494   7.374  0.6211  0.9681  0.6705
 3591TIP3   OH232331   2.825   5.951   7.351  0.3719 -0.3273 -0.3064
 3591TIP3    H132332   2.905   5.945   7.403  1.1325  0.5019 -1.3326
 3591TIP3    H232333   2.837   6.031   7.298 -0.7181 -0.6976 -1.1415
 3592TIP3   OH232334   3.043   3.581   6.884 -0.1698  0.3345 -0.4237
 3592TIP3    H132335   3.112   3.589   6.818  1.9026 -1.0626  1.4243
 3592TIP3    H232336   3.025   3.487   6.888  1.7001 -0.0300  2.7222
 3593TIP3   OH232337   4.526   2.076   7.954 -0.6430  0.3968 -0.2025
 3593TIP3    H132338   4.518   2.057   7.860 -1.9208  0.0483 -0.0396
 3593TIP3    H232339   4.537   2.171   7.958  0.5778  0.3027 -0.7510
 3594TIP3   OH232340   1.251   0.065   0.454  0.3488  0.3713 -0.0284
 3594TIP3    H132341   1.327   0.107   0.493  1.7115 -1.2348 -0.8666
 3594TIP3    H232342   1.232  -0.009   0.512  0.3716 -0.1194 -0.6435
 3595TIP3   OH232343   4.641   6.595   8.432 -0.5199  0.4052 -0.1674
 3595TIP3    H132344   4.710   6.548   8.385  0.1436  0.5154  0.6617
 3595TIP3    H232345   4.563   6.540   8.422 -0.3207  0.2793 -1.1193
 3596TIP3   OH232346   6.639   5.137   8.506 -0.5990  0.5777  0.6295
 3596TIP3    H132347   6.593   5.115   8.587  0.1585  0.4604  1.0415
 3596TIP3    H232348   6.714   5.077   8.503 -2.4196 -1.8155 -1.8939
 3597TIP3   OH232349   2.118   4.756   8.370  0.2943 -0.1845  0.7012
 3597TIP3    H132350   2.137   4.663   8.369  1.0873 -0.0310 -0.8432
 3597TIP3    H232351   2.196   4.797   8.407  0.4128 -0.0496  0.3069
 3598TIP3   OH232352   4.416   5.635   8.011 -0.1638  0.0492 -0.4770
 3598TIP3    H132353   4.428   5.622   7.917 -0.9515  0.5809 -0.6536
 3598TIP3    H232354   4.466   5.714   8.031 -3.0058  2.1582 -1.1789
 3599TIP3   OH232355   5.936   0.808   1.655 -0.0305 -0.1675 -0.4150
 3599TIP3    H132356   5.844   0.830   1.667  0.4597  1.2373  1.2983
 3599TIP3    H232357   5.948   0.727   1.704 -0.5134 -0.8614 -1.4080
 3600TIP3   OH232358   0.407   0.147   0.281  0.3415  0.0310  0.0218
 3600TIP3    H132359   0.494   0.111   0.299 -0.2015 -1.5910 -0.4096
 3600TIP3    H232360   0.347   0.074   0.297 -1.0920  1.4490  1.4636
 3601TIP3   OH232361   1.668   6.006   0.328 -0.4239  0.4409 -0.4449
 3601TIP3    H132362   1.581   6.040   0.348 -0.9514 -1.5210  0.9130
 3601TIP3    H232363   1.690   5.950   0.403  1.9457  0.7600 -0.8352
 3602TIP3   OH232364   5.440   3.573   8.728 -0.0633  0.4489  0.1403
 3602TIP3    H132365   5.421   3.596   8.819 -1.2959 -3.3551  1.0060
 3602TIP3    H232366   5.362   3.599   8.680 -1.1603 -1.1974  0.9627
 3603TIP3   OH232367   2.224   1.838   8.533 -0.8421 -0.2099 -0.1672
 3603TIP3    H132368   2.274   1.770   8.487 -0.9097 -0.1218 -0.3741
 3603TIP3    H232369   2.236   1.917   8.480  0.1495  0.2250  0.6784
 3604TIP3   OH232370   1.243   4.441   1.434  0.4949  0.4116 -0.0138
 3604TIP3    H132371   1.229   4.346   1.428  2.2037  0.2118 -1.6009
 3604TIP3    H232372   1.156   4.478   1.422  0.1405 -0.9192 -2.0891
 3605TIP3   OH232373   1.377   4.120   8.443  0.4112 -0.4122 -0.2774
 3605TIP3    H132374   1.371   4.026   8.426  0.3934 -1.0023  2.5259
 3605TIP3    H232375   1.444   4.151   8.382  2.8597 -2.9085  0.9294
 3606TIP3   OH232376   3.593   0.748   6.871  0.7001  0.0133  0.0419
 3606TIP3    H132377   3.594   0.678   6.805  1.0643 -0.3483  0.4263
 3606TIP3    H232378   3.684   0.756   6.900  0.5632  0.2452  0.4238
 3607TIP3   OH232379   1.392   6.438   0.550 -0.3064  0.0431  0.0912
 3607TIP3    H132380   1.446   6.480   0.617 -2.0412  1.4152  0.7085
 3607TIP3    H232381   1.373   6.508   0.487 -1.3651 -0.3896 -0.0906
 3608TIP3   OH232382   6.215   2.444   7.407  0.0944 -0.8689 -0.2843
 3608TIP3    H132383   6.234   2.512   7.471  2.0027 -1.1623 -0.4736
 3608TIP3    H232384   6.121   2.427   7.416 -0.1065  0.6800  0.8337
 3609TIP3   OH232385   0.121   5.689   1.103  0.4198  0.3836  0.1909
 3609TIP3    H132386   0.182   5.617   1.084 -1.6950 -1.5468  0.2708
 3609TIP3    H232387   0.126   5.744   1.025  0.0902 -1.3845 -1.1672
 3610TIP3   OH232388   0.242   2.598   6.762  0.5929  0.5388 -0.1556
 3610TIP3    H132389   0.261   2.687   6.792 -0.2532  1.3342 -1.8508
 3610TIP3    H232390   0.298   2.586   6.686 -1.0863  0.6151 -1.4661
 3611TIP3   OH232391   5.783   2.556   2.006  0.8232 -0.1523 -0.3357
 3611TIP3    H132392   5.759   2.633   2.058  0.3293 -0.7570  0.3473
 3611TIP3    H232393   5.730   2.563   1.927  0.8114  0.2335 -0.2945
 3612TIP3   OH232394   6.624   0.996   8.695  0.8748  0.6949  0.5898
 3612TIP3    H132395   6.659   1.012   8.607 -0.0594  3.1100  0.5733
 3612TIP3    H232396   6.554   0.931   8.682  0.1288  1.7038 -0.6365
 3613TIP3   OH232397   0.994   6.508   2.187  0.0771  0.0798 -0.0319
 3613TIP3    H132398   1.005   6.467   2.273  0.8823  1.4460  0.5470
 3613TIP3    H232399   0.925   6.573   2.199 -1.2583 -1.0919 -0.9697
 3614TIP3   OH232400   2.534   0.317   1.761  0.1932  0.1016 -0.2312
 3614TIP3    H132401   2.483   0.313   1.842 -0.0540  1.1518 -0.3146
 3614TIP3    H232402   2.485   0.378   1.706  1.6970  1.4063 -0.1900
 3615TIP3   OH232403   2.484   0.012   1.680  0.0038  0.6853 -0.6280
 3615TIP3    H132404   2.462  -0.062   1.623  1.7513  0.5047 -1.1467
 3615TIP3    H232405   2.412   0.075   1.667 -2.7005 -1.7228  1.4896
 3616TIP3   OH232406   2.432   5.355   1.671 -0.1769 -0.6638 -0.0662
 3616TIP3    H132407   2.345   5.321   1.690 -0.3877  0.2569  0.7055
 3616TIP3    H232408   2.476   5.360   1.756  0.6621 -1.1785 -0.4544
 3617TIP3   OH232409   1.107   2.004   8.352  0.4481 -0.4471  0.3861
 3617TIP3    H132410   1.061   1.968   8.276 -1.2468  0.0496  1.1234
 3617TIP3    H232411   1.166   2.070   8.316  0.2540 -0.7752 -0.5564
 3618TIP3   OH232412   4.494   5.869   0.819  0.1790  0.5400 -0.1469
 3618TIP3    H132413   4.555   5.895   0.888 -1.1785 -0.3275  1.4397
 3618TIP3    H232414   4.434   5.944   0.811  1.0524  1.1652 -1.3290
 3619TIP3   OH232415   4.935   0.785   1.748 -0.5030  0.0566 -0.3165
 3619TIP3    H132416   4.946   0.880   1.752  1.1625 -0.1444  0.7379
 3619TIP3    H232417   4.915   0.768   1.656  2.2285  1.1952 -1.2305
 3620TIP3   OH232418   5.758   3.247   8.908  0.3406  0.6583 -0.4135
 3620TIP3    H132419   5.807   3.165   8.896 -0.4949  0.2624 -1.2287
 3620TIP3    H232420   5.691   3.226   8.974 -1.7235 -0.2042 -2.6475
 3621TIP3   OH232421   0.579   3.021   2.250  0.4154  1.2631 -0.3544
 3621TIP3    H132422   0.562   2.966   2.174  2.6921  1.1869 -0.8556
 3621TIP3    H232423   0.670   3.004   2.273 -0.0512  1.6269  2.1312
 3622TIP3   OH232424   0.438   4.256   1.600  0.0673 -0.7517 -0.1947
 3622TIP3    H132425   0.441   4.163   1.624  0.5623 -0.5385  0.6270
 3622TIP3    H232426   0.385   4.296   1.670 -0.2126 -0.4290 -0.5916
 3623TIP3   OH232427   3.028   1.057   7.361 -0.0618 -0.4948 -0.0093
 3623TIP3    H132428   3.074   0.981   7.396  0.8907  0.6569  1.3481
 3623TIP3    H232429   3.096   1.122   7.347 -0.8970  0.2385 -0.8175
 3624TIP3   OH232430   0.291   2.696   7.936  0.4518  0.3667 -0.2968
 3624TIP3    H132431   0.267   2.604   7.923 -0.9506  0.8064 -0.9229
 3624TIP3    H232432   0.298   2.731   7.847 -0.9325  1.3380 -0.0403
 3625TIP3   OH232433   1.302   3.728   2.567  0.5499 -0.2795 -0.2284
 3625TIP3    H132434   1.328   3.717   2.475  1.1593  0.9903 -0.2379
 3625TIP3    H232435   1.238   3.660   2.582 -0.6705  0.3803 -2.0463
 3626TIP3   OH232436   5.163   3.709   1.291  0.0028 -0.2876  0.4069
 3626TIP3    H132437   5.236   3.663   1.332  0.5426  1.0672  1.0335
 3626TIP3    H232438   5.097   3.716   1.360 -0.2369 -0.4609  0.1979
 3627TIP3   OH232439   4.486   2.059   0.175  0.2234 -0.5605  0.4857
 3627TIP3    H132440   4.545   2.110   0.231 -0.7898  0.4574  0.6711
 3627TIP3    H232441   4.469   1.979   0.225  0.0514 -0.0637  1.2496
 3628TIP3   OH232442   5.749   0.989   6.249  0.7412  0.1470  0.4935
 3628TIP3    H132443   5.792   1.074   6.257 -0.4987  0.8080  0.4113
 3628TIP3    H232444   5.796   0.932   6.310  0.8484  1.2075  1.4359
 3629TIP3   OH232445   6.747   2.884   0.292  0.0005 -0.5910 -0.1172
 3629TIP3    H132446   6.677   2.937   0.253  0.5050 -0.1925 -0.4991
 3629TIP3    H232447   6.703   2.832   0.359 -0.2884  1.3537  1.2727
 3630TIP3   OH232448   2.544   2.770   0.616  0.4157  0.1351  0.2649
 3630TIP3    H132449   2.616   2.741   0.671  0.4341  1.7074  1.1217
 3630TIP3    H232450   2.586   2.803   0.537  0.5558  0.0319  0.2955
 3631TIP3   OH232451   5.711   3.091   7.358  0.0725  0.0099 -0.0804
 3631TIP3    H132452   5.687   3.181   7.379 -0.9627 -0.1854 -0.3262
 3631TIP3    H232453   5.784   3.098   7.296  1.5235  0.6187  1.6259
 3632TIP3   OH232454   0.579   1.626   7.597 -0.3039  0.2597  0.3373
 3632TIP3    H132455   0.670   1.650   7.613 -0.3989  1.1336 -0.3901
 3632TIP3    H232456   0.529   1.688   7.651 -0.4646 -1.0333  1.7569
 3633TIP3   OH232457   2.680   5.435   1.035 -0.3613 -0.3202  0.3735
 3633TIP3    H132458   2.644   5.347   1.026  1.0162 -0.9682  0.8459
 3633TIP3    H232459   2.755   5.424   1.093 -0.8854  1.3773  1.4599
 3634TIP3   OH232460   5.469   0.933   0.206 -0.0134  0.4404 -0.1298
 3634TIP3    H132461   5.428   0.914   0.121 -1.9901  2.3451  0.3038
 3634TIP3    H232462   5.454   0.854   0.258  0.7463 -0.5413 -1.3484
 3635TIP3   OH232463   3.865   2.130   1.164  0.0592 -0.1941 -0.2979
 3635TIP3    H132464   3.798   2.078   1.121 -1.7008  0.0843  1.9184
 3635TIP3    H232465   3.922   2.160   1.093 -1.5511 -1.3081 -2.1399
 3636TIP3   OH232466   2.834   0.566   0.371  0.0347 -0.1626  0.2798
 3636TIP3    H132467   2.845   0.486   0.422 -1.0016 -0.0917  0.6290
 3636TIP3    H232468   2.748   0.557   0.330  1.4928 -1.0397 -2.9415
 3637TIP3   OH232469   5.529   3.102   1.799 -0.1738  0.0572  0.0163
 3637TIP3    H132470   5.555   3.033   1.860  0.6918  0.4935  0.1558
 3637TIP3    H232471   5.458   3.149   1.845 -0.9181 -0.8544 -0.1741
 3638TIP3   OH232472   4.929   6.484   7.302  0.0816 -0.0601  0.5442
 3638TIP3    H132473   4.866   6.423   7.265  1.4007  0.0398 -2.1281
 3638TIP3    H232474   4.920   6.563   7.248  0.7388  0.8752  1.7550
 3639TIP3   OH232475   3.955   1.993   1.410 -0.3074 -0.5951  0.9447
 3639TIP3    H132476   4.045   1.967   1.389 -0.7434 -1.3980 -0.0193
 3639TIP3    H232477   3.927   2.045   1.335 -1.0063 -1.2711  0.7216
 3640TIP3   OH232478   3.142   4.506   0.346  0.2921  0.2288 -0.1829
 3640TIP3    H132479   3.149   4.551   0.431  0.6303  0.5127 -0.3568
 3640TIP3    H232480   3.124   4.415   0.368  2.7108 -0.2034  0.2864
 3641TIP3   OH232481   3.075   4.938   8.517 -0.5353  0.7040  0.1106
 3641TIP3    H132482   3.024   4.870   8.473  0.5013  0.1049 -0.2210
 3641TIP3    H232483   3.164   4.927   8.481  0.0885  0.9371  1.5307
 3642TIP3   OH232484   1.285   0.643   0.695 -0.0633  0.9052 -0.2267
 3642TIP3    H132485   1.229   0.599   0.759  0.2944  1.3218  0.3856
 3642TIP3    H232486   1.374   0.611   0.714 -0.1490 -0.2354 -1.5981
 3643TIP3   OH232487   2.417   5.219   0.435  0.2910  0.5560 -1.2476
 3643TIP3    H132488   2.458   5.154   0.379 -0.5529 -0.8503 -0.2833
 3643TIP3    H232489   2.325   5.221   0.408 -0.0916 -0.0185 -0.0649
 3644TIP3   OH232490   1.847   0.294   6.282  0.6135  0.5419  0.7222
 3644TIP3    H132491   1.794   0.272   6.206  1.6075 -0.3462  0.2655
 3644TIP3    H232492   1.810   0.375   6.315 -0.0448  0.7503 -0.5063
 3645TIP3   OH232493   6.467   1.201   7.521  0.5640 -0.3976 -0.4109
 3645TIP3    H132494   6.488   1.175   7.432 -0.0489 -1.3688 -0.2871
 3645TIP3    H232495   6.431   1.290   7.512  1.1027 -0.2361 -1.0461
 3646TIP3   OH232496   3.389   2.700   1.749  0.5085 -0.1582  0.3981
 3646TIP3    H132497   3.439   2.706   1.830  1.6328  1.6845 -0.3744
 3646TIP3    H232498   3.338   2.781   1.746  1.0394  0.1515 -1.0687
 3647TIP3   OH232499   3.492   1.943   7.466 -0.5032  0.1659 -0.1955
 3647TIP3    H132500   3.455   1.969   7.550  0.3059  0.1625  0.1703
 3647TIP3    H232501   3.541   2.020   7.437 -0.5805  0.0832 -0.5523
 3648TIP3   OH232502   6.213   2.630   8.084 -0.2924  0.0239  0.2830
 3648TIP3    H132503   6.301   2.646   8.051 -0.4120  0.4871  0.1740
 3648TIP3    H232504   6.181   2.556   8.032 -0.4853  0.7561 -0.6772
 3649TIP3   OH232505   3.037   1.248   0.667  0.2171  0.1329 -0.2782
 3649TIP3    H132506   3.070   1.164   0.635  1.5688  0.0564  1.1913
 3649TIP3    H232507   3.031   1.237   0.761 -0.9533  1.2416 -0.2003
 3650TIP3   OH232508   6.272   1.827   6.753  0.4698  0.1051 -0.4914
 3650TIP3    H132509   6.244   1.909   6.794  0.3125 -0.4645  0.6038
 3650TIP3    H232510   6.289   1.849   6.662  1.2263  1.5363 -0.0392
 3651TIP3   OH232511   2.571   1.186   7.781 -0.5669  0.2093  0.2333
 3651TIP3    H132512   2.600   1.099   7.752 -0.1382  0.1661  0.7848
 3651TIP3    H232513   2.620   1.247   7.726 -1.6756  0.1105 -0.9282
 3652TIP3   OH232514   5.654   1.528   0.475  0.3449 -0.1875 -0.3735
 3652TIP3    H132515   5.597   1.605   0.479 -1.0000 -1.1832  0.9257
 3652TIP3    H232516   5.603   1.464   0.425  1.8923  0.0368 -2.4010
 3653TIP3   OH232517   1.202   2.165   8.083  0.0128  0.4059 -0.7381
 3653TIP3    H132518   1.219   2.205   8.168 -1.4152 -1.7113  0.6708
 3653TIP3    H232519   1.212   2.071   8.098 -1.2589 -0.1128 -2.6426
 3654TIP3   OH232520   4.349   4.594   7.543 -0.1989 -1.0385 -0.5241
 3654TIP3    H132521   4.394   4.554   7.618 -0.0914  0.2633  0.1211
 3654TIP3    H232522   4.413   4.654   7.506 -0.7482 -0.6211 -0.7945
 3655TIP3   OH232523   2.390   4.153   8.584  0.0512 -0.4614  0.6562
 3655TIP3    H132524   2.476   4.183   8.555  0.5026 -1.7990  0.5311
 3655TIP3    H232525   2.337   4.153   8.505  0.2090 -0.5465  0.5507
 3656TIP3   OH232526   5.916   6.628   1.984 -0.0444 -0.2018 -0.1984
 3656TIP3    H132527   5.927   6.701   1.923  0.2378 -0.7163 -0.7628
 3656TIP3    H232528   5.998   6.627   2.035 -0.4056  0.4246  0.4216
 3657TIP3   OH232529   2.528   6.699   8.745 -0.8098  0.1332  0.1077
 3657TIP3    H132530   2.451   6.650   8.772  0.2072 -0.5591  1.9153
 3657TIP3    H232531   2.505   6.790   8.759 -1.0130 -0.1151  1.4909
 3658TIP3   OH232532   5.572   0.726   0.748 -0.2628  0.1710  0.0912
 3658TIP3    H132533   5.607   0.736   0.659 -2.0138 -0.2846 -0.6857
 3658TIP3    H232534   5.642   0.682   0.797  1.1076  1.3044 -0.7832
 3659TIP3   OH232535   1.747   3.565   8.608 -0.2842 -0.1736 -0.3830
 3659TIP3    H132536   1.674   3.574   8.548 -0.8068 -0.2620  0.2287
 3659TIP3    H232537   1.807   3.636   8.584 -0.2406 -0.5247 -1.3348
 3660TIP3   OH232538   3.529   2.423   0.289 -0.5386  0.2246  0.3914
 3660TIP3    H132539   3.548   2.465   0.373  0.2965 -1.0868  0.8921
 3660TIP3    H232540   3.584   2.470   0.226 -0.4612  0.5993  0.7341
 3661TIP3   OH232541   1.664   0.095   8.865  0.0089 -0.0101  0.1096
 3661TIP3    H132542   1.677   0.154   8.939 -0.7719  2.2963 -1.4456
 3661TIP3    H232543   1.587   0.043   8.887 -0.4200  0.8937  0.7834
 3662TIP3   OH232544   5.187   6.653   7.509  0.2108 -0.0948  0.0936
 3662TIP3    H132545   5.208   6.560   7.513 -0.1714 -0.1238  2.6533
 3662TIP3    H232546   5.255   6.695   7.561 -0.6430  0.8412  0.4849
 3663TIP3   OH232547   4.507   1.260   1.625 -0.0612  0.5653  0.6268
 3663TIP3    H132548   4.556   1.287   1.547  1.4753  2.1156  2.0135
 3663TIP3    H232549   4.417   1.249   1.595  0.5479  0.7633 -1.4145
 3664TIP3   OH232550   6.404   4.584   1.987  0.2811  0.6048 -0.0698
 3664TIP3    H132551   6.484   4.628   2.017  1.1273 -1.7169  1.3172
 3664TIP3    H232552   6.337   4.610   2.050  0.6837  0.2028  0.5324
 3665TIP3   OH232553   2.796   6.221   7.237 -0.4719  0.4048 -0.5331
 3665TIP3    H132554   2.716   6.272   7.226 -0.7588 -0.2517 -1.6180
 3665TIP3    H232555   2.844   6.234   7.156  1.5753  2.4997  0.8849
 3666TIP3   OH232556   4.313   6.680   8.465  0.3166 -0.6738  0.4915
 3666TIP3    H132557   4.298   6.587   8.449 -2.5894 -0.2094  0.0485
 3666TIP3    H232558   4.277   6.696   8.553 -0.0029  0.1905  0.2126
 3667TIP3   OH232559   5.851   3.282   2.094 -0.0590  0.0557 -0.6983
 3667TIP3    H132560   5.891   3.368   2.102  0.6549 -0.3178 -0.1091
 3667TIP3    H232561   5.911   3.223   2.139 -1.1550 -0.5675 -0.0058
 3668TIP3   OH232562   2.760   2.945   8.340 -0.3301 -0.1813  0.5217
 3668TIP3    H132563   2.717   2.942   8.425 -0.4395  2.1916  0.6016
 3668TIP3    H232564   2.854   2.952   8.361 -0.4074  1.1310  0.4905
 3669TIP3   OH232565   6.697   2.111   1.342 -1.2050 -0.0612 -0.0766
 3669TIP3    H132566   6.647   2.030   1.350 -0.5606 -0.3092  2.4142
 3669TIP3    H232567   6.729   2.128   1.431  1.0979  1.3797 -1.0861
 3670TIP3   OH232568   1.072   4.763   8.644 -0.1895 -0.4264  0.6115
 3670TIP3    H132569   1.155   4.719   8.663 -0.1453 -1.3202 -1.4042
 3670TIP3    H232570   1.076   4.784   8.551 -1.4854  1.1966  0.8616
 3671TIP3   OH232571   4.310   1.416   7.971 -0.4279 -0.6042 -0.5518
 3671TIP3    H132572   4.224   1.393   7.934 -2.3728  1.8816  1.9456
 3671TIP3    H232573   4.348   1.332   7.996 -0.8994 -1.9873 -3.9992
 3672TIP3   OH232574   0.164   6.163   2.100 -0.3898  0.0703 -0.5500
 3672TIP3    H132575   0.081   6.207   2.082 -0.6803 -0.6793 -1.0844
 3672TIP3    H232576   0.205   6.216   2.168 -1.0901  0.7164 -0.6221
 3673TIP3   OH232577   0.530   2.803   1.337  0.5432  0.2112  0.1840
 3673TIP3    H132578   0.475   2.769   1.267  0.5533  1.4188 -0.4221
 3673TIP3    H232579   0.512   2.745   1.412 -0.3359 -0.3755 -0.4655
 3674TIP3   OH232580   6.656   4.179   7.552  0.3471 -0.3217 -0.0775
 3674TIP3    H132581   6.611   4.095   7.553  0.3375 -0.3305 -0.7721
 3674TIP3    H232582   6.748   4.157   7.568  0.6027 -0.6507 -1.7978
 3675TIP3   OH232583   6.440   3.560   6.508  0.3329 -0.0492 -0.0988
 3675TIP3    H132584   6.402   3.480   6.471  0.5904  0.5671 -1.7676
 3675TIP3    H232585   6.365   3.605   6.546 -0.2697  0.0843 -1.3772
 3676TIP3   OH232586   4.477   5.393   8.509 -0.0744  0.0850 -0.5677
 3676TIP3    H132587   4.460   5.379   8.416 -1.1959  2.1606 -0.7549
 3676TIP3    H232588   4.533   5.321   8.535  0.3027 -0.5255 -2.8639
 3677TIP3   OH232589   4.707   6.341   8.607 -0.0485  0.3372  0.0983
 3677TIP3    H132590   4.774   6.360   8.542 -1.7663  2.2527 -1.2296
 3677TIP3    H232591   4.625   6.344   8.558 -1.1777 -1.9844  1.6408
 3678TIP3   OH232592   6.284   2.009   7.110  0.4161 -0.3521 -0.4602
 3678TIP3    H132593   6.214   1.989   7.048 -0.5389  0.6548  0.2389
 3678TIP3    H232594   6.238   2.037   7.189  1.6080 -1.0686  0.5187
 3679TIP3   OH232595   4.485   2.558   7.104  0.3759 -0.4110 -0.1031
 3679TIP3    H132596   4.460   2.508   7.026 -1.5667 -0.8630  0.7409
 3679TIP3    H232597   4.429   2.635   7.103  2.4701  1.2027 -0.7089
 3680TIP3   OH232598   0.118   5.528   1.556  0.0565 -0.4875  0.0923
 3680TIP3    H132599   0.106   5.623   1.553 -1.4160 -0.6773 -0.7090
 3680TIP3    H232600   0.058   5.498   1.624 -0.2203 -0.9352 -0.3401
 3681TIP3   OH232601   3.749   5.865   7.910 -0.1665  0.1067  0.3106
 3681TIP3    H132602   3.800   5.817   7.845 -1.0468 -0.0522 -0.2786
 3681TIP3    H232603   3.815   5.899   7.971  0.6068 -0.4297 -0.1975
 3682TIP3   OH232604   6.146   1.618   8.113  0.1884 -0.0383 -0.4119
 3682TIP3    H132605   6.056   1.602   8.084  0.3491  0.8376 -1.4553
 3682TIP3    H232606   6.138   1.686   8.180 -0.0460 -1.0199  0.5854
 3683TIP3   OH232607   6.041   0.568   7.278  0.7195 -0.6008  0.3712
 3683TIP3    H132608   5.964   0.563   7.221  0.9644  2.6286 -0.4490
 3683TIP3    H232609   6.113   0.590   7.219  1.4069  0.6654  1.6091
 3684TIP3   OH232610   6.536   5.032   1.277  0.3882  0.2038 -0.2139
 3684TIP3    H132611   6.473   4.995   1.339 -2.1693  5.6198  1.0059
 3684TIP3    H232612   6.581   5.100   1.327  1.1784  2.0872 -3.2344
 3685TIP3   OH232613   2.621   2.919   0.011  0.2688 -0.0196 -0.0189
 3685TIP3    H132614   2.638   2.825   0.019 -1.0257 -0.5191 -2.3302
 3685TIP3    H232615   2.543   2.934   0.064  2.2503  0.4668  2.9782
 3686TIP3   OH232616   5.469   1.452   7.702  0.4416  0.4831  0.3419
 3686TIP3    H132617   5.473   1.546   7.685 -1.7267  0.0449 -3.8287
 3686TIP3    H232618   5.535   1.414   7.645  0.6815 -0.6280  1.3232
 3687TIP3   OH232619   3.078   3.480   7.224 -0.1752 -0.1702  0.4619
 3687TIP3    H132620   3.110   3.415   7.287  0.2317 -0.1272  0.3028
 3687TIP3    H232621   3.130   3.558   7.241  1.6076 -0.8515 -1.4601
 3688TIP3   OH232622   1.845   4.347   1.255 -0.0103 -0.2482 -0.2422
 3688TIP3    H132623   1.789   4.424   1.257 -1.0789 -1.0361  0.7783
 3688TIP3    H232624   1.843   4.318   1.163 -0.1622  0.5154 -0.4845
 3689TIP3   OH232625   5.147   0.237   0.204  0.1247  0.1295 -0.2061
 3689TIP3    H132626   5.074   0.177   0.217 -0.2914  0.8553  0.8416
 3689TIP3    H232627   5.154   0.246   0.109  0.2604 -1.6387 -0.4107
 3690TIP3   OH232628   5.011   0.905   0.727  0.2142 -0.0964 -0.1060
 3690TIP3    H132629   4.992   0.812   0.719  0.1687 -0.0360 -0.7894
 3690TIP3    H232630   5.060   0.913   0.808  2.6493 -1.1167 -1.3751
 3691TIP3   OH232631   0.738   0.987   7.299 -0.4863 -0.2179  0.1477
 3691TIP3    H132632   0.738   0.937   7.217  0.8424  0.4096 -0.2654
 3691TIP3    H232633   0.661   0.956   7.346 -0.0242 -2.2344 -0.3443
 3692TIP3   OH232634   4.231   6.763   7.071  0.4096 -0.6816 -0.3869
 3692TIP3    H132635   4.324   6.786   7.068  0.2573  0.7161  2.4487
 3692TIP3    H232636   4.193   6.808   6.996  1.5389  1.5408  0.2866
 3693TIP3   OH232637   6.744   3.169   7.964  0.3011  0.1430  0.0480
 3693TIP3    H132638   6.820   3.126   7.924 -0.7689 -1.6972 -0.0911
 3693TIP3    H232639   6.726   3.119   8.043 -1.6177 -0.4059 -0.6602
 3694TIP3   OH232640   1.635   6.006   7.393  0.0223  0.0781  0.2414
 3694TIP3    H132641   1.694   6.067   7.349  0.7074  0.0866  1.1242
 3694TIP3    H232642   1.555   6.056   7.407  0.3123  0.5416  0.2870
 3695TIP3   OH232643   2.358   2.004   2.098  0.0871 -0.0264  0.2032
 3695TIP3    H132644   2.310   1.955   2.031  0.9710  2.0139 -2.0658
 3695TIP3    H232645   2.291   2.027   2.163 -1.6108  0.7513 -1.6826
 3696TIP3   OH232646   4.620   4.510   7.940 -0.4371  0.7265  0.2145
 3696TIP3    H132647   4.600   4.562   8.018 -1.3610 -2.2124  2.0944
 3696TIP3    H232648   4.575   4.427   7.955  2.0750 -1.1755 -1.9412
 3697TIP3   OH232649   1.966   0.434   1.187 -0.1157 -0.2328 -0.6367
 3697TIP3    H132650   1.947   0.390   1.270 -1.1380 -0.3636 -0.9221
 3697TIP3    H232651   1.940   0.525   1.202  0.1331 -0.1534 -0.6763
 3698TIP3   OH232652   1.776   4.051   0.791  0.1794  0.8474 -0.3735
 3698TIP3    H132653   1.697   4.099   0.767 -0.7238  0.5465  1.7346
 3698TIP3    H232654   1.777   4.054   0.887  2.9757  1.2036 -0.3343
 3699TIP3   OH232655   2.687   5.758   0.722 -0.5066  0.1760  0.1236
 3699TIP3    H132656   2.617   5.727   0.664  0.4776 -0.0214 -1.0032
 3699TIP3    H232657   2.751   5.687   0.723  0.0916  0.7032  0.3973
 3700TIP3   OH232658   3.239   6.174   8.529 -0.2203  0.2294 -0.0580
 3700TIP3    H132659   3.164   6.232   8.519 -0.3245  0.2683  0.8863
 3700TIP3    H232660   3.288   6.183   8.447 -0.2778  1.5725  0.0429
 3701TIP3   OH232661   5.966   1.531   1.795 -0.7110 -0.0050 -0.8089
 3701TIP3    H132662   6.012   1.453   1.765 -1.5761 -0.5949 -0.6427
 3701TIP3    H232663   6.026   1.603   1.776 -0.0790 -0.6603 -1.3608
 3702TIP3   OH232664   6.236   0.359   7.002  0.0076  0.0552 -0.5621
 3702TIP3    H132665   6.207   0.299   7.071 -1.6204  1.7594  0.3382
 3702TIP3    H232666   6.297   0.307   6.950 -0.2628 -1.9392  0.9496
 3703TIP3   OH232667   1.178   0.596   6.894  0.4022 -0.4774  0.7555
 3703TIP3    H132668   1.212   0.593   6.805 -1.3460 -0.3746  0.0299
 3703TIP3    H232669   1.206   0.514   6.934  1.0577 -0.6056  0.0566
 3704TIP3   OH232670   1.964   4.414   7.448  1.1292 -0.3224  0.9347
 3704TIP3    H132671   2.038   4.473   7.455  1.3811 -0.5439  0.2704
 3704TIP3    H232672   1.907   4.454   7.382  0.8210 -0.3202  1.2013
 3705TIP3   OH232673   2.391   6.004   2.300 -0.4763 -0.2664  0.0709
 3705TIP3    H132674   2.311   6.034   2.257  1.4980 -0.4258 -4.1739
 3705TIP3    H232675   2.367   5.920   2.340 -3.0140  1.0133  1.5371
 3706TIP3   OH232676   4.118   5.171   7.964  0.5504 -0.1824 -0.3461
 3706TIP3    H132677   4.158   5.244   7.917 -0.6371  0.5428 -0.2604
 3706TIP3    H232678   4.141   5.094   7.911  0.9760  0.3684 -0.9829
 3707TIP3   OH232679   5.818   4.808   7.061  0.6128 -0.3776 -0.6524
 3707TIP3    H132680   5.816   4.797   6.966  0.6271 -0.9233 -0.5906
 3707TIP3    H232681   5.742   4.760   7.093 -0.6024  1.5380 -0.5423
 3708TIP3   OH232682   4.304   3.967   1.493  0.0233  0.0613  0.9240
 3708TIP3    H132683   4.234   3.914   1.532 -0.0949 -0.2831  0.2597
 3708TIP3    H232684   4.371   3.971   1.561  0.3529 -1.5733  0.7377
 3709TIP3   OH232685   1.079   5.726   0.025 -0.6910  0.1993  0.0387
 3709TIP3    H132686   1.119   5.813   0.024  0.3261 -0.2201 -2.1894
 3709TIP3    H232687   0.998   5.737   0.075 -0.0443  2.1390  0.7582
 3710TIP3   OH232688   2.735   4.987   0.705 -0.4796  0.3177  0.5638
 3710TIP3    H132689   2.776   4.963   0.788 -0.6696  0.2516  0.6380
 3710TIP3    H232690   2.754   5.081   0.696 -2.0827  0.7795  1.6233
 3711TIP3   OH232691   1.143   1.637   8.346 -0.3760 -0.0264  0.1644
 3711TIP3    H132692   1.052   1.667   8.350 -0.8853 -1.5805  1.0775
 3711TIP3    H232693   1.145   1.577   8.271  0.1231  0.6620 -0.3827
 3712TIP3   OH232694   5.581   2.216   0.848 -0.1416 -0.5372 -0.2675
 3712TIP3    H132695   5.510   2.199   0.910 -0.5819 -0.0612 -0.6271
 3712TIP3    H232696   5.538   2.260   0.774  0.8045  1.5976  0.3492
 3713TIP3   OH232697   1.122   4.075   7.328  0.0543 -0.3209  0.1314
 3713TIP3    H132698   1.032   4.055   7.353 -0.6686  2.5776  0.1882
 3713TIP3    H232699   1.120   4.080   7.233 -0.2726  1.2482  0.1898
 3714TIP3   OH232700   4.212   6.232   8.572  0.0218 -0.0287 -0.9409
 3714TIP3    H132701   4.247   6.193   8.652 -0.1506 -0.0142 -0.8576
 3714TIP3    H232702   4.129   6.187   8.558  0.2071 -0.2632 -1.2933
 3715TIP3   OH232703   3.414   6.429   7.406 -0.3955 -0.4162  0.0625
 3715TIP3    H132704   3.481   6.374   7.447 -0.0960 -0.4215 -0.4155
 3715TIP3    H232705   3.384   6.487   7.475 -0.4142 -0.9059  0.4649
 3716TIP3   OH232706   0.745   4.804   8.165  0.0493  0.0606 -0.0373
 3716TIP3    H132707   0.668   4.853   8.136 -0.3585 -0.2151  0.5744
 3716TIP3    H232708   0.746   4.814   8.260  0.2155 -0.7376  0.0529
 3717TIP3   OH232709   2.025   2.279   7.991 -0.1691  0.1406 -0.4688
 3717TIP3    H132710   2.090   2.263   7.922 -0.6851 -0.6090 -0.7918
 3717TIP3    H232711   2.009   2.374   7.987  0.4059  0.2292 -0.8348
 3718TIP3   OH232712   5.740   2.048   7.553  0.0667  0.5779 -0.7648
 3718TIP3    H132713   5.822   1.999   7.559 -1.1160 -1.3592  1.8312
 3718TIP3    H232714   5.678   1.996   7.604 -1.8779  3.7428  0.3778
 3719TIP3   OH232715   0.629   3.393   0.786  0.4224 -0.0150 -0.0279
 3719TIP3    H132716   0.705   3.342   0.759 -0.4110 -0.5349 -1.5499
 3719TIP3    H232717   0.609   3.448   0.710  0.5657  1.7499  1.1313
 3720TIP3   OH232718   2.349   3.996   7.338 -0.0047 -0.0909 -0.2654
 3720TIP3    H132719   2.287   3.950   7.281  1.4017 -0.6967 -1.3798
 3720TIP3    H232720   2.434   3.981   7.298  1.0355 -0.2904  1.8674
 3721TIP3   OH232721   1.210   3.216   7.494 -0.0854  0.2945 -0.0036
 3721TIP3    H132722   1.269   3.156   7.540 -0.3968 -0.3332 -0.4051
 3721TIP3    H232723   1.173   3.163   7.423 -0.0062  1.0980 -0.6571
 3722TIP3   OH232724   1.222   4.112   8.684  0.4243 -0.0644 -0.2354
 3722TIP3    H132725   1.317   4.130   8.686  0.6372 -1.0175 -1.0446
 3722TIP3    H232726   1.210   4.056   8.608 -0.7867 -0.0746 -0.0554
 3723TIP3   OH232727   2.783   0.651   1.562 -0.7703  0.4822 -0.1911
 3723TIP3    H132728   2.830   0.599   1.628 -1.0167 -0.7340 -0.9384
 3723TIP3    H232729   2.788   0.741   1.595 -1.1001 -0.1155  1.6080
 3724TIP3   OH232730   4.542   6.616   2.273  0.4807  0.1698  0.5026
 3724TIP3    H132731   4.463   6.667   2.258 -0.6356 -1.7639 -0.5237
 3724TIP3    H232732   4.590   6.665   2.339 -1.5793  1.3828  1.1805
 3725TIP3   OH232733   6.107   1.045   8.419 -0.2399  0.2039  0.1148
 3725TIP3    H132734   6.060   1.031   8.337  2.2937  1.3320 -1.7100
 3725TIP3    H232735   6.134   1.137   8.415  2.5426 -0.4821  0.6647
 3726TIP3   OH232736   4.955   0.438   1.595  0.2352  0.4808  0.6013
 3726TIP3    H132737   5.001   0.355   1.581  0.2093  0.8359 -2.0971
 3726TIP3    H232738   5.023   0.499   1.622  0.8596  0.3036 -0.5025
 3727TIP3   OH232739   3.953   0.723   7.650  0.1169 -0.0279  0.2934
 3727TIP3    H132740   3.921   0.706   7.739  0.8413  0.0126  0.5765
 3727TIP3    H232741   4.038   0.677   7.647  0.9146  1.3971  0.2097
 3728TIP3   OH232742   2.298   1.059   1.052  0.1779 -0.0972 -0.1476
 3728TIP3    H132743   2.304   1.039   0.959 -0.5681  0.4366 -0.3216
 3728TIP3    H232744   2.376   1.112   1.071  0.8219 -0.9821 -0.2450
 3729TIP3   OH232745   3.064   0.165   2.048 -0.3843 -0.8483 -0.1287
 3729TIP3    H132746   3.110   0.147   2.130 -1.3469 -2.9822  0.0103
 3729TIP3    H232747   3.113   0.116   1.981 -0.2682 -0.0458 -0.6470
 3730TIP3   OH232748   2.094   0.879   7.558 -0.7958  0.8085  0.0373
 3730TIP3    H132749   2.120   0.960   7.602 -0.2142  0.2307  0.7995
 3730TIP3    H232750   2.139   0.810   7.607  0.8327  0.1866 -2.1498
 3731TIP3   OH232751   1.506   6.689   7.654 -0.2942  0.4217  0.1561
 3731TIP3    H132752   1.411   6.696   7.644 -0.3517 -0.4521 -0.0161
 3731TIP3    H232753   1.542   6.732   7.577 -0.5265  1.5569  0.6715
 3732TIP3   OH232754   3.711   1.704   7.434 -0.0430 -0.0651  0.0371
 3732TIP3    H132755   3.747   1.778   7.483  0.3414 -1.1551  1.4591
 3732TIP3    H232756   3.770   1.695   7.359 -1.0957  2.1169 -1.1462
 3733TIP3   OH232757   3.255   2.743   8.262  0.2930 -0.4747  0.2492
 3733TIP3    H132758   3.240   2.818   8.320  0.2446  0.3203 -0.7664
 3733TIP3    H232759   3.173   2.693   8.264 -0.0201  0.0353  0.1712
 3734TIP3   OH232760   6.140   3.610   8.410 -0.8696 -0.6164  0.2796
 3734TIP3    H132761   6.195   3.565   8.474 -1.1972  0.2045  1.1594
 3734TIP3    H232762   6.155   3.563   8.328  0.9512 -0.5812  0.5465
 3735TIP3   OH232763   6.184   6.162   8.516  0.7243  0.5932  1.1029
 3735TIP3    H132764   6.130   6.100   8.466  0.4245  0.6707  1.3299
 3735TIP3    H232765   6.270   6.155   8.476  0.9659 -0.7571  1.8068
 3736TIP3   OH232766   1.157   4.591   0.419  0.0261  0.4559  0.2346
 3736TIP3    H132767   1.136   4.520   0.481  0.5982  0.9443  1.0036
 3736TIP3    H232768   1.218   4.551   0.358 -0.1689  0.1016  0.2628
 3737TIP3   OH232769   4.514   3.952   7.953  0.0885 -0.2635 -0.1408
 3737TIP3    H132770   4.608   3.944   7.936  0.7882  0.6169  2.6729
 3737TIP3    H232771   4.481   3.862   7.950  1.5720 -0.9004  1.2601
 3738TIP3   OH232772   4.867   1.534   0.713 -0.2252 -0.2163  0.9140
 3738TIP3    H132773   4.806   1.605   0.694 -0.3670  0.0210  2.1879
 3738TIP3    H232774   4.816   1.472   0.765  0.5315 -0.1513  1.7541
 3739TIP3   OH232775   5.919   2.572   0.534  0.0872 -1.0442 -0.5179
 3739TIP3    H132776   6.015   2.577   0.543  0.0891  3.3961 -0.7905
 3739TIP3    H232777   5.889   2.542   0.619  1.7100 -0.1414  0.4404
 3740TIP3   OH232778   3.955   1.801   6.957  0.4249 -0.5736  0.5696
 3740TIP3    H132779   3.986   1.829   7.043  2.5759 -1.2750  0.0807
 3740TIP3    H232780   3.887   1.737   6.976  0.4547 -0.2780  1.7394
 3741TIP3   OH232781   1.667   1.334   6.415  0.1023 -0.1615  0.3936
 3741TIP3    H132782   1.643   1.371   6.330 -0.7498 -1.0405  0.2312
 3741TIP3    H232783   1.713   1.252   6.394  3.7935  1.6133  0.6701
 3742TIP3   OH232784   3.649   2.901   8.132  0.0261  0.3897  0.3606
 3742TIP3    H132785   3.556   2.890   8.111  0.3821 -0.8066 -0.7724
 3742TIP3    H232786   3.678   2.972   8.075  0.4226 -1.1798 -1.4841
 3743TIP3   OH232787   0.275   4.685   0.254  0.3874  0.8747 -0.7729
 3743TIP3    H132788   0.358   4.682   0.206 -0.1311  0.9161 -1.6999
 3743TIP3    H232789   0.262   4.596   0.285  1.0366  0.9844 -0.1639
 3744TIP3   OH232790   6.038   4.659   1.853 -0.3999 -0.3852 -0.1469
 3744TIP3    H132791   5.991   4.591   1.804 -0.0772 -0.2556 -0.6418
 3744TIP3    H232792   6.074   4.612   1.929 -0.4166 -0.7079 -0.3351
 3745TIP3   OH232793   6.518   5.728   7.018 -0.1216  0.4265 -0.7440
 3745TIP3    H132794   6.445   5.736   7.079  0.8146  1.6001  0.2832
 3745TIP3    H232795   6.483   5.756   6.933 -1.2917 -0.6671 -0.6369
 3746TIP3   OH232796   4.156   3.695   1.517 -0.0859  0.3280 -0.1787
 3746TIP3    H132797   4.243   3.665   1.544  0.2435  1.0946 -0.3682
 3746TIP3    H232798   4.104   3.695   1.598 -0.1561 -0.9109 -0.2025
 3747TIP3   OH232799   4.377   0.890   1.312 -0.3643  0.0340  0.4783
 3747TIP3    H132800   4.455   0.874   1.366 -0.7134  0.0506  0.9872
 3747TIP3    H232801   4.398   0.849   1.228  1.5928  2.8658 -0.5754
 3748TIP3   OH232802   1.476   4.540   7.009 -0.1324 -0.1579  0.1240
 3748TIP3    H132803   1.498   4.515   6.919 -0.4006  1.3165 -0.3727
 3748TIP3    H232804   1.557   4.526   7.058 -0.0604 -1.2299 -0.2806
 3749TIP3   OH232805   5.558   3.361   8.563  0.5127  0.3156 -0.2780
 3749TIP3    H132806   5.522   3.278   8.594  0.7062  0.3122 -0.0588
 3749TIP3    H232807   5.546   3.421   8.637  1.9098  0.0444  0.1926
 3750TIP3   OH232808   1.581   1.330   7.796 -0.5161  0.1839  0.8909
 3750TIP3    H132809   1.545   1.419   7.796  0.2877  0.5728 -1.1250
 3750TIP3    H232810   1.673   1.342   7.820 -0.7861 -0.3414  2.2701
 3751TIP3   OH232811   4.590   1.643   1.423 -0.3549  0.2764 -0.0063
 3751TIP3    H132812   4.671   1.630   1.473 -0.3300 -0.9520 -0.3346
 3751TIP3    H232813   4.612   1.709   1.358  0.5018 -0.3046 -0.3224
 3752TIP3   OH232814   1.732   0.430   0.388  1.0138  0.1917  0.0343
 3752TIP3    H132815   1.760   0.342   0.413 -0.9303 -0.4399  0.1921
 3752TIP3    H232816   1.743   0.482   0.468 -0.4601 -0.6218  0.8195
 3753TIP3   OH232817   0.896   1.341   0.844 -0.1470  0.5199  0.0431
 3753TIP3    H132818   0.868   1.252   0.822  0.9894 -0.1150  1.0092
 3753TIP3    H232819   0.990   1.334   0.858 -0.0436  1.8721  0.1870
 3754TIP3   OH232820   4.425   0.766   1.080  0.3041  0.0369 -0.3758
 3754TIP3    H132821   4.452   0.791   0.991  3.3762 -0.3229  0.3634
 3754TIP3    H232822   4.396   0.676   1.071  0.1865  0.1327 -1.0771
 3755TIP3   OH232823   2.378   0.168   5.860  0.2449  0.0596 -0.1403
 3755TIP3    H132824   2.397   0.139   5.771 -1.2423 -0.1751 -0.4083
 3755TIP3    H232825   2.424   0.105   5.916  0.9118  0.0078 -0.7245
 3756TIP3   OH232826   4.353   4.438   1.240 -0.1716 -0.1327 -0.0954
 3756TIP3    H132827   4.329   4.359   1.288  0.9693  0.8453  2.2988
 3756TIP3    H232828   4.448   4.432   1.230 -0.2591  0.2308 -1.2646
 3757TIP3   OH232829   6.766   5.558   7.040 -0.5437 -0.1052  0.1701
 3757TIP3    H132830   6.804   5.528   6.958  0.3329  1.2131  0.0581
 3757TIP3    H232831   6.690   5.610   7.014 -1.0509 -0.7850  0.2732
 3758TIP3   OH232832   2.449   3.515   7.306  0.0622  0.4179 -0.1370
 3758TIP3    H132833   2.378   3.528   7.243  0.9446 -0.5069 -1.3910
 3758TIP3    H232834   2.465   3.602   7.343  0.8675  1.4919 -2.7558
 3759TIP3   OH232835   1.988   3.622   8.309  0.3848  0.6559 -0.3815
 3759TIP3    H132836   2.024   3.544   8.266 -1.6830 -0.8103  0.3934
 3759TIP3    H232837   2.041   3.694   8.275  1.3239 -0.8658 -2.3812
 3760TIP3   OH232838   1.266   4.244   7.759 -0.3479  0.1523 -0.0162
 3760TIP3    H132839   1.341   4.194   7.724 -0.9803 -0.7707 -0.0828
 3760TIP3    H232840   1.204   4.248   7.686  0.4754  2.8008 -0.7025
 3761TIP3   OH232841   1.862   4.925   2.411 -0.0402  0.1700  0.3344
 3761TIP3    H132842   1.876   4.839   2.450  0.2706 -0.6318 -1.4278
 3761TIP3    H232843   1.949   4.964   2.408 -0.1587  0.4851  1.0014
 3762TIP3   OH232844   5.835   1.843   1.617 -0.1515  0.7874 -0.6369
 3762TIP3    H132845   5.898   1.848   1.545 -0.2667 -0.5401 -0.8446
 3762TIP3    H232846   5.829   1.750   1.637 -1.4287  0.9812 -0.0531
 3763TIP3   OH232847   3.754   1.277   0.626  0.3316 -0.1062  0.3048
 3763TIP3    H132848   3.839   1.310   0.656  0.2072  0.3403  0.1645
 3763TIP3    H232849   3.776   1.217   0.555  0.5027  0.3713 -0.0510
 3764TIP3   OH232850   1.056   1.928   6.240  0.8352  0.6689 -0.1951
 3764TIP3    H132851   1.019   1.845   6.209  0.7185  0.5323  0.2920
 3764TIP3    H232852   1.149   1.922   6.218  0.9161  0.2068  0.2303
 3765TIP3   OH232853   2.154   2.307   8.609  0.6078  0.0680 -0.5789
 3765TIP3    H132854   2.152   2.298   8.513 -0.4757 -0.0290 -0.5613
 3765TIP3    H232855   2.145   2.401   8.625 -2.7594 -0.1050 -0.5733
 3766TIP3   OH232856   0.427   1.586   0.932 -0.2002  0.0462 -0.1049
 3766TIP3    H132857   0.478   1.517   0.975  0.4087  0.5039 -0.0743
 3766TIP3    H232858   0.430   1.563   0.839 -0.9943 -0.6061  0.0227
 3767TIP3   OH232859   6.495   4.418   6.806 -0.5331 -0.1424 -0.4916
 3767TIP3    H132860   6.476   4.442   6.897 -0.1420 -2.0110  0.1129
 3767TIP3    H232861   6.437   4.474   6.755 -1.3205  0.4102  0.9295
 3768TIP3   OH232862   0.573   5.747   6.658 -0.4647 -0.1043 -0.1417
 3768TIP3    H132863   0.526   5.787   6.585 -1.7481  1.7182  1.5963
 3768TIP3    H232864   0.554   5.653   6.650 -1.2456  0.1566 -1.6634
 3769TIP3   OH232865   4.367   3.521   0.859 -0.2353  0.5947  0.4022
 3769TIP3    H132866   4.357   3.530   0.954  0.2526 -0.7971  0.6128
 3769TIP3    H232867   4.448   3.568   0.838 -0.4575  1.0868  0.6370
 3770TIP3   OH232868   2.065   1.722   7.936  0.5889  0.2900 -0.2623
 3770TIP3    H132869   2.015   1.673   7.871  1.7615 -0.7894 -0.3773
 3770TIP3    H232870   2.021   1.807   7.940 -1.3998 -0.6780 -0.1758
 3771TIP3   OH232871   0.239   6.026   1.155  0.6321  0.2702 -0.0478
 3771TIP3    H132872   0.253   5.985   1.241 -0.6466  1.5618  0.8225
 3771TIP3    H232873   0.145   6.023   1.142  0.7010  1.1808 -0.8620
 3772TIP3   OH232874   5.307   3.959   2.565  0.4336  0.2241  0.1208
 3772TIP3    H132875   5.282   4.026   2.629 -0.0779  0.5980 -0.4634
 3772TIP3    H232876   5.263   3.985   2.484 -0.5864 -1.3544  0.1270
 3773TIP3   OH232877   5.814   1.150   0.979  0.5007  0.1444  0.2443
 3773TIP3    H132878   5.858   1.088   0.922 -0.0056 -1.6090  1.6659
 3773TIP3    H232879   5.877   1.169   1.048  0.1915  0.1572  0.5294
 3774TIP3   OH232880   5.926   3.449   8.447 -0.5385 -0.1369 -0.1810
 3774TIP3    H132881   6.000   3.503   8.421 -0.9250  0.2535 -0.5002
 3774TIP3    H232882   5.935   3.440   8.542  1.2647 -2.1541 -0.4935
 3775TIP3   OH232883   0.766   6.358   1.720 -0.7889  0.3181 -0.6060
 3775TIP3    H132884   0.796   6.378   1.632  0.3523 -0.1656 -0.3386
 3775TIP3    H232885   0.845   6.349   1.772 -1.4183 -0.1145  0.3172
 3776TIP3   OH232886   0.046   0.156   8.469  0.3216 -0.1094 -0.0590
 3776TIP3    H132887   0.116   0.192   8.523  0.2641  1.3528 -0.9302
 3776TIP3    H232888   0.053   0.201   8.385 -0.5435 -1.2431 -0.7804
 3777TIP3   OH232889   2.212   0.661   7.685  0.0430  0.9369  0.3596
 3777TIP3    H132890   2.221   0.650   7.779 -0.0128  2.1691  0.5314
 3777TIP3    H232891   2.204   0.572   7.651 -0.8604  0.5157  1.6064
 3778TIP3   OH232892   1.662   5.180   7.631  0.6189 -0.1539 -0.8467
 3778TIP3    H132893   1.633   5.252   7.687  1.5215  0.5918 -1.3017
 3778TIP3    H232894   1.599   5.177   7.560  1.4921  1.3489 -1.7494
 3779TIP3   OH232895   1.419   4.979   1.132  0.1786 -0.3074  0.4187
 3779TIP3    H132896   1.464   4.949   1.212  2.2472  0.3923 -0.4004
 3779TIP3    H232897   1.450   5.069   1.121 -0.6129 -0.1739 -0.8249
 3780TIP3   OH232898   1.825   1.310   8.656 -0.6952 -0.6608 -0.0029
 3780TIP3    H132899   1.825   1.397   8.615 -1.2781 -0.3562  0.6156
 3780TIP3    H232900   1.860   1.252   8.590  0.9033  0.2483 -0.0026
 3781TIP3   OH232901   0.032   3.909   8.226  0.4845  0.0578  0.1505
 3781TIP3    H132902  -0.046   3.964   8.220  0.4016 -0.0356  0.4101
 3781TIP3    H232903   0.079   3.927   8.144 -0.9676 -1.6849 -1.1334
 3782TIP3   OH232904   0.900   0.221   6.490  0.0352  0.4497 -0.2186
 3782TIP3    H132905   0.825   0.266   6.530 -1.6336 -1.0675 -1.4630
 3782TIP3    H232906   0.866   0.189   6.407  1.7863 -1.2160 -0.3473
 3783TIP3   OH232907   1.997   0.159   0.218  0.8581  0.3726  0.0265
 3783TIP3    H132908   2.073   0.216   0.214  1.0186  0.2190  0.8186
 3783TIP3    H232909   1.966   0.166   0.308  0.5443 -0.3520 -0.0183
 3784TIP3   OH232910   0.626   4.541   8.465 -0.2204 -0.5624 -0.0732
 3784TIP3    H132911   0.705   4.584   8.497 -1.3048  0.4092  1.4161
 3784TIP3    H232912   0.641   4.448   8.481  0.6036 -0.3871  0.2179
 3785TIP3   OH232913   4.349   4.650   0.887 -0.2286 -0.6123  0.0155
 3785TIP3    H132914   4.360   4.744   0.897  0.0003 -0.5965 -0.3842
 3785TIP3    H232915   4.255   4.639   0.868 -0.5693 -0.5992  1.5550
 3786TIP3   OH232916   0.545   0.445   0.405 -0.1995 -0.6173 -0.4568
 3786TIP3    H132917   0.467   0.401   0.440 -0.1257  0.3497  0.9577
 3786TIP3    H232918   0.617   0.411   0.458 -0.2697  1.9629  1.4616
 3787TIP3   OH232919   6.590   6.693   2.383 -0.0406  0.3037  0.1998
 3787TIP3    H132920   6.541   6.723   2.307 -1.0908 -2.2000 -0.2180
 3787TIP3    H232921   6.665   6.752   2.388 -0.1240  0.7829 -2.5499
 3788TIP3   OH232922   2.771   6.108   8.644 -0.3053 -0.7610  0.3185
 3788TIP3    H132923   2.862   6.114   8.675 -0.2789  0.6446  0.0284
 3788TIP3    H232924   2.719   6.151   8.712 -0.5268  0.1164 -0.3907
 3789TIP3   OH232925   2.192   1.218   6.390 -0.0694  0.5451  0.1047
 3789TIP3    H132926   2.251   1.192   6.460  1.3586  0.2128 -1.1731
 3789TIP3    H232927   2.188   1.314   6.395  1.1766  0.6255 -0.2396
 3790TIP3   OH232928   0.236   6.732   1.360  0.1620 -0.0977 -0.3225
 3790TIP3    H132929   0.267   6.792   1.428 -1.4551 -0.1647  0.5129
 3790TIP3    H232930   0.252   6.645   1.395 -2.6606 -0.1664  1.0252
 3791TIP3   OH232931   1.083   1.093   1.315  0.4091 -0.0757 -0.3544
 3791TIP3    H132932   1.134   1.105   1.235 -1.0467  1.0297 -1.1777
 3791TIP3    H232933   1.130   1.144   1.381  0.0151  1.5474 -1.2755
 3792TIP3   OH232934   3.345   1.361   0.993  0.3289 -0.2366  0.1275
 3792TIP3    H132935   3.417   1.422   1.011 -0.5435  2.0094 -3.0372
 3792TIP3    H232936   3.371   1.317   0.912 -0.2235 -2.2707  1.0097
 3793TIP3   OH232937   4.563   2.499   8.286  0.4912  0.1678 -0.2733
 3793TIP3    H132938   4.485   2.551   8.268  0.7635  0.0553 -1.9619
 3793TIP3    H232939   4.636   2.557   8.265  0.8007 -0.7213 -1.9067
 3794TIP3   OH232940   1.515   6.332   8.441  0.5061 -0.1470  0.1908
 3794TIP3    H132941   1.544   6.419   8.416 -0.8002  0.0526 -0.7427
 3794TIP3    H232942   1.426   6.345   8.473 -0.0225 -1.2262 -0.7606
 3795TIP3   OH232943   3.759   6.614   1.966  0.1463 -0.6866 -0.0055
 3795TIP3    H132944   3.724   6.594   2.053  2.6649 -0.6008  1.1184
 3795TIP3    H232945   3.838   6.561   1.960  0.5351  0.0525 -1.8702
 3796TIP3   OH232946   1.534   2.440   8.493 -0.2188  0.9374 -0.6587
 3796TIP3    H132947   1.467   2.506   8.511  0.2065  1.4682 -0.9616
 3796TIP3    H232948   1.487   2.369   8.450 -1.3253 -0.5392  2.6880
 3797TIP3   OH232949   3.672   6.026   1.350  0.2651 -0.4555  0.4594
 3797TIP3    H132950   3.748   6.020   1.292 -0.3649  1.6468 -0.6889
 3797TIP3    H232951   3.604   6.066   1.296 -0.9053 -0.0192  2.1705
 3798TIP3   OH232952   3.950   2.643   7.348  0.2106 -0.0985 -0.2239
 3798TIP3    H132953   3.900   2.720   7.320 -1.3929 -0.8248  0.4871
 3798TIP3    H232954   3.890   2.570   7.334  0.7854 -0.9288  1.4315
 3799TIP3   OH232955   1.152   2.002   1.785  0.1009 -0.0458 -0.0040
 3799TIP3    H132956   1.129   1.960   1.702 -0.3070  1.3006 -0.5890
 3799TIP3    H232957   1.194   1.932   1.835 -0.8991 -1.2666 -0.7850
 3800TIP3   OH232958   6.371   0.369   1.901 -0.2962  0.2015  0.1298
 3800TIP3    H132959   6.420   0.315   1.839 -1.5681 -0.6912 -0.1201
 3800TIP3    H232960   6.406   0.344   1.987 -2.5441 -2.9636  0.2728
 3801TIP3   OH232961   0.669   0.811   0.818 -0.0450  0.3187 -0.4052
 3801TIP3    H132962   0.761   0.813   0.844 -0.1276  0.0905 -0.1003
 3801TIP3    H232963   0.645   0.719   0.821 -0.6085  0.4826  0.6681
 3802TIP3   OH232964   1.259   3.829   1.439  0.4682 -0.3285 -0.0360
 3802TIP3    H132965   1.251   3.872   1.524  0.7116 -1.7377  0.7332
 3802TIP3    H232966   1.266   3.736   1.460  0.8923 -0.6722 -1.5898
 3803TIP3   OH232967   0.227   5.870   7.164 -0.1027  0.1311 -0.4452
 3803TIP3    H132968   0.139   5.864   7.128  0.2990 -0.9249 -1.3178
 3803TIP3    H232969   0.245   5.964   7.168 -1.1939  0.3477 -0.4166
 3804TIP3   OH232970   3.511   3.587   8.844  0.3011  0.5810 -0.9828
 3804TIP3    H132971   3.551   3.630   8.769 -0.8122  1.3872 -1.1426
 3804TIP3    H232972   3.528   3.646   8.918  0.4071  0.3534 -0.8234
 3805TIP3   OH232973   5.616   2.637   7.034  0.5799 -0.1351 -0.2026
 3805TIP3    H132974   5.606   2.717   6.982 -0.7994 -0.3766 -0.3436
 3805TIP3    H232975   5.577   2.568   6.981 -0.9359 -0.3807  1.1373
 3806TIP3   OH232976   5.670   3.360   7.746 -0.2651  0.7901 -0.1499
 3806TIP3    H132977   5.581   3.327   7.735 -0.3946  1.2948 -0.6644
 3806TIP3    H232978   5.722   3.282   7.762 -0.8229  0.5018  0.3093
 3807TIP3   OH232979   4.743   2.899   8.713 -0.0106 -0.4771 -0.4212
 3807TIP3    H132980   4.654   2.872   8.738 -1.0456  1.7853 -1.2941
 3807TIP3    H232981   4.768   2.962   8.781  1.3710 -1.7985  0.3468
 3808TIP3   OH232982   4.201   0.613   7.668 -0.1011  0.3504 -0.0069
 3808TIP3    H132983   4.259   0.584   7.738 -0.4098  0.1196  0.1537
 3808TIP3    H232984   4.260   0.650   7.602  0.2168  0.2406  0.2144
 3809TIP3   OH232985   4.708   0.238   7.609 -0.1275 -0.1112  0.0948
 3809TIP3    H132986   4.647   0.188   7.556 -0.8649 -0.2532  1.0401
 3809TIP3    H232987   4.741   0.174   7.673  1.3309 -0.1355 -0.6541
 3810TIP3   OH232988   3.587   1.483   0.702 -0.3855  0.2142 -0.3904
 3810TIP3    H132989   3.636   1.565   0.699 -0.2029  0.1432  0.3963
 3810TIP3    H232990   3.652   1.415   0.686 -0.1152  0.0872  1.1422
 3811TIP3   OH232991   6.665   3.267   0.379 -0.0551 -0.2294  0.7746
 3811TIP3    H132992   6.626   3.180   0.372  0.3054 -0.3419  0.0155
 3811TIP3    H232993   6.606   3.316   0.436 -0.5687 -0.8014  0.7418
 3812TIP3   OH232994   4.844   0.882   1.481 -0.4078 -0.3720 -0.0787
 3812TIP3    H132995   4.828   0.976   1.467  0.5149 -0.1941  0.0016
 3812TIP3    H232996   4.932   0.867   1.447 -0.2881 -1.0769  0.5155
 3813TIP3   OH232997   1.920   0.235   6.930 -0.1016 -0.2355 -0.7185
 3813TIP3    H132998   1.994   0.261   6.985 -1.3620  2.6053 -0.1737
 3813TIP3    H232999   1.959   0.219   6.844  1.4160 -1.0908  0.0929
 3814TIP3   OH233000   4.903   3.943   1.057  0.1067 -0.2557 -0.4105
 3814TIP3    H133001   4.967   4.004   1.094  0.4413 -0.7588 -0.1435
 3814TIP3    H233002   4.954   3.864   1.038 -0.5113 -0.8217  0.2149
 3815TIP3   OH233003   6.429   1.727   7.522  0.2767  0.1902  0.3973
 3815TIP3    H133004   6.511   1.678   7.528  0.6062  0.8158  1.2283
 3815TIP3    H233005   6.400   1.738   7.612 -1.6599 -1.4974  0.0680
 3816TIP3   OH233006   5.206   1.483   7.568  0.1927 -0.7942 -0.2339
 3816TIP3    H133007   5.165   1.403   7.599 -0.3663 -0.0381  1.0287
 3816TIP3    H233008   5.284   1.492   7.623  0.1001 -0.3287 -0.1775
 3817TIP3   OH233009   0.419   5.091   6.358  0.5324 -0.2288  0.2369
 3817TIP3    H133010   0.513   5.107   6.363  0.3073  1.0258  0.7137
 3817TIP3    H233011   0.386   5.116   6.445 -0.4308  0.7280 -0.3910
 3818TIP3   OH233012   0.550   6.437   1.360  0.5130  0.0727 -0.7743
 3818TIP3    H133013   0.525   6.464   1.449  0.2869  1.3651 -1.2048
 3818TIP3    H233014   0.581   6.347   1.370 -0.6486 -0.2300  0.4202
 3819TIP3   OH233015   0.789   5.833   1.902 -0.0276  0.8639  0.0374
 3819TIP3    H133016   0.829   5.899   1.846  0.6156  0.9664  0.5925
 3819TIP3    H233017   0.833   5.844   1.987 -0.0941 -0.0911  0.2142
 3820TIP3   OH233018   5.464   6.239   8.788 -0.1561  0.3436  0.4922
 3820TIP3    H133019   5.469   6.327   8.824 -0.1846  0.1463  1.0013
 3820TIP3    H233020   5.539   6.232   8.729 -0.6836  1.0127 -0.2700
 3821TIP3   OH233021   1.157   4.613   8.159 -0.1114 -0.0830 -0.7544
 3821TIP3    H133022   1.067   4.613   8.126 -0.4842  1.5827  0.1779
 3821TIP3    H233023   1.211   4.599   8.081 -0.9861  2.9567 -2.0612
 3822TIP3   OH233024   5.067   6.017   8.324 -0.5368 -0.0728  0.3500
 3822TIP3    H133025   4.999   5.970   8.373 -1.3691  1.8262  1.1278
 3822TIP3    H233026   5.123   6.056   8.391  0.9402 -1.0166 -0.2802
 3823TIP3   OH233027   5.264   1.279   1.884  0.2874 -0.3445 -0.7982
 3823TIP3    H133028   5.232   1.367   1.865  0.5200 -0.0291  0.1893
 3823TIP3    H233029   5.355   1.292   1.913  0.4165 -0.9352 -0.9233
 3824TIP3   OH233030   0.674   0.229   7.290 -0.1239 -0.4100 -0.2989
 3824TIP3    H133031   0.711   0.272   7.213 -2.0058 -0.1589 -1.1064
 3824TIP3    H233032   0.739   0.244   7.359  0.8162  0.8181 -1.3965
 3825TIP3   OH233033   0.057   5.335   2.086  0.1522 -0.0803 -0.2666
 3825TIP3    H133034   0.146   5.367   2.100  0.3880  0.3414 -2.4333
 3825TIP3    H233035   0.058   5.299   1.997 -2.1114  0.9162 -0.7578
 3826TIP3   OH233036   5.452   4.861   7.953 -0.0961 -0.5710 -0.0608
 3826TIP3    H133037   5.370   4.814   7.939 -0.7234  0.0087  1.4039
 3826TIP3    H233038   5.508   4.799   7.999 -1.2876  0.2850  2.8163
 3827TIP3   OH233039   0.819   3.606   0.909 -0.1533 -0.3141 -0.4321
 3827TIP3    H133040   0.794   3.516   0.929 -1.0712 -0.7816 -3.1827
 3827TIP3    H233041   0.744   3.659   0.935 -2.2165 -1.1336 -3.9689
 3828TIP3   OH233042   2.218   4.847   6.930  0.1634  0.1912 -0.0979
 3828TIP3    H133043   2.141   4.834   6.875 -0.2103  0.3481  0.3809
 3828TIP3    H233044   2.209   4.936   6.964  0.8405  0.4057 -0.4743
 3829TIP3   OH233045   2.087   3.335   6.929  0.0182  0.1097  0.5859
 3829TIP3    H133046   2.118   3.277   6.998 -2.6764 -2.4128 -0.1210
 3829TIP3    H233047   2.075   3.278   6.853 -2.5356  1.5750 -0.2413
 3830TIP3   OH233048   4.824   1.240   0.750  0.0828  0.3169  0.4638
 3830TIP3    H133049   4.812   1.145   0.754 -0.7555  0.2964 -1.5430
 3830TIP3    H233050   4.864   1.262   0.834 -1.1240 -1.5854  1.6087
 3831TIP3   OH233051   4.313   0.319   0.578  0.3950  0.4793  0.4245
 3831TIP3    H133052   4.353   0.406   0.582  0.8744  0.4529 -2.3543
 3831TIP3    H233053   4.249   0.324   0.508  1.4310 -1.7669 -0.7943
 3832TIP3   OH233054   1.494   6.733   7.119 -0.3531 -0.1064  0.7156
 3832TIP3    H133055   1.448   6.800   7.067  0.1336 -0.1163  0.2627
 3832TIP3    H233056   1.541   6.680   7.054  0.9881  0.4206  1.2228
 3833TIP3   OH233057   4.289   0.652   2.572  0.3274 -0.2988  0.3270
 3833TIP3    H133058   4.260   0.577   2.625  1.2586  0.5837  2.1717
 3833TIP3    H233059   4.375   0.626   2.540 -0.3627 -0.9561 -1.0766
 3834TIP3   OH233060   3.978   4.558   0.058 -0.3015  0.1938 -0.0875
 3834TIP3    H133061   3.959   4.639   0.105 -0.5506 -1.1114  2.1640
 3834TIP3    H233062   3.892   4.519   0.041 -0.1560  0.1142 -0.6844
 3835TIP3   OH233063   4.000   5.729   8.701 -0.1747 -0.1947  0.0658
 3835TIP3    H133064   3.910   5.737   8.733  0.8722  0.6071  3.1859
 3835TIP3    H233065   4.007   5.638   8.671 -1.9265 -0.3532  0.0209
 3836TIP3   OH233066   4.491   3.412   7.397  0.0562 -0.4416  0.2064
 3836TIP3    H133067   4.416   3.400   7.456  1.5769 -0.7502  2.2080
 3836TIP3    H233068   4.462   3.378   7.313 -1.2743 -2.8166  1.5356
 3837TIP3   OH233069   6.549   4.837   0.504  0.1511  0.2324 -0.2821
 3837TIP3    H133070   6.608   4.797   0.440  0.7509  1.4322 -0.5137
 3837TIP3    H233071   6.551   4.931   0.482 -0.0736  0.5863  1.1448
 3838TIP3   OH233072   0.617   2.275   7.881  0.0676 -0.0196 -0.5133
 3838TIP3    H133073   0.560   2.340   7.921 -0.0918  0.0911 -0.9116
 3838TIP3    H233074   0.701   2.319   7.870  0.8911 -0.8233  1.9933
 3839TIP3   OH233075   1.543   5.712   0.336 -0.2592 -0.4497 -0.7801
 3839TIP3    H133076   1.530   5.655   0.260  0.3362 -1.4406 -0.1640
 3839TIP3    H233077   1.631   5.690   0.368  0.4856  1.6848 -1.2230
 3840TIP3   OH233078   3.975   2.411   1.957 -0.2424  0.3365 -1.0168
 3840TIP3    H133079   3.958   2.449   2.043 -1.0086 -1.3465 -0.3785
 3840TIP3    H233080   3.888   2.402   1.918 -0.0079 -0.0904 -1.4409
 3841TIP3   OH233081   0.314   4.419   0.294 -0.2499  0.3023  0.0519
 3841TIP3    H133082   0.395   4.377   0.263 -0.8928 -0.4480 -0.6804
 3841TIP3    H233083   0.250   4.348   0.295 -0.7917  0.7795  1.0952
 3842TIP3   OH233084   5.657   6.064   0.165 -0.0018  0.5379  0.2431
 3842TIP3    H133085   5.745   6.088   0.136 -0.5558  0.7687 -1.3542
 3842TIP3    H233086   5.636   5.985   0.115 -1.1188  1.1375 -0.2800
 3843TIP3   OH233087   0.846   2.588   0.876  0.0269 -0.1474 -0.4414
 3843TIP3    H133088   0.843   2.683   0.868 -1.1636 -0.0759  0.5641
 3843TIP3    H233089   0.904   2.572   0.950 -0.6040 -0.1523  0.0553
 3844TIP3   OH233090   4.719   5.959   0.153 -0.1258 -0.0192 -0.4540
 3844TIP3    H133091   4.696   6.042   0.111 -1.7474  0.8380  1.8768
 3844TIP3    H233092   4.671   5.892   0.103 -1.1903  0.8230 -0.5956
 3845TIP3   OH233093   4.979   5.345   1.078 -0.0239 -0.1698  0.5909
 3845TIP3    H133094   5.024   5.272   1.035 -2.9905 -1.2807 -0.9397
 3845TIP3    H233095   5.002   5.421   1.025 -0.6729 -0.8982 -0.8214
 3846TIP3   OH233096   2.420   5.969   0.474  0.4032  0.3274 -0.1118
 3846TIP3    H133097   2.501   5.922   0.456  1.9147  2.2824  1.2908
 3846TIP3    H233098   2.385   5.927   0.553  0.6686  0.2702 -0.0257
 3847TIP3   OH233099   6.186   5.100   2.059  0.2242 -0.1121 -0.8524
 3847TIP3    H133100   6.123   5.120   2.129  1.9730 -1.3241  1.2185
 3847TIP3    H233101   6.237   5.180   2.049  0.2378 -0.0656 -0.4319
 3848TIP3   OH233102   3.114   3.255   1.994  0.0851 -1.0422  0.3314
 3848TIP3    H133103   3.149   3.280   1.908  1.6364 -0.0557  1.2056
 3848TIP3    H233104   3.019   3.265   1.985  0.2853 -0.0680 -1.0107
 3849TIP3   OH233105   6.534   1.101   0.150  0.0154  0.0105  0.0221
 3849TIP3    H133106   6.448   1.062   0.165 -0.7269  0.7955 -1.9016
 3849TIP3    H233107   6.525   1.192   0.179 -0.6449  0.8039 -2.3869
 3850TIP3   OH233108   4.909   2.450   7.907  0.6029 -0.3332  0.4061
 3850TIP3    H133109   4.827   2.434   7.953 -0.4771 -1.8863 -1.8872
 3850TIP3    H233110   4.903   2.541   7.878  0.3345 -0.0230  1.4054
 3851TIP3   OH233111   0.598   0.130   8.404  0.3297 -0.1237 -0.2140
 3851TIP3    H133112   0.534   0.200   8.421  0.9805  0.7692 -1.2992
 3851TIP3    H233113   0.682   0.175   8.405  0.9200 -1.2112  0.7416
 3852TIP3   OH233114   3.044   1.965   0.480  0.3128  0.1017 -0.3489
 3852TIP3    H133115   2.985   1.921   0.541  0.3261  1.3558  0.6221
 3852TIP3    H233116   2.996   1.969   0.398  0.5600 -2.2464 -0.6886
 3853TIP3   OH233117   2.019   2.541   7.919 -0.3933  0.1072  0.3185
 3853TIP3    H133118   2.108   2.575   7.920 -0.4815  0.3503  0.1376
 3853TIP3    H233119   2.006   2.510   7.830  0.9978 -3.9762  1.3480
 3854TIP3   OH233120   2.869   1.958   1.726 -0.3240  0.7613 -0.2353
 3854TIP3    H133121   2.912   1.926   1.805  0.1890  0.9042 -0.4588
 3854TIP3    H233122   2.888   1.892   1.660 -0.8633  0.5748 -0.2141
 3855TIP3   OH233123   5.990   6.647   0.731 -0.3051  0.0076  0.1299
 3855TIP3    H133124   5.903   6.670   0.700  0.2937 -0.2005 -1.8268
 3855TIP3    H233125   6.017   6.722   0.783 -0.2036  1.8270 -2.3654
 3856TIP3   OH233126   4.341   4.927   0.901  0.2856 -0.0293  0.4742
 3856TIP3    H133127   4.285   5.004   0.902 -1.1215 -1.0076  1.9650
 3856TIP3    H233128   4.405   4.942   0.971  0.7504  0.2769 -0.0083
 3857TIP3   OH233129   6.329   4.249   7.619  0.2687 -0.3779  0.2707
 3857TIP3    H133130   6.372   4.263   7.704  1.4092  0.7997 -0.4721
 3857TIP3    H233131   6.248   4.203   7.641  0.0473  0.7823  2.1264
 3858TIP3   OH233132   2.602   4.876   8.287 -0.3985  0.0923 -0.3996
 3858TIP3    H133133   2.537   4.842   8.226 -0.5911 -0.0733 -0.1065
 3858TIP3    H233134   2.650   4.942   8.238 -0.2711 -0.3365 -0.8618
 3859TIP3   OH233135   0.273   2.852   6.912  0.3503  0.4496 -0.3865
 3859TIP3    H133136   0.364   2.844   6.883  0.6699  0.6066  0.5317
 3859TIP3    H233137   0.230   2.902   6.843  1.1214  0.9601 -0.5040
 3860TIP3   OH233138   2.869   4.468   2.343 -0.8279  0.0848 -0.0286
 3860TIP3    H133139   2.949   4.493   2.390  0.1105 -0.8744 -1.0618
 3860TIP3    H233140   2.899   4.409   2.274 -2.3999 -0.0301 -0.6557
 3861TIP3   OH233141   0.449   5.507   6.553  0.1773 -0.6302  0.1917
 3861TIP3    H133142   0.373   5.452   6.568  0.3291 -0.7834  0.3968
 3861TIP3    H233143   0.443   5.531   6.461  0.2920 -1.2573  0.0213
 3862TIP3   OH233144   0.637   5.072   8.745  0.3890 -0.2055 -0.0494
 3862TIP3    H133145   0.622   5.030   8.661  2.5743 -0.6447 -0.2901
 3862TIP3    H233146   0.696   5.145   8.725 -1.3474  1.4837  0.7211
 3863TIP3   OH233147   5.756   3.435   1.137  0.0681  0.1184  0.1211
 3863TIP3    H133148   5.666   3.407   1.154 -1.3518  3.9941 -0.1147
 3863TIP3    H233149   5.775   3.401   1.049 -0.5302 -1.9942  0.7572
 3864TIP3   OH233150   5.427   2.162   1.835 -0.0849 -0.3176 -0.3848
 3864TIP3    H133151   5.488   2.136   1.905 -0.8704 -1.2873 -0.0336
 3864TIP3    H233152   5.478   2.219   1.778  0.7660 -0.0412  0.6247
 3865TIP3   OH233153   3.833   0.125   0.997  0.6158  0.2462  0.0488
 3865TIP3    H133154   3.782   0.130   0.916 -2.4701 -2.0490  1.6245
 3865TIP3    H233155   3.890   0.049   0.985  2.1040  1.4621 -0.8684
 3866TIP3   OH233156   5.086   5.040   6.985 -0.1386 -0.1757  0.3214
 3866TIP3    H133157   5.072   5.134   6.975 -0.3448 -0.0732  1.3955
 3866TIP3    H233158   5.025   5.000   6.924  0.2518  0.3853 -0.4572
 3867TIP3   OH233159   6.513   5.544   6.749 -1.0271 -0.0405 -0.5365
 3867TIP3    H133160   6.595   5.537   6.799 -0.6221  0.1285 -1.1681
 3867TIP3    H233161   6.492   5.638   6.752 -1.1902 -0.0803 -0.3939
 3868TIP3   OH233162   2.947   3.659   0.419  0.1992  0.9295 -0.5464
 3868TIP3    H133163   2.922   3.653   0.327  0.1698 -0.1034 -0.4813
 3868TIP3    H233164   2.942   3.753   0.439 -0.4271  1.0954 -1.4169
 3869TIP3   OH233165   3.381   1.084   2.456  0.5641 -0.0859 -0.3376
 3869TIP3    H133166   3.295   1.050   2.434  0.4119  0.2897 -0.3142
 3869TIP3    H233167   3.378   1.099   2.550  0.8993 -0.7718 -0.2084
 3870TIP3   OH233168   0.618   5.288   7.532  0.5629 -0.2221 -0.2862
 3870TIP3    H133169   0.659   5.225   7.473 -3.0569 -2.2775 -0.9416
 3870TIP3    H233170   0.601   5.237   7.612 -0.2876  0.6357  0.0904
 3871TIP3   OH233171   5.384   1.997   8.060 -0.6817 -0.7337  0.3569
 3871TIP3    H133172   5.425   1.945   8.129 -0.7383 -0.6076  0.4872
 3871TIP3    H233173   5.375   1.936   7.986  1.4488 -0.3032 -0.3416
 3872TIP3   OH233174   2.003   2.369   1.891 -0.0210 -0.3144 -0.1270
 3872TIP3    H133175   2.021   2.361   1.985 -1.8310 -0.6854  0.2411
 3872TIP3    H233176   2.015   2.462   1.872 -0.0790 -0.1521  0.5870
 3873TIP3   OH233177   1.799   1.883   2.200 -0.4432  1.1375 -0.1200
 3873TIP3    H133178   1.762   1.880   2.112 -1.2135 -0.6809  0.2301
 3873TIP3    H233179   1.726   1.860   2.258  1.0198 -2.2272  0.6273
 3874TIP3   OH233180   1.673   1.056   1.685 -0.4814 -0.2640  0.8261
 3874TIP3    H133181   1.626   1.063   1.769  0.0819 -0.7515  1.1912
 3874TIP3    H233182   1.690   1.147   1.660  1.1972 -0.0987  2.3197
 3875TIP3   OH233183   2.638   4.016   7.396 -0.0629 -0.0802  0.7053
 3875TIP3    H133184   2.732   4.025   7.414  0.9548 -2.9827 -2.1580
 3875TIP3    H233185   2.611   4.104   7.368  1.3227  1.2024  3.0503
 3876TIP3   OH233186   0.007   6.347   0.269  0.2695 -0.1978 -0.4839
 3876TIP3    H133187  -0.020   6.438   0.253 -0.6310 -0.3035  0.3308
 3876TIP3    H233188   0.037   6.315   0.184 -0.2707  0.5734 -0.9794
 3877TIP3   OH233189   6.528   4.409   1.121  0.2520  0.7278 -0.1539
 3877TIP3    H133190   6.596   4.447   1.065  1.2054  0.5854  0.8898
 3877TIP3    H233191   6.505   4.326   1.078  2.7601 -0.6203  0.9196
 3878TIP3   OH233192   0.313   2.286   6.565  0.0507 -0.2525  0.4780
 3878TIP3    H133193   0.274   2.333   6.491  0.2516  0.9455  1.1153
 3878TIP3    H233194   0.404   2.313   6.566  0.1213 -0.4980  0.9822
 3879TIP3   OH233195   2.940   4.196   8.689 -0.1160  0.4702 -0.2092
 3879TIP3    H133196   2.911   4.264   8.628  0.2686  0.8240 -0.0058
 3879TIP3    H233197   3.015   4.235   8.734  2.0955 -1.1646 -2.2225
 3880TIP3   OH233198   3.837   3.208   8.126 -0.2756 -0.2531 -0.3809
 3880TIP3    H133199   3.881   3.195   8.042  0.9403  0.1360  0.1807
 3880TIP3    H233200   3.907   3.221   8.189 -1.0768 -2.3420  1.0677
 3881TIP3   OH233201   4.718   5.745   0.648 -0.1501  0.3257  0.1700
 3881TIP3    H133202   4.659   5.786   0.711  0.9987  1.5768  0.4946
 3881TIP3    H233203   4.670   5.668   0.616 -0.8326 -0.2807  2.4449
 3882TIP3   OH233204   5.144   4.403   8.792 -1.3483  0.4463 -0.7080
 3882TIP3    H133205   5.162   4.443   8.877  2.5978 -2.4416  0.1216
 3882TIP3    H233206   5.083   4.332   8.811 -0.8316  0.0943 -0.3228
 3883TIP3   OH233207   4.024   5.008   0.262 -0.9671  0.3107 -0.8677
 3883TIP3    H133208   4.079   4.960   0.324  1.6538  2.9882 -0.8764
 3883TIP3    H233209   4.042   4.967   0.177 -1.2858 -0.6892 -0.4633
 3884TIP3   OH233210   3.733   3.789   7.754 -0.1884 -0.7104  0.2243
 3884TIP3    H133211   3.672   3.717   7.767  1.5366 -2.3143 -0.2258
 3884TIP3    H233212   3.763   3.780   7.664  2.6416 -1.5951  1.1474
 3885TIP3   OH233213   1.701   1.338   1.609  0.2894  0.2501  0.1615
 3885TIP3    H133214   1.632   1.401   1.586  0.6090  0.2090 -1.0095
 3885TIP3    H233215   1.723   1.296   1.525  1.4586 -0.0143  0.5873
 3886TIP3   OH233216   2.897   0.817   1.168  0.1743 -0.2441  0.0476
 3886TIP3    H133217   2.854   0.733   1.152 -1.6228  0.6047  0.1817
 3886TIP3    H233218   2.951   0.802   1.245 -2.1614 -0.6367  1.7121
 3887TIP3   OH233219   0.287   1.087   7.639 -0.6899  0.1287  0.5877
 3887TIP3    H133220   0.330   1.163   7.600 -1.2234  1.0930  1.7903
 3887TIP3    H233221   0.314   1.013   7.585 -0.7813  1.2763 -1.0902
 3888TIP3   OH233222   0.365   0.020   8.812 -0.2519  0.2478 -0.4782
 3888TIP3    H133223   0.311  -0.024   8.877 -0.6973  1.0254 -0.3118
 3888TIP3    H233224   0.349   0.113   8.826 -1.0335  0.4167 -2.2737
 3889TIP3   OH233225   0.845   5.673   1.062  0.4717 -0.3551  0.1887
 3889TIP3    H133226   0.786   5.598   1.053  0.6745 -0.3917 -0.9444
 3889TIP3    H233227   0.787   5.749   1.057  0.4234 -0.4106 -0.1449
 3890TIP3   OH233228   5.655   3.440   1.799  0.0601  0.1726 -0.0352
 3890TIP3    H133229   5.693   3.430   1.886 -1.2073 -1.0165  0.4172
 3890TIP3    H233230   5.606   3.522   1.803 -0.0908  0.0621  0.4105
 3891TIP3   OH233231   1.871   1.435   8.010  0.2376 -0.2091 -0.6540
 3891TIP3    H133232   1.921   1.494   8.065 -0.8613 -0.8144  1.0786
 3891TIP3    H233233   1.889   1.463   7.920  0.0736  2.4658  0.0819
 3892TIP3   OH233234   5.136   1.451   1.248 -0.4666  0.7795  0.3946
 3892TIP3    H133235   5.085   1.397   1.188  1.2529  1.1197 -1.4722
 3892TIP3    H233236   5.079   1.464   1.324 -1.9584 -1.3331 -0.2882
 3893TIP3   OH233237   4.983   3.627   0.496 -0.0267 -0.2869 -0.1678
 3893TIP3    H133238   5.065   3.608   0.451  1.2617  0.9811  1.5324
 3893TIP3    H233239   4.940   3.693   0.442  0.2162 -0.7091 -0.8850
 3894TIP3   OH233240   4.430   2.582   0.532 -0.6558  0.6016  0.2703
 3894TIP3    H133241   4.507   2.535   0.564 -1.0333  0.2204  0.6514
 3894TIP3    H233242   4.385   2.518   0.476 -1.0653  0.5726  0.6257
 3895TIP3   OH233243   5.868   6.414   1.835 -0.3236 -0.1519  0.2025
 3895TIP3    H133244   5.940   6.367   1.878  0.8501  0.3769 -1.0948
 3895TIP3    H233245   5.866   6.499   1.879 -2.5129 -1.3249  2.6180
 3896TIP3   OH233246   0.755   2.197   2.424  0.3855 -0.4658  0.0860
 3896TIP3    H133247   0.760   2.221   2.332 -1.0325 -0.0908  0.0773
 3896TIP3    H233248   0.696   2.262   2.463  0.6909 -0.8144  1.1821
 3897TIP3   OH233249   6.325   1.227   1.163  0.1732 -0.3971  0.0945
 3897TIP3    H133250   6.385   1.289   1.122  0.4751 -0.5655  0.2834
 3897TIP3    H233251   6.381   1.163   1.207 -0.1424 -0.1625  0.8577
 3898TIP3   OH233252   4.650   4.408   7.538 -0.0045 -0.7950  0.1996
 3898TIP3    H133253   4.603   4.324   7.543 -0.6063 -0.4969 -0.2993
 3898TIP3    H233254   4.720   4.393   7.474  0.6523 -1.2681  1.0121
 3899TIP3   OH233255   6.757   4.828   8.533 -0.0686 -0.5049  0.4988
 3899TIP3    H133256   6.802   4.748   8.558  1.3710  0.2053  0.3080
 3899TIP3    H233257   6.693   4.800   8.467 -0.8915 -1.7379  1.7631
 3900TIP3   OH233258   2.404   3.313   6.952 -0.5526  0.3317 -0.0164
 3900TIP3    H133259   2.335   3.280   7.009  0.3252 -0.8514  0.4181
 3900TIP3    H233260   2.485   3.293   6.999  0.1829 -0.3453 -1.4975
 3901TIP3   OH233261   5.048   1.087   0.190  0.0125 -0.1516 -0.2034
 3901TIP3    H133262   4.988   1.051   0.255 -0.4069 -2.3034 -1.6764
 3901TIP3    H233263   5.113   1.018   0.176  1.7927  1.3870 -0.0342
 3902TIP3   OH233264   2.828   6.160   0.943 -0.1705  0.6446 -0.0717
 3902TIP3    H133265   2.753   6.120   0.900 -0.3420  0.7470  0.1276
 3902TIP3    H233266   2.904   6.129   0.894  0.0088 -2.4350  1.8892
 3903TIP3   OH233267   1.340   1.257   2.057 -0.1288  0.4471 -0.4697
 3903TIP3    H133268   1.379   1.316   2.122  0.6954 -0.5182 -0.0484
 3903TIP3    H233269   1.412   1.200   2.032 -0.5519  0.5326 -1.9345
 3904TIP3   OH233270   3.231   1.708   0.061 -0.1799  0.6090  0.2516
 3904TIP3    H133271   3.214   1.644   0.131  1.8087 -1.3844 -0.9462
 3904TIP3    H233272   3.241   1.791   0.106 -0.0533 -0.4282  2.2475
 3905TIP3   OH233273   3.691   5.166   0.746  0.1949 -0.2015 -0.3713
 3905TIP3    H133274   3.637   5.087   0.748 -0.3890  0.1993 -0.0056
 3905TIP3    H233275   3.781   5.134   0.748 -0.0354 -0.8426  0.7012
 3906TIP3   OH233276   5.642   0.502   1.008  0.3522  0.0692  0.1063
 3906TIP3    H133277   5.700   0.567   1.049  1.5231 -0.5962 -0.4470
 3906TIP3    H233278   5.702   0.439   0.967 -0.7740 -0.5421 -0.6414
 3907TIP3   OH233279   2.536   3.489   0.209 -0.5243 -0.3475  0.1561
 3907TIP3    H133280   2.478   3.562   0.190 -0.3456 -0.4712 -0.9585
 3907TIP3    H233281   2.594   3.521   0.278 -0.3880  0.5920 -0.3822
 3908TIP3   OH233282   4.598   4.589   1.466 -0.3925 -0.5114 -0.5294
 3908TIP3    H133283   4.619   4.574   1.374  0.6676  1.0180 -0.5715
 3908TIP3    H233284   4.681   4.614   1.506 -0.8307 -1.1565  0.8695
 3909TIP3   OH233285   2.627   6.426   0.602 -0.1545 -0.9267 -0.2416
 3909TIP3    H133286   2.553   6.477   0.634 -0.7074 -0.8924 -1.4897
 3909TIP3    H233287   2.589   6.340   0.581  0.5093 -1.4595  0.6606
 3910TIP3   OH233288   1.613   0.644   2.130  0.3020  0.0819  0.1657
 3910TIP3    H133289   1.579   0.728   2.098  2.1267  0.1770 -1.6688
 3910TIP3    H233290   1.536   0.588   2.136 -1.0521  1.9784  1.9202
 3911TIP3   OH233291   0.512   2.459   7.399 -0.5437  0.2270 -0.3136
 3911TIP3    H133292   0.598   2.446   7.439 -0.1838  1.4482 -0.6419
 3911TIP3    H233293   0.515   2.407   7.318 -0.6084 -0.7790  0.3150
 3912TIP3   OH233294   5.382   2.109   0.998 -0.2247  0.0205 -0.3194
 3912TIP3    H133295   5.294   2.104   0.960 -0.7340 -0.1429  0.8428
 3912TIP3    H233296   5.368   2.125   1.091  1.0327  2.3698 -0.4597
 3913TIP3   OH233297   2.912   2.864   0.207 -0.3406 -0.6939 -0.4096
 3913TIP3    H133298   2.894   2.882   0.115  2.3739 -1.1369 -1.1133
 3913TIP3    H233299   2.916   2.769   0.213 -0.3073 -0.6643  0.1393
 3914TIP3   OH233300   3.612   2.155   8.030  0.2702  0.6315 -0.4004
 3914TIP3    H133301   3.643   2.243   8.011 -0.4459  0.8872 -0.4050
 3914TIP3    H233302   3.617   2.147   8.125 -0.4531  0.9862 -0.3231
 3915TIP3   OH233303   4.024   5.689   1.987  0.1146  0.3312  0.7913
 3915TIP3    H133304   4.093   5.717   2.046  0.5057 -0.7670  0.8838
 3915TIP3    H233305   4.069   5.635   1.921 -0.3425  1.3383 -0.3849
 3916TIP3   OH233306   3.963   2.120   8.026  0.6043 -0.4522  0.0743
 3916TIP3    H133307   3.897   2.138   8.093  2.0610  1.1022  1.1828
 3916TIP3    H233308   3.920   2.143   7.943  0.2531  2.3104  0.9032
 3917TIP3   OH233309   1.682   4.011   0.384 -0.3604 -0.0946  0.2841
 3917TIP3    H133310   1.678   3.956   0.462  0.4457  1.2582  1.3378
 3917TIP3    H233311   1.644   4.095   0.412  0.5718  0.6348 -0.5624
 3918TIP3   OH233312   2.991   1.480   7.907 -0.1050  0.4773 -0.1948
 3918TIP3    H133313   2.984   1.519   7.994  0.7909 -1.2058  0.6827
 3918TIP3    H233314   2.961   1.390   7.918  0.8435 -0.0306 -1.4349
 3919TIP3   OH233315   2.150   6.480   8.595  0.7994  0.3806  0.7597
 3919TIP3    H133316   2.167   6.475   8.501  1.4553 -0.4260  0.9111
 3919TIP3    H233317   2.060   6.450   8.605  1.1730 -0.8642  0.5233
 3920TIP3   OH233318   2.292   1.024   1.698 -0.4149 -0.3612  0.0560
 3920TIP3    H133319   2.261   0.935   1.714  2.7407 -1.3316  1.7203
 3920TIP3    H233320   2.362   1.014   1.634 -0.9448  1.1622 -0.8233
 3921TIP3   OH233321   5.600   0.717   8.716 -0.3394 -0.2268 -0.0563
 3921TIP3    H133322   5.525   0.662   8.693 -2.1314  2.2607 -0.4822
 3921TIP3    H233323   5.613   0.774   8.640  1.5130 -0.0501  0.3306
 3922TIP3   OH233324   1.181   5.342   0.181  0.0700 -0.5001 -0.0130
 3922TIP3    H133325   1.147   5.303   0.262 -2.0558  0.6658 -0.2738
 3922TIP3    H233326   1.181   5.436   0.198 -0.0902 -0.2597 -1.2462
 3923TIP3   OH233327   0.602   3.401   8.467 -0.0271  0.1167  0.3615
 3923TIP3    H133328   0.519   3.375   8.508 -0.5517 -1.8652 -1.7411
 3923TIP3    H233329   0.577   3.430   8.379  1.5097 -0.4629 -0.3010
 3924TIP3   OH233330   3.762   6.180   7.275  0.0334 -0.4029  0.3937
 3924TIP3    H133331   3.780   6.110   7.212  1.0005  0.5464 -0.4260
 3924TIP3    H233332   3.847   6.201   7.313 -0.1482  0.6479  0.2631
 3925TIP3   OH233333   6.024   1.066   6.740 -0.4860  0.2541 -0.1579
 3925TIP3    H133334   6.090   1.080   6.808  0.7952  2.0760 -1.6592
 3925TIP3    H233335   6.049   1.127   6.671 -0.4193 -2.9580 -3.2438
 3926TIP3   OH233336   0.386   0.767   8.811  0.4573 -0.0636 -0.2584
 3926TIP3    H133337   0.322   0.786   8.742 -2.3511 -0.7814  1.9415
 3926TIP3    H233338   0.450   0.709   8.769 -0.5577  0.3038 -2.4799
 3927TIP3   OH233339   0.675   5.113   2.281  0.2412 -0.6184 -0.1527
 3927TIP3    H133340   0.692   5.140   2.191  1.1024 -2.1615 -0.4915
 3927TIP3    H233341   0.763   5.098   2.317 -0.1196 -0.4897  0.7951
 3928TIP3   OH233342   4.704   2.388   1.950  0.0657 -0.2749 -0.1707
 3928TIP3    H133343   4.673   2.470   1.988 -1.1443 -1.0948  0.6857
 3928TIP3    H233344   4.625   2.349   1.912  0.1193 -2.1509  1.5365
 3929TIP3   OH233345   5.608   6.519   1.291  0.5523 -0.5459 -0.5608
 3929TIP3    H133346   5.578   6.610   1.295  0.3153 -0.6551  0.4169
 3929TIP3    H233347   5.544   6.470   1.342  2.2665 -0.8018  1.5035
 3930TIP3   OH233348   6.229   4.739   6.714 -0.7040 -0.6466  0.2171
 3930TIP3    H133349   6.191   4.742   6.802  0.0123 -0.9585  0.5499
 3930TIP3    H233350   6.251   4.647   6.700  2.6727 -0.1670  1.2958
 3931TIP3   OH233351   6.690   6.353   0.944  0.3950 -0.3226 -0.1417
 3931TIP3    H133352   6.632   6.424   0.918  0.9097  0.9170  1.8390
 3931TIP3    H233353   6.634   6.275   0.946 -0.6167  0.3759 -0.6085
 3932TIP3   OH233354   6.055   5.720   0.877  0.1764  1.4161  0.4139
 3932TIP3    H133355   6.012   5.641   0.910 -0.6808  1.2716 -0.9962
 3932TIP3    H233356   6.148   5.697   0.875  0.0743  0.8765  1.1469
 3933TIP3   OH233357   1.686   1.563   2.224 -0.3577 -0.0724  0.7026
 3933TIP3    H133358   1.769   1.591   2.186  0.5909 -1.5214  1.6197
 3933TIP3    H233359   1.710   1.502   2.293 -2.2156 -1.4227  0.2567
 3934TIP3   OH233360   6.764   0.693   6.424  0.0045 -0.3743 -0.4241
 3934TIP3    H133361   6.823   0.627   6.388 -0.0696 -0.1398 -0.9858
 3934TIP3    H233362   6.677   0.652   6.420 -0.2274  0.1948 -1.9312
 3935TIP3   OH233363   0.573   2.130   7.097 -0.3408  0.1705  0.5644
 3935TIP3    H133364   0.546   2.141   7.006  0.0578 -3.7212 -0.1839
 3935TIP3    H233365   0.491   2.137   7.147 -1.3482 -1.9263 -0.6381
 3936TIP3   OH233366   1.841   4.657   1.436 -0.2852 -0.0535 -0.5459
 3936TIP3    H133367   1.882   4.744   1.436  0.0010 -0.1816  0.0230
 3936TIP3    H233368   1.759   4.669   1.484 -0.8667  0.1762 -1.5805
 3937TIP3   OH233369   1.946   0.297   1.445  0.1101  0.6298 -0.8084
 3937TIP3    H133370   1.955   0.214   1.397 -0.6695  0.3196 -0.4420
 3937TIP3    H233371   1.991   0.282   1.528  0.2146  0.6691 -0.8583
 3938TIP3   OH233372   4.100   2.875   8.095 -0.0574 -0.3673  0.1133
 3938TIP3    H133373   4.054   2.882   8.011  0.9296 -2.5745 -0.6894
 3938TIP3    H233374   4.040   2.825   8.150  0.5078 -1.5233 -0.2897
 3939TIP3   OH233375   0.724   5.174   7.975  0.2212 -0.3330  0.3320
 3939TIP3    H133376   0.760   5.244   8.030 -0.0323 -0.5755  0.8057
 3939TIP3    H233377   0.778   5.097   7.995 -0.6053 -0.7204  1.1082
 3940TIP3   OH233378   4.385   2.211   7.152  0.3456 -0.2293  0.4185
 3940TIP3    H133379   4.440   2.150   7.200  0.6038  0.0388  0.4648
 3940TIP3    H233380   4.365   2.167   7.069  0.6278 -0.3268  0.4030
 3941TIP3   OH233381   3.676   2.070   8.490  0.2817 -0.1024 -0.2693
 3941TIP3    H133382   3.617   2.145   8.479  0.0857 -0.2929 -0.5150
 3941TIP3    H233383   3.618   1.998   8.517  0.5630  0.0139  0.6861
 3942TIP3   OH233384   4.045   4.118   0.547 -0.0422 -0.1242 -0.3959
 3942TIP3    H133385   4.026   4.210   0.568  0.5611 -0.2943  1.0167
 3942TIP3    H233386   4.118   4.095   0.606 -0.6266 -1.7032 -0.2503
 3943TIP3   OH233387   5.222   6.723   6.570  0.2562  0.2892 -0.0499
 3943TIP3    H133388   5.175   6.738   6.488  1.6059 -0.1937 -0.9362
 3943TIP3    H233389   5.291   6.790   6.570  0.4840  0.0570  0.5209
 3944TIP3   OH233390   5.095   5.905   0.102 -0.1801  0.1771  0.1462
 3944TIP3    H133391   5.181   5.923   0.063  0.2895 -0.0927  1.0292
 3944TIP3    H233392   5.045   5.985   0.088  0.0577  0.1778 -0.7744
 3945TIP3   OH233393   3.061   5.242   8.502 -0.0558 -0.5077 -0.4347
 3945TIP3    H133394   3.035   5.158   8.540 -0.0766  0.0337  0.7945
 3945TIP3    H233395   3.012   5.308   8.553  0.8155  0.3078 -0.6136
 3946TIP3   OH233396   3.029   4.886   1.641  0.1756  0.8168 -0.0871
 3946TIP3    H133397   3.008   4.876   1.734  1.7745  1.9177  0.4409
 3946TIP3    H233398   2.947   4.916   1.601 -0.2277  1.5533  1.2187
 3947TIP3   OH233399   3.035   2.107   0.788 -0.3829  0.7027 -0.2764
 3947TIP3    H133400   2.951   2.078   0.754  0.8875 -0.7325 -2.3969
 3947TIP3    H233401   3.094   2.033   0.774  1.8909  2.5955 -1.4735
 3948TIP3   OH233402   0.341   3.124   8.338 -0.1443 -0.0183  0.4877
 3948TIP3    H133403   0.414   3.142   8.279  0.2899  1.7077  1.4886
 3948TIP3    H233404   0.268   3.102   8.280  0.3056  1.4614 -0.7043
 3949TIP3   OH233405   2.340   1.464   7.213 -0.1201  0.5352 -0.9029
 3949TIP3    H133406   2.376   1.447   7.300 -0.3861 -0.9816 -1.0670
 3949TIP3    H233407   2.406   1.518   7.170  0.3117  0.7559  0.0121
 3950TIP3   OH233408   3.635   4.061   0.952  0.1302  0.0387  0.7084
 3950TIP3    H133409   3.607   3.974   0.924 -1.6977  1.0390 -0.7454
 3950TIP3    H233410   3.729   4.063   0.935 -0.4629 -0.1362 -3.7430
 3951TIP3   OH233411   1.615   5.927   6.334  0.0069  0.0353  0.4467
 3951TIP3    H133412   1.661   5.845   6.353  0.5702  0.1694 -0.2825
 3951TIP3    H233413   1.630   5.982   6.411  0.0205 -0.3798  0.7421
 3952TIP3   OH233414   0.741   3.046   7.246  0.1914 -0.0687 -0.3337
 3952TIP3    H133415   0.670   2.984   7.228  0.8134 -0.6365 -0.9044
 3952TIP3    H233416   0.759   3.087   7.162  1.9035 -1.4204 -0.6789
 3953TIP3   OH233417   3.054   0.277   0.720  0.1526  0.1068 -0.4986
 3953TIP3    H133418   3.127   0.244   0.773  1.2934  0.3053 -1.8798
 3953TIP3    H233419   3.065   0.372   0.720 -1.7968  0.4056  1.5910
 3954TIP3   OH233420   4.359   5.793   7.142  0.3295  0.2160 -0.0223
 3954TIP3    H133421   4.377   5.877   7.099  0.7903  0.4212  0.5568
 3954TIP3    H233422   4.270   5.771   7.116 -0.2213  1.4505  0.7306
 3955TIP3   OH233423   6.667   3.334   6.273 -0.3986 -0.1042  0.8225
 3955TIP3    H133424   6.590   3.358   6.221  0.7969  1.8888 -0.1447
 3955TIP3    H233425   6.703   3.257   6.228 -0.1145  0.8223 -0.5920
 3956TIP3   OH233426   3.226   5.138   1.147  0.2082 -0.3061 -0.1242
 3956TIP3    H133427   3.217   5.214   1.089  0.7755 -0.1445 -0.0038
 3956TIP3    H233428   3.309   5.151   1.192  0.6558 -1.3506 -0.6073
 3957TIP3   OH233429   1.035   2.316   8.584  0.4650 -0.4696 -0.0931
 3957TIP3    H133430   0.973   2.269   8.528 -0.7287  1.5672 -0.6043
 3957TIP3    H233431   1.112   2.330   8.529 -0.0276  0.0157 -0.6739
 3958TIP3   OH233432   3.722   0.301   1.166 -0.6748  0.5489  0.6455
 3958TIP3    H133433   3.745   0.236   1.099 -0.8430  0.1500  0.9686
 3958TIP3    H233434   3.757   0.264   1.248  0.3379  1.4573  0.6518
 3959TIP3   OH233435   3.930   2.551   0.298  0.2312 -0.6811 -0.0499
 3959TIP3    H133436   4.019   2.522   0.281  0.2183  0.2173 -1.8499
 3959TIP3    H233437   3.916   2.532   0.391  2.0032 -1.5616  0.0732
 3960TIP3   OH233438   3.696   3.424   8.321  0.4137 -0.2690  0.6166
 3960TIP3    H133439   3.738   3.489   8.265 -0.4896 -0.9636 -0.9190
 3960TIP3    H233440   3.736   3.340   8.295 -0.4413 -0.6750  0.5773
 3961TIP3   OH233441   3.380   1.311   2.288 -0.3195  0.3326  0.0035
 3961TIP3    H133442   3.414   1.247   2.351 -0.6716 -0.6300 -0.7536
 3961TIP3    H233443   3.287   1.289   2.280 -0.0878 -0.2288 -1.5918
 3962TIP3   OH233444   3.440   0.019   2.340  0.1361  0.4323  0.1803
 3962TIP3    H133445   3.416  -0.073   2.334 -0.5034  0.5316  0.9303
 3962TIP3    H233446   3.357   0.064   2.359  0.2411  1.3026 -1.2528
 3963TIP3   OH233447   1.396   6.016   7.142  0.3869  0.0927  0.4935
 3963TIP3    H133448   1.451   6.014   7.219 -1.8361 -1.5519  2.1822
 3963TIP3    H233449   1.324   6.075   7.164  1.4025  2.3363 -1.7045
 3964TIP3   OH233450   4.033   3.847   7.280  0.1446 -0.2786 -0.3266
 3964TIP3    H133451   3.961   3.908   7.295 -0.7170 -0.4926 -3.0444
 3964TIP3    H233452   4.061   3.865   7.191  0.0070 -3.6228 -1.1909
 3965TIP3   OH233453   1.634   5.056   0.762 -0.2037 -0.1852 -0.0683
 3965TIP3    H133454   1.684   5.062   0.844  0.8414  3.4603 -0.7917
 3965TIP3    H233455   1.544   5.074   0.788 -0.0715 -0.1834  0.4034
 3966TIP3   OH233456   3.678   6.381   0.969 -0.4273 -0.2011  0.1843
 3966TIP3    H133457   3.773   6.392   0.969 -0.3693 -0.5644 -0.9437
 3966TIP3    H233458   3.646   6.453   1.023  0.5400 -0.7292  1.5413
 3967TIP3   OH233459   0.637   3.377   6.552 -0.2768 -0.0016  0.8112
 3967TIP3    H133460   0.724   3.355   6.584  0.3149  1.0358 -0.0300
 3967TIP3    H233461   0.621   3.466   6.582 -0.6298  0.1806  0.1131
 3968TIP3   OH233462   4.231   3.026   8.302  0.0742  0.4637  0.0424
 3968TIP3    H133463   4.172   2.973   8.248  0.7528 -1.0594  0.7301
 3968TIP3    H233464   4.204   3.007   8.392  0.5853  0.9854  0.3098
 3969TIP3   OH233465   3.097   4.428   1.436  0.2849 -0.5118 -0.1844
 3969TIP3    H133466   3.172   4.372   1.456  1.8691  0.9797 -1.6203
 3969TIP3    H233467   3.109   4.505   1.492  0.2329  0.0507 -0.9286
 3970TIP3   OH233468   3.403   3.785   8.013 -0.0227  0.1420  0.0661
 3970TIP3    H133469   3.437   3.697   8.030 -2.0808 -0.4082  1.8117
 3970TIP3    H233470   3.477   3.833   7.977  1.6452 -1.8253  0.6796
 3971TIP3   OH233471   0.142   2.242   6.779  1.1300 -0.0100 -0.4639
 3971TIP3    H133472   0.200   2.263   6.706 -1.3755  5.0568 -1.4337
 3971TIP3    H233473   0.071   2.192   6.740  1.0780  0.4184 -0.9255
 3972TIP3   OH233474   0.001   4.899   7.923 -0.1925  0.5836 -0.4705
 3972TIP3    H133475  -0.052   4.973   7.894 -0.5687  0.4331 -0.1693
 3972TIP3    H233476  -0.052   4.822   7.902 -0.1923  0.4437  0.0397
 3973TIP3   OH233477   3.968   0.959   1.955 -0.4104  0.7934  0.2640
 3973TIP3    H133478   3.978   0.952   2.050 -0.7739 -1.3720  0.1914
 3973TIP3    H233479   3.879   0.929   1.938  0.7138 -2.1360 -0.9954
 3974TIP3   OH233480   3.060   4.293   0.867  0.1146 -0.5481  0.1325
 3974TIP3    H133481   3.010   4.358   0.916  1.0740  0.4177 -0.1321
 3974TIP3    H233482   2.996   4.224   0.846 -0.9126  0.2852  0.4388
 3975TIP3   OH233483   4.960   1.167   8.853 -0.3569 -0.1609  0.2154
 3975TIP3    H133484   4.873   1.200   8.875  0.7030  1.4267  2.5877
 3975TIP3    H233485   4.993   1.132   8.936  0.5980 -2.5143 -1.0687
 3976TIP3   OH233486   2.435   2.576   0.991 -0.3133 -0.0330 -0.1520
 3976TIP3    H133487   2.523   2.561   0.955 -0.5976  0.7016 -1.2058
 3976TIP3    H233488   2.409   2.492   1.027  0.5730 -0.4295 -0.4141
 3977TIP3   OH233489   1.844   1.477   8.895  0.5501 -0.4186 -0.1206
 3977TIP3    H133490   1.886   1.409   8.842  0.8732 -0.1574 -0.2007
 3977TIP3    H233491   1.751   1.457   8.890  0.5943 -0.4958 -0.6494
 3978TIP3   OH233492   1.479   3.590   1.194  0.0413  0.0672 -0.4945
 3978TIP3    H133493   1.516   3.515   1.148 -0.8774 -0.3612 -0.5638
 3978TIP3    H233494   1.430   3.551   1.267  0.5962  0.6789  0.2177
 3979TIP3   OH233495   5.510   5.656   6.465 -0.3413  0.6962  0.1806
 3979TIP3    H133496   5.523   5.650   6.560  1.6404  0.0896 -0.0718
 3979TIP3    H233497   5.552   5.738   6.440 -0.9848  0.9244 -0.1604
 3980TIP3   OH233498   3.853   4.484   0.882 -0.4376 -0.5017 -0.3005
 3980TIP3    H133499   3.775   4.444   0.921  0.2152  0.1330  1.8065
 3980TIP3    H233500   3.906   4.410   0.855 -1.5156 -0.9474 -1.2897
 3981TIP3   OH233501   3.991   6.672   8.389 -0.4180  0.4722 -0.1736
 3981TIP3    H133502   4.042   6.745   8.422  0.5719 -0.2974  0.0568
 3981TIP3    H233503   3.989   6.609   8.462 -0.8465  0.0654 -0.5274
 3982TIP3   OH233504   4.227   2.440   1.688  0.1340  0.6667 -0.5055
 3982TIP3    H133505   4.245   2.504   1.757  1.7220 -0.3992  0.1192
 3982TIP3    H233506   4.237   2.489   1.606  1.4156  1.2226 -0.0424
 3983TIP3   OH233507   2.258   4.574   0.130  0.3123  0.1983 -0.4261
 3983TIP3    H133508   2.223   4.505   0.073  0.8685 -0.4802  0.0413
 3983TIP3    H233509   2.333   4.534   0.174 -1.0937  0.1138  2.1075
 3984TIP3   OH233510   2.811   5.713   6.733  0.8649  0.2742 -0.2122
 3984TIP3    H133511   2.872   5.645   6.762  1.2616  0.1823 -1.2306
 3984TIP3    H233512   2.798   5.695   6.640 -2.4391 -1.0829  0.3457
 3985TIP3   OH233513   6.163   3.726   0.838  0.5590  0.2799 -0.2580
 3985TIP3    H133514   6.087   3.691   0.884  0.9269  0.2626  0.3488
 3985TIP3    H233515   6.126   3.778   0.766 -0.1044  1.7883  1.1034
 3986TIP3   OH233516   6.332   5.316   1.975  0.5674 -0.3020 -0.1823
 3986TIP3    H133517   6.261   5.371   2.006  1.2331  1.2941 -1.3546
 3986TIP3    H233518   6.405   5.334   2.034  0.6519 -0.2890 -0.2906
 3987TIP3   OH233519   4.484   6.340   8.453 -0.5316 -0.2083 -0.4925
 3987TIP3    H133520   4.416   6.309   8.513  1.4327 -1.6142  1.1665
 3987TIP3    H233521   4.484   6.277   8.382 -1.5103  0.3088 -0.9751
 3988TIP3   OH233522   3.860   0.001   1.514 -0.1801  0.0664  0.0523
 3988TIP3    H133523   3.809   0.066   1.467 -2.1030 -1.3157  0.1219
 3988TIP3    H233524   3.801  -0.074   1.524  1.9864 -1.8116 -0.2470
 3989TIP3   OH233525   6.077   0.666   8.384 -0.8432 -0.3896  0.0544
 3989TIP3    H133526   6.151   0.726   8.395 -0.7994  0.1226 -2.4371
 3989TIP3    H233527   6.117   0.583   8.357 -1.0844 -0.6066  0.3616
 3990TIP3   OH233528   3.831   4.486   8.575  0.0662  0.1398 -0.0058
 3990TIP3    H133529   3.792   4.563   8.617  0.1872  1.1551 -1.6374
 3990TIP3    H233530   3.909   4.467   8.626  1.5726  2.8465 -1.0888
 3991TIP3   OH233531   1.068   3.831   7.977 -0.6492 -0.1228 -0.1633
 3991TIP3    H133532   1.024   3.909   8.010 -0.5967  0.4159 -1.3188
 3991TIP3    H233533   1.061   3.838   7.881 -0.7483 -1.5915 -0.2866
 3992TIP3   OH233534   0.964   3.431   7.536  0.2698  0.0216 -0.6173
 3992TIP3    H133535   0.887   3.411   7.590 -0.3604  1.1143 -1.0816
 3992TIP3    H233536   1.037   3.390   7.582 -0.4793 -0.3855  0.2402
 3993TIP3   OH233537   6.148   6.643   2.123 -0.2034  0.2235  0.8824
 3993TIP3    H133538   6.241   6.655   2.104 -0.0367 -0.6904  1.0669
 3993TIP3    H233539   6.133   6.697   2.200  0.1170  0.5688  0.7077
 3994TIP3   OH233540   3.087   5.493   0.440 -0.7333  0.2821  0.0095
 3994TIP3    H133541   3.029   5.467   0.511  0.0567  0.9661  0.9291
 3994TIP3    H233542   3.175   5.473   0.472 -0.3430  0.9022 -0.6393
 3995TIP3   OH233543   0.735   6.128   2.438  0.1428 -0.0336  0.4575
 3995TIP3    H133544   0.788   6.182   2.495  0.3640 -0.4607  0.6585
 3995TIP3    H233545   0.746   6.039   2.471 -0.0024 -0.2402 -0.0328
 3996TIP3   OH233546   3.006   2.472   8.530  0.4278  0.2381  0.8280
 3996TIP3    H133547   3.055   2.482   8.612 -0.6904 -1.9114  1.8371
 3996TIP3    H233548   3.045   2.396   8.488  0.9335  1.2752 -0.6526
 3997TIP3   OH233549   3.485   3.043   1.636  0.2132 -0.3481 -0.0952
 3997TIP3    H133550   3.409   3.019   1.688 -0.1863  2.4245  0.7379
 3997TIP3    H233551   3.560   3.017   1.689 -0.1336 -1.3202 -0.0584
 3998TIP3   OH233552   5.453   1.983   1.455 -0.6754 -0.0057  0.4087
 3998TIP3    H133553   5.423   2.068   1.488  0.3113 -0.6731  3.3204
 3998TIP3    H233554   5.543   1.999   1.426 -0.0510 -0.2608  2.1224
 3999TIP3   OH233555   4.762   4.116   7.968  0.1746 -0.3132 -0.1984
 3999TIP3    H133556   4.737   4.183   7.904 -0.3211 -0.0814  0.2395
 3999TIP3    H233557   4.857   4.122   7.973  0.1933 -0.1246 -0.6833
 4000TIP3   OH233558   5.154   6.463   6.751  0.5209  0.3701  0.3636
 4000TIP3    H133559   5.185   6.527   6.688  0.9441  1.4379  1.6205
 4000TIP3    H233560   5.065   6.490   6.772  0.0487 -0.5088 -0.4211
 4001TIP3   OH233561   4.149   0.487   8.486  0.5036  0.1054 -0.1994
 4001TIP3    H133562   4.242   0.500   8.500  0.6088  1.1590 -1.6475
 4001TIP3    H233563   4.109   0.510   8.570  1.5889 -1.4538  0.7996
 4002TIP3   OH233564   6.092   3.269   0.132 -0.2906  0.0358  0.5289
 4002TIP3    H133565   6.007   3.262   0.177 -0.2265 -0.4490  0.5809
 4002TIP3    H233566   6.073   3.244   0.042  0.2595 -2.6269  1.0750
 4003TIP3   OH233567   1.836   4.809   0.176 -0.4976  0.0056  0.2048
 4003TIP3    H133568   1.932   4.809   0.172 -0.4196  0.1225  1.4744
 4003TIP3    H233569   1.817   4.821   0.269 -1.7217 -2.2467  0.3090
 4004TIP3   OH233570   3.036   0.049   7.257 -0.2224  0.2038  0.0507
 4004TIP3    H133571   3.038   0.135   7.300  0.7296  2.0292 -3.2484
 4004TIP3    H233572   3.105  -0.001   7.300 -0.8118  1.0540  2.0757
 4005TIP3   OH233573   4.876   1.455   7.539 -0.1337 -0.3354  0.1341
 4005TIP3    H133574   4.925   1.393   7.486  2.1412 -0.0628  1.7425
 4005TIP3    H233575   4.921   1.539   7.527 -4.1307  1.6811 -3.3524
 4006TIP3   OH233576   0.214   6.317   7.124  0.1641 -0.0137 -0.3543
 4006TIP3    H133577   0.223   6.381   7.053  0.3096 -0.4980 -0.7742
 4006TIP3    H233578   0.200   6.371   7.202 -1.3036  0.5083 -0.9271
 4007TIP3   OH233579   3.910   1.750   2.707  0.4500 -0.1185 -0.6446
 4007TIP3    H133580   3.998   1.788   2.713  0.5570 -0.6243  2.4059
 4007TIP3    H233581   3.851   1.825   2.704  0.8928  0.2153 -1.3243
 4008TIP3   OH233582   1.885   2.377   7.388  0.1639 -0.2537 -0.3914
 4008TIP3    H133583   1.974   2.413   7.386 -0.2952  1.0142  0.4453
 4008TIP3    H233584   1.860   2.369   7.296  0.8637  0.1408 -0.6255
 4009TIP3   OH233585   2.488   4.914   0.609  0.2691 -0.1907 -0.1398
 4009TIP3    H133586   2.577   4.937   0.634 -0.2487  3.1885 -0.9485
 4009TIP3    H233587   2.435   4.935   0.686  0.0261 -1.4128  0.0521
 4010TIP3   OH233588   2.087   0.229   1.672 -0.1673  0.1558 -0.1101
 4010TIP3    H133589   2.100   0.228   1.767  0.9615 -0.2092 -0.2544
 4010TIP3    H233590   2.115   0.143   1.643  0.9051  0.7556 -0.9314
 4011TIP3   OH233591   1.383   5.552   1.496  0.3587  0.2329  0.2436
 4011TIP3    H133592   1.422   5.546   1.583 -0.1594  3.0697  0.7695
 4011TIP3    H233593   1.456   5.541   1.436  0.9279 -0.5213  1.0598
 4012TIP3   OH233594   0.661   0.525   8.434 -0.1923  0.0539  0.1761
 4012TIP3    H133595   0.608   0.460   8.387 -0.5848  1.3281 -1.2532
 4012TIP3    H233596   0.738   0.537   8.379 -0.0980  0.7400  0.4500
 4013TIP3   OH233597   5.161   4.966   1.302 -0.1534  0.3702 -0.5047
 4013TIP3    H133598   5.160   4.967   1.398 -1.6967  0.5006 -0.4961
 4013TIP3    H233599   5.145   4.875   1.279 -3.4035  0.8325 -0.5642
 4014TIP3   OH233600   3.483   4.351   6.876  0.6410  0.0581  0.7160
 4014TIP3    H133601   3.406   4.303   6.905  1.1510 -0.0905  1.8905
 4014TIP3    H233602   3.556   4.289   6.886  0.8467  0.0147 -0.9045
 4015TIP3   OH233603   6.440   5.666   7.670  0.6100 -0.1874  0.2157
 4015TIP3    H133604   6.404   5.628   7.589  1.1002 -2.4912  0.9954
 4015TIP3    H233605   6.526   5.626   7.679  0.0722 -1.0228  2.4981
 4016TIP3   OH233606   2.128   0.640   8.374  0.3744 -0.0855  0.2029
 4016TIP3    H133607   2.157   0.731   8.383 -2.0961  0.5654  2.9531
 4016TIP3    H233608   2.048   0.646   8.322  1.2951 -1.0395 -1.4300
 4017TIP3   OH233609   5.295   1.097   6.706  0.0543  0.4981  0.3421
 4017TIP3    H133610   5.378   1.083   6.660  0.8857  0.7109  1.7328
 4017TIP3    H233611   5.289   1.193   6.715 -0.0395  0.4506  0.7863
 4018TIP3   OH233612   6.692   5.577   7.721  0.0766  0.3811  0.4078
 4018TIP3    H133613   6.723   5.490   7.696  1.0198  0.8398 -0.1117
 4018TIP3    H233614   6.731   5.593   7.807 -0.8608 -0.0716  0.9274
 4019TIP3   OH233615   2.379   0.832   2.237  0.2391  0.5366 -0.0855
 4019TIP3    H133616   2.358   0.788   2.319 -1.2690  3.9085  1.5430
 4019TIP3    H233617   2.456   0.885   2.257 -0.8027  2.2645 -0.4024
 4020TIP3   OH233618   4.220   0.470   7.301  0.0049  0.3881 -0.3427
 4020TIP3    H133619   4.278   0.508   7.367  0.5683 -0.8679 -0.0854
 4020TIP3    H233620   4.206   0.380   7.331 -1.5499  0.4672 -0.7585
 4021TIP3   OH233621   3.617   2.975   0.077  0.6828 -0.2273 -0.1518
 4021TIP3    H133622   3.663   2.936   0.152  0.4732  0.3714  0.2959
 4021TIP3    H233623   3.553   2.909   0.051  0.0883 -0.0460  0.8244
 4022TIP3   OH233624   0.055   1.323   7.229  0.8445  0.1899 -0.3957
 4022TIP3    H133625   0.111   1.308   7.305  1.9925  2.4532 -0.7159
 4022TIP3    H233626  -0.029   1.281   7.252  1.3862  0.1916  1.7917
 4023TIP3   OH233627   6.746   0.410   1.289 -0.2150  0.8009 -0.2139
 4023TIP3    H133628   6.825   0.422   1.236 -0.2815 -1.2592 -0.8799
 4023TIP3    H233629   6.776   0.422   1.379  0.7974  0.3854 -0.4808
 4024TIP3   OH233630   0.369   5.613   7.654 -0.4198  0.0919 -0.0324
 4024TIP3    H133631   0.332   5.701   7.660 -0.1024  0.1797  0.6504
 4024TIP3    H233632   0.437   5.620   7.586 -0.1087  0.4745  0.3174
 4025TIP3   OH233633   5.025   6.408   2.329  0.3865  0.6687 -0.2042
 4025TIP3    H133634   5.107   6.425   2.376 -0.4330  0.4117  1.3881
 4025TIP3    H233635   4.956   6.432   2.392 -0.7698 -0.9307 -0.8063
 4026TIP3   OH233636   6.630   2.461   8.535  0.0009 -0.1354  0.7499
 4026TIP3    H133637   6.591   2.378   8.563 -3.1853  1.7484  2.3812
 4026TIP3    H233638   6.651   2.506   8.616 -0.8081  1.7088 -0.0059
 4027TIP3   OH233639   0.537   6.033   1.565 -0.1565 -0.1495  0.1091
 4027TIP3    H133640   0.534   6.003   1.656 -0.4245 -1.5737 -0.3353
 4027TIP3    H233641   0.453   6.006   1.529 -0.3090  0.9769 -0.4000
 4028TIP3   OH233642   0.774   3.042   1.711 -0.0136  0.4248  0.8373
 4028TIP3    H133643   0.719   3.088   1.775 -2.4054 -1.7925  0.5619
 4028TIP3    H233644   0.737   3.066   1.626 -1.3509 -1.8323  0.6864
 4029TIP3   OH233645   0.412   3.507   8.282  0.0963  0.7060 -0.2628
 4029TIP3    H133646   0.440   3.519   8.191  1.4365 -0.1911  0.0216
 4029TIP3    H233647   0.374   3.592   8.306 -0.8153  0.7811 -1.8250
 4030TIP3   OH233648   0.873   1.704   7.649  0.6547  0.4487 -0.1845
 4030TIP3    H133649   0.891   1.762   7.575  0.3069 -0.6885 -1.2028
 4030TIP3    H233650   0.842   1.762   7.718  0.9198  1.5377 -0.9548
 4031TIP3   OH233651   0.460   2.017   0.008 -0.0039 -0.1243  0.0597
 4031TIP3    H133652   0.454   2.079  -0.065 -0.9726 -0.1526  0.1088
 4031TIP3    H233653   0.479   2.071   0.084  0.9863 -0.0903 -0.1972
 4032TIP3   OH233654   0.727   4.176   0.069  1.0649  0.1195 -0.8561
 4032TIP3    H133655   0.752   4.244   0.006  0.7895  0.7145 -0.3342
 4032TIP3    H233656   0.804   4.119   0.074  1.0808  0.0349 -1.7504
 4033TIP3   OH233657   1.290   1.527   0.354  0.4776 -0.2397  0.2173
 4033TIP3    H133658   1.213   1.472   0.340  0.2917 -0.4047  1.7066
 4033TIP3    H233659   1.311   1.562   0.268 -1.6875  0.3670 -0.1385
 4034TIP3   OH233660   4.766   3.441   8.291 -0.9397 -0.0829  0.2479
 4034TIP3    H133661   4.824   3.424   8.217 -1.9682  1.2303 -0.9278
 4034TIP3    H233662   4.806   3.516   8.336 -1.6909  0.8289 -0.5686
 4035TIP3   OH233663   1.538   4.691   7.269 -0.2061  0.2730  0.3960
 4035TIP3    H133664   1.603   4.676   7.200 -0.9781 -0.5861 -0.1651
 4035TIP3    H233665   1.540   4.611   7.321 -0.1187  0.6439  0.9688
 4036TIP3   OH233666   6.600   2.194   8.771 -0.2207 -0.4177  0.2796
 4036TIP3    H133667   6.518   2.214   8.726 -0.3517 -1.1468  0.1778
 4036TIP3    H233668   6.650   2.144   8.706  1.5865  2.5387 -0.8143
 4037TIP3   OH233669   4.056   6.707   0.097  0.1993  0.1645 -0.3612
 4037TIP3    H133670   3.971   6.692   0.056  1.4477 -1.4449 -2.5612
 4037TIP3    H233671   4.109   6.632   0.071  2.7265  1.7786 -0.2308
 4038TIP3   OH233672   6.317   4.521   7.967  0.0056  0.3152  0.6590
 4038TIP3    H133673   6.269   4.547   8.046 -0.9312  0.5870  0.0088
 4038TIP3    H233674   6.371   4.447   7.996 -2.8876 -1.9235  0.8387
 4039TIP3   OH233675   5.134   1.251   7.154  0.3601 -0.3746 -0.2810
 4039TIP3    H133676   5.053   1.204   7.136  0.7049 -0.9093 -0.4415
 4039TIP3    H233677   5.105   1.338   7.182 -0.3297 -0.9894  1.0203
 4040TIP3   OH233678   4.290   4.718   0.147  0.0048  0.2020 -0.1214
 4040TIP3    H133679   4.272   4.624   0.143  1.4754 -0.2159  1.7120
 4040TIP3    H233680   4.283   4.739   0.240 -2.1972  2.3514 -0.6893
 4041TIP3   OH233681   6.497   3.925   0.769 -0.1980  0.5176  0.3007
 4041TIP3    H133682   6.539   3.839   0.779 -0.4693  0.4437  0.8208
 4041TIP3    H233683   6.448   3.937   0.849 -0.2456  1.1202  0.1839
 4042TIP3   OH233684   3.074   2.696   1.931  0.3163 -0.1552  0.9526
 4042TIP3    H133685   3.073   2.768   1.868 -0.2239 -0.7189  0.3148
 4042TIP3    H233686   3.157   2.652   1.915 -0.1759 -0.7781  0.0818
 4043TIP3   OH233687   0.405   0.203   1.135  0.4762 -0.3513  0.1130
 4043TIP3    H133688   0.399   0.292   1.168  1.0196 -0.4744  0.5699
 4043TIP3    H233689   0.334   0.156   1.179  0.3322 -0.1977  0.0448
 4044TIP3   OH233690   0.417   6.109   7.262  0.0863 -0.3251 -0.2027
 4044TIP3    H133691   0.380   6.169   7.198  1.9600 -1.5065 -2.5527
 4044TIP3    H233692   0.469   6.165   7.320 -0.6894  0.6313 -0.4058
 4045TIP3   OH233693   2.066   1.035   1.422  0.1040 -0.2208  0.1989
 4045TIP3    H133694   2.145   1.027   1.475  1.8951 -1.5845 -2.4235
 4045TIP3    H233695   2.029   0.947   1.420  1.8505 -1.0455 -3.1250
 4046TIP3   OH233696   0.431   5.359   7.956 -0.1228  0.3781 -0.2499
 4046TIP3    H133697   0.430   5.454   7.959 -0.9734  0.3475  0.5928
 4046TIP3    H233698   0.342   5.334   7.932  0.1501 -0.2079 -0.6995
 4047TIP3   OH233699   1.868   6.462   8.586  0.3529  0.0723 -0.1336
 4047TIP3    H133700   1.795   6.515   8.617  0.8774  0.2916  0.7413
 4047TIP3    H233701   1.858   6.377   8.630  1.8756  0.8234  1.8301
 4048TIP3   OH233702   4.589   5.020   8.396 -0.4431 -0.2169 -0.1607
 4048TIP3    H133703   4.603   4.957   8.326  0.2656 -0.1321 -0.1053
 4048TIP3    H233704   4.498   5.006   8.423 -1.3783  1.0501 -2.3750
 4049TIP3   OH233705   0.409   4.981   6.951 -0.0992  0.0547 -0.1876
 4049TIP3    H133706   0.486   5.036   6.963 -1.1071  1.1746  1.6143
 4049TIP3    H233707   0.441   4.905   6.902  1.5661  1.6784 -1.7511
 4050TIP3   OH233708   1.527   4.114   6.531  0.6307  0.3462  0.6218
 4050TIP3    H133709   1.467   4.168   6.583  0.6091  1.8961 -0.9254
 4050TIP3    H233710   1.469   4.066   6.471  0.8925  2.3765 -1.3597
 4051TIP3   OH233711   5.388   0.897   1.559  0.2048  0.2387 -0.2500
 4051TIP3    H133712   5.435   0.979   1.574  1.0389 -0.3041  0.1451
 4051TIP3    H233713   5.453   0.838   1.520 -0.5935  0.0120 -1.3054
 4052TIP3   OH233714   6.357   6.317   1.992  0.0906 -0.3137 -0.3844
 4052TIP3    H133715   6.435   6.339   1.940 -0.9563 -0.2123 -1.9836
 4052TIP3    H233716   6.363   6.222   2.004  0.1409 -0.4036 -1.0648
 4053TIP3   OH233717   5.903   0.902   7.419  0.7390 -0.5311 -0.2102
 4053TIP3    H133718   5.993   0.890   7.448  0.4166  0.5129  1.3822
 4053TIP3    H233719   5.854   0.832   7.462  0.1989  1.2381  2.2728
 4054TIP3   OH233720   4.423   2.154   6.569 -0.3825  0.0919 -0.1331
 4054TIP3    H133721   4.334   2.127   6.545 -0.4056 -0.7989  0.8463
 4054TIP3    H233722   4.423   2.249   6.559 -2.2375  0.4488  2.1474
 4055TIP3   OH233723   5.795   1.878   1.227  0.1996 -0.5526  0.0063
 4055TIP3    H133724   5.740   1.801   1.242  1.2332 -1.6217 -1.4307
 4055TIP3    H233725   5.860   1.849   1.163  1.8296  0.9502  0.8993
 4056TIP3   OH233726   4.536   3.574   8.691  0.3314  0.6847  0.1310
 4056TIP3    H133727   4.537   3.568   8.595 -1.1807  0.7927  0.0815
 4056TIP3    H233728   4.583   3.496   8.720 -1.0155 -0.4868 -0.7058
 4057TIP3   OH233729   4.260   3.049   1.616  0.8853  0.0080  0.1640
 4057TIP3    H133730   4.315   3.086   1.546 -0.8206  1.3659 -0.5147
 4057TIP3    H233731   4.293   3.089   1.696  1.3338  0.2584 -0.1423
 4058TIP3   OH233732   3.226   1.419   7.781 -0.2122  0.1497  0.2045
 4058TIP3    H133733   3.284   1.449   7.851  0.7012 -1.3448  0.1443
 4058TIP3    H233734   3.139   1.445   7.809  0.0839 -0.6913  2.1063
 4059TIP3   OH233735   1.062   0.581   1.465 -0.1355 -0.6050 -0.2198
 4059TIP3    H133736   1.155   0.559   1.468 -0.0203 -0.0598  1.0822
 4059TIP3    H233737   1.056   0.654   1.404  0.5591  0.4492  0.9347
 4060TIP3   OH233738   6.746   4.527   6.945  0.3244 -0.0207 -0.6111
 4060TIP3    H133739   6.775   4.600   7.000  0.1427  0.7503 -1.5135
 4060TIP3    H233740   6.670   4.491   6.991  0.0887  0.6943 -0.4362
 4061TIP3   OH233741   1.364   2.110   7.854 -0.2685 -0.3206  0.1898
 4061TIP3    H133742   1.412   2.098   7.936 -0.2575 -0.6446  0.1391
 4061TIP3    H233743   1.285   2.057   7.865 -0.4803 -0.0119  0.1634
 4062TIP3   OH233744   1.354   1.623   7.945  0.6444  0.0757 -0.3910
 4062TIP3    H133745   1.306   1.554   7.899  1.1596 -0.8782  0.4443
 4062TIP3    H233746   1.289   1.692   7.959  0.2785  0.0446 -1.8087
 4063TIP3   OH233747   2.182   0.441   8.210 -0.3294  0.2687  0.4716
 4063TIP3    H133748   2.116   0.375   8.232  0.5926 -0.6853  0.4570
 4063TIP3    H233749   2.178   0.504   8.281 -1.3602  0.3169  0.3899
 4064TIP3   OH233750   2.534   1.639   7.543 -0.1375 -0.4127 -0.1906
 4064TIP3    H133751   2.603   1.686   7.589 -2.5281  2.3932  0.8957
 4064TIP3    H233752   2.541   1.668   7.452 -0.2885  0.4425  0.0584
 4065TIP3   OH233753   6.066   0.451   8.880 -0.1700  0.0499  0.2962
 4065TIP3    H133754   6.065   0.421   8.970 -0.5170 -0.2245  0.2048
 4065TIP3    H233755   6.009   0.390   8.833 -0.1193  0.2802 -0.0770
 4066TIP3   OH233756   2.576   1.100   2.094  0.3953 -0.3413 -0.0631
 4066TIP3    H133757   2.563   1.193   2.115 -3.4191 -0.6074 -0.5894
 4066TIP3    H233758   2.572   1.056   2.179 -0.2631 -0.2191 -0.0277
 4067TIP3   OH233759   2.863   2.643   1.507  0.5309 -0.2507  0.1174
 4067TIP3    H133760   2.772   2.672   1.502  0.5337  0.2721  2.2560
 4067TIP3    H233761   2.898   2.659   1.419 -1.7058 -1.5206 -1.0947
 4068TIP3   OH233762   1.721   6.758   0.359 -0.5974  0.0661 -1.2236
 4068TIP3    H133763   1.632   6.730   0.337 -0.3255 -1.8044 -0.1588
 4068TIP3    H233764   1.775   6.681   0.343  0.9377  1.2933 -2.2535
 4069TIP3   OH233765   0.565   1.260   0.615  0.7211  0.0972 -0.0469
 4069TIP3    H133766   0.626   1.281   0.544  1.4984  1.2257  0.9103
 4069TIP3    H233767   0.619   1.214   0.679  0.4357  0.5790  0.5509
 4070TIP3   OH233768   6.638   1.869   7.699 -0.2008  0.4616  0.1281
 4070TIP3    H133769   6.579   1.794   7.691 -0.1255  0.4623 -0.4973
 4070TIP3    H233770   6.694   1.864   7.621 -0.0847  1.0729  0.1668
 4071TIP3   OH233771   3.376   1.991   8.252 -0.0496 -0.2242 -0.0022
 4071TIP3    H133772   3.374   1.961   8.343 -1.8137 -1.1614 -0.3177
 4071TIP3    H233773   3.419   1.920   8.204 -0.4934 -0.4040 -0.1324
 4072TIP3   OH233774   2.178   0.471   6.642 -0.1426  0.2564 -0.1353
 4072TIP3    H133775   2.247   0.537   6.631  1.3700 -1.2112  0.1304
 4072TIP3    H233776   2.098   0.516   6.618  0.9593  1.9182 -0.8877
 4073TIP3   OH233777   3.128   2.135   7.680 -0.1588 -0.4771  0.3674
 4073TIP3    H133778   3.090   2.191   7.612  0.7450  1.3396  1.2956
 4073TIP3    H233779   3.055   2.080   7.709 -1.7262  1.7862  0.9613
 4074TIP3   OH233780   3.675   0.554   1.557  0.2425 -0.1652  0.0946
 4074TIP3    H133781   3.720   0.638   1.562 -0.2618  0.1383 -0.2697
 4074TIP3    H233782   3.629   0.547   1.641 -0.5051  0.3963 -0.2524
 4075TIP3   OH233783   5.970   2.336   0.947  0.1970  0.4666 -0.0513
 4075TIP3    H133784   6.064   2.324   0.933 -0.1678 -0.2287 -2.4431
 4075TIP3    H233785   5.939   2.251   0.977  0.1637  0.3014 -0.5352
 4076TIP3   OH233786   5.497   2.431   1.128  0.4123  0.2618  0.0297
 4076TIP3    H133787   5.507   2.490   1.054  0.1668  0.4966  0.1842
 4076TIP3    H233788   5.403   2.427   1.143  0.4783  0.3913  0.4751
 4077TIP3   OH233789   2.945   6.030   2.203  0.0798 -0.2805 -1.1530
 4077TIP3    H133790   3.040   6.025   2.208  0.0513  0.2809  0.6108
 4077TIP3    H233791   2.925   6.121   2.224 -0.8330 -0.3169 -1.8350
 4078TIP3   OH233792   2.874   5.156   7.029  0.2774 -0.7129 -0.4745
 4078TIP3    H133793   2.821   5.077   7.038  0.5329 -0.7482  0.9490
 4078TIP3    H233794   2.889   5.164   6.934  0.3253 -2.4033 -0.6467
 4079TIP3   OH233795   1.141   3.761   8.577 -0.0461  0.4322  0.1777
 4079TIP3    H133796   1.092   3.827   8.529 -0.8604 -0.1211  0.2346
 4079TIP3    H233797   1.107   3.678   8.545  1.1888  0.0211 -0.1300
 4080TIP3   OH233798   5.008   2.065   1.326 -0.4285 -0.3079  0.0109
 4080TIP3    H133799   4.925   2.051   1.280 -2.0890  0.2725  2.5596
 4080TIP3    H233800   4.989   2.136   1.388  1.9081 -0.3817  0.9210
 4081TIP3   OH233801   4.166   2.120   2.847  0.2822  0.0948 -0.5617
 4081TIP3    H133802   4.117   2.139   2.927 -1.1369 -0.9791 -1.1368
 4081TIP3    H233803   4.214   2.201   2.828  0.0734  0.6035  0.9575
 4082TIP3   OH233804   4.090   0.145   7.813  0.0162  0.3301 -0.3227
 4082TIP3    H133805   4.064   0.236   7.819  1.2798  0.7409 -0.8072
 4082TIP3    H233806   4.185   0.146   7.822  0.1496 -0.8315 -1.2346
 4083TIP3   OH233807   6.599   2.992   7.015 -0.3768  0.8168  0.4719
 4083TIP3    H133808   6.504   2.999   7.004 -0.6043  0.1348  1.8155
 4083TIP3    H233809   6.620   3.055   7.084  0.0314  0.4421  0.6969
 4084TIP3   OH233810   3.959   2.549   7.981  0.9692 -0.0013  0.1699
 4084TIP3    H133811   4.021   2.500   8.034  1.2902 -0.1033 -0.3012
 4084TIP3    H233812   3.906   2.597   8.045 -0.4166 -2.1626  0.7594
 4085TIP3   OH233813   6.313   4.211   1.008  0.2336 -0.1252  0.3312
 4085TIP3    H133814   6.240   4.227   1.069  0.8860  0.5524  0.9537
 4085TIP3    H233815   6.306   4.119   0.985 -1.1649  0.0508 -0.0648
 4086TIP3   OH233816   0.852   0.230   8.437 -0.3205 -0.3198  0.5213
 4086TIP3    H133817   0.890   0.316   8.457 -0.9318 -0.2079  1.2703
 4086TIP3    H233818   0.909   0.168   8.482 -0.3781 -0.2378  0.7091
 4087TIP3   OH233819   0.688   3.856   0.901  0.4854  0.0557 -0.4138
 4087TIP3    H133820   0.628   3.805   0.955  1.5925 -0.8922 -0.0164
 4087TIP3    H233821   0.668   3.947   0.920  0.5540 -0.2553  1.2859
 4088TIP3   OH233822   2.562   1.540   0.542 -0.0863 -0.0158 -0.2558
 4088TIP3    H133823   2.494   1.474   0.553  0.2994 -0.3496  0.2025
 4088TIP3    H233824   2.635   1.508   0.594  0.4090  0.3579 -0.7033
 4089TIP3   OH233825   3.520   5.847   7.648  0.2756 -0.2343 -0.0037
 4089TIP3    H133826   3.557   5.902   7.579 -2.0873  1.0688 -0.3473
 4089TIP3    H233827   3.498   5.909   7.718  0.7103 -1.2565  1.0679
 4090TIP3   OH233828   3.239   1.880   1.490 -0.0167 -0.5540 -0.3887
 4090TIP3    H133829   3.279   1.822   1.555 -0.5320 -1.5131 -0.8874
 4090TIP3    H233830   3.287   1.862   1.409 -1.5718 -1.9649 -1.0778
 4091TIP3   OH233831   6.667   0.217   6.612 -0.7111 -0.3389 -0.0813
 4091TIP3    H133832   6.755   0.249   6.592 -0.2712 -0.8333  0.9948
 4091TIP3    H233833   6.609   0.271   6.559  0.0633  1.6309  0.9804
 4092TIP3   OH233834   5.716   3.670   8.417  0.2236  0.3108  0.2036
 4092TIP3    H133835   5.725   3.579   8.389 -1.6886  0.0602  0.2457
 4092TIP3    H233836   5.722   3.666   8.512 -0.4368  0.1289  0.2438
 4093TIP3   OH233837   4.258   4.542   7.222  0.1185  0.0597  0.4718
 4093TIP3    H133838   4.174   4.496   7.221  0.0581  0.0687  2.3622
 4093TIP3    H233839   4.235   4.635   7.212 -0.0239 -0.0013  0.2209
 4094TIP3   OH233840   1.786   5.389   8.768  0.2100  0.5456 -0.0823
 4094TIP3    H133841   1.816   5.467   8.722 -2.0485  1.9044  0.5365
 4094TIP3    H233842   1.779   5.416   8.860 -0.8673 -0.2686  0.1083
 4095TIP3   OH233843   0.813   2.531   1.513  0.2493 -0.8733  0.2268
 4095TIP3    H133844   0.898   2.546   1.471  0.0421 -1.3702 -0.3944
 4095TIP3    H233845   0.827   2.555   1.604  0.8014 -0.0617 -0.0606
 4096TIP3   OH233846   4.246   1.767   0.006  0.4640 -0.8015 -0.6312
 4096TIP3    H133847   4.163   1.765   0.054  0.9196  0.4275  0.2694
 4096TIP3    H233848   4.225   1.813  -0.075  0.0762 -1.2907 -0.8136
 4097TIP3   OH233849   0.282   4.385   6.544  0.3765 -0.0046 -0.2578
 4097TIP3    H133850   0.265   4.306   6.594  1.8852 -0.3539 -0.2417
 4097TIP3    H233851   0.344   4.434   6.597  0.9631  0.2532 -1.1516
 4098TIP3   OH233852   0.042   5.261   7.990 -0.1633 -0.3387  0.4826
 4098TIP3    H133853  -0.050   5.285   7.979  0.1056  0.6611  0.2546
 4098TIP3    H233854   0.068   5.226   7.905 -0.6314 -1.7543  0.8968
 4099TIP3   OH233855   2.505   2.294   0.352 -0.9111  0.0125 -0.1346
 4099TIP3    H133856   2.458   2.213   0.374 -0.2648 -0.5162 -0.6481
 4099TIP3    H233857   2.436   2.359   0.340 -1.4282 -0.3725  0.6108
 4100TIP3   OH233858   3.947   5.836   7.690 -0.4186 -0.5111 -0.0568
 4100TIP3    H133859   4.041   5.824   7.676 -0.3393  0.0428 -0.0513
 4100TIP3    H233860   3.931   5.928   7.667 -1.2474 -1.0016 -1.5283
 4101TIP3   OH233861   4.302   3.304   0.659  0.1962 -0.2589 -0.2370
 4101TIP3    H133862   4.350   3.349   0.729 -0.7649 -1.1693  1.0671
 4101TIP3    H233863   4.362   3.236   0.629  1.1002  0.9274 -1.2229
 4102TIP3   OH233864   1.288   4.544   7.890  0.1020 -0.0595 -0.2079
 4102TIP3    H133865   1.295   4.455   7.855  0.3108 -0.0769 -0.1216
 4102TIP3    H233866   1.332   4.599   7.825 -0.7276  0.0888 -0.6685
 4103TIP3   OH233867   2.466   1.468   6.714  0.2805  0.0887  0.1951
 4103TIP3    H133868   2.374   1.444   6.727 -0.2208  1.9921  0.4579
 4103TIP3    H233869   2.482   1.453   6.621  0.0823 -1.3848  0.3764
 4104TIP3   OH233870   6.144   2.835   7.115  0.1165 -0.3148 -0.1989
 4104TIP3    H133871   6.121   2.782   7.191  0.0366  0.4039  0.2858
 4104TIP3    H233872   6.234   2.808   7.093 -0.2049 -1.2213 -0.4632
 4105TIP3   OH233873   3.003   2.438   8.101  0.3253  0.1253 -0.3126
 4105TIP3    H133874   2.990   2.467   8.011  0.1025  0.8493 -0.0555
 4105TIP3    H233875   2.950   2.359   8.109  0.1715  0.1847 -0.7498
 4106TIP3   OH233876   1.384   4.709   0.984 -0.7790  0.2636  0.4619
 4106TIP3    H133877   1.400   4.777   1.050  0.3831  2.0064 -1.4918
 4106TIP3    H233878   1.360   4.757   0.905  0.6546 -1.5235 -1.1702
 4107TIP3   OH233879   2.505   1.726   8.202  0.2212  0.1389  0.4393
 4107TIP3    H133880   2.533   1.785   8.132  0.1567 -0.1231  0.1892
 4107TIP3    H233881   2.585   1.686   8.234  0.1410 -0.6171 -0.2823
 4108TIP3   OH233882   3.095   1.107   1.749 -0.0591  0.0860 -0.6007
 4108TIP3    H133883   3.104   1.138   1.659  2.0783  2.7593  0.4265
 4108TIP3    H233884   3.125   1.179   1.804 -5.2127  0.3350  2.6112
 4109TIP3   OH233885   3.634   6.111   0.065  0.4491  0.1810  0.1403
 4109TIP3    H133886   3.687   6.190   0.052 -0.8056  1.2420  1.1759
 4109TIP3    H233887   3.590   6.125   0.149 -0.9455 -0.9490 -0.3539
 4110TIP3   OH233888   4.082   6.607   2.090  0.7422  0.0680 -0.3519
 4110TIP3    H133889   4.076   6.532   2.031  1.7604 -0.4805  0.2181
 4110TIP3    H233890   4.083   6.569   2.178 -0.2653  0.8446  0.0223
 4111TIP3   OH233891   0.194   2.655   0.494 -0.4060 -0.7550  0.3526
 4111TIP3    H133892   0.209   2.734   0.441  0.0305 -1.0804 -0.0157
 4111TIP3    H233893   0.102   2.661   0.519  0.2731  1.3787  2.8192
 4112TIP3   OH233894   1.151   0.568   0.926  0.0787 -0.1262 -0.0659
 4112TIP3    H133895   1.182   0.478   0.937  0.4687 -0.1097 -0.9806
 4112TIP3    H233896   1.058   0.565   0.949  0.1352 -0.7215  0.0824
 4113TIP3   OH233897   0.299   6.104   8.545 -0.3066  0.4692  0.2510
 4113TIP3    H133898   0.256   6.024   8.574  0.6098  0.1654  0.8179
 4113TIP3    H233899   0.234   6.173   8.558  0.0578  0.3877  3.2232
 4114TIP3   OH233900   0.176   5.872   8.046 -0.1738  0.0563 -0.1956
 4114TIP3    H133901   0.153   5.802   7.986  0.0058 -0.7026  0.5929
 4114TIP3    H233902   0.109   5.939   8.034  0.6908  0.6058 -2.3068
 4115TIP3   OH233903   0.368   1.622   8.583  0.3474  0.0360  0.3311
 4115TIP3    H133904   0.380   1.638   8.490 -0.0882 -1.4937 -0.0262
 4115TIP3    H233905   0.332   1.533   8.588 -3.6709  1.4599  1.6513
 4116TIP3   OH233906   4.389   0.626   7.442 -0.3335 -0.1922 -0.0586
 4116TIP3    H133907   4.437   0.646   7.362 -2.0180  1.5192 -0.7143
 4116TIP3    H233908   4.408   0.699   7.501  0.3326 -1.0915  0.8863
 4117TIP3   OH233909   6.248   0.221   0.244 -0.3764  0.1189 -0.1682
 4117TIP3    H133910   6.162   0.257   0.266 -0.3448  0.1851 -0.1529
 4117TIP3    H233911   6.271   0.263   0.161 -0.5087 -0.1548 -0.3442
 4118TIP3   OH233912   6.697   4.788   0.268  0.5119 -0.3912 -0.1144
 4118TIP3    H133913   6.790   4.806   0.279  0.1153  1.1606  1.2174
 4118TIP3    H233914   6.661   4.869   0.232 -0.3461 -0.8963 -0.4068
 4119TIP3   OH233915   5.847   4.576   8.209 -0.0993 -0.1507 -0.1327
 4119TIP3    H133916   5.867   4.595   8.300 -2.4800  0.6198  0.3062
 4119TIP3    H233917   5.930   4.589   8.163  0.4738  2.7329  1.4478
 4120TIP3   OH233918   0.856   2.857   0.733  0.1099  0.2471  0.1765
 4120TIP3    H133919   0.881   2.811   0.653  0.1556  1.4707 -0.5349
 4120TIP3    H233920   0.819   2.940   0.703  0.6848  0.9931  1.4487
 4121TIP3   OH233921   6.322   2.679   8.559 -0.6999  0.5770 -0.2115
 4121TIP3    H133922   6.360   2.701   8.644 -1.0102 -1.2694  0.4462
 4121TIP3    H233923   6.279   2.595   8.573 -2.3550  1.1219 -1.7440
 4122TIP3   OH233924   6.632   0.529   0.233 -0.1238  0.4900  0.4592
 4122TIP3    H133925   6.564   0.482   0.184 -0.6078  2.0096 -0.4035
 4122TIP3    H233926   6.590   0.612   0.258  1.8398  2.2409 -1.5595
 4123TIP3   OH233927   6.420   4.391   8.738  0.3852 -0.6632 -0.5813
 4123TIP3    H133928   6.358   4.394   8.811  0.2179  1.1428 -0.7453
 4123TIP3    H233929   6.507   4.390   8.780  0.3620 -3.9192 -0.3336
 4124TIP3   OH233930   2.791   4.378   8.559  0.1142  0.1663  0.5716
 4124TIP3    H133931   2.738   4.357   8.637  1.0456 -1.8991  0.7158
 4124TIP3    H233932   2.751   4.458   8.524 -3.4209 -1.4492  0.4250
 4125TIP3   OH233933   3.408   3.121   8.730 -0.1242 -0.6372 -0.0239
 4125TIP3    H133934   3.467   3.193   8.709 -2.2888  0.9644 -1.0347
 4125TIP3    H233935   3.435   3.049   8.673  0.3683  0.3154 -1.0123
 4126TIP3   OH233936   2.874   5.657   7.058  0.0023  0.1260  0.7667
 4126TIP3    H133937   2.962   5.623   7.073  0.6145  0.6632 -1.2239
 4126TIP3    H233938   2.888   5.742   7.015 -1.4846  0.1046  0.1773
 4127TIP3   OH233939   4.619   1.646   6.952  0.2553  0.0350  0.5654
 4127TIP3    H133940   4.530   1.625   6.981  0.1864 -0.7875 -0.1839
 4127TIP3    H233941   4.666   1.669   7.033 -0.7635  1.0095  0.9042
 4128TIP3   OH233942   1.665   2.785   1.438 -0.3619 -0.1585 -0.1498
 4128TIP3    H133943   1.727   2.764   1.507 -2.9102  1.2039  2.7804
 4128TIP3    H233944   1.581   2.753   1.470 -1.9549  2.0793 -1.7785
 4129TIP3   OH233945   2.264   6.631   8.786  0.1876  0.1469  0.1284
 4129TIP3    H133946   2.227   6.561   8.733  1.0044  1.0254 -1.7232
 4129TIP3    H233947   2.188   6.673   8.827 -0.4749 -0.6206 -0.2923
 4130TIP3   OH233948   1.836   0.847   6.757  0.2219  0.2860  0.1650
 4130TIP3    H133949   1.805   0.827   6.669 -1.0263 -0.8745  0.8317
 4130TIP3    H233950   1.874   0.766   6.789 -0.9539  0.1446  1.3193
 4131TIP3   OH233951   4.706   3.781   0.213 -0.3813  0.3819  0.0736
 4131TIP3    H133952   4.764   3.810   0.284 -1.5999  0.1593  1.2010
 4131TIP3    H233953   4.643   3.852   0.204 -0.6603  0.0878 -0.2957
 4132TIP3   OH233954   1.850   1.273   6.102  0.3386  0.2001  0.1080
 4132TIP3    H133955   1.937   1.299   6.071  0.5118  1.2336  1.3578
 4132TIP3    H233956   1.862   1.184   6.136  1.2551  0.7940  1.4553
 4133TIP3   OH233957   5.153   3.592   7.132  0.1672  0.3427 -0.0974
 4133TIP3    H133958   5.108   3.672   7.160 -0.1327  0.0622  0.2425
 4133TIP3    H233959   5.244   3.606   7.157  0.0963  0.5390  0.0556
 4134TIP3   OH233960   4.047   0.543   0.510  0.1094 -0.1385  0.1047
 4134TIP3    H133961   4.002   0.476   0.562 -1.5284  0.6088 -0.2941
 4134TIP3    H233962   4.038   0.512   0.419  0.1179  0.1828 -0.0051
 4135TIP3   OH233963   2.051   1.800   8.266  0.3639 -0.3028 -0.7343
 4135TIP3    H133964   2.062   1.720   8.216  1.8555 -0.1049 -0.7693
 4135TIP3    H233965   1.965   1.792   8.306  1.0312 -2.5808  0.4264
 4136TIP3   OH233966   4.820   1.549   2.146 -0.1721  1.2662 -0.1371
 4136TIP3    H133967   4.753   1.481   2.145  1.7846 -0.8105 -2.3628
 4136TIP3    H233968   4.857   1.544   2.235  0.3518 -1.1241 -0.4096
 4137TIP3   OH233969   1.615   3.689   2.257  0.4409  0.2831  0.0740
 4137TIP3    H133970   1.569   3.738   2.325 -1.9243 -0.2957 -0.9835
 4137TIP3    H233971   1.620   3.749   2.183 -0.4140 -0.2923 -0.4652
 4138TIP3   OH233972   4.023   1.578   1.464  0.7279  0.1281  0.1832
 4138TIP3    H133973   4.003   1.621   1.547  0.0771  1.2798 -0.5285
 4138TIP3    H233974   4.118   1.582   1.456  0.7200  0.8806  0.4265
 4139TIP3   OH233975   5.066   4.170   1.937 -0.1137  0.1678 -0.2344
 4139TIP3    H133976   5.149   4.128   1.959 -0.6545 -0.9955 -0.3323
 4139TIP3    H233977   5.072   4.189   1.843 -0.4610 -1.1338 -0.5354
 4140TIP3   OH233978   4.654   4.864   0.054 -0.3641  0.3223  0.7667
 4140TIP3    H133979   4.601   4.816  -0.010 -0.7764  2.3480 -0.4895
 4140TIP3    H233980   4.710   4.920   0.001  0.7755  0.5624  2.1672
 4141TIP3   OH233981   4.221   0.246   8.299 -0.0638 -0.1229  0.0485
 4141TIP3    H133982   4.298   0.194   8.275  0.1408  0.2348 -0.0819
 4141TIP3    H233983   4.256   0.335   8.312 -0.4420  0.0223  0.0686
 4142TIP3   OH233984   3.159   1.285   7.518  0.0945 -0.4339 -0.1663
 4142TIP3    H133985   3.174   1.328   7.601 -0.7260 -0.8877  0.2364
 4142TIP3    H233986   3.076   1.238   7.530 -0.3527 -0.0125 -1.4362
 4143TIP3   OH233987   1.407   6.319   0.177 -0.4534 -0.3335 -0.2751
 4143TIP3    H133988   1.336   6.261   0.204  0.3626 -0.8966  0.7255
 4143TIP3    H233989   1.460   6.330   0.255 -1.4795  3.1740  0.1294
 4144TIP3   OH233990   1.370   3.391   8.152 -0.5812  0.4108 -0.5956
 4144TIP3    H133991   1.304   3.401   8.084 -3.3378 -1.1290  1.5904
 4144TIP3    H233992   1.428   3.322   8.120 -1.0149  0.6277 -1.8929
 4145TIP3   OH233993   6.526   5.465   0.768  0.0725  0.1943 -0.5382
 4145TIP3    H133994   6.473   5.449   0.846  1.7162 -2.1629  0.1967
 4145TIP3    H233995   6.514   5.387   0.714  1.3222  0.4548 -1.2336
 4146TIP3   OH233996   5.041   3.796   7.259 -0.3107 -0.5334 -0.2392
 4146TIP3    H133997   4.975   3.828   7.198  0.7451 -0.8335 -1.5967
 4146TIP3    H233998   5.061   3.872   7.315  0.0423  0.3530 -1.5072
 4147TIP3   OH233999   3.513   4.815   0.230 -0.1286 -0.3703 -0.1057
 4147TIP3    H134000   3.422   4.838   0.249 -0.1443 -0.6904  0.2144
 4147TIP3    H234001   3.542   4.881   0.166  0.6700  2.2184  2.7266
 4148TIP3   OH234002   1.403   3.284   7.330  0.0505 -0.3584 -0.1703
 4148TIP3    H134003   1.342   3.278   7.404 -0.3928  1.6721 -0.3043
 4148TIP3    H234004   1.348   3.308   7.256  1.0299  2.4546 -0.1081
 4149TIP3   OH234005   1.719   6.264   8.270 -0.0799  0.1678 -0.5183
 4149TIP3    H134006   1.641   6.285   8.321  1.4293  0.1205  1.9620
 4149TIP3    H234007   1.700   6.179   8.232 -0.7924 -0.4413  1.1014
 4150TIP3   OH234008   5.186   1.882   2.783 -0.1235  0.7664 -0.3001
 4150TIP3    H134009   5.228   1.805   2.743 -2.2080 -0.7243  0.2061
 4150TIP3    H234010   5.257   1.928   2.827  1.1788 -0.9888 -0.4462
 4151TIP3   OH234011   4.535   5.573   8.755 -0.0335 -0.1082  0.5230
 4151TIP3    H134012   4.532   5.666   8.779 -0.3765  0.3246 -1.0426
 4151TIP3    H234013   4.450   5.539   8.782  0.3373 -0.1343  1.6878
 4152TIP3   OH234014   6.663   6.273   6.919 -0.6637 -0.0656  0.0159
 4152TIP3    H134015   6.604   6.322   6.975 -0.5989  0.3952 -0.3201
 4152TIP3    H234016   6.628   6.183   6.921 -0.3204 -0.1915  1.2588
 4153TIP3   OH234017   0.471   0.977   0.718  0.7163 -0.0869 -0.4306
 4153TIP3    H134018   0.531   0.906   0.743  1.0010  0.1178 -0.5216
 4153TIP3    H234019   0.478   0.981   0.623 -0.4455 -0.9344 -0.5709
 4154TIP3   OH234020   3.372   6.101   0.755  0.3725 -0.1979 -0.2402
 4154TIP3    H134021   3.406   6.150   0.680 -0.5723  0.5230 -0.2108
 4154TIP3    H234022   3.391   6.010   0.735  0.3473  0.0092 -1.2403
 4155TIP3   OH234023   4.759   1.387   1.611 -0.0869 -0.4208  0.2163
 4155TIP3    H134024   4.668   1.389   1.642  0.1759  0.8347  0.9701
 4155TIP3    H234025   4.812   1.391   1.690  0.6477 -1.2492 -0.2143
 4156TIP3   OH234026   6.637   3.745   0.283  0.3177 -0.0426 -0.8261
 4156TIP3    H134027   6.633   3.654   0.252  0.7711 -0.4194  0.1772
 4156TIP3    H234028   6.546   3.773   0.285  0.1395 -0.6127 -0.7472
 4157TIP3   OH234029   4.668   1.471   1.204 -0.2607  0.4087 -0.3142
 4157TIP3    H134030   4.755   1.506   1.185  0.1591  0.4265  1.5023
 4157TIP3    H234031   4.644   1.511   1.288 -2.2144  0.7444 -0.9712
 4158TIP3   OH234032   0.964   3.706   0.001  0.2984  0.5130  0.3655
 4158TIP3    H134033   1.023   3.765   0.048  1.7223 -1.1170  0.7166
 4158TIP3    H234034   0.994   3.710  -0.090  3.0117 -2.4375  0.9419
 4159TIP3   OH234035   3.903   1.899   7.578 -0.5020  0.4665  0.1213
 4159TIP3    H134036   3.988   1.908   7.535 -1.3025  0.9122 -1.4579
 4159TIP3    H234037   3.849   1.968   7.539 -1.5667  0.2440  1.1544
 4160TIP3   OH234038   6.044   4.117   8.151 -0.2521  0.3176 -0.6653
 4160TIP3    H134039   6.077   4.163   8.074  0.9054  1.4750  0.4672
 4160TIP3    H234040   6.062   4.177   8.224 -0.2732 -1.2094  0.6509
 4161TIP3   OH234041   5.484   4.730   6.853 -0.3951 -0.3205 -0.4578
 4161TIP3    H134042   5.538   4.680   6.793 -1.2176 -0.3542 -1.2008
 4161TIP3    H234043   5.401   4.741   6.806 -0.5615  0.8939  0.0838
 4162TIP3   OH234044   0.960   2.121   8.801 -0.6508 -0.0320 -0.3659
 4162TIP3    H134045   0.980   2.182   8.730 -4.3388  1.7497 -0.1047
 4162TIP3    H234046   1.025   2.140   8.869  2.4885 -1.2520 -2.7630
 4163TIP3   OH234047   6.312   3.101   8.654 -0.4790  0.5498  0.1850
 4163TIP3    H134048   6.396   3.128   8.689  0.0588  0.1709 -0.7603
 4163TIP3    H234049   6.320   3.113   8.559 -0.5062 -1.9684 -0.2293
 4164TIP3   OH234050   5.149   5.634   7.445 -0.4081 -0.0480 -0.2323
 4164TIP3    H134051   5.186   5.549   7.468  0.0476  0.4028  0.7719
 4164TIP3    H234052   5.116   5.670   7.527  1.4481  1.7140 -0.1667
 4165TIP3   OH234053   3.470   3.507   6.568 -0.1816 -0.4929 -0.4977
 4165TIP3    H134054   3.547   3.459   6.597 -0.4008  0.0037  0.9857
 4165TIP3    H234055   3.506   3.591   6.537 -0.0351 -0.6585 -0.7829
 4166TIP3   OH234056   3.532   1.959   0.118 -0.2226 -0.0626 -0.3901
 4166TIP3    H134057   3.590   1.922   0.185 -1.3175 -0.9508  0.1082
 4166TIP3    H234058   3.585   2.024   0.073  1.2529 -1.0607 -0.1553
 4167TIP3   OH234059   0.292   5.963   1.430 -0.1123  0.4854  0.0661
 4167TIP3    H134060   0.248   6.047   1.443  0.2963  0.6150  0.6471
 4167TIP3    H234061   0.248   5.904   1.491 -1.2361 -0.0538 -1.2068
 4168TIP3   OH234062   4.335   1.448   1.163  0.3192  0.8504 -0.3655
 4168TIP3    H134063   4.315   1.464   1.071  1.5009  0.3461 -0.7239
 4168TIP3    H234064   4.306   1.358   1.179  1.0437  0.5812 -0.5303
 4169TIP3   OH234065   1.541   6.187   6.871  0.2403 -0.3396 -0.0574
 4169TIP3    H134066   1.600   6.127   6.916 -0.1858 -1.1920 -0.6056
 4169TIP3    H234067   1.597   6.237   6.812  0.5622 -0.3621  0.2276
 4170TIP3   OH234068   5.979   6.586   7.283 -0.0639 -0.4321  0.3019
 4170TIP3    H134069   5.975   6.519   7.351  0.7908 -1.7137 -0.8595
 4170TIP3    H234070   5.934   6.547   7.208 -0.3030  0.6485 -0.1512
 4171TIP3   OH234071   1.848   5.539   8.032 -0.2689 -0.2646  0.2223
 4171TIP3    H134072   1.943   5.544   8.027 -0.2513 -1.7220 -1.4444
 4171TIP3    H234073   1.821   5.629   8.052  1.3720  0.4293 -0.5277
 4172TIP3   OH234074   4.864   5.955   0.744  0.7855  0.1049  0.6500
 4172TIP3    H134075   4.805   5.940   0.817  0.4543  0.3222  0.4272
 4172TIP3    H234076   4.844   5.884   0.683  0.4720  0.4091  0.3958
 4173TIP3   OH234077   0.986   1.148   8.521 -0.1947 -0.2279  0.9294
 4173TIP3    H134078   1.080   1.166   8.509  0.6689 -4.4354 -0.5872
 4173TIP3    H234079   0.942   1.216   8.469  2.2878 -0.3509 -1.5962
 4174TIP3   OH234080   4.330   1.841   7.759 -0.0524  0.2195 -0.3524
 4174TIP3    H134081   4.269   1.855   7.687  1.4866  2.7550 -1.2882
 4174TIP3    H234082   4.413   1.822   7.716 -0.1455 -4.1514  0.8816
 4175TIP3   OH234083   3.770   5.325   7.228  0.6430 -0.4808 -0.6231
 4175TIP3    H134084   3.786   5.388   7.298 -0.6695  0.6573 -1.2867
 4175TIP3    H234085   3.849   5.327   7.175 -0.3736  2.8822 -2.2885
 4176TIP3   OH234086   6.320   1.701   2.442 -0.2575 -0.8479 -0.3157
 4176TIP3    H134087   6.293   1.761   2.512  0.5756 -0.8308  0.0015
 4176TIP3    H234088   6.253   1.711   2.374 -0.1292  0.4297 -0.2640
 4177TIP3   OH234089   4.920   3.698   8.308 -0.1474 -0.1052 -0.2541
 4177TIP3    H134090   4.930   3.729   8.398 -0.8559 -1.5732  0.3684
 4177TIP3    H234091   5.009   3.686   8.277  0.1505 -1.6956  1.0558
 4178TIP3   OH234092   4.772   1.931   0.705 -0.0865 -0.6596  0.3413
 4178TIP3    H134093   4.848   1.917   0.761  0.5948  1.2483 -0.0422
 4178TIP3    H234094   4.796   1.892   0.621  0.1048 -0.8475  0.4826
 4179TIP3   OH234095   2.015   6.143   7.205  0.1423 -0.4249  0.0634
 4179TIP3    H134096   1.998   6.186   7.289 -0.3089 -2.0158  0.8148
 4179TIP3    H234097   2.042   6.054   7.228 -1.2276 -1.3118 -1.4871
 4180TIP3   OH234098   6.370   2.307   1.885  0.1362  0.2637 -0.5132
 4180TIP3    H134099   6.322   2.228   1.860 -0.8278 -0.0232  2.0403
 4180TIP3    H234100   6.457   2.275   1.909  0.3121  0.2357 -1.1647
 4181TIP3   OH234101   4.626   4.472   1.213 -0.3107 -0.5735 -0.1777
 4181TIP3    H134102   4.709   4.429   1.232  0.1334 -0.1303 -1.0472
 4181TIP3    H234103   4.614   4.458   1.119 -1.7515 -1.5468  0.1206
 4182TIP3   OH234104   1.238   6.254   0.903  0.2085 -0.2139 -0.5566
 4182TIP3    H134105   1.212   6.226   0.815 -4.1350 -0.6358  0.5965
 4182TIP3    H234106   1.156   6.255   0.952  2.2119  1.4668  3.1418
 4183TIP3   OH234107   2.892   5.550   1.695 -0.0189 -0.2837  0.1699
 4183TIP3    H134108   2.810   5.534   1.649  0.7085 -1.3662 -0.7793
 4183TIP3    H234109   2.924   5.634   1.660 -0.9213  0.3781  0.8824
 4184TIP3   OH234110   2.161   2.911   1.234  0.4759  0.2958 -0.3626
 4184TIP3    H134111   2.134   2.979   1.296  1.4650 -0.4773  0.9769
 4184TIP3    H234112   2.241   2.945   1.194  0.7003  0.1562 -0.0461
 4185TIP3   OH234113   3.627   1.986   6.992 -0.1836  0.2738  0.5717
 4185TIP3    H134114   3.657   2.061   6.941  2.1421 -0.9935 -0.0511
 4185TIP3    H234115   3.578   1.932   6.929 -1.4140  0.9848  0.8951
 4186TIP3   OH234116   0.883   2.816   7.224  0.3248 -0.3960 -0.2669
 4186TIP3    H134117   0.874   2.911   7.225 -0.9952 -0.4987 -0.5010
 4186TIP3    H234118   0.902   2.795   7.132  0.7675 -0.3521 -0.1872
 4187TIP3   OH234119   4.030   2.314   1.495  0.0440  0.7170 -0.1894
 4187TIP3    H134120   4.033   2.406   1.521  0.4759  0.8273 -0.6103
 4187TIP3    H234121   3.980   2.314   1.413 -0.4015  0.5105  0.0838
 4188TIP3   OH234122   5.303   1.004   7.220  0.2728  0.0589  0.4489
 4188TIP3    H134123   5.249   0.971   7.148  1.7972  0.5113 -0.9682
 4188TIP3    H234124   5.290   1.098   7.219  1.3630  0.2161 -0.1681
 4189TIP3   OH234125   1.716   1.904   0.700  0.1854 -0.0867  0.1463
 4189TIP3    H134126   1.799   1.923   0.655  0.5558  0.0982  0.9024
 4189TIP3    H234127   1.717   1.810   0.713 -0.8343 -0.4574 -1.9912
 4190TIP3   OH234128   1.813   2.545   0.979  0.2381  0.0793 -0.4618
 4190TIP3    H134129   1.825   2.545   1.074 -0.8897  2.0678 -0.2634
 4190TIP3    H234130   1.890   2.591   0.945  0.2965 -0.0177 -0.4627
 4191TIP3   OH234131   3.818   0.996   1.349  0.0056 -0.0100 -0.3699
 4191TIP3    H134132   3.913   1.002   1.345  0.0937 -0.3109  0.8230
 4191TIP3    H234133   3.789   1.006   1.258  1.1693  0.0390 -0.7499
 4192TIP3   OH234134   6.750   2.885   2.520 -0.0980  0.5996 -0.0066
 4192TIP3    H134135   6.812   2.883   2.446  1.5859 -0.8460  1.3511
 4192TIP3    H234136   6.806   2.883   2.597 -1.8710 -0.3303  1.3081
 4193TIP3   OH234137   5.145   2.815   8.813  0.1414 -0.3334 -0.5903
 4193TIP3    H134138   5.062   2.790   8.854  0.5793  0.0667  0.5650
 4193TIP3    H234139   5.174   2.735   8.768 -0.3414 -0.7804 -0.1269
 4194TIP3   OH234140   2.035   1.040   8.720  0.1068  0.1187 -0.7026
 4194TIP3    H134141   2.069   0.961   8.678  1.9507 -0.2794  1.3806
 4194TIP3    H234142   2.099   1.107   8.700  1.8053 -0.3967  2.4221
 4195TIP3   OH234143   6.339   4.930   8.307  0.4801 -0.6423  0.1879
 4195TIP3    H134144   6.297   4.926   8.221  0.2292 -0.3726  0.2943
 4195TIP3    H234145   6.426   4.966   8.291 -0.2194  1.1873  0.2657
 4196TIP3   OH234146   4.019   0.618   8.729  0.6790  0.0975  0.3968
 4196TIP3    H134147   4.073   0.695   8.744 -0.1970  0.6473  0.8156
 4196TIP3    H234148   3.961   0.613   8.805  1.3538 -1.5479  0.8612
 4197TIP3   OH234149   2.358   1.648   8.408  0.2618  0.7447  0.4407
 4197TIP3    H134150   2.407   1.566   8.418 -1.7765 -0.5595  0.1982
 4197TIP3    H234151   2.397   1.691   8.332 -0.8095 -1.6841 -1.5989
 4198TIP3   OH234152   5.018   0.757   7.146 -0.3218  0.2442  0.3764
 4198TIP3    H134153   5.099   0.794   7.112 -0.6646  1.9389  1.2754
 4198TIP3    H234154   5.041   0.667   7.171  0.3013 -0.5637 -2.7674
 4199TIP3   OH234155   3.151   0.024   1.324 -0.0506 -0.3423  0.0442
 4199TIP3    H134156   3.115   0.048   1.410 -1.2951  0.8701 -0.7692
 4199TIP3    H234157   3.090  -0.040   1.289  0.4220 -0.7873  0.0177
 4200TIP3   OH234158   2.122   3.066   1.456 -0.3563  0.2664 -0.3993
 4200TIP3    H134159   2.082   3.143   1.496  0.4218  0.8461 -0.7048
 4200TIP3    H234160   2.104   2.995   1.517 -2.2468  0.4082 -0.7589
 4201TIP3   OH234161   3.601   6.644   1.051  0.5571  0.0807 -1.1079
 4201TIP3    H134162   3.551   6.697   0.988 -0.1574 -1.9728 -2.3454
 4201TIP3    H234163   3.606   6.700   1.129 -1.7613  1.2633 -1.6997
 4202TIP3   OH234164   6.015   6.536   8.597 -0.0919  0.0617 -0.4211
 4202TIP3    H134165   5.963   6.609   8.564 -1.6458 -1.1142 -0.6816
 4202TIP3    H234166   5.973   6.512   8.679  0.1225 -0.8187 -0.5597
 4203TIP3   OH234167   3.818   4.371   2.778 -0.3241  0.4029 -0.6510
 4203TIP3    H134168   3.811   4.395   2.685 -2.1727  2.3895 -0.0727
 4203TIP3    H234169   3.858   4.448   2.819  0.0381 -0.2787  0.2980
 4204TIP3   OH234170   2.228   2.578   1.592  0.2671  0.3442  0.0551
 4204TIP3    H134171   2.187   2.581   1.678  0.4460  2.8084  0.1220
 4204TIP3    H234172   2.298   2.642   1.596  2.0431 -1.4010 -1.1294
 4205TIP3   OH234173   1.878   2.715   8.867 -0.1304  0.0982 -0.3110
 4205TIP3    H134174   1.953   2.768   8.839  1.7466 -2.1727  0.1728
 4205TIP3    H234175   1.893   2.700   8.960 -1.8702  0.5806  0.0830
 4206TIP3   OH234176   1.954   5.763   1.742  0.4722  0.1905 -0.4775
 4206TIP3    H134177   1.960   5.668   1.751  2.2260  0.1080 -1.9772
 4206TIP3    H234178   2.022   5.797   1.800  0.5215  0.4742 -0.6998
 4207TIP3   OH234179   1.549   4.494   1.279  0.2567  0.5966 -0.2762
 4207TIP3    H134180   1.496   4.414   1.279  1.8985 -0.5705  1.1754
 4207TIP3    H234181   1.583   4.499   1.190 -0.1233 -0.1640 -0.4774
 4208TIP3   OH234182   3.397   6.563   8.019  0.1908  0.0917  0.1536
 4208TIP3    H134183   3.325   6.598   8.071  0.6528  0.3265  0.6435
 4208TIP3    H234184   3.445   6.640   7.989  0.3290 -0.0684 -0.0383
 4209TIP3   OH234185   5.533   0.026   1.610  0.0553  0.4451 -0.3566
 4209TIP3    H134186   5.597  -0.012   1.670 -1.5293  0.8505  1.6767
 4209TIP3    H234187   5.558  -0.009   1.524  2.5766  0.0797  0.4424
 4210TIP3   OH234188   4.043   6.301   0.660  0.4860  0.3865  0.1908
 4210TIP3    H134189   4.006   6.228   0.709  1.1159 -0.3448 -0.4010
 4210TIP3    H234190   4.016   6.379   0.709 -0.6822 -0.1966  0.5099
 4211TIP3   OH234191   4.233   0.682   0.109 -0.1753 -0.0202 -0.0526
 4211TIP3    H134192   4.190   0.704   0.192  0.3283  2.8941 -0.4744
 4211TIP3    H234193   4.320   0.653   0.134 -1.2331 -3.0584  0.5956
 4212TIP3   OH234194   6.118   0.760   7.480  0.6920 -0.3701 -0.6509
 4212TIP3    H134195   6.119   0.703   7.402  3.2615 -0.4173 -0.6750
 4212TIP3    H234196   6.190   0.727   7.534  0.7580  1.4382  0.4279
 4213TIP3   OH234197   6.301   2.958   1.038  0.3179  0.3632 -0.0247
 4213TIP3    H134198   6.251   2.979   0.959 -0.1983 -0.0040  0.1976
 4213TIP3    H234199   6.235   2.926   1.100  0.8319 -0.1463  0.2669
 4214TIP3   OH234200   1.080   5.969   6.968  0.0733  0.0476  0.1433
 4214TIP3    H134201   1.087   6.035   7.037 -0.9242 -0.3691  0.6599
 4214TIP3    H234202   1.107   6.014   6.888 -0.1360  0.9416  0.5699
 4215TIP3   OH234203   2.340   6.169   7.709  0.2872  0.1208 -0.2019
 4215TIP3    H134204   2.385   6.193   7.629  0.8159 -0.2259 -0.0111
 4215TIP3    H234205   2.262   6.122   7.680 -0.3399  1.3169 -0.5528
 4216TIP3   OH234206   2.003   6.213   7.490  0.3586 -0.9098 -0.1333
 4216TIP3    H134207   1.916   6.234   7.523  0.8833  1.9557 -0.3099
 4216TIP3    H234208   2.036   6.146   7.550 -1.1364 -0.4880  1.2346
 4217TIP3   OH234209   3.603   2.436   8.031  0.3595  0.3151  0.4449
 4217TIP3    H134210   3.672   2.483   8.077  0.5195  0.5096  0.0121
 4217TIP3    H234211   3.633   2.433   7.940 -1.3597  2.5836 -0.2605
 4218TIP3   OH234212   0.226   5.044   2.077 -0.4770 -0.0068  0.2091
 4218TIP3    H134213   0.228   5.132   2.115  3.4694  0.5624 -0.9076
 4218TIP3    H234214   0.299   4.998   2.118 -0.5174 -1.7239 -1.5011
 4219TIP3   OH234215   1.413   6.479   7.837 -0.0797 -0.7813 -0.1631
 4219TIP3    H134216   1.463   6.543   7.787 -1.1614  0.5444  0.3942
 4219TIP3    H234217   1.365   6.429   7.771 -0.5557  0.1421 -0.5359
 4220TIP3   OH234218   1.654   5.429   0.536  0.3573 -0.2382 -0.3314
 4220TIP3    H134219   1.594   5.387   0.474 -1.3219  0.4333  0.7459
 4220TIP3    H234220   1.716   5.361   0.560 -1.3627 -1.7147  0.2059
 4221TIP3   OH234221   4.020   1.754   7.934 -0.3322 -0.2039 -0.1615
 4221TIP3    H134222   4.028   1.661   7.914 -1.4738 -0.0962 -1.2033
 4221TIP3    H234223   4.109   1.789   7.923 -0.3104 -0.7544 -1.9940
 4222TIP3   OH234224   5.493   3.255   0.150 -0.1347  0.3850  0.2202
 4222TIP3    H134225   5.465   3.257   0.242  0.3815 -1.1031  0.4356
 4222TIP3    H234226   5.460   3.172   0.117  0.0000  0.7458 -0.8516
 4223TIP3   OH234227   1.943   3.632   7.882  0.2772  0.4035  1.0647
 4223TIP3    H134228   2.005   3.702   7.904  1.3575 -0.0590 -0.3319
 4223TIP3    H234229   1.866   3.678   7.847  1.2262  0.9360 -0.4339
 4224TIP3   OH234230   5.195   1.831   0.780  0.1581  0.1417  0.1178
 4224TIP3    H134231   5.210   1.779   0.702 -0.2502  0.5153 -0.2155
 4224TIP3    H234232   5.100   1.828   0.794  0.2506 -0.1202  0.7404
 4225TIP3   OH234233   0.252   0.305   0.863 -0.1690 -0.0124 -0.3860
 4225TIP3    H134234   0.216   0.218   0.881  0.5703 -0.6481 -1.7749
 4225TIP3    H234235   0.319   0.318   0.930 -1.3624  0.2043  0.8119
 4226TIP3   OH234236   3.309   3.316   1.344  0.0070 -0.6307  0.2107
 4226TIP3    H134237   3.332   3.238   1.293 -1.1126 -0.8988  0.1071
 4226TIP3    H234238   3.247   3.285   1.410 -0.4876  0.1743  0.1359
 4227TIP3   OH234239   2.293   6.416   1.138 -0.5099 -0.0081 -0.6781
 4227TIP3    H134240   2.226   6.367   1.090 -2.4302 -0.2072  2.0224
 4227TIP3    H234241   2.363   6.352   1.154 -1.4060 -0.8956 -0.2503
 4228TIP3   OH234242   5.083   4.832   0.758  0.0029  0.1739  0.5364
 4228TIP3    H134243   5.061   4.755   0.810  0.7752 -1.1338 -0.9890
 4228TIP3    H234244   5.094   4.799   0.669  0.2139  2.0836 -0.2025
 4229TIP3   OH234245   5.904   6.471   8.854 -0.1359 -0.0626 -0.2390
 4229TIP3    H134246   5.866   6.392   8.814  0.1220 -0.3318  0.0449
 4229TIP3    H234247   5.868   6.474   8.942  2.1757 -1.5747  0.8657
 4230TIP3   OH234248   5.463   6.129   2.123  0.4384 -0.2651  0.3475
 4230TIP3    H134249   5.550   6.095   2.100  0.8532  2.0954 -2.0016
 4230TIP3    H234250   5.478   6.184   2.199  1.0042  0.0367  0.0259
 4231TIP3   OH234251   1.411   5.121   6.908 -0.3781 -0.3429 -0.1334
 4231TIP3    H134252   1.340   5.066   6.873  0.2752 -0.2372 -1.7477
 4231TIP3    H234253   1.446   5.071   6.981 -1.2501 -1.0319 -0.1636
 4232TIP3   OH234254   5.876   0.154   0.943 -0.2118  0.2274  0.2177
 4232TIP3    H134255   5.879   0.134   0.850  0.8650 -0.3215  0.3423
 4232TIP3    H234256   5.949   0.103   0.980 -1.0052 -0.0592  1.4509
 4233TIP3   OH234257   4.500   2.847   8.412  0.1752  0.1392  0.5617
 4233TIP3    H134258   4.439   2.774   8.427  0.3604 -0.9994 -3.1007
 4233TIP3    H234259   4.447   2.912   8.366  1.3049 -0.2604 -1.4040
 4234TIP3   OH234260   3.671   5.746   1.882 -0.0576 -0.0885  0.1423
 4234TIP3    H134261   3.702   5.671   1.830  1.0976 -0.2543  1.0445
 4234TIP3    H234262   3.724   5.820   1.852  0.9743 -0.2902  1.4153
 4235TIP3   OH234263   5.811   1.298   8.548  0.4255  0.4093  0.3986
 4235TIP3    H134264   5.831   1.285   8.641  0.1145  1.3819  0.6196
 4235TIP3    H234265   5.716   1.289   8.543 -0.0264  3.7488  0.8450
 4236TIP3   OH234266   1.928   2.022   0.431  0.4831  0.1705  0.2007
 4236TIP3    H134267   1.836   2.035   0.408  0.3040  0.7047  1.1495
 4236TIP3    H234268   1.967   2.109   0.423  0.2341  0.5781  2.5380
 4237TIP3   OH234269   2.937   5.153   1.101 -0.2805 -0.6649 -0.1417
 4237TIP3    H134270   2.928   5.199   1.185  0.8218 -0.0495 -0.3369
 4237TIP3    H234271   3.002   5.085   1.118  0.4859 -0.0842 -0.6561
 4238TIP3   OH234272   4.862   6.600   1.826  0.0390 -0.4309 -0.6446
 4238TIP3    H134273   4.808   6.611   1.904  0.4689  0.8795 -0.5225
 4238TIP3    H234274   4.854   6.683   1.779  2.7151  0.2148 -0.1246
 4239TIP3   OH234275   3.082   0.778   1.739  0.3731  0.0806  0.2660
 4239TIP3    H134276   3.030   0.841   1.789 -2.2470 -1.2747 -0.6119
 4239TIP3    H234277   3.126   0.831   1.673 -0.3444  1.2089  0.6646
 4240TIP3   OH234278   6.190   3.812   1.291 -0.5120  0.6504 -0.3816
 4240TIP3    H134279   6.162   3.872   1.223 -0.6247  1.0836  0.0389
 4240TIP3    H234280   6.113   3.802   1.347 -0.9492 -0.9944 -1.2136
 4241TIP3   OH234281   2.847   1.244   1.537 -0.8106  0.1500 -0.1902
 4241TIP3    H134282   2.897   1.324   1.551 -0.2039 -0.4093  1.0195
 4241TIP3    H234283   2.775   1.249   1.600 -0.0978 -0.7679  0.7475
 4242TIP3   OH234284   5.218   0.489   0.778 -0.6557 -0.6229 -0.0198
 4242TIP3    H134285   5.217   0.398   0.749  0.9215 -0.2852 -1.2743
 4242TIP3    H234286   5.248   0.485   0.869  1.9233 -1.2347 -0.8229
 4243TIP3   OH234287   3.796   6.518   0.608  0.3871  0.4292  0.4021
 4243TIP3    H134288   3.829   6.509   0.519 -0.1760  1.2291  0.0948
 4243TIP3    H234289   3.707   6.553   0.597 -0.0890 -0.4714  1.2419
 4244TIP3   OH234290   0.878   5.456   2.230  0.1276 -0.0159  1.1650
 4244TIP3    H134291   0.825   5.504   2.293 -1.1527 -1.1290  0.9760
 4244TIP3    H234292   0.817   5.396   2.188  0.5239  1.6931 -2.2379
 4245TIP3   OH234293   0.535   2.577   1.084 -0.3002 -0.0536 -0.2461
 4245TIP3    H134294   0.624   2.557   1.057  0.2696  2.5820 -0.5379
 4245TIP3    H234295   0.492   2.492   1.088  1.7452 -1.2420 -1.7487
 4246TIP3   OH234296   1.118   2.212   0.183  0.1127 -0.2278  0.2022
 4246TIP3    H134297   1.121   2.195   0.277  0.0361  0.6193  0.3705
 4246TIP3    H234298   1.206   2.190   0.152  0.5369  0.6672  0.7033
 4247TIP3   OH234299   6.394   3.853   8.375  0.1898 -0.3781  0.2548
 4247TIP3    H134300   6.429   3.788   8.314  0.0892 -1.5282  1.3848
 4247TIP3    H234301   6.388   3.806   8.458  0.4359  1.1910  1.1784
 4248TIP3   OH234302   1.788   1.058   6.386  0.0852  0.7424  0.2161
 4248TIP3    H134303   1.826   1.003   6.317 -0.4762 -1.5871  1.6334
 4248TIP3    H234304   1.861   1.078   6.444  0.2327  1.2411 -0.1386
 4249TIP3   OH234305   2.502   3.274   0.052 -0.3075 -0.0906  0.4904
 4249TIP3    H134306   2.478   3.343   0.114 -1.3881 -1.0075  1.1438
 4249TIP3    H234307   2.586   3.302   0.016 -0.3365  1.1642  1.3272
 4250TIP3   OH234308   1.397   6.385   8.764  0.0633  0.2812  0.5085
 4250TIP3    H134309   1.324   6.349   8.714  1.8380 -1.5500 -0.9511
 4250TIP3    H234310   1.400   6.333   8.845  0.2222 -0.2054  0.1944
 4251TIP3   OH234311   3.157   5.608   0.114  0.4025 -0.3866 -0.4926
 4251TIP3    H134312   3.225   5.657   0.067  2.2764 -1.8750  0.5392
 4251TIP3    H234313   3.118   5.672   0.173  0.1758  0.7365 -1.8050
 4252TIP3   OH234314   6.306   6.055   1.572 -0.8452  0.4516  0.1621
 4252TIP3    H134315   6.246   5.983   1.553  0.0874 -0.1722 -0.5127
 4252TIP3    H234316   6.258   6.134   1.547 -1.4875 -0.0129 -0.1029
 4253TIP3   OH234317   0.529   6.476   1.638  0.0679 -0.0544 -0.2252
 4253TIP3    H134318   0.593   6.425   1.688  1.3204  1.5605 -0.0799
 4253TIP3    H234319   0.500   6.545   1.698  0.0190  0.6658 -1.0478
 4254TIP3   OH234320   5.034   2.584   2.736 -0.0643  0.1436 -0.5071
 4254TIP3    H134321   5.074   2.548   2.815 -0.1302 -0.5647 -0.7911
 4254TIP3    H234322   5.078   2.539   2.664 -0.9091 -0.1753 -0.8354
 4255TIP3   OH234323   3.256   2.378   1.442  0.1189 -0.2527 -0.2025
 4255TIP3    H134324   3.255   2.392   1.537  2.6011 -0.5341 -0.0816
 4255TIP3    H234325   3.302   2.454   1.407  2.5011 -1.8313 -0.7594
 4256TIP3   OH234326   5.946   5.851   0.347  0.2414 -0.5009 -0.8522
 4256TIP3    H134327   5.986   5.938   0.351  1.4153 -0.9845 -1.4048
 4256TIP3    H234328   6.007   5.794   0.394  1.3541 -1.6343 -3.4274
 4257TIP3   OH234329   4.823   6.046   2.039  0.2398 -0.0649  0.0380
 4257TIP3    H134330   4.868   5.975   2.084 -0.7391 -1.2972 -0.8717
 4257TIP3    H234331   4.732   6.040   2.068 -0.1362 -0.0678 -1.0821
 4258TIP3   OH234332   5.303   0.224   1.128 -0.2254  0.2356 -0.6911
 4258TIP3    H134333   5.322   0.313   1.099 -0.0409  0.2169 -0.6284
 4258TIP3    H234334   5.215   0.230   1.166  0.3702  0.7124  0.6648
 4259TIP3   OH234335   6.155   1.566   6.771 -0.4795 -0.5561 -0.7498
 4259TIP3    H134336   6.195   1.652   6.757 -1.7149  0.3000  0.6463
 4259TIP3    H234337   6.145   1.530   6.683  1.5140  0.0127 -1.2722
 4260TIP3   OH234338   6.273   0.588   0.044  0.0151 -0.0244  0.2653
 4260TIP3    H134339   6.223   0.635   0.110  0.2897 -2.0327  2.0016
 4260TIP3    H234340   6.207   0.551  -0.015 -0.2458  1.4920 -0.4306
 4261TIP3   OH234341   0.417   2.854   8.395  0.1227 -0.3954  0.2537
 4261TIP3    H134342   0.496   2.875   8.445  0.3989 -0.9940  0.0839
 4261TIP3    H234343   0.401   2.932   8.342  0.4101 -0.1399  0.5345
 4262TIP3   OH234344   6.383   5.201   7.840  0.3875  0.3077 -0.2259
 4262TIP3    H134345   6.343   5.272   7.790 -0.2156  0.8866  1.0212
 4262TIP3    H234346   6.312   5.167   7.894  0.7435 -1.0675 -0.6022
 4263TIP3   OH234347   2.781   2.080   8.541 -0.1862 -0.2009  0.1870
 4263TIP3    H134348   2.790   2.176   8.541  1.1931 -0.3004  0.8265
 4263TIP3    H234349   2.871   2.048   8.552 -0.7968 -1.5570  1.5295
 4264TIP3   OH234350   4.205   5.440   7.863 -0.1640  0.1476  0.1841
 4264TIP3    H134351   4.229   5.517   7.915 -0.5231  0.6905 -0.4343
 4264TIP3    H234352   4.121   5.464   7.823  0.4172  0.0082 -1.1612
 4265TIP3   OH234353   1.045   3.178   8.016 -0.2148 -0.0031  0.3613
 4265TIP3    H134354   1.026   3.101   7.963 -3.4324  0.9136 -0.0281
 4265TIP3    H234355   1.122   3.217   7.974  0.6429 -2.1832 -0.2632
 4266TIP3   OH234356   6.175   5.230   6.710 -0.2388 -0.0819 -0.1253
 4266TIP3    H134357   6.186   5.321   6.679  1.4081 -0.5323 -1.0248
 4266TIP3    H234358   6.113   5.192   6.648 -0.9546  0.4136  0.2658
 4267TIP3   OH234359   0.160   0.622   6.880 -0.5332 -0.4354 -0.1478
 4267TIP3    H134360   0.222   0.609   6.808 -0.7905  3.3920 -1.2832
 4267TIP3    H234361   0.084   0.665   6.839 -2.0461 -0.9794  1.9267
 4268TIP3   OH234362   5.943   1.574   0.371 -0.4333  0.3025 -0.4142
 4268TIP3    H134363   5.908   1.626   0.444 -3.5501 -2.0165 -0.0562
 4268TIP3    H234364   5.996   1.507   0.414 -1.6148 -0.5772 -0.2825
 4269TIP3   OH234365   6.545   6.675   0.955  0.3564 -0.3729 -0.1756
 4269TIP3    H134366   6.631   6.685   0.997  1.5932 -0.3636 -2.5220
 4269TIP3    H234367   6.554   6.721   0.872 -2.2317  0.3182 -0.1517
 4270TIP3   OH234368   3.066   3.594   8.854  0.0448  0.1790  0.1587
 4270TIP3    H134369   3.021   3.584   8.770  2.9173  0.1553 -1.5236
 4270TIP3    H234370   3.137   3.530   8.851  1.6369  1.7705  1.5695
 4271TIP3   OH234371   2.317   0.723   2.500 -0.3761 -0.2245 -0.0379
 4271TIP3    H134372   2.408   0.697   2.489 -0.5652 -0.3124 -1.7974
 4271TIP3    H234373   2.272   0.641   2.523 -0.1060 -0.3033  0.2148
 4272TIP3   OH234374   5.722   6.613   6.024 -0.5970  0.0647 -0.3193
 4272TIP3    H134375   5.654   6.585   6.085  2.0099 -0.7974  2.4297
 4272TIP3    H234376   5.695   6.701   5.996 -2.3021  0.1738  1.4749
 4273TIP3   OH234377   4.856   3.377   0.349  0.1706  0.0799 -0.2111
 4273TIP3    H134378   4.938   3.353   0.392  1.8161  2.3113 -1.8086
 4273TIP3    H234379   4.814   3.438   0.410  0.6771  0.3926 -0.1659
 4274TIP3   OH234380   1.824   1.918   1.350 -0.7128  0.6906 -0.0653
 4274TIP3    H134381   1.870   1.850   1.301 -2.0367 -0.7020  0.5514
 4274TIP3    H234382   1.756   1.950   1.291 -1.3228  0.0929  0.2946
 4275TIP3   OH234383   4.934   6.193   1.631  0.0657  0.6816  0.1039
 4275TIP3    H134384   4.868   6.240   1.682 -1.3716 -1.4959  0.4161
 4275TIP3    H234385   4.903   6.102   1.631  2.0242 -0.0549 -1.4940
 4276TIP3   OH234386   4.160   3.471   7.849  0.8046 -0.2592 -0.2522
 4276TIP3    H134387   4.224   3.540   7.869  0.5862  0.1053 -0.8048
 4276TIP3    H234388   4.075   3.513   7.860  0.6717 -0.3479 -0.8858
 4277TIP3   OH234389   6.248   6.733   7.013 -0.3757  0.3234  0.1630
 4277TIP3    H134390   6.261   6.650   7.059  0.7149  0.2144 -0.2960
 4277TIP3    H234391   6.323   6.787   7.040 -0.1017  0.5124 -0.9040
 4278TIP3   OH234392   4.368   0.540   8.270 -0.2168 -0.0644 -0.5012
 4278TIP3    H134393   4.389   0.492   8.350 -0.4673 -0.6250 -0.7709
 4278TIP3    H234394   4.430   0.507   8.205  0.1607  0.5772 -0.4821
 4279TIP3   OH234395   0.536   3.578   2.276  0.2831 -0.3283  0.3140
 4279TIP3    H134396   0.545   3.601   2.368  0.8610 -0.0974  0.2014
 4279TIP3    H234397   0.441   3.580   2.260  0.1823 -0.3914  0.9046
 4280TIP3   OH234398   3.078   4.798   7.161  0.3589 -0.5565  0.1816
 4280TIP3    H134399   2.998   4.824   7.205 -0.6157 -2.3020 -0.4404
 4280TIP3    H234400   3.112   4.725   7.213  1.6652  0.2748  0.5402
 4281TIP3   OH234401   0.929   3.526   0.680 -0.6513 -0.3065  0.0720
 4281TIP3    H134402   0.908   3.571   0.762 -2.3968 -0.8695 -0.0155
 4281TIP3    H234403   1.009   3.477   0.699 -0.5225  0.3065  1.1502
 4282TIP3   OH234404   1.353   0.919   7.078 -0.3721  0.5961  0.5499
 4282TIP3    H134405   1.349   1.011   7.105  2.1305  1.4438 -1.4787
 4282TIP3    H234406   1.445   0.895   7.090 -0.0175 -0.2407 -2.7645
 4283TIP3   OH234407   1.740   6.202   0.051 -0.1401 -0.0022  0.6088
 4283TIP3    H134408   1.706   6.281   0.093  0.3454  0.0847  0.8423
 4283TIP3    H234409   1.816   6.177   0.104  0.4669  0.0956 -0.2005
 4284TIP3   OH234410   0.137   3.499   8.051 -0.7725  0.8164 -0.5736
 4284TIP3    H134411   0.076   3.569   8.077 -1.8619 -0.0333 -0.7965
 4284TIP3    H234412   0.082   3.431   8.014  0.4536  0.7305 -2.4374
 4285TIP3   OH234413   3.166   1.078   8.266 -0.2960 -0.0831 -0.3249
 4285TIP3    H134414   3.220   1.135   8.212  0.1063 -0.8800 -0.7824
 4285TIP3    H234415   3.215   1.067   8.347 -0.0168 -0.3828 -0.5330
 4286TIP3   OH234416   0.305   1.749   0.604  0.1198  0.1887 -0.5232
 4286TIP3    H134417   0.225   1.705   0.579 -0.5918 -0.2312  2.1363
 4286TIP3    H234418   0.359   1.681   0.645 -0.3688  1.3220  2.2946
 4287TIP3   OH234419   2.981   3.136   7.797 -0.1269 -0.3261  0.7528
 4287TIP3    H134420   2.900   3.160   7.751  0.5402  1.8323  0.6046
 4287TIP3    H234421   3.038   3.102   7.728 -0.2757 -0.1596  0.5453
 4288TIP3   OH234422   1.428   2.504   7.529 -0.0704 -0.0431  0.2145
 4288TIP3    H134423   1.477   2.424   7.511 -0.7851 -0.3779 -0.3160
 4288TIP3    H234424   1.493   2.574   7.522  0.3361 -0.4747 -0.4575
 4289TIP3   OH234425   1.250   1.874   8.538 -0.1098 -0.0293  0.0870
 4289TIP3    H134426   1.182   1.918   8.486  1.2882 -0.6619 -2.4555
 4289TIP3    H234427   1.258   1.788   8.497  1.2915 -0.4577  1.2061
 4290TIP3   OH234428   5.429   4.016   8.153 -0.1086  0.0801  0.0766
 4290TIP3    H134429   5.460   4.036   8.242 -0.6638  4.1240 -0.4157
 4290TIP3    H234430   5.475   4.079   8.098 -1.9683 -0.3073 -2.0545
 4291TIP3   OH234431   3.020   5.518   6.819  0.0758  0.1259 -0.1134
 4291TIP3    H134432   2.980   5.437   6.788 -0.1456 -0.9054  2.5593
 4291TIP3    H234433   2.998   5.521   6.912  2.1220  2.0229  0.3966
 4292TIP3   OH234434   6.509   3.861   1.217  0.3600 -0.1841 -0.4156
 4292TIP3    H134435   6.489   3.770   1.241 -0.5229  0.0227 -0.3370
 4292TIP3    H234436   6.478   3.912   1.292  0.2595  0.2375 -0.7452
 4293TIP3   OH234437   5.373   1.124   8.037  0.0085 -0.4793 -0.1969
 4293TIP3    H134438   5.337   1.040   8.008 -0.8585 -0.0534 -0.3898
 4293TIP3    H234439   5.413   1.161   7.958 -0.1872 -0.4287 -0.2756
 4294TIP3   OH234440   5.314   1.071   0.639  0.1471 -0.3138  0.0460
 4294TIP3    H134441   5.325   1.002   0.705 -4.7765 -1.6626 -0.1472
 4294TIP3    H234442   5.302   1.151   0.690 -0.6845 -0.8364  0.7015
 4295TIP3   OH234443   2.797   3.137   0.156 -0.4212  0.4525 -0.6746
 4295TIP3    H134444   2.874   3.183   0.122  0.5629  0.1528  1.0573
 4295TIP3    H234445   2.766   3.086   0.081  1.2326  0.3594 -1.3537
 4296TIP3   OH234446   6.220   0.042   8.504 -0.0883 -0.3720 -0.2756
 4296TIP3    H134447   6.280   0.045   8.429  0.7745 -3.2435  0.1864
 4296TIP3    H234448   6.153  -0.021   8.479 -0.7664 -0.0697  0.7107
 4297TIP3   OH234449   2.746   6.754   0.462 -0.3279  0.1801 -0.0222
 4297TIP3    H134450   2.815   6.768   0.526 -0.8039 -1.3319  0.8902
 4297TIP3    H234451   2.667   6.789   0.503 -0.5624 -0.4479  0.0834
 4298TIP3   OH234452   5.449   5.814   0.821  0.5639  0.8278  0.0271
 4298TIP3    H134453   5.441   5.812   0.725  1.5890 -0.7796 -0.0535
 4298TIP3    H234454   5.443   5.723   0.848  2.6659  0.9822  1.2656
 4299TIP3   OH234455   0.351   1.577   1.462 -0.1497  0.0125  0.1282
 4299TIP3    H134456   0.278   1.542   1.412 -1.7655 -0.1993  2.4747
 4299TIP3    H234457   0.427   1.568   1.404 -2.0327  0.7232 -2.5750
 4300TIP3   OH234458   3.068   1.225   6.758  0.4833 -0.2355  0.4621
 4300TIP3    H134459   3.150   1.188   6.727 -0.6748 -2.5290 -0.0621
 4300TIP3    H234460   3.006   1.208   6.687 -0.5279  1.2057  0.9571
 4301TIP3   OH234461   4.271   1.487   0.891  0.2251  0.5841 -0.2876
 4301TIP3    H134462   4.224   1.564   0.859  1.3963  0.8413 -1.4969
 4301TIP3    H234463   4.277   1.429   0.816 -2.2723 -1.6205  1.0689
 4302TIP3   OH234464   5.764   4.402   6.851  0.1822  0.3914  0.0358
 4302TIP3    H134465   5.685   4.350   6.864 -0.2442  1.0945  0.2904
 4302TIP3    H234466   5.824   4.343   6.805 -0.2701 -0.3429  0.3645
 4303TIP3   OH234467   0.654   6.756   8.820  0.4613  0.1370 -0.4056
 4303TIP3    H134468   0.688   6.839   8.787 -0.0855  0.2696 -0.6590
 4303TIP3    H234469   0.561   6.773   8.836  0.6561 -0.0015  0.9885
 4304TIP3   OH234470   1.138   2.316   1.231 -0.1000 -0.3301 -0.1178
 4304TIP3    H134471   1.098   2.279   1.152  2.4866 -0.1871 -1.6122
 4304TIP3    H234472   1.199   2.382   1.198  1.5802 -0.7431  1.9384
 4305TIP3   OH234473   3.718   2.250   0.510 -0.6028 -0.0054  0.0824
 4305TIP3    H134474   3.647   2.310   0.488  0.6375  0.9546 -1.5836
 4305TIP3    H234475   3.792   2.307   0.533  0.3063 -0.8865 -0.5330
 4306TIP3   OH234476   1.725   2.985   8.478  0.0258  0.0069  0.0673
 4306TIP3    H134477   1.729   3.023   8.390  0.4425 -0.4874 -0.1293
 4306TIP3    H234478   1.806   2.934   8.486  0.0504  0.1421  0.7812
 4307TIP3   OH234479   5.847   6.445   2.290 -0.4743  0.5757  0.5712
 4307TIP3    H134480   5.782   6.500   2.247 -0.9629 -0.9612 -0.7335
 4307TIP3    H234481   5.907   6.419   2.220 -0.3917 -0.7339  1.0919
 4308TIP3   OH234482   1.918   4.831   2.141 -0.8156 -0.0774 -0.0782
 4308TIP3    H134483   1.894   4.888   2.215  1.6097 -0.6365  1.2459
 4308TIP3    H234484   1.897   4.743   2.173  1.7557 -0.4776  0.6960
 4309TIP3   OH234485   1.082   5.688   7.588  0.2751  0.1704 -0.1952
 4309TIP3    H134486   1.167   5.700   7.631  1.3078 -1.2025 -1.7169
 4309TIP3    H234487   1.018   5.708   7.656  1.8034 -1.2873  1.8083
 4310TIP3   OH234488   5.624   3.019   7.777  0.0452  0.1161 -0.3688
 4310TIP3    H134489   5.625   2.927   7.802 -1.2900  0.0152 -0.5702
 4310TIP3    H234490   5.716   3.043   7.767  0.4625 -0.8743  0.8343
 4311TIP3   OH234491   6.334   2.970   1.424 -0.0087 -0.4382  0.6375
 4311TIP3    H134492   6.263   2.937   1.369  0.4011  0.3703 -0.4154
 4311TIP3    H234493   6.319   3.064   1.429  1.8870  0.0321 -1.0262
 4312TIP3   OH234494   6.608   1.116   8.161 -0.2251  0.6417  0.0915
 4312TIP3    H134495   6.555   1.171   8.103  0.4652  0.8473 -0.3481
 4312TIP3    H234496   6.691   1.106   8.115  0.6782  1.5641  1.4626
 4313TIP3   OH234497   6.709   2.860   1.298  0.8592  0.0142 -0.7447
 4313TIP3    H134498   6.685   2.941   1.253  0.1767  0.1298 -0.2049
 4313TIP3    H234499   6.626   2.829   1.336  1.5369  0.4010  1.1715
 4314TIP3   OH234500   2.723   5.570   8.078  0.4602  0.1991 -0.1050
 4314TIP3    H134501   2.803   5.518   8.082  0.5261  0.2478 -0.6642
 4314TIP3    H234502   2.735   5.639   8.143  0.0736 -0.8743  1.1607
 4315TIP3   OH234503   6.275   1.584   0.142 -0.4623  0.2555 -0.0042
 4315TIP3    H134504   6.292   1.491   0.151 -0.6720  0.4005  2.5428
 4315TIP3    H234505   6.186   1.589   0.109 -0.7558 -0.4454  0.6608
 4316TIP3   OH234506   5.993   4.851   0.631  0.7985  0.6789 -0.6374
 4316TIP3    H134507   6.076   4.831   0.589  1.1858 -0.3250  0.5432
 4316TIP3    H234508   6.007   4.830   0.723 -1.3442 -1.5495 -0.6864
 4317TIP3   OH234509   4.054   5.649   8.367  0.1839 -0.4150 -0.1345
 4317TIP3    H134510   4.140   5.635   8.406  0.2012  1.0519  0.4061
 4317TIP3    H234511   4.063   5.617   8.277  0.9949 -1.1746  0.2059
 4318TIP3   OH234512   2.898   5.196   8.777 -0.4240  0.3813  0.3308
 4318TIP3    H134513   2.881   5.181   8.870 -1.1999 -1.3688 -0.0659
 4318TIP3    H234514   2.939   5.283   8.774  0.8656 -0.0829  2.4279
 4319TIP3   OH234515   3.978   1.713   8.227 -0.6484 -0.4753  0.3007
 4319TIP3    H134516   4.019   1.732   8.143 -0.5558 -1.8232  0.0216
 4319TIP3    H234517   3.924   1.790   8.245 -0.7228 -0.1957 -1.0257
 4320TIP3   OH234518   6.777   4.584   8.694 -0.2527  0.0945  0.3967
 4320TIP3    H134519   6.767   4.508   8.637  0.6204 -0.1603  0.5721
 4320TIP3    H234520   6.792   4.548   8.781  0.9399  0.4511  0.3482
 4321TIP3   OH234521   6.387   3.127   7.576  0.2505  0.3202 -0.0743
 4321TIP3    H134522   6.437   3.145   7.656 -0.7345  1.7405  0.2712
 4321TIP3    H234523   6.413   3.196   7.515  0.7613 -0.5718 -0.9043
 4322TIP3   OH234524   4.428   6.230   0.558  0.0266 -0.3636  0.5046
 4322TIP3    H134525   4.513   6.267   0.579  0.0137 -0.8334  1.4552
 4322TIP3    H234526   4.445   6.136   0.546  0.1545 -0.0683 -2.3706
 4323TIP3   OH234527   1.805   0.604   2.309 -0.1022 -0.1105 -0.3248
 4323TIP3    H134528   1.733   0.617   2.247  0.1267  0.7214 -0.4250
 4323TIP3    H234529   1.839   0.692   2.325 -1.1582 -0.0888  2.2057
 4324TIP3   OH234530   3.511   0.046   0.228 -0.6839 -0.3172 -0.5183
 4324TIP3    H134531   3.569  -0.030   0.221  1.5920  1.3891 -1.8001
 4324TIP3    H234532   3.457   0.043   0.149 -1.6322 -1.3072  0.1330
 4325TIP3   OH234533   6.726   3.477   1.893 -0.1704 -0.1374  0.0736
 4325TIP3    H134534   6.711   3.536   1.820  0.5612  0.8268  0.6738
 4325TIP3    H234535   6.672   3.513   1.964  0.6085  0.0850  0.5698
 4326TIP3   OH234536   5.234   5.354   8.361 -0.7120 -0.5041 -0.0364
 4326TIP3    H134537   5.143   5.383   8.358 -0.1811  1.5182  1.5631
 4326TIP3    H234538   5.283   5.421   8.312 -0.0038 -1.2948 -0.4447
 4327TIP3   OH234539   0.747   0.631   2.277 -0.0982  0.3470 -0.5716
 4327TIP3    H134540   0.671   0.619   2.220 -1.1424 -0.9475  0.9889
 4327TIP3    H234541   0.716   0.689   2.346  0.7812  0.9166 -0.6329
 4328TIP3   OH234542   1.574   1.497   8.859 -0.3156 -0.2080  0.0569
 4328TIP3    H134543   1.603   1.542   8.780 -0.5995  0.6762  0.4360
 4328TIP3    H234544   1.517   1.427   8.828 -0.8623  0.4699 -0.4984
 4329TIP3   OH234545   4.142   4.891   8.627 -0.5918 -0.6254 -0.0550
 4329TIP3    H134546   4.192   4.817   8.594 -1.0524 -0.3932 -1.3229
 4329TIP3    H234547   4.170   4.965   8.573 -0.7053 -0.0343  0.6775
 4330TIP3   OH234548   5.018   0.285   7.742  1.1098 -0.2746 -0.1485
 4330TIP3    H134549   5.008   0.364   7.689  1.2551 -1.0274 -1.3260
 4330TIP3    H234550   5.113   0.272   7.748  1.0819 -0.6249 -0.3886
 4331TIP3   OH234551   2.003   3.729   8.592  0.1911 -0.0820 -0.2359
 4331TIP3    H134552   2.014   3.676   8.512  0.0564  1.3830 -1.2616
 4331TIP3    H234553   2.052   3.809   8.575  2.8087 -0.9648  2.4531
 4332TIP3   OH234554   6.707   3.105   1.529  0.3037 -0.3564 -0.0296
 4332TIP3    H134555   6.699   3.096   1.435 -0.2132  0.6467 -0.0977
 4332TIP3    H234556   6.801   3.106   1.546  0.3935 -0.8825 -0.4895
 4333TIP3   OH234557   3.136   4.603   7.563  0.3767 -0.3411 -0.4497
 4333TIP3    H134558   3.056   4.655   7.567  0.6814  0.2115 -1.2885
 4333TIP3    H234559   3.206   4.664   7.589  0.6382 -0.5521 -0.6470
 4334TIP3   OH234560   5.921   0.406   1.010  0.2842 -0.4818  0.1774
 4334TIP3    H134561   5.935   0.424   1.103  0.7177 -0.2859  0.0814
 4334TIP3    H234562   5.912   0.311   1.005  0.5803 -0.5225  0.3826
 4335TIP3   OH234563   2.509   3.943   0.845  0.2707 -0.1087  1.1661
 4335TIP3    H134564   2.423   3.927   0.885 -1.5310  0.5557 -2.1097
 4335TIP3    H234565   2.520   4.038   0.850  0.1737 -0.0533  0.4217
 4336TIP3   OH234566   3.968   0.330   0.707 -0.2916 -0.0863 -0.4151
 4336TIP3    H134567   3.891   0.274   0.716 -1.2753  1.0601 -1.4377
 4336TIP3    H234568   3.954   0.401   0.769 -0.9338  1.0520 -1.8192
 4337TIP3   OH234569   5.010   0.745   7.917  0.1249  0.4103 -0.2257
 4337TIP3    H134570   4.946   0.740   7.846  0.7047  1.0850 -0.8120
 4337TIP3    H234571   4.960   0.779   7.992 -0.3473  0.2986 -0.4859
 4338TIP3   OH234572   2.950   4.048   0.883 -1.0765 -0.1224  0.4236
 4338TIP3    H134573   2.975   3.982   0.948 -2.4587  0.2230  1.3516
 4338TIP3    H234574   2.983   4.014   0.800  1.8772  0.0308  1.4290
 4339TIP3   OH234575   1.502   6.558   2.274 -0.4717 -0.6952 -0.3425
 4339TIP3    H134576   1.508   6.643   2.231 -2.2819  0.5572  1.6900
 4339TIP3    H234577   1.591   6.538   2.301 -0.4235  2.4084  2.3716
 4340TIP3   OH234578   6.121   4.093   7.677 -0.2429  0.4588  0.4183
 4340TIP3    H134579   6.089   4.101   7.767 -0.0313  0.0206  0.5377
 4340TIP3    H234580   6.045   4.060   7.628 -0.2738  0.4158  0.4941
 4341TIP3   OH234581   4.743   5.250   7.152  0.4464  0.4636  0.3704
 4341TIP3    H134582   4.685   5.252   7.229 -0.8199 -2.5362 -0.3384
 4341TIP3    H234583   4.768   5.158   7.144  1.8837  0.9824 -1.8789
 4342TIP3   OH234584   1.178   0.104   0.791  0.0107  0.4589  1.0041
 4342TIP3    H134585   1.190   0.072   0.881 -1.1076  0.6770  1.2396
 4342TIP3    H234586   1.137   0.031   0.745 -1.0992  0.9821  1.1452
 4343TIP3   OH234587   1.879   2.756   6.770 -0.3644 -0.1366  1.3865
 4343TIP3    H134588   1.939   2.694   6.812  1.0408 -1.0059 -1.6026
 4343TIP3    H234589   1.882   2.733   6.677 -3.5714  1.3470  0.7654
 4344TIP3   OH234590   3.575   5.407   0.661  0.2817  0.5654  0.4317
 4344TIP3    H134591   3.620   5.407   0.576  0.4582 -1.3012  0.4844
 4344TIP3    H234592   3.596   5.322   0.699 -1.0776  0.7503  1.6775
 4345TIP3   OH234593   0.213   6.341   0.446 -0.4433  0.6681 -0.1637
 4345TIP3    H134594   0.195   6.271   0.509  1.8581 -0.9377 -1.1233
 4345TIP3    H234595   0.127   6.366   0.412 -1.3907 -1.4930  0.4561
 4346TIP3   OH234596   5.174   2.934   2.058  0.1842 -0.6458 -0.2868
 4346TIP3    H134597   5.124   2.962   2.135  1.6564 -0.6869  0.7114
 4346TIP3    H234598   5.209   3.015   2.022 -1.0678 -0.5495 -1.3568
 4347TIP3   OH234599   0.386   5.217   8.298 -0.5586  0.2832 -0.3524
 4347TIP3    H134600   0.306   5.220   8.350 -0.6025 -1.9746 -0.1544
 4347TIP3    H234601   0.426   5.303   8.308 -2.7701  1.3324 -0.1724
 4348TIP3   OH234602   5.561   5.703   8.669 -0.4526 -0.0744  0.3015
 4348TIP3    H134603   5.649   5.696   8.632 -0.6505  0.2912 -0.2646
 4348TIP3    H234604   5.503   5.694   8.593 -0.8417  1.5581  0.3693
 4349TIP3   OH234605   0.945   0.885   8.147  0.0889 -0.2552  0.1799
 4349TIP3    H134606   0.905   0.971   8.151  1.0451  0.3227 -1.5339
 4349TIP3    H234607   1.039   0.903   8.146  0.3125 -1.0956 -2.6801
 4350TIP3   OH234608   6.511   0.324   1.033  0.1573 -0.1120 -0.0070
 4350TIP3    H134609   6.584   0.328   0.972 -1.4027  1.5734 -1.8936
 4350TIP3    H234610   6.513   0.409   1.078  1.0927 -1.1979  2.1918
 4351TIP3   OH234611   6.105   3.281   7.005  0.1926 -0.4124  0.2724
 4351TIP3    H134612   6.151   3.363   6.985 -1.5089  0.8100  1.0580
 4351TIP3    H234613   6.122   3.225   6.930  0.7562  0.9628 -0.6747
 4352TIP3   OH234614   2.800   1.009   6.665  0.3418 -0.0771  0.0033
 4352TIP3    H134615   2.760   1.033   6.749  0.3045 -1.9902  0.5952
 4352TIP3    H234616   2.812   1.092   6.619 -2.2338  0.7725  0.7290
 4353TIP3   OH234617   1.171   5.024   0.986  0.1717  0.0345 -0.3299
 4353TIP3    H134618   1.113   4.948   0.985  0.4987 -0.2547 -2.4667
 4353TIP3    H234619   1.259   4.987   0.989  0.3214  0.4171  0.5469
 4354TIP3   OH234620   1.761   4.433   0.402 -0.6958  0.0425  0.2137
 4354TIP3    H134621   1.722   4.509   0.358 -1.7127  0.1755  1.2844
 4354TIP3    H234622   1.692   4.367   0.401 -0.4179 -0.2681  0.7664
 4355TIP3   OH234623   0.974   1.241   0.045 -0.5051  0.1718  0.3477
 4355TIP3    H134624   1.043   1.274   0.102 -0.6157  1.1846 -0.0932
 4355TIP3    H234625   0.970   1.147   0.064 -0.3406  0.4417  1.7689
 4356TIP3   OH234626   6.425   3.398   7.368 -0.0784 -0.1991 -0.3930
 4356TIP3    H134627   6.413   3.458   7.294 -1.7831  0.3241  0.2732
 4356TIP3    H234628   6.482   3.447   7.429 -1.6983  0.9251  0.2851
 4357TIP3   OH234629   2.186   0.745   1.081 -0.2375 -0.2125  0.0611
 4357TIP3    H134630   2.140   0.725   1.162 -0.1411 -0.0730  0.1512
 4357TIP3    H234631   2.258   0.802   1.108  0.3992 -0.9832  0.0252
 4358TIP3   OH234632   6.756   2.623   7.480 -0.1199 -0.6430 -0.7029
 4358TIP3    H134633   6.660   2.629   7.473 -0.2458  1.3841  1.5124
 4358TIP3    H234634   6.788   2.650   7.394 -1.5367  0.4819 -0.9164
 4359TIP3   OH234635   3.955   4.788   1.048  0.0994 -0.3963  0.0373
 4359TIP3    H134636   4.040   4.790   1.093 -0.0495  1.6526  0.3211
 4359TIP3    H234637   3.978   4.780   0.956  0.5978 -0.2484  0.1417
 4360TIP3   OH234638   6.185   5.142   8.015 -0.6302 -0.5324 -0.4209
 4360TIP3    H134639   6.120   5.122   7.948 -1.2027 -0.2149  0.0291
 4360TIP3    H234640   6.174   5.074   8.081 -1.0002 -0.0705 -0.0014
 4361TIP3   OH234641   6.335   1.087   7.817  0.2535 -1.1297 -0.0920
 4361TIP3    H134642   6.379   1.157   7.865 -2.0056  0.3978 -0.0895
 4361TIP3    H234643   6.365   1.006   7.858  1.2296 -0.0414  1.4143
 4362TIP3   OH234644   5.388   0.546   8.653 -0.0990 -0.1132  0.3358
 4362TIP3    H134645   5.330   0.531   8.728  0.0518 -1.4452  0.2019
 4362TIP3    H234646   5.440   0.466   8.646 -1.2410 -0.7143 -2.1931
 4363TIP3   OH234647   5.458   1.876   0.848  0.1896  0.1905 -0.4154
 4363TIP3    H134648   5.368   1.849   0.831  0.2298 -1.7780  1.8658
 4363TIP3    H234649   5.449   1.961   0.892 -0.7690 -0.7462  1.3393
 4364TIP3   OH234650   1.362   4.234   6.970 -0.0395  0.0093  0.3167
 4364TIP3    H134651   1.285   4.291   6.964  0.2945  0.5880  1.2321
 4364TIP3    H234652   1.367   4.211   7.063  0.9234  0.0393  0.2851
 4365TIP3   OH234653   3.501   4.015   7.815 -0.1045 -0.3706 -0.6578
 4365TIP3    H134654   3.579   3.990   7.766 -0.3593 -1.2149 -0.6351
 4365TIP3    H234655   3.443   4.054   7.749  0.5800  0.8541 -0.5634
 4366TIP3   OH234656   5.324   0.841   7.442 -0.6331  0.6466 -0.4699
 4366TIP3    H134657   5.238   0.801   7.456 -0.6226  0.2015 -1.6340
 4366TIP3    H234658   5.311   0.902   7.369  0.0598  0.5106 -0.7166
 4367TIP3   OH234659   4.611   3.821   8.791  0.1150  0.5929 -0.3344
 4367TIP3    H134660   4.598   3.733   8.755 -1.7198  0.6208  0.1858
 4367TIP3    H234661   4.524   3.850   8.818  1.0499  1.5170  1.9797
 4368TIP3   OH234662   4.206   2.979   8.808 -0.3389  0.6119  0.3883
 4368TIP3    H134663   4.296   2.987   8.838 -0.4041  0.5061  0.6106
 4368TIP3    H234664   4.206   3.022   8.722 -0.4142  1.9989  1.0441
 4369TIP3   OH234665   2.828   4.316   2.112  0.1607  0.3852 -0.1466
 4369TIP3    H134666   2.888   4.317   2.038  0.4209 -2.1539 -0.0447
 4369TIP3    H234667   2.742   4.334   2.073  0.3674 -0.3920 -1.0056
 4370TIP3   OH234668   3.970   2.280   0.760  0.1813  0.2553 -0.1656
 4370TIP3    H134669   4.005   2.286   0.849 -1.0682  0.1731  0.3436
 4370TIP3    H234670   3.910   2.205   0.762  0.0590  0.3171 -1.0512
 4371TIP3   OH234671   6.583   4.533   0.298 -0.1215 -0.0803  0.1013
 4371TIP3    H134672   6.645   4.606   0.305 -0.2388  0.0663 -0.3790
 4371TIP3    H234673   6.508   4.570   0.253 -0.0294 -0.5979 -0.4883
 4372TIP3   OH234674   0.503   2.307   0.557 -0.3799  0.2414 -0.4435
 4372TIP3    H134675   0.418   2.306   0.602 -0.5446  0.9940 -0.7186
 4372TIP3    H234676   0.562   2.349   0.620 -0.1551 -0.4796 -0.1658
 4373TIP3   OH234677   0.098   4.328   0.684  0.3186 -0.1671 -0.0711
 4373TIP3    H134678   0.064   4.336   0.773  0.4408  1.2902 -0.1373
 4373TIP3    H234679   0.144   4.244   0.683 -2.9596 -2.1622  0.1116
 4374TIP3   OH234680   0.792   1.801   6.556  0.0660  0.4714 -0.0125
 4374TIP3    H134681   0.783   1.744   6.480  0.7089 -0.6195  0.7127
 4374TIP3    H234682   0.819   1.885   6.519  1.0433 -0.2189 -0.9381
 4375TIP3   OH234683   5.901   2.636   7.934 -0.1204 -0.2510  0.0883
 4375TIP3    H134684   5.928   2.725   7.911 -1.7104 -0.1376 -1.5232
 4375TIP3    H234685   5.948   2.580   7.871 -0.9272 -0.3368 -0.4492
 4376TIP3   OH234686   6.418   6.594   7.789 -0.2600 -0.9622 -0.5876
 4376TIP3    H134687   6.376   6.598   7.703  1.2959  0.9175 -1.3277
 4376TIP3    H234688   6.509   6.616   7.772 -0.3583  1.9518  1.7897
 4377TIP3   OH234689   4.974   5.022   7.287  0.0520 -0.4545  0.5259
 4377TIP3    H134690   5.014   4.937   7.270  2.1617  0.5149  0.3831
 4377TIP3    H234691   4.993   5.074   7.209 -1.2898  0.1619  0.5708
 4378TIP3   OH234692   2.387   0.937   1.961  0.2228 -0.1163 -0.1133
 4378TIP3    H134693   2.444   0.999   2.007 -1.0262 -0.1305  1.5840
 4378TIP3    H234694   2.390   0.963   1.870 -0.7913  2.9452  0.6194
 4379TIP3   OH234695   6.685   3.969   7.009 -0.5276  0.1522 -0.4870
 4379TIP3    H134696   6.661   3.904   7.075  2.9133  0.2290  1.0198
 4379TIP3    H234697   6.720   3.918   6.936  0.6126  0.2294 -0.0039
 4380TIP3   OH234698   3.595   6.616   1.756 -0.0875  0.0761  0.0628
 4380TIP3    H134699   3.670   6.622   1.815 -0.1445 -1.0148  0.2819
 4380TIP3    H234700   3.527   6.573   1.809 -0.3040 -0.4656 -0.6395
 4381TIP3   OH234701   2.963   6.540   0.174 -0.1645 -0.2152  0.3512
 4381TIP3    H134702   2.900   6.596   0.128  1.0057  0.2924 -0.6891
 4381TIP3    H234703   2.925   6.528   0.261 -0.9819  1.2821  0.2374
 4382TIP3   OH234704   6.024   6.616   6.565  0.0252  0.1410 -0.3182
 4382TIP3    H134705   6.004   6.657   6.481 -1.3311 -0.2927 -0.2173
 4382TIP3    H234706   6.056   6.688   6.620  0.6541  0.4750 -1.1083
 4383TIP3   OH234707   0.119   4.943   1.854 -1.0081  0.1099  0.6197
 4383TIP3    H134708   0.169   4.989   1.922  1.2678  1.7432 -1.9523
 4383TIP3    H234709   0.085   4.865   1.898  3.2821 -0.8104  2.8195
 4384TIP3   OH234710   5.064   1.823   7.159  0.0947 -0.0784 -0.1679
 4384TIP3    H134711   5.073   1.915   7.135  2.2059 -0.1768  0.0329
 4384TIP3    H234712   5.034   1.780   7.079 -0.5762  0.7191 -0.3564
 4385TIP3   OH234713   1.165   4.597   1.103 -0.5752  0.1682 -0.2287
 4385TIP3    H134714   1.132   4.518   1.062  1.1100 -0.5434 -0.2838
 4385TIP3    H234715   1.251   4.611   1.063 -0.8965  2.1292 -0.3409
 4386TIP3   OH234716   0.407   4.899   7.409 -0.1583 -0.4377 -0.2413
 4386TIP3    H134717   0.352   4.879   7.333 -0.0912 -2.8493  0.2578
 4386TIP3    H234718   0.436   4.989   7.395 -1.6450 -0.1854 -2.1179
 4387TIP3   OH234719   4.192   4.434   0.167  0.4012 -0.2247  0.6062
 4387TIP3    H134720   4.121   4.467   0.113 -0.1656  3.3542  3.1691
 4387TIP3    H234721   4.171   4.341   0.181 -2.0293 -0.0327 -1.1799
 4388TIP3   OH234722   5.836   4.682   8.732 -0.4507  0.1872  0.3092
 4388TIP3    H134723   5.781   4.633   8.671  0.2739 -0.9822  0.5790
 4388TIP3    H234724   5.823   4.640   8.817  1.2022 -0.4141  0.2887
 4389TIP3   OH234725   2.428   3.276   1.675 -0.4511 -0.0327 -0.1149
 4389TIP3    H134726   2.454   3.298   1.586  0.7919  0.1509  0.2626
 4389TIP3    H234727   2.407   3.360   1.716  0.0073 -0.0012  0.0618
 4390TIP3   OH234728   1.135   1.207   2.857  0.1986  0.3602 -0.2419
 4390TIP3    H134729   1.146   1.113   2.841  0.3852  0.4102 -0.4149
 4390TIP3    H234730   1.201   1.249   2.801  1.2461  0.5167  1.0633
 4391TIP3   OH234731   0.036   5.479   8.911 -0.0545 -0.3320 -0.0484
 4391TIP3    H134732   0.014   5.506   9.000 -0.7643  0.5111 -0.4663
 4391TIP3    H234733  -0.046   5.443   8.877  0.3942 -1.2962 -0.1361
 4392TIP3   OH234734   6.430   0.722   1.502 -0.2129 -0.5595  0.1634
 4392TIP3    H134735   6.384   0.649   1.461 -1.4563 -0.0265  0.5421
 4392TIP3    H234736   6.384   0.735   1.585  0.2344  0.3914  0.2760
 4393TIP3   OH234737   3.865   0.945   7.437 -0.0944 -0.4640  0.0416
 4393TIP3    H134738   3.875   0.998   7.517 -0.9124 -2.1037  1.2868
 4393TIP3    H234739   3.902   1.000   7.368  1.8725  0.5063  1.7342
 4394TIP3   OH234740   4.154   1.922   2.579 -0.4590 -0.3995 -0.1769
 4394TIP3    H134741   4.191   1.981   2.513 -0.5142 -1.1355 -0.8909
 4394TIP3    H234742   4.216   1.925   2.652  0.6740 -1.0835 -1.0716
 4395TIP3   OH234743   4.204   5.153   6.974  0.0647  0.3337  0.1324
 4395TIP3    H134744   4.273   5.207   6.936 -0.9631  1.7616  0.2017
 4395TIP3    H234745   4.180   5.093   6.904  0.0388  1.1365 -0.5678
 4396TIP3   OH234746   5.886   3.713   1.288  0.1705  0.1109 -0.2723
 4396TIP3    H134747   5.817   3.654   1.320  1.9146 -0.4685  2.8775
 4396TIP3    H234748   5.858   3.800   1.319 -0.4446  0.3410 -1.4239
 4397TIP3   OH234749   3.209   6.328   8.881  0.0787 -0.0483  0.2245
 4397TIP3    H134750   3.159   6.401   8.918  0.2810  1.0502 -1.5452
 4397TIP3    H234751   3.281   6.370   8.834  1.1062 -1.4870  0.4594
 4398TIP3   OH234752   0.681   6.297   0.161 -0.5022 -0.0265 -0.7996
 4398TIP3    H134753   0.635   6.217   0.188 -0.5735  0.3667  0.2925
 4398TIP3    H234754   0.619   6.367   0.180 -0.1601  0.3527 -1.0724
 4399TIP3   OH234755   4.932   1.863   0.917 -0.2101  0.2104 -0.3755
 4399TIP3    H134756   4.943   1.782   0.967 -1.5723  0.4838  0.4226
 4399TIP3    H234757   4.884   1.921   0.976 -0.5045  1.0929 -1.4545
 4400TIP3   OH234758   6.535   2.512   7.173 -0.0543  0.1088  0.3890
 4400TIP3    H134759   6.552   2.472   7.259 -1.7969 -1.1547  0.2071
 4400TIP3    H234760   6.486   2.445   7.126  0.5981  0.9085 -1.5084
 4401TIP3   OH234761   2.022   0.140   0.648 -0.5166 -0.4359 -0.0842
 4401TIP3    H134762   2.061   0.200   0.585 -1.8457 -0.0785 -0.6128
 4401TIP3    H234763   2.055   0.168   0.733  0.9397 -0.6317 -0.5682
 4402TIP3   OH234764   0.365   3.290   8.557  0.2275  0.5383  0.3992
 4402TIP3    H134765   0.336   3.234   8.486 -0.4446  1.3754  0.0012
 4402TIP3    H234766   0.287   3.299   8.613  0.7304 -0.0661  1.2263
 4403TIP3   OH234767   5.502   4.476   0.744  0.3125 -0.2641  0.2545
 4403TIP3    H134768   5.490   4.570   0.733 -0.7216 -0.4295 -0.0302
 4403TIP3    H234769   5.559   4.469   0.821 -1.4726  0.5470  1.7285
 4404TIP3   OH234770   0.684   0.424   2.492  0.2031 -0.2078  0.0927
 4404TIP3    H134771   0.593   0.449   2.507  0.6548  0.4450  2.1453
 4404TIP3    H234772   0.707   0.465   2.409 -0.4551  2.4587  1.1117
 4405TIP3   OH234773   2.876   6.441   1.041 -0.5280 -0.2801  0.3256
 4405TIP3    H134774   2.854   6.482   0.958  1.2176  1.3932  0.6102
 4405TIP3    H234775   2.875   6.347   1.022  1.0997  0.0694 -1.9936
 4406TIP3   OH234776   6.097   4.514   7.333 -0.3013  0.6897  0.0966
 4406TIP3    H134777   6.053   4.450   7.390  0.9827 -0.8309 -0.5342
 4406TIP3    H234778   6.068   4.491   7.245  1.2209  0.0510 -0.2675
 4407TIP3   OH234779   5.188   1.169   8.365  0.4492 -0.3951  0.0717
 4407TIP3    H134780   5.256   1.114   8.403  0.2879 -1.4667 -1.1498
 4407TIP3    H234781   5.131   1.190   8.439  0.8116 -1.4293  0.6652
 4408TIP3   OH234782   2.853   4.241   7.497  0.4359  0.8759  0.6024
 4408TIP3    H134783   2.845   4.274   7.408 -0.4153  1.1843  0.7756
 4408TIP3    H234784   2.947   4.238   7.514  0.5925  1.1565 -0.1775
 4409TIP3   OH234785   1.968   3.298   8.461 -0.6348 -0.5403  0.4479
 4409TIP3    H134786   1.980   3.250   8.379  2.1432 -1.8847  1.5215
 4409TIP3    H234787   1.902   3.248   8.509  0.4155 -1.9206  0.5137
 4410TIP3   OH234788   1.001   5.898   7.842 -0.7922  0.1640 -0.0429
 4410TIP3    H134789   0.918   5.905   7.794 -2.6065 -0.6315  2.7127
 4410TIP3    H234790   1.008   5.805   7.865  1.0372  0.1680 -0.4082
 4411TIP3   OH234791   1.910   4.103   7.782  0.3529  0.6098  0.0085
 4411TIP3    H134792   1.945   4.121   7.694 -0.2234  0.6624 -0.2146
 4411TIP3    H234793   1.980   4.131   7.841  1.3136 -0.6960 -0.4548
 4412TIP3   OH234794   2.725   1.260   8.371  0.0507  0.4876  0.2359
 4412TIP3    H134795   2.711   1.167   8.388  0.8759 -0.1240 -2.0343
 4412TIP3    H234796   2.721   1.268   8.276 -1.0212  2.9861  0.3981
 4413TIP3   OH234797   5.314   0.791   0.819  0.2933  0.1886  0.1567
 4413TIP3    H134798   5.272   0.705   0.813  0.8698 -0.0663 -0.3456
 4413TIP3    H234799   5.403   0.776   0.788  0.4592  0.9282  0.2683
 4414TIP3   OH234800   2.786   5.818   7.882  0.4206  0.7042  0.4664
 4414TIP3    H134801   2.779   5.722   7.883 -0.4641  0.7650  0.5452
 4414TIP3    H234802   2.880   5.834   7.874  0.5892 -0.1701  0.5150
 4415TIP3   OH234803   2.427   1.520   1.702  1.0482  0.2075 -0.3685
 4415TIP3    H134804   2.414   1.563   1.618 -1.1209  1.0914  0.3324
 4415TIP3    H234805   2.347   1.541   1.752  1.5816 -1.5569  1.3517
 4416TIP3   OH234806   5.761   5.811   7.835 -0.2667  0.0692  0.2583
 4416TIP3    H134807   5.856   5.825   7.834 -0.1685 -0.5256  0.6273
 4416TIP3    H234808   5.729   5.869   7.903  0.0585 -1.0080  1.3591
 4417TIP3   OH234809   2.112   3.320   6.544 -0.9667  0.1219  0.5710
 4417TIP3    H134810   2.161   3.354   6.620 -0.6456  2.3562 -0.5427
 4417TIP3    H234811   2.058   3.249   6.580  0.3293  0.0535  2.5634
 4418TIP3   OH234812   4.359   4.384   0.848  0.3050  0.2986  0.5241
 4418TIP3    H134813   4.372   4.473   0.882  1.3678  0.1853  0.4557
 4418TIP3    H234814   4.441   4.339   0.868 -0.0035 -0.4989  0.0307
 4419TIP3   OH234815   0.958   5.120   7.149 -0.2148 -0.2707  0.3645
 4419TIP3    H134816   1.005   5.039   7.166  1.1689  0.5144  0.4166
 4419TIP3    H234817   0.968   5.136   7.055  1.3802  0.9260  0.7058
 4420TIP3   OH234818   1.294   0.703   0.030  0.4206 -0.3997  0.1132
 4420TIP3    H134819   1.385   0.714   0.001  0.0171 -0.5589 -1.2376
 4420TIP3    H234820   1.271   0.788   0.069  1.6282 -0.8361  1.9268
 4421TIP3   OH234821   4.427   5.316   7.797  0.2308 -0.0979 -0.0356
 4421TIP3    H134822   4.412   5.284   7.708 -1.1368  1.0661 -0.2767
 4421TIP3    H234823   4.348   5.367   7.817  1.0504  0.6782  1.3790
 4422TIP3   OH234824   2.656   4.025   7.112 -0.4806  0.4338 -1.0017
 4422TIP3    H134825   2.571   4.046   7.074 -1.3525 -1.6597 -0.3301
 4422TIP3    H234826   2.641   4.021   7.206 -0.5192 -3.1155 -1.0237
 4423TIP3   OH234827   6.646   2.525   2.153  0.3091  0.1512  0.0987
 4423TIP3    H134828   6.702   2.600   2.136  1.6515 -1.1122 -1.3149
 4423TIP3    H234829   6.703   2.460   2.195 -1.3024  0.5751  3.2819
 4424TIP3   OH234830   4.185   5.031   7.598 -0.2682 -0.5060 -0.5447
 4424TIP3    H134831   4.179   4.986   7.682  2.2798 -1.1018 -0.6088
 4424TIP3    H234832   4.173   4.961   7.533 -0.7272 -0.3013 -0.6861
 4425TIP3   OH234833   0.580   2.261   7.602 -0.1553 -0.4902  0.3089
 4425TIP3    H134834   0.602   2.239   7.693 -0.0586 -0.4920  0.2855
 4425TIP3    H234835   0.511   2.326   7.609  0.3414  0.0362  0.3970
 4426TIP3   OH234836   6.644   2.110   1.621  0.7322  0.4433 -0.1672
 4426TIP3    H134837   6.704   2.045   1.659  1.4350  1.6642  0.9068
 4426TIP3    H234838   6.557   2.076   1.642  1.0883 -0.0228  0.6238
 4427TIP3   OH234839   4.683   1.094   7.226 -0.3540  0.6130  0.4589
 4427TIP3    H134840   4.655   1.080   7.317  0.0789  1.6712  0.7723
 4427TIP3    H234841   4.601   1.097   7.176 -0.7236  1.7981  1.0883
 4428TIP3   OH234842   0.204   5.791   6.365  0.1997 -0.1764 -0.3400
 4428TIP3    H134843   0.134   5.761   6.424  0.2708 -0.2436 -0.2886
 4428TIP3    H234844   0.158   5.828   6.290  0.0801  1.5946  0.5607
 4429TIP3   OH234845   3.370   5.623   8.583  0.0353  0.2052 -0.4618
 4429TIP3    H134846   3.276   5.637   8.571 -0.2870 -0.7913  0.6926
 4429TIP3    H234847   3.401   5.590   8.499 -0.9635 -0.9665 -0.3871
 4430TIP3   OH234848   3.372   0.679   8.509  0.0353 -0.0897 -0.0474
 4430TIP3    H134849   3.351   0.637   8.592  0.4277 -2.3211 -0.9980
 4430TIP3    H234850   3.467   0.687   8.510 -0.0742  1.5033  0.4044
 4431TIP3   OH234851   2.149   5.028   1.997  0.1214  0.3310 -0.1479
 4431TIP3    H134852   2.064   5.022   2.040 -0.2452  0.4913 -0.8420
 4431TIP3    H234853   2.208   4.976   2.052  0.1382  2.1958  1.7002
 4432TIP3   OH234854   2.683   0.140   6.666 -0.3783  0.1672 -0.1833
 4432TIP3    H134855   2.750   0.132   6.734 -0.5628  0.5840  0.0517
 4432TIP3    H234856   2.625   0.065   6.681 -0.5937  0.4257  0.3195
 4433TIP3   OH234857   5.703   1.634   8.764  0.4461  0.4033  0.5071
 4433TIP3    H134858   5.663   1.593   8.841  0.8083 -0.4739  0.2390
 4433TIP3    H234859   5.645   1.610   8.692  1.2133 -0.5093  0.1864
 4434TIP3   OH234860   4.863   3.129   0.961  0.0220  0.0858  0.6130
 4434TIP3    H134861   4.921   3.127   0.885  1.3514  2.5090  1.4519
 4434TIP3    H234862   4.790   3.072   0.937  1.4165 -0.9131 -1.5841
 4435TIP3   OH234863   1.527   3.933   1.829 -0.3067 -0.2417 -0.2265
 4435TIP3    H134864   1.512   3.871   1.900  0.1532  0.6899  0.7028
 4435TIP3    H234865   1.589   3.997   1.865 -0.8990  0.8626 -1.0982
 4436TIP3   OH234866   2.934   6.239   8.106  0.4865  0.2349 -0.2040
 4436TIP3    H134867   2.895   6.229   8.193 -0.9694 -0.7956 -0.9319
 4436TIP3    H234868   2.995   6.165   8.099  0.5888  0.3056 -0.0909
 4437TIP3   OH234869   5.131   3.354   7.867  0.6585  0.4552  0.5737
 4437TIP3    H134870   5.132   3.444   7.836 -0.7250  1.1343  2.3525
 4437TIP3    H234871   5.191   3.353   7.942  1.6002 -0.4335 -0.1437
 4438TIP3   OH234872   1.325   2.668   8.612 -0.0718  0.0072 -0.7293
 4438TIP3    H134873   1.258   2.672   8.680  0.1211  1.4803 -0.6057
 4438TIP3    H234874   1.290   2.719   8.539  0.6143  0.2161 -0.9245
 4439TIP3   OH234875   4.364   0.192   0.070 -0.0805  0.0313  0.3184
 4439TIP3    H134876   4.295   0.253   0.044  0.1766  0.2235  0.0769
 4439TIP3    H234877   4.319   0.123   0.118 -0.8099 -1.1523 -1.9236
 4440TIP3   OH234878   3.970   2.617   1.302  0.3486  0.2475 -0.3580
 4440TIP3    H134879   3.939   2.527   1.293  1.5176 -0.2212  0.1362
 4440TIP3    H234880   3.908   2.657   1.363 -0.7294  0.0744 -1.3007
 4441TIP3   OH234881   6.440   5.521   1.229 -0.7392  0.3827 -0.0835
 4441TIP3    H134882   6.524   5.476   1.221 -0.2421  1.4701 -1.6319
 4441TIP3    H234883   6.457   5.594   1.289 -0.4690  0.7560 -0.5961
 4442TIP3   OH234884   1.279   2.204   7.508  0.7849  0.2205  0.1138
 4442TIP3    H134885   1.367   2.173   7.528  0.3625 -1.0350  0.1214
 4442TIP3    H234886   1.289   2.257   7.430  1.2421 -1.8598 -1.3303
 4443TIP3   OH234887   3.143   5.266   1.664  0.1374 -0.8701  0.2257
 4443TIP3    H134888   3.064   5.227   1.702 -0.0035  0.4003  1.3298
 4443TIP3    H234889   3.195   5.293   1.739  0.4024  0.6583 -0.4630
 4444TIP3   OH234890   4.662   2.140   0.379  0.3747  0.0690  0.0624
 4444TIP3    H134891   4.757   2.152   0.381  0.3715  0.3170 -0.7723
 4444TIP3    H234892   4.632   2.169   0.465  1.2860 -2.2144  1.2320
 4445TIP3   OH234893   1.358   1.816   7.596  0.0809 -0.0128 -0.0378
 4445TIP3    H134894   1.335   1.794   7.506  1.7278 -0.6944 -0.3418
 4445TIP3    H234895   1.402   1.901   7.590  3.3459 -1.5558 -0.4984
 4446TIP3   OH234896   3.722   6.324   1.416  0.1538  0.4474  0.1346
 4446TIP3    H134897   3.664   6.261   1.372  1.6810 -1.3620  0.5449
 4446TIP3    H234898   3.782   6.353   1.348 -1.3135  2.5303 -0.3549
 4447TIP3   OH234899   5.689   2.099   1.345  0.3631  0.1981 -0.3479
 4447TIP3    H134900   5.720   2.026   1.292 -0.2741  0.2191 -0.7621
 4447TIP3    H234901   5.664   2.166   1.281 -0.8034  0.0684 -0.0464
 4448TIP3   OH234902   5.932   2.941   7.443 -0.1440 -0.1486  0.4361
 4448TIP3    H134903   5.964   3.030   7.459  0.4749 -0.2427 -0.2477
 4448TIP3    H234904   5.837   2.948   7.454 -0.0069  0.3600  1.4559
 4449TIP3   OH234905   0.288   5.832   8.355 -0.2031 -0.3032  0.1064
 4449TIP3    H134906   0.358   5.836   8.420  0.0405 -1.2960 -0.0865
 4449TIP3    H234907   0.257   5.741   8.359 -1.6636  0.1838  0.3869
 4450TIP3   OH234908   1.853   1.559   8.482  0.0419  0.5077  0.7130
 4450TIP3    H134909   1.934   1.518   8.450 -1.8789 -3.1395 -0.0017
 4450TIP3    H234910   1.856   1.648   8.448  1.5696 -0.9121 -3.4473
 4451TIP3   OH234911   1.646   6.498   0.071 -0.5883  0.2305 -0.0275
 4451TIP3    H134912   1.562   6.517   0.113 -0.6189 -1.0169  0.5048
 4451TIP3    H234913   1.627   6.501  -0.023 -1.4813 -1.0237  0.0885
 4452TIP3   OH234914   3.206   0.309   6.335  0.0166 -0.0235  0.0889
 4452TIP3    H134915   3.287   0.275   6.374  1.6046  0.2927 -2.6651
 4452TIP3    H234916   3.178   0.378   6.395  3.2435  1.6013 -0.0554
 4453TIP3   OH234917   2.022   2.311   0.347 -0.6353 -0.0625 -0.3476
 4453TIP3    H134918   1.930   2.333   0.331 -0.9072 -0.0589  1.1408
 4453TIP3    H234919   2.055   2.382   0.401 -0.7155 -1.7341  2.0406
 4454TIP3   OH234920   2.417   6.762   0.147 -0.1725 -0.1820  0.1910
 4454TIP3    H134921   2.410   6.854   0.122 -0.3942 -0.5046 -0.9974
 4454TIP3    H234922   2.368   6.715   0.080  1.0294 -1.2873  0.0526
 4455TIP3   OH234923   1.707   2.552   1.810  0.2404  0.2545 -0.0620
 4455TIP3    H134924   1.684   2.460   1.815 -1.4641  0.6039 -0.6491
 4455TIP3    H234925   1.717   2.580   1.901  1.3038 -0.6086  0.1032
 4456TIP3   OH234926   4.207   3.053   1.230 -0.0401  1.0389  0.0010
 4456TIP3    H134927   4.162   3.001   1.163  0.7173  0.0734  0.2207
 4456TIP3    H234928   4.136   3.090   1.283 -0.6438 -1.3806  1.0547
 4457TIP3   OH234929   6.364   5.870   8.404  0.5864  0.4653  0.0390
 4457TIP3    H134930   6.356   5.963   8.380 -1.4769 -0.0461 -1.5235
 4457TIP3    H234931   6.407   5.872   8.489 -0.6668  2.9757  0.7407
 4458TIP3   OH234932   4.038   3.965   8.233 -0.1027  0.3062  0.0256
 4458TIP3    H134933   4.001   3.996   8.316 -1.7177  0.7668 -0.8220
 4458TIP3    H234934   4.122   3.927   8.257 -0.5056  0.4877  1.8696
 4459TIP3   OH234935   2.932   1.581   8.169 -0.4871  0.5193 -0.5310
 4459TIP3    H134936   2.971   1.523   8.235  0.4429  2.0231  0.2734
 4459TIP3    H234937   2.837   1.570   8.181 -0.4040 -2.0389 -1.5069
 4460TIP3   OH234938   0.289   3.983   0.067 -0.7830 -0.1974  0.3634
 4460TIP3    H134939   0.298   3.986  -0.028  1.9149  3.2599  0.5204
 4460TIP3    H234940   0.372   3.946   0.098 -1.3230 -0.5585  1.4383
 4461TIP3   OH234941   2.372   1.044   8.619 -0.5216  0.3995  0.6726
 4461TIP3    H134942   2.431   1.065   8.547 -0.6360 -0.6502  0.2535
 4461TIP3    H234943   2.294   1.008   8.577 -0.2581 -1.0277  1.3304
 4462TIP3   OH234944   5.533   2.512   0.453 -0.1554 -0.3148 -0.0228
 4462TIP3    H134945   5.538   2.417   0.465 -2.0262 -0.4690 -0.2311
 4462TIP3    H234946   5.612   2.545   0.495 -1.0122 -1.7041  2.9399
 4463TIP3   OH234947   2.121   0.715   7.317 -0.1530  0.1953 -0.0642
 4463TIP3    H134948   2.101   0.777   7.388 -1.5244  0.9899 -1.0970
 4463TIP3    H234949   2.127   0.770   7.239  1.4765 -0.6484 -0.5698
 4464TIP3   OH234950   3.803   0.773   1.711  0.0823 -0.3620  0.4824
 4464TIP3    H134951   3.884   0.780   1.661 -1.3547 -1.6726 -2.2300
 4464TIP3    H234952   3.750   0.848   1.682 -0.8937 -1.3121 -0.2756
 4465TIP3   OH234953   1.850   0.832   7.435  0.0277 -0.2160  0.5672
 4465TIP3    H134954   1.839   0.748   7.479  1.2972  0.4942  2.3425
 4465TIP3    H234955   1.922   0.874   7.481 -1.5536  2.5094  0.7364
 4466TIP3   OH234956   4.689   4.106   0.433 -0.1377  0.0908 -0.2971
 4466TIP3    H134957   4.682   4.126   0.339 -1.5723  1.0595 -0.0152
 4466TIP3    H234958   4.623   4.162   0.474 -1.0672 -1.9078  1.0760
 4467TIP3   OH234959   0.360   5.612   7.918 -0.5912  0.1933  0.0015
 4467TIP3    H134960   0.391   5.703   7.918  0.0765 -0.0198  0.9480
 4467TIP3    H234961   0.393   5.577   7.835 -0.9440  0.8380 -0.4204
 4468TIP3   OH234962   6.475   2.774   2.230  0.3813  0.0573 -0.3244
 4468TIP3    H134963   6.567   2.780   2.204  0.0986 -1.6441 -1.8520
 4468TIP3    H234964   6.451   2.684   2.212 -1.4129  0.2837  0.7523
 4469TIP3   OH234965   5.956   2.479   7.436 -0.2499 -0.5613  0.0597
 4469TIP3    H134966   5.900   2.514   7.506 -1.0235 -1.4699 -0.0887
 4469TIP3    H234967   5.974   2.555   7.380 -0.8436 -0.1265  0.4483
 4470TIP3   OH234968   4.501   3.151   7.553 -0.6596  0.0348 -0.1257
 4470TIP3    H134969   4.522   3.092   7.625  1.0475  0.4530 -0.2531
 4470TIP3    H234970   4.427   3.109   7.509  0.1634 -1.7224  0.1081
 4471TIP3   OH234971   1.521   1.679   6.998  0.2897  0.5279  0.3350
 4471TIP3    H134972   1.569   1.598   6.976 -0.7061 -0.2664  0.9793
 4471TIP3    H234973   1.523   1.730   6.918  0.8978 -0.1647 -0.1096
 4472TIP3   OH234974   3.279   2.562   8.568 -0.0619  0.5650  0.6062
 4472TIP3    H134975   3.375   2.568   8.572  0.1811 -2.2273  0.6160
 4472TIP3    H234976   3.261   2.519   8.485 -1.2583  0.1012  1.0895
 4473TIP3   OH234977   1.401   1.236   1.713 -0.1025 -0.1587  0.1143
 4473TIP3    H134978   1.424   1.328   1.698  0.7531 -0.6698 -2.0035
 4473TIP3    H234979   1.425   1.221   1.805 -0.2239  1.7059  0.5041
 4474TIP3   OH234980   5.790   3.666   8.114  0.4329  0.3473  0.2511
 4474TIP3    H134981   5.805   3.739   8.174 -1.1205  0.1925  0.8508
 4474TIP3    H234982   5.777   3.590   8.170 -0.9891  0.1907 -0.2579
 4475TIP3   OH234983   6.128   1.337   1.732 -1.3680 -0.6159  0.2975
 4475TIP3    H134984   6.223   1.337   1.745 -1.2557  0.0973 -0.4631
 4475TIP3    H234985   6.099   1.256   1.775 -0.2229 -1.6621 -0.7851
 4476TIP3   OH234986   0.269   0.912   1.159 -0.2113 -0.1724  0.0225
 4476TIP3    H134987   0.193   0.857   1.140 -0.4845 -0.4500  1.7323
 4476TIP3    H234988   0.255   0.992   1.108 -1.5654 -0.2899  0.1828
 4477TIP3   OH234989   1.026   5.187   0.783  0.3206 -0.4665 -0.1172
 4477TIP3    H134990   1.056   5.146   0.864  1.8909  0.2155 -0.3233
 4477TIP3    H234991   1.039   5.121   0.715 -1.1855 -1.1112  0.1772
 4478TIP3   OH234992   0.734   1.067   8.217  0.4439 -0.5038  0.0672
 4478TIP3    H134993   0.719   0.977   8.244  1.6787 -0.3572  1.3671
 4478TIP3    H234994   0.757   1.113   8.298 -0.6007  1.0900 -0.4977
 4479TIP3   OH234995   1.427   0.987   6.783  0.3466 -0.1885  0.1627
 4479TIP3    H134996   1.345   0.999   6.831  0.1407  0.4359 -0.3333
 4479TIP3    H234997   1.482   0.937   6.842  0.0724  0.5150  1.0345
 4480TIP3   OH234998   6.690   2.211   7.138 -0.2227  0.2983  0.8946
 4480TIP3    H134999   6.764   2.261   7.172  0.9048 -0.7767  0.1268
 4480TIP3    H235000   6.665   2.256   7.057  2.8940 -1.9401 -1.6206
 4481TIP3   OH235001   2.808   4.957   7.587  0.6597 -0.3121  0.6828
 4481TIP3    H135002   2.792   4.973   7.680  0.7683  2.6671  0.2917
 4481TIP3    H235003   2.722   4.965   7.546  0.4763 -2.4387  0.5714
 4482TIP3   OH235004   0.459   5.466   8.384  0.1338 -0.4491  0.0463
 4482TIP3    H135005   0.381   5.518   8.366  0.3957  0.5033  1.5311
 4482TIP3    H235006   0.479   5.482   8.476  2.4554 -0.1568 -0.4352
 4483TIP3   OH235007   3.333   6.664   7.234  0.1801 -0.5756 -0.0644
 4483TIP3    H135008   3.365   6.577   7.257  0.6020 -0.5985 -0.7053
 4483TIP3    H235009   3.365   6.721   7.304 -0.1843 -0.9487  0.4101
 4484TIP3   OH235010   2.837   2.225   8.107 -0.3264 -0.1044 -0.7780
 4484TIP3    H135011   2.814   2.133   8.092  0.6407 -0.3212 -0.9723
 4484TIP3    H235012   2.768   2.257   8.165 -0.2238 -1.1809 -0.0256
 4485TIP3   OH235013   1.467   2.877   7.993  0.6511 -0.5526  0.5616
 4485TIP3    H135014   1.443   2.785   7.985  1.0031 -0.5356 -1.1614
 4485TIP3    H235015   1.526   2.892   7.919  0.9337  0.9531  1.0688
 4486TIP3   OH235016   3.760   4.270   7.838 -0.4342  0.4029  0.3395
 4486TIP3    H135017   3.768   4.198   7.775  2.1710  0.1193  0.8827
 4486TIP3    H235018   3.695   4.328   7.800 -0.6366 -0.9094 -1.4579
 4487TIP3   OH235019   1.784   5.157   1.230 -0.1839 -0.2130  0.4178
 4487TIP3    H135020   1.841   5.229   1.258 -2.7103  1.7325  0.9059
 4487TIP3    H235021   1.722   5.146   1.302 -1.3645 -1.1988 -0.7038
 4488TIP3   OH235022   5.458   2.887   8.484  0.1607 -0.1031 -0.3444
 4488TIP3    H135023   5.378   2.843   8.455 -0.2962 -0.1821  0.9705
 4488TIP3    H235024   5.515   2.816   8.515  0.0613  0.0804  0.2811
 4489TIP3   OH235025   3.808   4.409   2.514 -0.2707  0.2071 -0.2132
 4489TIP3    H135026   3.893   4.373   2.490 -0.0569  0.9444 -0.5581
 4489TIP3    H235027   3.748   4.375   2.447 -0.0957  0.3846 -0.4585
 4490TIP3   OH235028   2.471   6.631   7.527  0.2300  0.0286 -0.1956
 4490TIP3    H135029   2.495   6.713   7.571 -0.4777  0.4731 -0.6140
 4490TIP3    H235030   2.440   6.575   7.597  0.5897  0.1648  0.0785
 4491TIP3   OH235031   1.419   3.329   1.315  0.0874 -0.4140  0.4165
 4491TIP3    H135032   1.506   3.294   1.293  0.5224 -0.6607  2.3780
 4491TIP3    H235033   1.361   3.291   1.249  0.7500 -3.8243  1.5580
 4492TIP3   OH235034   3.033   3.319   1.392  0.3054 -0.2564  0.2252
 4492TIP3    H135035   2.993   3.280   1.315 -0.1503  1.2405 -0.3449
 4492TIP3    H235036   2.967   3.379   1.426  1.5997  1.4151 -0.0694
 4493TIP3   OH235037   2.995   0.292   1.332  0.1564 -0.0701  0.1526
 4493TIP3    H135038   3.046   0.373   1.323  2.7394 -1.6186  0.0745
 4493TIP3    H235039   3.011   0.244   1.251 -0.4626 -1.1523  0.6496
 4494TIP3   OH235040   0.906   0.477   1.104  0.2795  0.2885  0.1732
 4494TIP3    H135041   0.917   0.463   1.198  0.9778  0.7037  0.1519
 4494TIP3    H235042   0.934   0.394   1.064 -0.7669 -0.1818  0.3583
 4495TIP3   OH235043   5.201   4.931   1.569  0.6223 -0.2123  0.0939
 4495TIP3    H135044   5.233   4.974   1.649 -1.0749  0.7749  0.2956
 4495TIP3    H235045   5.181   4.842   1.595  0.8645 -0.1287  0.5694
 4496TIP3   OH235046   1.905   1.021   6.971  0.3654  0.2226  0.4087
 4496TIP3    H135047   1.885   0.964   6.897 -0.1454  1.4307 -0.4290
 4496TIP3    H235048   1.911   0.962   7.046 -1.3102 -0.8175 -0.2025
 4497TIP3   OH235049   0.469   6.083   1.022 -0.3632 -0.6875  0.1032
 4497TIP3    H135050   0.385   6.072   1.066 -0.7851  0.4051 -0.3814
 4497TIP3    H235051   0.447   6.122   0.937  0.6557  0.0981  0.1731
 4498TIP3   OH235052   6.605   0.018   0.727  0.3870  0.2422  0.3699
 4498TIP3    H135053   6.685  -0.007   0.679  0.3637 -0.1344  0.5280
 4498TIP3    H235054   6.577   0.099   0.685  0.3664 -0.0870 -0.2654
 4499TIP3   OH235055   0.416   3.234   1.777  0.6147 -0.3095  0.5673
 4499TIP3    H135056   0.353   3.237   1.850 -0.4822  0.7636 -0.3771
 4499TIP3    H235057   0.377   3.173   1.715 -0.1214  1.2156 -0.5320
 4500TIP3   OH235058   4.457   6.075   8.318 -0.4686  0.3598  0.1577
 4500TIP3    H135059   4.419   6.069   8.406 -0.7311  1.5869  0.1416
 4500TIP3    H235060   4.500   5.990   8.305 -3.1369 -1.1147  0.1945
 4501TIP3   OH235061   1.914   2.407   6.789 -0.2226  0.4454 -0.1618
 4501TIP3    H135062   1.985   2.471   6.794  1.3503 -1.2494  0.4319
 4501TIP3    H235063   1.874   2.408   6.877  0.4940 -0.0936  0.1847
 4502TIP3   OH235064   0.460   5.864   7.351  0.2582 -0.2644 -0.2174
 4502TIP3    H135065   0.376   5.828   7.321  0.2087 -0.4462  0.1266
 4502TIP3    H235066   0.471   5.944   7.301  0.1371 -0.5167 -0.6576
 4503TIP3   OH235067   6.496   2.024   8.242  0.2921  0.0047  0.2435
 4503TIP3    H135068   6.562   1.965   8.279 -0.6441 -0.4113  1.3153
 4503TIP3    H235069   6.441   1.967   8.189 -1.3045 -0.3776  2.1912
 4504TIP3   OH235070   5.280   3.958   7.919  0.0381 -0.4216  0.6801
 4504TIP3    H135071   5.331   3.987   7.843  0.6701 -1.5209  0.6499
 4504TIP3    H235072   5.343   3.960   7.992 -0.1306 -0.8713  0.8432
 4505TIP3   OH235073   0.119   0.652   0.426  0.1150 -0.4899  0.1921
 4505TIP3    H135074   0.097   0.602   0.505  2.3709 -0.1529  1.1211
 4505TIP3    H235075   0.140   0.740   0.459 -1.4433  0.4353 -1.1354
 4506TIP3   OH235076   0.887   1.103   1.592 -0.0032  0.0376  0.1921
 4506TIP3    H135077   0.890   1.132   1.683 -0.5739  1.0025 -0.0780
 4506TIP3    H235078   0.962   1.144   1.551 -0.2574  0.3422  0.0284
 4507TIP3   OH235079   4.020   3.039   6.666  0.1511 -0.0997  0.1956
 4507TIP3    H135080   4.020   2.945   6.684  1.2531  0.2787  2.6620
 4507TIP3    H235081   3.943   3.073   6.713 -0.7165  0.1783 -1.3505
 4508TIP3   OH235082   4.096   2.891   0.698 -0.0584  0.3148  0.3517
 4508TIP3    H135083   4.142   2.939   0.767 -1.4197  0.9155  0.8894
 4508TIP3    H235084   4.026   2.951   0.671 -1.5283 -1.1677  0.7183
 4509TIP3   OH235085   0.775   3.381   1.526  0.1816  0.0801 -0.4317
 4509TIP3    H135086   0.761   3.469   1.490 -0.5574 -0.1921 -0.8578
 4509TIP3    H235087   0.796   3.327   1.449  3.0885  0.3111  0.0899
 4510TIP3   OH235088   1.025   6.296   6.526  0.4283  0.6726  0.0142
 4510TIP3    H135089   1.092   6.228   6.522  0.4180  0.5716  1.1634
 4510TIP3    H235090   0.990   6.301   6.437  0.8684 -0.3779 -0.2314
 4511TIP3   OH235091   4.470   2.255   0.565 -0.0821 -0.1609 -0.0873
 4511TIP3    H135092   4.441   2.288   0.650 -1.0716 -1.6484  0.1885
 4511TIP3    H235093   4.400   2.278   0.504  0.3666  0.4049 -0.4006
 4512TIP3   OH235094   1.239   1.087   0.376  0.0138 -0.4017  0.0420
 4512TIP3    H135095   1.318   1.118   0.422 -0.4618  0.7791  0.1022
 4512TIP3    H235096   1.224   0.999   0.412  0.2121  0.1047  1.4501
 4513TIP3   OH235097   0.005   0.962   7.070  0.0932 -0.0711 -0.4357
 4513TIP3    H135098   0.019   1.013   6.990 -0.8235 -0.2975 -0.7569
 4513TIP3    H235099   0.089   0.965   7.115 -0.0692  2.2720 -0.1293
 4514TIP3   OH235100   5.002   5.044   0.023 -0.5345 -0.7578 -0.1353
 4514TIP3    H135101   4.938   4.987  -0.021 -1.0107 -0.1684 -0.2302
 4514TIP3    H235102   4.950   5.120   0.050 -0.4360 -1.4543  2.1858
 4515TIP3   OH235103   0.332   0.019   8.293  0.0193  0.0939  0.1887
 4515TIP3    H135104   0.416  -0.019   8.266 -0.5415 -1.2357  0.2485
 4515TIP3    H235105   0.324  -0.005   8.385 -1.4467 -1.7632 -0.3769
 4516TIP3   OH235106   2.210   3.133   7.554  0.1963  0.1945  0.3420
 4516TIP3    H135107   2.129   3.174   7.584 -1.1684 -1.6999 -0.5513
 4516TIP3    H235108   2.265   3.206   7.525 -1.7414  1.4636 -0.3335
 4517TIP3   OH235109   1.069   2.964   0.179 -0.1625  0.5249 -0.0990
 4517TIP3    H135110   1.121   3.005   0.110  0.7770  0.4387  0.5420
 4517TIP3    H235111   1.102   3.001   0.260  0.5131 -1.2215  0.4858
 4518TIP3   OH235112   6.724   5.696   1.343 -0.4271  0.1361 -0.1419
 4518TIP3    H135113   6.739   5.606   1.370 -0.3044 -0.0642 -0.8864
 4518TIP3    H235114   6.784   5.711   1.270 -1.9404  0.1318 -1.4387
 4519TIP3   OH235115   4.545   0.723   0.244 -0.5870  0.5562  0.1085
 4519TIP3    H135116   4.499   0.647   0.280 -0.1273 -0.9033 -2.1590
 4519TIP3    H235117   4.637   0.708   0.266 -0.6404  1.0889  0.6979
 4520TIP3   OH235118   2.589   5.317   8.151 -0.7856  0.4132 -0.5403
 4520TIP3    H135119   2.659   5.262   8.186 -0.6461 -0.2958 -1.8726
 4520TIP3    H235120   2.617   5.406   8.170  0.0874  0.1059 -0.3429
 4521TIP3   OH235121   0.753   3.833   2.162 -0.1129 -0.3464 -0.0552
 4521TIP3    H135122   0.833   3.781   2.153 -0.3035 -0.6563  0.0382
 4521TIP3    H235123   0.682   3.771   2.147 -0.3897 -0.4871  1.6794
 4522TIP3   OH235124   1.987   5.996   8.426  0.1038 -0.2092  0.3694
 4522TIP3    H135125   1.983   5.985   8.331  0.4251  0.3582  0.2894
 4522TIP3    H235126   1.896   5.997   8.454  0.0149 -1.1241  0.1583
 4523TIP3   OH235127   5.458   0.990   2.142 -0.9451 -0.8544 -0.1404
 4523TIP3    H135128   5.369   1.026   2.148 -0.8409 -0.5985 -0.0886
 4523TIP3    H235129   5.446   0.897   2.126 -1.2260 -0.5833 -1.6446
 4524TIP3   OH235130   0.962   0.208   0.992 -0.1038 -0.1080  0.1054
 4524TIP3    H135131   1.047   0.235   1.028  0.8827 -1.7193 -0.8887
 4524TIP3    H235132   0.909   0.189   1.069  0.8913 -0.3692  0.7463
 4525TIP3   OH235133   0.766   2.019   0.662 -0.1723  0.5215 -0.1302
 4525TIP3    H135134   0.776   2.051   0.573 -0.4163 -0.6453 -0.6040
 4525TIP3    H235135   0.703   1.947   0.654 -0.6959  0.8318  1.0847
 4526TIP3   OH235136   3.273   5.112   8.120  0.5658  0.0342 -0.3093
 4526TIP3    H135137   3.307   5.157   8.197  2.0677  0.7124 -1.3291
 4526TIP3    H235138   3.348   5.065   8.083 -0.0707 -0.1308 -1.4674
 4527TIP3   OH235139   3.743   1.448   1.879 -0.0958 -0.3384  0.4683
 4527TIP3    H135140   3.762   1.355   1.868 -0.9818 -0.5593  0.6779
 4527TIP3    H235141   3.806   1.478   1.945  0.1662 -0.8036  0.4322
 4528TIP3   OH235142   5.252   2.288   8.304  0.6153 -0.4196  0.2086
 4528TIP3    H135143   5.217   2.246   8.225 -1.8936 -0.8102  1.4451
 4528TIP3    H235144   5.256   2.218   8.369 -0.8087  0.5954  1.4509
 4529TIP3   OH235145   0.254   5.872   7.689 -0.0746 -0.9031 -0.2309
 4529TIP3    H135146   0.160   5.872   7.704  0.0962  1.5147  1.4057
 4529TIP3    H235147   0.270   5.950   7.636  1.0305 -1.2342 -0.4134
 4530TIP3   OH235148   1.621   4.485   6.773  0.2729 -0.1176 -0.5541
 4530TIP3    H135149   1.698   4.543   6.773  0.7497 -0.7379 -0.3384
 4530TIP3    H235150   1.608   4.462   6.681  0.0364  0.3807 -0.6505
 4531TIP3   OH235151   2.928   2.882   0.628 -0.2424  0.5098 -0.1299
 4531TIP3    H135152   2.879   2.950   0.582 -0.5492 -0.8212 -1.9100
 4531TIP3    H235153   3.014   2.882   0.586 -0.2464 -0.1793 -0.1475
 4532TIP3   OH235154   0.983   1.905   8.113  0.4591  0.4604 -0.6415
 4532TIP3    H135155   0.939   1.975   8.064 -0.2358 -0.4020 -1.2898
 4532TIP3    H235156   1.001   1.838   8.047  0.9342 -0.0601  0.0050
 4533TIP3   OH235157   1.323   3.342   0.047  0.1720 -0.2052 -0.4994
 4533TIP3    H135158   1.324   3.348   0.143  0.9415 -1.4187 -0.4191
 4533TIP3    H235159   1.303   3.431   0.018  2.1007  0.6919  0.7419
 4534TIP3   OH235160   4.074   0.109   6.579 -0.0772  0.3412  0.1876
 4534TIP3    H135161   4.020   0.148   6.510 -0.1457  1.4262  0.8389
 4534TIP3    H235162   4.104   0.026   6.542  1.3143  1.6557 -1.8260
 4535TIP3   OH235163   6.057   5.012   6.053 -0.5191  0.0059 -0.5209
 4535TIP3    H135164   5.988   5.060   6.099  0.0665  0.0951  0.2902
 4535TIP3    H235165   6.130   5.074   6.048  0.0616 -0.6060  0.0749
 4536TIP3   OH235166   5.142   3.528   8.771 -0.5037 -0.0150  0.4260
 4536TIP3    H135167   5.083   3.587   8.817 -1.7840 -1.4616  0.7292
 4536TIP3    H235168   5.166   3.462   8.837 -2.8702 -2.4870 -0.9778
 4537TIP3   OH235169   3.279   3.567   6.762 -0.2411 -0.3031  0.3671
 4537TIP3    H135170   3.346   3.620   6.806 -0.8822  1.1630 -0.3459
 4537TIP3    H235171   3.324   3.532   6.685 -0.0331 -0.1245  0.4056
 4538TIP3   OH235172   5.832   6.409   0.207  0.6212 -0.0554 -0.0019
 4538TIP3    H135173   5.743   6.375   0.196  0.1738  0.7713  0.8974
 4538TIP3    H235174   5.841   6.420   0.302  1.2857  0.9051 -0.1675
 4539TIP3   OH235175   2.723   3.426   7.794 -0.2275 -0.1028 -0.5070
 4539TIP3    H135176   2.629   3.406   7.788 -0.1202 -1.1930  0.9277
 4539TIP3    H235177   2.761   3.387   7.715 -0.6492 -1.9448  0.1483
 4540TIP3   OH235178   3.319   4.003   6.702  0.2833 -0.0842  0.2667
 4540TIP3    H135179   3.351   4.065   6.635  2.3780 -1.0416  0.2883
 4540TIP3    H235180   3.307   4.057   6.780 -1.1253  0.8519 -0.5641
 4541TIP3   OH235181   6.593   0.815   8.267 -0.2126  0.2151 -0.2244
 4541TIP3    H135182   6.646   0.854   8.198  1.2040  0.5402  1.0060
 4541TIP3    H235183   6.656   0.785   8.332 -1.2906 -3.2122 -0.5819
 4542TIP3   OH235184   5.587   1.640   7.271  0.1074  0.0709 -0.7829
 4542TIP3    H135185   5.501   1.672   7.244 -0.1211 -0.4507 -0.6642
 4542TIP3    H235186   5.589   1.549   7.243 -0.4901 -0.7961  1.7650
 4543TIP3   OH235187   6.186   3.549   6.913  0.1346 -0.0881 -0.2572
 4543TIP3    H135188   6.172   3.498   6.834 -0.1379 -2.0600  0.9930
 4543TIP3    H235189   6.124   3.622   6.907 -1.2730 -1.3047 -0.9567
 4544TIP3   OH235190   5.296   3.343   0.702  0.7093  0.2086  0.2061
 4544TIP3    H135191   5.237   3.352   0.777  0.3399  0.3916 -0.0996
 4544TIP3    H235192   5.344   3.426   0.698 -0.6989  1.0155 -0.9414
 4545TIP3   OH235193   5.106   4.362   1.005  0.5918 -0.6358  0.0311
 4545TIP3    H135194   5.179   4.401   1.054  0.7658 -1.7155  0.6538
 4545TIP3    H235195   5.118   4.268   1.015  0.0191 -0.8620 -1.2191
 4546TIP3   OH235196   3.553   1.007   8.687  0.1678 -0.4769  0.3147
 4546TIP3    H135197   3.575   1.000   8.594  1.4186 -0.0669  0.5652
 4546TIP3    H235198   3.625   0.965   8.732 -0.6158 -1.0030  1.1081
 4547TIP3   OH235199   1.205   2.955   7.825 -0.1866 -0.1100 -0.0367
 4547TIP3    H135200   1.282   2.958   7.882  0.1961 -1.7100 -0.4378
 4547TIP3    H235201   1.134   2.926   7.881 -0.1775 -0.0688 -0.0036
 4548TIP3   OH235202   1.608   5.917   0.600 -0.0380  0.5339  0.1763
 4548TIP3    H135203   1.530   5.862   0.595  0.1046  0.4276 -1.0908
 4548TIP3    H235204   1.600   5.963   0.684 -0.3557 -1.1211  1.1015
 4549TIP3   OH235205   2.709   2.281   7.010 -0.1413  0.5317 -0.3959
 4549TIP3    H135206   2.775   2.243   6.951  0.9387  3.1142 -1.0119
 4549TIP3    H235207   2.628   2.278   6.960 -0.0047 -0.5929 -0.5667
 4550TIP3   OH235208   3.820   3.554   1.538 -0.3048 -0.5532 -0.0478
 4550TIP3    H135209   3.775   3.637   1.524  0.1381 -0.1745  0.6979
 4550TIP3    H235210   3.867   3.566   1.621  1.1810 -0.9253 -0.7978
 4551TIP3   OH235211   2.837   6.738   1.735  0.2551 -0.0916 -0.4617
 4551TIP3    H135212   2.844   6.678   1.661 -0.5462  0.2527 -0.8271
 4551TIP3    H235213   2.888   6.696   1.804  1.8223  0.0414 -1.4901
 4552TIP3   OH235214   6.371   2.098   6.866  0.0217  0.1065 -0.6610
 4552TIP3    H135215   6.317   2.092   6.944 -1.1602 -0.2437 -1.4845
 4552TIP3    H235216   6.450   2.143   6.895 -0.5084  0.2193  0.6688
 4553TIP3   OH235217   1.178   3.542   7.749  0.6062  0.4428 -0.1716
 4553TIP3    H135218   1.083   3.549   7.751  0.4757 -0.9484  2.1499
 4553TIP3    H235219   1.208   3.628   7.719 -1.3455  0.3860 -2.6483
 4554TIP3   OH235220   5.384   3.161   2.044 -0.0038  0.2132  0.2608
 4554TIP3    H135221   5.447   3.091   2.025  0.4911  0.7355 -0.0474
 4554TIP3    H235222   5.410   3.194   2.130 -0.0510  0.2166  0.2737
 4555TIP3   OH235223   6.480   6.384   7.071  0.1337 -0.0865 -0.1934
 4555TIP3    H135224   6.389   6.410   7.086 -0.0992 -1.4005  0.8749
 4555TIP3    H235225   6.531   6.461   7.093 -0.6809  0.4908 -0.2643
 4556TIP3   OH235226   2.731   5.226   0.097 -0.6315 -0.3473 -0.1567
 4556TIP3    H135227   2.767   5.159   0.156  0.1278 -2.0724 -2.4390
 4556TIP3    H235228   2.792   5.299   0.105  0.9476 -1.5481 -0.6583
 4557TIP3   OH235229   5.907   4.899   1.809  0.5026  0.1558  0.0933
 4557TIP3    H135230   5.962   4.824   1.831 -1.2569 -1.1298  0.3009
 4557TIP3    H235231   5.864   4.922   1.891  0.8940  1.3193 -0.0063
 4558TIP3   OH235232   2.396   0.835   1.229 -0.2973  0.1302 -0.0445
 4558TIP3    H135233   2.456   0.839   1.303 -0.7583  1.1317  0.2914
 4558TIP3    H235234   2.435   0.892   1.162  0.4194 -1.2281 -0.8243
 4559TIP3   OH235235   6.602   1.020   1.787 -0.4834 -0.7416  0.1804
 4559TIP3    H135236   6.507   1.027   1.787 -0.5417 -1.3653  1.1437
 4559TIP3    H235237   6.626   1.003   1.878  0.6219  0.2270  0.0972
 4560TIP3   OH235238   2.044   6.315   1.005  0.6581 -0.0740 -0.2057
 4560TIP3    H135239   1.979   6.276   1.063  1.2689 -2.2407 -0.8746
 4560TIP3    H235240   2.024   6.408   1.005 -1.6644 -0.5134  0.5637
 4561TIP3   OH235241   6.499   3.909   7.897 -0.2502  0.4409  0.2233
 4561TIP3    H135242   6.562   3.839   7.915 -0.9221 -0.2197  0.0464
 4561TIP3    H235243   6.466   3.889   7.809  0.7748  1.9274 -0.5467
 4562TIP3   OH235244   6.337   2.857   8.355  0.0917 -0.4651  0.0207
 4562TIP3    H135245   6.395   2.925   8.388 -0.4335  0.4367 -0.8459
 4562TIP3    H235246   6.333   2.792   8.425  1.0107  0.1414  0.6583
 4563TIP3   OH235247   6.491   4.170   7.822 -0.7100 -0.1326 -0.5551
 4563TIP3    H135248   6.502   4.083   7.862 -0.7190 -0.4876 -1.3152
 4563TIP3    H235249   6.550   4.170   7.747 -0.4893  0.6360 -0.3898
 4564TIP3   OH235250   5.621   0.171   1.101  0.3968  0.0743  0.5572
 4564TIP3    H135251   5.536   0.202   1.070 -0.3129 -1.1867  1.1537
 4564TIP3    H235252   5.677   0.175   1.023 -1.3370 -3.0754 -1.0547
 4565TIP3   OH235253   6.172   2.431   6.259  0.0931 -0.6457  0.1473
 4565TIP3    H135254   6.167   2.396   6.170 -1.0284  2.8992 -1.3806
 4565TIP3    H235255   6.104   2.384   6.307 -0.4837 -1.4259 -1.3627
 4566TIP3   OH235256   3.049   6.363   0.700  0.3499 -0.0500 -0.3535
 4566TIP3    H135257   2.962   6.390   0.729  0.1713 -1.3791  0.4121
 4566TIP3    H235258   3.098   6.445   0.692 -1.2727  0.8434 -1.9286
 4567TIP3   OH235259   6.219   4.578   8.655 -0.2833  0.5948  0.0234
 4567TIP3    H135260   6.159   4.581   8.729 -1.0014 -0.8271 -0.4654
 4567TIP3    H235261   6.299   4.539   8.690  0.5945  2.9278  0.7888
 4568TIP3   OH235262   3.965   5.438   8.663  0.2120  0.1688 -0.3628
 4568TIP3    H135263   3.907   5.487   8.606  0.5015  0.4852 -0.3927
 4568TIP3    H235264   3.949   5.346   8.642 -0.1091  0.2649 -0.5290
 4569TIP3   OH235265   4.089   1.029   1.158  0.2060  0.4856  0.0932
 4569TIP3    H135266   4.156   1.095   1.177  0.5042  0.4914 -0.9113
 4569TIP3    H235267   4.109   1.000   1.069 -0.4723 -0.3099  0.1859
 4570TIP3   OH235268   3.484   1.473   0.184  0.2377  0.4886 -0.2167
 4570TIP3    H135269   3.526   1.485   0.099  0.4952 -0.9259 -0.3116
 4570TIP3    H235270   3.391   1.467   0.165  0.3587 -0.6547 -0.5174
 4571TIP3   OH235271   4.634   0.122   7.942  0.0179  0.0059  0.0780
 4571TIP3    H135272   4.577   0.048   7.922  0.4564 -0.1528 -0.6051
 4571TIP3    H235273   4.713   0.106   7.890  1.3027 -0.5363  2.0819
 4572TIP3   OH235274   0.317   4.127   7.880 -0.6614 -0.1042  0.1607
 4572TIP3    H135275   0.388   4.183   7.850 -1.0352 -0.1864 -0.9136
 4572TIP3    H235276   0.344   4.039   7.855 -0.9716 -0.1771  0.0784
 4573TIP3   OH235277   2.170   2.327   7.299  0.0789 -0.0168  0.1184
 4573TIP3    H135278   2.251   2.356   7.341  0.5617  0.1655 -0.8961
 4573TIP3    H235279   2.154   2.392   7.231  0.2218 -1.1431 -1.0350
 4574TIP3   OH235280   0.563   4.542   7.204 -0.1896 -0.0880 -0.0774
 4574TIP3    H135281   0.588   4.580   7.288  0.7128 -1.3081  0.2466
 4574TIP3    H235282   0.610   4.594   7.139  1.0332 -0.6099  0.3531
 4575TIP3   OH235283   3.883   3.640   0.708  0.0360 -0.2523 -0.0594
 4575TIP3    H135284   3.871   3.594   0.625  0.4902 -1.3814  0.4740
 4575TIP3    H235285   3.946   3.709   0.689 -0.5106  0.0347 -0.8390
 4576TIP3   OH235286   0.802   5.327   8.173  0.2202 -0.0793  0.3190
 4576TIP3    H135287   0.758   5.398   8.220 -1.6375 -0.6307 -0.4943
 4576TIP3    H235288   0.813   5.258   8.238 -0.7992 -0.2049  0.3710
 4577TIP3   OH235289   1.574   6.065   8.794 -0.2831  0.6028 -0.0801
 4577TIP3    H135290   1.608   6.132   8.853 -1.7630  1.0957  0.2785
 4577TIP3    H235291   1.552   5.992   8.851  1.8556 -0.4468 -0.5437
 4578TIP3   OH235292   0.295   6.341   7.403  0.5195 -0.3275  0.6825
 4578TIP3    H135293   0.340   6.393   7.337 -1.8012 -0.2769 -1.0078
 4578TIP3    H235294   0.211   6.385   7.415 -0.3701 -2.0712  1.3390
 4579TIP3   OH235295   5.837   4.982   0.422 -0.3319 -0.0875  0.2447
 4579TIP3    H135296   5.879   5.067   0.438 -1.7431  0.2945  2.1895
 4579TIP3    H235297   5.799   4.957   0.506 -0.1500 -2.5826 -0.3247
 4580TIP3   OH235298   2.444   1.556   2.479  0.1017  0.3968 -0.0907
 4580TIP3    H135299   2.411   1.468   2.461  0.0382  0.2431  0.7555
 4580TIP3    H235300   2.538   1.550   2.460  0.0439  0.2357 -0.3352
 4581TIP3   OH235301   6.085   4.623   8.886 -0.4299  0.5927 -1.4358
 4581TIP3    H135302   5.997   4.618   8.848 -1.1671 -0.8941  0.3168
 4581TIP3    H235303   6.087   4.708   8.930 -1.5578  0.0703 -0.2958
 4582TIP3   OH235304   2.506   3.886   7.893 -0.1818 -0.1096  0.3242
 4582TIP3    H135305   2.533   3.807   7.940  0.7822  0.1134  0.1758
 4582TIP3    H235306   2.470   3.853   7.811 -1.7312 -0.4933  1.1098
 4583TIP3   OH235307   0.259   2.274   1.318  0.0767 -0.6184 -0.0550
 4583TIP3    H135308   0.311   2.194   1.307 -0.1117 -0.8126  0.4215
 4583TIP3    H235309   0.195   2.251   1.385  0.1627  0.0035  0.2437
 4584TIP3   OH235310   3.954   3.534   7.609  0.4507  0.0009 -0.0503
 4584TIP3    H135311   3.926   3.443   7.592 -1.1331  0.4366  0.0581
 4584TIP3    H235312   3.924   3.551   7.698 -0.8095  1.1595 -0.6617
 4585TIP3   OH235313   5.738   0.527   0.336 -0.2580  0.4250  0.9038
 4585TIP3    H135314   5.823   0.557   0.367 -1.4517  3.7110  1.3989
 4585TIP3    H235315   5.678   0.545   0.409 -1.6560 -0.1452 -0.0581
 4586TIP3   OH235316   6.323   6.529   0.869 -0.0447 -0.2826  0.4244
 4586TIP3    H135317   6.384   6.602   0.877 -1.9557  1.6275 -1.0470
 4586TIP3    H235318   6.361   6.459   0.922  3.2922  0.7901 -0.3161
 4587TIP3   OH235319   0.112   3.565   1.531  0.6084  0.2941 -0.0010
 4587TIP3    H135320   0.043   3.500   1.515 -0.0628  0.7734  0.9115
 4587TIP3    H235321   0.193   3.514   1.530  0.1492 -0.4523  0.0130
 4588TIP3   OH235322   4.189   1.838   2.846 -0.3077 -0.6289  0.2253
 4588TIP3    H135323   4.126   1.807   2.911 -0.8513 -0.6703 -0.3131
 4588TIP3    H235324   4.194   1.932   2.861 -0.3218 -0.6589  0.4230
 4589TIP3   OH235325   3.386   2.922   8.065  0.2055  0.0131 -0.5897
 4589TIP3    H135326   3.334   2.986   8.017 -0.6963  1.3652  1.9554
 4589TIP3    H235327   3.321   2.864   8.106  0.7292  0.5415  1.0770
 4590TIP3   OH235328   1.061   1.347   2.294  0.1811 -0.5241  0.2141
 4590TIP3    H135329   0.974   1.369   2.260  0.1656 -1.4002 -0.3513
 4590TIP3    H235330   1.098   1.431   2.321  0.0361  0.1919 -1.6463
 4591TIP3   OH235331   4.935   2.158   8.780  0.1376 -0.3845  0.0300
 4591TIP3    H135332   4.905   2.073   8.810 -1.1216  0.6965  2.1055
 4591TIP3    H235333   4.855   2.209   8.769  0.9081  0.9128  0.1654
 4592TIP3   OH235334   4.734   3.816   1.845 -0.1223 -0.3055 -0.1030
 4592TIP3    H135335   4.750   3.805   1.751  2.0375  0.2668  0.1479
 4592TIP3    H235336   4.682   3.739   1.869 -0.8466 -0.3911 -1.7727
 4593TIP3   OH235337   5.087   4.105   7.592  0.4394  0.6979 -0.1711
 4593TIP3    H135338   5.068   4.196   7.616  1.9817  1.3980 -1.3988
 4593TIP3    H235339   5.001   4.066   7.574 -0.2344  1.9803  0.1452
 4594TIP3   OH235340   4.051   5.815   6.626 -0.2136 -0.1756  0.1335
 4594TIP3    H135341   4.131   5.782   6.669  0.3924 -0.6560 -1.2781
 4594TIP3    H235342   3.994   5.738   6.620 -1.2142  0.3725  1.9833
 4595TIP3   OH235343   4.759   2.214   0.713 -0.3320  0.0365  0.6737
 4595TIP3    H135344   4.769   2.120   0.693 -1.0120 -0.1370  1.1202
 4595TIP3    H235345   4.702   2.216   0.790  1.0645  0.7471  1.7348
 4596TIP3   OH235346   6.719   0.622   0.750  0.2496 -0.4524 -0.0190
 4596TIP3    H135347   6.757   0.704   0.720  0.4208 -1.3242 -2.3419
 4596TIP3    H235348   6.643   0.608   0.694  0.4881 -2.1114  0.0165
 4597TIP3   OH235349   3.370   4.931   0.590 -0.0369  0.2527 -0.0294
 4597TIP3    H135350   3.437   4.897   0.650  0.4010  2.9287  1.1284
 4597TIP3    H235351   3.314   4.986   0.645 -2.7568 -1.1882 -1.1396
 4598TIP3   OH235352   3.118   1.358   6.980 -0.0319  0.4377 -0.0844
 4598TIP3    H135353   3.069   1.441   6.978 -0.1206  0.4116  0.5656
 4598TIP3    H235354   3.088   1.311   6.903 -2.1655 -0.1894  1.0234
 4599TIP3   OH235355   0.721   5.404   7.810  0.0779 -0.2040 -1.0585
 4599TIP3    H135356   0.685   5.334   7.865 -0.8283  0.1020 -1.2357
 4599TIP3    H235357   0.688   5.485   7.850 -0.0484  0.0512 -1.6637
 4600TIP3   OH235358   3.497   6.248   8.664  0.0369  0.9210  0.2369
 4600TIP3    H135359   3.415   6.207   8.691  1.0605 -0.9090  0.7234
 4600TIP3    H235360   3.470   6.320   8.606 -1.9613  1.4805  1.7453
 4601TIP3   OH235361   4.743   6.219   8.240 -0.7856 -0.4652 -0.1538
 4601TIP3    H135362   4.780   6.161   8.174  1.0549  0.1842  0.2602
 4601TIP3    H235363   4.707   6.293   8.190 -1.0686 -0.8615 -0.5353
 4602TIP3   OH235364   6.595   3.395   7.918 -0.3812  0.3467 -0.8262
 4602TIP3    H135365   6.654   3.322   7.938 -0.6119  0.6633  1.2976
 4602TIP3    H235366   6.515   3.375   7.967 -0.5305  1.8742 -0.3817
 4603TIP3   OH235367   3.380   4.273   1.104  0.1022 -0.0062  0.1001
 4603TIP3    H135368   3.310   4.331   1.132 -1.6734 -2.1094  0.3325
 4603TIP3    H235369   3.395   4.215   1.178 -0.0188 -1.4481 -0.9515
 4604TIP3   OH235370   5.212   4.460   0.649  0.5085  0.4237 -0.8516
 4604TIP3    H135371   5.224   4.517   0.573  1.8202  1.1131 -0.1721
 4604TIP3    H235372   5.273   4.495   0.714 -0.2956 -0.3908  0.3781
 4605TIP3   OH235373   0.195   3.705   8.266 -0.3595 -0.5323 -0.1078
 4605TIP3    H135374   0.144   3.784   8.247  0.4362 -0.0563 -0.2851
 4605TIP3    H235375   0.204   3.706   8.362 -1.8502 -1.3671  0.0809
 4606TIP3   OH235376   5.873   2.984   8.157  0.3062  0.0949  0.2036
 4606TIP3    H135377   5.942   2.942   8.105 -0.1899 -0.1686 -0.2488
 4606TIP3    H235378   5.918   3.015   8.235  0.8866 -0.3306  0.0467
 4607TIP3   OH235379   1.496   4.563   0.309  0.1063 -0.2994  0.5988
 4607TIP3    H135380   1.421   4.504   0.305  0.3205 -0.6081  1.0800
 4607TIP3    H235381   1.457   4.650   0.312 -0.1977 -0.3055 -1.4500
 4608TIP3   OH235382   4.186   0.757   2.824 -0.2039 -0.3807  0.3205
 4608TIP3    H135383   4.112   0.811   2.796 -1.6993 -2.3967  0.2006
 4608TIP3    H235384   4.235   0.739   2.744 -1.0574 -1.1430 -0.0480
 4609TIP3   OH235385   5.667   1.901   8.467  0.0285 -0.3625 -0.6455
 4609TIP3    H135386   5.638   1.814   8.440 -1.1300  0.0687 -0.8363
 4609TIP3    H235387   5.640   1.908   8.558 -1.2068  0.3430 -1.0506
 4610TIP3   OH235388   1.576   2.076   8.051 -0.0903 -0.3274 -0.0746
 4610TIP3    H135389   1.555   2.165   8.080 -2.2764 -1.4318  2.0663
 4610TIP3    H235390   1.667   2.063   8.078  0.3117  1.2587 -0.5433
 4611TIP3   OH235391   5.188   1.940   1.480  0.3797 -0.0970 -0.4056
 4611TIP3    H135392   5.137   1.992   1.418 -0.6960 -0.4663  0.1435
 4611TIP3    H235393   5.278   1.967   1.465 -0.1022  1.6267 -0.4266
 4612TIP3   OH235394   2.100   5.317   7.988 -0.5335 -0.0758 -0.7326
 4612TIP3    H135395   2.136   5.292   7.903  0.3581 -1.8546  0.1019
 4612TIP3    H235396   2.178   5.331   8.043 -1.0592  2.2433 -0.4663
 4613TIP3   OH235397   3.089   3.285   7.449  0.7866 -0.0369 -0.0815
 4613TIP3    H135398   3.169   3.270   7.499 -0.5070 -0.1146  2.1101
 4613TIP3    H235399   3.067   3.200   7.412  1.5895 -0.0481 -0.5693
 4614TIP3   OH235400   2.503   5.988   1.576 -0.5843  0.6056 -0.0363
 4614TIP3    H135401   2.427   5.950   1.532 -1.2920  0.4883  1.2352
 4614TIP3    H235402   2.465   6.041   1.647  0.5207  0.2265  0.8676
 4615TIP3   OH235403   1.268   6.392   8.283 -0.0962 -0.1963  0.1306
 4615TIP3    H135404   1.322   6.470   8.295  0.3407 -0.5277  0.3472
 4615TIP3    H235405   1.179   6.426   8.273  0.1744  0.3699 -0.4577
 4616TIP3   OH235406   0.707   0.234   8.745 -0.5757 -0.1386 -0.9573
 4616TIP3    H135407   0.747   0.237   8.659 -2.2388  3.1114 -1.7782
 4616TIP3    H235408   0.765   0.286   8.801  0.2549 -1.8480 -0.1464
 4617TIP3   OH235409   5.026   1.876   8.900 -0.1087  0.2938 -0.2079
 4617TIP3    H135410   5.021   1.884   8.996  2.7584 -1.2478  0.1684
 4617TIP3    H235411   5.109   1.918   8.877  2.5034 -4.6331 -1.0883
 4618TIP3   OH235412   0.003   2.644   6.604 -0.1938  0.0153 -0.8212
 4618TIP3    H135413   0.047   2.688   6.531 -0.4847  0.5010 -0.7118
 4618TIP3    H235414   0.075   2.612   6.659  0.0577  1.4404 -0.2625
 4619TIP3   OH235415   5.589   0.767   7.533  0.6598 -0.1549 -0.2979
 4619TIP3    H135416   5.502   0.770   7.493  1.0063 -0.2154 -1.0847
 4619TIP3    H235417   5.600   0.675   7.560  1.5924 -0.8899 -2.8455
 4620TIP3   OH235418   3.081   2.557   1.177  0.0978  0.0140  0.0357
 4620TIP3    H135419   2.996   2.589   1.207 -0.4652  0.4110 -1.8533
 4620TIP3    H235420   3.062   2.471   1.140  0.8833 -0.7350  1.2881
 4621TIP3   OH235421   5.633   5.401   0.209 -0.4337 -0.7768 -0.4068
 4621TIP3    H135422   5.600   5.349   0.136 -1.4735  1.6484 -1.7610
 4621TIP3    H235423   5.705   5.452   0.172  0.7622 -1.3935  0.9629
 4622TIP3   OH235424   4.486   1.957   0.961 -0.0299  0.2763 -0.0152
 4622TIP3    H135425   4.479   1.968   0.867  0.9197 -0.8804 -0.2352
 4622TIP3    H235426   4.507   1.865   0.974  0.5104  0.5550  1.2964
 4623TIP3   OH235427   2.304   1.413   0.459 -0.1213 -0.3377 -0.1276
 4623TIP3    H135428   2.314   1.387   0.367  0.2721 -0.0472 -0.1729
 4623TIP3    H235429   2.291   1.331   0.506  0.0971 -0.5259 -0.3938
 4624TIP3   OH235430   2.806   0.498   8.766 -0.1015 -0.7154 -0.1790
 4624TIP3    H135431   2.833   0.564   8.702 -1.2422 -0.3548 -0.3185
 4624TIP3    H235432   2.856   0.518   8.845 -0.9534  0.8074  0.0120
 4625TIP3   OH235433   1.904   0.640   7.642  0.1584 -0.2892 -0.1379
 4625TIP3    H135434   1.841   0.589   7.692  0.1340  0.4843  0.6415
 4625TIP3    H235435   1.963   0.677   7.708  1.8047 -1.4679 -0.8759
 4626TIP3   OH235436   1.775   2.977   7.930  0.1838  0.0215  0.7848
 4626TIP3    H135437   1.706   2.986   7.864  0.3100 -1.0977  0.4848
 4626TIP3    H235438   1.855   3.002   7.884  0.0439  1.0323  1.0512
 4627TIP3   OH235439   2.456   1.888   6.298  0.3264 -0.2929 -0.2286
 4627TIP3    H135440   2.364   1.873   6.321 -0.5958  2.3273 -1.7732
 4627TIP3    H235441   2.501   1.890   6.383 -1.5023  0.8458  0.7901
 4628TIP3   OH235442   6.019   2.361   1.595 -1.0184 -0.2790  0.2641
 4628TIP3    H135443   5.964   2.366   1.517  1.3569  1.9983 -1.4363
 4628TIP3    H235444   6.040   2.268   1.603 -1.3959 -0.5948 -1.7781
 4629TIP3   OH235445   1.680   6.627   1.107 -0.0828  1.0014  0.0815
 4629TIP3    H135446   1.594   6.669   1.102 -0.7407 -0.0514  1.5774
 4629TIP3    H235447   1.680   6.565   1.035 -0.5054  1.1558 -0.0568
 4630TIP3   OH235448   2.466   0.139   8.038 -0.3162  0.2313 -0.1177
 4630TIP3    H135449   2.461   0.125   8.133  0.8469  0.8870  0.0600
 4630TIP3    H235450   2.462   0.051   8.001  1.7382 -0.2571  0.6886
 4631TIP3   OH235451   2.133   1.043   7.761  0.5588 -0.2837 -0.6868
 4631TIP3    H135452   2.145   1.134   7.737  1.2758 -0.3818 -0.7110
 4631TIP3    H235453   2.181   1.033   7.843  1.4187 -0.8945 -1.2425
 4632TIP3   OH235454   0.160   6.680   7.509  0.6347  0.2022 -0.3262
 4632TIP3    H135455   0.233   6.659   7.568  2.1182  0.5235 -1.9448
 4632TIP3    H235456   0.126   6.763   7.540  1.9124  0.7613 -0.3745
 4633TIP3   OH235457   5.651   1.032   7.570 -0.0751 -0.1311 -0.0898
 4633TIP3    H135458   5.663   0.937   7.563  1.7442  0.2022 -2.8341
 4633TIP3    H235459   5.613   1.058   7.486 -0.8690  1.5652  0.7437
 4634TIP3   OH235460   2.786   2.499   0.990 -0.0503  0.1533 -0.2983
 4634TIP3    H135461   2.744   2.500   1.076  1.6522 -0.5721  0.6029
 4634TIP3    H235462   2.733   2.440   0.937 -0.3285 -0.5030  0.6985
 4635TIP3   OH235463   0.179   5.879   8.695 -0.1278  0.1763 -0.0619
 4635TIP3    H135464   0.195   5.785   8.681 -0.1810  0.1887 -0.2035
 4635TIP3    H235465   0.153   5.885   8.787 -0.7113 -0.0270 -0.2101
 4636TIP3   OH235466   1.380   1.896   1.611  0.2913  0.1460 -0.3563
 4636TIP3    H135467   1.381   1.829   1.680 -1.2280  0.8487  0.4129
 4636TIP3    H235468   1.347   1.850   1.534 -1.3212  0.0978  0.3200
 4637TIP3   OH235469   2.368   4.187   1.358 -0.2501  0.3551  0.1084
 4637TIP3    H135470   2.365   4.119   1.291  0.0943  2.8880 -2.7238
 4637TIP3    H235471   2.280   4.186   1.397  0.1113 -2.4011  1.0618
 4638TIP3   OH235472   4.621   6.130   1.682  0.0809 -0.7722 -0.3798
 4638TIP3    H135473   4.622   6.223   1.707  0.7934 -0.9352  0.2370
 4638TIP3    H235474   4.597   6.084   1.762 -0.1204 -1.1306 -0.6476
 4639TIP3   OH235475   0.984   0.998   1.019 -0.0307 -0.5931  0.4695
 4639TIP3    H135476   0.969   0.999   0.925 -3.3710  1.1135  0.8686
 4639TIP3    H235477   1.063   1.051   1.031 -0.8028  1.0792 -1.2804
 4640TIP3   OH235478   0.771   5.193   2.038  0.2363 -0.3970 -0.3018
 4640TIP3    H135479   0.782   5.218   1.946  1.8248 -0.9397 -0.3008
 4640TIP3    H235480   0.833   5.121   2.050  1.0356  0.5364  1.5392
 4641TIP3   OH235481   3.751   1.757   8.501 -0.5028 -0.1503  0.1467
 4641TIP3    H135482   3.802   1.679   8.480  0.0579  0.0183  0.8775
 4641TIP3    H235483   3.796   1.828   8.455 -3.0024 -0.6744 -3.5784
 4642TIP3   OH235484   4.198   1.415   1.799  0.1361  0.2621  0.1456
 4642TIP3    H135485   4.102   1.417   1.796  0.0936  0.6033  1.3798
 4642TIP3    H235486   4.223   1.504   1.822  0.6281 -0.3558  2.1994
 4643TIP3   OH235487   6.039   2.534   8.280  0.0749 -0.0835  0.5418
 4643TIP3    H135488   5.971   2.599   8.263 -0.7577 -0.5100  2.1017
 4643TIP3    H235489   6.101   2.545   8.207 -1.2910  0.7696 -0.5463
 4644TIP3   OH235490   6.737   4.527   0.918  0.3145 -0.1045  0.5675
 4644TIP3    H135491   6.787   4.553   0.995 -1.4270 -1.6171  2.3035
 4644TIP3    H235492   6.734   4.431   0.922  0.5063 -0.2536 -1.6360
 4645TIP3   OH235493   1.044   5.476   1.528  0.0763  0.1352  0.1339
 4645TIP3    H135494   0.997   5.394   1.543  0.1658 -0.1372 -0.9384
 4645TIP3    H235495   1.106   5.482   1.601  1.2287 -1.6175 -0.6125
 4646TIP3   OH235496   0.471   2.946   6.496 -0.1245 -0.1117  0.8760
 4646TIP3    H135497   0.428   2.968   6.578  1.4273 -1.2431  2.0500
 4646TIP3    H235498   0.514   2.861   6.513  0.8915  0.0109 -0.8312
 4647TIP3   OH235499   2.601   1.269   2.735  0.5921  0.5506  0.2441
 4647TIP3    H135500   2.589   1.195   2.676 -0.1649  0.7153  0.1800
 4647TIP3    H235501   2.676   1.318   2.699  1.2833 -0.3310  0.4532
 4648TIP3   OH235502   4.257   5.159   7.257  0.3261  0.0616 -0.2935
 4648TIP3    H135503   4.246   5.187   7.167 -3.0171  0.3081  0.0956
 4648TIP3    H235504   4.284   5.067   7.250 -3.2349 -1.0502 -1.7010
 4649TIP3   OH235505   6.599   3.617   7.428  0.1510 -0.0444 -0.1278
 4649TIP3    H135506   6.667   3.642   7.365 -0.4344 -1.0907 -1.1985
 4649TIP3    H235507   6.637   3.543   7.475  0.4298  0.4881  0.5084
 4650TIP3   OH235508   3.386   3.164   0.089 -0.1797 -0.0321 -0.4273
 4650TIP3    H135509   3.450   3.100   0.120 -0.2080  0.0109 -0.2786
 4650TIP3    H235510   3.364   3.136   0.000 -0.0795 -0.1423 -0.4167
 4651TIP3   OH235511   6.090   0.909   7.752 -0.1090  0.1535 -0.1530
 4651TIP3    H135512   6.106   0.854   7.675 -1.1335  1.3087 -1.2352
 4651TIP3    H235513   6.157   0.977   7.747 -1.4723  1.4821 -1.2902
 4652TIP3   OH235514   3.688   0.523   0.981  0.7989 -0.3699  0.2259
 4652TIP3    H135515   3.772   0.560   0.953  0.9439 -1.5442 -0.9912
 4652TIP3    H235516   3.711   0.449   1.037  0.5138  0.9098  2.1432
 4653TIP3   OH235517   2.791   1.380   0.671 -0.1948  0.1289  0.2615
 4653TIP3    H135518   2.865   1.437   0.649  0.4855 -0.9586 -0.3682
 4653TIP3    H235519   2.827   1.319   0.736 -0.1875 -1.1107 -0.8591
 4654TIP3   OH235520   4.263   3.551   2.469  0.1024 -0.2082 -0.7710
 4654TIP3    H135521   4.236   3.461   2.448  2.0268 -1.0133 -0.0255
 4654TIP3    H235522   4.212   3.573   2.548 -1.3789 -0.0954 -1.7255
 4655TIP3   OH235523   3.656   1.375   2.226 -0.4077  0.2976 -0.2338
 4655TIP3    H135524   3.570   1.364   2.264  0.3496 -0.1852  1.4287
 4655TIP3    H235525   3.667   1.300   2.168 -2.3774  2.0845 -3.1617
 4656TIP3   OH235526   1.049   3.990   0.590  0.1331  0.3213  0.4501
 4656TIP3    H135527   1.053   3.895   0.578 -1.4647 -0.2337  3.3248
 4656TIP3    H235528   0.960   4.013   0.562  0.3549  0.9167  0.2193
 4657TIP3   OH235529   4.284   4.771   8.353  0.5736 -0.5470  0.2455
 4657TIP3    H135530   4.191   4.754   8.341  0.6591 -0.8355 -0.0269
 4657TIP3    H235531   4.305   4.730   8.437  0.7007 -1.5221 -0.2399
 4658TIP3   OH235532   0.860   1.883   8.759 -0.6460  0.1594  0.3683
 4658TIP3    H135533   0.810   1.857   8.836 -1.2364 -2.7402 -0.8591
 4658TIP3    H235534   0.900   1.967   8.783  1.0407 -1.5714  4.6716
 4659TIP3   OH235535   4.875   4.300   7.139 -0.0610  0.4489 -0.7915
 4659TIP3    H135536   4.849   4.221   7.186  0.7295 -0.7395 -2.2309
 4659TIP3    H235537   4.925   4.267   7.064 -2.2764  2.1068 -3.1965
 4660TIP3   OH235538   3.172   3.535   8.279 -0.3575 -0.0364  0.2009
 4660TIP3    H135539   3.085   3.495   8.273 -0.3166 -0.2254  0.7997
 4660TIP3    H235540   3.229   3.466   8.312 -0.2587  0.4505  1.1147
 4661TIP3   OH235541   0.211   2.839   1.781 -0.0122 -0.2720  0.3698
 4661TIP3    H135542   0.204   2.872   1.871 -1.5847 -0.0509  0.1970
 4661TIP3    H235543   0.253   2.911   1.733  3.1713 -1.3369  1.3544
 4662TIP3   OH235544   1.877   4.072   1.786 -0.4400 -0.3670 -0.8533
 4662TIP3    H135545   1.834   4.029   1.712 -0.4181 -2.1004  0.1164
 4662TIP3    H235546   1.805   4.096   1.845 -0.2331 -3.0996  0.6800
 4663TIP3   OH235547   2.539   1.239   6.506  0.6235  0.4161 -0.7444
 4663TIP3    H135548   2.497   1.214   6.589  0.8579  1.7037 -0.2122
 4663TIP3    H235549   2.550   1.157   6.459 -0.3897 -0.2270  0.0979
 4664TIP3   OH235550   6.489   2.437   7.445  0.0438  0.4542 -1.3312
 4664TIP3    H135551   6.498   2.344   7.425 -2.0727  0.0494 -0.6796
 4664TIP3    H235552   6.395   2.454   7.437  0.3612  2.5278 -1.3366
 4665TIP3   OH235553   3.168   3.396   2.270  0.3374 -0.9091  0.3393
 4665TIP3    H135554   3.226   3.472   2.260 -2.7571  1.5387 -1.0001
 4665TIP3    H235555   3.167   3.356   2.183 -1.1658  0.1397 -0.1801
 4666TIP3   OH235556   0.243   5.633   8.821  0.0179  0.1280 -0.5690
 4666TIP3    H135557   0.179   5.576   8.864  0.7619 -1.1580 -1.0972
 4666TIP3    H235558   0.318   5.633   8.880  0.0388  0.5477 -0.5919
 4667TIP3   OH235559   4.729   5.226   1.117 -0.2109 -0.1791  0.6629
 4667TIP3    H135560   4.796   5.293   1.112  0.4071 -0.7556  1.0805
 4667TIP3    H235561   4.776   5.146   1.142 -1.1312 -0.4660  1.5272
 4668TIP3   OH235562   1.543   6.079   0.835 -0.4487 -0.0771  0.2862
 4668TIP3    H135563   1.579   6.039   0.913 -0.4033 -1.8838 -0.6133
 4668TIP3    H235564   1.469   6.023   0.811  0.0473 -0.0635 -1.4200
 4669TIP3   OH235565   6.131   4.018   8.436 -0.7773 -0.1059  0.0197
 4669TIP3    H135566   6.208   3.982   8.392 -1.5598  0.0530 -1.5655
 4669TIP3    H235567   6.164   4.096   8.481 -0.1921  0.6273 -1.5963
 4670TIP3   OH235568   4.088   0.860   8.011 -0.0226 -0.3252  0.1652
 4670TIP3    H135569   4.105   0.910   8.091 -0.9867 -0.4373  0.4466
 4670TIP3    H235570   4.075   0.927   7.943 -0.5740 -0.1999  0.3903
 4671TIP3   OH235571   3.853   5.225   2.133  0.0111  0.0496  0.1096
 4671TIP3    H135572   3.842   5.132   2.154 -0.1382 -0.0059 -0.2001
 4671TIP3    H235573   3.780   5.244   2.074  1.2886 -0.1879 -1.6072
 4672TIP3   OH235574   0.239   6.283   1.219 -0.4878 -0.4867  0.1222
 4672TIP3    H135575   0.236   6.192   1.190 -0.5820 -0.2812 -0.5483
 4672TIP3    H235576   0.263   6.279   1.311  0.1330 -1.1616 -0.0626
 4673TIP3   OH235577   4.392   3.624   0.584 -0.0085  0.2436  0.2372
 4673TIP3    H135578   4.317   3.611   0.643  1.5457 -0.5191  2.1355
 4673TIP3    H235579   4.400   3.541   0.537 -0.3098  0.3116  0.0613
 4674TIP3   OH235580   5.325   0.070   0.904  0.2956 -0.0858 -0.4144
 4674TIP3    H135581   5.299   0.120   0.981 -1.6385  2.1380 -2.3375
 4674TIP3    H235582   5.286  -0.017   0.916  1.8162 -0.5234  1.9737
 4675TIP3   OH235583   2.674   4.607   7.010 -0.2770 -0.1023  0.3079
 4675TIP3    H135584   2.605   4.627   6.947 -0.3803  2.2002  1.0259
 4675TIP3    H235585   2.636   4.629   7.095  0.9773  0.2549  0.8125
 4676TIP3   OH235586   3.948   5.861   0.315 -0.4153 -0.4224  0.0588
 4676TIP3    H135587   3.856   5.854   0.290 -0.0250  0.3828 -1.8065
 4676TIP3    H235588   3.994   5.804   0.253  0.3317 -1.0071  1.1285
 4677TIP3   OH235589   3.677   6.119   2.485  0.5739  0.1697 -0.1834
 4677TIP3    H135590   3.638   6.185   2.427  0.6916 -1.7396 -2.5824
 4677TIP3    H235591   3.616   6.046   2.483  1.2086 -0.4361  1.1614
 4678TIP3   OH235592   4.641   5.241   1.517  0.8078 -0.5263 -0.3995
 4678TIP3    H135593   4.584   5.169   1.491 -1.3571  1.2697 -0.9738
 4678TIP3    H235594   4.622   5.254   1.610  0.9271 -0.4671 -0.3827
 4679TIP3   OH235595   0.346   4.420   2.529 -0.0210  0.0710 -0.3425
 4679TIP3    H135596   0.278   4.358   2.503 -0.4882  0.4049  0.0750
 4679TIP3    H235597   0.300   4.503   2.541  0.4578  0.2997 -0.0589
 4680TIP3   OH235598   0.044   1.683   0.649 -0.6773 -0.4243  0.0000
 4680TIP3    H135599   0.020   1.597   0.613 -2.0670  0.0647 -0.3197
 4680TIP3    H235600   0.026   1.744   0.577  2.9652 -0.0767 -0.8216
 4681TIP3   OH235601   5.806   4.400   7.768 -0.0047 -0.1821  0.2191
 4681TIP3    H135602   5.788   4.386   7.861 -1.7220  0.4108  0.0053
 4681TIP3    H235603   5.745   4.342   7.722 -0.4599  0.8491 -0.5408
 4682TIP3   OH235604   6.271   3.199   1.554 -0.6432 -0.2831 -0.1635
 4682TIP3    H135605   6.306   3.217   1.641  1.3164  1.0976 -1.1761
 4682TIP3    H235606   6.188   3.246   1.552 -1.3571 -1.3598  1.3383
 4683TIP3   OH235607   2.591   3.642   7.973 -0.1028 -0.5047  0.0380
 4683TIP3    H135608   2.574   3.565   7.918 -1.8170 -0.0808 -0.0760
 4683TIP3    H235609   2.687   3.651   7.973  0.0986 -2.2756 -0.4307
 4684TIP3   OH235610   1.193   0.881   8.331  0.2292  0.1333  0.3313
 4684TIP3    H135611   1.233   0.931   8.260 -1.7124  0.0998 -0.8653
 4684TIP3    H235612   1.241   0.908   8.410  2.3981  0.2324 -0.9313
 4685TIP3   OH235613   4.964   5.952   7.513 -0.3344 -0.3158  0.2143
 4685TIP3    H135614   5.054   5.917   7.513 -0.5787 -1.0266 -1.1358
 4685TIP3    H235615   4.971   6.034   7.464 -0.6159 -1.0193 -1.0552
 4686TIP3   OH235616   3.398   6.709   7.694 -0.2360 -0.4981  0.1549
 4686TIP3    H135617   3.412   6.617   7.715 -0.4964 -0.8257 -1.0025
 4686TIP3    H235618   3.310   6.712   7.657 -0.4996  0.3375  0.8324
 4687TIP3   OH235619   1.654   0.315   7.045 -0.1479  0.0898  0.2273
 4687TIP3    H135620   1.736   0.288   7.003 -0.2968  1.0482 -0.6981
 4687TIP3    H235621   1.590   0.251   7.015  0.2617 -0.7253  1.0332
 4688TIP3   OH235622   2.895   6.124   1.602 -0.1179 -0.6029 -0.3269
 4688TIP3    H135623   2.954   6.198   1.610  0.0999 -0.8027 -0.0829
 4688TIP3    H235624   2.811   6.163   1.577 -0.7684  0.0427  2.5076
 4689TIP3   OH235625   2.201   6.559   1.352 -0.3913  0.4674  0.2333
 4689TIP3    H135626   2.225   6.499   1.282 -2.5363  0.6016 -0.6678
 4689TIP3    H235627   2.174   6.639   1.307  1.7818  1.9834  1.3827
 4690TIP3   OH235628   2.641   4.451   1.757 -0.1379  0.4874 -0.2273
 4690TIP3    H135629   2.622   4.399   1.834 -0.5632  1.6813  0.5001
 4690TIP3    H235630   2.712   4.509   1.783 -0.7228  1.3574 -0.5045
 4691TIP3   OH235631   5.122   6.711   1.597 -0.0039  0.1404 -0.2108
 4691TIP3    H135632   5.182   6.773   1.639 -0.2003 -0.0597  0.3717
 4691TIP3    H235633   5.050   6.701   1.660 -1.7492  1.9939 -1.7789
 4692TIP3   OH235634   4.854   0.038   1.592 -0.1538 -0.7854  0.3565
 4692TIP3    H135635   4.779   0.075   1.547  0.8030  1.1732  0.2653
 4692TIP3    H235636   4.909   0.001   1.522  0.0214 -0.2074  0.1848
 4693TIP3   OH235637   5.933   3.996   0.866 -0.2791  0.4463  0.1476
 4693TIP3    H135638   5.981   3.949   0.798  0.3284 -0.4121  1.1341
 4693TIP3    H235639   5.843   3.963   0.859 -0.4338  1.0365 -0.8066
 4694TIP3   OH235640   5.502   1.320   0.202  0.1965  0.5081 -0.2093
 4694TIP3    H135641   5.585   1.275   0.216  0.3221  1.0195  0.8531
 4694TIP3    H235642   5.441   1.276   0.262 -0.1309  0.5568 -0.5054
 4695TIP3   OH235643   1.220   0.292   7.833 -0.2666  0.4368  0.5231
 4695TIP3    H135644   1.242   0.376   7.873 -2.2061  0.6160  1.2979
 4695TIP3    H235645   1.248   0.301   7.741  0.0761  1.6902  0.7321
 4696TIP3   OH235646   5.543   1.122   8.290  1.1744  0.0157  0.2055
 4696TIP3    H135647   5.549   1.029   8.265  0.7375  0.2766 -0.9223
 4696TIP3    H235648   5.499   1.164   8.216  1.3318  1.1227  0.7239
 4697TIP3   OH235649   0.790   5.924   8.075  0.1710  0.5845  0.7132
 4697TIP3    H135650   0.869   5.949   8.124  1.5310 -1.7401 -0.1392
 4697TIP3    H235651   0.818   5.920   7.984 -0.9292 -0.2877  0.3900
 4698TIP3   OH235652   1.311   3.784   1.982  0.3766  0.4559 -0.2067
 4698TIP3    H135653   1.278   3.701   2.016  1.9522 -0.4284 -0.7559
 4698TIP3    H235654   1.332   3.835   2.060  0.9947 -0.3354  0.1602
 4699TIP3   OH235655   3.455   1.688   1.633  0.6148 -0.4908  0.0027
 4699TIP3    H135656   3.546   1.715   1.621  0.7857 -0.0785  1.8872
 4699TIP3    H235657   3.451   1.658   1.723 -1.1248 -0.5127 -0.0534
 4700TIP3   OH235658   2.074   2.467   7.058  0.1149  0.3875  0.6297
 4700TIP3    H135659   2.003   2.515   7.102  0.1294  0.8447  0.1494
 4700TIP3    H235660   2.091   2.516   6.978 -0.0297 -0.5447  0.0154
 4701TIP3   OH235661   5.015   1.356   8.219  0.3234 -0.3592  0.0719
 4701TIP3    H135662   4.924   1.328   8.207  0.2681 -0.0981 -0.1512
 4701TIP3    H235663   5.026   1.364   8.313  0.2381 -0.7938  0.1208
 4702TIP3   OH235664   0.353   2.430   7.618  0.3786 -0.5588  0.0194
 4702TIP3    H135665   0.413   2.479   7.562 -2.2815  1.7627 -1.0097
 4702TIP3    H235666   0.304   2.374   7.559 -0.3965 -0.3275  0.4301
 4703TIP3   OH235667   6.692   6.204   1.517  0.0265  0.4248 -0.4572
 4703TIP3    H135668   6.668   6.237   1.603 -1.6624  1.6046 -1.3190
 4703TIP3    H235669   6.638   6.126   1.505  0.0037  0.4580 -0.5741
 4704TIP3   OH235670   2.783   3.868   6.885  0.2732 -0.2997  0.2733
 4704TIP3    H135671   2.803   3.793   6.941 -1.3080 -0.2894  0.9001
 4704TIP3    H235672   2.736   3.929   6.943 -1.2823 -0.2180 -0.9965
 4705TIP3   OH235673   4.524   4.120   1.959  0.3109  0.2646  0.3545
 4705TIP3    H135674   4.587   4.183   1.995  0.2501  0.4450  0.1431
 4705TIP3    H235675   4.530   4.045   2.018  0.2682  0.5297  0.7026
 4706TIP3   OH235676   1.893   5.819   0.537 -0.3232  0.2891  0.4820
 4706TIP3    H135677   1.844   5.747   0.497  0.9078 -0.8709  0.9650
 4706TIP3    H235678   1.828   5.869   0.585 -1.0581 -1.1636  1.0541
 4707TIP3   OH235679   4.896   5.411   7.524 -0.4734 -0.0839  0.8540
 4707TIP3    H135680   4.847   5.332   7.500 -1.3108  0.8202 -0.5643
 4707TIP3    H235681   4.982   5.398   7.485 -0.1570 -0.8734  1.7820
 4708TIP3   OH235682   0.540   6.224   8.470 -0.2014 -0.6792  0.3091
 4708TIP3    H135683   0.462   6.170   8.458 -0.8990  0.6056 -1.2837
 4708TIP3    H235684   0.613   6.163   8.461 -0.9552 -1.3649 -1.6139
 4709TIP3   OH235685   2.047   5.796   6.652 -0.1114  0.3573  0.2038
 4709TIP3    H135686   2.063   5.803   6.557  1.2329 -1.0682  0.2780
 4709TIP3    H235687   2.079   5.879   6.687 -1.5798  1.3427 -0.6623
 4710TIP3   OH235688   4.126   0.298   1.511  0.4544  0.2360  0.2360
 4710TIP3    H135689   4.148   0.205   1.515 -2.6856 -0.6063  0.7116
 4710TIP3    H235690   4.111   0.315   1.418  0.8729  0.2429  0.1674
 4711TIP3   OH235691   1.918   6.251   1.867 -0.3926  0.4934  0.5988
 4711TIP3    H135692   1.844   6.260   1.926 -0.6700  0.4240  0.2663
 4711TIP3    H235693   1.990   6.222   1.923 -0.6640  0.3776  0.8919
 4712TIP3   OH235694   0.469   2.364   8.186 -0.0097  0.5274  0.4735
 4712TIP3    H135695   0.553   2.358   8.231 -0.2950 -0.5790  0.8757
 4712TIP3    H235696   0.476   2.444   8.133  1.8367 -0.2913 -0.5884
 4713TIP3   OH235697   5.215   5.781   0.384  0.3621 -0.1467 -0.7889
 4713TIP3    H135698   5.178   5.693   0.378  1.8117 -1.0311  1.5329
 4713TIP3    H235699   5.145   5.839   0.354 -1.5739 -1.9380 -0.0150
 4714TIP3   OH235700   4.829   0.546   8.843  0.1408 -0.2299 -0.1291
 4714TIP3    H135701   4.793   0.628   8.810 -0.5239 -0.6040 -0.3343
 4714TIP3    H235702   4.827   0.486   8.768 -1.5743 -1.1559  0.6060
 4715TIP3   OH235703   6.198   1.674   1.282 -0.0111 -0.7059  0.4604
 4715TIP3    H135704   6.264   1.721   1.231 -0.7064  0.1245  0.3096
 4715TIP3    H235705   6.246   1.601   1.321  0.8715 -0.4486 -0.1077
 4716TIP3   OH235706   1.659   3.597   0.370  0.2298  0.2714 -0.5869
 4716TIP3    H135707   1.739   3.555   0.337  0.6086  1.1857 -0.8604
 4716TIP3    H235708   1.691   3.671   0.422 -0.4050 -0.3177  0.6870
 4717TIP3   OH235709   0.487   1.915   2.195 -0.2660 -0.0664  0.6162
 4717TIP3    H135710   0.395   1.922   2.171  0.2677  2.0382 -1.1394
 4717TIP3    H235711   0.488   1.923   2.290 -1.7506  2.8672  0.4791
 4718TIP3   OH235712   0.530   0.343   6.920  0.3394 -0.6412  0.0919
 4718TIP3    H135713   0.450   0.390   6.940 -1.4076 -3.2407 -0.3233
 4718TIP3    H235714   0.592   0.370   6.988 -0.7524  1.6296  0.2591
 4719TIP3   OH235715   2.172   2.052   8.366 -0.1292 -0.2313  0.0243
 4719TIP3    H135716   2.116   1.982   8.331 -0.2155 -1.2177  2.0265
 4719TIP3    H235717   2.124   2.133   8.345 -2.8154 -1.0568  2.2813
 4720TIP3   OH235718   0.148   3.266   0.885 -0.0726 -0.7814  0.2822
 4720TIP3    H135719   0.129   3.177   0.914 -0.7792 -1.3538 -1.7913
 4720TIP3    H235720   0.225   3.257   0.829 -0.8840 -0.3222 -0.9588
 4721TIP3   OH235721   4.175   0.383   0.049  0.0823 -0.3872 -0.5031
 4721TIP3    H135722   4.210   0.426   0.127 -0.5509  0.8151 -0.8540
 4721TIP3    H235723   4.093   0.344   0.078 -1.0666  1.5703 -0.9072
 4722TIP3   OH235724   5.769   2.861   7.154 -0.1704  0.2725  0.2037
 4722TIP3    H135725   5.820   2.931   7.194 -1.7687  1.7273 -0.2211
 4722TIP3    H235726   5.730   2.900   7.076 -1.7472 -0.8380  0.3836
 4723TIP3   OH235727   6.548   0.583   0.558  0.4316  0.0275 -0.1676
 4723TIP3    H135728   6.569   0.499   0.516  1.1432 -0.1200  0.4650
 4723TIP3    H235729   6.508   0.635   0.488  2.2768  0.0722 -1.2451
 4724TIP3   OH235730   6.604   5.085   1.905 -0.2294  0.9348 -0.2268
 4724TIP3    H135731   6.586   5.174   1.875  0.7295  0.6508 -1.7982
 4724TIP3    H235732   6.698   5.084   1.923  0.3131 -0.3432 -2.6619
 4725TIP3   OH235733   4.645   6.542   0.805  0.3946 -0.4163 -0.4593
 4725TIP3    H135734   4.577   6.597   0.844  0.8179  0.0938 -0.4334
 4725TIP3    H235735   4.721   6.556   0.861  0.0907 -2.2385  0.4970
 4726TIP3   OH235736   4.138   5.811   1.109 -0.3574 -0.2505  0.2890
 4726TIP3    H135737   4.212   5.749   1.106 -0.3296 -0.1950 -0.4271
 4726TIP3    H235738   4.177   5.893   1.139  0.4119  0.4540 -2.3211
 4727TIP3   OH235739   2.878   1.216   2.127  0.0274  0.1594  0.1494
 4727TIP3    H135740   2.846   1.148   2.187  1.4759 -0.7511 -0.0621
 4727TIP3    H235741   2.835   1.296   2.157 -1.5601 -0.7939  0.5357
 4728TIP3   OH235742   5.145   5.996   7.144  0.4678  0.5032 -0.0674
 4728TIP3    H135743   5.062   6.040   7.163 -0.2703 -0.3139 -1.2893
 4728TIP3    H235744   5.142   5.978   7.050 -0.0870 -3.6219  0.5267
 4729TIP3   OH235745   1.729   0.277   0.150 -0.2056 -0.1469 -0.2225
 4729TIP3    H135746   1.720   0.339   0.222  0.1867  0.6500 -0.8542
 4729TIP3    H235747   1.816   0.291   0.115 -0.3461 -0.6074 -0.7900
 4730TIP3   OH235748   0.849   5.664   8.789  0.2484  0.4623 -0.4128
 4730TIP3    H135749   0.831   5.580   8.745  0.1552 -0.1360  0.7085
 4730TIP3    H235750   0.944   5.672   8.787  0.3127 -0.0820  0.1868
 4731TIP3   OH235751   3.502   2.241   1.564 -1.2963  0.0123  0.2213
 4731TIP3    H135752   3.534   2.177   1.628 -2.5547 -0.5297  0.3567
 4731TIP3    H235753   3.459   2.188   1.497 -1.3361  0.6577 -0.2702
 4732TIP3   OH235754   3.500   3.598   0.718  0.9808 -0.0938 -0.6750
 4732TIP3    H135755   3.480   3.558   0.634  1.5791  0.8696 -1.2891
 4732TIP3    H235756   3.431   3.663   0.731  0.1087 -1.1561  0.2413
 4733TIP3   OH235757   1.669   4.596   0.714  0.3209  0.0263 -0.0116
 4733TIP3    H135758   1.740   4.541   0.681 -0.2739 -0.0083 -1.2957
 4733TIP3    H235759   1.589   4.554   0.681 -0.3376 -0.1015  1.6405
 4734TIP3   OH235760   2.873   0.999   8.813  0.3995  0.2127 -0.0038
 4734TIP3    H135761   2.958   1.024   8.849  0.5671  2.1569 -1.5796
 4734TIP3    H235762   2.827   1.082   8.800 -0.7708 -0.6159 -1.4568
 4735TIP3   OH235763   3.821   1.438   1.331 -0.2737  0.5778  0.0688
 4735TIP3    H135764   3.775   1.419   1.413 -1.7110  3.4020  0.0421
 4735TIP3    H235765   3.908   1.466   1.360 -0.0141 -0.5462  0.4365
 4736TIP3   OH235766   2.404   2.867   0.209  0.2323  0.1388  0.3978
 4736TIP3    H135767   2.427   2.809   0.281 -0.0048 -0.1064  0.2792
 4736TIP3    H235768   2.311   2.850   0.193 -0.1967  1.5305  1.2500
 4737TIP3   OH235769   2.001   1.810   0.609 -0.1048  0.0288 -0.0458
 4737TIP3    H135770   1.987   1.868   0.534  0.0276  0.0917 -0.0236
 4737TIP3    H235771   2.023   1.869   0.681  2.4407 -0.1537 -0.5776
 4738TIP3   OH235772   1.588   0.147   8.387 -0.0943 -0.5708 -0.1196
 4738TIP3    H135773   1.572   0.236   8.355 -1.6006 -0.6970  0.2207
 4738TIP3    H235774   1.561   0.090   8.314 -1.1896 -0.7844  0.4241
 4739TIP3   OH235775   5.685   4.045   0.678 -0.1426  0.2432 -0.6392
 4739TIP3    H135776   5.652   4.089   0.756  1.9756  1.6952 -0.4690
 4739TIP3    H235777   5.701   3.955   0.707 -1.4424  0.1821 -0.0484
 4740TIP3   OH235778   3.959   6.743   8.700  0.4172 -0.2971 -0.4044
 4740TIP3    H135779   3.930   6.656   8.673  1.5591 -0.8797  0.1752
 4740TIP3    H235780   4.003   6.779   8.622  0.6849 -0.5778 -0.3823
 4741TIP3   OH235781   1.455   5.546   1.806  0.1036 -0.3580 -0.0746
 4741TIP3    H135782   1.488   5.590   1.884 -0.2835 -0.7562  0.3220
 4741TIP3    H235783   1.389   5.485   1.839  0.1136 -0.7113 -0.6883
 4742TIP3   OH235784   0.707   2.398   0.729 -0.0845 -0.7191  0.4085
 4742TIP3    H135785   0.755   2.477   0.754  1.9366 -1.9835  0.8228
 4742TIP3    H235786   0.735   2.333   0.794 -1.2108 -1.9324 -0.2859
 4743TIP3   OH235787   6.114   3.453   0.703  0.1958  0.1890 -0.2104
 4743TIP3    H135788   6.115   3.471   0.797  0.1907 -0.8401 -0.0059
 4743TIP3    H235789   6.165   3.373   0.693  0.5031  0.4828 -1.1368
 4744TIP3   OH235790   0.963   2.406   0.071  0.5868  0.2030 -0.6667
 4744TIP3    H135791   1.017   2.334   0.104 -0.4720 -1.4108 -2.2852
 4744TIP3    H235792   1.011   2.485   0.096  1.9938 -1.0463  0.8222
 4745TIP3   OH235793   6.607   5.008   1.631  0.0517  0.1255  0.3613
 4745TIP3    H135794   6.626   4.957   1.710 -0.0962  1.0237  0.9898
 4745TIP3    H235795   6.659   4.966   1.562 -0.4108 -1.1471  0.7465
 4746TIP3   OH235796   0.046   3.003   8.905 -0.1018 -0.5494 -0.0557
 4746TIP3    H135797   0.126   3.040   8.943 -0.0645 -0.4402 -0.2386
 4746TIP3    H235798   0.048   2.910   8.931  0.4309 -0.7043 -0.6303
 4747TIP3   OH235799   3.236   6.713   1.977  0.3242  0.2191 -0.1403
 4747TIP3    H135800   3.286   6.661   2.040 -1.7799 -2.7472 -0.7048
 4747TIP3    H235801   3.269   6.686   1.892 -0.8813 -0.3471 -0.4523
 4748TIP3   OH235802   5.581   6.177   8.526 -0.2198 -0.2932 -0.0706
 4748TIP3    H135803   5.651   6.118   8.553  0.7270 -0.4844 -2.6455
 4748TIP3    H235804   5.524   6.124   8.471 -1.9730  0.0828  1.2904
 4749TIP3   OH235805   5.738   1.407   6.409 -0.2353  0.4749 -0.4324
 4749TIP3    H135806   5.775   1.495   6.401 -0.7980  0.6659 -1.0325
 4749TIP3    H235807   5.668   1.405   6.344 -1.5055  0.2393  0.9006
 4750TIP3   OH235808   4.948   4.901   7.877 -0.3099  0.2519 -0.9750
 4750TIP3    H135809   4.855   4.926   7.870 -0.9540 -1.4334  0.6110
 4750TIP3    H235810   4.991   4.980   7.908 -1.0409  1.3083 -2.5047
 4751TIP3   OH235811   5.381   1.255   7.011 -0.1165  0.0891 -0.1209
 4751TIP3    H135812   5.302   1.243   7.064 -0.7418 -0.8087 -1.2077
 4751TIP3    H235813   5.350   1.288   6.927  0.6012 -0.6874 -0.7164
 4752TIP3   OH235814   1.979   5.394   0.947 -0.4336 -0.3682 -0.5900
 4752TIP3    H135815   1.983   5.419   0.854  1.7948  1.8691 -0.0219
 4752TIP3    H235816   1.901   5.438   0.980 -0.6823 -0.3372 -1.2001
 4753TIP3   OH235817   4.266   0.059   1.389  0.2873 -0.4890 -0.5419
 4753TIP3    H135818   4.338  -0.004   1.379  1.5458  0.7355  0.4606
 4753TIP3    H235819   4.255   0.095   1.301  1.1840 -0.4059 -0.6371
 4754TIP3   OH235820   2.934   0.573   0.113  0.4072  0.0042 -0.6739
 4754TIP3    H135821   2.898   0.573   0.202  0.6941 -2.5361 -0.4766
 4754TIP3    H235822   3.013   0.626   0.118 -0.3295  1.0520  0.2203
 4755TIP3   OH235823   6.441   3.917   7.225 -0.3977  0.0525  0.3627
 4755TIP3    H135824   6.393   3.912   7.308 -1.0375  1.9005  0.1403
 4755TIP3    H235825   6.456   4.010   7.211  1.8595 -0.3536 -0.4180
 4756TIP3   OH235826   4.566   5.613   7.275 -0.1246 -0.1171 -0.2013
 4756TIP3    H135827   4.615   5.650   7.348  0.2078 -0.6332 -0.1531
 4756TIP3    H235828   4.585   5.519   7.279  1.0803  0.0273 -1.8365
 4757TIP3   OH235829   2.378   3.029   1.112 -0.0286  0.4357  0.6538
 4757TIP3    H135830   2.372   3.015   1.017 -1.0422  1.0018  0.6243
 4757TIP3    H235831   2.463   3.071   1.125 -0.1459  0.9073 -0.0744
 4758TIP3   OH235832   0.052   5.842   6.766  0.2025  0.4714 -0.2968
 4758TIP3    H135833   0.013   5.822   6.851 -1.2444 -1.0525 -1.2419
 4758TIP3    H235834   0.136   5.796   6.766  0.3496  0.7408  0.4202
 4759TIP3   OH235835   5.570   2.729   7.319  0.4337 -0.2463 -0.3154
 4759TIP3    H135836   5.556   2.636   7.304  1.4433 -0.8529  2.0043
 4759TIP3    H235837   5.646   2.751   7.266  2.4888 -1.7157  1.8188
 4760TIP3   OH235838   3.086   4.449   2.041 -0.1294  0.2364  0.9799
 4760TIP3    H135839   3.034   4.518   1.999  0.9630  1.5255  1.6585
 4760TIP3    H235840   3.153   4.496   2.089  1.7717 -1.3736  0.0440
 4761TIP3   OH235841   4.269   3.389   8.133  0.1872 -0.1999  0.1124
 4761TIP3    H135842   4.346   3.405   8.078  0.8791  1.7171  1.5036
 4761TIP3    H235843   4.198   3.433   8.087  1.1609  3.2533  1.5485
 4762TIP3   OH235844   0.337   0.798   7.982 -0.2269  0.2054 -0.2380
 4762TIP3    H135845   0.360   0.733   7.915  0.3712 -1.4797  1.4954
 4762TIP3    H235846   0.417   0.808   8.034 -1.1826  0.0149  1.3503
 4763TIP3   OH235847   5.156   5.995   1.382  0.1340  0.3765  0.3850
 4763TIP3    H135848   5.198   5.909   1.382 -1.7407 -0.5909  0.2766
 4763TIP3    H235849   5.205   6.045   1.448  1.3518 -0.7033  0.3515
 4764TIP3   OH235850   6.320   1.040   1.485 -0.1772 -0.1762 -0.1288
 4764TIP3    H135851   6.230   1.008   1.485 -0.3524  0.2960 -0.6953
 4764TIP3    H235852   6.374   0.961   1.489 -0.6171 -0.4562  0.2616
 4765TIP3   OH235853   1.281   5.460   7.738 -0.0673 -0.2805  0.3179
 4765TIP3    H135854   1.308   5.443   7.648  0.8684 -0.7346  0.6706
 4765TIP3    H235855   1.253   5.375   7.771 -0.0261 -0.1933  0.5813
 4766TIP3   OH235856   5.358   2.215   1.520  0.4322  0.4723 -0.4000
 4766TIP3    H135857   5.429   2.263   1.563  1.2093 -0.3439 -0.7243
 4766TIP3    H235858   5.302   2.282   1.483  1.4528  1.1410 -0.7750
 4767TIP3   OH235859   4.192   6.504   8.264  0.1849  0.4539  0.1925
 4767TIP3    H135860   4.275   6.545   8.238 -0.3074  0.0866 -2.1788
 4767TIP3    H235861   4.142   6.575   8.305 -0.2388  2.0870 -2.8688
 4768TIP3   OH235862   5.029   6.212   7.024 -0.0232  0.4742 -0.7639
 4768TIP3    H135863   4.947   6.262   7.016 -1.3372 -1.5230 -0.5298
 4768TIP3    H235864   5.023   6.146   6.954 -0.1542 -1.6881  1.1679
 4769TIP3   OH235865   3.042   6.490   7.094 -0.2479 -0.1387  0.1660
 4769TIP3    H135866   3.104   6.525   7.030  2.2987 -2.0985  1.3810
 4769TIP3    H235867   2.967   6.462   7.043  0.3106  1.2846 -1.5238
 4770TIP3   OH235868   1.199   5.942   0.452 -0.0652 -0.3810 -0.2356
 4770TIP3    H135869   1.121   5.961   0.505 -0.1484  1.8475 -1.0363
 4770TIP3    H235870   1.228   5.856   0.481 -1.4681 -0.2446  1.7495
 4771TIP3   OH235871   6.589   1.956   1.925 -0.2379  0.1920 -0.4033
 4771TIP3    H135872   6.613   2.048   1.937 -0.0695  0.2725 -1.3260
 4771TIP3    H235873   6.647   1.909   1.986 -0.3303  0.6868  0.0806
 4772TIP3   OH235874   4.111   3.415   8.775 -0.4014 -0.3102 -0.4727
 4772TIP3    H135875   4.182   3.353   8.766  1.2441  1.0927  1.7147
 4772TIP3    H235876   4.086   3.410   8.867 -0.3362  2.0505 -0.2493
 4773TIP3   OH235877   4.673   1.709   0.243 -0.2781 -0.1338  1.0022
 4773TIP3    H135878   4.586   1.747   0.254 -0.2454  0.1495  0.3568
 4773TIP3    H235879   4.677   1.684   0.151  0.7583  1.0003  0.7014
 4774TIP3   OH235880   2.025   3.119   8.231  0.8314  0.0546 -0.8924
 4774TIP3    H135881   2.076   3.042   8.258  0.3450  0.4550  1.4520
 4774TIP3    H235882   1.935   3.087   8.226  0.9524 -0.0837 -2.5140
 4775TIP3   OH235883   4.467   6.252   0.186 -0.8480  0.0737  0.2246
 4775TIP3    H135884   4.529   6.294   0.126  0.5297  0.3611  1.7913
 4775TIP3    H235885   4.514   6.247   0.269 -2.0352 -1.9896  0.8276
 4776TIP3   OH235886   4.118   4.292   2.761  0.1968  0.0472  0.1327
 4776TIP3    H135887   4.088   4.259   2.677 -0.8581 -2.0890  1.2443
 4776TIP3    H235888   4.047   4.272   2.822  2.1520 -1.4631  2.1190
 4777TIP3   OH235889   4.800   0.783   7.332 -0.2661  0.0751 -0.2233
 4777TIP3    H135890   4.795   0.689   7.315 -0.5709  0.3395 -1.8205
 4777TIP3    H235891   4.871   0.813   7.275  0.1183  0.7515  0.5969
 4778TIP3   OH235892   1.112   1.716   6.997 -0.1784 -0.3929 -0.3568
 4778TIP3    H135893   1.175   1.788   6.998 -1.6200  0.9675 -1.6778
 4778TIP3    H235894   1.150   1.652   6.936  0.5780 -0.2485 -0.0493
 4779TIP3   OH235895   0.906   6.409   1.222  0.1407  0.2832  0.2299
 4779TIP3    H135896   0.856   6.333   1.191  0.3801  0.3577 -0.3591
 4779TIP3    H235897   0.990   6.402   1.177 -0.4217  1.7899 -1.1680
 4780TIP3   OH235898   2.434   5.970   8.388  0.6071 -0.3859 -1.0013
 4780TIP3    H135899   2.457   5.905   8.322  1.2616 -0.7324 -0.4467
 4780TIP3    H235900   2.422   5.919   8.468  0.0292  0.0535 -0.8052
 4781TIP3   OH235901   6.212   0.113   8.782  0.2996  0.0015  0.2668
 4781TIP3    H135902   6.251   0.036   8.824 -0.8365 -1.0201 -0.4664
 4781TIP3    H235903   6.220   0.096   8.688 -0.7463  0.3530  0.1010
 4782TIP3   OH235904   6.496   2.711   0.733 -0.6265  0.0009  0.2949
 4782TIP3    H135905   6.439   2.647   0.776  0.6044 -1.4532 -0.1220
 4782TIP3    H235906   6.551   2.746   0.803 -0.5017 -0.3096  0.3568
 4783TIP3   OH235907   1.000   0.837   0.756 -0.2920 -0.1236 -0.1571
 4783TIP3    H135908   1.093   0.822   0.741 -0.0254  0.9895  0.2598
 4783TIP3    H235909   0.964   0.750   0.774  1.0595 -0.3339  1.7752
 4784TIP3   OH235910   0.466   3.033   0.905  0.4505 -0.0338  0.0365
 4784TIP3    H135911   0.442   3.073   0.822  1.4155 -0.0003 -0.2468
 4784TIP3    H235912   0.498   2.946   0.881 -0.8673 -0.6939  0.5633
 4785TIP3   OH235913   1.492   3.248   7.750 -0.0793 -0.6343  1.0830
 4785TIP3    H135914   1.539   3.172   7.716  1.5863 -0.4483  2.7550
 4785TIP3    H235915   1.508   3.317   7.686  0.1385 -1.1469  0.5738
 4786TIP3   OH235916   1.426   3.544   1.800 -0.4933 -0.2056  0.3766
 4786TIP3    H135917   1.486   3.471   1.784 -1.0428 -0.7910  0.9257
 4786TIP3    H235918   1.412   3.542   1.895  0.4149  1.3643  0.5800
 4787TIP3   OH235919   0.881   4.581   8.131  0.7005  0.0921  0.5864
 4787TIP3    H135920   0.852   4.670   8.150  0.6188  0.3212 -0.5363
 4787TIP3    H235921   0.806   4.526   8.153  0.2897  0.4336  0.0596
 4788TIP3   OH235922   2.533   1.047   8.413  0.1093 -0.1577  0.2318
 4788TIP3    H135923   2.597   0.992   8.458 -1.2738 -1.3166  0.8766
 4788TIP3    H235924   2.535   1.017   8.322  1.2914  0.6145 -0.0041
 4789TIP3   OH235925   2.410   1.230   0.225 -0.2205  0.1991  0.2612
 4789TIP3    H135926   2.488   1.274   0.193  1.3514 -2.7787 -0.2843
 4789TIP3    H235927   2.347   1.239   0.154  0.4041  0.6326 -0.2496
 4790TIP3   OH235928   4.521   2.838   0.430 -0.0552  0.5325 -0.0063
 4790TIP3    H135929   4.485   2.754   0.459  1.9568 -0.4998 -0.3512
 4790TIP3    H235930   4.612   2.837   0.457  0.2866  2.1883 -0.9213
 4791TIP3   OH235931   5.545   6.354   2.308 -0.2925 -0.8179 -0.0994
 4791TIP3    H135932   5.592   6.360   2.391 -1.7163  1.2230  0.6435
 4791TIP3    H235933   5.571   6.433   2.260 -2.3014 -0.0179  0.0298
 4792TIP3   OH235934   3.670   5.842   0.188 -0.2237  0.0502 -0.0444
 4792TIP3    H135935   3.602   5.786   0.224 -0.3696  0.7718  0.8181
 4792TIP3    H235936   3.622   5.914   0.146 -0.0250 -0.1804 -0.6753
 4793TIP3   OH235937   6.586   0.163   7.809 -0.3116 -0.1415 -0.2380
 4793TIP3    H135938   6.519   0.141   7.744 -0.3910  0.1414 -0.2555
 4793TIP3    H235939   6.661   0.109   7.787  0.5442  1.6712 -2.0602
 4794TIP3   OH235940   5.181   4.225   1.695 -0.8828 -0.1197 -0.2981
 4794TIP3    H135941   5.137   4.273   1.624 -0.8217  0.0551 -0.2153
 4794TIP3    H235942   5.169   4.133   1.671 -1.7980 -0.0981  0.0129
 4795TIP3   OH235943   3.220   4.843   7.718  0.1476 -0.4803  0.5729
 4795TIP3    H135944   3.181   4.901   7.653  1.7920  0.1997  0.1332
 4795TIP3    H235945   3.176   4.864   7.800 -1.1493 -0.5315 -0.0898
 4796TIP3   OH235946   1.173   5.386   7.487  0.6637  0.6044  0.3888
 4796TIP3    H135947   1.095   5.421   7.530  0.3747  1.7684 -0.9859
 4796TIP3    H235948   1.208   5.461   7.437  2.8438  0.2187  1.1967
 4797TIP3   OH235949   2.281   3.128   8.820  0.1541  0.2730 -0.1479
 4797TIP3    H135950   2.335   3.127   8.741 -0.1998  2.5600 -0.4861
 4797TIP3    H235951   2.333   3.178   8.883 -0.7126  0.7807  0.1740
 4798TIP3   OH235952   1.792   5.206   0.622 -0.3020 -0.4104  0.3079
 4798TIP3    H135953   1.718   5.172   0.672 -0.6026 -1.5651 -0.8573
 4798TIP3    H235954   1.869   5.170   0.665 -0.3755  0.8525  1.5704
 4799TIP3   OH235955   5.213   4.180   2.689  1.2507  0.1574  0.1316
 4799TIP3    H135956   5.178   4.162   2.777  2.5359 -0.8547  0.4673
 4799TIP3    H235957   5.154   4.245   2.653 -0.0969 -0.3904  1.2409
 4800TIP3   OH235958   1.295   3.621   0.626 -0.2814 -0.3292 -0.3991
 4800TIP3    H135959   1.332   3.653   0.708 -1.5699 -0.7721  0.3690
 4800TIP3    H235960   1.334   3.535   0.614 -1.7301 -1.2121  0.9128
 4801TIP3   OH235961   0.729   5.821   7.738  0.6611 -0.3194  0.0137
 4801TIP3    H135962   0.711   5.760   7.667  1.3447 -0.9258  0.3542
 4801TIP3    H235963   0.665   5.891   7.726  0.7906 -0.3940 -1.2222
 4802TIP3   OH235964   1.002   0.256   0.590  0.2347  0.0408 -0.0840
 4802TIP3    H135965   1.063   0.185   0.610  0.6021 -0.0570 -1.4549
 4802TIP3    H235966   1.057   0.333   0.577 -0.1235  0.4773  0.8303
 4803TIP3   OH235967   3.386   4.510   8.272 -0.5740  0.3272 -0.0619
 4803TIP3    H135968   3.377   4.596   8.230  3.1958  0.4693 -0.9291
 4803TIP3    H235969   3.369   4.447   8.203 -1.4840  0.3941  0.0926
 4804TIP3   OH235970   1.261   2.892   6.488 -0.0309  0.1439  0.3523
 4804TIP3    H135971   1.233   2.825   6.550 -1.1147  0.2435 -0.0054
 4804TIP3    H235972   1.285   2.967   6.543 -0.5724  0.0836  0.6794
 4805TIP3   OH235973   5.025   1.235   8.582 -0.4694  0.6245  0.4127
 4805TIP3    H135974   5.013   1.212   8.675  0.9945  2.9570  1.2524
 4805TIP3    H235975   4.948   1.287   8.560 -0.9229 -0.1113  0.2425
 4806TIP3   OH235976   4.973   5.597   2.304 -0.4685 -0.1040 -0.5254
 4806TIP3    H135977   5.053   5.579   2.353  0.4836 -0.1810 -2.0509
 4806TIP3    H235978   4.918   5.519   2.317 -1.4650  0.9524  2.6064
 4807TIP3   OH235979   0.703   6.047   6.985 -0.2707  0.4845 -0.6629
 4807TIP3    H135980   0.789   6.016   7.016 -0.7022 -0.9368 -0.7838
 4807TIP3    H235981   0.671   6.104   7.054 -0.1578 -0.7089  0.4179
 4808TIP3   OH235982   2.273   1.319   6.934  0.5639 -0.0087  0.0308
 4808TIP3    H135983   2.276   1.371   6.854 -0.2248  0.3433  0.2188
 4808TIP3    H235984   2.338   1.249   6.920  0.6906  0.2577 -0.7576
 4809TIP3   OH235985   2.343   0.271   1.957  0.5381  0.1595  0.8053
 4809TIP3    H135986   2.250   0.284   1.975  0.6702 -0.1196  1.7389
 4809TIP3    H235987   2.372   0.208   2.022  1.3836  0.2238  0.5130
 4810TIP3   OH235988   2.024   6.733   8.902  0.2056 -0.3504  0.3962
 4810TIP3    H135989   1.981   6.791   8.839  0.9098  0.2171  0.4238
 4810TIP3    H235990   1.984   6.756   8.986 -1.1093 -1.4712  0.1088
 4811TIP3   OH235991   6.558   6.629   6.763  0.1497 -0.3488  0.3001
 4811TIP3    H135992   6.525   6.607   6.676  0.8717  0.7217 -0.2665
 4811TIP3    H235993   6.539   6.722   6.772  0.8205 -0.2729  0.9520
 4812TIP3   OH235994   3.624   3.143   0.368 -0.3307  0.4416  0.5033
 4812TIP3    H135995   3.561   3.132   0.439 -0.7979 -1.1719 -0.1020
 4812TIP3    H235996   3.649   3.053   0.345  1.0751  0.9971 -0.2617
 4813TIP3   OH235997   6.228   4.427   1.725  0.2944  0.7417  0.4187
 4813TIP3    H135998   6.243   4.424   1.630 -1.3304 -0.9294  0.1502
 4813TIP3    H235999   6.213   4.519   1.744 -4.1649  0.7831 -1.8783
 4814TIP3   OH236000   1.669   2.711   7.317 -0.1811 -0.3251 -0.0578
 4814TIP3    H136001   1.677   2.645   7.248  2.0021  0.2954 -0.5076
 4814TIP3    H236002   1.576   2.713   7.339 -1.0081 -0.4911 -3.0524
 4815TIP3   OH236003   1.163   6.194   7.130  0.4211 -0.1945 -0.0805
 4815TIP3    H136004   1.082   6.245   7.129  1.5390  1.7465  1.0645
 4815TIP3    H236005   1.219   6.236   7.065  0.9883 -0.6641  0.0953
 4816TIP3   OH236006   5.127   2.731   8.160 -0.0011  0.1582  0.4044
 4816TIP3    H136007   5.147   2.822   8.135  3.9195 -0.6050  0.1829
 4816TIP3    H236008   5.121   2.733   8.256 -0.9232  0.7606  0.3488
 4817TIP3   OH236009   1.635   1.008   0.963  0.8703 -0.3018 -0.1463
 4817TIP3    H136010   1.649   0.924   1.008  0.6218  0.0356  0.5717
 4817TIP3    H236011   1.704   1.065   0.997  1.2230 -0.2953 -0.8590
 4818TIP3   OH236012   1.978   2.988   0.521 -0.3716  0.1613  0.4086
 4818TIP3    H136013   2.008   3.064   0.571  1.6085  0.6738 -1.3681
 4818TIP3    H236014   1.940   3.026   0.442  0.4544 -0.6363 -0.4044
 4819TIP3   OH236015   5.285   0.558   8.894 -0.1994  0.5723 -0.3063
 4819TIP3    H136016   5.358   0.562   8.955  0.7297 -2.0871 -1.1054
 4819TIP3    H236017   5.209   0.536   8.949  0.0905  0.8394  0.2066
 4820TIP3   OH236018   6.442   4.415   7.397 -0.1894 -0.3880  0.3201
 4820TIP3    H136019   6.481   4.336   7.434 -2.8187 -2.2426 -0.5405
 4820TIP3    H236020   6.395   4.455   7.470 -1.3710 -1.3705  0.1335
 4821TIP3   OH236021   4.439   4.281   1.632  0.0749  0.3902 -0.3313
 4821TIP3    H136022   4.533   4.295   1.625 -0.0414  1.1079 -0.5390
 4821TIP3    H236023   4.424   4.266   1.725  0.2375  1.5204 -0.1128
 4822TIP3   OH236024   3.406   4.512   0.899  0.9249  0.0578  0.0554
 4822TIP3    H136025   3.348   4.470   0.835  1.4966 -0.2049 -0.2919
 4822TIP3    H236026   3.455   4.439   0.937 -0.8061 -0.0830  2.2688
 4823TIP3   OH236027   6.111   5.680   8.771  0.4744  0.3696 -0.3743
 4823TIP3    H136028   6.181   5.729   8.815  1.8675 -0.5893 -1.4466
 4823TIP3    H236029   6.118   5.706   8.679 -0.0513 -0.3518 -0.6266
 4824TIP3   OH236030   5.486   3.674   6.602 -0.0932  0.1103  0.0512
 4824TIP3    H136031   5.491   3.582   6.577  1.3642 -0.3034  1.7188
 4824TIP3    H236032   5.540   3.719   6.537  0.6913 -0.4718  0.2773
 4825TIP3   OH236033   6.315   3.625   0.579  0.3410 -0.4614  0.0275
 4825TIP3    H136034   6.350   3.675   0.653 -1.0949 -0.3987  0.6929
 4825TIP3    H236035   6.252   3.564   0.619 -0.6459 -0.2549 -1.1566
 4826TIP3   OH236036   5.509   4.953   1.608 -0.2187  0.0838  0.3294
 4826TIP3    H136037   5.602   4.976   1.618 -0.1902  0.5870 -0.9363
 4826TIP3    H236038   5.486   4.986   1.521 -2.0656  1.5762  1.3315
 4827TIP3   OH236039   0.408   2.230   2.384 -0.3108  0.8856  0.2675
 4827TIP3    H136040   0.467   2.232   2.309  1.4058  0.1341  1.5205
 4827TIP3    H236041   0.432   2.307   2.436 -0.7171  0.8011  0.5913
 4828TIP3   OH236042   4.081   1.724   8.489  0.6705  0.4549  0.1898
 4828TIP3    H136043   4.098   1.702   8.397  1.6341  0.5795  0.3289
 4828TIP3    H236044   4.038   1.809   8.486  0.9670  0.5939 -0.1260
 4829TIP3   OH236045   0.571   0.796   6.870 -0.0714  0.3536  0.2198
 4829TIP3    H136046   0.540   0.873   6.917 -1.2023 -1.5313  2.8624
 4829TIP3    H236047   0.666   0.805   6.869 -0.0197  0.7924  2.5047
 4830TIP3   OH236048   5.441   5.260   8.586 -0.1473  0.3440  0.4616
 4830TIP3    H136049   5.490   5.308   8.519 -0.5133 -0.9564 -0.7795
 4830TIP3    H236050   5.349   5.278   8.566 -0.2966 -0.8940 -0.0866
 4831TIP3   OH236051   6.772   5.165   1.403 -0.7567  0.3819  0.7933
 4831TIP3    H136052   6.851   5.188   1.451  0.9946 -0.7747 -1.3579
 4831TIP3    H236053   6.780   5.071   1.387 -1.0026  0.7467 -1.9904
 4832TIP3   OH236054   5.093   3.894   0.045 -0.0211  0.3236  0.3269
 4832TIP3    H136055   5.074   3.951   0.121 -3.8710  0.4466 -0.5058
 4832TIP3    H236056   5.132   3.953  -0.019  1.5934  0.6172  1.5069
 4833TIP3   OH236057   2.718   5.917   1.417  0.0447  0.1508  0.3265
 4833TIP3    H136058   2.671   5.913   1.333  0.3321  1.5319  0.0742
 4833TIP3    H236059   2.654   5.953   1.478  0.0793 -0.1071  0.5150
 4834TIP3   OH236060   0.865   0.617   0.885 -0.0694 -0.1616  0.0551
 4834TIP3    H136061   0.870   0.599   0.979  2.1845  0.3258  0.0878
 4834TIP3    H236062   0.843   0.533   0.845 -0.2321 -0.5534  0.9462
 4835TIP3   OH236063   3.004   3.499   8.568 -0.0829 -0.1038 -0.3199
 4835TIP3    H136064   2.926   3.462   8.527 -0.1370  0.4339 -0.7200
 4835TIP3    H236065   2.996   3.594   8.555  0.5212 -0.0226 -0.1669
 4836TIP3   OH236066   5.191   3.203   8.522 -0.1843  0.6091 -0.8258
 4836TIP3    H136067   5.281   3.206   8.556 -0.2572 -1.2588 -0.3475
 4836TIP3    H236068   5.163   3.294   8.521  0.5676  0.9697  2.1831
 4837TIP3   OH236069   4.065   2.226   7.732  0.2093 -0.0016  0.2887
 4837TIP3    H136070   4.086   2.192   7.819  0.3485  0.8487  0.5936
 4837TIP3    H236071   3.970   2.228   7.729  0.1745 -1.2806 -0.0819
 4838TIP3   OH236072   1.563   2.907   0.947 -0.3025  0.3051  0.1762
 4838TIP3    H136073   1.579   2.838   0.882 -0.7076  0.2794  0.1020
 4838TIP3    H236074   1.597   2.871   1.028  0.9738  0.6650 -0.1702
 4839TIP3   OH236075   5.128   6.557   1.260 -0.0010 -0.2581 -0.6153
 4839TIP3    H136076   5.121   6.464   1.282 -1.2472  0.3953  2.2991
 4839TIP3    H236077   5.183   6.594   1.329  0.1540  1.2374 -1.4932
 4840TIP3   OH236078   6.151   5.405   0.755  0.7027  0.2896 -0.5441
 4840TIP3    H136079   6.179   5.314   0.746 -0.5164  0.0203 -1.8191
 4840TIP3    H236080   6.116   5.411   0.844 -0.4944 -0.8709 -0.9106
 4841TIP3   OH236081   4.817   1.424   7.029 -0.0043  0.0554  0.1924
 4841TIP3    H136082   4.882   1.464   7.087 -0.6824  1.6477 -0.0921
 4841TIP3    H236083   4.832   1.464   6.944  1.6817 -3.0557 -1.0972
 4842TIP3   OH236084   3.929   1.563   2.053 -0.3520 -0.0980 -0.2740
 4842TIP3    H136085   3.915   1.632   2.118 -1.0123 -0.9817  0.5515
 4842TIP3    H236086   4.023   1.545   2.057 -0.2821  0.3109 -0.0370
 4843TIP3   OH236087   6.118   3.640   7.752 -0.0019 -0.3196 -0.0078
 4843TIP3    H136088   6.099   3.704   7.820 -0.5422 -2.2812  1.7902
 4843TIP3    H236089   6.183   3.683   7.696 -1.5619  2.3941  0.1070
 4844TIP3   OH236090   4.271   0.029   0.266 -0.6159  0.4970  0.2013
 4844TIP3    H136091   4.316  -0.052   0.292 -1.1840 -0.1801 -0.8767
 4844TIP3    H236092   4.184   0.001   0.239 -0.2452  1.2109 -1.9104
 4845TIP3   OH236093   2.916   3.737   7.089 -0.2083 -0.1779  0.0421
 4845TIP3    H136094   2.874   3.689   7.160  0.6404 -0.8693  0.0926
 4845TIP3    H236095   2.936   3.670   7.024 -0.5328  0.3757 -0.6372
 4846TIP3   OH236096   4.830   6.340   2.062  0.0157 -0.7054  0.7045
 4846TIP3    H136097   4.842   6.247   2.079  0.0753 -0.3818  2.7612
 4846TIP3    H236098   4.745   6.361   2.101 -0.5560 -0.1024 -0.7810
 4847TIP3   OH236099   0.817   3.236   2.255  0.4485  0.3522  0.0452
 4847TIP3    H136100   0.729   3.272   2.241  0.3166  0.8071  1.7377
 4847TIP3    H236101   0.874   3.313   2.251  0.8818 -0.0321 -1.7177
 4848TIP3   OH236102   4.265   5.569   8.574  0.1751  0.0943 -0.3185
 4848TIP3    H136103   4.214   5.495   8.541  1.2587  0.5077 -3.1861
 4848TIP3    H236104   4.356   5.540   8.569  0.4854  0.6894  1.1997
 4849TIP3   OH236105   1.539   4.065   8.214 -0.3801  0.0689 -0.2518
 4849TIP3    H136106   1.615   4.007   8.217 -0.5338 -0.1988 -1.2554
 4849TIP3    H236107   1.464   4.006   8.207 -0.7794  0.2938  1.4966
 4850TIP3   OH236108   6.116   0.318   1.315 -0.5931  0.6440  0.3834
 4850TIP3    H136109   6.178   0.264   1.267 -0.0337  0.0924  1.6694
 4850TIP3    H236110   6.037   0.265   1.322 -1.7012  1.7745 -2.2327
 4851TIP3   OH236111   6.365   3.275   1.821  0.2349 -0.5299 -0.2154
 4851TIP3    H136112   6.446   3.298   1.866 -0.1900  1.7403 -0.5058
 4851TIP3    H236113   6.297   3.285   1.887  0.1044 -1.8433 -0.1325
 4852TIP3   OH236114   5.838   4.798   1.073 -0.0406  0.0843  0.0286
 4852TIP3    H136115   5.854   4.892   1.069  2.3175 -0.2253  0.3689
 4852TIP3    H236116   5.874   4.771   1.158  1.7442 -1.4510 -1.1183
 4853TIP3   OH236117   3.090   1.856   1.907  0.2997 -0.3338 -0.7921
 4853TIP3    H136118   3.093   1.768   1.869  2.0354 -0.4699 -0.4030
 4853TIP3    H236119   3.179   1.889   1.900 -0.3775  1.5528 -1.2290
 4854TIP3   OH236120   2.117   2.165   1.449  0.2017  0.4116 -0.1867
 4854TIP3    H136121   2.051   2.201   1.390  0.8218 -0.6003 -1.5410
 4854TIP3    H236122   2.192   2.223   1.439  0.5449 -0.1528 -0.9290
 4855TIP3   OH236123   6.545   0.777   0.975 -0.1958  0.0324  0.2192
 4855TIP3    H136124   6.614   0.722   0.938  0.5236  1.1550 -0.1497
 4855TIP3    H236125   6.477   0.779   0.908 -0.0812 -0.1351  0.0980
 4856TIP3   OH236126   3.995   4.244   1.217 -0.1824 -0.6016 -0.5569
 4856TIP3    H136127   3.957   4.330   1.198 -0.4427 -0.7693 -0.7972
 4856TIP3    H236128   4.068   4.236   1.156  0.6971  0.0132  0.3633
 4857TIP3   OH236129   4.937   2.122   0.350 -0.0432 -0.5242 -0.1782
 4857TIP3    H136130   5.019   2.116   0.398 -0.6924  0.3494  1.0890
 4857TIP3    H236131   4.922   2.216   0.338 -2.1531 -0.4726  2.0225
 4858TIP3   OH236132   1.951   0.443   8.665 -0.2143  0.0453  0.7065
 4858TIP3    H136133   1.996   0.369   8.706  0.7034  0.6855  0.8782
 4858TIP3    H236134   1.860   0.414   8.658  0.4491 -1.9008 -1.0365
 4859TIP3   OH236135   0.422   1.892   1.834 -0.2617  0.0569 -0.4412
 4859TIP3    H136136   0.457   1.981   1.832  0.1716 -0.0549  1.0389
 4859TIP3    H236137   0.335   1.900   1.873 -0.3670 -0.1352 -0.6283
 4860TIP3   OH236138   5.559   6.148   0.912 -0.0681  0.2079 -0.2725
 4860TIP3    H136139   5.637   6.099   0.885 -1.5481 -0.8035 -3.1789
 4860TIP3    H236140   5.579   6.239   0.893  1.4570  0.3995  1.9353
 4861TIP3   OH236141   1.303   1.077   7.737  0.1325 -0.0578 -0.5750
 4861TIP3    H136142   1.366   1.090   7.666 -0.0622  0.5697 -0.6397
 4861TIP3    H236143   1.355   1.041   7.809  0.7832  1.3985 -0.2764
 4862TIP3   OH236144   3.668   2.193   0.169 -0.0327  0.8144 -0.4451
 4862TIP3    H136145   3.579   2.205   0.202 -0.4421  0.3927 -1.3415
 4862TIP3    H236146   3.686   2.273   0.119 -0.8510 -0.0825 -2.2626
 4863TIP3   OH236147   2.011   1.651   1.179 -0.4470  1.2227 -0.1856
 4863TIP3    H136148   1.936   1.596   1.154  2.0698 -2.2485 -0.8943
 4863TIP3    H236149   2.044   1.685   1.096  0.4360  0.2294 -0.2719
 4864TIP3   OH236150   2.891   1.249   1.851  0.9163 -0.0841  0.1365
 4864TIP3    H136151   2.949   1.178   1.823 -0.3329 -0.7727 -0.7707
 4864TIP3    H236152   2.880   1.235   1.945  4.0576  1.4583  0.8717
 4865TIP3   OH236153   4.355   4.213   8.790  0.1092 -1.4608  0.5865
 4865TIP3    H136154   4.378   4.152   8.720  0.1553 -1.9743  1.0365
 4865TIP3    H236155   4.340   4.296   8.746 -2.6164 -2.3871 -0.4099
 4866TIP3   OH236156   5.789   0.518   1.725 -1.0745 -0.4069  0.1813
 4866TIP3    H136157   5.748   0.541   1.808 -0.0147 -2.1929  1.2591
 4866TIP3    H236158   5.865   0.464   1.749  0.5537  0.8236 -1.8479
 4867TIP3   OH236159   1.122   4.173   0.299  0.1028 -0.1633  0.1983
 4867TIP3    H136160   1.184   4.104   0.323  1.4080  0.4217 -1.2352
 4867TIP3    H236161   1.087   4.146   0.214  0.8842  1.0395 -0.5485
 4868TIP3   OH236162   6.544   4.580   0.609 -0.0990 -0.5547  0.1376
 4868TIP3    H136163   6.505   4.665   0.625  0.2496 -0.7519  2.3234
 4868TIP3    H236164   6.509   4.553   0.524 -3.4172 -0.0128  1.2129
 4869TIP3   OH236165   1.756   5.991   6.861 -0.1343 -0.2565  0.2665
 4869TIP3    H136166   1.743   5.991   6.956 -0.9110 -1.7282  0.1815
 4869TIP3    H236167   1.838   6.038   6.849 -0.2362  0.3376  1.6273
 4870TIP3   OH236168   3.596   5.663   8.053  0.8994 -0.1205  0.2616
 4870TIP3    H136169   3.629   5.753   8.043  2.4621 -0.7755 -1.0311
 4870TIP3    H236170   3.668   5.608   8.020 -1.6391 -1.6572 -3.3957
 4871TIP3   OH236171   0.737   6.032   8.754 -0.8134  0.2563 -0.2170
 4871TIP3    H136172   0.738   5.943   8.788 -0.5757  0.6841  0.9608
 4871TIP3    H236173   0.687   6.082   8.818 -1.4691  0.8669 -1.1683
 4872TIP3   OH236174   2.810   1.813   6.812  0.5121 -0.6163 -0.2103
 4872TIP3    H136175   2.899   1.777   6.807  1.3369  1.1780  0.7329
 4872TIP3    H236176   2.807   1.860   6.895 -1.5956 -1.2534  0.1412
 4873TIP3   OH236177   2.944   2.508   7.852 -0.1205  0.7678  0.1039
 4873TIP3    H136178   3.005   2.462   7.793  0.2477  0.9436  0.3428
 4873TIP3    H236179   2.928   2.592   7.809 -0.0146  0.8133  0.1537
 4874TIP3   OH236180   1.568   3.414   7.551 -0.0347  0.3536 -0.3383
 4874TIP3    H136181   1.536   3.371   7.471  0.9686 -0.6044 -0.2418
 4874TIP3    H236182   1.663   3.414   7.541  0.1329 -0.3029  1.1311
 4875TIP3   OH236183   2.380   4.146   8.280 -0.8989  0.1333 -0.1069
 4875TIP3    H136184   2.413   4.234   8.299  0.2736 -0.5674  1.2269
 4875TIP3    H236185   2.448   4.106   8.226 -1.3319 -0.0356 -0.5316
 4876TIP3   OH236186   1.810   4.539   7.276  0.2979  0.0395  0.2338
 4876TIP3    H136187   1.788   4.587   7.196  4.0811  0.1118 -1.0061
 4876TIP3    H236188   1.792   4.447   7.255 -0.1322  0.2064 -0.1406
 4877TIP3   OH236189   4.930   2.395   0.353  0.4769  0.0234  0.0185
 4877TIP3    H136190   4.933   2.382   0.448  3.3544 -1.0476 -0.1074
 4877TIP3    H236191   4.970   2.481   0.339 -0.1662  0.2874 -0.2373
 4878TIP3   OH236192   3.135   0.896   7.699 -0.2043 -0.1402  0.0765
 4878TIP3    H136193   3.220   0.870   7.736  1.1579  2.2669 -1.0883
 4878TIP3    H236194   3.146   0.888   7.605 -2.4589 -2.8470 -0.0813
 4879TIP3   OH236195   2.287   5.034   8.233 -0.4278 -0.0148  0.1337
 4879TIP3    H136196   2.298   4.970   8.163 -0.3528 -0.5463  0.6252
 4879TIP3    H236197   2.276   4.982   8.312 -1.5915  0.5629  0.3727
 4880TIP3   OH236198   1.958   5.835   1.337  0.1795  0.0546 -0.1018
 4880TIP3    H136199   2.014   5.886   1.395  2.2305 -2.3598  0.1862
 4880TIP3    H236200   1.977   5.744   1.358 -2.5232 -0.9247 -1.3340
 4881TIP3   OH236201   6.383   3.846   0.342  0.3256 -0.1129 -0.0931
 4881TIP3    H136202   6.333   3.784   0.394  1.6672 -2.2268 -1.1956
 4881TIP3    H236203   6.399   3.920   0.402  0.1142 -1.5610  1.8351
 4882TIP3   OH236204   1.836   2.707   1.635 -0.2884  0.4063  0.0797
 4882TIP3    H136205   1.786   2.658   1.701 -1.7773  2.3786  0.4950
 4882TIP3    H236206   1.907   2.648   1.611  0.2967 -0.4624  3.4111
 4883TIP3   OH236207   1.445   0.435   1.729  0.6483  0.4143 -0.1407
 4883TIP3    H136208   1.501   0.359   1.710 -2.3050 -2.3737  1.1631
 4883TIP3    H236209   1.412   0.419   1.818 -3.1363  1.0312 -1.2307
 4884TIP3   OH236210   2.640   2.343   0.598  0.3433 -0.4964  0.2449
 4884TIP3    H136211   2.637   2.263   0.545  0.4829  0.6619 -1.6008
 4884TIP3    H236212   2.575   2.400   0.557 -0.0699  0.1872  1.8110
 4885TIP3   OH236213   0.521   3.576   0.222  0.1034 -0.0563  0.1989
 4885TIP3    H136214   0.594   3.538   0.174  1.3334  1.8031  0.5185
 4885TIP3    H236215   0.505   3.660   0.179 -3.0615 -1.0979 -1.0055
 4886TIP3   OH236216   6.438   0.630   8.104 -0.3056  0.0124  0.0280
 4886TIP3    H136217   6.468   0.694   8.169 -0.5148 -1.0742  1.2280
 4886TIP3    H236218   6.343   0.640   8.102 -0.2351  0.6219 -0.7516
 4887TIP3   OH236219   1.177   5.623   1.316  0.1113  0.2258 -0.0580
 4887TIP3    H136220   1.121   5.559   1.360  0.4344  0.0332  0.0840
 4887TIP3    H236221   1.254   5.629   1.372  1.8053 -2.1170 -1.9277
 4888TIP3   OH236222   1.535   0.554   7.020 -0.3832  0.3100 -0.4368
 4888TIP3    H136223   1.561   0.600   7.101 -0.8543  0.1947 -0.2187
 4888TIP3    H236224   1.602   0.486   7.010  0.1783  0.8847 -0.6273
 4889TIP3   OH236225   6.680   4.048   0.391 -0.5516 -0.3617 -0.0178
 4889TIP3    H136226   6.679   4.141   0.414 -0.3414 -0.4721  0.4434
 4889TIP3    H236227   6.599   4.013   0.427  0.1565 -0.7084  1.3317
 4890TIP3   OH236228   5.012   6.679   8.241  0.7568  0.4353  0.7359
 4890TIP3    H136229   5.096   6.651   8.279  1.2763  1.2494  0.2111
 4890TIP3    H236230   4.949   6.613   8.272  1.4579  0.1888  1.6877
 4891TIP3   OH236231   0.522   0.071   0.741 -0.4048  0.4009  0.4636
 4891TIP3    H136232   0.488   0.044   0.826  2.1261 -0.5764  1.2732
 4891TIP3    H236233   0.539  -0.012   0.695  0.6921  0.8305  0.0673
 4892TIP3   OH236234   0.631   3.922   0.300  0.1868  0.0413 -0.1043
 4892TIP3    H136235   0.636   4.005   0.253 -0.7243  0.2490  0.1550
 4892TIP3    H236236   0.542   3.891   0.286 -0.0319 -0.0131  1.2734
 4893TIP3   OH236237   5.401   6.078   8.349 -0.1314  0.6560 -0.0484
 4893TIP3    H136238   5.361   6.041   8.428  0.3188  1.9295  0.8059
 4893TIP3    H236239   5.398   6.007   8.285  0.1231 -0.6468  1.3317
 4894TIP3   OH236240   6.324   1.791   1.026 -0.1115  0.1776  0.3406
 4894TIP3    H136241   6.377   1.799   0.947 -0.9576 -0.9538 -0.3692
 4894TIP3    H236242   6.275   1.710   1.014 -0.2981  0.0150  2.0160
 4895TIP3   OH236243   2.944   1.773   1.551  0.5027  0.1836 -0.5805
 4895TIP3    H136244   2.900   1.690   1.534 -0.2498  0.8116 -1.8331
 4895TIP3    H236245   3.037   1.750   1.555  0.2555 -0.8090 -0.2676
 4896TIP3   OH236246   5.115   2.122   0.912 -0.2472 -0.3529 -0.1839
 4896TIP3    H136247   5.042   2.151   0.967  1.0129 -1.7268  2.3753
 4896TIP3    H236248   5.086   2.038   0.876 -0.4843 -0.1769 -0.4126
 4897TIP3   OH236249   3.120   1.059   2.356 -0.0046 -0.5799 -0.2294
 4897TIP3    H136250   3.137   1.084   2.265 -1.0762 -0.1363 -0.3249
 4897TIP3    H236251   3.026   1.040   2.358 -0.4505  1.4751  1.2393
 4898TIP3   OH236252   2.195   4.497   8.383  0.3255 -0.0951  0.4026
 4898TIP3    H136253   2.139   4.463   8.314 -1.6484 -1.5971  2.5746
 4898TIP3    H236254   2.277   4.448   8.375 -0.0634 -0.6062 -0.5243
 4899TIP3   OH236255   1.280   1.962   7.305  0.0845  0.4571 -0.0861
 4899TIP3    H136256   1.190   1.930   7.311  0.6856 -1.1787  1.5908
 4899TIP3    H236257   1.276   2.052   7.337 -0.6487 -0.3894  2.4425
 4900TIP3   OH236258   0.758   1.586   0.821 -0.0144 -0.7199  0.1633
 4900TIP3    H136259   0.817   1.654   0.789  1.9989 -0.0424  4.5120
 4900TIP3    H236260   0.815   1.510   0.834 -1.1221 -1.5559  0.2804
 4901TIP3   OH236261   5.665   2.679   1.497  0.1275 -0.0655  0.5132
 4901TIP3    H136262   5.622   2.745   1.443  1.0581  1.6751  1.7715
 4901TIP3    H236263   5.740   2.725   1.535  2.8739 -2.7957 -1.1745
 4902TIP3   OH236264   1.221   1.866   7.846 -0.0555 -0.2635 -0.2029
 4902TIP3    H136265   1.170   1.907   7.777 -0.6661 -0.0617  0.3573
 4902TIP3    H236266   1.299   1.832   7.802  1.0008  2.3926 -0.5066
 4903TIP3   OH236267   4.538   5.887   7.576  0.5366  0.0580  0.5885
 4903TIP3    H136268   4.451   5.928   7.577 -0.5275 -1.8446 -2.3553
 4903TIP3    H236269   4.529   5.812   7.634 -0.4562 -1.1846 -1.0806
 4904TIP3   OH236270   5.371   4.274   1.378 -0.1271 -0.6856  0.2341
 4904TIP3    H136271   5.326   4.194   1.406 -1.0538 -0.3189 -0.1627
 4904TIP3    H236272   5.304   4.342   1.385 -0.2640 -0.4793 -2.3954
 4905TIP3   OH236273   6.062   3.973   1.817  0.2630 -0.6311  0.0079
 4905TIP3    H136274   5.989   3.948   1.761 -0.0414 -0.8373  0.4841
 4905TIP3    H236275   6.059   4.068   1.821  1.1170 -0.5129 -1.4100
 4906TIP3   OH236276   0.392   6.423   8.886 -0.1025  0.6325 -0.5127
 4906TIP3    H136277   0.478   6.420   8.844 -0.5616  0.0606 -1.4257
 4906TIP3    H236278   0.406   6.380   8.971  0.5401  0.6939 -0.5770
 4907TIP3   OH236279   4.605   2.200   0.952 -0.0175 -0.0322 -1.0194
 4907TIP3    H136280   4.533   2.255   0.922 -1.1468 -0.7151  0.3370
 4907TIP3    H236281   4.567   2.112   0.959  0.5970 -0.1918  0.8795
 4908TIP3   OH236282   6.348   1.898   1.403  0.1600  0.0472 -0.2198
 4908TIP3    H136283   6.367   1.919   1.494  0.7561  0.1634 -0.3646
 4908TIP3    H236284   6.253   1.890   1.399  0.0698  0.8646  0.2317
 4909TIP3   OH236285   0.542   2.004   2.444 -0.0933  0.4580  0.3070
 4909TIP3    H136286   0.620   2.037   2.400  1.5539  0.5737  3.0998
 4909TIP3    H236287   0.480   2.077   2.439  0.8881  1.3205  0.2035
 4910TIP3   OH236288   2.780   3.148   2.770  0.0551 -0.2264 -0.3307
 4910TIP3    H136289   2.685   3.156   2.783  0.1075 -0.4264  0.2222
 4910TIP3    H236290   2.817   3.156   2.858  0.7831  2.6911 -0.7874
 4911TIP3   OH236291   5.888   1.284   7.005 -0.1401 -0.2858 -0.2021
 4911TIP3    H136292   5.872   1.210   7.064 -0.7555  0.3133  0.4075
 4911TIP3    H236293   5.980   1.275   6.980  0.1047 -0.6347  0.7586
 4912TIP3   OH236294   2.750   5.566   7.797  0.2863 -0.9547  0.0106
 4912TIP3    H136295   2.778   5.503   7.731  0.2330 -1.0041  0.0350
 4912TIP3    H236296   2.781   5.531   7.880  0.1886 -0.9883  0.0333
 4913TIP3   OH236297   4.686   2.843   0.670 -0.1231  0.4434  0.1350
 4913TIP3    H136298   4.725   2.793   0.742  0.0193  0.1032 -0.1726
 4913TIP3    H236299   4.760   2.871   0.617 -0.3140 -1.0019 -0.9710
 4914TIP3   OH236300   2.704   1.587   8.331 -0.1016 -0.2791  0.4990
 4914TIP3    H136301   2.668   1.507   8.371 -0.0249 -0.5278  0.0761
 4914TIP3    H236302   2.742   1.635   8.405 -0.7075 -0.3307  0.8508
 4915TIP3   OH236303   4.338   3.552   8.885  0.1051 -0.5905 -0.4106
 4915TIP3    H136304   4.400   3.585   8.820 -0.4816  0.8900 -0.2598
 4915TIP3    H236305   4.256   3.545   8.837 -0.1447 -0.2490 -0.0401
 4916TIP3   OH236306   6.456   0.734   6.644  0.2175 -0.1089  0.1968
 4916TIP3    H136307   6.483   0.696   6.560  0.5467 -0.3029  0.3862
 4916TIP3    H236308   6.433   0.658   6.698  2.5449 -0.2248  1.1709
 4917TIP3   OH236309   1.257   0.551   7.919  0.4144 -0.1601  0.1489
 4917TIP3    H136310   1.194   0.602   7.869 -0.2569 -1.4097 -0.3276
 4917TIP3    H236311   1.216   0.539   8.005  0.1457 -0.6720 -0.0453
 4918TIP3   OH236312   6.552   4.784   1.820  0.2157  0.0631 -0.4157
 4918TIP3    H136313   6.639   4.749   1.841 -0.5434 -2.4517 -1.0894
 4918TIP3    H236314   6.542   4.860   1.877  2.0005 -0.8620  1.2397
 4919TIP3   OH236315   4.486   4.234   7.995 -0.3958 -0.1212  0.1735
 4919TIP3    H136316   4.516   4.152   7.957  0.8015 -0.2601  1.3487
 4919TIP3    H236317   4.417   4.209   8.055  0.0429 -0.2929  0.6124
 4920TIP3   OH236318   0.297   4.279   8.296  0.0996 -0.3205 -0.6800
 4920TIP3    H136319   0.277   4.197   8.342 -3.2257  0.7174  0.0234
 4920TIP3    H236320   0.273   4.347   8.358 -0.0723  1.1660 -2.3083
 4921TIP3   OH236321   1.941   4.264   0.131 -0.6373 -0.2590 -0.5374
 4921TIP3    H136322   1.860   4.314   0.125  1.1709  3.2252  1.0311
 4921TIP3    H236323   2.005   4.314   0.080  1.2710 -1.0038  0.9720
 4922TIP3   OH236324   4.342   6.076   7.360 -0.3796 -0.4125 -0.2557
 4922TIP3    H136325   4.320   6.166   7.337 -0.5903 -0.3269  0.2866
 4922TIP3    H236326   4.376   6.039   7.278  0.3313  0.3469 -0.3177
 4923TIP3   OH236327   2.131   2.098   2.486  0.0098 -0.9619  0.0795
 4923TIP3    H136328   2.158   2.178   2.441  0.0791 -1.1161 -0.1542
 4923TIP3    H236329   2.040   2.086   2.462  0.5668 -2.1029 -1.6104
 4924TIP3   OH236330   5.041   2.583   1.666  0.4538 -0.1506  0.2156
 4924TIP3    H136331   4.989   2.602   1.588  0.1429  0.2625  0.5169
 4924TIP3    H236332   5.132   2.597   1.638  0.2925  0.8758  0.1539
 4925TIP3   OH236333   5.976   2.054   8.669 -0.3063 -0.2379 -0.0004
 4925TIP3    H136334   5.974   1.960   8.685 -1.3407 -0.3154 -0.5116
 4925TIP3    H236335   5.907   2.069   8.604 -0.7737  0.9947  0.7531
 4926TIP3   OH236336   1.274   0.298   0.079 -0.3101  0.0178 -0.3516
 4926TIP3    H136337   1.224   0.268   0.154 -0.3727 -0.3824 -0.5520
 4926TIP3    H236338   1.339   0.357   0.116 -0.5048  0.0266 -0.0149
 4927TIP3   OH236339   3.293   5.144   7.776  0.1887 -0.2233 -0.2827
 4927TIP3    H136340   3.207   5.104   7.789 -0.8294  2.0326  0.4581
 4927TIP3    H236341   3.284   5.232   7.813  2.4044  0.5634 -1.4524
 4928TIP3   OH236342   2.811   0.024   2.115  0.2045 -0.2170  0.4559
 4928TIP3    H136343   2.833   0.022   2.208  2.8551  1.8758 -0.0177
 4928TIP3    H236344   2.895   0.034   2.071 -0.9512 -1.3799 -2.2259
 4929TIP3   OH236345   4.546   1.965   8.220  0.1689  0.6358  0.4078
 4929TIP3    H136346   4.631   1.999   8.249  0.3021 -0.1837  1.0249
 4929TIP3    H236347   4.530   2.009   8.137  1.0291  1.0767  0.4573
 4930TIP3   OH236348   0.989   4.442   7.934  0.3772 -0.1893 -0.2100
 4930TIP3    H136349   0.933   4.485   7.998  1.2440  0.3215  0.2234
 4930TIP3    H236350   1.077   4.474   7.953  0.9395 -1.5596 -0.3856
 4931TIP3   OH236351   5.366   3.473   8.230  0.0321 -0.1729  0.1503
 4931TIP3    H136352   5.412   3.556   8.241  1.1715 -0.5346 -1.4411
 4931TIP3    H236353   5.421   3.409   8.274 -0.2920 -0.2429  0.4557
 4932TIP3   OH236354   0.172   3.372   1.126  0.4793  0.3507 -0.3989
 4932TIP3    H136355   0.140   3.356   1.037  0.8911  1.9313 -0.8679
 4932TIP3    H236356   0.266   3.356   1.121  0.7909  2.1024 -0.7153
 4933TIP3   OH236357   2.488   0.759   7.764  0.8958  0.0893 -0.9143
 4933TIP3    H136358   2.444   0.742   7.681  0.0322 -0.5757 -0.3412
 4933TIP3    H236359   2.553   0.827   7.744 -0.3681  1.0774 -1.7866
 4934TIP3   OH236360   2.396   3.826   0.373 -0.1806 -0.4377  0.3552
 4934TIP3    H136361   2.312   3.870   0.364  0.2899  0.5594  0.6454
 4934TIP3    H236362   2.390   3.781   0.457 -0.7047 -1.0117  0.0109
 4935TIP3   OH236363   0.897   4.394   8.891  0.1493 -0.0105  0.3118
 4935TIP3    H136364   0.938   4.400   8.805 -1.2010  1.3908 -0.2848
 4935TIP3    H236365   0.969   4.371   8.951  1.3598  0.2735 -0.9901
 4936TIP3   OH236366   2.915   0.805   0.497 -0.5549  0.1036  0.4876
 4936TIP3    H136367   2.971   0.881   0.486 -0.0204 -0.0668  1.8226
 4936TIP3    H236368   2.923   0.756   0.415  1.4046 -0.0054  0.7120
 4937TIP3   OH236369   5.021   4.050   8.584  0.2837 -0.1633 -0.0473
 4937TIP3    H136370   5.112   4.030   8.608  0.9986  1.4124 -1.2869
 4937TIP3    H236371   5.009   4.005   8.500 -0.5592 -1.4807  0.7433
 4938TIP3   OH236372   1.837   6.497   7.537  0.0070  0.2105 -0.2270
 4938TIP3    H136373   1.788   6.511   7.456 -0.1367  2.1124  0.1248
 4938TIP3    H236374   1.921   6.540   7.522  1.0588 -1.7637 -0.3023
 4939TIP3   OH236375   2.923   6.142   1.210  0.1879  0.8552  0.5060
 4939TIP3    H136376   2.877   6.101   1.282  2.0087 -3.6355 -0.5519
 4939TIP3    H236377   2.874   6.117   1.132  2.5150 -1.4403 -0.3681
 4940TIP3   OH236378   0.509   2.889   0.445  0.1991  0.7983 -0.0424
 4940TIP3    H136379   0.421   2.862   0.419  1.2223 -1.5703 -1.3466
 4940TIP3    H236380   0.499   2.919   0.536 -2.2675  2.7115 -0.8185
 4941TIP3   OH236381   6.394   6.137   8.356  0.3179  0.1476  0.3696
 4941TIP3    H136382   6.476   6.181   8.381  0.3627  1.0886 -1.2757
 4941TIP3    H236383   6.359   6.191   8.285 -1.0327 -1.0118  0.1161
 4942TIP3   OH236384   1.579   6.260   1.659  0.3961  0.4384  0.2779
 4942TIP3    H136385   1.666   6.232   1.628 -0.0046 -0.5127 -0.0439
 4942TIP3    H236386   1.571   6.350   1.630  0.9561  0.2828 -0.4063
 4943TIP3   OH236387   0.682   1.521   8.538 -0.6443 -0.0956 -0.0810
 4943TIP3    H136388   0.630   1.601   8.539  0.2246  0.4913 -0.0853
 4943TIP3    H236389   0.627   1.457   8.495 -1.8594  0.1424  1.0561
 4944TIP3   OH236390   4.334   2.335   7.722  0.2501  0.5174  0.2364
 4944TIP3    H136391   4.368   2.273   7.658  1.5220  0.8818  0.5203
 4944TIP3    H236392   4.240   2.319   7.725  0.3204 -0.1754 -0.9841
 4945TIP3   OH236393   0.107   3.070   8.614  0.0172  0.1840  0.1699
 4945TIP3    H136394   0.108   3.098   8.705  0.8178  0.0049  0.2241
 4945TIP3    H236395   0.043   2.998   8.611  0.5956 -0.3675  0.7676
 4946TIP3   OH236396   3.579   4.146   0.571 -0.0239  0.0298 -0.2506
 4946TIP3    H136397   3.486   4.127   0.574  0.1004 -0.7456 -0.9451
 4946TIP3    H236398   3.618   4.087   0.635  0.1008 -0.4034 -0.7197
 4947TIP3   OH236399   4.240   2.110   8.141  0.3296 -0.4488  0.3633
 4947TIP3    H136400   4.153   2.103   8.101  0.3132 -2.2722  0.6398
 4947TIP3    H236401   4.275   2.021   8.138  1.9918  0.1574  0.7242
 4948TIP3   OH236402   1.998   6.092   8.154  0.1747 -0.0203 -0.1260
 4948TIP3    H136403   1.970   6.176   8.117 -3.1283 -0.6024  0.7337
 4948TIP3    H236404   2.063   6.059   8.091  1.5555  3.0947 -0.4878
 4949TIP3   OH236405   0.486   6.740   1.741 -0.2652 -0.2179 -0.2233
 4949TIP3    H136406   0.452   6.713   1.826 -1.5575  0.9143 -0.3522
 4949TIP3    H236407   0.581   6.731   1.750 -0.4427 -1.1005  0.9843
 4950TIP3   OH236408   5.383   2.684   6.815  0.1633  0.2671 -0.1414
 4950TIP3    H136409   5.301   2.729   6.794  1.1345  0.8376 -3.1466
 4950TIP3    H236410   5.447   2.754   6.827  0.8318 -0.2133 -0.8249
 4951TIP3   OH236411   4.814   3.049   1.238 -0.5537 -1.3563  0.0120
 4951TIP3    H136412   4.819   3.107   1.163  0.9632 -0.3801  0.7946
 4951TIP3    H236413   4.774   2.969   1.205 -1.4300 -0.3652 -1.4192
 4952TIP3   OH236414   2.930   3.960   7.329 -0.0745 -0.1525  0.4631
 4952TIP3    H136415   2.968   3.969   7.242 -0.1756 -2.0237  0.1960
 4952TIP3    H236416   2.878   3.880   7.325 -0.9036  0.2705  1.9557
 4953TIP3   OH236417   4.459   3.757   7.617 -0.5698  0.6850 -0.3452
 4953TIP3    H136418   4.537   3.759   7.672  0.0180  1.2817 -1.1754
 4953TIP3    H236419   4.478   3.817   7.545 -1.3807  0.0541 -1.1191
 4954TIP3   OH236420   5.670   1.927   8.036 -0.4571 -0.7993  0.0467
 4954TIP3    H136421   5.738   1.929   8.103 -1.0922  0.6874  0.6836
 4954TIP3    H236422   5.647   2.019   8.022 -0.6259 -1.1023 -1.9315
 4955TIP3   OH236423   5.420   3.737   8.468  0.0784 -0.1333 -0.7192
 4955TIP3    H136424   5.498   3.706   8.515 -0.2274  0.8400  0.5030
 4955TIP3    H236425   5.451   3.755   8.379  1.1390 -0.1962 -0.3794
 4956TIP3   OH236426   5.765   4.111   8.186  0.7795 -0.0516 -0.1127
 4956TIP3    H136427   5.731   4.072   8.267 -1.5827  1.5228 -0.2501
 4956TIP3    H236428   5.860   4.103   8.194  0.6080 -0.4982  2.5382
 4957TIP3   OH236429   1.667   3.858   0.623 -0.0779 -0.3242 -0.2414
 4957TIP3    H136430   1.681   3.768   0.653  0.6011 -0.3800 -0.6975
 4957TIP3    H236431   1.704   3.913   0.691 -1.6655 -0.3286  0.6779
 4958TIP3   OH236432   5.545   1.284   1.916 -0.0343 -0.5136  0.0477
 4958TIP3    H136433   5.622   1.308   1.866 -0.1061  0.7437  0.4880
 4958TIP3    H236434   5.571   1.295   2.008 -0.9373  0.7093  0.1910
 4959TIP3   OH236435   2.809   4.199   8.173  0.3926 -0.4382 -0.2139
 4959TIP3    H136436   2.816   4.141   8.249  1.6183 -0.8641 -0.6158
 4959TIP3    H236437   2.769   4.279   8.207  3.3699  0.4641  1.5678
 4960TIP3   OH236438   5.461   3.106   8.648 -0.2552  0.1369  0.4364
 4960TIP3    H136439   5.476   3.025   8.600  0.8496  0.3106  0.4669
 4960TIP3    H236440   5.432   3.078   8.735  2.6424 -0.3702  1.3644
 4961TIP3   OH236441   4.118   1.682   7.352 -0.4591 -0.3193 -0.2847
 4961TIP3    H136442   4.034   1.682   7.306 -1.4161  2.2157  1.2638
 4961TIP3    H236443   4.111   1.611   7.415 -2.1722  0.8527  0.9302
 4962TIP3   OH236444   2.547   5.664   0.931 -0.1774  0.8172 -0.2726
 4962TIP3    H136445   2.589   5.586   0.967  0.1068  0.9383 -0.3350
 4962TIP3    H236446   2.604   5.689   0.858  1.1002  2.5055  1.2332
 4963TIP3   OH236447   5.846   5.721   8.528 -0.0839  0.6781  0.7837
 4963TIP3    H136448   5.849   5.631   8.496 -1.1151  1.1909 -0.9147
 4963TIP3    H236449   5.935   5.739   8.558  1.1124  0.1851 -2.1005
 4964TIP3   OH236450   2.830   1.193   7.074  0.1449 -0.5319 -0.1344
 4964TIP3    H136451   2.897   1.230   7.016 -0.0095 -0.0253  0.0056
 4964TIP3    H236452   2.782   1.269   7.106  0.6343 -0.7386  1.1666
 4965TIP3   OH236453   0.027   0.782   1.198 -0.5847 -0.4619 -0.4808
 4965TIP3    H136454  -0.014   0.737   1.271  0.3407  0.9869  1.0108
 4965TIP3    H236455  -0.020   0.865   1.192 -0.6556 -0.5679 -1.5619
 4966TIP3   OH236456   4.692   5.974   0.990 -0.2809 -0.5301 -0.2910
 4966TIP3    H136457   4.661   5.947   1.077 -2.0052  1.9050 -0.0555
 4966TIP3    H236458   4.746   6.051   1.007  0.4941 -0.8424 -1.2883
 4967TIP3   OH236459   3.392   2.779   7.417 -0.2473  0.1458 -0.0768
 4967TIP3    H136460   3.438   2.701   7.386 -0.0267  0.6944 -1.1833
 4967TIP3    H236461   3.430   2.796   7.504  0.2121 -0.5667 -0.1306
 4968TIP3   OH236462   3.735   5.312   2.493  0.1763  0.0025 -0.0066
 4968TIP3    H136463   3.796   5.242   2.470  0.4707  0.0337  0.6420
 4968TIP3    H236464   3.681   5.324   2.415  0.3241 -0.7351 -0.2323
 4969TIP3   OH236465   1.068   0.296   6.049  0.1208 -0.6414  0.6344
 4969TIP3    H136466   1.066   0.202   6.069  0.0902 -0.4675  1.4801
 4969TIP3    H236467   1.153   0.309   6.006 -0.0406 -1.1177  0.1537
 4970TIP3   OH236468   4.482   4.897   1.363  0.8143 -0.1126  0.3081
 4970TIP3    H136469   4.533   4.899   1.282  0.4182 -0.2736  0.0550
 4970TIP3    H236470   4.547   4.879   1.432  1.3531  1.2140  0.1870
 4971TIP3   OH236471   6.126   5.420   7.118  0.1922  0.0647  0.0811
 4971TIP3    H136472   6.116   5.513   7.095 -0.5011 -0.1620 -0.5908
 4971TIP3    H236473   6.199   5.390   7.063  0.2645  0.1543  0.1273
 4972TIP3   OH236474   5.599   3.331   0.643 -0.2897  0.0049 -0.2597
 4972TIP3    H136475   5.550   3.328   0.725  0.1680 -0.9176 -0.0084
 4972TIP3    H236476   5.682   3.286   0.663  0.4222  1.0113 -0.8390
 4973TIP3   OH236477   2.182   0.426   7.224 -0.0169  0.1723 -0.3884
 4973TIP3    H136478   2.160   0.454   7.313  0.1693  0.9378 -0.5724
 4973TIP3    H236479   2.259   0.371   7.233 -0.2351 -0.0791 -0.0393
 4974TIP3   OH236480   5.471   4.747   1.131 -0.4655  0.0848 -0.2544
 4974TIP3    H136481   5.537   4.747   1.061  1.0035 -0.5518  1.0788
 4974TIP3    H236482   5.421   4.666   1.116 -1.8023  1.1471 -1.9717
 4975TIP3   OH236483   5.767   0.979   0.231  0.0898 -0.3032 -0.0252
 4975TIP3    H136484   5.674   0.983   0.251 -0.2078  0.9048 -1.4647
 4975TIP3    H236485   5.776   0.901   0.175 -0.0175 -0.5313  0.2726
 4976TIP3   OH236486   4.738   4.413   0.010 -0.4016  0.2351 -0.1838
 4976TIP3    H136487   4.671   4.358   0.049 -0.3454 -0.1649 -0.6420
 4976TIP3    H236488   4.790   4.354  -0.044  1.7654  0.0585  1.9084
 4977TIP3   OH236489   6.756   5.863   7.058  0.0751 -0.4613  0.0003
 4977TIP3    H136490   6.759   5.944   7.008  0.2210 -0.5583 -0.1512
 4977TIP3    H236491   6.662   5.842   7.064  0.0044 -0.0219  0.4723
 4978TIP3   OH236492   2.678   3.557   1.631  0.1627  0.5711 -0.4885
 4978TIP3    H136493   2.599   3.608   1.648 -0.4347  0.1616 -1.8767
 4978TIP3    H236494   2.721   3.550   1.716 -2.2864 -0.8567  0.7491
 4979TIP3   OH236495   4.311   1.602   1.390  0.1937 -0.1153 -0.0486
 4979TIP3    H136496   4.304   1.550   1.310 -1.0808 -1.5500  0.9466
 4979TIP3    H236497   4.405   1.611   1.404  0.4441 -1.0521 -0.9441
 4980TIP3   OH236498   0.930   3.337   0.310  0.4431  0.7578  0.2460
 4980TIP3    H136499   0.887   3.251   0.313  1.7793  0.0728  0.8542
 4980TIP3    H236500   0.863   3.396   0.276 -0.8456 -0.3219  0.7961
 4981TIP3   OH236501   3.857   3.644   8.820  0.4650 -0.0361  0.1168
 4981TIP3    H136502   3.847   3.604   8.907  0.3018  0.5050  0.3519
 4981TIP3    H236503   3.854   3.738   8.837  0.4060  0.0716 -0.4848
 4982TIP3   OH236504   2.800   4.042   0.285  0.0027 -0.0690  0.1054
 4982TIP3    H136505   2.770   4.016   0.198  3.5223 -0.2862 -1.1880
 4982TIP3    H236506   2.727   4.020   0.343 -2.2996 -0.3417 -2.6713
 4983TIP3   OH236507   3.395   0.135   1.400  0.5652 -0.1813 -0.4275
 4983TIP3    H136508   3.414   0.166   1.489 -0.1057 -0.2339 -0.2577
 4983TIP3    H236509   3.305   0.102   1.405  0.4654 -0.0377 -1.1673
 4984TIP3   OH236510   6.242   4.505   0.603 -0.7040  0.4553 -0.2860
 4984TIP3    H136511   6.262   4.597   0.586  1.4234  0.5347  1.9496
 4984TIP3    H236512   6.286   4.487   0.686 -2.2472 -2.2309  0.0502
 4985TIP3   OH236513   1.264   3.096   1.522 -0.0309  0.0697  0.5876
 4985TIP3    H136514   1.338   3.071   1.466 -0.9747 -0.2960 -0.5299
 4985TIP3    H236515   1.246   3.186   1.498 -1.6419 -0.6475 -1.1461
 4986TIP3   OH236516   0.777   5.237   0.942 -0.6630 -0.1706  0.3417
 4986TIP3    H136517   0.752   5.154   0.902  0.7531 -1.1531  1.4034
 4986TIP3    H236518   0.867   5.250   0.914 -0.2997  0.1152  1.5739
 4987TIP3   OH236519   4.676   2.621   7.619 -0.1062 -0.2274 -0.2019
 4987TIP3    H136520   4.624   2.639   7.541  0.5532  1.5613 -0.2933
 4987TIP3    H236521   4.611   2.609   7.689 -0.6802 -1.2214 -0.8829
 4988TIP3   OH236522   1.924   6.485   0.049 -0.2086 -0.6112 -0.4454
 4988TIP3    H136523   1.828   6.491   0.054 -0.1518 -0.4235  0.7967
 4988TIP3    H236524   1.952   6.576   0.036 -0.1826 -0.6052 -0.3488
 4989TIP3   OH236525   4.079   4.313   0.836  0.0760 -0.2643  0.2468
 4989TIP3    H136526   4.171   4.315   0.862  0.1364  3.5303  0.3454
 4989TIP3    H236527   4.081   4.323   0.741 -0.2893 -1.5889  0.0745
 4990TIP3   OH236528   5.314   4.208   0.596  0.3079  0.3349  0.2656
 4990TIP3    H136529   5.277   4.297   0.599 -0.2389  0.1694 -1.0285
 4990TIP3    H236530   5.241   4.151   0.621  0.7135  0.2524  1.2914
 4991TIP3   OH236531   4.791   2.808   0.936 -0.0911 -0.2356  0.2880
 4991TIP3    H136532   4.720   2.870   0.953  0.7734  0.3574  1.9251
 4991TIP3    H236533   4.843   2.808   1.016  2.3537  0.1270 -1.1982
 4992TIP3   OH236534   6.523   1.408   0.443 -0.6526  0.2932  0.0682
 4992TIP3    H136535   6.582   1.382   0.373  0.3114  0.1680  0.8931
 4992TIP3    H236536   6.513   1.502   0.432 -0.3790  0.2992 -0.1402
 4993TIP3   OH236537   6.364   4.911   7.667  0.0946 -0.0662 -0.5578
 4993TIP3    H136538   6.300   4.873   7.607 -0.2616  0.0392 -0.2470
 4993TIP3    H236539   6.312   4.948   7.738  0.2962  2.5703 -1.6848
 4994TIP3   OH236540   5.894   4.798   7.939  0.4997 -0.3209  0.0062
 4994TIP3    H136541   5.840   4.780   7.862  1.8231  0.4348 -1.1484
 4994TIP3    H236542   5.881   4.891   7.956  1.1950 -0.2037 -0.0869
 4995TIP3   OH236543   4.768   2.251   8.413 -1.0078  0.3358 -0.0697
 4995TIP3    H136544   4.762   2.200   8.333 -1.1935 -1.0560  0.8014
 4995TIP3    H236545   4.855   2.292   8.408 -0.7909 -0.1770 -0.7241
 4996TIP3   OH236546   0.376   4.800   1.002  0.5472  0.2777 -0.0787
 4996TIP3    H136547   0.376   4.736   0.931  0.3128 -0.8514  0.8906
 4996TIP3    H236548   0.460   4.845   0.995 -0.0403  1.1456 -1.8789
 4997TIP3   OH236549   6.099   5.758   0.579  0.4206 -0.0338  0.5447
 4997TIP3    H136550   6.125   5.841   0.618 -0.9049 -0.0569  1.5835
 4997TIP3    H236551   6.050   5.714   0.648 -0.8223 -0.6961 -0.6962
 4998TIP3   OH236552   2.395   0.293   8.695  0.1470 -0.5609  0.7205
 4998TIP3    H136553   2.361   0.364   8.640 -1.0025 -1.1825  0.5843
 4998TIP3    H236554   2.317   0.242   8.718  0.6908 -0.7113  2.3708
 4999TIP3   OH236555   4.039   1.523   7.006 -0.1510 -0.4077  0.6312
 4999TIP3    H136556   4.066   1.600   6.956 -0.1199 -1.0790 -0.4010
 4999TIP3    H236557   3.944   1.520   6.997 -0.0214 -1.2989 -0.5385
 5000TIP3   OH236558   1.541   6.396   1.304 -0.6078 -0.5182  0.3203
 5000TIP3    H136559   1.589   6.437   1.232 -1.3058 -2.0359 -1.0901
 5000TIP3    H236560   1.582   6.430   1.383  2.0435 -0.8484 -0.8096
 5001TIP3   OH236561   4.096   2.045   8.697 -0.5975 -0.6679 -0.0960
 5001TIP3    H136562   4.162   1.984   8.665  0.1054 -1.4290  2.6110
 5001TIP3    H236563   4.136   2.132   8.686 -1.1912 -0.6547 -2.9771
 5002TIP3   OH236564   6.509   2.574   8.286  0.0077  0.5047  0.4665
 5002TIP3    H136565   6.504   2.669   8.273  1.4571  0.3909 -1.3558
 5002TIP3    H236566   6.517   2.563   8.381 -0.5634  2.1624  0.7406
 5003TIP3   OH236567   0.891   5.338   1.793  0.4562  0.0547 -0.2582
 5003TIP3    H136568   0.968   5.281   1.802 -0.2328 -0.6100  1.9819
 5003TIP3    H236569   0.828   5.286   1.745  0.4927 -0.3800  0.1600
 5004TIP3   OH236570   4.311   4.002   7.411 -0.3792  0.0102  0.1462
 5004TIP3    H136571   4.382   4.065   7.399 -0.5794  0.1086 -0.5765
 5004TIP3    H236572   4.313   3.948   7.332 -1.2144  0.1287  0.0310
 5005TIP3   OH236573   3.585   6.266   7.613  0.0515  0.4421 -0.0009
 5005TIP3    H136574   3.616   6.227   7.695  2.0189  2.6524  0.4382
 5005TIP3    H236575   3.601   6.360   7.624 -0.2528  0.8924 -2.6720
 5006TIP3   OH236576   5.302   6.368   8.406  0.0095 -0.1791 -0.2202
 5006TIP3    H136577   5.367   6.323   8.461  0.7723  3.3995  2.1027
 5006TIP3    H236578   5.248   6.297   8.371  0.8026 -2.8990  3.4223
 5007TIP3   OH236579   1.847   3.034   2.084  0.4284  0.1316  0.3787
 5007TIP3    H136580   1.775   3.096   2.090  0.3342 -0.1148  2.9674
 5007TIP3    H236581   1.921   3.085   2.051 -0.2844  1.0047  0.1208
 5008TIP3   OH236582   3.046   0.978   6.982 -0.3552  0.3565 -0.0275
 5008TIP3    H136583   2.958   0.967   6.946 -0.5289  1.9928 -0.1748
 5008TIP3    H236584   3.043   0.932   7.066 -1.9961  1.9987  0.8950
 5009TIP3   OH236585   2.925   1.573   7.464 -0.4188 -0.1160  0.5835
 5009TIP3    H136586   2.950   1.583   7.556 -2.3395  0.3986  1.1030
 5009TIP3    H236587   2.954   1.653   7.421  0.8329 -0.5241  0.6301
 5010TIP3   OH236588   1.442   2.954   0.314  0.0850  0.3340  0.2462
 5010TIP3    H136589   1.353   2.978   0.338  0.1729  2.9371 -1.6089
 5010TIP3    H236590   1.496   3.026   0.345  1.0427  0.4942 -1.6311
 5011TIP3   OH236591   0.561   5.337   0.565 -0.2520 -0.4573  0.0461
 5011TIP3    H136592   0.653   5.327   0.589 -0.2262  1.7731  1.0941
 5011TIP3    H236593   0.551   5.284   0.486  1.2901 -2.7472  1.2844
 5012TIP3   OH236594   3.534   3.369   2.354  0.2011 -0.1905  0.5792
 5012TIP3    H136595   3.459   3.427   2.368 -0.6647 -1.1844  0.2472
 5012TIP3    H236596   3.555   3.378   2.261 -1.4224 -2.0624 -0.0366
 5013TIP3   OH236597   0.929   6.380   7.017 -0.1365 -0.5988 -0.3239
 5013TIP3    H136598   0.837   6.359   7.027  0.2165 -2.2544 -0.2785
 5013TIP3    H236599   0.954   6.344   6.932  0.3305  0.3963 -0.6264
 5014TIP3   OH236600   3.226   4.130   8.807  0.4858 -0.1615 -0.0198
 5014TIP3    H136601   3.302   4.135   8.866  0.3731  3.5307  0.0553
 5014TIP3    H236602   3.152   4.111   8.865  0.8017  0.4398  0.6014
 5015TIP3   OH236603   5.530   2.870   1.353 -0.2680 -0.2093 -0.3601
 5015TIP3    H136604   5.434   2.872   1.360 -0.2310  0.0385  0.0917
 5015TIP3    H236605   5.547   2.878   1.259 -0.7424 -1.9936 -0.6469
 5016TIP3   OH236606   2.854   3.686   0.147 -0.2057 -0.3011 -0.3572
 5016TIP3    H136607   2.898   3.646   0.072  1.5002  0.3754  0.2313
 5016TIP3    H236608   2.781   3.735   0.108  0.9948  0.5224 -1.6758
 5017TIP3   OH236609   2.246   5.204   7.404 -0.0498  0.1789 -0.0079
 5017TIP3    H136610   2.169   5.150   7.421 -0.3420 -0.3960 -2.6350
 5017TIP3    H236611   2.218   5.293   7.422 -1.4349 -0.0038 -1.0709
 5018TIP3   OH236612   2.861   0.778   8.377 -0.2752 -0.4571  0.4333
 5018TIP3    H136613   2.873   0.836   8.302 -1.2701 -1.0261 -0.1866
 5018TIP3    H236614   2.950   0.765   8.412 -0.0610  1.7319  0.8617
 5019TIP3   OH236615   0.897   2.411   7.865  0.2909 -0.6972  0.2335
 5019TIP3    H136616   0.983   2.430   7.904  0.3899 -3.3451  1.5261
 5019TIP3    H236617   0.914   2.406   7.771  1.4468 -0.6870  0.4267
 5020TIP3   OH236618   4.671   5.298   1.985 -0.3682  0.2859 -0.2396
 5020TIP3    H136619   4.686   5.218   2.035  0.2252 -0.6288 -1.8299
 5020TIP3    H236620   4.615   5.352   2.042 -0.6636 -1.1856  0.9114
 5021TIP3   OH236621   2.503   5.315   8.500  0.6535 -0.2609  0.0137
 5021TIP3    H136622   2.552   5.234   8.513  0.1835 -0.0392  5.0836
 5021TIP3    H236623   2.419   5.287   8.464  2.3090 -1.1952 -3.6481
 5022TIP3   OH236624   4.535   4.116   1.189  0.4621 -0.1851 -0.2977
 5022TIP3    H136625   4.589   4.134   1.266 -1.5625 -0.9878  1.3986
 5022TIP3    H236626   4.541   4.021   1.177 -1.4202 -0.4804  0.6740
 5023TIP3   OH236627   4.206   1.887   1.375 -0.1006  0.0671  0.3979
 5023TIP3    H136628   4.191   1.795   1.356  0.3478  0.2324 -0.8455
 5023TIP3    H236629   4.212   1.892   1.470  0.5793 -1.2937  0.4342
 5024TIP3   OH236630   2.364   5.465   0.877  0.6341  0.1190  0.2514
 5024TIP3    H136631   2.420   5.541   0.889  0.9576  0.3092 -2.0331
 5024TIP3    H236632   2.420   5.400   0.833 -0.2635 -0.5847  0.1114
 5025TIP3   OH236633   4.633   5.550   2.396 -0.4182  0.2333  0.0225
 5025TIP3    H136634   4.543   5.560   2.365 -1.0869  0.8247  1.9986
 5025TIP3    H236635   4.634   5.594   2.481  1.9026  0.7453 -0.2138
 5026TIP3   OH236636   1.090   1.812   1.269  0.2652 -0.3060  0.5538
 5026TIP3    H136637   1.116   1.849   1.185  0.5839 -0.1102  0.7369
 5026TIP3    H236638   1.046   1.885   1.314 -0.0610 -0.4605  0.4879
 5027TIP3   OH236639   3.200   1.277   1.520  0.0150  0.1100  0.1966
 5027TIP3    H136640   3.142   1.344   1.484  0.5826  1.2164  1.2775
 5027TIP3    H236641   3.241   1.319   1.596  2.8422 -0.3234 -0.9695
 5028TIP3   OH236642   4.975   3.815   1.456 -0.6150  0.0270  0.1480
 5028TIP3    H136643   4.900   3.782   1.506 -0.3746  0.9290  1.1386
 5028TIP3    H236644   4.938   3.879   1.396 -0.5464  1.2748  1.3806
 5029TIP3   OH236645   5.735   2.487   8.672 -0.4450 -0.4052 -0.2409
 5029TIP3    H136646   5.688   2.403   8.671  0.9872 -1.2263 -0.6160
 5029TIP3    H236647   5.817   2.467   8.717  1.3246 -0.0153 -3.0911
 5030TIP3   OH236648   2.810   0.178   8.044 -0.8501  0.3364  0.4554
 5030TIP3    H136649   2.748   0.167   8.116  0.8066 -0.1861  1.8878
 5030TIP3    H236650   2.759   0.217   7.973 -3.0668 -1.1909  1.1187
 5031TIP3   OH236651   1.942   3.240   1.583  0.7449  0.0161 -0.4109
 5031TIP3    H136652   1.847   3.231   1.577  0.7230  1.0213 -2.2525
 5031TIP3    H236653   1.965   3.198   1.666 -1.3881  0.4858  0.4787
 5032TIP3   OH236654   3.922   2.890   7.851  0.4137 -0.1240  0.1818
 5032TIP3    H136655   3.894   2.957   7.788 -1.7329 -0.8904  0.2534
 5032TIP3    H236656   3.936   2.812   7.798 -1.3115 -0.7478  0.5814
 5033TIP3   OH236657   2.005   1.636   1.475 -0.4148 -0.2050 -0.1703
 5033TIP3    H136658   1.994   1.542   1.459  2.5526 -0.8780  1.0247
 5033TIP3    H236659   2.030   1.672   1.390  2.0180 -1.2563  0.0130
 5034TIP3   OH236660   4.529   6.601   7.033 -0.7791 -0.0969  0.0231
 5034TIP3    H136661   4.605   6.643   6.992 -0.1974  0.5126  1.6546
 5034TIP3    H236662   4.476   6.571   6.960  2.0188 -2.4319 -1.2885
 5035TIP3   OH236663   0.102   5.334   7.441 -0.0489  0.2866 -0.6237
 5035TIP3    H136664   0.028   5.320   7.500 -0.9560  1.2477 -1.5145
 5035TIP3    H236665   0.178   5.339   7.499 -0.7955  0.2166  0.3792
 5036TIP3   OH236666   4.094   2.644   0.901  0.0492  0.0734  0.5493
 5036TIP3    H136667   4.003   2.655   0.874  0.1934  0.7821  0.3275
 5036TIP3    H236668   4.145   2.669   0.824  0.4584  1.7895  1.3228
 5037TIP3   OH236669   3.189   0.232   7.674  0.1693  0.4009 -0.3683
 5037TIP3    H136670   3.162   0.144   7.649 -1.4083  0.7574 -0.0350
 5037TIP3    H236671   3.109   0.285   7.665  0.7019  1.4748  0.9038
 5038TIP3   OH236672   0.362   3.156   6.888  0.4388 -0.5201  0.1526
 5038TIP3    H136673   0.444   3.119   6.921  1.1326 -0.4321 -1.3717
 5038TIP3    H236674   0.356   3.123   6.799 -1.3188 -0.6954  0.3090
 5039TIP3   OH236675   1.244   0.014   7.694  0.6569  0.0679 -0.3351
 5039TIP3    H136676   1.280   0.018   7.783  0.3030 -0.6553 -0.1552
 5039TIP3    H236677   1.258   0.102   7.659 -0.7138  0.8836  1.0243
 5040TIP3   OH236678   1.578   5.939   2.199  0.1555 -0.0853 -0.0801
 5040TIP3    H136679   1.653   5.962   2.145  1.0133 -0.3468  0.9712
 5040TIP3    H236680   1.616   5.905   2.280 -1.0515 -2.5084 -0.4365
 5041TIP3   OH236681   2.097   2.592   0.438 -0.3362  0.4917 -0.2793
 5041TIP3    H136682   2.141   2.663   0.485 -0.7229  0.6139 -0.1026
 5041TIP3    H236683   2.034   2.557   0.501  2.0881 -2.2180  0.9223
 5042TIP3   OH236684   2.611   2.419   1.537  0.5331 -0.4149  0.3082
 5042TIP3    H136685   2.545   2.360   1.502  0.9925 -0.7697  0.0261
 5042TIP3    H236686   2.574   2.452   1.619  0.5072 -1.5258  0.7546
 5043TIP3   OH236687   1.537   0.026   8.613  0.2703 -0.0103  0.2178
 5043TIP3    H136688   1.557   0.065   8.528  0.8559 -0.7613  0.0010
 5043TIP3    H236689   1.617   0.038   8.664 -0.1566  0.6347  0.7447
 5044TIP3   OH236690   0.209   6.538   7.856  0.1776  0.0097 -0.1904
 5044TIP3    H136691   0.261   6.573   7.784 -2.0780 -0.3850 -2.1492
 5044TIP3    H236692   0.263   6.468   7.893  1.3431  0.1126 -1.6135
 5045TIP3   OH236693   5.053   6.336   8.648  0.6426  0.0683  0.2523
 5045TIP3    H136694   5.038   6.320   8.741  1.1919  0.9700  0.5088
 5045TIP3    H236695   5.059   6.431   8.641  0.6224  0.0097 -0.7056
 5046TIP3   OH236696   1.536   6.680   0.825 -0.0095 -0.0269 -0.1280
 5046TIP3    H136697   1.586   6.602   0.803 -0.7565  0.1241 -2.7003
 5046TIP3    H236698   1.595   6.753   0.804 -0.8220  0.1263 -2.0812
 5047TIP3   OH236699   5.093   3.584   7.452  0.4066 -0.8810 -0.1128
 5047TIP3    H136700   5.124   3.624   7.534 -3.5994  2.0056  0.3557
 5047TIP3    H236701   5.112   3.649   7.385 -0.6295 -0.9845 -0.5316
 5048TIP3   OH236702   4.091   3.725   8.086  0.3101 -0.2167 -0.0571
 5048TIP3    H136703   4.092   3.819   8.099  2.4328  0.0574 -1.5892
 5048TIP3    H236704   4.161   3.709   8.022 -0.3268 -2.7692 -0.2347
 5049TIP3   OH236705   2.487   2.890   7.985 -0.0928 -0.1248  0.2292
 5049TIP3    H136706   2.444   2.841   8.055 -0.1598 -0.3382  0.0409
 5049TIP3    H236707   2.529   2.823   7.931  2.8278  0.1836  1.8931
 5050TIP3   OH236708   6.043   2.070   1.674 -0.2849 -0.1328  0.0933
 5050TIP3    H136709   5.949   2.070   1.695 -0.2216 -0.6596  0.3845
 5050TIP3    H236710   6.059   1.982   1.640  0.6706 -1.0024  2.5814
 5051TIP3   OH236711   3.509   6.184   0.290  0.2201 -0.4785 -0.0396
 5051TIP3    H136712   3.578   6.142   0.341 -0.9277 -1.9149  0.4042
 5051TIP3    H236713   3.428   6.155   0.331 -0.6954 -0.2040 -1.5760
 5052TIP3   OH236714   2.228   6.161   8.372  0.3837  0.2785  0.2181
 5052TIP3    H136715   2.164   6.093   8.392  0.9739 -1.3087 -2.7332
 5052TIP3    H236716   2.313   6.119   8.386  0.7849  1.0894  0.2758
 5053TIP3   OH236717   2.717   0.752   8.864  1.0078 -0.4775 -0.1092
 5053TIP3    H136718   2.776   0.808   8.813 -0.0994  0.5709 -0.2908
 5053TIP3    H236719   2.764   0.669   8.872  2.7418  0.4719  0.2287
 5054TIP3   OH236720   3.155   3.327   1.735 -0.3100  0.1189 -0.0717
 5054TIP3    H136721   3.148   3.258   1.669  1.4759  1.9179 -2.3101
 5054TIP3    H236722   3.182   3.404   1.686  1.3080  1.5495  2.8150
 5055TIP3   OH236723   3.158   4.427   8.457 -0.2917 -0.7970 -0.4582
 5055TIP3    H136724   3.243   4.471   8.446  0.5500 -2.2698 -0.0889
 5055TIP3    H236725   3.131   4.449   8.546  1.1758 -2.6776  0.5372
 5056TIP3   OH236726   1.646   5.179   7.289  0.1832 -0.1782 -0.0790
 5056TIP3    H136727   1.714   5.126   7.331  0.6692  0.1181 -0.4752
 5056TIP3    H236728   1.683   5.201   7.204  0.3088  1.4123  0.3538
 5057TIP3   OH236729   4.114   4.456   8.680  0.0186  0.3928  0.6206
 5057TIP3    H136730   4.072   4.377   8.714  0.5360 -0.0087  0.3491
 5057TIP3    H236731   4.093   4.524   8.744  0.4331 -0.2005  1.4002
 5058TIP3   OH236732   5.850   2.362   0.280 -0.3445 -0.1609  0.3136
 5058TIP3    H136733   5.890   2.441   0.245 -0.6841 -0.9035 -1.9331
 5058TIP3    H236734   5.820   2.314   0.202 -0.1402 -2.4981  1.5816
 5059TIP3   OH236735   3.185   6.738   8.630  0.5418 -0.0707  0.0384
 5059TIP3    H136736   3.267   6.692   8.644  0.4268 -0.5968 -0.9619
 5059TIP3    H236737   3.118   6.670   8.630  0.2436  0.2148 -0.3797
 5060TIP3   OH236738   0.613   4.739   0.445  0.0944 -0.5356  0.0535
 5060TIP3    H136739   0.699   4.707   0.419 -0.6615 -2.8788  0.2298
 5060TIP3    H236740   0.567   4.753   0.362  0.6299  0.8423 -0.0459
 5061TIP3   OH236741   6.495   5.288   8.069  0.0383 -0.3771 -0.3057
 5061TIP3    H136742   6.468   5.266   7.979  0.1830  2.0247 -1.0231
 5061TIP3    H236743   6.415   5.320   8.111  0.1070 -0.8887  0.2213
 5062TIP3   OH236744   1.681   4.935   7.827  0.3818 -0.3098  0.0710
 5062TIP3    H136745   1.614   4.977   7.882  0.2821 -0.6830  0.2391
 5062TIP3    H236746   1.670   4.842   7.844 -0.9401 -0.5953 -2.0102
 5063TIP3   OH236747   2.711   5.588   0.361 -0.1867 -0.2689 -0.4231
 5063TIP3    H136748   2.702   5.569   0.267  1.4564  2.5113 -1.2721
 5063TIP3    H236749   2.757   5.512   0.396  0.1384 -0.9061 -2.1305
 5064TIP3   OH236750   1.247   3.138   6.618 -0.1461 -0.8420 -0.7096
 5064TIP3    H136751   1.280   3.161   6.531  0.0900 -2.0190 -0.9467
 5064TIP3    H236752   1.153   3.150   6.612  0.0629  1.2515 -0.4327
 5065TIP3   OH236753   0.634   6.311   8.144  0.2411 -0.2018 -0.7515
 5065TIP3    H136754   0.558   6.363   8.171  0.0477 -1.5112  1.4300
 5065TIP3    H236755   0.599   6.224   8.128  0.9508 -0.2742 -2.0853
 5066TIP3   OH236756   4.507   3.033   1.200  0.2318  0.1707 -0.1092
 5066TIP3    H136757   4.558   3.005   1.275 -1.0143  1.8984  1.4621
 5066TIP3    H236758   4.416   3.033   1.231 -0.4089  0.1114 -1.8718
 5067TIP3   OH236759   2.145   0.754   8.722 -0.7375  0.5432  0.7347
 5067TIP3    H136760   2.220   0.771   8.665  0.2011  2.0975  2.3373
 5067TIP3    H236761   2.082   0.707   8.666  0.1330  1.9220 -1.5243
 5068TIP3   OH236762   2.097   4.173   1.304  0.2608  0.1587 -0.1763
 5068TIP3    H136763   2.076   4.080   1.316  2.1389 -0.1549  1.2018
 5068TIP3    H236764   2.024   4.219   1.347 -0.3113 -0.6869 -0.2070
 5069TIP3   OH236765   4.102   0.445   2.655  0.1410 -0.4506  0.2820
 5069TIP3    H136766   4.018   0.408   2.627 -1.0010  2.1494 -0.0147
 5069TIP3    H236767   4.100   0.437   2.751  0.6028 -2.3876  0.1739
 5070TIP3   OH236768   4.026   3.903   1.332 -0.0918 -0.3450  0.1109
 5070TIP3    H136769   4.100   3.866   1.284  0.1497  0.3113 -0.0232
 5070TIP3    H236770   4.022   3.851   1.413  2.4927  1.5451  1.6159
 5071TIP3   OH236771   0.345   0.274   6.733  0.9229  0.8801 -0.5873
 5071TIP3    H136772   0.410   0.289   6.802  0.3253 -1.1119  0.4664
 5071TIP3    H236773   0.274   0.226   6.776  0.1579  0.2807 -2.4102
 5072TIP3   OH236774   5.206   4.685   1.987  0.0288 -0.0540 -0.1187
 5072TIP3    H136775   5.170   4.609   1.942  0.4947  0.4627 -1.3969
 5072TIP3    H236776   5.172   4.760   1.939 -0.2178  0.5504  0.9729
 5073TIP3   OH236777   1.853   2.435   8.425  0.1294  0.4145  0.1176
 5073TIP3    H136778   1.785   2.462   8.364 -1.4706  0.2875  1.7686
 5073TIP3    H236779   1.820   2.460   8.511  0.6960 -2.4892  1.2836
 5074TIP3   OH236780   2.200   5.568   8.246  0.0423  0.3166  0.6774
 5074TIP3    H136781   2.235   5.479   8.237 -3.0471 -0.8578 -2.0827
 5074TIP3    H236782   2.139   5.562   8.319  0.0932  0.2574  0.7151
 5075TIP3   OH236783   4.087   3.938   7.568 -0.3998  0.9957  0.1416
 5075TIP3    H136784   4.147   3.947   7.494 -1.6396  1.5856 -0.8117
 5075TIP3    H236785   4.043   4.022   7.574 -2.1186  0.1527 -0.0570
 5076TIP3   OH236786   4.048   3.011   6.393 -0.0048 -0.3529  0.4875
 5076TIP3    H136787   3.964   2.996   6.349 -0.0208  0.0667  0.3682
 5076TIP3    H236788   4.028   3.005   6.486 -0.3814  0.7647  0.4940
 5077TIP3   OH236789   3.696   1.777   0.702 -0.1166 -0.9419  0.4524
 5077TIP3    H136790   3.756   1.773   0.777  0.7914  2.3148  0.0692
 5077TIP3    H236791   3.734   1.843   0.645 -2.5560 -0.8971 -1.2792
 5078TIP3   OH236792   6.119   4.286   7.943 -0.3400  0.0078 -0.4341
 5078TIP3    H136793   6.163   4.338   7.875 -0.7766 -1.3719 -1.8424
 5078TIP3    H236794   6.048   4.341   7.974  0.7612  1.2391 -0.0255
 5079TIP3   OH236795   1.363   6.089   7.431 -0.1563  0.3358  0.0992
 5079TIP3    H136796   1.356   6.150   7.358 -0.2092  1.0742  0.7082
 5079TIP3    H236797   1.275   6.053   7.442 -0.0273 -0.2044 -0.5459
 5080TIP3   OH236798   5.959   4.499   7.064 -0.0317  0.0837 -0.2709
 5080TIP3    H136799   5.901   4.437   7.108  2.7588 -3.0132 -0.5055
 5080TIP3    H236800   5.984   4.454   6.983  0.7596  2.3628 -1.3691
 5081TIP3   OH236801   4.691   5.347   8.108  0.2676  0.0914  0.8544
 5081TIP3    H136802   4.762   5.316   8.164 -1.3900 -1.7229  2.0974
 5081TIP3    H236803   4.637   5.269   8.092 -0.7373  1.1070 -1.1562
 5082TIP3   OH236804   0.832   2.587   8.097 -0.1550 -0.1308  0.0748
 5082TIP3    H136805   0.830   2.536   8.178  2.6719 -0.5684 -0.0074
 5082TIP3    H236806   0.903   2.548   8.046 -0.9460  1.0238 -2.0148
 5083TIP3   OH236807   4.162   4.160   0.090  0.4624  0.8046  0.2836
 5083TIP3    H136808   4.184   4.110   0.169 -1.6076 -0.5795  0.0508
 5083TIP3    H236809   4.225   4.130   0.025 -0.6705 -1.5558  0.1728
 5084TIP3   OH236810   2.004   5.874   8.677  0.5608  0.0265  0.4064
 5084TIP3    H136811   2.029   5.927   8.753  3.7340 -0.4060 -0.1848
 5084TIP3    H236812   2.005   5.936   8.603  0.0883 -0.0591  0.3254
 5085TIP3   OH236813   5.225   5.001   0.243 -0.0957 -0.3086 -0.5201
 5085TIP3    H136814   5.197   5.050   0.166  0.1853 -0.4784 -0.7315
 5085TIP3    H236815   5.226   5.066   0.313  2.2958  0.5262 -1.2156
 5086TIP3   OH236816   4.805   6.487   6.604  0.8949 -0.3086  0.4743
 5086TIP3    H136817   4.830   6.398   6.630 -0.1346 -0.4132  1.1842
 5086TIP3    H236818   4.710   6.481   6.591  0.9225  0.5276 -0.1619
 5087TIP3   OH236819   3.880   3.273   7.490 -0.2392  0.1232 -0.4190
 5087TIP3    H136820   3.922   3.189   7.511  0.1125  0.1236 -1.0923
 5087TIP3    H236821   3.793   3.249   7.459 -0.8310  0.1302  1.1268
 5088TIP3   OH236822   4.497   0.821   7.624  0.4129 -0.0060 -0.1760
 5088TIP3    H136823   4.553   0.892   7.591  1.4551 -0.3303  0.8397
 5088TIP3    H236824   4.433   0.866   7.680  1.6787  0.0705  1.2589
 5089TIP3   OH236825   2.939   3.061   8.564 -0.0225 -1.0045  0.1412
 5089TIP3    H136826   2.961   3.137   8.617  3.7427 -3.4872  2.5821
 5089TIP3    H236827   3.009   3.055   8.499 -0.2037 -2.4105  0.0429
 5090TIP3   OH236828   1.513   2.292   1.117 -0.4417 -0.3189  0.0483
 5090TIP3    H136829   1.481   2.361   1.176 -0.1367 -0.1429  0.0078
 5090TIP3    H236830   1.581   2.247   1.167  1.4921  1.3094 -0.9819
 5091TIP3   OH236831   4.885   5.839   8.450  0.1946  0.7640 -0.6481
 5091TIP3    H136832   4.825   5.914   8.453 -0.8837 -0.0824  1.6945
 5091TIP3    H236833   4.830   5.764   8.472  1.4316 -0.6117 -2.0260
 5092TIP3   OH236834   3.444   2.764   0.067  0.8567  0.1721  0.2497
 5092TIP3    H136835   3.455   2.693   0.131  1.4090  1.0242  1.1164
 5092TIP3    H236836   3.402   2.721  -0.008  2.6065 -1.4355  0.1047
 5093TIP3   OH236837   4.512   3.834   6.622  0.2259  0.5837 -1.4699
 5093TIP3    H136838   4.445   3.846   6.555 -0.5444  0.3127 -0.7670
 5093TIP3    H236839   4.474   3.769   6.682  1.5651 -0.4008 -1.6425
 5094TIP3   OH236840   4.345   6.412   2.155  0.2757  0.3465 -0.1971
 5094TIP3    H136841   4.357   6.318   2.172 -1.9588 -0.6649 -3.2270
 5094TIP3    H236842   4.401   6.430   2.080 -0.1473  1.1689 -0.3289
 5095TIP3   OH236843   5.039   4.157   1.367 -0.1614  0.1719 -0.3610
 5095TIP3    H136844   5.063   4.249   1.362  3.1440 -0.5530  0.1847
 5095TIP3    H236845   4.972   4.153   1.435  1.5092  1.9129  1.5083
 5096TIP3   OH236846   1.364   3.905   1.202 -0.4948  0.2408 -0.4084
 5096TIP3    H136847   1.343   3.885   1.294 -0.6572 -1.8285 -0.8507
 5096TIP3    H236848   1.321   3.836   1.152 -0.3786  1.3156 -2.0679
 5097TIP3   OH236849   5.539   3.016   0.380 -0.4957  0.3598 -0.8020
 5097TIP3    H136850   5.517   3.024   0.287 -0.4570  0.6828 -0.7849
 5097TIP3    H236851   5.517   2.925   0.402 -1.6566  0.6173 -0.8250
 5098TIP3   OH236852   0.174   4.451   8.470 -0.5310 -0.2953  0.0189
 5098TIP3    H136853   0.161   4.385   8.538  0.5639  0.1001  0.6482
 5098TIP3    H236854   0.088   4.491   8.458 -0.8831 -0.8251  0.6894
 5099TIP3   OH236855   6.461   1.784   0.804 -0.3879  0.4122  0.0077
 5099TIP3    H136856   6.423   1.774   0.717 -0.7602  0.0704  0.2075
 5099TIP3    H236857   6.522   1.710   0.813  0.7601  1.2588 -0.5238
 5100TIP3   OH236858   2.693   0.590   1.116  0.0191 -0.2109  0.2151
 5100TIP3    H136859   2.611   0.616   1.074  1.0784  1.6323 -0.8444
 5100TIP3    H236860   2.667   0.561   1.204 -1.8427 -0.5329 -0.4019
 5101TIP3   OH236861   2.643   4.222   1.598  0.1398 -0.2478  0.3276
 5101TIP3    H136862   2.651   4.302   1.651  1.4111 -0.8810  1.1453
 5101TIP3    H236863   2.717   4.226   1.537  0.4171 -0.9386  0.6025
 5102TIP3   OH236864   2.046   3.849   1.042  0.6680 -0.2742  0.0847
 5102TIP3    H136865   1.990   3.925   1.061  0.5351 -0.2979 -0.2068
 5102TIP3    H236866   2.026   3.786   1.111  2.8665  1.0318  2.1145
 5103TIP3   OH236867   5.899   5.838   8.848  0.1173 -0.0525  0.5526
 5103TIP3    H136868   5.949   5.920   8.850  0.3779 -0.2036  0.3389
 5103TIP3    H236869   5.959   5.775   8.807 -1.0130  0.3156 -1.8784
 5104TIP3   OH236870   6.066   4.765   2.502 -0.2531  0.6448 -0.1703
 5104TIP3    H136871   6.020   4.711   2.437  0.7645 -2.3079  1.4035
 5104TIP3    H236872   6.158   4.744   2.491  0.1391  1.6825  0.8820
 5105TIP3   OH236873   6.729   2.816   1.657  0.1163  0.3687 -0.4224
 5105TIP3    H136874   6.804   2.817   1.717 -0.1904  1.1606 -0.0392
 5105TIP3    H236875   6.709   2.909   1.643 -2.7873  0.2670  1.9845
 5106TIP3   OH236876   3.725   3.137   0.784  0.5109 -0.2370  0.3290
 5106TIP3    H136877   3.666   3.188   0.729  0.7699 -1.3101 -0.9839
 5106TIP3    H236878   3.760   3.201   0.846 -1.8905  0.4457  1.0819
 5107TIP3   OH236879   4.944   3.274   8.075  0.5923 -0.4588  0.5969
 5107TIP3    H136880   5.006   3.300   8.007  0.7071 -2.0361  0.0502
 5107TIP3    H236881   4.998   3.232   8.142  0.4030  0.5126  1.3729
 5108TIP3   OH236882   1.301   0.763   1.062 -0.6301  0.4200  0.3627
 5108TIP3    H136883   1.250   0.752   1.142  0.3185  0.2200  0.9531
 5108TIP3    H236884   1.262   0.702   1.000 -1.0203  0.1742  0.8401
 5109TIP3   OH236885   0.445   1.535   0.664 -0.4883  0.2111 -0.9516
 5109TIP3    H136886   0.453   1.440   0.667  1.6115  0.3867  1.1276
 5109TIP3    H236887   0.495   1.560   0.586  1.7082 -0.2340  0.2431
 5110TIP3   OH236888   2.539   1.776   1.288 -0.1033 -0.1850  0.0543
 5110TIP3    H136889   2.585   1.828   1.353 -2.0445  2.0503 -0.2305
 5110TIP3    H236890   2.520   1.693   1.332 -1.0082  1.1040  2.2326
 5111TIP3   OH236891   5.836   0.361   8.010  0.7925  0.0851  0.1605
 5111TIP3    H136892   5.834   0.455   7.992 -1.1827  0.0520 -0.0353
 5111TIP3    H236893   5.880   0.323   7.934  0.5897  0.7455 -0.2942
 5112TIP3   OH236894   0.538   5.134   7.773 -0.2519  0.2362  0.1624
 5112TIP3    H136895   0.482   5.190   7.828 -1.0546 -0.4671  0.0864
 5112TIP3    H236896   0.614   5.117   7.828 -0.8020 -0.0268  0.8707
 5113TIP3   OH236897   6.691   0.671   1.411  0.1505 -0.6833  0.2217
 5113TIP3    H136898   6.727   0.642   1.495 -2.1788  0.6244  1.8066
 5113TIP3    H236899   6.602   0.701   1.432 -0.1588  0.6911 -2.5268
 5114TIP3   OH236900   6.451   2.580   1.959  0.7569 -0.5107 -0.2205
 5114TIP3    H136901   6.436   2.518   1.889 -1.4681 -0.8217  0.4496
 5114TIP3    H236902   6.511   2.536   2.019  0.5327 -1.3228 -0.5937
 5115TIP3   OH236903   5.407   0.886   7.735  0.0054 -0.2551 -0.1162
 5115TIP3    H136904   5.468   0.945   7.691  0.6922 -1.8204 -1.3397
 5115TIP3    H236905   5.334   0.877   7.674 -0.7479  0.3497  0.6583
 5116TIP3   OH236906   6.170   4.116   7.330  0.1633  0.1548 -0.0901
 5116TIP3    H136907   6.250   4.168   7.321  0.7383 -0.2771  1.9770
 5116TIP3    H236908   6.127   4.151   7.408  0.1896 -1.9466  0.9412
 5117TIP3   OH236909   3.213   0.639   0.149  0.1731 -0.0745  0.4436
 5117TIP3    H136910   3.305   0.614   0.153  0.4561  0.7469 -0.3673
 5117TIP3    H236911   3.209   0.723   0.195 -0.1408 -0.0311  0.3385
 5118TIP3   OH236912   6.020   3.324   1.581  0.2202  0.6006 -0.4702
 5118TIP3    H136913   6.018   3.365   1.668  1.9470  1.7837 -0.9327
 5118TIP3    H236914   5.942   3.358   1.537 -1.9002 -1.6638  1.2201
 5119TIP3   OH236915   2.259   1.910   1.470  1.0677  0.0191  0.7090
 5119TIP3    H136916   2.249   1.903   1.375 -1.2158 -3.4639  1.0118
 5119TIP3    H236917   2.241   2.002   1.489 -1.0540  0.3037 -2.0498
 5120TIP3   OH236918   3.754   2.867   0.286 -1.0308  0.5669  0.3047
 5120TIP3    H136919   3.842   2.851   0.252 -1.7437 -0.1064 -1.3082
 5120TIP3    H236920   3.758   2.837   0.377  0.8816  2.2509  0.8308
 5121TIP3   OH236921   1.297   1.288   8.613  0.4286 -0.0535  0.0199
 5121TIP3    H136922   1.372   1.341   8.586 -0.4174  1.5117  0.5639
 5121TIP3    H236923   1.330   1.236   8.686  1.1617  0.1101 -0.1840
 5122TIP3   OH236924   0.699   5.645   7.949  0.5470  0.1512 -0.3125
 5122TIP3    H136925   0.791   5.626   7.968  0.2833  0.1916  1.1009
 5122TIP3    H236926   0.702   5.722   7.892  1.3838  0.2020 -0.2150
 5123TIP3   OH236927   1.251   5.915   7.728  0.5027 -0.2103  0.2120
 5123TIP3    H136928   1.294   5.845   7.778  0.5765 -0.1703  0.2045
 5123TIP3    H236929   1.168   5.930   7.774  0.4157 -0.4101  0.1260
 5124TIP3   OH236930   1.065   5.608   1.805 -0.0220 -0.3741 -0.0808
 5124TIP3    H136931   0.973   5.624   1.785 -0.6320 -0.8876  2.0781
 5124TIP3    H236932   1.064   5.539   1.871  1.8358  0.3477  0.7836
 5125TIP3   OH236933   1.425   2.082   8.624  0.0719  0.7092 -0.1728
 5125TIP3    H136934   1.394   2.164   8.586  2.1780  0.9895 -1.4883
 5125TIP3    H236935   1.382   2.014   8.572 -0.2811  1.0168 -0.2842
 5126TIP3   OH236936   4.062   2.925   0.288 -0.5343  0.3692 -0.2914
 5126TIP3    H136937   4.156   2.920   0.302 -0.2143  0.9029 -2.0734
 5126TIP3    H236938   4.029   2.971   0.365  0.6683  0.3334  0.2741
 5127TIP3   OH236939   5.490   4.521   8.084  0.0895  0.6157  0.9114
 5127TIP3    H136940   5.416   4.574   8.111  1.1922  1.4056  2.5164
 5127TIP3    H236941   5.565   4.580   8.086  0.9324 -0.3741  0.1664
 5128TIP3   OH236942   4.490   5.493   1.832 -0.4850  0.3628 -0.0060
 5128TIP3    H136943   4.514   5.459   1.919  0.4507 -2.3836 -1.2344
 5128TIP3    H236944   4.432   5.426   1.795  0.8295  0.4149 -2.3140
 5129TIP3   OH236945   5.499   0.485   0.486  0.0752  0.6989 -0.4310
 5129TIP3    H136946   5.509   0.443   0.572 -1.6085  1.5974  0.2550
 5129TIP3    H236947   5.420   0.445   0.449  1.5080 -0.6787 -2.2387
 5130TIP3   OH236948   4.431   5.327   7.058 -0.2057 -0.1786 -0.1209
 5130TIP3    H136949   4.460   5.256   7.000  0.0319  1.1302 -1.6588
 5130TIP3    H236950   4.384   5.387   7.001  0.7728  1.5924  0.8594
 5131TIP3   OH236951   2.303   4.848   0.807  0.3261  0.2444 -0.1198
 5131TIP3    H136952   2.342   4.762   0.823  1.2538  0.2064 -2.1836
 5131TIP3    H236953   2.213   4.829   0.780  0.0594  0.0489  0.8694
 5132TIP3   OH236954   3.910   2.464   0.578 -0.2678  0.2792 -0.3076
 5132TIP3    H136955   3.981   2.528   0.581 -0.7088  0.7902 -0.4924
 5132TIP3    H236956   3.928   2.404   0.650  1.3707 -0.7174 -1.4865
 5133TIP3   OH236957   6.552   6.576   8.287  0.2286 -0.1264 -0.0881
 5133TIP3    H136958   6.608   6.606   8.215  1.7006 -3.0458 -0.3113
 5133TIP3    H236959   6.606   6.588   8.366 -0.5421  1.0216  0.2923
 5134TIP3   OH236960   2.742   3.892   8.690  0.1862 -0.5682  0.6807
 5134TIP3    H136961   2.759   3.950   8.764 -0.0466  0.8394 -0.3349
 5134TIP3    H236962   2.707   3.949   8.622 -0.2000 -1.9361 -0.3107
 5135TIP3   OH236963   0.682   1.840   0.040 -0.1778  0.1520  0.2989
 5135TIP3    H136964   0.625   1.915   0.026  0.0957  0.6492  1.6773
 5135TIP3    H236965   0.636   1.767  -0.001 -0.9019  0.8859 -0.2288
 5136TIP3   OH236966   6.734   2.590   0.163  0.1738  0.2873 -0.2717
 5136TIP3    H136967   6.818   2.631   0.143  0.7433 -0.6111  0.1791
 5136TIP3    H236968   6.670   2.661   0.157  0.9558  0.9817 -0.6464
 5137TIP3   OH236969   2.826   5.426   8.330  0.0261  0.2462 -0.0221
 5137TIP3    H136970   2.877   5.357   8.371  1.7460  1.1494 -0.5213
 5137TIP3    H236971   2.892   5.489   8.299 -1.4411  1.9510  0.1378
 5138TIP3   OH236972   6.709   5.571   1.924 -0.5489  0.1692  0.1058
 5138TIP3    H136973   6.775   5.582   1.992 -0.0002  2.2530 -0.6777
 5138TIP3    H236974   6.642   5.636   1.946 -1.2540 -0.3950 -0.3425
 5139TIP3   OH236975   6.721   3.991   1.057 -0.3490 -0.1399 -0.0826
 5139TIP3    H136976   6.781   3.924   1.025 -0.3588 -1.2019  1.9925
 5139TIP3    H236977   6.649   3.942   1.097 -2.1358  1.1085 -1.6018
 5140TIP3   OH236978   2.007   6.684   6.337  0.2651 -0.0353 -0.1942
 5140TIP3    H136979   2.028   6.711   6.248  1.3126  0.1974  0.1020
 5140TIP3    H236980   1.943   6.614   6.327 -0.1077  0.4221 -1.0976
 5141TIP3   OH236981   2.179   4.736   1.545  0.4023  0.1146 -0.2369
 5141TIP3    H136982   2.254   4.792   1.564  1.0657 -1.0494  0.7663
 5141TIP3    H236983   2.132   4.781   1.475  1.8511  1.0406 -0.6568
 5142TIP3   OH236984   5.267   6.068   0.813 -0.0478  0.7615 -0.5105
 5142TIP3    H136985   5.312   5.984   0.806 -0.4911  0.6518 -2.5826
 5142TIP3    H236986   5.336   6.130   0.838  0.4726 -0.0348  0.0693
 5143TIP3   OH236987   4.293   3.734   1.260 -0.2946 -0.5443  0.3287
 5143TIP3    H136988   4.254   3.694   1.338 -0.1021  2.4039  2.0953
 5143TIP3    H236989   4.375   3.773   1.291 -0.8048  1.7938 -0.9796
 5144TIP3   OH236990   6.547   1.238   8.796  0.1719  0.7111  0.0548
 5144TIP3    H136991   6.576   1.165   8.741 -0.6741  0.4728 -0.1027
 5144TIP3    H236992   6.523   1.197   8.880 -0.3654  0.7863 -0.0547
 5145TIP3   OH236993   0.776   1.943   8.464  0.0146  0.3802 -0.1031
 5145TIP3    H136994   0.738   1.958   8.551 -0.2984 -1.5119  0.1467
 5145TIP3    H236995   0.701   1.927   8.407  0.2697 -2.2475  0.1543
 5146TIP3   OH236996   0.821   3.832   8.271 -0.2783 -0.2281 -0.3394
 5146TIP3    H136997   0.861   3.746   8.256  2.8090  0.8945  0.8337
 5146TIP3    H236998   0.755   3.815   8.339  2.4925 -1.2887  2.3268
 5147TIP3   OH236999   4.873   2.642   8.659  0.1434  0.1934 -0.1533
 5147TIP3    H137000   4.791   2.612   8.619  0.3481 -1.0942  0.3461
 5147TIP3    H237001   4.847   2.677   8.744  0.2606 -1.9854  0.8642
 5148TIP3   OH237002   4.794   6.652   6.930 -0.0395  0.2283  0.2724
 5148TIP3    H137003   4.744   6.733   6.924  0.2311  0.5102  1.5210
 5148TIP3    H237004   4.854   6.655   6.856 -0.0694  1.1519  0.2746
 5149TIP3   OH237005   2.666   3.098   1.113 -0.2677  0.0160 -0.3189
 5149TIP3    H137006   2.713   3.179   1.091  0.6406 -0.2898  0.4348
 5149TIP3    H237007   2.669   3.046   1.034  0.4480  0.1149 -0.3636
 5150TIP3   OH237008   4.143   5.606   8.113  0.1490  0.2449 -0.5520
 5150TIP3    H137009   4.122   5.675   8.049 -0.7999  0.1837 -0.3294
 5150TIP3    H237010   4.238   5.608   8.120  0.1828  1.0725 -1.0639
 5151TIP3   OH237011   4.232   1.262   1.561  0.4661  0.3732 -0.5470
 5151TIP3    H137012   4.181   1.209   1.622 -0.8225  0.2931 -1.6352
 5151TIP3    H237013   4.218   1.352   1.589 -1.5138  0.4730 -1.6438
 5152TIP3   OH237014   6.036   2.491   8.594  0.2638 -0.3373 -0.0768
 5152TIP3    H137015   6.099   2.429   8.632  1.5175 -0.4198 -2.1364
 5152TIP3    H237016   6.038   2.472   8.500  0.6523  2.7598 -0.7940
 5153TIP3   OH237017   3.765   0.143   7.941  0.3481 -0.0674 -0.3706
 5153TIP3    H137018   3.816   0.169   8.018 -0.0800  1.5732 -0.6034
 5153TIP3    H237019   3.830   0.132   7.872  0.7992 -2.0593  0.2902
 5154TIP3   OH237020   2.267   2.141   8.791 -0.0003 -0.6615  0.2817
 5154TIP3    H137021   2.357   2.141   8.759  0.2797 -0.0884  1.0447
 5154TIP3    H237022   2.220   2.197   8.729 -0.0075 -1.5705 -0.5580
 5155TIP3   OH237023   4.581   3.194   2.365 -0.2028 -0.1015  0.4416
 5155TIP3    H137024   4.675   3.178   2.363 -0.0811  0.1709  2.1743
 5155TIP3    H237025   4.568   3.255   2.437 -1.9136 -2.0014  1.9029
 5156TIP3   OH237026   2.782   1.313   0.398  0.2708  0.2291 -0.2333
 5156TIP3    H137027   2.692   1.293   0.374  0.1877  0.5043 -0.1568
 5156TIP3    H237028   2.781   1.322   0.493  0.2360  0.9266 -0.2946
 5157TIP3   OH237029   6.152   2.560   1.223  0.1243  0.4928  0.4782
 5157TIP3    H137030   6.211   2.486   1.240 -0.9144 -0.5590 -0.3569
 5157TIP3    H237031   6.124   2.589   1.310  1.0826  0.3626  0.8429
 5158TIP3   OH237032   0.551   2.312   1.357  0.4407  0.3257  0.2579
 5158TIP3    H137033   0.589   2.388   1.314 -3.3256  2.5105  0.2854
 5158TIP3    H237034   0.580   2.237   1.305  2.2563  2.0217 -1.3410
 5159TIP3   OH237035   4.531   5.777   1.622 -0.4528  0.4571  0.4018
 5159TIP3    H137036   4.482   5.755   1.543  1.2264 -0.0061 -0.5740
 5159TIP3    H237037   4.616   5.808   1.589  0.4888 -0.2748  2.0212
 5160TIP3   OH237038   0.177   4.037   8.424 -0.3363  0.1623  0.5865
 5160TIP3    H137039   0.184   4.007   8.333  1.2546 -0.2233  0.8161
 5160TIP3    H237040   0.100   4.094   8.424 -0.6615 -0.2393 -0.8893
 5161TIP3   OH237041   2.849   6.559   1.529 -0.6358 -0.3776 -0.3678
 5161TIP3    H137042   2.888   6.497   1.467 -0.1657 -0.1901 -0.2659
 5161TIP3    H237043   2.810   6.626   1.473  0.6203  0.2995 -0.4660
 5162TIP3   OH237044   3.592   4.675   7.499 -0.3892 -0.0483 -0.3703
 5162TIP3    H137045   3.539   4.740   7.454  1.7637  0.6919 -1.9949
 5162TIP3    H237046   3.604   4.605   7.435  1.1461  0.1473 -0.3422
 5163TIP3   OH237047   0.942   3.171   0.940  0.2959 -0.1398 -0.2074
 5163TIP3    H137048   0.898   3.094   0.977  2.0351 -0.1306  2.0811
 5163TIP3    H237049   1.022   3.136   0.900  1.2379  0.4407  1.0933
 5164TIP3   OH237050   0.976   6.142   8.615 -0.8100  0.5296 -0.1575
 5164TIP3    H137051   0.926   6.220   8.588 -0.5398  0.5305 -0.6637
 5164TIP3    H237052   0.931   6.112   8.694 -1.5855  0.5601 -0.5771
 5165TIP3   OH237053   6.079   6.055   7.067  0.1497 -0.1363  0.0600
 5165TIP3    H137054   6.075   5.989   6.997 -0.8051 -1.2034  1.0646
 5165TIP3    H237055   6.155   6.029   7.120 -0.5816 -0.8240  0.8001
 5166TIP3   OH237056   1.847   6.523   7.201  0.0823  0.3572 -0.0787
 5166TIP3    H137057   1.937   6.496   7.183 -0.6666 -0.5301 -2.8905
 5166TIP3    H237058   1.829   6.591   7.137 -1.4157  0.1388  0.0877
 5167TIP3   OH237059   3.092   1.424   0.459 -0.0056 -0.2094 -0.4846
 5167TIP3    H137060   3.159   1.479   0.499  0.6037 -1.2794  0.0382
 5167TIP3    H237061   3.049   1.382   0.534 -1.3149  0.5147 -0.8179
 5168TIP3   OH237062   1.058   4.483   8.689  0.0304  0.7432 -0.3503
 5168TIP3    H137063   1.058   4.579   8.684  2.0453  0.7319 -1.7679
 5168TIP3    H237064   1.026   4.454   8.604 -0.5668  0.1277  0.0696
 5169TIP3   OH237065   4.526   6.127   8.008 -0.1551 -0.1704  0.6258
 5169TIP3    H137066   4.554   6.040   7.980 -1.1714  0.2462 -1.8958
 5169TIP3    H237067   4.523   6.121   8.104  2.3781 -2.0529  0.6957
 5170TIP3   OH237068   2.685   2.418   1.247  0.2403 -0.7681 -0.4485
 5170TIP3    H137069   2.757   2.360   1.223  0.7390 -1.0958  1.6684
 5170TIP3    H237070   2.619   2.361   1.285 -0.6076 -0.3073 -1.2011
 5171TIP3   OH237071   5.456   4.918   0.143 -0.5497  0.1411  0.1543
 5171TIP3    H137072   5.383   4.923   0.204 -0.0467  0.8348  0.7104
 5171TIP3    H237073   5.430   4.973   0.069 -1.3994 -1.1468 -0.5324
 5172TIP3   OH237074   6.025   0.630   1.367  0.3747  0.1300 -0.1059
 5172TIP3    H137075   6.075   0.597   1.292 -0.0557  1.0408 -0.8261
 5172TIP3    H237076   6.081   0.615   1.443  0.3861 -1.7696 -0.4618
 5173TIP3   OH237077   6.090   4.006   6.314  0.1082 -0.0463  0.1707
 5173TIP3    H137078   6.028   4.077   6.296  0.3402 -0.3869 -2.4345
 5173TIP3    H237079   6.175   4.049   6.320  0.4489 -0.0885 -2.7476
 5174TIP3   OH237080   4.611   6.213   7.480  0.5301  0.7703  0.4515
 5174TIP3    H137081   4.641   6.242   7.393  0.7447 -2.0031 -0.5041
 5174TIP3    H237082   4.554   6.138   7.462  1.2386 -0.4026  2.7109
 5175TIP3   OH237083   1.188   3.866   0.121  0.1571 -0.2710  0.6931
 5175TIP3    H137084   1.273   3.854   0.079 -0.7279 -0.3266 -1.1796
 5175TIP3    H237085   1.205   3.850   0.214  1.6732 -3.0068  0.0737
 5176TIP3   OH237086   5.166   0.963   0.952  0.1832 -0.1451 -0.6655
 5176TIP3    H137087   5.205   1.038   0.998  0.9782 -0.9847  0.0721
 5176TIP3    H237088   5.239   0.921   0.907 -0.0419 -1.1143 -0.1551
 5177TIP3   OH237089   4.285   2.858   1.919  0.5035 -0.0886 -0.2404
 5177TIP3    H137090   4.342   2.846   1.995 -0.1332  1.1619  0.4674
 5177TIP3    H237091   4.231   2.933   1.941 -0.4831 -0.3980 -1.4763
 5178TIP3   OH237092   2.641   1.665   6.657  0.0838 -0.1078 -0.4474
 5178TIP3    H137093   2.675   1.692   6.742 -0.3512 -0.6834 -0.0819
 5178TIP3    H237094   2.562   1.614   6.677  0.2412 -0.6674 -1.1630
 5179TIP3   OH237095   5.454   2.641   8.736 -0.0950 -0.2282  0.1950
 5179TIP3    H137096   5.412   2.683   8.662  0.8211 -1.9506 -1.3989
 5179TIP3    H237097   5.496   2.563   8.699 -0.2240 -1.5850  2.6533
 5180TIP3   OH237098   2.600   1.256   7.356 -0.4178  0.7191  0.4017
 5180TIP3    H137099   2.680   1.305   7.338 -0.5999  1.0207  0.3971
 5180TIP3    H237100   2.618   1.168   7.326 -1.0017  1.3747 -2.1005
 5181TIP3   OH237101   2.684   1.002   1.863  0.1382  0.2344  0.6607
 5181TIP3    H137102   2.665   1.069   1.797  2.3965 -0.6183 -0.9738
 5181TIP3    H237103   2.640   1.033   1.942 -0.0973  2.8897 -0.4042
 5182TIP3   OH237104   1.075   6.596   8.224  0.3210  0.0312  0.2305
 5182TIP3    H137105   0.989   6.554   8.231  0.8312 -1.2277 -0.6472
 5182TIP3    H237106   1.101   6.583   8.133  1.3421  0.6168  0.4194
 5183TIP3   OH237107   5.269   2.851   7.652  0.0846 -0.0960  0.2725
 5183TIP3    H137108   5.222   2.924   7.691 -2.0024 -0.1927 -1.8550
 5183TIP3    H237109   5.352   2.889   7.623  0.6947  0.4753  2.5600
 5184TIP3   OH237110   6.206   5.115   0.772 -0.2368  0.3333 -0.3493
 5184TIP3    H137111   6.180   5.050   0.837  0.0040 -0.2094 -0.7901
 5184TIP3    H237112   6.287   5.081   0.735 -0.5280  0.4914 -1.1431
 5185TIP3   OH237113   1.466   3.474   2.091  0.6168 -0.9027  0.3538
 5185TIP3    H137114   1.519   3.550   2.117 -0.1511 -0.1717 -0.1815
 5185TIP3    H237115   1.377   3.498   2.116  0.0133 -0.6366 -1.9032
 5186TIP3   OH237116   2.523   0.338   6.765 -0.0972  0.0247  0.4024
 5186TIP3    H137117   2.553   0.283   6.692  0.0176 -0.7391  1.0143
 5186TIP3    H237118   2.437   0.303   6.787  0.6284 -0.9555  1.8192
 5187TIP3   OH237119   2.423   6.276   2.268 -0.6171 -0.3424  0.1322
 5187TIP3    H137120   2.440   6.185   2.295 -0.1651 -1.5130 -3.5203
 5187TIP3    H237121   2.508   6.307   2.235 -1.6083 -0.0519 -2.2969
 5188TIP3   OH237122   0.172   4.892   0.702  0.4889  0.2315  0.2344
 5188TIP3    H137123   0.131   4.807   0.722 -0.9668  1.2621  1.9566
 5188TIP3    H237124   0.101   4.944   0.665  0.7277  1.4170  1.3878
 5189TIP3   OH237125   2.310   3.048   6.401 -0.4633  0.2916  0.3996
 5189TIP3    H137126   2.243   3.030   6.467 -0.9564 -0.6107 -0.3237
 5189TIP3    H237127   2.343   2.962   6.375 -1.5198  0.4672 -1.7809
 5190TIP3   OH237128   1.831   4.189   1.464 -0.1330  0.2570 -0.6608
 5190TIP3    H137129   1.740   4.160   1.466 -0.0079 -0.0933  0.7604
 5190TIP3    H237130   1.833   4.258   1.398 -1.6086  0.8499 -0.1029
 5191TIP3   OH237131   4.123   3.778   0.394 -0.4631 -0.0730  0.6231
 5191TIP3    H137132   4.187   3.733   0.340  0.4252  0.3557  1.3023
 5191TIP3    H237133   4.073   3.832   0.333  0.7815  0.7034  0.2677
 5192TIP3   OH237134   6.082   3.438   0.429  0.0918  0.1336 -0.2380
 5192TIP3    H137135   6.093   3.508   0.365  0.3369 -1.2133 -1.7371
 5192TIP3    H237136   6.100   3.479   0.514 -2.9603  2.6631 -0.6410
 5193TIP3   OH237137   3.283   4.420   8.027  0.1853 -0.3615 -0.4550
 5193TIP3    H137138   3.288   4.456   7.939  1.2369 -0.9267 -0.6346
 5193TIP3    H237139   3.189   4.420   8.047  0.0762  1.7766 -0.7206
 5194TIP3   OH237140   1.564   3.930   1.022 -0.3976  0.2169 -0.3566
 5194TIP3    H137141   1.528   4.018   1.013 -1.3456 -0.1077  0.1379
 5194TIP3    H237142   1.507   3.887   1.086  1.4563 -0.0234  1.2262
 5195TIP3   OH237143   3.630   5.594   7.384 -0.0679  0.0127 -0.5415
 5195TIP3    H137144   3.564   5.637   7.330  0.6342  0.3322 -1.1609
 5195TIP3    H237145   3.703   5.655   7.387 -0.2254  0.1751  1.1092
 5196TIP3   OH237146   2.320   4.903   7.889  0.1224 -0.6525  0.0005
 5196TIP3    H137147   2.342   4.987   7.929  0.3111 -0.5075 -0.3965
 5196TIP3    H237148   2.256   4.925   7.822 -0.6463 -0.9719  0.6233
 5197TIP3   OH237149   5.989   1.936   1.417  0.6206 -0.1057  0.4863
 5197TIP3    H137150   6.027   2.020   1.393 -0.2843  0.8775  2.2775
 5197TIP3    H237151   5.927   1.916   1.348  0.6284  0.8518  0.1907
 5198TIP3   OH237152   5.353   2.105   8.491  0.0650 -0.1377  0.0287
 5198TIP3    H137153   5.420   2.135   8.431 -0.3746 -0.3310 -0.5723
 5198TIP3    H237154   5.317   2.185   8.530 -0.2000  0.0474 -0.5782
 5199TIP3   OH237155   2.034   0.435   7.490 -0.4045  0.2658 -0.4895
 5199TIP3    H137156   2.015   0.390   7.573  0.0903  1.7224  0.4654
 5199TIP3    H237157   2.002   0.524   7.504  1.0032  0.9350 -1.3257
 5200TIP3   OH237158   6.498   4.994   7.420 -0.1123 -0.0785 -0.0121
 5200TIP3    H137159   6.441   4.993   7.497  0.7604  0.0550  0.6450
 5200TIP3    H237160   6.584   4.968   7.453  0.2297 -0.2195 -0.9818
 5201TIP3   OH237161   5.776   0.677   1.175 -0.3619  0.4178  0.4264
 5201TIP3    H137162   5.718   0.682   1.251 -0.3308 -0.5057  0.5160
 5201TIP3    H237163   5.863   0.668   1.212 -0.3998 -0.5824  0.2802
 5202TIP3   OH237164   2.818   2.674   8.786  0.4223  0.1294  0.3820
 5202TIP3    H137165   2.893   2.726   8.815  1.7244 -0.2809 -1.9851
 5202TIP3    H237166   2.811   2.694   8.692 -1.0376 -1.5411  0.0902
 5203TIP3   OH237167   3.555   1.234   8.373 -0.6493 -0.3170 -0.2039
 5203TIP3    H137168   3.557   1.262   8.281 -0.1606 -0.2273 -0.1678
 5203TIP3    H237169   3.529   1.312   8.421  1.7658  0.4253  0.0104
 5204TIP3   OH237170   3.517   2.346   1.097 -0.4935  0.0094 -0.5936
 5204TIP3    H137171   3.426   2.328   1.119 -0.5411  0.9542  0.0019
 5204TIP3    H237172   3.528   2.440   1.111  1.0221 -0.3549  1.0670
 5205TIP3   OH237173   0.565   2.637   7.678  0.5269  0.2490 -0.3028
 5205TIP3    H137174   0.482   2.667   7.642 -0.1568 -1.4703 -0.2908
 5205TIP3    H237175   0.632   2.686   7.630 -0.4521  0.5270 -1.4312
 5206TIP3   OH237176   2.982   0.731   8.672  0.2799 -0.8915 -0.1615
 5206TIP3    H137177   3.008   0.822   8.658 -0.2732 -0.5913  0.6910
 5206TIP3    H237178   3.062   0.688   8.704  0.4630 -0.6279 -0.2631
 5207TIP3   OH237179   4.301   1.899   8.600  0.7507 -0.1180  0.2086
 5207TIP3    H137180   4.258   1.827   8.554 -0.7416  0.3265  0.8616
 5207TIP3    H237181   4.361   1.936   8.535  0.4735 -1.0307 -0.5861
 5208TIP3   OH237182   0.285   3.178   0.304 -0.6619  0.1562 -0.0873
 5208TIP3    H137183   0.206   3.226   0.276 -1.2018  0.5099  1.9314
 5208TIP3    H237184   0.349   3.247   0.323 -0.5655 -0.0383  0.2944
 5209TIP3   OH237185   4.845   0.067   7.760  0.2735  0.1373 -0.2662
 5209TIP3    H137186   4.876  -0.004   7.817 -0.4856 -1.2272 -1.4798
 5209TIP3    H237187   4.913   0.134   7.766  0.0868  0.1934  2.4427
 5210TIP3   OH237188   0.970   4.955   6.877 -0.0969 -1.0969  0.0977
 5210TIP3    H137189   0.877   4.936   6.867  0.0236 -0.8030 -2.0059
 5210TIP3    H237190   0.977   5.049   6.865  0.5271 -1.1966 -0.3832
 5211TIP3   OH237191   0.268   6.685   0.372  0.0151 -0.2009  0.3487
 5211TIP3    H137192   0.228   6.623   0.434 -1.9207  2.0617  1.5041
 5211TIP3    H237193   0.225   6.667   0.289  1.5808 -2.2743 -0.1078
 5212TIP3   OH237194   3.533   1.789   8.792  0.1906 -0.3292  0.2866
 5212TIP3    H137195   3.508   1.792   8.884  1.4230 -0.6532  0.6503
 5212TIP3    H237196   3.613   1.842   8.788 -0.4968  0.6941 -0.8321
 5213TIP3   OH237197   0.972   4.213   8.199  0.4742  0.4144  0.2093
 5213TIP3    H137198   0.909   4.162   8.148  0.6377  0.9817 -0.5746
 5213TIP3    H237199   1.031   4.251   8.134  2.1516 -0.7483  0.9469
 5214TIP3   OH237200   5.133   1.956   7.729  0.8199 -0.2389  0.3116
 5214TIP3    H137201   5.151   1.882   7.788 -1.0527 -1.0784 -0.0848
 5214TIP3    H237202   5.155   2.033   7.780 -3.3130 -0.7271  3.3840
 5215TIP3   OH237203   2.886   5.979   1.828  0.1338 -0.2887 -0.5117
 5215TIP3    H137204   2.918   6.029   1.753  0.0805  0.2812 -0.1582
 5215TIP3    H237205   2.795   6.006   1.838  0.7926  1.5887  1.2989
 5216TIP3   OH237206   1.521   1.484   1.107  0.0266 -0.2322 -0.5120
 5216TIP3    H137207   1.505   1.578   1.103  0.5955 -0.1406 -0.5999
 5216TIP3    H237208   1.445   1.450   1.156  0.8130  0.5247  1.3436
 5217TIP3   OH237209   2.326   2.284   0.690  0.3267 -0.2230 -0.0686
 5217TIP3    H137210   2.237   2.314   0.708  0.5455  0.5410 -0.2045
 5217TIP3    H237211   2.359   2.345   0.624  1.3504  0.2536  0.8310
 5218TIP3   OH237212   3.234   5.427   0.960  0.0419 -0.5711  0.3771
 5218TIP3    H137213   3.183   5.459   1.035 -0.7794 -0.9614 -0.0038
 5218TIP3    H237214   3.303   5.493   0.949  0.1406 -0.4784  1.4309
 5219TIP3   OH237215   4.946   4.383   8.544 -0.1605 -0.3665  0.5819
 5219TIP3    H137216   4.882   4.314   8.560 -0.2584  0.0044  1.8788
 5219TIP3    H237217   5.031   4.338   8.550 -0.2507 -0.5947  0.2154
 5220TIP3   OH237218   5.412   5.873   8.155  0.2654  0.4635 -0.4787
 5220TIP3    H137219   5.485   5.818   8.124 -0.2006 -0.5226  0.1102
 5220TIP3    H237220   5.359   5.888   8.077 -1.1519 -2.3961 -0.1903
 5221TIP3   OH237221   1.205   4.287   8.047 -0.1040 -0.1170 -0.2817
 5221TIP3    H137222   1.288   4.306   8.091 -0.2795 -1.2627  0.6198
 5221TIP3    H237223   1.230   4.243   7.966  0.1796 -0.2498 -0.1241
 5222TIP3   OH237224   5.684   5.977   8.047 -0.2134 -0.3158 -0.1127
 5222TIP3    H137225   5.697   5.918   8.121 -1.4563 -1.0738 -0.4720
 5222TIP3    H237226   5.630   6.048   8.081 -1.2303 -0.9352 -0.4027
 5223TIP3   OH237227   2.898   5.796   1.591  0.5119 -0.1348  0.5332
 5223TIP3    H137228   2.841   5.846   1.533  0.1803 -0.4665  0.5708
 5223TIP3    H237229   2.925   5.858   1.659 -2.5656 -0.7889  2.5247
 5224TIP3   OH237230   1.722   2.225   0.622 -0.1440 -0.4706  0.6343
 5224TIP3    H137231   1.710   2.234   0.716  0.0091 -2.5550  0.9123
 5224TIP3    H237232   1.657   2.159   0.596 -0.6019  0.5062 -0.8486
 5225TIP3   OH237233   5.760   4.683   0.601  0.0433 -0.4332  0.2989
 5225TIP3    H137234   5.819   4.618   0.639  0.9016  0.2316  0.1394
 5225TIP3    H237235   5.804   4.767   0.617 -0.8835  0.0771  0.2103
 5226TIP3   OH237236   6.184   0.337   7.400 -0.1248  0.6588  0.0924
 5226TIP3    H137237   6.175   0.352   7.306 -1.8502  2.6791  0.4967
 5226TIP3    H237238   6.138   0.255   7.416  0.4041  0.1624 -0.8385
 5227TIP3   OH237239   6.098   3.703   0.319 -0.0117  0.0655 -0.2472
 5227TIP3    H137240   6.077   3.681   0.229  0.0791 -1.4412  0.0753
 5227TIP3    H237241   6.078   3.796   0.326  0.5753  0.3610 -1.9803
 5228TIP3   OH237242   5.634   3.573   0.839 -0.6567  0.5518  1.0462
 5228TIP3    H137243   5.662   3.650   0.890 -0.5298  2.1869 -1.3560
 5228TIP3    H237244   5.714   3.522   0.828 -0.7676 -0.0577  2.7868
 5229TIP3   OH237245   5.256   0.684   8.456 -0.7271 -0.1464  0.1721
 5229TIP3    H137246   5.254   0.623   8.383  0.0021  0.3199 -0.2491
 5229TIP3    H237247   5.290   0.633   8.530 -0.2903 -0.2989 -0.1313
 5230TIP3   OH237248   0.230   0.338   8.601 -0.0000  0.1024  0.0705
 5230TIP3    H137249   0.155   0.375   8.648 -0.4348 -1.0871  0.3484
 5230TIP3    H237250   0.291   0.312   8.670 -0.2751 -0.8771 -0.0327
 5231TIP3   OH237251   1.510   4.993   7.134 -0.4171 -0.6088 -0.4979
 5231TIP3    H137252   1.518   5.050   7.210 -1.2604  0.4534 -1.1732
 5231TIP3    H237253   1.599   4.964   7.115 -0.1252 -0.3980  0.5138
 5232TIP3   OH237254   5.797   2.415   1.462 -0.2611  0.2117  0.9609
 5232TIP3    H137255   5.758   2.497   1.492 -2.4713 -0.8560  1.1579
 5232TIP3    H237256   5.809   2.427   1.368  0.0720  0.9922  1.0942
 5233TIP3   OH237257   3.757   4.195   8.629  0.5652 -0.5030  0.7589
 5233TIP3    H137258   3.730   4.287   8.632  0.2300 -0.6088  1.0531
 5233TIP3    H237259   3.686   4.148   8.673  0.9620 -0.8509  1.0320
 5234TIP3   OH237260   2.462   3.758   6.964 -0.2991 -0.1257 -0.3735
 5234TIP3    H137261   2.544   3.786   6.923 -0.0683  0.8424  0.7080
 5234TIP3    H237262   2.489   3.706   7.040 -0.7240 -1.6023 -1.1893
 5235TIP3   OH237263   1.334   6.665   8.456  0.6263  0.2690  0.2182
 5235TIP3    H137264   1.348   6.735   8.520  1.8150  0.7333 -0.5102
 5235TIP3    H237265   1.416   6.615   8.457  0.3128 -0.2688 -0.2855
 5236TIP3   OH237266   4.524   1.716   1.770 -0.6890 -0.1603  0.2095
 5236TIP3    H137267   4.498   1.755   1.686 -2.1303 -1.5029 -0.0066
 5236TIP3    H237268   4.510   1.786   1.834 -1.2226  0.3487 -0.4407
 5237TIP3   OH237269   4.106   3.920   7.842  0.1949 -0.0616 -0.3873
 5237TIP3    H137270   4.189   3.967   7.847  1.3098 -1.9378 -0.2779
 5237TIP3    H237271   4.083   3.921   7.749  0.7995 -0.2698 -0.5431
 5238TIP3   OH237272   1.456   3.078   8.415  0.3062  0.3076 -0.0919
 5238TIP3    H137273   1.481   2.989   8.391 -1.5320  0.2503 -2.0490
 5238TIP3    H237274   1.383   3.099   8.358 -1.2859  2.0134  2.3734
 5239TIP3   OH237275   4.606   3.031   0.949  0.6793 -0.4486 -0.0970
 5239TIP3    H137276   4.566   3.025   1.036 -0.7521 -0.3022 -0.7209
 5239TIP3    H237277   4.533   3.019   0.888  1.3971  0.9669 -1.2884
 5240TIP3   OH237278   3.811   0.590   0.008 -0.0470 -0.2684 -0.3256
 5240TIP3    H137279   3.752   0.515   0.007 -0.7302  0.2533  0.1001
 5240TIP3    H237280   3.814   0.617   0.100  0.8111 -0.2478 -0.3462
 5241TIP3   OH237281   1.191   1.331   0.906 -0.4391  0.1932 -0.0530
 5241TIP3    H137282   1.228   1.313   0.819 -1.1157 -0.3008 -0.2492
 5241TIP3    H237283   1.234   1.268   0.963  1.2090  1.5835  0.2959
 5242TIP3   OH237284   3.029   0.340   6.716  0.4943 -0.4526 -0.3994
 5242TIP3    H137285   3.043   0.255   6.675  2.2579 -0.3027 -0.1909
 5242TIP3    H237286   3.065   0.403   6.653  0.6775  0.0007  0.1550
 5243TIP3   OH237287   1.627   3.934   7.181  0.0273 -0.5076 -0.4249
 5243TIP3    H137288   1.623   3.947   7.275 -0.1263 -2.1363 -0.1809
 5243TIP3    H237289   1.565   3.997   7.145 -0.1664 -0.1096  0.5895
 5244TIP3   OH237290   6.072   6.167   1.931  0.1331  0.1190  0.3502
 5244TIP3    H137291   6.124   6.086   1.930 -0.5922 -0.3543  0.4557
 5244TIP3    H237292   6.101   6.213   2.010  0.7360  0.0876  0.1525
 5245TIP3   OH237293   0.274   0.394   6.997  0.6372  0.0363  0.0046
 5245TIP3    H137294   0.250   0.479   6.959  0.6407 -0.8739 -2.2182
 5245TIP3    H237295   0.198   0.368   7.048  1.6938  2.6011  3.2467
 5246TIP3   OH237296   2.851   2.953   7.567  0.2823 -0.2571  0.1597
 5246TIP3    H137297   2.848   2.867   7.524 -0.3797  0.5826 -1.5409
 5246TIP3    H237298   2.941   2.961   7.597  1.2482 -0.2521 -2.4769
 5247TIP3   OH237299   3.744   3.424   0.830 -0.0488 -0.0265 -0.1956
 5247TIP3    H137300   3.790   3.490   0.778 -1.4373  0.3852 -0.9295
 5247TIP3    H237301   3.742   3.461   0.918  1.0492 -0.0795 -0.1286
 5248TIP3   OH237302   5.752   5.860   8.309  0.0826 -0.4491  0.2326
 5248TIP3    H137303   5.773   5.780   8.260  0.4435 -0.2469  0.0492
 5248TIP3    H237304   5.733   5.829   8.397  0.0836 -0.7547  0.1286
 5249TIP3   OH237305   0.354   2.012   0.613  0.0916  0.0166  0.1364
 5249TIP3    H137306   0.350   1.916   0.607  1.1754  0.0393 -1.7504
 5249TIP3    H237307   0.353   2.030   0.707  0.5218 -1.8774  0.5560
 5250TIP3   OH237308   3.021   6.410   8.444  0.5000  0.4552  0.1070
 5250TIP3    H137309   3.000   6.445   8.531 -0.8661 -1.3516  0.5768
 5250TIP3    H237310   2.947   6.435   8.389  0.6308  0.2922 -0.1454
 5251TIP3   OH237311   1.280   1.390   7.800 -0.0051  0.2424 -0.3095
 5251TIP3    H137312   1.343   1.335   7.847 -0.0358  1.7340  1.5596
 5251TIP3    H237313   1.329   1.424   7.725  0.6369 -0.5857 -0.2851
 5252TIP3   OH237314   2.271   0.750   0.064  0.1576 -0.6599  0.0729
 5252TIP3    H137315   2.362   0.778   0.067  0.2996 -0.9443 -1.1555
 5252TIP3    H237316   2.251   0.744  -0.029 -1.6691  1.1714  0.2730
 5253TIP3   OH237317   2.669   4.971   1.933 -0.3621 -0.5125  0.1166
 5253TIP3    H137318   2.690   5.057   1.968 -2.4581  1.7246 -3.5170
 5253TIP3    H237319   2.607   4.934   1.996 -0.2905  1.0936  1.1964
 5254TIP3   OH237320   3.645   4.546   0.102  0.5846 -0.0623 -1.1595
 5254TIP3    H137321   3.606   4.460   0.111 -1.9732  0.8087 -2.8836
 5254TIP3    H237322   3.595   4.602   0.162  0.8578  0.6117 -1.5423
 5255TIP3   OH237323   4.595   2.734   0.142  0.3355  0.3133 -0.3828
 5255TIP3    H137324   4.628   2.697   0.223 -0.1782 -1.3254 -0.8734
 5255TIP3    H237325   4.533   2.801   0.170  0.5690  0.1433  0.5774
 5256TIP3   OH237326   0.238   0.479   1.211 -0.6517 -0.1865 -0.3452
 5256TIP3    H137327   0.302   0.531   1.162  0.6443 -0.0537  1.4094
 5256TIP3    H237328   0.187   0.543   1.260  0.9673 -0.4703  1.8463
 5257TIP3   OH237329   5.453   0.305   0.117 -0.3557 -0.3123  0.6540
 5257TIP3    H137330   5.475   0.388   0.159 -1.3157 -0.1392  0.8305
 5257TIP3    H237331   5.380   0.270   0.168  0.0459 -1.2718  0.5875
 5258TIP3   OH237332   1.138   2.476   7.096  0.1433  0.5149  0.1138
 5258TIP3    H137333   1.162   2.562   7.060 -0.8990  1.4799  1.6089
 5258TIP3    H237334   1.136   2.490   7.191  1.9626 -1.7165  0.5642
 5259TIP3   OH237335   2.917   2.358   2.578  0.2768  0.3816  0.1981
 5259TIP3    H137336   2.895   2.401   2.496 -1.2505  0.8869  0.8383
 5259TIP3    H237337   2.973   2.284   2.553  0.9490  1.3131 -1.1463
 5260TIP3   OH237338   6.629   1.436   1.882  0.0709  0.4730  0.4576
 5260TIP3    H137339   6.557   1.378   1.857  0.2057 -0.2279  1.6004
 5260TIP3    H237340   6.587   1.508   1.928  0.0127  0.5771  0.2403
 5261TIP3   OH237341   0.460   0.484   6.571  0.5070 -0.1532  0.4324
 5261TIP3    H137342   0.429   0.394   6.581  1.0946 -0.4424 -0.2383
 5261TIP3    H237343   0.444   0.505   6.479 -1.3545  1.1102  0.9907
 5262TIP3   OH237344   3.757   1.317   8.678  0.1877  0.1943  0.2337
 5262TIP3    H137345   3.762   1.232   8.721  0.2988  0.0676 -0.0258
 5262TIP3    H237346   3.703   1.370   8.736  1.6144  0.5184  1.3078
 5263TIP3   OH237347   0.367   3.008   1.616  0.3187  0.1897 -0.3116
 5263TIP3    H137348   0.305   2.988   1.545  0.3889  0.9504 -0.5973
 5263TIP3    H237349   0.444   3.042   1.572  1.5853 -2.1508 -0.0672
 5264TIP3   OH237350   3.517   1.938   7.842 -0.6285 -0.5755  0.6975
 5264TIP3    H137351   3.517   1.985   7.926  1.5624 -3.0060  2.2158
 5264TIP3    H237352   3.609   1.918   7.825 -1.3402 -4.4010  0.3610
 5265TIP3   OH237353   1.051   0.259   1.608 -0.4192 -0.7094 -0.1596
 5265TIP3    H137354   1.014   0.315   1.676 -1.9175 -2.2545  0.3480
 5265TIP3    H237355   0.975   0.218   1.566  0.6047 -2.0260 -0.8086
 5266TIP3   OH237356   2.195   4.552   0.598  0.4433 -0.3894  0.7328
 5266TIP3    H137357   2.258   4.593   0.539 -0.1427  0.6120  0.7889
 5266TIP3    H237358   2.191   4.610   0.674 -0.8474 -0.2119  0.5525
 5267TIP3   OH237359   6.520   1.437   1.105 -0.1572 -0.5695 -0.2241
 5267TIP3    H137360   6.512   1.501   1.035 -0.1242 -1.9221 -1.5135
 5267TIP3    H237361   6.540   1.489   1.183  2.6798  0.8104 -1.7217
 5268TIP3   OH237362   4.838   2.357   2.909  0.0425 -0.2645 -0.5368
 5268TIP3    H137363   4.860   2.265   2.923  0.6278 -0.1262 -0.5071
 5268TIP3    H237364   4.915   2.405   2.940 -0.3863  0.2517 -0.2537
 5269TIP3   OH237365   4.560   5.827   8.370 -0.1517  0.3109  0.4383
 5269TIP3    H137366   4.577   5.761   8.436 -1.9610 -1.2045 -0.5222
 5269TIP3    H237367   4.587   5.786   8.288 -1.1715  0.7991 -0.1591
 5270TIP3   OH237368   3.022   5.499   1.208  0.1875 -0.1787  0.4032
 5270TIP3    H137369   3.051   5.508   1.299  1.3410  0.3064  0.0064
 5270TIP3    H237370   2.941   5.551   1.203 -0.8378 -1.5766  1.5374
 5271TIP3   OH237371   6.429   3.418   0.457  0.5497  0.5535  0.1419
 5271TIP3    H137372   6.399   3.501   0.493 -0.1047  0.4181 -0.0807
 5271TIP3    H237373   6.454   3.438   0.367 -0.5514  0.3145 -0.2239
 5272TIP3   OH237374   5.571   2.090   2.056  0.0631  0.3462 -0.1184
 5272TIP3    H137375   5.542   2.019   2.113 -0.1146 -0.7576 -1.5018
 5272TIP3    H237376   5.559   2.170   2.107 -0.7137 -0.5309  1.1123
 5273TIP3   OH237377   3.047   0.175   1.077  0.5268 -0.1193 -0.0435
 5273TIP3    H137378   2.980   0.155   1.013  0.4311 -1.2399  0.3916
 5273TIP3    H237379   3.063   0.092   1.123 -0.0136  0.8099  1.9469
 5274TIP3   OH237380   4.700   0.998   0.826 -0.7072 -0.6069  0.4450
 5274TIP3    H137381   4.754   0.970   0.900 -0.7873 -0.2079  0.6582
 5274TIP3    H237382   4.639   1.062   0.864  0.7310  1.3573 -0.3794
 5275TIP3   OH237383   1.282   6.059   1.114 -0.0425 -0.1681 -0.3627
 5275TIP3    H137384   1.208   5.999   1.119  0.8530 -1.1879  1.3948
 5275TIP3    H237385   1.261   6.116   1.040 -1.7943 -1.4564 -0.9242
 5276TIP3   OH237386   1.878   4.876   8.388  0.1787  0.4414  0.0840
 5276TIP3    H137387   1.840   4.851   8.473 -0.0410 -1.4321 -0.5323
 5276TIP3    H237388   1.961   4.829   8.384  0.9881  1.8162 -0.0751
 5277TIP3   OH237389   2.539   4.682   1.553 -0.5229 -0.3036 -0.3662
 5277TIP3    H137390   2.478   4.608   1.555  0.1679 -0.8902 -0.2820
 5277TIP3    H237391   2.621   4.644   1.521  0.4966 -0.1005  1.7926
 5278TIP3   OH237392   4.785   6.472   2.474 -0.2314 -0.3159  0.2905
 5278TIP3    H137393   4.704   6.438   2.436 -0.7510 -0.6012  1.5997
 5278TIP3    H237394   4.790   6.563   2.444 -1.5434 -0.0062  0.9757
 5279TIP3   OH237395   4.248   4.051   0.732 -0.6703 -0.5378  0.0719
 5279TIP3    H137396   4.280   4.140   0.715 -2.2361  0.0771  0.1842
 5279TIP3    H237397   4.327   4.002   0.756  0.0012  1.2220  1.7096
 5280TIP3   OH237398   1.404   2.002   1.169 -0.3098 -0.4201 -0.5243
 5280TIP3    H137399   1.412   2.059   1.092 -0.0028 -1.7710 -1.5471
 5280TIP3    H237400   1.396   2.062   1.243 -1.1402  0.9279 -1.6569
 5281TIP3   OH237401   6.727   1.847   0.346  0.3652 -0.1073 -0.3545
 5281TIP3    H137402   6.737   1.782   0.277 -0.7725  1.0564 -1.6832
 5281TIP3    H237403   6.636   1.877   0.337  0.3823  0.5047  1.2670
 5282TIP3   OH237404   1.757   3.476   1.551 -0.2856  0.6591 -0.2040
 5282TIP3    H137405   1.711   3.421   1.614  1.8170 -0.7836  0.1545
 5282TIP3    H237406   1.756   3.425   1.470  1.5977  0.0436  0.1097
 5283TIP3   OH237407   1.857   5.642   8.693  0.3791 -0.3428 -0.0115
 5283TIP3    H137408   1.781   5.697   8.709  0.6039  0.1311 -0.5269
 5283TIP3    H237409   1.931   5.704   8.690  0.7795 -0.7887  0.4534
 5284TIP3   OH237410   5.069   5.329   8.835 -0.0893 -0.4792  0.4955
 5284TIP3    H137411   4.982   5.299   8.861  0.0333  1.1466  3.1623
 5284TIP3    H237412   5.124   5.252   8.844 -0.9859 -1.1839  0.1654
 5285TIP3   OH237413   0.444   3.712   1.568 -0.3586 -0.3026  0.1302
 5285TIP3    H137414   0.445   3.641   1.632  0.0181 -0.6797 -0.2866
 5285TIP3    H237415   0.482   3.787   1.614 -0.5554 -0.4279  0.5012
 5286TIP3   OH237416   3.927   1.439   8.265 -0.1780 -0.1262 -0.0360
 5286TIP3    H137417   3.953   1.531   8.262  1.5083 -0.5490  0.3641
 5286TIP3    H237418   3.990   1.394   8.208 -0.0978 -1.2076  0.8652
 5287TIP3   OH237419   1.281   0.876   8.609  0.5129  0.4301  0.3895
 5287TIP3    H137420   1.333   0.954   8.630  0.5309  0.7891 -0.9373
 5287TIP3    H237421   1.342   0.803   8.624  0.5010  0.6379  1.6218
 5288TIP3   OH237422   4.889   4.113   1.585  0.4290  0.3108 -0.2518
 5288TIP3    H137423   4.963   4.060   1.617 -0.6634 -0.1080  1.7545
 5288TIP3    H237424   4.844   4.141   1.665 -1.4152  0.8105 -1.4155
 5289TIP3   OH237425   1.566   5.376   7.782  0.0592  0.1227 -0.1537
 5289TIP3    H137426   1.478   5.355   7.814 -0.4680  1.4854 -0.6258
 5289TIP3    H237427   1.576   5.470   7.797  0.9862  0.2128 -1.1383
 5290TIP3   OH237428   5.024   0.829   7.515  0.2159  0.5564  0.2111
 5290TIP3    H137429   4.940   0.810   7.472  0.9995 -1.8516 -0.4078
 5290TIP3    H237430   5.002   0.893   7.583 -1.9603  0.6431 -0.4863
 5291TIP3   OH237431   3.507   6.276   7.991  0.0173  0.5769  0.7727
 5291TIP3    H137432   3.426   6.269   8.042 -0.4421 -1.5770 -0.1322
 5291TIP3    H237433   3.483   6.332   7.917 -0.7895 -0.3087  0.3362
 5292TIP3   OH237434   3.589   3.911   1.348 -0.3146  0.1308  0.0016
 5292TIP3    H137435   3.585   3.879   1.438  0.5300  0.4206  0.1531
 5292TIP3    H237436   3.665   3.970   1.347  0.6152 -1.0308 -1.2692
 5293TIP3   OH237437   4.977   0.869   8.700 -0.4517 -0.2124  0.0206
 5293TIP3    H137438   4.996   0.963   8.691 -1.9976  0.2977  1.4415
 5293TIP3    H237439   5.016   0.845   8.784 -1.5571 -0.3751  0.5132
 5294TIP3   OH237440   2.905   1.979   7.671 -0.0008  0.2392 -0.5868
 5294TIP3    H137441   2.904   1.908   7.607 -0.3797 -0.4309  0.1413
 5294TIP3    H237442   2.827   2.030   7.651 -0.8852 -0.7600  0.1706
 5295TIP3   OH237443   0.605   4.458   8.214  0.6086  0.1026  0.3339
 5295TIP3    H137444   0.573   4.381   8.167 -1.6100  0.6592  0.8000
 5295TIP3    H237445   0.568   4.450   8.302  0.3749  1.6230  0.4130
 5296TIP3   OH237446   3.935   2.553   1.633 -0.1793 -0.3785  0.0878
 5296TIP3    H137447   3.988   2.632   1.634 -0.8580  0.1272 -1.0108
 5296TIP3    H237448   3.845   2.586   1.629 -0.6336 -1.2021  2.4301
 5297TIP3   OH237449   2.941   1.620   0.655  0.1590  0.3802 -0.1572
 5297TIP3    H137450   2.863   1.639   0.708 -1.0767  0.0187 -1.7957
 5297TIP3    H237451   3.014   1.648   0.711 -1.1768  1.8143  0.9674
 5298TIP3   OH237452   0.172   3.382   8.729  0.0954  0.1310  0.1980
 5298TIP3    H137453   0.199   3.474   8.727 -1.2505  0.5358 -1.4305
 5298TIP3    H237454   0.079   3.383   8.708 -0.3945 -1.4939  1.9880
 5299TIP3   OH237455   0.498   1.243   1.424 -0.0707 -0.1100 -0.6929
 5299TIP3    H137456   0.578   1.292   1.446  1.6087 -2.0364 -2.1379
 5299TIP3    H237457   0.476   1.196   1.504  0.7768 -0.2602 -0.5383
 5300TIP3   OH237458   1.595   0.703   7.257  0.1350  0.0266  0.1312
 5300TIP3    H137459   1.515   0.684   7.305  0.1999 -0.4542  0.0576
 5300TIP3    H237460   1.664   0.696   7.323  0.0625  1.0138  0.3178
 5301TIP3   OH237461   2.885   2.034   0.249 -0.3336 -0.2476 -0.1241
 5301TIP3    H137462   2.879   1.954   0.197 -1.7141 -0.8059  0.8284
 5301TIP3    H237463   2.799   2.075   0.241 -0.2821  0.1189  0.9556
 5302TIP3   OH237464   3.678   1.006   1.595 -0.1818  0.4100 -0.0153
 5302TIP3    H137465   3.722   1.008   1.509  0.0936 -0.9209  0.0761
 5302TIP3    H237466   3.608   1.071   1.587 -0.5966 -0.1657 -1.4952
 5303TIP3   OH237467   0.678   0.638   6.004 -0.3038  0.2783  0.1934
 5303TIP3    H137468   0.737   0.617   5.932  0.8947  1.5906  0.7460
 5303TIP3    H237469   0.717   0.595   6.080  0.0354  1.2473  0.5834
 5304TIP3   OH237470   5.564   2.343   2.182  0.2609 -0.0751 -0.5423
 5304TIP3    H137471   5.537   2.400   2.254  0.3327 -0.2891 -0.3436
 5304TIP3    H237472   5.639   2.387   2.143  0.7064 -0.3302  0.0001
 5305TIP3   OH237473   1.813   3.121   1.233  0.1502  0.0275  0.3309
 5305TIP3    H137474   1.891   3.144   1.181 -0.7233  0.0297 -1.0118
 5305TIP3    H237475   1.796   3.029   1.211 -0.7432  0.2837 -0.0954
 5306TIP3   OH237476   5.847   6.166   2.191 -0.2238 -0.1761  0.4455
 5306TIP3    H137477   5.916   6.203   2.136 -2.8381  1.0200 -2.2976
 5306TIP3    H237478   5.856   6.212   2.274  1.4607  0.8667 -0.2535
 5307TIP3   OH237479   0.407   0.697   7.730  0.1478 -0.2204 -0.1372
 5307TIP3    H137480   0.453   0.640   7.668 -0.3624 -1.6710  0.7711
 5307TIP3    H237481   0.340   0.740   7.677 -0.1072 -1.2401 -0.6704
 5308TIP3   OH237482   6.590   6.129   7.817  0.4599 -0.3866 -0.3170
 5308TIP3    H137483   6.524   6.060   7.817  0.1432 -0.1672  1.8686
 5308TIP3    H237484   6.548   6.202   7.770 -0.8373 -0.3206  0.8700
 5309TIP3   OH237485   5.284   2.246   0.139  0.4159 -0.0930 -0.2506
 5309TIP3    H137486   5.237   2.292   0.208  1.5561  2.0534 -0.8349
 5309TIP3    H237487   5.376   2.266   0.155  0.7662 -0.2909 -1.8626
 5310TIP3   OH237488   5.104   5.634   1.245 -0.3742 -0.3242 -0.5112
 5310TIP3    H137489   5.116   5.572   1.318 -0.7606  1.3525  1.0624
 5310TIP3    H237490   5.188   5.679   1.238 -0.6621  0.2561 -0.3495
 5311TIP3   OH237491   3.239   5.332   2.162  0.0202  0.3355  0.2192
 5311TIP3    H137492   3.269   5.414   2.201  0.1802  0.2518  0.2761
 5311TIP3    H237493   3.150   5.320   2.196  0.0128  0.4640  0.2446
 5312TIP3   OH237494   2.441   4.455   7.528  0.4686  0.2034 -0.3242
 5312TIP3    H137495   2.386   4.382   7.500 -0.5201  0.8891 -0.1880
 5312TIP3    H237496   2.415   4.472   7.618 -0.9870  2.2204 -1.0673
 5313TIP3   OH237497   0.780   1.931   7.050  0.4790 -0.4670  0.2730
 5313TIP3    H137498   0.726   1.852   7.047 -0.5074  0.1958  0.1574
 5313TIP3    H237499   0.717   2.002   7.063  1.1836  0.4669 -1.2036
 5314TIP3   OH237500   4.885   0.992   0.418 -0.0454 -0.2247  0.4280
 5314TIP3    H137501   4.874   0.957   0.506 -0.9034  1.2706  0.9563
 5314TIP3    H237502   4.956   1.056   0.427 -0.1035 -0.1024  0.0258
 5315TIP3   OH237503   6.726   4.230   0.900 -0.2640  0.3070 -0.0217
 5315TIP3    H137504   6.722   4.140   0.931  3.4869 -0.6427 -1.8111
 5315TIP3    H237505   6.662   4.234   0.829 -0.8741 -0.7205  0.4462
 5316TIP3   OH237506   1.449   5.530   0.147  0.0916 -0.0095 -0.0701
 5316TIP3    H137507   1.422   5.500   0.233  0.4115  1.7724  0.7055
 5316TIP3    H237508   1.372   5.575   0.112 -0.0613 -0.7904 -0.7575
 5317TIP3   OH237509   4.556   2.332   2.986 -0.4359 -0.2798  0.5124
 5317TIP3    H137510   4.487   2.335   2.920 -0.5784  0.3139  0.6843
 5317TIP3    H237511   4.637   2.344   2.937 -0.5999  1.0389  0.5251
 5318TIP3   OH237512   1.892   1.371   0.934  0.0355  0.0222 -0.1793
 5318TIP3    H137513   1.852   1.417   0.860  2.1440 -0.5222 -1.7760
 5318TIP3    H237514   1.983   1.356   0.906 -0.0594 -3.5588  0.8876
 5319TIP3   OH237515   4.091   1.311   7.154  0.0523  0.4085 -0.0014
 5319TIP3    H137516   4.035   1.364   7.097 -0.5705 -1.6038 -1.3642
 5319TIP3    H237517   4.176   1.312   7.112 -0.2622 -0.6039 -0.6976
 5320TIP3   OH237518   5.615   4.372   1.021 -0.0031 -0.0015  0.3046
 5320TIP3    H137519   5.657   4.385   1.107 -0.5614  1.7198  0.3579
 5320TIP3    H237520   5.681   4.325   0.970  0.4040 -0.9242  1.6191
 5321TIP3   OH237521   5.332   0.358   1.709 -0.2536  0.0302 -0.1134
 5321TIP3    H137522   5.404   0.336   1.768  1.2677  3.1408 -0.5979
 5321TIP3    H237523   5.357   0.319   1.625 -0.2536 -0.7083  0.2163
 5322TIP3   OH237524   5.909   5.144   0.792 -0.9643  0.2722  0.0334
 5322TIP3    H137525   5.915   5.229   0.748 -0.9387  0.2680  0.0286
 5322TIP3    H237526   5.984   5.095   0.759 -0.8473  0.3303  0.2106
 5323TIP3   OH237527   3.454   4.959   7.647 -0.1910  0.1145 -0.0046
 5323TIP3    H137528   3.423   5.031   7.701  0.7609 -0.1595  0.9525
 5323TIP3    H237529   3.377   4.906   7.631 -0.4500 -0.0002  1.4308
 5324TIP3   OH237530   5.048   6.271   1.378  0.7159  0.3955  0.9146
 5324TIP3    H137531   5.083   6.186   1.350  0.6077  0.2093  1.3311
 5324TIP3    H237532   5.035   6.261   1.472 -1.2904  0.1632  0.6506
 5325TIP3   OH237533   4.827   1.151   2.584 -0.0032 -0.8610  0.7210
 5325TIP3    H137534   4.840   1.120   2.673  0.6126  0.5450  1.1533
 5325TIP3    H237535   4.886   1.097   2.531 -0.6756 -1.9832  1.0828
 5326TIP3   OH237536   6.424   5.514   0.398 -0.2262  0.1609 -0.4851
 5326TIP3    H137537   6.477   5.470   0.464  0.4332  0.0564 -1.0659
 5326TIP3    H237538   6.334   5.492   0.421  0.0779 -1.4425 -0.7003
 5327TIP3   OH237539   3.393   2.869   0.790  0.1112 -0.0351  0.2412
 5327TIP3    H137540   3.343   2.789   0.773  0.6087 -0.2378 -0.3087
 5327TIP3    H237541   3.465   2.840   0.846 -0.9544  0.4476  1.9413
 5328TIP3   OH237542   0.669   0.750   7.800  0.2020 -0.2683 -0.4846
 5328TIP3    H137543   0.575   0.759   7.812  0.2154  0.3951 -0.7892
 5328TIP3    H237544   0.707   0.790   7.879  0.2564  2.2481 -1.6808
 5329TIP3   OH237545   4.724   2.318   8.789  0.0259  0.1763  0.1407
 5329TIP3    H137546   4.687   2.348   8.872  0.9036  1.4088  0.1077
 5329TIP3    H237547   4.685   2.375   8.723  1.2724  0.9208  0.0131
 5330TIP3   OH237548   4.140   6.153   0.984 -0.5310  0.3270 -0.3473
 5330TIP3    H137549   4.194   6.130   1.059 -0.8383 -1.0744 -0.5330
 5330TIP3    H237550   4.189   6.121   0.908 -0.9314  0.3722 -0.6261
 5331TIP3   OH237551   1.606   4.164   7.399 -0.6071 -0.8164 -0.0563
 5331TIP3    H137552   1.516   4.138   7.415 -0.7848 -0.7694 -0.9504
 5331TIP3    H237553   1.607   4.259   7.416 -1.4262 -0.2326 -2.7863
 5332TIP3   OH237554   6.373   5.946   0.603  0.0746  0.2749 -0.7378
 5332TIP3    H137555   6.309   6.012   0.630 -0.9962  0.0098 -2.4209
 5332TIP3    H237556   6.335   5.863   0.633  1.6517  0.3823  1.8004
 5333TIP3   OH237557   5.100   5.007   1.945  0.4313 -0.0259 -0.1287
 5333TIP3    H137558   5.113   5.043   2.033  1.2071  0.1821 -0.3255
 5333TIP3    H237559   5.186   5.010   1.905  0.1737 -0.5606 -0.7376
 5334TIP3   OH237560   6.546   2.734   6.402 -0.1928 -0.0992 -0.1126
 5334TIP3    H137561   6.455   2.706   6.401 -0.8145  1.7825 -0.9776
 5334TIP3    H237562   6.593   2.663   6.446 -2.3184 -0.3621  1.9231
 5335TIP3   OH237563   1.985   0.888   2.023  0.0417 -0.1660 -0.5416
 5335TIP3    H137564   1.944   0.820   1.970 -1.6600 -1.0917  1.7885
 5335TIP3    H237565   1.913   0.945   2.050  0.9597  0.7297  0.1166
 5336TIP3   OH237566   4.722   4.580   0.939  0.0611 -0.0818  0.3217
 5336TIP3    H137567   4.691   4.661   0.899 -2.9531  0.1836  2.8098
 5336TIP3    H237568   4.682   4.511   0.886  0.6969  0.0825 -0.3919
 5337TIP3   OH237569   3.707   2.889   0.930  0.7438  0.9406 -0.1397
 5337TIP3    H137570   3.690   2.914   1.020 -1.1471  0.0935 -0.2221
 5337TIP3    H237571   3.724   2.972   0.885  0.0481  1.5340  0.6615
 5338TIP3   OH237572   6.267   6.211   1.305  0.1852  0.5643 -0.1136
 5338TIP3    H137573   6.183   6.201   1.350  0.4108  2.2488  0.7466
 5338TIP3    H237574   6.295   6.121   1.287 -1.8398 -0.0184 -0.5206
 5339TIP3   OH237575   2.953   5.394   0.148  0.4567 -0.4066 -0.1971
 5339TIP3    H137576   3.029   5.448   0.128  1.6135 -1.3435  1.4945
 5339TIP3    H237577   2.954   5.384   0.243 -1.7251 -0.5539 -0.1202
 5340TIP3   OH237578   4.149   3.904   8.708  0.3542  0.5494  0.2218
 5340TIP3    H137579   4.060   3.936   8.694  0.4118  0.2901 -0.7797
 5340TIP3    H237580   4.174   3.863   8.625  0.9592 -0.4624  0.8819
 5341TIP3   OH237581   4.101   4.872   0.028  0.1264 -0.1755 -0.0003
 5341TIP3    H137582   4.158   4.812   0.077  0.1528  0.1062  0.3184
 5341TIP3    H237583   4.129   4.862  -0.063 -0.4997 -1.3444 -0.0821
 5342TIP3   OH237584   3.956   0.070   2.139  0.1103  0.1978  0.0643
 5342TIP3    H137585   3.924   0.122   2.213 -1.3448 -0.8908  0.2320
 5342TIP3    H237586   3.978  -0.015   2.177 -0.1935 -0.2164 -0.6738
 5343TIP3   OH237587   5.533   3.278   8.305 -0.0439 -0.8293 -0.3602
 5343TIP3    H137588   5.554   3.290   8.398  2.3008 -1.3012 -0.7657
 5343TIP3    H237589   5.536   3.183   8.292  1.3251 -0.6857 -1.2418
 5344TIP3   OH237590   2.166   5.213   1.055  0.0913  0.4582 -0.0629
 5344TIP3    H137591   2.186   5.162   0.976  0.3830 -0.5440  0.6283
 5344TIP3    H237592   2.107   5.282   1.025 -0.3010 -0.2764 -1.0512
 5345TIP3   OH237593   3.937   5.129   8.157  0.7431 -0.4659 -0.4497
 5345TIP3    H137594   3.928   5.214   8.199 -1.2658 -1.0968  0.4843
 5345TIP3    H237595   4.013   5.139   8.099  1.1587  1.6276  0.3775
 5346TIP3   OH237596   2.113   3.480   0.537 -0.1711 -0.2855 -0.0656
 5346TIP3    H137597   2.188   3.440   0.581 -0.0235 -0.1596 -0.2056
 5346TIP3    H237598   2.136   3.480   0.444  0.0306  0.5642 -0.0182
 5347TIP3   OH237599   3.118   0.579   7.771 -0.0471  0.4556 -0.0313
 5347TIP3    H137600   3.108   0.523   7.847  1.4335 -0.9080 -0.7828
 5347TIP3    H237601   3.173   0.651   7.802  0.7156 -0.1951  0.1567
 5348TIP3   OH237602   0.033   1.377   8.097 -0.6711 -0.3614 -0.2720
 5348TIP3    H137603  -0.027   1.305   8.112 -0.8099 -0.1969 -0.0244
 5348TIP3    H237604   0.062   1.367   8.006  0.3271 -1.4770  0.1469
 5349TIP3   OH237605   1.301   3.708   2.311  0.8896 -0.4349  0.1353
 5349TIP3    H137606   1.259   3.648   2.249 -0.3584 -0.9165  1.3668
 5349TIP3    H237607   1.329   3.782   2.258  1.9700 -1.8350 -1.3528
 5350TIP3   OH237608   2.385   6.646   7.262  0.6791  0.4538 -0.0668
 5350TIP3    H137609   2.326   6.573   7.282 -1.1505  0.9949 -2.9517
 5350TIP3    H237610   2.438   6.656   7.341 -2.8593 -0.2594  2.6705
 5351TIP3   OH237611   0.956   5.688   8.289 -0.6370 -0.3074  0.4253
 5351TIP3    H137612   0.977   5.773   8.328 -0.9276  1.3276 -2.6304
 5351TIP3    H237613   0.867   5.670   8.318 -1.3659  1.5384 -0.4654
 5352TIP3   OH237614   4.523   2.610   7.389 -0.5110  0.4801 -0.6819
 5352TIP3    H137615   4.465   2.533   7.398 -0.0562  0.1774 -0.2675
 5352TIP3    H237616   4.568   2.596   7.306 -2.4434  1.7036 -1.9934
 5353TIP3   OH237617   3.805   0.684   8.472  0.1236  0.5584  0.0778
 5353TIP3    H137618   3.782   0.632   8.395 -0.8088  1.2545 -0.1251
 5353TIP3    H237619   3.751   0.648   8.542  2.4344 -1.4585  0.9804
 5354TIP3   OH237620   2.458   5.935   0.976  0.2139  0.4538  0.1286
 5354TIP3    H137621   2.489   5.847   0.959  1.6647  0.7591  1.0027
 5354TIP3    H237622   2.491   5.988   0.904 -0.9892  0.2424 -0.6063
 5355TIP3   OH237623   0.014   6.670   2.125  0.5622 -0.0308 -0.5401
 5355TIP3    H137624   0.001   6.681   2.220  5.1020  0.3626  0.2451
 5355TIP3    H237625   0.027   6.759   2.092 -0.2045 -0.2320 -1.4152
 5356TIP3   OH237626   0.055   1.046   8.018  0.2731  0.3882  0.3456
 5356TIP3    H137627   0.067   0.956   8.048  1.0663  0.7333  1.1130
 5356TIP3    H237628   0.069   1.041   7.923 -0.3728 -0.3978  0.2729
 5357TIP3   OH237629   4.915   0.955   1.080  0.7597  0.3687  0.0157
 5357TIP3    H137630   4.945   1.007   1.155 -0.1601  1.3639 -0.2747
 5357TIP3    H237631   4.994   0.941   1.028  1.0775  1.3273  0.2093
 5358TIP3   OH237632   4.786   5.916   7.741  0.1275  0.0662  0.3226
 5358TIP3    H137633   4.860   5.936   7.683  0.1248  1.4319  0.7435
 5358TIP3    H237634   4.709   5.922   7.685  0.1782  0.7696  0.3118
 5359TIP3   OH237635   0.992   4.364   2.316 -0.1391  0.3068  0.3152
 5359TIP3    H137636   0.905   4.325   2.321  0.1318 -0.4842 -0.6737
 5359TIP3    H237637   1.003   4.410   2.399 -1.7827  1.0331  0.1674
 5360TIP3   OH237638   6.748   0.420   0.909 -0.1901 -0.5338  0.3539
 5360TIP3    H137639   6.752   0.492   0.846 -0.0876 -1.1448 -0.3482
 5360TIP3    H237640   6.834   0.420   0.951  0.5612 -1.5088 -1.0927
 5361TIP3   OH237641   2.108   5.930   1.572  0.1404  0.4629 -0.2963
 5361TIP3    H137642   2.049   5.865   1.610  0.7235  0.1695  0.1086
 5361TIP3    H237643   2.104   6.004   1.633 -0.5313  0.8197 -0.7625
 5362TIP3   OH237644   3.901   6.347   2.245  0.0621  0.2681  0.0466
 5362TIP3    H137645   3.908   6.264   2.199  0.6942  0.6058 -0.4776
 5362TIP3    H237646   3.978   6.349   2.303 -0.9497 -0.3482  1.4611
 5363TIP3   OH237647   5.730   5.973   2.036  0.3817  0.4973  0.3282
 5363TIP3    H137648   5.737   5.896   2.093 -1.3088 -0.5610 -0.8198
 5363TIP3    H237649   5.759   6.045   2.091  0.6928 -0.7597  1.8991
 5364TIP3   OH237650   1.449   0.165   6.922  0.1438  0.8642 -0.6128
 5364TIP3    H137651   1.364   0.178   6.879  0.9771 -1.7115 -3.3553
 5364TIP3    H237652   1.501   0.114   6.859  2.7043 -0.2677  2.1506
 5365TIP3   OH237653   5.489   0.564   7.907 -0.2284  0.0419 -0.5252
 5365TIP3    H137654   5.413   0.510   7.930 -0.2314  0.0850 -0.4338
 5365TIP3    H237655   5.498   0.553   7.812  0.7349 -1.3796 -0.3070
 5366TIP3   OH237656   1.537   4.680   2.181  0.5644  0.4467  0.2218
 5366TIP3    H137657   1.566   4.758   2.228 -1.8036  1.0690  0.7915
 5366TIP3    H237658   1.458   4.652   2.227  0.1117 -0.9647 -1.3100
 5367TIP3   OH237659   0.125   0.365   6.570  0.3345  0.5884  0.4523
 5367TIP3    H137660   0.206   0.321   6.594 -0.2970 -0.5856  0.4772
 5367TIP3    H237661   0.154   0.446   6.526  1.4994  1.1262  2.1068
 5368TIP3   OH237662   4.847   5.260   0.053  0.2471  0.4172 -0.4427
 5368TIP3    H137663   4.759   5.283   0.022 -0.2199  1.0729  1.2431
 5368TIP3    H237664   4.869   5.328   0.116  2.1883  0.5166 -1.1509
 5369TIP3   OH237665   3.936   4.511   1.181  0.0820 -0.2783 -0.5385
 5369TIP3    H137666   3.922   4.573   1.109  1.5654  1.1092  0.2966
 5369TIP3    H237667   3.904   4.558   1.258 -0.2612 -1.2247 -0.0950
 5370TIP3   OH237668   1.748   5.531   0.099 -0.7663  0.5921  0.2881
 5370TIP3    H137669   1.768   5.623   0.083 -2.2314  1.0757  1.0352
 5370TIP3    H237670   1.659   5.520   0.065 -0.6228 -0.5473  0.2386
 5371TIP3   OH237671   2.489   5.652   0.556 -0.9510  0.2009  0.0111
 5371TIP3    H137672   2.426   5.582   0.543 -1.5967  1.2634 -3.6293
 5371TIP3    H237673   2.561   5.632   0.496  0.2081  1.1813  1.0216
 5372TIP3   OH237674   3.290   5.150   1.969  0.7006 -0.3584  0.1925
 5372TIP3    H137675   3.248   5.178   2.050  2.5559 -2.2103  1.9046
 5372TIP3    H237676   3.384   5.153   1.987  1.1231 -2.6707 -1.1698
 5373TIP3   OH237677   3.483   0.915   7.670  0.0075  0.2116 -0.1380
 5373TIP3    H137678   3.481   0.825   7.638 -1.1474  0.5689 -1.1468
 5373TIP3    H237679   3.567   0.949   7.639 -0.6552  0.2428 -2.0554
 5374TIP3   OH237680   3.099   1.009   1.417 -0.5510  0.3383  0.1588
 5374TIP3    H137681   3.142   0.947   1.358 -3.9095 -0.3116 -1.8751
 5374TIP3    H237682   3.164   1.076   1.434  2.0583 -1.8591 -0.5222
 5375TIP3   OH237683   5.815   2.693   8.206 -0.2572 -0.0061 -0.1784
 5375TIP3    H137684   5.851   2.674   8.120 -0.8728  1.4991 -0.7997
 5375TIP3    H237685   5.791   2.785   8.202  0.3474  0.2954  1.8402
 5376TIP3   OH237686   1.882   0.678   0.483  0.1741 -0.2167  0.0273
 5376TIP3    H137687   1.834   0.730   0.548 -0.6731 -1.5748  0.5296
 5376TIP3    H237688   1.936   0.742   0.437  1.2892  0.7085  2.4683
 5377TIP3   OH237689   5.711   0.741   0.487  0.4563 -0.0468  0.2187
 5377TIP3    H137690   5.793   0.708   0.452 -0.9671 -0.2964 -3.2685
 5377TIP3    H237691   5.705   0.831   0.455 -0.6624 -0.0671  0.3255
 5378TIP3   OH237692   1.987   1.141   0.323  0.0466 -0.5242 -0.3292
 5378TIP3    H137693   2.053   1.076   0.300 -2.2038 -2.5180 -1.5682
 5378TIP3    H237694   1.950   1.109   0.405  0.2665  0.3557  0.1346
 5379TIP3   OH237695   1.111   1.481   8.094 -0.0093  0.3338 -0.4377
 5379TIP3    H137696   1.100   1.404   8.038  0.1277  0.5888 -0.8164
 5379TIP3    H237697   1.084   1.555   8.039 -0.4161  0.5294  0.0149
 5380TIP3   OH237698   6.534   4.687   7.479 -0.3128  0.0407 -0.0077
 5380TIP3    H137699   6.456   4.710   7.529  1.1706 -0.2580  2.5916
 5380TIP3    H237700   6.534   4.591   7.478 -0.5334  0.0394 -0.9800
 5381TIP3   OH237701   0.404   1.120   1.676  0.2581  0.1490  0.2134
 5381TIP3    H137702   0.312   1.104   1.698  0.3890 -1.4087 -0.2968
 5381TIP3    H237703   0.447   1.131   1.761 -0.2713  0.1649  0.4869
 5382TIP3   OH237704   0.995   5.922   8.450  0.2583  0.4285 -0.1194
 5382TIP3    H137705   1.004   5.991   8.515  0.1745  0.2032  0.1353
 5382TIP3    H237706   1.077   5.925   8.401  1.2142 -0.7046  1.2968
 5383TIP3   OH237707   3.907   5.461   7.419 -0.0171  0.6734  0.7802
 5383TIP3    H137708   3.995   5.424   7.422 -0.8945 -1.6773 -0.0340
 5383TIP3    H237709   3.862   5.423   7.494 -1.6107 -2.0469 -1.3251
 5384TIP3   OH237710   5.401   0.017   8.465  0.4116  0.2965 -0.3094
 5384TIP3    H137711   5.388   0.110   8.446  1.8493  0.8532  1.0909
 5384TIP3    H237712   5.482   0.015   8.517  0.8422 -1.8299 -0.9626
 5385TIP3   OH237713   0.277   1.035   1.933 -0.4631  0.2874  0.0053
 5385TIP3    H137714   0.346   0.977   1.966  3.1217  2.6095 -2.6826
 5385TIP3    H237715   0.264   1.099   2.003  0.5689  0.1701  0.3250
 5386TIP3   OH237716   1.475   4.100   0.133 -0.2094 -0.2836  0.2932
 5386TIP3    H137717   1.522   4.017   0.137  1.4707  0.5629 -0.8725
 5386TIP3    H237718   1.486   4.139   0.220 -0.3087 -0.9051  0.5872
 5387TIP3   OH237719   0.093   6.217   0.043 -0.0326 -0.2819 -0.0887
 5387TIP3    H137720   0.113   6.125   0.059 -1.6874 -0.4781  1.1851
 5387TIP3    H237721   0.011   6.214  -0.007 -1.1195  0.4664  1.5603
 5388TIP3   OH237722   0.180   3.637   8.558  0.0826  0.4175  0.6680
 5388TIP3    H137723   0.099   3.686   8.544 -0.2436 -0.2335  0.2433
 5388TIP3    H237724   0.161   3.549   8.526  1.0102  0.3009  0.4078
 5389TIP3   OH237725   4.811   2.874   1.600 -0.6200 -0.1598 -0.1393
 5389TIP3    H137726   4.894   2.911   1.628 -1.0026  1.6167 -1.1675
 5389TIP3    H237727   4.766   2.851   1.682  0.7512 -0.9311  0.4274
 5390TIP3   OH237728   0.360   4.644   8.545 -1.1388 -0.1446 -0.4470
 5390TIP3    H137729   0.431   4.589   8.512  0.0903  1.0923  0.0343
 5390TIP3    H237730   0.283   4.587   8.545  0.0324 -1.7980 -0.1426
 5391TIP3   OH237731   6.482   5.647   8.237 -0.5009  0.0222 -0.2979
 5391TIP3    H137732   6.439   5.691   8.310  0.3474  1.5905 -0.6821
 5391TIP3    H237733   6.418   5.585   8.204 -0.8962 -0.7428  1.7830
 5392TIP3   OH237734   4.479   0.978   6.790 -0.3426 -0.2101  0.0230
 5392TIP3    H137735   4.529   1.051   6.753 -1.1507  0.0790 -0.5253
 5392TIP3    H237736   4.497   0.982   6.884  3.3381 -2.1598 -0.4385
 5393TIP3   OH237737   0.735   3.093   0.348  0.0585 -0.1145  0.8756
 5393TIP3    H137738   0.767   3.006   0.326  0.3080 -0.2468  1.7128
 5393TIP3    H237739   0.645   3.094   0.316 -0.3594 -1.1361  1.9256
 5394TIP3   OH237740   3.518   1.153   1.206 -0.1980 -0.5641  0.7555
 5394TIP3    H137741   3.458   1.122   1.139  0.0589 -1.5344  0.9622
 5394TIP3    H237742   3.530   1.246   1.187  2.4099 -1.3801 -2.5522
 5395TIP3   OH237743   3.935   4.142   8.441  0.0854  0.0176  0.1822
 5395TIP3    H137744   3.869   4.148   8.372 -0.5273 -0.2682  0.7305
 5395TIP3    H237745   3.886   4.156   8.522  0.6184 -0.6461  0.6297
 5396TIP3   OH237746   4.115   5.497   0.361  0.8273 -0.1709 -0.2019
 5396TIP3    H137747   4.072   5.468   0.442  0.1133 -1.0841 -0.8836
 5396TIP3    H237748   4.086   5.434   0.295  3.0237 -0.6847 -0.7627
 5397TIP3   OH237749   1.641   4.508   8.043 -0.5510 -0.1445 -0.3045
 5397TIP3    H137750   1.609   4.568   8.110  0.6391 -2.3443  2.4156
 5397TIP3    H237751   1.573   4.440   8.037  0.7109 -1.6082  1.0688
 5398TIP3   OH237752   6.228   5.166   8.396 -0.4767 -0.6010 -0.5822
 5398TIP3    H137753   6.272   5.089   8.360 -2.0735 -0.7316 -2.4294
 5398TIP3    H237754   6.135   5.143   8.394 -0.8330  0.6152  0.7866
 5399TIP3   OH237755   4.309   0.856   7.819 -0.3244  0.2643  0.1287
 5399TIP3    H137756   4.247   0.880   7.888 -1.1107  0.2763 -0.5643
 5399TIP3    H237757   4.264   0.787   7.770  0.4257 -0.0880 -0.0764
 5400TIP3   OH237758   1.944   5.111   7.735 -0.2671  0.4545  0.3639
 5400TIP3    H137759   1.937   5.203   7.710 -1.3720 -0.1495 -1.7410
 5400TIP3    H237760   2.036   5.089   7.724 -0.0672  1.1978  0.5171
 5401TIP3   OH237761   4.125   5.952   0.532 -0.6016 -0.2368  0.5964
 5401TIP3    H137762   4.049   5.918   0.485 -0.7099  0.3468  0.3334
 5401TIP3    H237763   4.196   5.948   0.468  0.3726 -3.5574  1.6993
 5402TIP3   OH237764   4.243   6.706   1.892  0.4197  0.0502  0.0152
 5402TIP3    H137765   4.197   6.682   1.811  0.8865  1.6594 -0.7656
 5402TIP3    H237766   4.178   6.695   1.961 -0.9792  1.6072 -0.9719
 5403TIP3   OH237767   3.783   1.859   7.817  0.3357  1.2323 -0.6414
 5403TIP3    H137768   3.823   1.887   7.735  0.8627 -1.2260 -1.3150
 5403TIP3    H237769   3.855   1.819   7.866 -0.5440 -0.0435 -0.3303
 5404TIP3   OH237770   3.455   5.121   1.346 -0.1914 -0.0165  0.5471
 5404TIP3    H137771   3.452   5.043   1.401 -1.2730 -0.0586  0.4412
 5404TIP3    H237772   3.544   5.120   1.309 -0.1790 -1.1753  0.5629
 5405TIP3   OH237773   3.274   2.353   2.715  0.0865 -0.2900  0.2495
 5405TIP3    H137774   3.287   2.420   2.647  2.1236 -0.4555  0.4149
 5405TIP3    H237775   3.179   2.351   2.728 -0.4659 -0.6409 -2.9852
 5406TIP3   OH237776   2.720   6.108   6.977 -0.0857  0.4456 -0.4630
 5406TIP3    H137777   2.772   6.186   6.956  1.3728 -1.2566 -4.0372
 5406TIP3    H237778   2.783   6.046   7.014 -1.0279  0.5209  1.3904
 5407TIP3   OH237779   1.479   1.206   0.465 -0.6311  0.1129 -0.0733
 5407TIP3    H137780   1.523   1.178   0.545 -0.1664  0.2254 -0.2911
 5407TIP3    H237781   1.549   1.232   0.406 -0.9282 -0.7750 -0.8342
 5408TIP3   OH237782   3.947   0.710   2.550 -0.3069 -0.4152  0.0846
 5408TIP3    H137783   3.879   0.664   2.601 -0.0197  1.8623  2.7657
 5408TIP3    H237784   4.028   0.664   2.571 -0.5302 -1.0350 -0.3801
 5409TIP3   OH237785   5.480   4.197   7.093  0.2931 -0.3003 -0.2411
 5409TIP3    H137786   5.434   4.114   7.110  0.9559 -0.4438  1.0087
 5409TIP3    H237787   5.438   4.259   7.153  0.8334 -0.1166 -0.0482
 5410TIP3   OH237788   5.180   4.725   0.456 -0.2177 -0.2574  0.0696
 5410TIP3    H137789   5.233   4.682   0.389 -1.4754  2.8432 -3.2422
 5410TIP3    H237790   5.236   4.794   0.491 -0.6541  0.3099 -0.3294
 5411TIP3   OH237791   3.935   3.600   7.894  0.4385 -0.1054 -0.5944
 5411TIP3    H137792   3.857   3.652   7.873  0.9585  0.9928  0.0806
 5411TIP3    H237793   4.001   3.665   7.920  2.1975 -0.8428 -2.9083
 5412TIP3   OH237794   3.792   1.977   1.623  0.5054 -0.1021 -0.2198
 5412TIP3    H137795   3.777   1.882   1.614  0.8949 -0.3272  1.2507
 5412TIP3    H237796   3.860   1.996   1.558  0.7537 -0.9235 -0.2197
 5413TIP3   OH237797   0.686   4.099   2.120 -0.1652 -0.0402 -0.6991
 5413TIP3    H137798   0.709   4.015   2.159 -1.1230 -0.1101 -0.2481
 5413TIP3    H237799   0.724   4.164   2.178  0.8378 -0.1477 -1.2123
 5414TIP3   OH237800   1.270   0.321   1.016 -0.3264 -0.2466 -0.1328
 5414TIP3    H137801   1.336   0.298   0.951  0.9604  0.4039  0.8989
 5414TIP3    H237802   1.320   0.346   1.094 -1.8080 -1.3670  1.2587
 5415TIP3   OH237803   0.789   4.679   8.623 -0.0316 -0.0129  0.4066
 5415TIP3    H137804   0.880   4.708   8.628 -0.8785  2.8014  1.4126
 5415TIP3    H237805   0.754   4.695   8.710 -1.1627 -2.4990  0.4974
 5416TIP3   OH237806   0.602   1.844   6.733 -0.3246  0.2720  0.1181
 5416TIP3    H137807   0.661   1.810   6.665  1.4843  0.9639  1.2797
 5416TIP3    H237808   0.518   1.804   6.713  0.4403 -0.5022 -1.8093
 5417TIP3   OH237809   0.212   4.276   0.973 -0.4717  0.2729 -0.3265
 5417TIP3    H137810   0.236   4.209   1.037 -0.8675 -0.1951 -0.6624
 5417TIP3    H237811   0.123   4.252   0.945 -0.5226  0.7979 -0.6293
 5418TIP3   OH237812   4.123   1.925   0.628  0.0773 -0.2566  0.0761
 5418TIP3    H137813   4.068   2.003   0.623  0.1396 -0.1859  0.4518
 5418TIP3    H237814   4.209   1.958   0.654  0.2226 -0.3999 -0.2153
 5419TIP3   OH237815   6.096   2.851   8.228 -0.6224 -0.4100  0.3715
 5419TIP3    H137816   6.140   2.866   8.311 -0.5066  1.5334 -0.0021
 5419TIP3    H237817   6.152   2.788   8.182 -0.0571 -0.5700  1.2661
 5420TIP3   OH237818   2.606   1.519   0.249  0.1973 -0.3694 -0.4531
 5420TIP3    H137819   2.630   1.518   0.342  1.5845  2.6609 -0.6510
 5420TIP3    H237820   2.682   1.482   0.204  0.8136  0.9027 -0.5097
 5421TIP3   OH237821   6.303   0.702   1.774  0.0307  0.3682  0.4740
 5421TIP3    H137822   6.240   0.633   1.794  0.6304  0.0073  1.1933
 5421TIP3    H237823   6.312   0.751   1.856 -1.0707  1.8912 -0.2769
 5422TIP3   OH237824   2.230   3.417   8.462  0.2210  0.1007  0.4777
 5422TIP3    H137825   2.219   3.322   8.468  0.5034  0.1184  1.6565
 5422TIP3    H237826   2.141   3.451   8.451 -0.2293 -0.1652  2.7903
 5423TIP3   OH237827   1.370   4.487   8.277  0.2509  0.1537  0.0072
 5423TIP3    H137828   1.326   4.556   8.228 -0.1423 -0.7992 -1.0071
 5423TIP3    H237829   1.304   4.454   8.337  0.4352  0.6389  0.4839
 5424TIP3   OH237830   2.993   3.523   7.548  0.2196  0.2030 -0.5788
 5424TIP3    H137831   3.079   3.564   7.535 -0.0550  1.1633  0.4804
 5424TIP3    H237832   3.003   3.434   7.514  1.8236  0.0985  0.0991
 5425TIP3   OH237833   5.825   5.231   8.627  0.1980 -0.4325  0.2239
 5425TIP3    H137834   5.817   5.137   8.638 -2.0885 -0.2175  0.8611
 5425TIP3    H237835   5.872   5.261   8.705  1.3987 -1.0677 -0.2343
 5426TIP3   OH237836   2.439   3.801   8.543 -0.0157 -0.1644  0.4625
 5426TIP3    H137837   2.429   3.864   8.472  0.8481  0.5113  0.9157
 5426TIP3    H237838   2.381   3.834   8.612 -2.3670 -1.8690 -0.5546
 5427TIP3   OH237839   4.423   6.567   1.384  0.3084  0.6870  0.0613
 5427TIP3    H137840   4.392   6.495   1.329  1.2331 -0.5799  1.1337
 5427TIP3    H237841   4.447   6.525   1.467  1.2649  2.1729  0.5764
 5428TIP3   OH237842   1.281   6.595   0.871  0.1726 -0.8337 -0.2728
 5428TIP3    H137843   1.372   6.624   0.858  0.3429 -0.5541  1.4054
 5428TIP3    H237844   1.288   6.522   0.932 -0.7037 -1.1750 -0.5688
 5429TIP3   OH237845   0.429   0.997   0.065  0.6287  0.1187  0.0584
 5429TIP3    H137846   0.355   0.990   0.125  1.2003  0.0762  0.7604
 5429TIP3    H237847   0.437   0.909   0.027  0.9012 -0.1224  0.6704
 5430TIP3   OH237848   3.845   6.334   6.930 -0.1384  0.1013 -0.3234
 5430TIP3    H137849   3.907   6.274   6.889  1.2813  0.4368  1.1895
 5430TIP3    H237850   3.895   6.373   7.002 -1.5989  1.6893 -0.1124
 5431TIP3   OH237851   4.094   0.347   1.124  0.0466 -0.3084 -0.5737
 5431TIP3    H137852   4.112   0.307   1.039 -0.9486  0.1069 -1.0004
 5431TIP3    H237853   4.043   0.282   1.172 -1.2795  0.2836 -1.1399
 5432TIP3   OH237854   6.216   3.337   7.668 -0.1475 -0.3441  0.2107
 5432TIP3    H137855   6.200   3.403   7.736  1.3091 -1.3274  1.5593
 5432TIP3    H237856   6.284   3.281   7.705  2.3883  0.3866 -2.9178
 5433TIP3   OH237857   0.196   4.071   0.685 -0.6571  0.1503 -0.3133
 5433TIP3    H137858   0.151   4.058   0.602  1.4023 -0.0983 -1.4682
 5433TIP3    H237859   0.215   3.983   0.716  2.8368  0.0644 -2.1426
 5434TIP3   OH237860   1.990   4.149   7.526  0.2179  0.6489  0.4563
 5434TIP3    H137861   2.084   4.134   7.519  0.0117 -0.1047 -1.1209
 5434TIP3    H237862   1.976   4.232   7.481 -0.0138  0.1483 -0.4141
 5435TIP3   OH237863   0.243   6.533   6.947 -0.6214  0.5381 -0.5862
 5435TIP3    H137864   0.303   6.588   6.896 -1.1605 -0.5547 -2.4897
 5435TIP3    H237865   0.174   6.508   6.885 -0.6111 -1.9491  0.3018
 5436TIP3   OH237866   4.146   2.334   2.553 -0.5996 -0.5686 -0.2350
 5436TIP3    H137867   4.194   2.406   2.511  0.7978 -1.2556  0.1336
 5436TIP3    H237868   4.178   2.256   2.508 -1.4495 -1.0427 -0.0261
 5437TIP3   OH237869   0.802   4.977   1.493  0.6133 -0.0359 -0.2571
 5437TIP3    H137870   0.833   4.888   1.509  1.4476  0.2408 -0.2874
 5437TIP3    H237871   0.752   4.971   1.411 -0.0360 -0.6291  0.1759
 5438TIP3   OH237872   6.135   2.448   1.867  0.2827  0.1869  0.3619
 5438TIP3    H137873   6.223   2.410   1.877  0.9745  1.2630 -1.2785
 5438TIP3    H237874   6.108   2.424   1.778 -2.1452 -2.1454  1.5955
 5439TIP3   OH237875   3.726   2.607   0.124 -0.0987 -0.1265  0.0889
 5439TIP3    H137876   3.795   2.585   0.186  1.1406 -0.2943 -1.3112
 5439TIP3    H237877   3.755   2.688   0.082  0.1217 -1.0956 -1.7282
 5440TIP3   OH237878   0.320   6.202   0.803  0.3260  0.3836  0.0880
 5440TIP3    H137879   0.258   6.198   0.730 -0.3216  1.5245  0.5499
 5440TIP3    H237880   0.298   6.283   0.849  0.5842 -0.4128  1.6797
 5441TIP3   OH237881   0.475   3.806   0.589 -0.1598  0.4891  0.1735
 5441TIP3    H137882   0.447   3.715   0.598 -0.1195  0.3033 -1.3449
 5441TIP3    H237883   0.461   3.827   0.496 -0.8015  2.2466  0.6168
 5442TIP3   OH237884   4.065   0.855   3.079  0.1216  0.6749  0.5488
 5442TIP3    H137885   3.974   0.869   3.055 -0.0865 -0.2059  0.7772
 5442TIP3    H237886   4.107   0.820   3.000  0.0681  0.3217  0.6737
 5443TIP3   OH237887   1.184   5.603   0.270 -0.9767  0.1091 -0.1116
 5443TIP3    H137888   1.220   5.625   0.356  2.5407 -0.2032 -1.3491
 5443TIP3    H237889   1.171   5.687   0.227  0.6268  0.2323 -0.4378
 5444TIP3   OH237890   2.403   5.191   1.453  0.1546 -0.2140  0.1279
 5444TIP3    H137891   2.471   5.154   1.396 -1.3708  0.7743 -2.4697
 5444TIP3    H237892   2.452   5.232   1.524  2.1357 -1.7685 -0.2454
 5445TIP3   OH237893   6.249   5.030   1.746  0.2048 -0.6247  0.1400
 5445TIP3    H137894   6.345   5.025   1.744  0.2854  0.5791 -0.3976
 5445TIP3    H237895   6.228   5.064   1.833  0.4584  1.4754 -0.5599
 5446TIP3   OH237896   0.709   4.110   1.383 -0.3964  0.4899  0.4638
 5446TIP3    H137897   0.767   4.186   1.384  1.7136 -0.9623 -1.0746
 5446TIP3    H237898   0.678   4.102   1.474  1.3469  1.7243  1.2303
 5447TIP3   OH237899   3.474   4.782   6.696 -0.1865 -1.1144 -0.2500
 5447TIP3    H137900   3.554   4.757   6.651  0.1846 -0.3050 -0.0520
 5447TIP3    H237901   3.502   4.805   6.785 -0.5337 -0.1895 -0.3722
 5448TIP3   OH237902   2.744   5.124   8.545  0.3616 -0.2439 -0.4686
 5448TIP3    H137903   2.702   5.043   8.573  3.9576 -1.6852  1.3456
 5448TIP3    H237904   2.797   5.151   8.620  1.9835  1.8933 -2.2495
 5449TIP3   OH237905   1.470   3.182   0.788  0.8708  0.5337 -0.2069
 5449TIP3    H137906   1.436   3.097   0.759 -0.0692  1.3936 -1.7881
 5449TIP3    H237907   1.550   3.161   0.836  2.0371 -1.1355 -2.6549
 5450TIP3   OH237908   5.066   4.374   7.669  0.0744  0.8055 -0.5625
 5450TIP3    H137909   5.125   4.447   7.688 -0.0599  0.5580  0.9575
 5450TIP3    H237910   4.978   4.410   7.683  0.0535 -0.2218  2.8003
 5451TIP3   OH237911   0.591   2.084   0.414  0.8015 -0.0836 -0.1682
 5451TIP3    H137912   0.532   2.080   0.490 -0.7583 -0.4156 -1.3446
 5451TIP3    H237913   0.574   2.169   0.375  0.0591 -0.6954 -1.2657
 5452TIP3   OH237914   5.455   4.223   7.987  0.1785 -0.3613 -0.3953
 5452TIP3    H137915   5.360   4.216   7.995  0.2473 -0.8699  0.0247
 5452TIP3    H237916   5.474   4.316   8.002 -0.0319 -0.6558  2.0763
 5453TIP3   OH237917   6.768   4.222   1.208  0.5639 -0.5192  0.0470
 5453TIP3    H137918   6.823   4.159   1.253  0.9164 -0.6004 -0.4891
 5453TIP3    H237919   6.735   4.176   1.130  0.4934 -0.1804 -0.1303
 5454TIP3   OH237920   0.810   2.163   0.906  0.5000 -0.0272 -0.2490
 5454TIP3    H137921   0.895   2.191   0.937  1.1318 -1.0965 -0.9450
 5454TIP3    H237922   0.829   2.099   0.837 -0.8334 -1.7006  0.8428
 5455TIP3   OH237923   2.512   5.859   8.013  0.4286 -0.0929  0.6072
 5455TIP3    H137924   2.499   5.799   8.087  0.4860 -0.5662  0.2346
 5455TIP3    H237925   2.600   5.839   7.981 -0.6521 -1.9561 -1.4381
 5456TIP3   OH237926   2.870   4.618   1.950  0.5305  0.0851  0.2261
 5456TIP3    H137927   2.908   4.706   1.951  1.9599 -0.4831 -0.8686
 5456TIP3    H237928   2.792   4.626   2.005  0.6152  2.0294  0.1603
 5457TIP3   OH237929   4.832   5.046   2.332 -0.5509 -0.4826 -0.6252
 5457TIP3    H137930   4.880   5.053   2.250 -0.3522 -0.4029 -0.5011
 5457TIP3    H237931   4.836   4.954   2.355  0.4843 -0.3023 -0.0452
 5458TIP3   OH237932   4.291   2.060   1.148 -0.2931 -0.2998  0.3972
 5458TIP3    H137933   4.359   2.020   1.093  0.4280  0.9999  0.3078
 5458TIP3    H237934   4.254   1.987   1.197  0.6854 -1.1361 -0.0673
 5459TIP3   OH237935   5.116   6.157   7.345 -0.1708 -0.4577 -0.0922
 5459TIP3    H137936   5.144   6.067   7.361 -1.7794 -0.8380  0.7290
 5459TIP3    H237937   5.055   6.151   7.272 -1.0249 -0.1702  0.5903
 5460TIP3   OH237938   2.716   3.087   1.386  0.0919 -0.2563  0.6650
 5460TIP3    H137939   2.695   3.088   1.293  0.6231  0.4209  0.5463
 5460TIP3    H237940   2.639   3.046   1.427 -0.1281 -0.5931 -0.0637
 5461TIP3   OH237941   1.905   2.769   7.737 -0.0083 -0.4496  0.1787
 5461TIP3    H137942   1.947   2.853   7.755 -1.0302 -0.0370  0.7176
 5461TIP3    H237943   1.936   2.745   7.650 -0.4054  0.9490 -0.3763
 5462TIP3   OH237944   2.273   0.978   2.587  0.4916 -0.0882  0.0056
 5462TIP3    H137945   2.300   0.888   2.602  1.0315 -0.2053 -1.4662
 5462TIP3    H237946   2.182   0.972   2.558  0.3029 -0.0937  0.5961
 5463TIP3   OH237947   2.889   1.277   8.865 -0.2573  0.0115 -0.0493
 5463TIP3    H137948   2.972   1.228   8.862 -0.0582  0.3859 -0.9205
 5463TIP3    H237949   2.914   1.368   8.850 -0.7066  0.3075  0.8765
 5464TIP3   OH237950   4.262   3.365   1.362 -0.0762  1.0724  0.0742
 5464TIP3    H137951   4.206   3.338   1.434  0.0945  0.9789  0.1732
 5464TIP3    H237952   4.343   3.316   1.376 -0.7637 -0.5970 -1.3620
 5465TIP3   OH237953   0.071   6.181   7.891  0.0262  0.0379 -1.5246
 5465TIP3    H137954   0.074   6.105   7.833 -1.2061 -1.3418  0.1018
 5465TIP3    H237955  -0.020   6.183   7.922  0.7461  0.3874  0.7243
 5466TIP3   OH237956   3.203   3.453   0.209  0.2849 -0.0400  0.4395
 5466TIP3    H137957   3.172   3.531   0.164 -0.7654 -0.3461  0.6103
 5466TIP3    H237958   3.156   3.381   0.167  0.6818 -0.5095  0.7916
 5467TIP3   OH237959   3.885   1.668   1.160 -0.1610 -0.6965 -0.0324
 5467TIP3    H137960   3.920   1.712   1.237 -1.4477 -0.1435  0.2765
 5467TIP3    H237961   3.849   1.586   1.193  0.5466 -1.1214 -0.2943
 5468TIP3   OH237962   6.200   2.049   7.639 -0.0964 -0.2543  0.0130
 5468TIP3    H137963   6.106   2.057   7.656  0.1226  0.4222  0.9388
 5468TIP3    H237964   6.215   2.100   7.560 -0.4842 -0.2817 -0.0804
 5469TIP3   OH237965   3.969   5.513   0.003  0.2769  0.2139 -0.0940
 5469TIP3    H137966   3.940   5.431   0.043 -1.9299  0.9737 -0.0029
 5469TIP3    H237967   3.975   5.492  -0.091 -2.4543  0.4195 -0.3965
 5470TIP3   OH237968   4.952   4.666   8.740 -0.0843  0.0655  0.3020
 5470TIP3    H137969   4.950   4.665   8.836 -1.3421 -0.2773  0.2876
 5470TIP3    H237970   4.871   4.623   8.714  0.7602 -0.8777 -0.9230
 5471TIP3   OH237971   3.666   2.120   2.921 -0.4518  0.0152 -0.1427
 5471TIP3    H137972   3.593   2.183   2.921  0.2880  0.8943 -0.8712
 5471TIP3    H237973   3.677   2.097   2.829  0.5400  0.3159 -0.1101
 5472TIP3   OH237974   2.851   5.033   2.655  0.1019 -0.3572 -0.8647
 5472TIP3    H137975   2.877   4.952   2.612  0.0394  0.0945 -1.7705
 5472TIP3    H237976   2.866   5.101   2.590 -2.4332  0.0547 -1.1382
 5473TIP3   OH237977   4.697   2.073   1.873  0.1632 -0.6539  0.1658
 5473TIP3    H137978   4.636   2.013   1.915 -0.1292 -0.0461  0.6290
 5473TIP3    H237979   4.643   2.128   1.816  0.1310  0.4235  1.1868
 5474TIP3   OH237980   5.857   5.014   8.794  0.0420  0.1737 -0.5868
 5474TIP3    H137981   5.896   5.003   8.881 -0.0439  0.8236 -0.4561
 5474TIP3    H237982   5.812   4.931   8.777 -0.3665  0.2170  0.2155
 5475TIP3   OH237983   0.817   2.881   1.404  0.3582  0.0566 -0.4598
 5475TIP3    H137984   0.813   2.785   1.401  0.9147  0.0190 -0.1840
 5475TIP3    H237985   0.911   2.900   1.411  0.1815  0.5771  0.6156
 5476TIP3   OH237986   6.485   5.448   6.508  0.2308  0.1350 -0.0302
 5476TIP3    H137987   6.512   5.472   6.596  0.5602  1.3058 -0.4359
 5476TIP3    H237988   6.561   5.466   6.453 -0.0102 -0.4729 -0.5799
 5477TIP3   OH237989   6.438   3.213   8.427  0.6230 -0.1217 -0.3236
 5477TIP3    H137990   6.468   3.153   8.358 -0.9522 -0.7771 -0.4728
 5477TIP3    H237991   6.471   3.299   8.399  0.9934 -0.5618 -1.2998
 5478TIP3   OH237992   3.074   2.956   6.608  0.7712 -0.4579 -0.2446
 5478TIP3    H137993   3.037   3.037   6.644  1.0083 -0.3418 -0.2570
 5478TIP3    H237994   3.152   2.985   6.560 -0.6456 -0.3328 -2.6151
 5479TIP3   OH237995   3.069   0.385   6.980 -0.2944 -0.9438 -0.0440
 5479TIP3    H137996   3.084   0.480   6.975  0.8201 -1.0960  0.1232
 5479TIP3    H237997   3.063   0.358   6.888 -0.5047 -0.7362 -0.0944
 5480TIP3   OH237998   3.044   3.005   1.919  0.0616  0.3188 -0.4258
 5480TIP3    H137999   3.081   3.087   1.953  1.8443 -0.0621 -1.3054
 5480TIP3    H238000   2.965   3.031   1.873  0.3133  1.4690 -0.2341
 5481TIP3   OH238001   5.261   2.161   1.236  0.0893  0.2889  0.5183
 5481TIP3    H138002   5.177   2.140   1.276  0.3866 -3.5330 -0.4294
 5481TIP3    H238003   5.324   2.156   1.308 -0.0781 -0.6167  0.6129
 5482TIP3   OH238004   1.723   5.282   1.969  0.2253 -0.2347 -0.1081
 5482TIP3    H138005   1.729   5.216   2.038  0.1937 -0.4038 -0.2675
 5482TIP3    H238006   1.667   5.351   2.006  1.2104  0.2594  0.5095
 5483TIP3   OH238007   4.498   1.902   1.568  0.0962 -0.4275  0.1673
 5483TIP3    H138008   4.411   1.864   1.579 -0.4247  0.7687  0.3452
 5483TIP3    H238009   4.487   1.971   1.503  0.8018  0.0678  0.5450
 5484TIP3   OH238010   1.667   5.357   8.046 -0.2857  0.4493  0.2562
 5484TIP3    H138011   1.661   5.341   7.952 -0.0555 -2.9894  0.7023
 5484TIP3    H238012   1.725   5.433   8.053 -2.2845  2.4368 -2.3674
 5485TIP3   OH238013   3.127   5.522   1.527 -0.2511 -0.6543 -0.2764
 5485TIP3    H138014   3.172   5.452   1.480  0.0219 -0.9003  0.3302
 5485TIP3    H238015   3.115   5.487   1.616  0.2207  0.2007  0.1390
 5486TIP3   OH238016   6.324   6.287   8.095 -0.5703  0.7425 -0.0975
 5486TIP3    H138017   6.288   6.366   8.053  0.8132  0.2422 -2.4738
 5486TIP3    H238018   6.418   6.303   8.097 -0.2320 -0.9403 -0.9092
 5487TIP3   OH238019   4.904   5.045   1.215 -0.0637  0.5144  0.4572
 5487TIP3    H138020   4.965   5.054   1.289  0.3648  0.2509  0.1423
 5487TIP3    H238021   4.920   4.957   1.182 -0.9297  0.2866  0.6343
 5488TIP3   OH238022   5.552   6.074   0.415 -0.2724  0.4898 -0.2773
 5488TIP3    H138023   5.590   6.070   0.327  0.0109  1.4360 -0.1995
 5488TIP3    H238024   5.620   6.112   0.470 -1.0836  1.6273 -0.0186
 5489TIP3   OH238025   0.255   3.851   1.085 -0.1493  0.3823 -0.2579
 5489TIP3    H138026   0.204   3.772   1.070 -1.1734  0.9395  0.1766
 5489TIP3    H238027   0.259   3.860   1.180 -0.0863  0.8808 -0.3017
 5490TIP3   OH238028   3.014   0.042   2.589  0.2406 -0.5488 -0.2018
 5490TIP3    H138029   3.001   0.126   2.632 -0.7493 -1.0350  0.4913
 5490TIP3    H238030   3.046  -0.016   2.658 -0.8227 -1.1928 -0.2229
 5491TIP3   OH238031   6.373   4.604   1.214 -0.0708  0.0309  0.5190
 5491TIP3    H138032   6.412   4.524   1.180 -0.6355 -0.1024  0.1750
 5491TIP3    H238033   6.445   4.668   1.214  0.7484 -0.8295  2.1076
 5492TIP3   OH238034   1.424   6.733   8.897 -0.3109  0.6772 -0.2202
 5492TIP3    H138035   1.373   6.764   8.822 -0.0251  0.3066 -0.5717
 5492TIP3    H238036   1.377   6.656   8.928  0.8836 -0.6826 -1.5756
 5493TIP3   OH238037   2.684   1.230   8.107 -0.0219  0.0846 -0.6478
 5493TIP3    H138038   2.765   1.249   8.060  1.5705  2.0280  2.5597
 5493TIP3    H238039   2.621   1.293   8.072  0.8884  0.9693 -0.7339
 5494TIP3   OH238040   5.583   4.752   8.893 -0.2762  0.2916 -0.2050
 5494TIP3    H138041   5.528   4.806   8.949  0.6440 -1.0612  2.1769
 5494TIP3    H238042   5.601   4.806   8.816 -1.8133  2.1718  0.6831
 5495TIP3   OH238043   4.101   5.728   0.691 -0.0937  0.0287 -0.6963
 5495TIP3    H138044   4.129   5.793   0.626  1.7732  0.4237  0.4418
 5495TIP3    H238045   4.180   5.678   0.711 -0.7298 -0.3847  0.9413
 5496TIP3   OH238046   5.660   5.399   8.507 -0.1500 -0.5053  0.3040
 5496TIP3    H138047   5.709   5.336   8.560  1.7570  0.3003 -0.4071
 5496TIP3    H238048   5.712   5.410   8.428 -1.7972 -0.0017 -0.7695
 5497TIP3   OH238049   3.401   0.523   0.579 -0.4394  0.0307 -0.2740
 5497TIP3    H138050   3.351   0.564   0.650  1.2621  0.7199  0.5679
 5497TIP3    H238051   3.476   0.482   0.622  0.7983  0.7164 -1.6920
 5498TIP3   OH238052   3.881   2.934   7.045 -0.3600 -0.3596  0.2128
 5498TIP3    H138053   3.970   2.907   7.023 -0.2185 -1.8470  2.3307
 5498TIP3    H238054   3.825   2.880   6.989  0.0173  0.8362 -1.3883
 5499TIP3   OH238055   5.030   4.071   8.036 -0.1929  0.0061 -0.0636
 5499TIP3    H138056   5.046   4.027   8.119 -2.5943  0.8808  0.9606
 5499TIP3    H238057   5.080   4.021   7.972 -0.5148 -2.4425  1.4726
 5500TIP3   OH238058   5.110   5.704   7.779  0.2467 -0.1049  0.0135
 5500TIP3    H138059   5.052   5.632   7.803 -0.3651  0.5843  0.6542
 5500TIP3    H238060   5.071   5.781   7.820  1.5331  0.4028  0.3237
 5501TIP3   OH238061   0.006   3.214   8.391  0.3159 -0.1601 -0.2381
 5501TIP3    H138062   0.067   3.282   8.361  0.0880  0.3280  0.3948
 5501TIP3    H238063   0.053   3.169   8.461  0.4943 -0.7204 -0.7030
 5502TIP3   OH238064   4.362   2.273   0.058 -0.2325  0.2605  0.2592
 5502TIP3    H138065   4.399   2.197   0.103  0.0087  0.2051 -0.0340
 5502TIP3    H238066   4.435   2.334   0.050 -0.1608  0.0857 -0.4592
 5503TIP3   OH238067   5.093   3.130   1.863  1.0182 -0.1034  0.3453
 5503TIP3    H138068   5.057   3.078   1.935  1.5314 -1.5454 -0.4171
 5503TIP3    H238069   5.017   3.152   1.809  1.0715 -2.1376 -0.6228
 5504TIP3   OH238070   4.557   0.190   8.796 -0.4166 -0.2185 -0.4430
 5504TIP3    H138071   4.491   0.173   8.863 -2.1875 -0.9913 -2.3097
 5504TIP3    H238072   4.582   0.104   8.763  0.9207  0.1157 -0.3885
 5505TIP3   OH238073   0.653   0.723   0.070 -0.3711 -0.3414  0.3935
 5505TIP3    H138074   0.616   0.675  -0.004 -0.7986  1.0085 -0.3179
 5505TIP3    H238075   0.675   0.809   0.034 -1.6946  0.7814  2.0741
 5506TIP3   OH238076   4.315   5.525   7.541  0.0734  0.3373 -0.1459
 5506TIP3    H138077   4.345   5.549   7.453  0.5663  0.1409 -0.0391
 5506TIP3    H238078   4.270   5.442   7.530  2.2175 -0.9270  0.1130
 5507TIP3   OH238079   4.533   6.651   0.054 -0.4688  0.3361 -0.0902
 5507TIP3    H138080   4.614   6.698   0.073 -0.8987  0.7028  0.8859
 5507TIP3    H238081   4.544   6.620  -0.036 -0.2473  2.4775 -0.8444
 5508TIP3   OH238082   6.427   0.930   6.955 -0.5897  0.1626 -0.3608
 5508TIP3    H138083   6.468   0.857   7.002 -0.2602 -0.6599 -1.8448
 5508TIP3    H238084   6.499   0.989   6.935 -0.1933 -0.8574 -2.2046
 5509TIP3   OH238085   3.755   6.299   8.742 -0.0606 -0.1352 -0.4428
 5509TIP3    H138086   3.684   6.243   8.710 -1.1696  0.2376  1.2273
 5509TIP3    H238087   3.813   6.240   8.790 -1.1821  0.0600  1.2398
 5510TIP3   OH238088   5.906   6.168   0.114 -0.1887  0.2462 -0.4171
 5510TIP3    H138089   5.961   6.171   0.036 -0.7337  0.6857 -0.7982
 5510TIP3    H238090   5.878   6.258   0.127 -2.9056 -0.2884 -1.7835
 5511TIP3   OH238091   4.524   6.302   7.052 -0.1346  0.0776  0.6795
 5511TIP3    H138092   4.462   6.233   7.029 -0.2286  0.9199 -2.0504
 5511TIP3    H238093   4.469   6.379   7.065  0.1779  0.3692  0.2980
 5512TIP3   OH238094   0.741   3.576   7.693  1.0995  0.2350 -0.2579
 5512TIP3    H138095   0.786   3.519   7.756 -2.3616 -1.7290  0.6764
 5512TIP3    H238096   0.734   3.660   7.737 -0.2621 -0.7839  1.6270
 5513TIP3   OH238097   6.593   5.920   8.192 -0.4758  0.0885  0.3461
 5513TIP3    H138098   6.557   5.832   8.200 -0.7978  0.2574  0.7364
 5513TIP3    H238099   6.676   5.916   8.240  1.0562 -0.8449 -2.1148
 5514TIP3   OH238100   4.343   3.252   8.722  0.0098  0.1513  0.2246
 5514TIP3    H138101   4.419   3.308   8.742  1.1454 -0.9263 -0.8855
 5514TIP3    H238102   4.369   3.203   8.644 -1.6948 -0.5449  0.0455
 5515TIP3   OH238103   2.242   3.825   1.355 -0.5244  0.3024  0.5787
 5515TIP3    H138104   2.202   3.742   1.382 -0.9470  0.0962 -0.5983
 5515TIP3    H238105   2.226   3.885   1.427 -1.2895 -0.3110  0.9302
 5516TIP3   OH238106   4.128   6.641   1.650 -0.0514 -0.2946  0.5008
 5516TIP3    H138107   4.165   6.703   1.588  1.7262 -0.1799  1.6055
 5516TIP3    H238108   4.126   6.558   1.603  1.4366 -0.2425  0.3144
 5517TIP3   OH238109   4.073   4.706   1.510 -0.1451  0.0168  0.1121
 5517TIP3    H138110   3.983   4.713   1.480 -0.5760 -2.0095  0.7971
 5517TIP3    H238111   4.067   4.709   1.606  0.5126 -0.0762  0.1660
 5518TIP3   OH238112   6.375   5.372   7.520 -0.1275  0.3036 -0.1309
 5518TIP3    H138113   6.296   5.422   7.500  0.8842  1.6981 -0.8666
 5518TIP3    H238114   6.387   5.315   7.444 -0.8762 -0.5581  0.3754
 5519TIP3   OH238115   0.626   3.131   6.358 -0.4820 -0.3851  0.2921
 5519TIP3    H138116   0.622   3.190   6.434  0.9367 -2.3783  2.0344
 5519TIP3    H238117   0.560   3.064   6.376 -1.1984 -0.0772 -1.0418
 5520TIP3   OH238118   1.467   5.173   1.396 -0.3471 -0.4446  0.4463
 5520TIP3    H138119   1.452   5.211   1.483 -4.2191 -0.5925  0.0102
 5520TIP3    H238120   1.480   5.249   1.339  1.6018 -0.3251  0.9813
 5521TIP3   OH238121   1.414   1.083   8.787  0.3215 -0.2789 -0.7666
 5521TIP3    H138122   1.508   1.079   8.806  0.2714  0.5657 -0.2837
 5521TIP3    H238123   1.376   1.125   8.864 -0.3994 -0.2352 -1.1401
 5522TIP3   OH238124   2.572   4.494   1.277 -0.0170 -0.6304  0.4287
 5522TIP3    H138125   2.646   4.531   1.326  0.8207 -1.6036 -0.0723
 5522TIP3    H238126   2.581   4.400   1.286 -0.5854 -0.7950 -0.5250
 5523TIP3   OH238127   3.274   0.859   1.249 -0.0365  0.3248 -0.3566
 5523TIP3    H138128   3.304   0.808   1.174  1.5095 -1.0245  1.1172
 5523TIP3    H238129   3.354   0.895   1.288 -0.6012 -0.4652  1.6483
 5524TIP3   OH238130   4.970   4.775   1.093 -0.0523  0.2610 -0.2578
 5524TIP3    H138131   4.960   4.728   1.010  1.5648  0.1262 -0.4136
 5524TIP3    H238132   5.038   4.726   1.140 -0.4119  0.7693  0.8401
 5525TIP3   OH238133   4.558   1.739   7.399  0.9037 -0.4829  0.0444
 5525TIP3    H138134   4.497   1.666   7.400  2.6229 -2.0015  1.0442
 5525TIP3    H238135   4.504   1.816   7.380 -1.5571 -1.5034  2.2809
 5526TIP3   OH238136   6.002   1.249   0.464 -0.2514 -0.1291  0.2995
 5526TIP3    H138137   5.986   1.274   0.555  0.8566  1.3376  0.1428
 5526TIP3    H238138   6.095   1.271   0.450  0.0182 -1.8027 -0.7321
 5527TIP3   OH238139   1.911   5.246   8.185  0.2726 -0.6554  0.0858
 5527TIP3    H138140   1.835   5.271   8.132 -0.3783 -2.5608  0.0437
 5527TIP3    H238141   1.986   5.283   8.138 -0.4106 -1.0800 -1.3960
 5528TIP3   OH238142   2.656   2.813   0.367  0.5817  0.5205 -0.4676
 5528TIP3    H138143   2.713   2.775   0.300  0.0440  1.5616 -1.5414
 5528TIP3    H238144   2.629   2.897   0.331 -0.6084  0.6151  0.5817
 5529TIP3   OH238145   3.424   3.426   7.144 -0.1561 -0.6106  0.4916
 5529TIP3    H138146   3.500   3.446   7.089  1.1066  0.3979  2.4721
 5529TIP3    H238147   3.382   3.511   7.158  1.0305 -0.3442  3.0508
 5530TIP3   OH238148   0.654   5.678   7.498 -0.1388 -0.4119  0.3363
 5530TIP3    H138149   0.586   5.740   7.469  0.6615  0.2686 -0.1218
 5530TIP3    H238150   0.677   5.629   7.419 -0.1455 -0.6921  0.5066
 5531TIP3   OH238151   4.628   1.622   2.408 -0.5706  0.3337  0.2925
 5531TIP3    H138152   4.548   1.649   2.363  0.4196  1.3801 -0.9183
 5531TIP3    H238153   4.678   1.703   2.419  1.8299 -0.6447 -2.0731
 5532TIP3   OH238154   6.284   4.226   0.246 -0.3177 -0.7399 -0.2018
 5532TIP3    H138155   6.353   4.168   0.213  0.4617 -0.2894  0.6038
 5532TIP3    H238156   6.275   4.293   0.178  1.1192  0.0624  0.3724
 5533TIP3   OH238157   3.506   3.697   1.203  0.0033 -0.5174 -0.1303
 5533TIP3    H138158   3.487   3.740   1.120  0.4975  2.2328  1.0617
 5533TIP3    H238159   3.549   3.765   1.256 -1.5844 -1.6677  2.8805
 5534TIP3   OH238160   3.060   3.094   1.588 -0.5807  0.1647  0.6268
 5534TIP3    H138161   3.044   3.160   1.521 -0.7399  1.4114  1.8329
 5534TIP3    H238162   2.974   3.053   1.602 -0.6295  0.1708  0.3560
 5535TIP3   OH238163   3.140   2.474   7.649 -0.1430  0.2112  0.0048
 5535TIP3    H138164   3.156   2.527   7.570 -0.3547  0.4709  0.1327
 5535TIP3    H238165   3.176   2.388   7.628  3.0124  1.1807  0.9014
 5536TIP3   OH238166   5.682   6.467   8.192  0.2069 -0.1011 -0.3493
 5536TIP3    H138167   5.682   6.556   8.159  0.2368 -0.0385 -0.1810
 5536TIP3    H238168   5.658   6.475   8.284 -0.7714 -0.3599 -0.5725
 5537TIP3   OH238169   3.170   6.173   7.197 -0.0279 -0.0181 -0.2240
 5537TIP3    H138170   3.123   6.190   7.115  0.2650  0.4782 -0.2900
 5537TIP3    H238171   3.153   6.250   7.250  0.0577 -0.1931  0.0588
 5538TIP3   OH238172   4.735   4.033   0.004  0.1989 -0.1333  0.8038
 5538TIP3    H138173   4.674   4.017   0.077  2.5243 -0.3413  2.8414
 5538TIP3    H238174   4.726   3.956  -0.052 -2.3436  0.4712  0.2680
 5539TIP3   OH238175   3.098   4.874   1.190  0.4110 -0.0382 -0.7852
 5539TIP3    H138176   3.158   4.948   1.174 -0.8125  1.3346  0.7426
 5539TIP3    H238177   3.134   4.803   1.136  3.2072  0.8156 -0.2167
 5540TIP3   OH238178   0.679   6.612   8.585  0.7088 -0.3724 -0.9812
 5540TIP3    H138179   0.657   6.675   8.654  2.4477 -0.3136 -0.4319
 5540TIP3    H238180   0.597   6.597   8.539 -0.2189  0.5869  0.2909
 5541TIP3   OH238181   0.558   6.699   8.122 -0.1595  0.4788  0.3467
 5541TIP3    H138182   0.628   6.757   8.150 -0.1230  0.9858 -0.7564
 5541TIP3    H238183   0.506   6.751   8.062 -1.1633 -0.0753  0.7199
 5542TIP3   OH238184   3.486   6.439   6.487 -0.6236  0.0834 -0.0675
 5542TIP3    H138185   3.576   6.406   6.478 -0.2653  0.5344  1.5700
 5542TIP3    H238186   3.432   6.361   6.486  0.0271 -0.4343  1.4844
 5543TIP3   OH238187   0.856   4.006   8.041  0.2692  0.3516 -0.4354
 5543TIP3    H138188   0.825   3.946   8.109  0.2698  0.5456 -0.2615
 5543TIP3    H238189   0.823   3.969   7.960 -0.0280  0.3040 -0.2960
 5544TIP3   OH238190   5.473   4.048   8.404 -0.2664  0.4601 -0.4960
 5544TIP3    H138191   5.547   4.016   8.456  1.2510  1.2138 -2.0979
 5544TIP3    H238192   5.438   4.121   8.455  0.6083  0.6129 -0.1039
 5545TIP3   OH238193   2.655   5.147   2.819 -0.4396 -0.2896 -0.3309
 5545TIP3    H138194   2.707   5.090   2.762  0.4082 -0.9043  1.0008
 5545TIP3    H238195   2.704   5.229   2.823 -0.6292 -0.1562 -0.6621
 5546TIP3   OH238196   2.466   2.657   8.750 -0.0807 -0.6696  0.7110
 5546TIP3    H138197   2.537   2.593   8.748 -0.1732 -0.7593 -0.1063
 5546TIP3    H238198   2.388   2.608   8.725 -0.0733 -0.1562 -0.3692
 5547TIP3   OH238199   0.632   5.843   1.058  0.1693 -0.1993  0.4752
 5547TIP3    H138200   0.581   5.766   1.083 -0.4527  1.1032  3.5779
 5547TIP3    H238201   0.570   5.916   1.066  1.2006  0.8532 -0.7263
 5548TIP3   OH238202   2.405   2.176   2.400 -0.2713 -0.5497 -0.5101
 5548TIP3    H138203   2.331   2.220   2.357 -0.6595 -1.3555 -0.6902
 5548TIP3    H238204   2.476   2.240   2.398 -2.0769  1.9663  3.4240
 5549TIP3   OH238205   1.753   2.952   0.137  0.4577  0.1356  0.6565
 5549TIP3    H138206   1.756   2.869   0.090  1.0620  0.9248 -0.7407
 5549TIP3    H238207   1.661   2.961   0.164  0.3635 -0.9089  0.7132
 5550TIP3   OH238208   5.810   3.269   6.583  0.2139  0.8336  0.1218
 5550TIP3    H138209   5.810   3.351   6.532  0.4002  0.6865 -0.1186
 5550TIP3    H238210   5.721   3.234   6.572  0.0014  1.2156  0.5766
 5551TIP3   OH238211   5.630   2.097   6.549 -0.0451  0.2503 -0.1324
 5551TIP3    H138212   5.617   2.027   6.485 -2.1923 -0.1254  0.6261
 5551TIP3    H238213   5.724   2.114   6.548  0.3940 -1.9378 -1.0780
 5552TIP3   OH238214   5.572   5.828   6.904 -0.0221 -0.2948 -0.2906
 5552TIP3    H138215   5.526   5.867   6.979  0.8912 -0.8995  0.6075
 5552TIP3    H238216   5.659   5.867   6.907  0.9171 -2.3339  0.6271
 5553TIP3   OH238217   3.724   5.567   8.558 -0.1264  0.6770 -0.2644
 5553TIP3    H138218   3.638   5.534   8.530 -0.7005 -0.7869  2.8453
 5553TIP3    H238219   3.704   5.649   8.605 -0.1889 -0.7201  2.3004
 5554TIP3   OH238220   2.499   3.187   8.552 -0.2862  0.3036  0.0506
 5554TIP3    H138221   2.523   3.276   8.578  2.2061  0.0479 -1.0976
 5554TIP3    H238222   2.570   3.132   8.585 -0.5545 -0.9229 -1.3128
 5555TIP3   OH238223   5.856   3.529   6.479  0.4459 -0.2886  0.0416
 5555TIP3    H138224   5.783   3.589   6.468  0.2736 -0.4176  0.4479
 5555TIP3    H238225   5.934   3.582   6.462  0.2474 -0.2445 -0.7638
 5556TIP3   OH238226   1.793   1.412   0.623 -0.1862  0.5764  0.5577
 5556TIP3    H138227   1.876   1.452   0.599  0.1878 -0.6303 -0.2777
 5556TIP3    H238228   1.727   1.465   0.578  0.1448  1.3646  0.9858
 5557TIP3   OH238229   0.911   6.475   0.675 -0.1454  0.2643 -0.2789
 5557TIP3    H138230   0.849   6.413   0.636  0.5565 -0.5306 -0.1483
 5557TIP3    H238231   0.864   6.511   0.750 -1.3272  1.4430 -1.5092
 5558TIP3   OH238232   2.052   6.001   0.005  0.0140 -0.1540 -0.0815
 5558TIP3    H138233   2.132   5.966   0.046 -1.2557 -0.0547  2.6989
 5558TIP3    H238234   2.053   6.094   0.026 -0.1772  0.1300 -1.2638
 5559TIP3   OH238235   2.648   5.933   6.766  0.3337 -0.1434  0.4179
 5559TIP3    H138236   2.718   5.881   6.726 -0.2730 -1.3592  0.8863
 5559TIP3    H238237   2.691   5.983   6.835  1.0333  0.4688 -0.4379
 5560TIP3   OH238238   2.930   0.506   1.748  0.1240  0.4819  0.4269
 5560TIP3    H138239   2.999   0.447   1.718 -0.4865 -0.6089  1.0810
 5560TIP3    H238240   2.976   0.574   1.797  0.7637 -0.0339  0.5628
 5561TIP3   OH238241   5.379   5.597   1.552 -0.7506 -0.1557  0.1330
 5561TIP3    H138242   5.413   5.666   1.495 -1.3368  0.7129  0.8072
 5561TIP3    H238243   5.414   5.618   1.639 -2.2599  0.2601  0.6635
 5562TIP3   OH238244   5.667   1.383   7.525 -0.2037 -0.4946 -0.1446
 5562TIP3    H138245   5.692   1.291   7.520 -0.3344 -0.5158 -0.4398
 5562TIP3    H238246   5.742   1.427   7.566  0.0980 -0.6400 -0.5313
 5563TIP3   OH238247   0.843   5.470   7.493 -0.0063 -0.3406 -0.0180
 5563TIP3    H138248   0.814   5.512   7.574  0.0765 -1.0444  0.3880
 5563TIP3    H238249   0.768   5.417   7.466  0.1553 -0.5259 -0.1049
 5564TIP3   OH238250   6.373   1.304   1.848 -0.2132  0.0228  0.4016
 5564TIP3    H138251   6.378   1.219   1.892 -0.6102 -1.0597 -1.5192
 5564TIP3    H238252   6.344   1.365   1.916 -2.3836 -1.8492  1.3021
 5565TIP3   OH238253   0.686   3.226   7.454 -0.3639 -0.0585  0.3351
 5565TIP3    H138254   0.703   3.145   7.406 -0.0866  0.2414 -0.0873
 5565TIP3    H238255   0.629   3.276   7.396 -1.0455 -0.2144  0.8698
 5566TIP3   OH238256   2.869   0.066   7.531 -0.1841  0.6804  1.0360
 5566TIP3    H138257   2.804   0.109   7.475  1.2559 -1.3859 -2.5264
 5566TIP3    H238258   2.848  -0.027   7.524  1.7646  0.1547  1.6450
 5567TIP3   OH238259   5.275   5.306   0.959 -0.0520 -0.4846  0.0387
 5567TIP3    H138260   5.239   5.218   0.950  0.7291 -0.8157  0.0648
 5567TIP3    H238261   5.356   5.293   1.009  0.1536  0.2246 -0.1045
 5568TIP3   OH238262   6.208   1.111   6.932  0.3466  0.3443  0.2787
 5568TIP3    H138263   6.276   1.052   6.966 -0.7532 -0.1331  1.7490
 5568TIP3    H238264   6.248   1.198   6.936  1.0752  0.0120  0.5543
 5569TIP3   OH238265   0.393   6.174   6.434 -0.3718 -0.5199  0.7376
 5569TIP3    H138266   0.327   6.194   6.368  2.3893  1.4287 -1.7489
 5569TIP3    H238267   0.390   6.249   6.494 -1.6071 -1.3520  1.7449
 5570TIP3   OH238268   0.106   2.254   1.546  0.1761 -0.6611 -0.1763
 5570TIP3    H138269   0.088   2.227   1.636  0.7465 -1.4803 -0.3001
 5570TIP3    H238270   0.092   2.349   1.547  0.1821 -0.6565  0.7736
 5571TIP3   OH238271   0.252   2.436   6.362  0.5590  0.2056  0.1633
 5571TIP3    H138272   0.285   2.520   6.395  1.4042  0.3346 -0.9200
 5571TIP3    H238273   0.299   2.424   6.279 -1.1096 -0.3201 -0.7445
 5572TIP3   OH238274   3.720   6.272   1.966  0.4070  0.3136 -0.5922
 5572TIP3    H138275   3.799   6.294   1.917 -0.1277  0.7258 -1.2739
 5572TIP3    H238276   3.714   6.177   1.959  0.5865  0.3246 -0.9256
 5573TIP3   OH238277   2.630   1.974   8.330  0.0236 -0.4763 -0.2673
 5573TIP3    H138278   2.566   2.026   8.281 -0.7806  0.2773  1.4897
 5573TIP3    H238279   2.666   2.034   8.395 -0.7349 -1.9916  1.6529
 5574TIP3   OH238280   6.442   4.027   0.536  0.7175  0.2652 -0.1676
 5574TIP3    H138281   6.465   3.991   0.622 -0.4992  0.2915  0.1955
 5574TIP3    H238282   6.379   4.097   0.556 -0.5387 -0.5452 -1.1374
 5575TIP3   OH238283   3.445   4.581   8.767  0.3955 -0.0101  0.0306
 5575TIP3    H138284   3.431   4.610   8.857 -0.1661  2.4353 -0.7717
 5575TIP3    H238285   3.541   4.576   8.759  0.4942  0.8996  0.4471
 5576TIP3   OH238286   3.838   5.589   6.649 -0.1106  0.2868 -0.2700
 5576TIP3    H138287   3.784   5.640   6.709  0.4785  1.9532 -1.0760
 5576TIP3    H238288   3.908   5.553   6.704  0.4681  1.8645  0.0815
 5577TIP3   OH238289   2.803   1.422   7.252 -0.2741 -0.0473 -0.3349
 5577TIP3    H138290   2.748   1.500   7.237  0.9473  0.3833 -3.1841
 5577TIP3    H238291   2.859   1.446   7.326 -1.9213  0.5805  0.7757
 5578TIP3   OH238292   2.634   1.477   1.366  0.0539 -0.5324  0.3529
 5578TIP3    H138293   2.544   1.444   1.366  0.4251 -1.8590 -2.8109
 5578TIP3    H238294   2.687   1.401   1.390  0.5004 -0.5014 -0.5181
 5579TIP3   OH238295   2.293   5.881   0.138 -0.1530 -0.2677 -0.4132
 5579TIP3    H138296   2.271   5.904   0.229 -1.4119 -0.0547 -0.7607
 5579TIP3    H238297   2.280   5.787   0.133 -0.9698 -0.1513 -0.6006
 5580TIP3   OH238298   4.248   3.340   7.605  0.5891  0.4327  0.3747
 5580TIP3    H138299   4.214   3.383   7.683 -1.4548  1.0979 -0.8114
 5580TIP3    H238300   4.200   3.257   7.601 -1.7259  1.7148 -1.7415
 5581TIP3   OH238301   6.281   4.490   1.459  0.4884  0.2735  0.3831
 5581TIP3    H138302   6.297   4.548   1.384  0.7265 -0.1057  0.1355
 5581TIP3    H238303   6.299   4.402   1.426  0.7372  0.1136  0.9271
 5582TIP3   OH238304   0.265   0.772   8.557  0.2095 -0.5854 -0.2838
 5582TIP3    H138305   0.260   0.862   8.524 -0.2285  0.1347  1.6068
 5582TIP3    H238306   0.174   0.745   8.566  0.0423  0.6363  3.6666
 5583TIP3   OH238307   0.361   2.355   1.049  0.2573  0.4286 -0.3136
 5583TIP3    H138308   0.338   2.316   1.133  1.0074 -0.4092 -0.4818
 5583TIP3    H238309   0.430   2.298   1.014  0.5407  1.2352 -1.1133
 5584TIP3   OH238310   4.074   3.826   0.653 -0.5590  0.3744 -0.3896
 5584TIP3    H138311   4.093   3.816   0.560 -1.1640  2.2215 -0.7587
 5584TIP3    H238312   4.129   3.898   0.682  0.7300 -1.1103  1.0968
 5585TIP3   OH238313   4.836   2.127   7.461 -0.0125  0.1267 -0.2530
 5585TIP3    H138314   4.828   2.222   7.463  0.0538  0.1349 -0.3470
 5585TIP3    H238315   4.810   2.098   7.548 -1.8208  0.0860 -0.7726
 5586TIP3   OH238316   0.239   1.223   2.127 -0.8413 -0.2063 -0.1634
 5586TIP3    H138317   0.156   1.251   2.088 -0.0855 -0.4891 -2.0638
 5586TIP3    H238318   0.231   1.247   2.219 -2.0973  1.9396 -0.7669
 5587TIP3   OH238319   2.910   5.759   0.982 -0.0104  0.1081  0.2160
 5587TIP3    H138320   2.916   5.783   1.074  0.1318 -2.6340  1.0238
 5587TIP3    H238321   2.986   5.801   0.941  0.0218  1.2178  1.3666
 5588TIP3   OH238322   6.184   2.241   0.142 -0.5279 -0.0621 -0.0319
 5588TIP3    H138323   6.225   2.327   0.135 -2.0997  0.6774 -0.6047
 5588TIP3    H238324   6.139   2.243   0.226  1.7552 -1.4423  1.3298
 5589TIP3   OH238325   6.460   4.188   6.544  0.5648 -0.3145 -0.8084
 5589TIP3    H138326   6.488   4.278   6.526  1.0446  0.1494  1.8549
 5589TIP3    H238327   6.385   4.198   6.603  0.2475 -1.6673 -0.9591
 5590TIP3   OH238328   6.728   4.061   2.075 -0.8336  0.4429 -0.1455
 5590TIP3    H138329   6.646   4.110   2.084 -2.0178 -1.1552 -1.5271
 5590TIP3    H238330   6.741   4.018   2.160 -0.1391  2.4972  0.8549
 5591TIP3   OH238331   0.170   0.272   8.244 -0.5084  0.6608 -0.0578
 5591TIP3    H138332   0.211   0.190   8.272  1.2149  1.8416  1.0845
 5591TIP3    H238333   0.150   0.258   8.152  1.2644 -0.4832 -0.3305
 5592TIP3   OH238334   5.326   4.920   8.560 -0.1519  0.6523  0.0415
 5592TIP3    H138335   5.246   4.971   8.560  0.3604  1.4941  1.2100
 5592TIP3    H238336   5.299   4.831   8.581 -0.8098  0.8773  0.1484
 5593TIP3   OH238337   3.597   6.757   0.602  0.5450  0.5405  0.1561
 5593TIP3    H138338   3.645   6.776   0.521 -0.1150 -1.6538 -0.8584
 5593TIP3    H238339   3.506   6.778   0.582  0.3435 -0.2221  0.2153
 5594TIP3   OH238340   4.657   6.405   8.048 -0.2902 -0.5903 -0.3966
 5594TIP3    H138341   4.612   6.326   8.018  0.1966 -0.6345 -1.0323
 5594TIP3    H238342   4.729   6.416   7.986 -0.9343  0.9274 -0.9092
 5595TIP3   OH238343   3.803   6.275   2.686  0.1361  0.0038 -0.6707
 5595TIP3    H138344   3.790   6.364   2.656  0.9827 -0.0369 -1.2021
 5595TIP3    H238345   3.762   6.221   2.619 -0.2317 -0.0091 -0.4343
 5596TIP3   OH238346   4.882   5.127   1.564 -0.1997 -0.4550 -0.7259
 5596TIP3    H138347   4.795   5.157   1.538  0.5562 -0.2042 -3.2700
 5596TIP3    H238348   4.873   5.032   1.573 -0.4268 -0.6607 -2.6452
 5597TIP3   OH238349   2.896   1.208   7.908  0.3874  0.0411 -0.4149
 5597TIP3    H138350   2.843   1.225   7.830 -1.2654 -2.1953  0.1077
 5597TIP3    H238351   2.904   1.113   7.912  1.1659  0.1333  1.6710
 5598TIP3   OH238352   0.436   4.063   1.127  0.2431  0.0264 -0.3425
 5598TIP3    H138353   0.373   3.993   1.114  0.5257 -0.0146 -1.6277
 5598TIP3    H238354   0.520   4.018   1.136  0.4431  0.1859 -1.3022
 5599TIP3   OH238355   3.869   4.056   8.020 -0.1926 -0.5790 -0.2717
 5599TIP3    H138356   3.915   4.024   8.097  2.0501 -0.7269 -1.5771
 5599TIP3    H238357   3.930   4.042   7.948 -1.2603  1.6765 -1.7418
 5600TIP3   OH238358   1.438   5.746   8.388  0.0230  0.1027  0.6331
 5600TIP3    H138359   1.359   5.729   8.439 -0.3888  0.5055  0.1368
 5600TIP3    H238360   1.430   5.837   8.360  0.2192 -0.1315 -0.1961
 5601TIP3   OH238361   2.621   6.755   1.096 -0.2096  0.3094  0.4680
 5601TIP3    H138362   2.527   6.740   1.089 -0.3500  0.2269  2.2436
 5601TIP3    H238363   2.629   6.846   1.125  0.3913  1.2470 -2.3132
 5602TIP3   OH238364   0.452   0.097   7.918  0.0867 -0.7210  0.2105
 5602TIP3    H138365   0.377   0.114   7.861 -0.1673 -1.5806  0.2844
 5602TIP3    H238366   0.528   0.115   7.863 -0.1429  1.3578  0.4891
 5603TIP3   OH238367   2.146   0.763   6.501 -0.5031  0.0162  0.5431
 5603TIP3    H138368   2.081   0.694   6.511 -0.9619  0.1464 -1.2112
 5603TIP3    H238369   2.230   0.719   6.514 -0.6632 -1.3685 -2.3459
 5604TIP3   OH238370   0.745   2.320   7.250  0.5531 -0.5987  0.1223
 5604TIP3    H138371   0.692   2.249   7.286 -0.4447 -0.6920 -1.4212
 5604TIP3    H238372   0.724   2.320   7.156 -1.0018  3.0201  0.3283
 5605TIP3   OH238373   4.504   4.901   1.738 -0.2148 -0.0605 -0.2275
 5605TIP3    H138374   4.598   4.895   1.719  0.0726 -2.3471  1.4907
 5605TIP3    H238375   4.493   4.987   1.779  1.2390 -0.0366  0.1523
 5606TIP3   OH238376   2.126   4.865   8.718 -0.0873 -0.4289  0.1519
 5606TIP3    H138377   2.087   4.784   8.686 -1.2875 -0.5290  1.7309
 5606TIP3    H238378   2.106   4.866   8.812  2.0399  0.5191  0.6508
 5607TIP3   OH238379   5.067   3.966   1.726  0.2134 -0.2132  0.0173
 5607TIP3    H138380   5.038   3.875   1.728  0.1173 -0.1743  0.9808
 5607TIP3    H238381   5.145   3.967   1.783 -0.2023  0.4370  0.5881
 5608TIP3   OH238382   5.402   3.694   7.159  0.1653  0.4275  0.3110
 5608TIP3    H138383   5.419   3.694   7.253  0.8829  0.4692  0.1866
 5608TIP3    H238384   5.412   3.785   7.133  1.3530  0.2008 -0.0441
 5609TIP3   OH238385   5.873   0.845   8.276  0.0724 -0.6615  0.2822
 5609TIP3    H138386   5.790   0.799   8.289  0.5123 -1.5997 -0.1036
 5609TIP3    H238387   5.939   0.783   8.307  0.7245 -0.6115 -0.9498
 5610TIP3   OH238388   0.083   0.860   0.612 -0.2650  0.0659  0.0530
 5610TIP3    H138389   0.048   0.920   0.546 -1.9818  1.2332  1.8772
 5610TIP3    H238390   0.112   0.918   0.683  0.0578 -1.1878  0.9683
 5611TIP3   OH238391   2.359   0.857   8.091  0.2517  0.0965 -0.0905
 5611TIP3    H138392   2.319   0.883   8.174  1.8538 -2.8215  1.7468
 5611TIP3    H238393   2.445   0.898   8.092 -0.4399  1.6976 -1.3548
 5612TIP3   OH238394   5.284   1.317   0.834 -0.5497 -0.1095 -0.2689
 5612TIP3    H138395   5.322   1.404   0.844 -0.7359  0.0064 -0.5805
 5612TIP3    H238396   5.315   1.269   0.911  0.7765 -0.2254 -0.8516
 5613TIP3   OH238397   0.119   2.466   8.483 -0.5276 -0.9884  0.1067
 5613TIP3    H138398   0.023   2.457   8.481 -0.4717 -1.9536 -2.6608
 5613TIP3    H238399   0.134   2.557   8.456 -0.6593 -0.7375  0.8648
 5614TIP3   OH238400   5.595   6.529   8.717  0.5023  0.0712  0.7615
 5614TIP3    H138401   5.601   6.556   8.808 -1.7975  0.6969  0.7937
 5614TIP3    H238402   5.503   6.506   8.705  0.7996 -0.2200 -1.3529
 5615TIP3   OH238403   1.861   5.905   7.991  0.3420  0.4432 -0.4314
 5615TIP3    H138404   1.826   5.826   8.032 -1.4642  0.9449 -0.9441
 5615TIP3    H238405   1.894   5.957   8.064 -1.0646  0.4699  0.2083
 5616TIP3   OH238406   6.287   4.699   1.744 -0.8139 -0.4172 -0.4054
 5616TIP3    H138407   6.382   4.710   1.750 -0.6571 -1.3449 -0.9530
 5616TIP3    H238408   6.255   4.727   1.830 -0.1295  0.6491 -0.4784
 5617TIP3   OH238409   3.993   0.920   2.717 -0.4794  0.0769  0.0856
 5617TIP3    H138410   3.931   0.991   2.733 -2.3233 -1.3651 -0.3413
 5617TIP3    H238411   3.954   0.869   2.646  1.0959 -1.0038 -0.0513
 5618TIP3   OH238412   6.491   0.207   1.715 -0.1246 -0.0748 -0.0155
 5618TIP3    H138413   6.533   0.121   1.712  2.3685  1.0076  0.9631
 5618TIP3    H238414   6.485   0.233   1.623  0.6591 -0.6219 -0.2385
 5619TIP3   OH238415   5.803   3.153   2.370 -0.3051  0.0937  0.0560
 5619TIP3    H138416   5.757   3.071   2.387 -1.0402  0.4278 -0.2698
 5619TIP3    H238417   5.891   3.127   2.342  0.1935 -0.5375  1.9970
 5620TIP3   OH238418   1.734   5.755   7.218  0.0718 -0.8737  0.1314
 5620TIP3    H138419   1.702   5.800   7.296  0.1778  0.6973 -0.6835
 5620TIP3    H238420   1.750   5.665   7.246 -1.0780 -0.6528  1.5954
 5621TIP3   OH238421   6.696   4.881   7.591  0.2305  0.0449  1.2670
 5621TIP3    H138422   6.646   4.811   7.549 -0.8505  1.1521  0.6480
 5621TIP3    H238423   6.747   4.836   7.659  0.2125 -1.4496  0.3522
 5622TIP3   OH238424   5.877   6.014   1.804 -0.1504  0.5051 -0.6651
 5622TIP3    H138425   5.952   6.038   1.858 -1.0519 -0.3001  1.0069
 5622TIP3    H238426   5.811   5.984   1.866 -0.3662 -2.9337 -2.2903
 5623TIP3   OH238427   5.073   3.467   6.827 -0.3642  0.4651 -0.1112
 5623TIP3    H138428   5.055   3.548   6.779 -1.5324  0.1579 -0.2230
 5623TIP3    H238429   5.038   3.398   6.771  0.5787 -0.1116  0.0100
 5624TIP3   OH238430   1.534   3.757   8.872 -0.1514 -0.0262  0.2788
 5624TIP3    H138431   1.629   3.763   8.878 -0.1947  2.0879 -0.3109
 5624TIP3    H238432   1.503   3.765   8.962  0.1887  0.0932  0.3859
 5625TIP3   OH238433   1.784   5.046   8.644 -0.4611 -0.1520  0.2666
 5625TIP3    H138434   1.806   5.073   8.555 -0.7196  0.6951  0.4568
 5625TIP3    H238435   1.778   4.950   8.639  0.5852 -0.1970 -0.3843
 5626TIP3   OH238436   5.864   0.070   7.521  0.0988  0.0147 -0.0102
 5626TIP3    H138437   5.920   0.011   7.573 -0.7020 -0.4937  0.2994
 5626TIP3    H238438   5.917   0.091   7.444  0.9706  0.0710  0.5869
 5627TIP3   OH238439   0.016   5.359   1.790 -0.1326 -0.3294 -0.4239
 5627TIP3    H138440  -0.074   5.333   1.774 -0.9553  1.2078  1.3682
 5627TIP3    H238441   0.009   5.442   1.837  2.2011 -0.4916  0.3342
 5628TIP3   OH238442   0.736   1.769   1.594  0.1662 -0.0358  0.2124
 5628TIP3    H138443   0.709   1.720   1.671 -1.4736  1.2173  0.5119
 5628TIP3    H238444   0.812   1.722   1.559  0.7664 -0.7853  2.4127
 5629TIP3   OH238445   6.241   2.487   7.134 -0.2803  0.5284 -0.1666
 5629TIP3    H138446   6.272   2.577   7.133  0.8614  0.1811  1.3800
 5629TIP3    H238447   6.209   2.473   7.223 -1.8042 -0.1796 -0.7862
 5630TIP3   OH238448   6.038   1.357   8.828  0.3000  0.1153 -0.4682
 5630TIP3    H138449   5.975   1.292   8.859  0.2517 -0.2304 -1.2643
 5630TIP3    H238450   6.026   1.432   8.887 -1.9709  0.6630 -1.5175
 5631TIP3   OH238451   3.915   5.439   0.956  0.7099 -0.3529 -0.5713
 5631TIP3    H138452   4.004   5.442   0.920  0.5950  1.0088 -0.8047
 5631TIP3    H238453   3.880   5.527   0.938 -0.7121 -0.9051 -0.5598
 5632TIP3   OH238454   5.127   4.841   7.196  0.0515 -0.2317 -0.1465
 5632TIP3    H138455   5.149   4.914   7.137  0.6935 -0.2179  0.1029
 5632TIP3    H238456   5.189   4.850   7.269  0.3416 -1.2057 -0.2627
 5633TIP3   OH238457   1.036   4.841   2.411 -0.4469  0.1557 -0.3501
 5633TIP3    H138458   0.986   4.892   2.475 -1.5138 -1.2742 -0.0011
 5633TIP3    H238459   0.976   4.827   2.339  1.2594  3.2454 -2.6160
 5634TIP3   OH238460   0.270   4.906   7.175 -0.2953 -0.0592 -0.0939
 5634TIP3    H138461   0.312   4.923   7.090 -1.6012  0.7580 -0.5999
 5634TIP3    H238462   0.248   4.992   7.209 -1.3096 -0.4499  0.2744
 5635TIP3   OH238463   5.729   5.304   7.427 -0.6027 -0.2208  0.5811
 5635TIP3    H138464   5.739   5.396   7.403  0.4167 -0.9734 -2.1981
 5635TIP3    H238465   5.642   5.279   7.396  0.2231 -0.8632 -1.3872
 5636TIP3   OH238466   2.757   5.858   8.491  0.7769 -0.1481  0.8233
 5636TIP3    H138467   2.758   5.936   8.547 -1.4757  0.8834 -0.4634
 5636TIP3    H238468   2.689   5.803   8.529  2.0467 -1.3687  1.4523
 5637TIP3   OH238469   1.982   3.148   0.249 -0.5139 -0.0631  0.1274
 5637TIP3    H138470   1.918   3.080   0.228  2.0312 -2.1301 -1.6352
 5637TIP3    H238471   1.989   3.200   0.169 -0.1342  0.2288  0.3468
 5638TIP3   OH238472   2.321   3.239   8.142 -0.2600  0.0647  0.1638
 5638TIP3    H138473   2.413   3.225   8.165 -0.6776  0.7627  2.6443
 5638TIP3    H238474   2.273   3.178   8.199 -1.3442 -0.2890 -1.0889
 5639TIP3   OH238475   3.774   1.575   2.547 -0.0818 -0.6167  0.0812
 5639TIP3    H138476   3.746   1.492   2.586 -0.8623 -0.4816 -0.1732
 5639TIP3    H238477   3.826   1.618   2.615  1.6775 -1.9955 -0.3114
 5640TIP3   OH238478   0.222   5.570   8.361  0.4622 -0.1458  0.3473
 5640TIP3    H138479   0.155   5.581   8.428  0.1020  0.0813 -0.0440
 5640TIP3    H238480   0.189   5.498   8.307 -0.7859  1.6687 -1.4139
 5641TIP3   OH238481   3.136   3.064   8.376  0.6413  0.0666 -0.2825
 5641TIP3    H138482   3.101   3.108   8.299  1.0247 -1.7699 -1.5593
 5641TIP3    H238483   3.178   3.134   8.426 -2.0794  1.8308 -0.2234
 5642TIP3   OH238484   4.410   1.513   7.473  0.1594  0.1576 -0.1231
 5642TIP3    H138485   4.386   1.568   7.548  1.4163  0.8089 -0.1649
 5642TIP3    H238486   4.327   1.480   7.440 -0.6402  1.9246 -0.0001
 5643TIP3   OH238487   4.867   0.877   8.113  0.3414 -0.2353  0.0320
 5643TIP3    H138488   4.924   0.861   8.188  3.2881 -1.3861 -2.2628
 5643TIP3    H238489   4.780   0.889   8.152  1.7793 -0.0416  3.6329
 5644TIP3   OH238490   3.245   6.629   0.551  0.4047  0.4119 -0.0075
 5644TIP3    H138491   3.275   6.681   0.476  1.6778 -0.2910 -0.0045
 5644TIP3    H238492   3.250   6.539   0.521  0.3908  0.1573  0.7410
 5645TIP3   OH238493   3.970   4.754   7.721  0.6566 -0.1113 -0.3953
 5645TIP3    H138494   3.875   4.768   7.722  0.4804 -1.1375  1.1420
 5645TIP3    H238495   3.990   4.729   7.631 -0.7978 -1.4088 -0.3854
 5646TIP3   OH238496   4.832   2.619   1.496 -0.1506  0.6779 -0.0952
 5646TIP3    H138497   4.754   2.589   1.450  0.3200  0.1940 -0.6004
 5646TIP3    H238498   4.828   2.715   1.491 -0.5650  0.6479 -0.3622
 5647TIP3   OH238499   3.818   3.258   1.746 -0.6366 -0.3815 -0.5593
 5647TIP3    H138500   3.858   3.262   1.832 -1.2929 -0.2757 -0.2490
 5647TIP3    H238501   3.887   3.284   1.685  0.1297 -1.4583 -0.1703
 5648TIP3   OH238502   5.507   2.464   6.882  0.0224 -0.0564 -0.0525
 5648TIP3    H138503   5.446   2.535   6.865  1.8033  1.1843 -1.7973
 5648TIP3    H238504   5.490   2.401   6.812 -0.3993 -0.5333  0.4754
 5649TIP3   OH238505   5.696   4.310   7.453  0.2887 -0.4811  0.3426
 5649TIP3    H138506   5.653   4.225   7.445  0.3592 -0.5070  0.2418
 5649TIP3    H238507   5.629   4.367   7.491  0.3846 -0.6953  0.8482
 5650TIP3   OH238508   0.876   4.682   0.317 -0.1978 -0.3155  0.0105
 5650TIP3    H138509   0.854   4.591   0.299  0.8699 -0.6007  0.0533
 5650TIP3    H238510   0.972   4.685   0.312 -0.2038  0.7626  0.2025
 5651TIP3   OH238511   1.585   5.473   1.313 -0.4403  0.5637  0.2502
 5651TIP3    H138512   1.671   5.437   1.331 -0.8124 -1.2316 -1.2181
 5651TIP3    H238513   1.600   5.539   1.245 -0.1452  0.8279  0.5691
 5652TIP3   OH238514   1.439   0.468   0.217 -0.0998 -0.3126 -0.4986
 5652TIP3    H138515   1.444   0.511   0.302  1.4987 -1.4233  0.0127
 5652TIP3    H238516   1.530   0.460   0.188 -0.5251 -1.1021 -1.7149
 5653TIP3   OH238517   4.440   2.333   7.992  0.4978 -0.4132  0.3130
 5653TIP3    H138518   4.362   2.331   8.047  0.7371 -0.2549  0.6631
 5653TIP3    H238519   4.407   2.351   7.904  0.1548 -0.1580  0.4899
 5654TIP3   OH238520   0.808   0.163   2.411 -0.3891  0.0534  0.1501
 5654TIP3    H138521   0.774   0.153   2.500  0.4076  1.5793  0.6680
 5654TIP3    H238522   0.759   0.237   2.375 -0.8181 -0.6510 -0.7702
 5655TIP3   OH238523   3.813   4.226   7.367 -0.1628  0.4232  0.1541
 5655TIP3    H138524   3.904   4.248   7.387  0.4341 -0.8069 -1.0066
 5655TIP3    H238525   3.809   4.131   7.374 -1.5091  0.4967  0.6849
 5656TIP3   OH238526   5.968   3.815   8.259 -0.5318 -0.1931 -0.0051
 5656TIP3    H138527   6.016   3.897   8.272 -0.7495 -0.1324  0.4559
 5656TIP3    H238528   6.016   3.750   8.310 -1.5144  0.0907  1.3406
 5657TIP3   OH238529   6.154   5.522   7.493 -0.2387 -0.4513 -0.2622
 5657TIP3    H138530   6.110   5.467   7.428  0.9708  1.3330 -2.7863
 5657TIP3    H238531   6.121   5.610   7.476  1.3654  0.3179  0.4304
 5658TIP3   OH238532   4.449   0.261   1.275  0.0430  0.1421  0.0519
 5658TIP3    H138533   4.403   0.238   1.194  2.1865  0.3492 -1.2917
 5658TIP3    H238534   4.414   0.347   1.299  0.5670  0.8674 -1.6387
 5659TIP3   OH238535   4.314   4.231   1.389 -0.7404 -0.3319  0.6647
 5659TIP3    H138536   4.366   4.152   1.373  0.4083  0.6684 -0.6507
 5659TIP3    H238537   4.350   4.267   1.470 -0.3366 -0.3869  0.5078
 5660TIP3   OH238538   4.042   1.389   8.768  0.0501 -0.9378  0.1094
 5660TIP3    H138539   3.964   1.334   8.776  0.8545 -1.9049  1.5692
 5660TIP3    H238540   4.114   1.336   8.802  1.5771 -0.4592 -2.1160
 5661TIP3   OH238541   3.284   6.020   1.099 -0.4120  0.6223 -0.7951
 5661TIP3    H138542   3.323   5.945   1.054 -0.2686 -0.4766  1.0483
 5661TIP3    H238543   3.301   6.094   1.041  1.1269 -0.4456 -1.7946
 5662TIP3   OH238544   0.206   2.591   1.638 -0.2051  0.8201 -0.0253
 5662TIP3    H138545   0.198   2.658   1.706 -0.7113 -0.2600  1.0173
 5662TIP3    H238546   0.122   2.594   1.591 -1.1958 -0.6345  1.5411
 5663TIP3   OH238547   2.415   5.724   1.672  0.2532  0.2150  0.1099
 5663TIP3    H138548   2.458   5.809   1.681  2.0246 -0.5308 -0.6997
 5663TIP3    H238549   2.484   5.661   1.694 -0.9313 -1.0283  0.3873
 5664TIP3   OH238550   1.965   4.618   8.659 -0.5275 -0.0322 -0.1046
 5664TIP3    H138551   1.906   4.547   8.684 -0.8398 -0.3159 -1.5471
 5664TIP3    H238552   2.036   4.575   8.611 -0.1365  0.5126 -0.0329
 5665TIP3   OH238553   5.885   2.161   0.054  0.0411  0.1175  0.3087
 5665TIP3    H138554   5.962   2.159   0.110  0.5410  1.0543 -0.3097
 5665TIP3    H238555   5.897   2.088  -0.006 -0.4705 -0.8523  1.3672
 5666TIP3   OH238556   3.363   2.564   7.803  0.1519  0.0243 -0.3313
 5666TIP3    H138557   3.280   2.529   7.771  0.5466  0.4228 -1.8695
 5666TIP3    H238558   3.340   2.614   7.882 -1.2688  1.1691 -1.4316
 5667TIP3   OH238559   6.375   5.532   8.698  0.4545  0.3195 -0.0322
 5667TIP3    H138560   6.282   5.515   8.713  0.3534 -1.7401 -2.4271
 5667TIP3    H238561   6.390   5.619   8.737 -2.2715  0.4181  0.9932
 5668TIP3   OH238562   3.992   6.462   1.855 -0.0858  0.0238 -0.4687
 5668TIP3    H138563   4.027   6.526   1.793  1.2586  0.1371  0.3739
 5668TIP3    H238564   3.991   6.380   1.806  0.8253  0.1403 -0.7078
 5669TIP3   OH238565   6.776   0.553   7.268  0.5203 -0.3810 -0.6666
 5669TIP3    H138566   6.696   0.502   7.280  0.6246 -0.1992  1.0209
 5669TIP3    H238567   6.839   0.490   7.234 -0.4762 -0.3837 -2.6074
 5670TIP3   OH238568   3.977   1.730   3.000  0.4315 -0.4472  0.7196
 5670TIP3    H138569   3.957   1.646   3.041  0.3378 -0.5888  0.3851
 5670TIP3    H238570   3.893   1.765   2.972  0.5159 -0.4659  0.4316
 5671TIP3   OH238571   5.401   1.999   2.437 -0.7075 -0.1106  0.2007
 5671TIP3    H138572   5.369   2.089   2.426  1.0672  0.3996 -1.2680
 5671TIP3    H238573   5.412   1.966   2.348  0.2198 -1.2054  0.6943
 5672TIP3   OH238574   2.496   4.858   0.037  0.5042 -0.4938 -0.0378
 5672TIP3    H138575   2.459   4.946   0.031 -0.0296 -0.8199 -2.4260
 5672TIP3    H238576   2.573   4.868   0.093 -0.1612  1.2501  0.6423
 5673TIP3   OH238577   1.982   0.560   0.072  0.1787 -0.4991 -0.4245
 5673TIP3    H138578   1.959   0.533  -0.017 -0.6930  1.5336 -0.8538
 5673TIP3    H238579   2.068   0.601   0.063  2.6415 -4.7146  0.5889
 5674TIP3   OH238580   6.707   1.790   8.003  0.2407  0.0303  0.5274
 5674TIP3    H138581   6.731   1.703   8.035 -0.9031 -0.7198 -0.5549
 5674TIP3    H238582   6.790   1.834   7.987  0.8381 -1.0551  0.5608
 5675TIP3   OH238583   1.181   6.248   0.615  0.3348  0.5800 -0.6175
 5675TIP3    H138584   1.250   6.314   0.604 -0.7411  1.7418 -0.6398
 5675TIP3    H238585   1.100   6.298   0.609 -0.5046 -0.6741  0.0177
 5676TIP3   OH238586   3.561   2.660   2.432 -0.5416  0.1940 -0.5800
 5676TIP3    H138587   3.575   2.742   2.479 -0.6436  0.2405 -0.6288
 5676TIP3    H238588   3.640   2.608   2.448 -2.1457 -1.4995  3.1750
 5677TIP3   OH238589   2.524   1.091   2.529 -0.0861 -0.2714 -0.5633
 5677TIP3    H138590   2.546   1.041   2.450 -0.0632 -0.7527 -0.2558
 5677TIP3    H238591   2.461   1.036   2.575  0.8298 -0.5723  0.3633
 5678TIP3   OH238592   2.240   3.523   1.498  0.5729 -0.0087 -0.2874
 5678TIP3    H138593   2.162   3.514   1.553  1.3561 -1.1286  0.7227
 5678TIP3    H238594   2.239   3.446   1.442  0.4801  0.4457 -0.9153
 5679TIP3   OH238595   5.558   5.856   8.900 -0.3503  0.2446 -0.0946
 5679TIP3    H138596   5.494   5.806   8.952  1.6015 -0.0221  2.2130
 5679TIP3    H238597   5.570   5.803   8.821 -2.0135 -0.3315 -0.0168
 5680TIP3   OH238598   5.607   1.245   0.657 -0.1661  0.2459  0.6945
 5680TIP3    H138599   5.567   1.190   0.725  0.4072 -0.3345  0.5741
 5680TIP3    H238600   5.645   1.318   0.705  0.6961 -0.4302  1.0767
 5681TIP3   OH238601   4.813   6.203   1.229 -0.5841  0.0262  0.0402
 5681TIP3    H138602   4.732   6.204   1.279 -1.5166  2.3332 -1.3434
 5681TIP3    H238603   4.881   6.227   1.292 -1.1098 -0.8912  0.9872
 5682TIP3   OH238604   0.193   5.157   7.237 -0.4354 -0.4297  0.1383
 5682TIP3    H138605   0.151   5.225   7.289  0.9236  1.4986 -1.1350
 5682TIP3    H238606   0.177   5.184   7.146  2.2502 -0.3814 -0.3889
 5683TIP3   OH238607   3.893   5.974   1.879  0.6608 -0.4031 -0.1209
 5683TIP3    H138608   3.973   5.923   1.864  2.5004  2.2658  0.0393
 5683TIP3    H238609   3.888   5.984   1.974  0.0786 -0.6360 -0.1248
 5684TIP3   OH238610   3.782   1.892   2.212 -0.1435  0.0747 -0.0108
 5684TIP3    H138611   3.778   1.798   2.229 -1.1624  0.1003 -0.0453
 5684TIP3    H238612   3.764   1.933   2.297  0.0643  0.2323 -0.0426
 5685TIP3   OH238613   0.139   2.624   7.005 -0.0714  0.1066 -0.5715
 5685TIP3    H138614   0.145   2.604   6.912  1.3915  0.2909 -0.5444
 5685TIP3    H238615   0.159   2.718   7.010 -3.1312  0.8589 -0.3384
 5686TIP3   OH238616   6.532   2.970   7.790  0.3085 -0.6761 -0.0350
 5686TIP3    H138617   6.530   2.964   7.886  0.1207  0.4875  0.0543
 5686TIP3    H238618   6.599   3.035   7.772 -0.6610  0.1948 -0.6209
 5687TIP3   OH238619   5.445   4.245   1.673 -0.2695  0.2909  0.0393
 5687TIP3    H138620   5.479   4.156   1.664 -1.2840 -0.0939 -0.1823
 5687TIP3    H238621   5.355   4.233   1.703 -0.7787  1.1971 -1.0488
 5688TIP3   OH238622   4.862   2.739   2.049 -0.0797 -0.4050 -0.4022
 5688TIP3    H138623   4.870   2.815   2.107  0.1653 -1.3336  0.8163
 5688TIP3    H238624   4.804   2.679   2.095 -0.9919 -0.6153 -1.7564
 5689TIP3   OH238625   3.485   2.630   1.071 -0.3825 -0.1769 -0.6933
 5689TIP3    H138626   3.392   2.647   1.055  0.2899  2.3229 -2.6159
 5689TIP3    H238627   3.509   2.692   1.140  0.2775  0.7817 -1.7458
 5690TIP3   OH238628   1.212   1.674   0.617  0.4992 -0.0976 -0.3213
 5690TIP3    H138629   1.239   1.648   0.529  0.6087 -0.8047 -0.0842
 5690TIP3    H238630   1.270   1.626   0.675 -1.1124 -1.5334  0.1985
 5691TIP3   OH238631   1.276   3.900   6.755  0.0285  0.6775  0.2208
 5691TIP3    H138632   1.317   3.879   6.671 -1.9920  0.6946 -0.8135
 5691TIP3    H238633   1.327   3.850   6.819  0.4292 -0.8897 -1.2358
 5692TIP3   OH238634   2.146   6.096   2.222 -0.1645  0.2285 -0.1254
 5692TIP3    H138635   2.077   6.063   2.279  0.4037  0.1920  0.5509
 5692TIP3    H238636   2.118   6.071   2.134 -0.4273 -0.8573  0.2451
 5693TIP3   OH238637   0.648   1.188   1.099  0.4180 -0.0533  0.2853
 5693TIP3    H138638   0.710   1.174   1.171 -1.3607 -0.2371  1.8612
 5693TIP3    H238639   0.573   1.132   1.121  0.1458 -0.7934 -2.1933
 5694TIP3   OH238640   6.303   4.120   1.771 -0.0669 -0.4474  0.0960
 5694TIP3    H138641   6.254   4.062   1.829 -1.6842 -1.4367 -2.1305
 5694TIP3    H238642   6.238   4.154   1.709  1.8257 -1.1677 -2.4885
 5695TIP3   OH238643   2.837   0.469   0.850 -0.0017  0.3527 -0.3601
 5695TIP3    H138644   2.818   0.518   0.930  0.5302 -0.1927  0.1120
 5695TIP3    H238645   2.771   0.400   0.847  1.4968 -1.2267  1.0084
 5696TIP3   OH238646   1.132   2.283   1.506  0.1398  0.1379  0.4003
 5696TIP3    H138647   1.072   2.208   1.509 -2.9525  2.3859  0.1129
 5696TIP3    H238648   1.167   2.283   1.417  0.4315 -1.1157  0.5040
 5697TIP3   OH238649   2.522   6.664   7.982  0.3401  0.4695 -0.2838
 5697TIP3    H138650   2.527   6.620   8.067 -3.0905 -1.3260 -0.8412
 5697TIP3    H238651   2.599   6.633   7.934  0.3205 -1.4864  0.8647
 5698TIP3   OH238652   3.032   3.950   0.429  0.3852  0.1996  0.3646
 5698TIP3    H138653   3.056   4.039   0.454 -1.7403  0.7592  0.6196
 5698TIP3    H238654   2.963   3.961   0.365  0.5717 -1.2858 -0.1303
 5699TIP3   OH238655   3.436   3.179   8.325  0.7381  0.1134  0.0495
 5699TIP3    H138656   3.387   3.260   8.310 -0.5872 -0.7492 -0.4212
 5699TIP3    H238657   3.423   3.127   8.246  0.5544 -1.0719  0.8306
 5700TIP3   OH238658   0.993   1.626   1.480  0.2105 -0.2755 -0.0644
 5700TIP3    H138659   0.998   1.545   1.532  0.8713 -0.0733  0.1936
 5700TIP3    H238660   1.025   1.601   1.393  1.8641  0.0384  0.4241
 5701TIP3   OH238661   4.754   6.021   8.761 -0.7652  0.1538 -0.1184
 5701TIP3    H138662   4.786   6.034   8.672  0.4071  2.5442  0.5767
 5701TIP3    H238663   4.662   6.001   8.751 -0.7547  0.8361 -1.8714
 5702TIP3   OH238664   2.341   1.588   7.894  0.0878  0.5202 -0.3680
 5702TIP3    H138665   2.340   1.588   7.798 -0.6686  1.2775 -0.3744
 5702TIP3    H238666   2.277   1.655   7.919  1.4081  1.4753  0.6522
 5703TIP3   OH238667   3.685   4.052   2.390 -0.8295  0.7735 -0.1184
 5703TIP3    H138668   3.664   4.145   2.398  0.6888  1.1348  0.0067
 5703TIP3    H238669   3.776   4.051   2.360 -0.4508 -0.6740  0.9905
 5704TIP3   OH238670   1.911   5.274   7.450 -0.1778 -0.4356 -0.2389
 5704TIP3    H138671   1.859   5.295   7.527  1.1994 -0.3655  0.7069
 5704TIP3    H238672   1.886   5.185   7.427 -2.7345  0.5085 -1.5358
 5705TIP3   OH238673   6.276   4.792   0.506  0.0185 -0.5124 -0.0359
 5705TIP3    H138674   6.368   4.817   0.494  0.0157 -1.1603 -1.6698
 5705TIP3    H238675   6.228   4.846   0.443 -0.7245 -0.2649  0.7250
 5706TIP3   OH238676   2.334   3.491   1.837 -0.2878 -0.4045 -0.3961
 5706TIP3    H138677   2.278   3.559   1.876  1.4561  0.9815 -0.2043
 5706TIP3    H238678   2.299   3.409   1.872 -0.1985  0.6303  2.3666
 5707TIP3   OH238679   3.422   1.883   0.693  0.1816 -0.1981 -0.2302
 5707TIP3    H138680   3.503   1.833   0.691  0.6017  0.4619 -0.1636
 5707TIP3    H238681   3.440   1.959   0.636  0.0546  0.6037  0.7702
 5708TIP3   OH238682   1.907   4.432   8.305 -0.2699 -0.5864  1.1801
 5708TIP3    H138683   1.819   4.396   8.315 -1.1944  0.7788 -1.3128
 5708TIP3    H238684   1.894   4.526   8.293  1.2685 -0.6412 -1.6936
 5709TIP3   OH238685   1.812   1.801   0.106 -0.2282 -0.0851 -0.7367
 5709TIP3    H138686   1.771   1.869   0.161 -1.1589 -0.9353 -0.3534
 5709TIP3    H238687   1.763   1.805   0.024  1.0251  1.0397 -1.4811
 5710TIP3   OH238688   3.599   4.933   8.571  0.0453  0.6853  0.3159
 5710TIP3    H138689   3.577   5.003   8.633  0.5941  3.0950 -2.0125
 5710TIP3    H238690   3.681   4.962   8.531  0.0614 -1.1113 -1.0314
 5711TIP3   OH238691   5.673   0.875   8.517  0.7462  0.2241 -0.4935
 5711TIP3    H138692   5.765   0.888   8.541  0.7885 -0.5815 -0.1818
 5711TIP3    H238693   5.659   0.933   8.443  1.4858  0.4283 -0.4768
 5712TIP3   OH238694   0.251   1.468   8.858 -0.4135  0.5650 -0.2404
 5712TIP3    H138695   0.201   1.420   8.924 -0.4943  1.2132  0.1746
 5712TIP3    H238696   0.198   1.545   8.838 -0.4376  0.3278 -1.1372
 5713TIP3   OH238697   4.498   0.693   8.806  0.3005 -0.2950  0.5219
 5713TIP3    H138698   4.452   0.609   8.808  1.5571 -0.9996  0.8035
 5713TIP3    H238699   4.531   0.705   8.895  0.6880  0.1874  0.3187
 5714TIP3   OH238700   0.931   4.354   8.433  0.0100 -0.3429 -0.1166
 5714TIP3    H138701   0.839   4.329   8.441  0.1447 -0.6470  0.5873
 5714TIP3    H238702   0.956   4.328   8.344 -0.4920 -0.5679 -0.1947
 5715TIP3   OH238703   6.760   2.375   6.328  0.1019 -0.6442  0.2642
 5715TIP3    H138704   6.852   2.383   6.353 -0.3067 -0.4109  1.7700
 5715TIP3    H238705   6.747   2.443   6.262  1.5556 -2.1661 -1.7226
 5716TIP3   OH238706   5.545   6.203   8.131  0.4111 -0.2272  0.2576
 5716TIP3    H138707   5.560   6.296   8.145  2.2183 -0.4722  0.2083
 5716TIP3    H238708   5.480   6.178   8.197 -0.5521  1.1564 -0.1129
 5717TIP3   OH238709   1.042   2.290   7.335 -0.3733 -0.0894 -0.1009
 5717TIP3    H138710   1.050   2.283   7.430 -1.4174  0.9439  0.0853
 5717TIP3    H238711   0.954   2.324   7.320  0.3241  1.3596 -1.3420
 5718TIP3   OH238712   2.903   0.967   8.197  0.4105  0.1279 -0.1977
 5718TIP3    H138713   2.972   1.022   8.235  1.2788 -1.5959  0.8494
 5718TIP3    H238714   2.907   0.985   8.103 -0.3140  2.8757  0.2144
 5719TIP3   OH238715   0.336   4.564   8.839 -0.2439 -0.2207  0.1594
 5719TIP3    H138716   0.421   4.584   8.878  0.8323 -2.5195 -0.8541
 5719TIP3    H238717   0.356   4.540   8.748 -1.9835 -0.7501 -0.1214
 5720TIP3   OH238718   5.778   2.165   8.477  0.3764 -0.4420 -0.4493
 5720TIP3    H138719   5.837   2.217   8.422  0.6002 -1.0112 -0.7541
 5720TIP3    H238720   5.764   2.085   8.428  1.9979 -1.7530  1.0880
 5721TIP3   OH238721   6.232   6.591   0.616 -0.3395  0.4555  0.3147
 5721TIP3    H138722   6.147   6.614   0.653  0.0670  1.0607  0.8997
 5721TIP3    H238723   6.281   6.554   0.689 -0.0291  0.2973  0.0309
 5722TIP3   OH238724   4.106   3.900   1.782  0.1092 -0.8264 -0.2635
 5722TIP3    H138725   4.133   3.826   1.836  3.0283 -0.4482 -1.0018
 5722TIP3    H238726   4.149   3.976   1.822 -0.4993 -0.0049 -1.1263
 5723TIP3   OH238727   3.834   3.635   8.486 -0.0429  0.0727 -0.3048
 5723TIP3    H138728   3.871   3.718   8.455  0.1872  0.7995  1.7807
 5723TIP3    H238729   3.739   3.648   8.482 -0.0035  0.6355  0.5062
 5724TIP3   OH238730   5.437   5.145   7.917 -0.0808  0.1914 -0.5686
 5724TIP3    H138731   5.471   5.058   7.936  0.2317  0.2887 -0.6740
 5724TIP3    H238732   5.515   5.201   7.910 -0.3330  0.8200  1.1003
 5725TIP3   OH238733   0.103   0.822   8.154  0.0798 -0.7600  0.5509
 5725TIP3    H138734   0.109   0.831   8.250  1.1216 -0.8764  0.5103
 5725TIP3    H238735   0.174   0.762   8.132 -0.4053 -1.0442 -0.2619
 5726TIP3   OH238736   6.452   4.980   6.927 -0.7364  0.3115  0.0105
 5726TIP3    H138737   6.364   4.996   6.892 -1.0504 -0.2489  0.5330
 5726TIP3    H238738   6.437   4.947   7.015  0.0147  0.5079  0.2161
 5727TIP3   OH238739   4.482   3.876   8.551 -0.4177  0.5760  0.5211
 5727TIP3    H138740   4.535   3.932   8.608 -0.1149  1.8578 -0.9602
 5727TIP3    H238741   4.540   3.802   8.530  0.3514  1.3213 -0.0542
 5728TIP3   OH238742   6.100   0.027   7.345  0.4529  0.1673 -0.0192
 5728TIP3    H138743   6.162  -0.011   7.407 -0.0109 -0.2771  0.1784
 5728TIP3    H238744   6.048  -0.047   7.315 -0.0572  0.5556 -0.0985
 5729TIP3   OH238745   2.352   0.148   7.550 -0.0745  0.4879 -0.3354
 5729TIP3    H138746   2.409   0.131   7.625  1.7415  1.5627 -1.3762
 5729TIP3    H238747   2.362   0.242   7.533  0.8945  0.0180 -2.8663
 5730TIP3   OH238748   2.262   6.448   7.390 -0.1169 -0.3840 -0.1523
 5730TIP3    H138749   2.275   6.476   7.481  0.5231 -0.0726 -0.3330
 5730TIP3    H238750   2.212   6.367   7.397 -1.7731  0.6335  0.3990
 5731TIP3   OH238751   4.289   3.705   7.862 -0.1006  0.2371  0.0821
 5731TIP3    H138752   4.275   3.768   7.791 -1.4273 -0.9377 -0.7602
 5731TIP3    H238753   4.383   3.685   7.858 -0.0610  0.5552 -1.0345
 5732TIP3   OH238754   3.467   5.632   0.778 -0.0785  0.1012 -0.0800
 5732TIP3    H138755   3.499   5.551   0.740 -1.5094  0.0580 -1.2717
 5732TIP3    H238756   3.455   5.691   0.703 -0.9328  0.7413  0.5386
 5733TIP3   OH238757   5.794   2.282   2.415 -0.1958  0.0675 -0.2163
 5733TIP3    H138758   5.851   2.290   2.491 -2.2200 -0.8506  1.4902
 5733TIP3    H238759   5.747   2.366   2.411  1.7126  1.1453 -2.1054
 5734TIP3   OH238760   4.061   0.910   2.228 -0.6507  0.0221  0.1493
 5734TIP3    H138761   4.149   0.881   2.204 -0.7150 -2.0581  2.1079
 5734TIP3    H238762   4.069   0.938   2.319 -1.9244  0.2963  0.1930
 5735TIP3   OH238763   2.461   3.386   7.821  0.1879 -0.3697 -0.0612
 5735TIP3    H138764   2.474   3.304   7.869 -0.1026 -0.4727 -0.1580
 5735TIP3    H238765   2.371   3.413   7.843  0.3896  0.0912  0.2294
 5736TIP3   OH238766   1.398   6.317   7.273 -0.0196 -0.2770 -0.3169
 5736TIP3    H138767   1.492   6.332   7.266 -0.2023  1.1634 -0.0169
 5736TIP3    H238768   1.360   6.405   7.275 -1.3002 -0.8167  0.4805
 5737TIP3   OH238769   3.324   3.745   8.447 -0.2913 -0.3304  0.3410
 5737TIP3    H138770   3.269   3.796   8.507  0.8219 -1.9091  2.8738
 5737TIP3    H238771   3.261   3.690   8.399 -1.1801  0.5341  0.4844
 5738TIP3   OH238772   2.629   0.545   8.493 -0.5741  0.4722 -0.5419
 5738TIP3    H138773   2.583   0.611   8.543  0.5300 -0.9064  2.5160
 5738TIP3    H238774   2.709   0.588   8.463 -1.0364  1.1943 -0.7645
 5739TIP3   OH238775   4.887   6.455   8.388  0.0686 -0.2433 -0.0127
 5739TIP3    H138776   4.941   6.496   8.455 -2.1500 -0.8715  2.2901
 5739TIP3    H238777   4.924   6.368   8.377 -1.0628 -1.0973  2.4052
 5740TIP3   OH238778   3.839   2.380   1.302 -0.1089  0.0787 -0.3682
 5740TIP3    H138779   3.755   2.421   1.320 -0.6914 -1.2293 -0.0503
 5740TIP3    H238780   3.819   2.304   1.247  0.4987 -1.7633  1.7860
 5741TIP3   OH238781   2.106   3.997   8.863  0.0945  0.0220  0.0667
 5741TIP3    H138782   2.034   3.990   8.800  0.3856  0.9898 -0.4021
 5741TIP3    H238783   2.063   4.012   8.947 -0.2618  0.5710 -0.2061
 5742TIP3   OH238784   6.243   6.487   1.406 -0.8177 -0.0584  0.3128
 5742TIP3    H138785   6.148   6.485   1.399 -0.7579 -2.6611 -0.9631
 5742TIP3    H238786   6.271   6.402   1.373  1.9484  0.4836  1.0245
 5743TIP3   OH238787   4.928   5.494   7.773 -0.3095 -0.1518  0.7959
 5743TIP3    H138788   4.837   5.473   7.794 -0.5404  0.3736  0.3553
 5743TIP3    H238789   4.930   5.496   7.677 -0.5830  2.8435  0.7515
 5744TIP3   OH238790   5.585   2.620   0.797 -0.2405  0.2718  0.2454
 5744TIP3    H138791   5.636   2.688   0.752 -1.3211  0.9991  0.0771
 5744TIP3    H238792   5.650   2.560   0.832  0.8628  2.3244  1.9149
 5745TIP3   OH238793   3.426   0.262   1.969  0.3270 -0.2949  0.1610
 5745TIP3    H138794   3.389   0.308   2.044 -0.0535  2.1392 -1.4292
 5745TIP3    H238795   3.511   0.229   2.001  0.1675  0.6402  1.6457
 5746TIP3   OH238796   4.594   5.845   7.997  0.5980  0.2611 -0.4441
 5746TIP3    H138797   4.632   5.788   8.063  0.7786 -1.0733 -1.6695
 5746TIP3    H238798   4.644   5.828   7.918  0.6863  2.1694 -0.8456
 5747TIP3   OH238799   3.131   2.335   8.335  0.4066  0.8958  0.5401
 5747TIP3    H138800   3.215   2.326   8.290  0.7520  0.1907  1.3147
 5747TIP3    H238801   3.073   2.373   8.269  1.3750  1.5655  0.0553
 5748TIP3   OH238802   5.528   1.338   8.513  0.1264 -0.3083 -0.1287
 5748TIP3    H138803   5.518   1.279   8.438 -1.6100 -0.1508 -0.0641
 5748TIP3    H238804   5.445   1.330   8.560  0.1308  1.6212  0.2904
 5749TIP3   OH238805   4.896   1.755   1.400  0.2167 -0.2334  0.4796
 5749TIP3    H138806   4.868   1.818   1.466  1.4162 -0.6240  1.3864
 5749TIP3    H238807   4.960   1.801   1.347  0.9755 -0.6263  1.0433
 5750TIP3   OH238808   2.910   3.297   2.275 -0.0860 -0.0703 -0.6887
 5750TIP3    H138809   2.914   3.255   2.361 -1.5179 -0.2656 -0.7021
 5750TIP3    H238810   2.998   3.333   2.262  0.5149 -1.1382  0.2924
 5751TIP3   OH238811   3.358   6.070   8.882 -0.5747 -0.2655 -0.4000
 5751TIP3    H138812   3.440   6.093   8.926 -0.2866  0.8097 -1.4331
 5751TIP3    H238813   3.309   6.152   8.878 -0.7266 -0.3951 -1.7563
 5752TIP3   OH238814   4.899   1.994   6.891 -0.2371  0.1301 -0.0970
 5752TIP3    H138815   4.943   2.075   6.919 -0.3575 -0.0030  0.4864
 5752TIP3    H238816   4.970   1.940   6.857 -0.0560  0.2077  0.1545
 5753TIP3   OH238817   3.488   3.040   0.585  0.3825  0.1462  0.2600
 5753TIP3    H138818   3.458   2.993   0.662  0.8370  1.0253  1.0013
 5753TIP3    H238819   3.495   3.131   0.614 -1.2918  0.8498 -1.3464
 5754TIP3   OH238820   2.072   4.284   0.588  0.2987  0.6625 -0.2381
 5754TIP3    H138821   2.135   4.353   0.567 -0.9169  1.7696 -0.4106
 5754TIP3    H238822   2.006   4.289   0.519  0.7687 -1.4746 -0.9009
 5755TIP3   OH238823   5.083   1.170   7.425 -0.1409 -0.3694 -0.3666
 5755TIP3    H138824   5.037   1.118   7.359  1.6195  0.4812 -2.3891
 5755TIP3    H238825   5.169   1.187   7.386  0.5460  1.2098  1.6581
 5756TIP3   OH238826   5.951   4.682   0.319 -0.4709 -0.8238 -0.7020
 5756TIP3    H138827   5.973   4.625   0.392 -2.8574 -0.4975  0.3447
 5756TIP3    H238828   5.908   4.757   0.359  2.1110  1.6085 -2.0795
 5757TIP3   OH238829   2.162   0.365   0.232 -0.0644  0.4853  0.4392
 5757TIP3    H138830   2.132   0.455   0.216 -0.2244  0.1609 -1.3175
 5757TIP3    H238831   2.230   0.351   0.166 -0.0428 -0.6985  0.7035
 5758TIP3   OH238832   0.333   0.850   7.500 -0.0010  0.0218 -0.2201
 5758TIP3    H138833   0.403   0.852   7.434 -0.0491  0.9861 -0.2610
 5758TIP3    H238834   0.257   0.814   7.454  0.3918 -0.7968 -0.2470
 5759TIP3   OH238835   5.583   6.602   0.784  0.1648  0.6815  0.8277
 5759TIP3    H138836   5.636   6.600   0.864 -0.7780  1.2775  1.4822
 5759TIP3    H238837   5.566   6.694   0.768  0.8197  0.6072 -0.4041
 5760TIP3   OH238838   5.517   3.534   0.076  0.9038 -0.2645 -0.0077
 5760TIP3    H138839   5.542   3.443   0.059  2.1185  0.3463 -1.7622
 5760TIP3    H238840   5.564   3.556   0.157 -0.0306 -1.3936  0.8838
 5761TIP3   OH238841   2.606   2.674   8.437 -0.0392 -0.2303  0.1536
 5761TIP3    H138842   2.691   2.709   8.464 -0.5415  2.6415 -1.6521
 5761TIP3    H238843   2.543   2.718   8.494 -0.3934 -3.4789  2.5552
 5762TIP3   OH238844   6.624   1.581   0.894  0.4185  0.3184 -0.0724
 5762TIP3    H138845   6.613   1.496   0.850  0.2279  0.1779  0.2410
 5762TIP3    H238846   6.717   1.585   0.916  0.8140  0.9969 -1.7048
 5763TIP3   OH238847   2.587   4.047   8.136 -0.0931  0.4160 -0.3914
 5763TIP3    H138848   2.658   4.108   8.114  1.8247 -1.5280  0.0502
 5763TIP3    H238849   2.586   3.984   8.064 -1.1465  0.2045 -0.2099
 5764TIP3   OH238850   2.351   2.729   7.632  0.5715  0.4644  0.4242
 5764TIP3    H138851   2.313   2.743   7.545  0.1913 -0.6344  0.3983
 5764TIP3    H238852   2.346   2.814   7.675 -0.9336  0.5886  0.0324
 5765TIP3   OH238853   5.741   1.063   0.520  0.2204  0.1971  0.3296
 5765TIP3    H138854   5.703   1.129   0.578  0.0337 -0.3108  0.7937
 5765TIP3    H238855   5.731   1.100   0.432 -1.3572  0.0963  0.4291
 5766TIP3   OH238856   6.020   5.920   7.890 -0.1786 -0.4786  0.0560
 5766TIP3    H138857   5.968   5.973   7.950  0.2278  0.1838 -0.1683
 5766TIP3    H238858   6.091   5.978   7.863  0.0476 -1.0127 -0.4983
 5767TIP3   OH238859   0.255   4.905   8.549 -0.2962  0.1113  0.0489
 5767TIP3    H138860   0.164   4.887   8.528 -0.2960 -0.5167  0.5276
 5767TIP3    H238861   0.299   4.820   8.542  0.4249  0.5455 -0.9822
 5768TIP3   OH238862   3.437   3.965   0.045  0.1968 -0.0214 -0.4670
 5768TIP3    H138863   3.445   3.982   0.139  0.4121  1.3247 -0.7005
 5768TIP3    H238864   3.355   3.916   0.036 -0.1603  0.4027  0.3620
 5769TIP3   OH238865   0.361   4.807   8.212 -0.6613 -0.4131  0.0112
 5769TIP3    H138866   0.434   4.869   8.201 -0.3986 -0.7105  0.0662
 5769TIP3    H238867   0.397   4.737   8.266 -0.0620 -2.0982 -2.4313
 5770TIP3   OH238868   4.119   3.590   8.469 -0.5608 -0.2594 -0.4124
 5770TIP3    H138869   4.162   3.506   8.453 -0.9710 -0.5296 -0.1049
 5770TIP3    H238870   4.182   3.656   8.437 -0.4201 -0.6954 -1.0596
 5771TIP3   OH238871   2.596   5.555   1.300 -0.2214  0.1378 -0.6137
 5771TIP3    H138872   2.586   5.502   1.220 -0.1558  0.3413 -0.7588
 5771TIP3    H238873   2.506   5.567   1.331 -0.3935  1.3191 -1.4952
 5772TIP3   OH238874   4.240   1.976   1.940  0.0377  0.1599 -0.8053
 5772TIP3    H138875   4.227   2.058   1.988 -2.3094  0.4483 -1.7883
 5772TIP3    H238876   4.215   1.907   2.002 -0.7166  0.3788 -0.8607
 5773TIP3   OH238877   3.418   5.810   0.006 -0.3095 -0.2741 -0.2839
 5773TIP3    H138878   3.412   5.903  -0.013  1.4050 -0.3164 -1.1787
 5773TIP3    H238879   3.407   5.767  -0.080  0.6923 -0.7853 -0.1766
 5774TIP3   OH238880   1.062   0.908   8.823  0.1114 -0.0349  0.1276
 5774TIP3    H138881   1.113   0.931   8.900  0.8358  1.9009 -0.8688
 5774TIP3    H238882   1.128   0.891   8.755 -0.3579 -4.4123  0.4805
 5775TIP3   OH238883   4.876   0.360   2.629  0.3728  0.2402  0.5558
 5775TIP3    H138884   4.910   0.305   2.558 -2.6641 -1.0907 -0.0061
 5775TIP3    H238885   4.896   0.449   2.602  0.6116 -0.3166 -1.2388
 5776TIP3   OH238886   0.732   5.311   1.388 -0.1923  0.0837 -0.1356
 5776TIP3    H138887   0.716   5.227   1.344 -2.7477  0.3178  0.2190
 5776TIP3    H238888   0.817   5.299   1.431 -0.0577 -1.9860 -0.8508
 5777TIP3   OH238889   6.634   5.410   7.255 -0.2624 -0.0365  0.0025
 5777TIP3    H138890   6.684   5.350   7.311  0.0904  0.3728  0.1303
 5777TIP3    H238891   6.697   5.439   7.188 -0.4566  0.1121 -0.1174
 5778TIP3   OH238892   0.344   3.890   1.366 -0.3249 -0.2782  0.0371
 5778TIP3    H138893   0.347   3.828   1.439 -0.0911 -0.3005  0.0101
 5778TIP3    H238894   0.432   3.888   1.329 -0.2254  0.3023  0.2290
 5779TIP3   OH238895   6.433   4.949   0.778 -0.1717  0.2218 -0.0191
 5779TIP3    H138896   6.411   4.856   0.785 -1.0668  0.3254 -1.2099
 5779TIP3    H238897   6.503   4.953   0.712  0.9161  0.2701  1.0966
 5780TIP3   OH238898   1.398   0.096   1.357  0.0830  0.8484 -0.1070
 5780TIP3    H138899   1.377   0.164   1.292  1.8745 -0.2275 -1.9582
 5780TIP3    H238900   1.369   0.014   1.315  1.3056  0.1258  0.4206
 5781TIP3   OH238901   6.067   0.274   8.517 -0.3397  0.1091  0.2470
 5781TIP3    H138902   5.995   0.252   8.576 -0.4615 -1.2790 -0.3999
 5781TIP3    H238903   6.123   0.197   8.516  1.7719  1.4987  1.5311
 5782TIP3   OH238904   5.677   4.383   1.567  0.4929  0.2007 -0.3051
 5782TIP3    H138905   5.672   4.402   1.474  1.0771  1.5016 -0.1051
 5782TIP3    H238906   5.589   4.357   1.592  0.5880 -1.3175 -1.4301
 5783TIP3   OH238907   0.415   2.117   6.372  0.3287  0.1168 -0.2684
 5783TIP3    H138908   0.349   2.148   6.434  0.4437  1.4328 -0.7545
 5783TIP3    H238909   0.414   2.022   6.380 -0.1366  0.2206  1.2525
 5784TIP3   OH238910   4.991   3.006   0.747 -0.2396  0.1761 -0.7164
 5784TIP3    H138911   5.021   2.955   0.672 -1.2617  0.3490 -1.2544
 5784TIP3    H238912   4.979   2.941   0.817  2.0480  0.1899 -0.2393
 5785TIP3   OH238913   2.954   6.472   8.710 -0.1055 -0.3694  0.1300
 5785TIP3    H138914   2.936   6.560   8.745  3.3190  0.0703  1.2112
 5785TIP3    H238915   2.899   6.414   8.762 -0.3678  0.9241  1.3785
 5786TIP3   OH238916   5.157   5.119   0.727 -0.6327  0.1612 -0.3271
 5786TIP3    H138917   5.160   5.025   0.746  2.3411  0.2491  0.2038
 5786TIP3    H238918   5.174   5.125   0.633 -2.0177  0.1669 -0.5946
 5787TIP3   OH238919   4.031   2.615   0.045  0.6325 -0.1172  0.0109
 5787TIP3    H138920   4.039   2.624   0.140  1.5471 -0.6390 -0.0004
 5787TIP3    H238921   3.962   2.676   0.020 -0.7040 -1.0628  1.1943
 5788TIP3   OH238922   1.984   1.117   6.564 -0.4179  0.2070  0.5914
 5788TIP3    H138923   2.058   1.142   6.509  1.6580 -1.2693  2.4956
 5788TIP3    H238924   1.956   1.198   6.605  0.1081  0.8103 -0.2200
 5789TIP3   OH238925   5.177   2.158   0.480 -0.3400  0.0600  0.1256
 5789TIP3    H138926   5.186   2.190   0.570 -0.9688  1.5455 -0.3082
 5789TIP3    H238927   5.180   2.237   0.426  0.7369 -0.8583 -1.2356
 5790TIP3   OH238928   5.754   0.322   6.349  0.2616  0.4402  0.2046
 5790TIP3    H138929   5.760   0.299   6.256 -2.0903  0.2984  0.0180
 5790TIP3    H238930   5.730   0.414   6.350 -2.6373 -0.2264  0.4927
 5791TIP3   OH238931   3.130   5.540   7.098 -0.4636 -0.6791  0.4003
 5791TIP3    H138932   3.146   5.458   7.143  1.6253 -0.1561  0.7193
 5791TIP3    H238933   3.205   5.595   7.120 -0.4170  0.3495 -2.0002
 5792TIP3   OH238934   2.695   6.382   8.563  0.0182 -0.3851 -0.4271
 5792TIP3    H138935   2.683   6.287   8.566  0.6469 -0.4743 -0.8446
 5792TIP3    H238936   2.742   6.403   8.644 -0.4509 -0.3777 -0.1517
 5793TIP3   OH238937   3.144   1.482   2.028 -0.4951 -0.8092  0.0651
 5793TIP3    H138938   3.114   1.421   2.095 -1.5295  0.2997  0.6392
 5793TIP3    H238939   3.222   1.522   2.065 -0.3201 -1.1379  0.0554
 5794TIP3   OH238940   4.814   0.042   8.429  0.1149 -0.0307  0.0390
 5794TIP3    H138941   4.895  -0.007   8.413 -0.8031 -1.1309 -1.5478
 5794TIP3    H238942   4.745  -0.025   8.430 -0.6075  0.5753  3.6419
 5795TIP3   OH238943   4.971   1.029   6.926  0.1738  0.2465  0.0580
 5795TIP3    H138944   5.002   1.104   6.875  1.5301  0.5070  1.1956
 5795TIP3    H238945   5.012   0.953   6.885  0.3718  0.3441  0.0706
 5796TIP3   OH238946   1.486   2.168   1.736  0.5097  0.0727 -0.1028
 5796TIP3    H138947   1.576   2.199   1.730  0.2941  0.5626 -1.0309
 5796TIP3    H238948   1.490   2.077   1.708  0.2440  1.0254 -3.6486
 5797TIP3   OH238949   3.891   6.439   0.338 -0.2494  0.4668 -0.5497
 5797TIP3    H138950   3.860   6.452   0.248 -0.2142 -1.2222 -0.8413
 5797TIP3    H238951   3.919   6.348   0.341  3.8593  1.5313 -0.0508
 5798TIP3   OH238952   5.637   5.381   6.457  0.8176  0.0717  0.0212
 5798TIP3    H138953   5.581   5.456   6.438  1.9508  0.7244 -0.9138
 5798TIP3    H238954   5.619   5.319   6.386  1.2004  0.2503 -0.2381
 5799TIP3   OH238955   2.843   1.246   6.552 -0.8823 -0.7791 -0.1662
 5799TIP3    H138956   2.860   1.339   6.542 -0.1391 -0.7675  1.0195
 5799TIP3    H238957   2.753   1.234   6.523 -1.2503  0.4500  0.4319
 5800TIP3   OH238958   4.535   5.807   8.907 -0.2665 -0.1883  0.3488
 5800TIP3    H138959   4.448   5.847   8.899 -0.8820 -1.7530 -1.5639
 5800TIP3    H238960   4.522   5.735   8.968 -0.2882 -0.3678  0.1318
 5801TIP3   OH238961   0.701   4.346   1.538  0.2028  0.2767  0.0441
 5801TIP3    H138962   0.606   4.337   1.544  0.1390  0.6658 -0.3869
 5801TIP3    H238963   0.728   4.367   1.627 -0.2068  1.0114  0.0052
 5802TIP3   OH238964   2.552   3.328   1.412 -0.1203  0.3933  0.2460
 5802TIP3    H138965   2.591   3.416   1.413 -0.7349  0.6969 -0.6993
 5802TIP3    H238966   2.625   3.270   1.392 -0.0281  0.8955 -0.9402
 5803TIP3   OH238967   2.456   6.199   0.612  0.5888  0.0384  0.1759
 5803TIP3    H138968   2.374   6.206   0.660  0.0208  0.0419 -0.7773
 5803TIP3    H238969   2.443   6.127   0.550  1.2719  0.0884 -0.0434
 5804TIP3   OH238970   3.718   1.863   2.968  0.3060  0.4029  0.1822
 5804TIP3    H138971   3.679   1.944   3.002 -2.4098 -0.5043 -0.4925
 5804TIP3    H238972   3.716   1.873   2.873  1.2751  0.1004  0.1244
 5805TIP3   OH238973   1.878   6.593   8.335 -0.0158  0.4915 -0.3993
 5805TIP3    H138974   1.886   6.522   8.400  0.9882 -0.4892 -1.5497
 5805TIP3    H238975   1.944   6.573   8.269 -0.4209  1.9534 -1.2975
 5806TIP3   OH238976   6.761   6.011   1.950  0.2845 -0.1268 -0.0089
 5806TIP3    H138977   6.845   6.003   1.905  1.0161  0.5914  1.1694
 5806TIP3    H238978   6.779   5.987   2.041 -1.1055 -1.3407 -0.0082
 5807TIP3   OH238979   5.188   5.585   0.010 -0.5456  0.0219 -0.0447
 5807TIP3    H138980   5.137   5.507  -0.010 -0.2008 -0.4824  0.9194
 5807TIP3    H238981   5.177   5.642  -0.066 -0.2411 -1.2564 -1.0848
 5808TIP3   OH238982   1.447   4.025   1.595  0.8265 -0.2768  0.7347
 5808TIP3    H138983   1.500   3.981   1.662  0.4865  0.3558  1.4243
 5808TIP3    H238984   1.357   4.011   1.623  0.7016  0.4999  0.7301
 5809TIP3   OH238985   1.926   3.015   1.735 -0.5286 -0.1114 -0.4738
 5809TIP3    H138986   1.964   3.057   1.813 -1.5003  0.6685 -0.3932
 5809TIP3    H238987   1.929   2.922   1.755 -0.4696  0.0564  0.3682
 5810TIP3   OH238988   2.846   2.652   7.519 -0.4836  0.2446  0.3424
 5810TIP3    H138989   2.902   2.611   7.454 -0.0402 -0.7846  1.3528
 5810TIP3    H238990   2.821   2.581   7.578  0.9451  1.5216  2.6028
 5811TIP3   OH238991   6.756   3.864   6.785 -0.4361  0.1604  0.0412
 5811TIP3    H138992   6.696   3.846   6.712  0.7439 -0.8934 -0.7160
 5811TIP3    H238993   6.844   3.853   6.747  0.2155  0.0959  1.5000
 5812TIP3   OH238994   2.801   5.381   2.780  0.2014  0.1421 -0.0577
 5812TIP3    H138995   2.849   5.456   2.815 -0.8820  1.4576 -1.2707
 5812TIP3    H238996   2.858   5.344   2.713  0.6016  0.0681  0.3196
 5813TIP3   OH238997   4.508   2.865   7.435 -0.2918  0.5598  0.3028
 5813TIP3    H138998   4.449   2.874   7.510  1.3466 -0.6139  1.8181
 5813TIP3    H238999   4.510   2.771   7.417 -0.1849  0.7684 -0.8216
 5814TIP3   OH239000   4.619   1.370   7.266 -0.2970  0.1002  0.0333
 5814TIP3    H139001   4.679   1.296   7.277 -0.3752 -0.0566 -0.6114
 5814TIP3    H239002   4.676   1.442   7.237 -0.3662  0.0543 -0.2105
 5815TIP3   OH239003   3.647   2.612   1.638  0.1443 -0.3714  0.0780
 5815TIP3    H139004   3.640   2.558   1.559 -0.2195  0.4870 -0.4826
 5815TIP3    H239005   3.560   2.649   1.649  0.7206  1.1533 -0.3065
 5816TIP3   OH239006   6.723   0.423   6.821  0.4378 -0.2795 -0.0144
 5816TIP3    H139007   6.768   0.385   6.746 -0.4229  0.1623 -0.7738
 5816TIP3    H239008   6.760   0.512   6.829  0.3617 -0.2439 -0.0592
 5817TIP3   OH239009   6.620   4.709   8.348  0.1393  0.5711 -0.0418
 5817TIP3    H139010   6.578   4.631   8.383  0.5587  0.6517  0.6625
 5817TIP3    H239011   6.575   4.726   8.266  0.3958 -0.7095 -0.4691
 5818TIP3   OH239012   4.192   3.421   0.345  0.3670 -0.3568  0.7096
 5818TIP3    H139013   4.274   3.383   0.376  1.1441  2.1020  1.9651
 5818TIP3    H239014   4.211   3.515   0.337 -1.9550  0.1031 -0.2670
 5819TIP3   OH239015   6.501   3.057   0.432  0.2345  0.2374 -0.4267
 5819TIP3    H139016   6.438   3.105   0.378  0.1986 -0.3183 -0.8803
 5819TIP3    H239017   6.451   3.026   0.507  0.7188  2.8840  1.1222
 5820TIP3   OH239018   5.080   5.863   8.104 -0.1817  0.1161  0.2528
 5820TIP3    H139019   5.056   5.927   8.171 -0.5157  0.9448 -0.6471
 5820TIP3    H239020   5.022   5.788   8.121 -1.1401  0.8102  0.1397
 5821TIP3   OH239021   0.483   1.876   0.900 -0.2975 -0.0584 -0.6240
 5821TIP3    H139022   0.529   1.868   0.817 -3.0487 -2.4565 -2.1333
 5821TIP3    H239023   0.494   1.790   0.942 -1.6481 -0.0151 -0.1222
 5822TIP3   OH239024   4.200   6.381   0.448 -0.3643  0.1366  0.0818
 5822TIP3    H139025   4.171   6.335   0.527 -1.5892 -0.4421 -0.6772
 5822TIP3    H239026   4.285   6.343   0.428  0.2264  0.6892  1.4306
 5823TIP3   OH239027   4.746   5.654   8.151  0.4382  0.1969  0.3322
 5823TIP3    H139028   4.742   5.558   8.153  1.6527  0.1347  0.3861
 5823TIP3    H239029   4.838   5.674   8.167 -0.0035  1.4103  1.5469
 5824TIP3   OH239030   4.715   4.295   2.042  0.0281  0.5071 -0.0249
 5824TIP3    H139031   4.702   4.256   2.128  1.6946 -1.3994 -0.5538
 5824TIP3    H239032   4.799   4.340   2.049 -0.5012  1.5819 -0.2884
 5825TIP3   OH239033   6.728   1.777   6.928  0.3688  0.1592  0.4216
 5825TIP3    H139034   6.654   1.826   6.961 -0.2306  0.0270 -0.6563
 5825TIP3    H239035   6.731   1.698   6.981 -1.9880 -1.1470 -1.2132
 5826TIP3   OH239036   0.293   1.224   6.738 -0.9298  0.2287  0.2772
 5826TIP3    H139037   0.384   1.199   6.719 -0.4592  0.5376  1.9423
 5826TIP3    H239038   0.259   1.256   6.655  0.7171  0.7666 -0.2299
 5827TIP3   OH239039   4.092   6.482   8.585 -0.0178  0.6036  0.2560
 5827TIP3    H139040   4.043   6.467   8.666 -2.4468 -1.8370 -1.4867
 5827TIP3    H239041   4.137   6.400   8.568  0.1484  0.9323 -1.0460
 5828TIP3   OH239042   2.877   3.965   7.878  0.1513 -0.2649 -0.7814
 5828TIP3    H139043   2.788   3.998   7.871  0.6008  1.3438  0.3632
 5828TIP3    H239044   2.931   4.044   7.880  1.5406 -1.1804 -0.6997
 5829TIP3   OH239045   6.425   6.497   1.609  0.2673  0.0528 -0.0868
 5829TIP3    H139046   6.373   6.490   1.529 -0.8026  0.7146  0.5237
 5829TIP3    H239047   6.512   6.466   1.584  0.7136  2.6444 -2.1998
 5830TIP3   OH239048   0.921   6.019   7.196 -0.2604 -0.3010 -0.2274
 5830TIP3    H139049   0.955   5.942   7.242  0.9013  0.5227  0.3323
 5830TIP3    H239050   0.891   6.077   7.266  0.8668  0.6651 -0.5107
 5831TIP3   OH239051   1.090   5.114   7.441 -0.1296  0.4790 -0.8618
 5831TIP3    H139052   1.102   5.074   7.355  0.2774  0.5456 -0.8384
 5831TIP3    H239053   1.112   5.206   7.429  7.2577 -0.4410  0.6889
 5832TIP3   OH239054   5.001   1.497   7.243 -0.5129 -0.0394 -0.4418
 5832TIP3    H139055   5.041   1.530   7.162 -0.3447  0.0933 -0.3057
 5832TIP3    H239056   4.992   1.575   7.299 -0.7979 -0.1000 -0.4031
 5833TIP3   OH239057   0.875   3.756   1.210  0.6770 -0.5801  0.0409
 5833TIP3    H139058   0.970   3.770   1.212  0.8463 -1.7143  0.8145
 5833TIP3    H239059   0.865   3.673   1.164  0.1747 -1.2502  1.3181
 5834TIP3   OH239060   3.020   0.663   7.026  0.1571 -0.7591  0.3423
 5834TIP3    H139061   3.114   0.683   7.018 -0.3755  1.3350 -1.8194
 5834TIP3    H239062   3.012   0.620   7.111  2.9089  0.0417  1.1155
 5835TIP3   OH239063   2.033   4.301   7.183  0.1272 -0.3017  0.0936
 5835TIP3    H139064   1.943   4.274   7.204 -0.5746  0.3597 -1.8850
 5835TIP3    H239065   2.059   4.246   7.109  1.7255 -1.0943  1.1815
 5836TIP3   OH239066   0.298   0.775   7.112  0.8938 -0.1331 -0.7325
 5836TIP3    H139067   0.373   0.721   7.136 -0.0379 -1.2929 -0.3528
 5836TIP3    H239068   0.259   0.730   7.037  0.5876  0.4733 -0.9447
 5837TIP3   OH239069   2.074   1.223   2.360 -0.2387  0.2562  0.9247
 5837TIP3    H139070   2.084   1.262   2.447 -0.1388  0.4253  0.8392
 5837TIP3    H239071   2.093   1.295   2.299  0.1289  0.0284  0.7655
 5838TIP3   OH239072   4.265   0.183   6.781  0.5655 -0.3183 -0.5090
 5838TIP3    H139073   4.222   0.172   6.697 -0.0623  1.7067 -0.5022
 5838TIP3    H239074   4.352   0.217   6.760 -0.2142  1.9344 -0.3500
 5839TIP3   OH239075   5.968   1.492   8.468  0.1436 -0.1292  0.4559
 5839TIP3    H139076   5.933   1.418   8.518  1.2764 -1.3659 -0.5014
 5839TIP3    H239077   5.896   1.517   8.410 -1.4152  1.7337  2.9999
 5840TIP3   OH239078   1.115   6.602   7.451 -0.0353 -0.2274  0.0982
 5840TIP3    H139079   1.185   6.585   7.388  0.2499 -2.3009  0.8911
 5840TIP3    H239080   1.146   6.678   7.501 -0.4720  1.7871 -2.4366
 5841TIP3   OH239081   0.825   0.427   0.479 -0.1902  0.5141  0.3123
 5841TIP3    H139082   0.831   0.380   0.395 -0.3469  2.9624 -1.1484
 5841TIP3    H239083   0.873   0.371   0.540  1.1758 -0.6836 -1.7108
 5842TIP3   OH239084   3.015   2.291   1.031 -0.1180 -0.4835 -0.1016
 5842TIP3    H139085   2.926   2.265   1.057 -0.1983  0.1747  0.3004
 5842TIP3    H239086   3.029   2.247   0.947 -0.4358 -1.4213  0.3198
 5843TIP3   OH239087   0.337   1.187   8.797  0.3165 -0.8877  0.1117
 5843TIP3    H139088   0.412   1.193   8.737  0.1309  0.9529 -0.0133
 5843TIP3    H239089   0.369   1.135   8.870  1.9429  0.3159  0.3163
 5844TIP3   OH239090   0.023   0.494   8.329  1.3654 -0.0794 -0.6231
 5844TIP3    H139091   0.061   0.480   8.242  3.4430  0.9582  0.0361
 5844TIP3    H239092   0.069   0.431   8.385  1.0301  0.1826 -0.0426
 5845TIP3   OH239093   4.608   1.271   6.899  0.5120  0.1663  0.0841
 5845TIP3    H139094   4.667   1.321   6.955 -0.2707  0.6955  0.4540
 5845TIP3    H239095   4.633   1.295   6.810  0.5839  0.7112  0.2477
 5846TIP3   OH239096   3.502   4.667   7.922 -0.3563  0.1696 -0.1194
 5846TIP3    H139097   3.453   4.730   7.868 -0.4286  1.2343  1.1205
 5846TIP3    H239098   3.573   4.638   7.866  0.4268  2.3333 -0.3579
 5847TIP3   OH239099   2.818   4.317   7.236 -0.0913 -0.0120  0.1522
 5847TIP3    H139100   2.814   4.383   7.166  1.1141 -0.9470 -0.8580
 5847TIP3    H239101   2.775   4.240   7.198 -1.6702  0.2223  1.3928
 5848TIP3   OH239102   5.712   0.870   6.893 -0.0290 -0.3993  0.3342
 5848TIP3    H139103   5.651   0.942   6.911 -0.9890 -1.1263  0.0503
 5848TIP3    H239104   5.751   0.892   6.808 -0.7239 -0.4817 -0.0114
 5849TIP3   OH239105   3.140   5.040   8.791 -0.6737 -0.3419  0.3060
 5849TIP3    H139106   3.050   5.060   8.765 -0.5063 -1.0765 -0.9407
 5849TIP3    H239107   3.178   4.999   8.714  0.6571 -0.2971  0.9111
 5850TIP3   OH239108   1.823   2.139   8.160  0.4798 -0.0018  0.3731
 5850TIP3    H139109   1.893   2.196   8.128  0.8857 -0.5527  0.2616
 5850TIP3    H239110   1.808   2.167   8.251 -2.6634  3.5457 -0.9493
 5851TIP3   OH239111   3.170   4.616   1.630  0.6512 -0.0665  0.0642
 5851TIP3    H139112   3.264   4.624   1.614  0.3314  0.7680 -1.6013
 5851TIP3    H239113   3.142   4.704   1.654 -0.2035  0.5250 -2.6853
 5852TIP3   OH239114   2.794   3.074   0.491  0.0777  0.1747  0.1937
 5852TIP3    H139115   2.749   3.035   0.416  1.8946 -1.5934 -0.0635
 5852TIP3    H239116   2.850   3.142   0.451 -0.9438  1.1143  0.3080
 5853TIP3   OH239117   5.710   3.933   8.440  0.1367  0.6434 -0.5776
 5853TIP3    H139118   5.784   3.951   8.499  0.9219 -1.8923 -0.6968
 5853TIP3    H239119   5.715   3.839   8.423 -2.3657  0.6376 -1.6557
 5854TIP3   OH239120   3.792   2.520   8.237  0.3496  0.2997  0.0354
 5854TIP3    H139121   3.702   2.513   8.268  0.8751  0.4709  1.7204
 5854TIP3    H239122   3.844   2.480   8.307  1.5503 -0.3006 -1.1503
 5855TIP3   OH239123   3.958   0.548   1.464 -0.2723  0.5196  0.4019
 5855TIP3    H139124   3.923   0.512   1.383 -0.6627  1.6704  0.0465
 5855TIP3    H239125   3.993   0.634   1.440  2.2693 -0.2791  0.8463
 5856TIP3   OH239126   1.590   4.483   6.504  0.5337  0.0123 -0.2167
 5856TIP3    H139127   1.519   4.466   6.441  0.0507  0.4842  0.1885
 5856TIP3    H239128   1.641   4.552   6.464  0.9392 -0.5268 -0.6426
 5857TIP3   OH239129   2.017   6.256   7.936  0.5723  0.6083  0.4199
 5857TIP3    H139130   2.070   6.186   7.899  0.1229  0.5863 -0.1938
 5857TIP3    H239131   2.004   6.317   7.864  0.5011  1.0545  0.8054
 5858TIP3   OH239132   1.977   3.612   7.207  0.2774  0.5803  0.9901
 5858TIP3    H139133   1.943   3.683   7.262 -2.1922 -0.8531  1.4406
 5858TIP3    H239134   2.028   3.558   7.267  0.1957  0.7014  1.1716
 5859TIP3   OH239135   0.146   4.196   0.249  0.0406 -0.0883 -0.5380
 5859TIP3    H139136   0.078   4.134   0.275 -0.3797  0.3276 -0.6194
 5859TIP3    H239137   0.216   4.142   0.213  0.7075 -0.7021  1.5667
 5860TIP3   OH239138   1.271   1.563   0.076 -0.2053 -0.4333  0.0764
 5860TIP3    H139139   1.280   1.622   0.001 -0.1958 -0.9528 -0.3324
 5860TIP3    H239140   1.177   1.554   0.088 -0.2450 -1.8500 -1.0731
 5861TIP3   OH239141   0.823   3.040   2.463  0.1486  0.0573  0.1440
 5861TIP3    H139142   0.846   3.098   2.390  2.7847  0.0770  0.8802
 5861TIP3    H239143   0.822   3.097   2.540  1.7144 -0.6231  0.7138
 5862TIP3   OH239144   5.209   2.180   7.872  0.3646 -0.0343 -0.3853
 5862TIP3    H139145   5.172   2.188   7.960  0.1560  0.5388 -0.5184
 5862TIP3    H239146   5.304   2.182   7.885  0.3434 -0.4473 -0.1352
 5863TIP3   OH239147   1.183   5.457   6.991 -0.1588 -0.3165 -1.0625
 5863TIP3    H139148   1.279   5.449   6.996 -0.1219 -0.4174 -1.8227
 5863TIP3    H239149   1.166   5.547   7.019 -0.0095 -0.8250  0.8331
 5864TIP3   OH239150   1.776   3.966   7.520  0.6917 -0.2083 -0.2405
 5864TIP3    H139151   1.706   4.014   7.474  0.0621  0.8914  1.7088
 5864TIP3    H239152   1.851   4.024   7.516  0.7358 -0.2613 -0.1794
 5865TIP3   OH239153   4.283   6.529   7.192  0.2598  0.0160 -0.1820
 5865TIP3    H139154   4.375   6.529   7.218  0.0672  0.5314  0.5073
 5865TIP3    H239155   4.270   6.613   7.147  0.0523  0.0726 -0.0168
 5866TIP3   OH239156   0.557   0.070   6.914  0.3057  0.7419  0.0665
 5866TIP3    H139157   0.596   0.045   6.999 -1.9866 -0.5886  0.8199
 5866TIP3    H239158   0.522   0.157   6.929 -0.9561  0.1275  0.8551
 5867TIP3   OH239159   3.249   6.660   1.703  0.2549 -0.0974  0.1368
 5867TIP3    H139160   3.178   6.720   1.682  1.7310  1.6238 -0.2283
 5867TIP3    H239161   3.238   6.587   1.642 -2.9373 -1.4739  2.1064
 5868TIP3   OH239162   6.233   4.185   8.619  0.4904  0.1361  0.4724
 5868TIP3    H139163   6.307   4.237   8.649 -0.4126  1.6239  0.2714
 5868TIP3    H239164   6.161   4.210   8.678 -0.5003  0.7213 -0.9197
 5869TIP3   OH239165   4.429   1.166   8.249 -0.2716  0.1562 -0.1113
 5869TIP3    H139166   4.487   1.090   8.246 -0.0478  0.3474 -1.7376
 5869TIP3    H239167   4.486   1.239   8.273 -0.3896 -0.0911  0.9572
 5870TIP3   OH239168   6.104   1.932   8.055  0.2259  0.4243  0.7484
 5870TIP3    H139169   6.067   1.932   8.143 -2.1117  0.7864 -0.1641
 5870TIP3    H239170   6.041   1.882   8.002  1.5185  0.3058 -0.7483
 5871TIP3   OH239171   5.792   1.305   0.289 -0.1212  0.3599 -0.1202
 5871TIP3    H139172   5.801   1.400   0.277 -1.0706  0.9473  3.0338
 5871TIP3    H239173   5.863   1.282   0.349 -0.0086 -0.9130 -0.7244
 5872TIP3   OH239174   4.202   5.494   0.952 -0.4988  0.1571 -0.2186
 5872TIP3    H139175   4.257   5.497   0.874  1.9901 -1.5775  1.3073
 5872TIP3    H239176   4.262   5.514   1.024 -0.8190 -4.9317  1.9039
 5873TIP3   OH239177   6.154   6.463   1.109 -0.1490 -0.1901  0.4444
 5873TIP3    H139178   6.150   6.405   1.032  0.3052  0.1681  0.1431
 5873TIP3    H239179   6.247   6.465   1.132 -0.4060 -1.0573  1.6037
 5874TIP3   OH239180   4.050   2.792   7.540 -0.1759 -0.6587  0.1522
 5874TIP3    H139181   4.056   2.761   7.450  1.3139 -0.8272  0.2775
 5874TIP3    H239182   4.024   2.716   7.591 -0.3273 -0.7359 -0.0423
 5875TIP3   OH239183   3.324   4.048   0.601 -0.2334 -0.1661  0.8863
 5875TIP3    H139184   3.242   4.079   0.562  0.7116  0.5778 -0.5861
 5875TIP3    H239185   3.324   4.086   0.689 -1.6676 -0.5591  1.0861
 5876TIP3   OH239186   4.609   6.284   1.421  0.3741 -0.1681 -0.4999
 5876TIP3    H139187   4.528   6.265   1.470  0.5374  0.9706  0.2447
 5876TIP3    H239188   4.665   6.329   1.484  1.2467 -0.1416 -1.2771
 5877TIP3   OH239189   2.119   5.644   7.975 -0.4899 -0.1555 -0.3868
 5877TIP3    H139190   2.189   5.619   7.915  0.0411  0.1461  0.0951
 5877TIP3    H239191   2.159   5.640   8.062 -0.7919  0.9544 -0.1810
 5878TIP3   OH239192   5.001   5.830   2.123  0.0958  0.4108 -0.0349
 5878TIP3    H139193   5.034   5.766   2.186 -0.0251 -1.2905 -1.5937
 5878TIP3    H239194   5.073   5.891   2.110  1.2977 -1.0398 -0.5332
 5879TIP3   OH239195   3.451   0.647   7.624 -0.0200  0.5630  1.0299
 5879TIP3    H139196   3.397   0.603   7.558  1.2116  0.4697  0.0326
 5879TIP3    H239197   3.411   0.625   7.708 -0.9039 -0.3536  0.3857
 5880TIP3   OH239198   2.192   5.026   7.659 -0.1411  0.2177 -0.3687
 5880TIP3    H139199   2.275   4.981   7.648 -0.3278 -0.5725  1.1552
 5880TIP3    H239200   2.138   4.996   7.586  0.4315 -0.3813 -0.5572
 5881TIP3   OH239201   2.586   1.797   0.470 -0.7607 -0.1991  0.1486
 5881TIP3    H139202   2.577   1.711   0.510 -2.4813 -0.0083  0.2211
 5881TIP3    H239203   2.680   1.805   0.453 -0.3364 -1.4004  1.6397
 5882TIP3   OH239204   4.928   4.805   0.442 -0.0270  0.6303 -0.5602
 5882TIP3    H139205   5.016   4.768   0.437 -0.1964  0.2103 -0.3890
 5882TIP3    H239206   4.938   4.894   0.406  0.4243  0.5161 -0.7225
 5883TIP3   OH239207   6.225   6.394   8.634  0.2835 -0.2514 -0.4961
 5883TIP3    H139208   6.217   6.313   8.585  1.2178 -0.2701 -0.6439
 5883TIP3    H239209   6.147   6.445   8.610  0.3362 -0.5791 -1.3910
 5884TIP3   OH239210   6.273   2.441   8.409  0.6599  0.4202 -0.4795
 5884TIP3    H139211   6.342   2.429   8.344  0.5411 -2.3894 -0.2083
 5884TIP3    H239212   6.199   2.477   8.360  1.1784  0.1272 -1.4929
 5885TIP3   OH239213   5.023   6.154   0.836 -0.3053 -0.5941  0.2865
 5885TIP3    H139214   4.957   6.091   0.809 -0.1327 -0.5054 -0.3739
 5885TIP3    H239215   5.106   6.113   0.813 -0.1790 -0.2894  0.1860
 5886TIP3   OH239216   2.364   2.908   0.855  0.0128  0.1615 -0.5436
 5886TIP3    H139217   2.381   2.813   0.853  0.3964  0.2264 -0.5246
 5886TIP3    H239218   2.439   2.946   0.808  0.1119  0.4884 -0.1253
 5887TIP3   OH239219   3.609   1.207   7.585  0.3751  0.0918  0.7216
 5887TIP3    H139220   3.541   1.196   7.519 -0.6308  0.6637  1.6428
 5887TIP3    H239221   3.610   1.301   7.603  0.3279 -0.1141  1.8408
 5888TIP3   OH239222   0.804   6.603   8.294 -0.0713  0.0216 -0.3039
 5888TIP3    H139223   0.767   6.587   8.381 -0.3980 -1.1333 -0.6343
 5888TIP3    H239224   0.798   6.698   8.282 -2.4590 -0.0570 -0.1355
 5889TIP3   OH239225   6.477   2.408   7.751 -0.7510  0.0036 -0.0750
 5889TIP3    H139226   6.456   2.489   7.798  1.5274  0.8806 -0.4685
 5889TIP3    H239227   6.465   2.430   7.659 -1.0867 -0.4277 -0.1379
 5890TIP3   OH239228   5.720   1.549   1.633  0.0463 -0.0727 -0.3263
 5890TIP3    H139229   5.706   1.458   1.607 -1.3357  0.2776 -0.9107
 5890TIP3    H239230   5.791   1.545   1.697 -1.0907 -1.7781  0.9226
 5891TIP3   OH239231   2.555   6.378   7.210 -0.5930  0.1576 -0.3918
 5891TIP3    H139232   2.503   6.347   7.135 -1.7368  1.6406 -0.2805
 5891TIP3    H239233   2.532   6.471   7.216 -1.0288 -0.0557  2.1877
 5892TIP3   OH239234   2.268   3.987   0.985  0.0023  0.9646  0.5264
 5892TIP3    H139235   2.223   4.061   0.945  0.3463 -0.2527 -2.3181
 5892TIP3    H239236   2.201   3.920   0.996  0.5458 -0.0300 -1.6149
 5893TIP3   OH239237   5.154   3.061   0.169 -0.0429  0.0129 -0.5757
 5893TIP3    H139238   5.166   3.102   0.083  0.6349  0.8633 -0.0929
 5893TIP3    H239239   5.208   2.982   0.165  0.7052  0.5153 -0.6289
 5894TIP3   OH239240   3.336   6.191   6.537  1.1325 -0.3695  0.1404
 5894TIP3    H139241   3.277   6.186   6.612 -0.3479  0.0435 -0.9627
 5894TIP3    H239242   3.326   6.106   6.493  1.6343 -0.4280  0.1273
 5895TIP3   OH239243   6.699   2.456   8.795  0.3063  0.4653  0.5835
 5895TIP3    H139244   6.674   2.364   8.788  2.2438 -0.0417 -0.3939
 5895TIP3    H239245   6.692   2.475   8.889  1.3700 -1.1494  1.0408
 5896TIP3   OH239246   1.992   1.430   0.274  0.0100 -0.6256  0.6002
 5896TIP3    H139247   2.023   1.342   0.254 -1.0213 -0.6443 -1.1315
 5896TIP3    H239248   1.952   1.424   0.360  0.3025 -1.7587  0.6619
 5897TIP3   OH239249   5.689   5.441   2.111  0.0166 -0.6225  0.1420
 5897TIP3    H139250   5.604   5.449   2.067 -0.1442 -0.0806  0.5346
 5897TIP3    H239251   5.742   5.389   2.051 -0.9464 -2.0040  0.4245
 5898TIP3   OH239252   6.083   6.230   1.483 -0.0712  0.0231 -0.1167
 5898TIP3    H139253   6.077   6.317   1.521  0.9285 -0.3534  0.9627
 5898TIP3    H239254   5.992   6.202   1.473 -0.3798  0.6601  0.7795
 5899TIP3   OH239255   5.737   3.699   2.302 -0.5514  0.4897 -0.2940
 5899TIP3    H139256   5.658   3.741   2.336  0.1191  1.8829 -0.3818
 5899TIP3    H239257   5.755   3.628   2.365 -0.8420  1.3182  0.7601
 5900TIP3   OH239258   4.210   1.522   2.163 -0.2064  0.0255  0.6586
 5900TIP3    H139259   4.155   1.474   2.224 -1.9780  0.8889 -0.1746
 5900TIP3    H239260   4.284   1.465   2.147 -1.8714 -2.1505  0.2478
 5901TIP3   OH239261   5.894   3.160   7.124  0.4010  0.0002  0.2587
 5901TIP3    H139262   5.974   3.192   7.083  0.9976 -1.7599 -0.0557
 5901TIP3    H239263   5.837   3.139   7.051  0.7284 -1.3219  0.3548
 5902TIP3   OH239264   1.554   0.761   0.002  0.2876  0.1584 -0.1869
 5902TIP3    H139265   1.585   0.677   0.034  0.3905  0.2203 -0.1240
 5902TIP3    H239266   1.627   0.822   0.018  0.9424 -0.1087 -1.8861
 5903TIP3   OH239267   6.115   2.207   2.051 -0.0997 -0.0636  0.0331
 5903TIP3    H139268   6.179   2.182   1.984 -0.0662 -1.6497  0.6018
 5903TIP3    H239269   6.083   2.123   2.085 -3.0793  0.6687 -0.7517
 5904TIP3   OH239270   5.755   1.855   7.285 -0.0056  0.0950 -0.2495
 5904TIP3    H139271   5.803   1.850   7.368 -1.9855  0.1642  0.9692
 5904TIP3    H239272   5.720   1.767   7.273 -2.3991  0.8234  0.7416
 5905TIP3   OH239273   3.674   3.835   8.046  0.0055 -0.0100  0.2471
 5905TIP3    H139274   3.723   3.832   7.963 -0.3199 -0.4080  0.0671
 5905TIP3    H239275   3.669   3.928   8.067 -0.5751  0.1600 -0.5822
 5906TIP3   OH239276   1.534   6.559   1.627  0.2113  0.0316  0.4739
 5906TIP3    H139277   1.562   6.633   1.573 -0.0414 -0.8318 -0.8698
 5906TIP3    H239278   1.473   6.597   1.690 -0.1084  0.9227 -0.3594
 5907TIP3   OH239279   1.523   1.323   0.741  0.1580 -0.3210 -0.3166
 5907TIP3    H139280   1.439   1.327   0.695  0.6009  0.6374 -1.0869
 5907TIP3    H239281   1.582   1.377   0.689  1.9220 -2.8151 -1.1052
 5908TIP3   OH239282   5.759   4.346   8.034  0.8055 -0.6202 -0.4122
 5908TIP3    H139283   5.751   4.261   8.077 -1.9437 -0.3739 -0.2246
 5908TIP3    H239284   5.749   4.410   8.104  0.3142 -0.1788 -0.8733
 5909TIP3   OH239285   5.461   4.176   8.697 -0.0923 -0.0418  0.2364
 5909TIP3    H139286   5.409   4.171   8.778  0.7365  1.3762  0.9005
 5909TIP3    H239287   5.549   4.199   8.727  0.7180 -1.4220 -0.9483
 5910TIP3   OH239288   4.933   4.827   8.524 -0.0254  0.0073  0.4049
 5910TIP3    H139289   4.860   4.777   8.486 -0.6393  0.2304  1.2560
 5910TIP3    H239290   4.970   4.769   8.590 -0.8763  0.7182  1.5482
 5911TIP3   OH239291   1.714   0.833   1.237 -0.3670 -0.0642  0.4910
 5911TIP3    H139292   1.619   0.838   1.226 -0.3379 -0.6838 -0.1176
 5911TIP3    H239293   1.727   0.808   1.328 -0.8954 -2.8104 -0.1268
 5912TIP3   OH239294   3.748   1.718   1.532  0.0253 -0.1849  0.1687
 5912TIP3    H139295   3.790   1.635   1.508  1.7612  1.1447 -1.7148
 5912TIP3    H239296   3.719   1.755   1.449 -0.5028  1.2088  0.9404
 5913TIP3   OH239297   2.775   3.341   0.996 -0.5120 -0.0072  0.1152
 5913TIP3    H139298   2.817   3.322   0.912 -2.1787  0.2527 -0.8185
 5913TIP3    H239299   2.775   3.437   1.002 -1.1060  0.0049  0.0129
 5914TIP3   OH239300   2.075   5.110   8.609  0.0666 -0.3472 -0.1089
 5914TIP3    H139301   2.120   5.032   8.640 -1.4395 -0.8542  0.9550
 5914TIP3    H239302   1.999   5.118   8.667 -1.6443 -0.0069 -2.2482
 5915TIP3   OH239303   2.275   1.249   8.401 -0.4132  0.2066  0.4024
 5915TIP3    H139304   2.285   1.253   8.306  0.8950  0.3289  0.5221
 5915TIP3    H239305   2.249   1.159   8.419  0.1112 -0.0360 -0.0194
 5916TIP3   OH239306   5.299   1.267   8.629  0.4588 -0.2698  0.0088
 5916TIP3    H139307   5.217   1.274   8.580  0.9517 -1.2160 -0.9573
 5916TIP3    H239308   5.274   1.225   8.711 -0.2697  0.8200  0.3744
 5917TIP3   OH239309   1.498   5.242   1.097 -0.3447 -0.6678 -0.0969
 5917TIP3    H139310   1.590   5.260   1.118 -0.4205 -1.3730  0.9194
 5917TIP3    H239311   1.463   5.325   1.065  0.1476  0.1232  1.3388
 5918TIP3   OH239312   4.749   3.109   8.900  0.5457 -0.8461 -0.1915
 5918TIP3    H139313   4.791   3.076   8.979  0.5984 -0.5423 -0.0942
 5918TIP3    H239314   4.778   3.200   8.893 -1.9080  0.1177  1.1455
 5919TIP3   OH239315   0.031   1.452   8.378 -0.2987  0.4780 -0.2593
 5919TIP3    H139316   0.033   1.428   8.285  0.0152 -1.0406  0.1128
 5919TIP3    H239317  -0.053   1.419   8.409  0.3297 -0.5957  0.3676
 5920TIP3   OH239318   4.689   2.379   0.159 -0.2432  0.1984 -0.0855
 5920TIP3    H139319   4.653   2.463   0.186 -1.0242  0.1684 -0.9824
 5920TIP3    H239320   4.709   2.334   0.241  1.1079  1.6329  0.3980
 5921TIP3   OH239321   0.073   1.512   0.402  0.5433 -0.1519 -0.0874
 5921TIP3    H139322   0.115   1.591   0.368  0.6703 -0.5238 -0.8026
 5921TIP3    H239323   0.028   1.473   0.327 -0.2634 -0.2944  0.4487
 5922TIP3   OH239324   1.103   2.025   7.632 -0.1929  0.2324  0.0923
 5922TIP3    H139325   1.042   1.999   7.562  0.5124  0.8935 -0.7823
 5922TIP3    H239326   1.160   2.090   7.592  0.2707  0.5837  1.2788
 5923TIP3   OH239327   2.776   5.512   7.516 -0.0398  0.6073 -0.3998
 5923TIP3    H139328   2.779   5.445   7.448 -0.9480 -0.0786  0.2160
 5923TIP3    H239329   2.771   5.595   7.468  1.2100  0.2689 -1.1698
 5924TIP3   OH239330   3.061   4.171   1.685  0.2135  1.0154 -0.2126
 5924TIP3    H139331   3.035   4.204   1.600  3.0072  1.9157 -0.8493
 5924TIP3    H239332   3.006   4.094   1.700 -1.9094  2.1343 -1.7338
 5925TIP3   OH239333   1.105   4.811   8.390 -0.0372 -0.1335 -0.3269
 5925TIP3    H139334   1.135   4.749   8.324  1.1633  1.8477 -1.7304
 5925TIP3    H239335   1.128   4.897   8.355 -1.8461  1.1569  1.4326
 5926TIP3   OH239336   1.138   3.363   0.750  0.3271 -0.2480 -0.6500
 5926TIP3    H139337   1.172   3.424   0.814 -1.2821  0.2815 -0.2405
 5926TIP3    H239338   1.139   3.278   0.794  0.5474 -0.1345 -0.4348
 5927TIP3   OH239339   2.662   5.855   0.377 -0.5665  0.0006 -0.1252
 5927TIP3    H139340   2.677   5.762   0.361  0.6244 -0.2098  1.9317
 5927TIP3    H239341   2.678   5.897   0.292 -0.9297 -1.6309 -1.0322
 5928TIP3   OH239342   6.181   5.582   8.417 -0.2635  0.0477  0.0007
 5928TIP3    H139343   6.140   5.617   8.338 -0.7365 -0.0822  0.1875
 5928TIP3    H239344   6.247   5.521   8.384 -0.6996 -0.2679 -0.2919
 5929TIP3   OH239345   5.176   5.028   1.025 -0.2114  0.4792 -0.0671
 5929TIP3    H139346   5.082   5.045   1.020 -0.2191  0.2904 -0.6471
 5929TIP3    H239347   5.190   5.001   1.116 -1.0229 -1.1796 -0.3780
 5930TIP3   OH239348   4.665   6.595   8.709  0.1944  0.5173  0.0623
 5930TIP3    H139349   4.713   6.512   8.707 -1.5006 -0.4857 -0.5862
 5930TIP3    H239350   4.656   6.619   8.617  0.9744  1.6378  0.2565
 5931TIP3   OH239351   3.755   0.283   1.528 -0.2901  0.1244 -0.5916
 5931TIP3    H139352   3.848   0.279   1.550 -0.3610 -1.0248 -0.4300
 5931TIP3    H239353   3.735   0.377   1.526  0.8465  0.3869 -0.5616
 5932TIP3   OH239354   3.887   5.567   0.616  0.1615 -0.7529 -0.0699
 5932TIP3    H139355   3.961   5.619   0.649  0.8482 -2.3399  1.0223
 5932TIP3    H239356   3.817   5.631   0.602  1.4783  0.6731 -0.3477
 5933TIP3   OH239357   2.835   6.501   0.778  0.7894  0.0387  0.2164
 5933TIP3    H139358   2.865   6.589   0.757  0.9112 -0.3349 -1.2298
 5933TIP3    H239359   2.753   6.491   0.730  0.6322 -0.5493  0.5919
 5934TIP3   OH239360   4.089   1.306   0.341  0.2374 -1.2033  0.2361
 5934TIP3    H139361   4.174   1.287   0.300  0.8020 -1.1736  1.3380
 5934TIP3    H239362   4.108   1.304   0.435 -1.4063 -3.2520  0.5891
 5935TIP3   OH239363   0.983   0.875   8.525  0.1485  0.5787 -0.0404
 5935TIP3    H139364   0.998   0.968   8.542  1.5329  0.1765  1.0743
 5935TIP3    H239365   1.044   0.854   8.455 -0.7559  0.6691 -0.8836
 5936TIP3   OH239366   1.001   5.717   7.015 -0.7894  0.2048  0.2425
 5936TIP3    H139367   0.963   5.710   7.103  1.8738  0.7525  1.5427
 5936TIP3    H239368   1.028   5.809   7.008 -0.4826  0.0403 -0.9598
 5937TIP3   OH239369   0.210   2.285   8.261 -0.0453  0.1621  0.4796
 5937TIP3    H139370   0.171   2.353   8.316  2.2104 -0.9320  3.7084
 5937TIP3    H239371   0.294   2.321   8.233 -0.6860  0.2659 -1.4475
 5938TIP3   OH239372   4.139   1.030   0.377 -0.1621 -0.1601  0.0374
 5938TIP3    H139373   4.228   1.033   0.341  0.0880  2.0238  0.6739
 5938TIP3    H239374   4.152   1.044   0.471 -1.0943 -1.4449  0.3770
 5939TIP3   OH239375   4.597   6.324   8.866 -0.4836  0.4955 -0.1683
 5939TIP3    H139376   4.644   6.284   8.794 -1.0301 -0.2809 -0.0967
 5939TIP3    H239377   4.522   6.367   8.825 -0.8029  0.0404 -0.0565
 5940TIP3   OH239378   2.006   5.635   7.412 -0.2787  0.0838 -0.2331
 5940TIP3    H139379   1.928   5.624   7.466 -0.7342  0.3910 -0.8143
 5940TIP3    H239380   2.006   5.558   7.355 -1.0019  0.8284 -1.2636
 5941TIP3   OH239381   5.013   1.603   6.959 -0.2298  0.1252  0.4855
 5941TIP3    H139382   5.104   1.600   6.931 -0.0840 -2.9571  0.9402
 5941TIP3    H239383   4.963   1.572   6.883 -0.6897  0.0712  0.8016
 5942TIP3   OH239384   6.546   4.038   8.543  0.0495 -0.0184 -0.1891
 5942TIP3    H139385   6.499   3.970   8.495 -0.1359  0.0983 -0.1731
 5942TIP3    H239386   6.500   4.045   8.627  0.9060 -0.8369  0.3628
 5943TIP3   OH239387   5.666   1.265   8.026 -0.2179  0.4726  0.4628
 5943TIP3    H139388   5.623   1.244   7.943 -0.4438  0.5121  0.5710
 5943TIP3    H239389   5.733   1.197   8.036 -0.6509  0.0565  0.5899
 5944TIP3   OH239390   0.724   4.674   7.024  0.3871 -0.6366 -0.2302
 5944TIP3    H139391   0.790   4.634   6.968 -0.8472 -1.9317 -0.8206
 5944TIP3    H239392   0.708   4.760   6.984  0.9611 -0.7314 -0.6770
 5945TIP3   OH239393   3.980   3.305   6.809 -0.0106  0.3239 -0.2670
 5945TIP3    H139394   3.921   3.230   6.802  0.8350 -0.4112  0.3786
 5945TIP3    H239395   3.952   3.350   6.889 -0.1416  0.3860 -0.3457
 5946TIP3   OH239396   0.365   5.176   6.614  0.1740  0.2545  0.2698
 5946TIP3    H139397   0.454   5.200   6.639  0.0452  1.4628 -0.3653
 5946TIP3    H239398   0.312   5.254   6.633 -0.3028  0.4557 -1.6514
 5947TIP3   OH239399   5.363   3.203   8.021  0.6020  0.5807 -0.1439
 5947TIP3    H139400   5.375   3.295   8.043  2.3039  0.0923  1.1559
 5947TIP3    H239401   5.445   3.161   8.046 -0.4744 -1.4551  0.1976
 5948TIP3   OH239402   0.271   5.998   1.716  0.3087 -0.5846 -0.0559
 5948TIP3    H139403   0.314   6.081   1.700 -0.8416 -0.0234 -0.3245
 5948TIP3    H239404   0.296   5.975   1.806 -0.4400  0.7144  0.5081
 5949TIP3   OH239405   2.471   1.142   6.997  0.0507 -0.9467  0.8374
 5949TIP3    H139406   2.535   1.211   7.011 -1.0228 -0.2329  2.5186
 5949TIP3    H239407   2.520   1.061   7.007  1.3486 -0.5036 -1.2486
 5950TIP3   OH239408   1.698   4.556   0.095  0.2503  0.1235  0.3409
 5950TIP3    H139409   1.631   4.553   0.162  1.1750 -0.0395  1.2863
 5950TIP3    H239410   1.746   4.638   0.112 -0.2402  0.7027 -0.8793
 5951TIP3   OH239411   3.982   6.168   0.365 -0.0241 -0.2612 -0.0345
 5951TIP3    H139412   3.973   6.177   0.459  2.4952  1.8593  0.1040
 5951TIP3    H239413   3.965   6.075   0.347  0.5649 -0.9391  2.6232
 5952TIP3   OH239414   5.669   1.766   7.608  0.2770  0.1013 -0.6129
 5952TIP3    H139415   5.642   1.747   7.698 -0.0172 -0.7073 -0.8630
 5952TIP3    H239416   5.589   1.760   7.556  0.4622  0.4642 -0.9455
 5953TIP3   OH239417   0.635   3.646   2.015  0.3730  0.6047  0.0608
 5953TIP3    H139418   0.579   3.623   2.089  0.6140  1.8298  0.6508
 5953TIP3    H239419   0.595   3.602   1.940 -1.4038  1.4521  0.4535
 5954TIP3   OH239420   2.174   0.991   0.169  0.0977 -0.1949 -0.5780
 5954TIP3    H139421   2.190   0.910   0.119 -0.7492 -0.2968 -0.7088
 5954TIP3    H239422   2.206   1.061   0.113 -1.3287 -0.2629 -1.5421
 5955TIP3   OH239423   6.587   4.463   8.506 -0.2601 -0.0706  0.2458
 5955TIP3    H139424   6.514   4.460   8.568  0.3235  2.3666  1.1737
 5955TIP3    H239425   6.645   4.392   8.533 -0.2697  0.6182  2.2338
 5956TIP3   OH239426   5.776   4.046   1.864  0.3221  0.3918  0.1982
 5956TIP3    H139427   5.772   3.961   1.908 -1.5963  0.8993  1.1087
 5956TIP3    H239428   5.732   4.107   1.923 -1.6756  1.2610 -2.0091
 5957TIP3   OH239429   1.183   1.839   0.180 -0.2051  0.1897  0.0937
 5957TIP3    H139430   1.170   1.855   0.086 -0.4796  2.1975  0.4244
 5957TIP3    H239431   1.095   1.828   0.215 -0.1476  0.1873  0.2380
 5958TIP3   OH239432   4.407   0.594   1.657  0.1542 -0.1623  0.6913
 5958TIP3    H139433   4.430   0.686   1.661  1.3848 -0.2569 -2.0852
 5958TIP3    H239434   4.488   0.548   1.682  0.5192 -0.4428 -0.8648
 5959TIP3   OH239435   5.567   0.186   7.146  0.1688 -0.0027 -0.4556
 5959TIP3    H139436   5.582   0.263   7.201 -1.2047  0.9637 -1.3672
 5959TIP3    H239437   5.636   0.190   7.079  0.0810  0.4595 -0.5205
 5960TIP3   OH239438   1.824   0.224   6.536 -0.0132  0.6730  0.1649
 5960TIP3    H139439   1.841   0.221   6.442 -0.1967 -0.1854  0.1489
 5960TIP3    H239440   1.911   0.236   6.576  0.1476  0.3752 -0.0887
 5961TIP3   OH239441   2.675   0.523   7.570  0.5516 -0.5449 -0.8644
 5961TIP3    H139442   2.746   0.526   7.506  2.0525 -0.2941  0.7219
 5961TIP3    H239443   2.696   0.593   7.632 -1.2137 -0.3373 -0.4483
 5962TIP3   OH239444   5.092   3.790   7.816 -0.5995  0.2710 -0.6381
 5962TIP3    H139445   5.129   3.767   7.731  1.9679  1.2037  0.1327
 5962TIP3    H239446   5.163   3.835   7.862 -2.0103  0.1195  1.8788
 5963TIP3   OH239447   6.417   0.955   1.123 -0.0711  0.5422  0.2646
 5963TIP3    H139448   6.389   1.020   1.058 -0.1147  1.0953  0.8200
 5963TIP3    H239449   6.480   0.900   1.077 -0.2586  0.7944 -0.3053
 5964TIP3   OH239450   2.599   3.338   8.175 -1.3758 -0.5391  0.7999
 5964TIP3    H139451   2.671   3.300   8.125 -2.1388 -2.4753  1.1072
 5964TIP3    H239452   2.623   3.431   8.184  0.5191 -0.8972 -0.0525
 5965TIP3   OH239453   4.169   0.228   7.423  0.3374  0.0143 -0.0573
 5965TIP3    H139454   4.105   0.158   7.437  0.4861  0.0780  0.9918
 5965TIP3    H239455   4.244   0.202   7.476 -0.2503  1.8210  1.7477
 5966TIP3   OH239456   2.851   3.272   1.915  0.5238 -0.3433  0.8567
 5966TIP3    H139457   2.834   3.366   1.922  0.9766 -0.2661  0.9468
 5966TIP3    H239458   2.824   3.249   1.826  1.3387  0.0689  0.4988
 5967TIP3   OH239459   6.551   3.673   8.197  0.2983  0.0626 -0.3415
 5967TIP3    H139460   6.461   3.676   8.164  0.1991 -0.1438 -0.0947
 5967TIP3    H239461   6.605   3.686   8.119  0.0406  2.1288 -0.2189
 5968TIP3   OH239462   6.717   5.071   1.057 -0.1757 -0.5977  0.2292
 5968TIP3    H139463   6.680   5.097   1.142  1.4830  0.0191  0.8043
 5968TIP3    H239464   6.774   4.997   1.077  0.2744 -0.4083 -0.3307
 5969TIP3   OH239465   2.237   2.781   0.545 -0.4006 -0.4250  0.5341
 5969TIP3    H139466   2.316   2.796   0.597  0.8136 -0.5991 -1.1816
 5969TIP3    H239467   2.210   2.868   0.515 -0.2185 -0.4786  0.2150
 5970TIP3   OH239468   6.555   1.111   7.218 -0.1724 -0.3559 -0.2337
 5970TIP3    H139469   6.517   1.163   7.147  0.2028 -0.3330 -0.4227
 5970TIP3    H239470   6.624   1.060   7.176 -2.1773 -2.9925 -0.5976
 5971TIP3   OH239471   2.245   1.642   6.913 -0.0462 -0.3249  0.0477
 5971TIP3    H139472   2.329   1.687   6.910 -0.2254 -0.0199 -1.3152
 5971TIP3    H239473   2.216   1.641   6.822 -0.8308 -1.7458  0.2935
 5972TIP3   OH239474   1.788   4.685   7.890 -0.1101  0.3488  0.0101
 5972TIP3    H139475   1.743   4.607   7.922  0.6956 -0.4329 -0.7065
 5972TIP3    H239476   1.858   4.700   7.954  0.9923 -0.7368 -0.8760
 5973TIP3   OH239477   4.100   1.658   0.751 -0.1800 -0.2425 -0.3176
 5973TIP3    H139478   4.116   1.745   0.714  0.4874 -0.6645 -1.0634
 5973TIP3    H239479   4.063   1.607   0.679  0.0892 -0.7748 -0.0895
 5974TIP3   OH239480   0.256   5.662   0.273 -0.6616 -0.3305  0.7126
 5974TIP3    H139481   0.270   5.702   0.358 -0.6614  0.5397  0.3077
 5974TIP3    H239482   0.323   5.700   0.217 -2.2374  1.0471 -0.3105
 5975TIP3   OH239483   0.081   3.344   0.193 -0.8376  0.7047 -0.1025
 5975TIP3    H139484   0.012   3.325   0.257 -0.4972  0.2169  0.1235
 5975TIP3    H239485   0.041   3.325   0.109  0.0873 -3.2311  0.1544
 5976TIP3   OH239486   5.108   1.854   6.780 -0.0254  0.3088  0.2007
 5976TIP3    H139487   5.167   1.778   6.783  0.2104  0.3020 -2.3097
 5976TIP3    H239488   5.137   1.903   6.703  0.4416  3.5269  2.2233
 5977TIP3   OH239489   5.252   3.780   7.565 -0.0485 -0.0730 -0.5244
 5977TIP3    H139490   5.270   3.874   7.559 -0.2998 -0.1215 -3.0134
 5977TIP3    H239491   5.337   3.738   7.551 -0.0376 -0.2422  0.0170
 5978TIP3   OH239492   4.051   4.477   1.733 -0.2676  0.3085  0.2405
 5978TIP3    H139493   4.082   4.568   1.735 -0.1812  0.2705  0.9792
 5978TIP3    H239494   4.112   4.430   1.791 -0.2805 -0.2304 -0.1756
 5979TIP3   OH239495   6.770   1.841   0.870 -0.1587  0.1565 -0.3459
 5979TIP3    H139496   6.683   1.820   0.905  0.8944 -2.3835  0.9939
 5979TIP3    H239497   6.783   1.781   0.797  1.7463 -2.1486  1.6824
 5980TIP3   OH239498   2.527   5.981   2.728 -0.3879  0.3510 -0.3345
 5980TIP3    H139499   2.592   5.931   2.776 -0.4669  0.0079 -0.5812
 5980TIP3    H239500   2.570   6.065   2.710  1.0168 -0.7580 -2.7669
 5981TIP3   OH239501   3.473   5.929   7.923  0.1130 -0.4433  0.5724
 5981TIP3    H139502   3.557   5.897   7.890 -0.1994  0.8193 -1.5802
 5981TIP3    H239503   3.494   6.012   7.965 -0.1518  0.3963 -0.8902
 5982TIP3   OH239504   5.743   4.533   0.040 -0.2862 -0.3762 -0.7328
 5982TIP3    H139505   5.756   4.488   0.123  0.1390 -0.6455 -0.9366
 5982TIP3    H239506   5.674   4.597   0.057  1.1128  0.9262  0.3619
 5983TIP3   OH239507   0.425   1.075   7.916  0.2009 -0.3432  0.6399
 5983TIP3    H139508   0.490   1.064   7.846 -0.2440  2.0459 -0.2454
 5983TIP3    H239509   0.373   0.995   7.914 -1.0400  0.3418 -3.1723
 5984TIP3   OH239510   1.477   3.757   0.225 -0.3480  0.1068 -0.4190
 5984TIP3    H139511   1.416   3.788   0.292 -0.6165  0.3685 -0.7816
 5984TIP3    H239512   1.546   3.713   0.274  0.6924  2.2997  0.2222
 5985TIP3   OH239513   2.184   6.300   2.028  0.3124 -0.7453 -0.3916
 5985TIP3    H139514   2.224   6.275   2.111  0.8075  2.3899  0.4625
 5985TIP3    H239515   2.249   6.274   1.962  1.1407 -0.9123  0.4644
 5986TIP3   OH239516   6.139   4.731   0.860 -0.3272 -0.1675  0.5714
 5986TIP3    H139517   6.225   4.691   0.872  0.4854  1.0945 -0.7061
 5986TIP3    H239518   6.142   4.811   0.913 -1.1050 -0.6512  1.3504
 5987TIP3   OH239519   5.708   6.662   7.825  0.1124 -0.1249 -0.2620
 5987TIP3    H139520   5.737   6.753   7.824 -1.1632  0.2882 -0.2119
 5987TIP3    H239521   5.789   6.611   7.814  0.7170  1.0217 -1.3179
 5988TIP3   OH239522   2.107   2.867   8.817  0.2683 -0.1146 -0.8069
 5988TIP3    H139523   2.152   2.893   8.897 -0.5833  1.2613 -0.7483
 5988TIP3    H239524   2.115   2.943   8.759 -1.2444 -0.1528 -1.0983
 5989TIP3   OH239525   6.341   5.829   8.820 -0.1692  0.1259  0.3386
 5989TIP3    H139526   6.325   5.890   8.892 -2.1426  0.2369 -0.1263
 5989TIP3    H239527   6.435   5.835   8.803  0.4484 -0.1747  3.1199
 5990TIP3   OH239528   3.347   2.667   1.361  0.4009 -0.0378 -0.0070
 5990TIP3    H139529   3.255   2.658   1.337  0.3101 -0.7037  0.5553
 5990TIP3    H239530   3.350   2.745   1.416  0.2877  0.3566 -0.5508
 5991TIP3   OH239531   6.061   0.703   2.020 -0.2774 -0.5078  0.9972
 5991TIP3    H139532   6.133   0.764   2.006 -0.6929  0.0535  1.2473
 5991TIP3    H239533   6.093   0.619   1.987  0.6169 -0.3486  1.4204
 5992TIP3   OH239534   6.061   1.989   6.948  0.6891 -0.5175 -0.4031
 5992TIP3    H139535   6.005   1.988   7.025  1.5991  0.2306  0.2902
 5992TIP3    H239536   6.000   1.979   6.874 -0.2951 -0.2155  0.3427
 5993TIP3   OH239537   3.143   6.431   7.322  0.3281  0.0435  0.3166
 5993TIP3    H139538   3.098   6.466   7.245 -0.8319 -0.1809  0.8633
 5993TIP3    H239539   3.229   6.473   7.321 -0.3275  1.4354 -0.1187
 5994TIP3   OH239540   0.322   3.390   1.525  0.1420  0.4692  0.5971
 5994TIP3    H139541   0.304   3.328   1.454  0.6141  0.3060  0.6144
 5994TIP3    H239542   0.379   3.342   1.585  0.3996  0.8774  0.6823
 5995TIP3   OH239543   4.753   5.514   0.242 -0.4211 -0.1404  0.6662
 5995TIP3    H139544   4.673   5.535   0.193 -0.8780  0.1992  1.5451
 5995TIP3    H239545   4.808   5.592   0.232 -0.0787 -0.4797 -0.1643
 5996TIP3   OH239546   3.868   5.379   8.287  0.4997 -0.6443  0.1256
 5996TIP3    H139547   3.851   5.470   8.265 -0.9844 -0.5763  1.3891
 5996TIP3    H239548   3.793   5.352   8.340  1.3443 -2.3317  0.5529
 5997TIP3   OH239549   4.138   1.165   2.136  0.1829 -0.2447  0.3618
 5997TIP3    H139550   4.190   1.208   2.204  0.3811 -0.5849  0.4228
 5997TIP3    H239551   4.141   1.072   2.158  0.7685 -0.4327 -0.4717
 5998TIP3   OH239552   4.788   1.905   1.598 -0.2332 -0.3691  0.6132
 5998TIP3    H139553   4.767   1.933   1.687 -0.1473  3.1575 -0.3332
 5998TIP3    H239554   4.712   1.933   1.545  1.7336  2.1671 -1.0987
 5999TIP3   OH239555   5.582   5.592   8.209  0.2350 -0.0830  0.0675
 5999TIP3    H139556   5.539   5.508   8.192 -2.5519  1.2925 -0.1999
 5999TIP3    H239557   5.640   5.604   8.134 -0.9382 -0.8137 -0.9983
 6000TIP3   OH239558   5.725   5.842   0.692  0.2080 -0.1208 -0.0004
 6000TIP3    H139559   5.734   5.764   0.637 -1.2526  0.6729 -1.4673
 6000TIP3    H239560   5.633   5.845   0.715  0.3486  0.8881  0.4846
 6001TIP3   OH239561   3.595   0.927   2.379  0.3976 -0.7108  0.0578
 6001TIP3    H139562   3.529   0.860   2.394 -0.0672 -0.2451  0.1397
 6001TIP3    H239563   3.557   1.007   2.415 -0.5712  0.3713 -2.9942
 6002TIP3   OH239564   0.828   6.718   0.522  0.4850  0.6919  0.1329
 6002TIP3    H139565   0.840   6.759   0.608  0.9560  1.2309 -0.1813
 6002TIP3    H239566   0.880   6.638   0.526  0.4155  0.6585  0.3860
 6003TIP3   OH239567   0.797   0.399   7.453 -0.0370 -0.1323  0.4533
 6003TIP3    H139568   0.759   0.410   7.540 -2.6455  1.0018 -0.7132
 6003TIP3    H239569   0.808   0.488   7.419 -0.8557 -0.5433 -1.0267
 6004TIP3   OH239570   6.557   1.337   8.437 -0.3219  0.0916  0.0363
 6004TIP3    H139571   6.504   1.301   8.366 -0.4746 -0.2528  0.3237
 6004TIP3    H239572   6.493   1.367   8.502 -0.2921 -4.0274  2.3365
 6005TIP3   OH239573   6.242   2.067   1.847 -0.2182  0.1150 -0.0219
 6005TIP3    H139574   6.249   1.981   1.890  2.4628 -0.2958 -1.0543
 6005TIP3    H239575   6.167   2.059   1.789 -0.5656 -1.2199  0.5708
 6006TIP3   OH239576   0.230   3.210   1.986  0.2352 -0.3085  0.1217
 6006TIP3    H139577   0.188   3.157   2.053  1.5350 -1.3070  0.1885
 6006TIP3    H239578   0.243   3.296   2.027  1.0603 -0.9181  1.1827
 6007TIP3   OH239579   1.709   1.808   8.766 -0.0357 -0.2065 -0.1275
 6007TIP3    H139580   1.689   1.734   8.708  1.6394 -1.3357  0.6457
 6007TIP3    H239581   1.798   1.833   8.742  0.4817 -0.3329  1.5675
 6008TIP3   OH239582   2.504   2.523   1.776  0.3096 -0.3686 -0.0759
 6008TIP3    H139583   2.510   2.614   1.747  0.1398 -0.3509 -0.0596
 6008TIP3    H239584   2.583   2.509   1.828 -0.0548  0.0129  0.5878
 6009TIP3   OH239585   1.743   4.766   8.598  0.4900 -0.0876 -0.6499
 6009TIP3    H139586   1.800   4.712   8.653 -0.5844  0.1810  0.7603
 6009TIP3    H239587   1.690   4.703   8.549  1.4529 -0.3251 -1.4400
 6010TIP3   OH239588   3.176   0.393   0.988  0.1296 -0.5354  0.4213
 6010TIP3    H139589   3.180   0.430   1.076 -1.5141 -0.9945  0.7442
 6010TIP3    H239590   3.150   0.302   1.002 -1.2532 -0.3361 -0.5517
 6011TIP3   OH239591   1.831   2.546   1.288  0.9801 -0.4831 -1.0188
 6011TIP3    H139592   1.922   2.576   1.296  0.1031  2.1881  0.3325
 6011TIP3    H239593   1.798   2.546   1.378 -1.3103  2.2653 -1.6861
 6012TIP3   OH239594   4.988   0.624   0.758 -0.3192  0.3609  0.0499
 6012TIP3    H139595   4.959   0.609   0.847 -1.8849  0.4193 -0.4210
 6012TIP3    H239596   5.073   0.580   0.752 -0.3720  0.0439  1.4430
 6013TIP3   OH239597   3.300   2.531   2.516 -0.1266 -0.1475 -0.4485
 6013TIP3    H139598   3.366   2.575   2.462  0.9877  0.0774  1.0253
 6013TIP3    H239599   3.242   2.602   2.545  0.4322  0.0543  0.2132
 6014TIP3   OH239600   2.578   6.205   8.260  0.3174 -0.3997  0.2687
 6014TIP3    H139601   2.649   6.229   8.320 -0.3005 -0.2853  0.9792
 6014TIP3    H239602   2.547   6.120   8.293  0.1004 -0.4270 -0.0058
 6015TIP3   OH239603   4.101   2.202   0.992  0.5198  0.0899  0.1491
 6015TIP3    H139604   4.087   2.133   0.927  3.2813  1.1565 -1.7816
 6015TIP3    H239605   4.154   2.161   1.060  0.1195 -0.2879  0.2352
 6016TIP3   OH239606   3.655   0.728   7.456 -0.8652 -0.2798 -0.3810
 6016TIP3    H139607   3.609   0.720   7.373 -0.5951 -0.8834 -0.4787
 6016TIP3    H239608   3.596   0.687   7.520 -1.4243  0.8778 -0.1303
 6017TIP3   OH239609   1.813   2.693   8.046 -0.3454  0.7643 -0.1652
 6017TIP3    H139610   1.808   2.782   8.010  1.0680  0.4209 -1.3248
 6017TIP3    H239611   1.860   2.643   7.979  1.5343 -0.1655  1.7431
 6018TIP3   OH239612   5.938   6.180   7.670  0.2879  1.1510  0.3167
 6018TIP3    H139613   5.953   6.189   7.576 -1.2357  0.4694 -0.0344
 6018TIP3    H239614   6.025   6.165   7.707  0.9355  1.6058 -0.9558
 6019TIP3   OH239615   2.088   0.220   0.935  0.1470  0.1273 -0.3178
 6019TIP3    H139616   2.156   0.287   0.941  3.0590 -2.6965  0.8589
 6019TIP3    H239617   2.078   0.188   1.025 -0.2983 -1.7827 -1.0021
 6020TIP3   OH239618   6.266   0.499   1.451  0.8820 -0.7755  0.2021
 6020TIP3    H139619   6.207   0.431   1.419  0.8389 -0.4664 -0.3819
 6020TIP3    H239620   6.348   0.453   1.468  0.7914 -1.0110  0.0054
 6021TIP3   OH239621   4.907   2.433   1.089 -0.1008 -0.4528 -0.2887
 6021TIP3    H139622   4.830   2.479   1.056 -0.6258  1.5622  3.2151
 6021TIP3    H239623   4.875   2.346   1.111 -1.3139  0.1768  0.5826
 6022TIP3   OH239624   1.052   0.915   7.664 -0.5151  0.8985  0.2795
 6022TIP3    H139625   1.062   0.881   7.575 -2.3244 -0.6448  0.5932
 6022TIP3    H239626   1.124   0.977   7.675  2.1385 -1.7350 -0.8949
 6023TIP3   OH239627   6.320   0.055   0.506  0.0162  0.1840 -0.4189
 6023TIP3    H139628   6.286  -0.026   0.543 -1.9653  0.9312 -0.4870
 6023TIP3    H239629   6.342   0.033   0.415 -0.9033 -0.2145 -0.5589
 6024TIP3   OH239630   3.723   4.496   8.064  0.3207  0.2460 -0.1108
 6024TIP3    H139631   3.788   4.566   8.058  0.3678  0.1001 -1.4338
 6024TIP3    H239632   3.647   4.529   8.017 -0.3922  0.1910  0.9576
 6025TIP3   OH239633   6.591   1.357   7.048  0.3304 -0.0070 -0.0400
 6025TIP3    H139634   6.523   1.424   7.054 -1.2235 -1.5711  0.4556
 6025TIP3    H239635   6.673   1.405   7.067 -0.6102  1.8789 -0.4877
 6026TIP3   OH239636   3.428   2.869   2.003 -0.5834 -0.2942  0.1836
 6026TIP3    H139637   3.432   2.958   1.967 -0.1512 -0.7985 -1.0811
 6026TIP3    H239638   3.418   2.881   2.097  0.3826  1.1033  0.1307
 6027TIP3   OH239639   4.014   4.353   1.490 -0.1199  0.5433  0.0558
 6027TIP3    H139640   4.004   4.410   1.566 -2.6831  2.2825 -1.4675
 6027TIP3    H239641   4.032   4.412   1.417 -1.1203 -0.7214 -1.2834
 6028TIP3   OH239642   0.863   0.670   8.647  0.2090 -0.4825  0.0903
 6028TIP3    H139643   0.914   0.661   8.728 -1.1482 -1.9963  0.8314
 6028TIP3    H239644   0.907   0.741   8.599  0.2791  1.3803  2.7016
 6029TIP3   OH239645   3.470   3.135   2.478 -0.5506 -0.0119 -0.3492
 6029TIP3    H139646   3.497   3.221   2.445 -0.9003  0.4017  0.4064
 6029TIP3    H239647   3.378   3.128   2.453 -0.4939 -0.2103 -0.4999
 6030TIP3   OH239648   5.636   3.022   0.754  0.1702 -0.0254  0.0990
 6030TIP3    H139649   5.630   3.059   0.666 -1.6541  0.7587  0.5004
 6030TIP3    H239650   5.684   2.940   0.743  1.7358  1.0151 -1.2887
 6031TIP3   OH239651   2.123   0.012   8.497 -0.1076 -0.2865  0.7061
 6031TIP3    H139652   2.093  -0.079   8.509 -0.4586 -0.3613 -0.6085
 6031TIP3    H239653   2.052   0.055   8.451  1.0614 -0.0048 -0.9135
 6032TIP3   OH239654   5.372   1.119   0.377 -0.1268  0.2742  0.0790
 6032TIP3    H139655   5.400   1.047   0.320  0.2535  0.6345 -0.1913
 6032TIP3    H239656   5.377   1.082   0.466  2.0501  0.5662  0.1274
 6033TIP3   OH239657   1.917   2.090   1.619  0.2408 -0.0350 -0.5018
 6033TIP3    H139658   1.992   2.088   1.559  1.2880 -2.8860  0.7308
 6033TIP3    H239659   1.851   2.035   1.578 -0.2756  0.5541 -0.4772
 6034TIP3   OH239660   0.494   5.022   8.469 -0.6163  0.0355  0.4739
 6034TIP3    H139661   0.487   5.087   8.399  0.1015 -0.5072 -0.1176
 6034TIP3    H239662   0.403   5.005   8.495 -0.9096  0.1042 -0.4637
 6035TIP3   OH239663   1.139   3.025   0.818 -0.3434  0.2016  0.3919
 6035TIP3    H139664   1.076   2.960   0.786  0.3618 -1.1269  1.5692
 6035TIP3    H239665   1.207   2.973   0.861  2.9716  1.3203 -2.9949
 6036TIP3   OH239666   2.539   3.033   7.524  0.5595  0.2582 -0.1184
 6036TIP3    H139667   2.566   2.947   7.492 -1.1814 -0.1354 -0.6480
 6036TIP3    H239668   2.494   3.014   7.607 -0.8572  0.4804 -0.8027
 6037TIP3   OH239669   1.325   3.541   1.463  0.2926 -0.1799 -0.2216
 6037TIP3    H139670   1.370   3.457   1.453 -1.9972 -1.5105 -0.1698
 6037TIP3    H239671   1.249   3.520   1.517 -0.2571  1.9870 -0.0755
 6038TIP3   OH239672   0.173   6.550   1.892  0.0152  0.2664  0.1630
 6038TIP3    H139673   0.258   6.592   1.905  0.5021 -0.3653 -0.9008
 6038TIP3    H239674   0.124   6.570   1.973  2.1727 -1.7609  2.0958
 6039TIP3   OH239675   4.027   5.136   1.458 -0.4197  0.5762 -0.1452
 6039TIP3    H139676   3.940   5.110   1.490  0.0759 -2.2642 -0.7995
 6039TIP3    H239677   4.073   5.166   1.535 -0.8811 -1.3024  0.9277
 6040TIP3   OH239678   1.207   4.351   8.450 -0.1542 -0.0070  0.3274
 6040TIP3    H139679   1.254   4.268   8.454 -0.8331 -0.3669  1.9779
 6040TIP3    H239680   1.115   4.327   8.459 -0.4333  0.8612 -0.0908
 6041TIP3   OH239681   5.076   0.788   2.000  0.2896 -0.3890 -0.4129
 6041TIP3    H139682   5.028   0.859   2.042  0.2988  0.2592 -1.4705
 6041TIP3    H239683   5.053   0.795   1.908 -0.2231 -2.1791 -0.4460
 6042TIP3   OH239684   0.174   5.379   1.000  0.6911  1.1507 -0.1190
 6042TIP3    H139685   0.261   5.390   0.961  2.9711 -2.4487  3.2113
 6042TIP3    H239686   0.143   5.295   0.966 -1.3713  2.1796 -0.8965
 6043TIP3   OH239687   6.142   6.512   0.324 -0.6317 -0.2030 -0.2849
 6043TIP3    H139688   6.079   6.487   0.392  0.4124 -2.1209  0.0539
 6043TIP3    H239689   6.197   6.434   0.312  1.9771  1.4856 -0.2295
 6044TIP3   OH239690   1.377   4.863   8.036  0.4153  0.0043 -0.4755
 6044TIP3    H139691   1.438   4.932   8.008 -0.1032  1.1829  1.1701
 6044TIP3    H239692   1.299   4.877   7.981  1.1302 -0.7643 -1.7500
 6045TIP3   OH239693   5.134   3.060   7.776  0.1910  0.1028 -0.8958
 6045TIP3    H139694   5.127   3.155   7.782  1.9168  0.1679  1.7791
 6045TIP3    H239695   5.054   3.027   7.816  0.2521  0.4676 -0.4661
 6046TIP3   OH239696   1.669   3.324   8.459 -0.3839 -0.1585 -0.2326
 6046TIP3    H139697   1.747   3.372   8.434  0.5409 -0.3036  2.0876
 6046TIP3    H239698   1.598   3.387   8.452  0.6890  1.4353  2.0530
 6047TIP3   OH239699   3.404   1.642   0.897 -0.1770 -0.1003  0.0380
 6047TIP3    H139700   3.474   1.595   0.851 -0.2663 -0.6603  0.4658
 6047TIP3    H239701   3.450   1.706   0.951 -0.0543  0.3322 -0.5646
 6048TIP3   OH239702   6.237   6.281   7.505 -0.4056 -0.1681 -0.1878
 6048TIP3    H139703   6.281   6.363   7.527  1.7507 -1.4300  0.6081
 6048TIP3    H239704   6.146   6.305   7.492 -0.0701  2.1774  1.1479
 6049TIP3   OH239705   2.050   6.024   0.619  0.3163 -0.5821  0.3334
 6049TIP3    H139706   2.145   6.012   0.614  0.1909 -1.9037  0.8814
 6049TIP3    H239707   2.014   5.955   0.563 -0.3538 -0.9621  1.2045
 6050TIP3   OH239708   1.615   1.999   1.539 -0.1181 -0.6461 -0.1393
 6050TIP3    H139709   1.533   1.948   1.543 -0.6951  0.1511 -1.2023
 6050TIP3    H239710   1.673   1.946   1.485 -0.6981 -0.2374 -1.1970
 6051TIP3   OH239711   0.156   4.164   7.627 -0.1347  0.1869  0.1612
 6051TIP3    H139712   0.226   4.123   7.679  0.2086  0.5745  0.0152
 6051TIP3    H239713   0.202   4.226   7.570 -0.6371  0.7933  0.3935
 6052TIP3   OH239714   1.809   2.005   7.674 -0.5047  0.2419 -1.4291
 6052TIP3    H139715   1.897   1.985   7.641 -0.0792 -1.2192  0.3902
 6052TIP3    H239716   1.796   2.097   7.652  1.7515  0.6725 -1.2510
 6053TIP3   OH239717   2.402   4.111   7.064  0.3610 -0.1753  0.0993
 6053TIP3    H139718   2.386   4.138   6.974 -0.2462 -0.7724  0.0189
 6053TIP3    H239719   2.332   4.048   7.083  0.9037 -0.6019  0.7398
 6054TIP3   OH239720   6.041   6.096   0.358 -0.0095  0.5537  0.0150
 6054TIP3    H139721   5.991   6.121   0.280  0.8455 -0.9181 -1.0532
 6054TIP3    H239722   6.119   6.152   0.355 -0.7247  1.6284  0.7312
 6055TIP3   OH239723   4.609   5.708   6.986  0.7667 -0.0306 -0.3198
 6055TIP3    H139724   4.557   5.674   7.058  2.0696  1.5542  1.4644
 6055TIP3    H239725   4.600   5.803   6.992 -0.6062  0.1593 -3.4840
 6056TIP3   OH239726   2.564   2.060   1.221 -0.7674  0.0457  0.7151
 6056TIP3    H139727   2.572   2.027   1.310  0.7397 -2.1149 -0.1348
 6056TIP3    H239728   2.578   1.984   1.165 -0.1935  1.5903 -1.4072
 6057TIP3   OH239729   4.718   5.040   7.824 -0.1097 -0.9803  0.0445
 6057TIP3    H139730   4.701   5.028   7.731  2.3259 -0.0587 -0.5931
 6057TIP3    H239731   4.639   5.083   7.858 -0.1525  0.7488 -2.0841
 6058TIP3   OH239732   6.705   0.716   6.807 -0.7154 -0.3409  0.1308
 6058TIP3    H139733   6.645   0.768   6.753 -1.3929 -1.6403 -0.4131
 6058TIP3    H239734   6.652   0.689   6.882 -0.0375  0.6860  1.0074
 6059TIP3   OH239735   1.057   0.740   7.925  0.1667 -0.4214  0.4250
 6059TIP3    H139736   1.127   0.805   7.916 -1.7191  1.4333 -2.4808
 6059TIP3    H239737   1.018   0.758   8.011  0.4203  1.5834  0.1672
 6060TIP3   OH239738   5.418   1.558   0.872 -0.1195  0.4660 -0.1760
 6060TIP3    H139739   5.376   1.643   0.887 -0.2679  0.2143  0.9661
 6060TIP3    H239740   5.511   1.574   0.888 -0.4834 -0.2717  3.7247
 6061TIP3   OH239741   1.752   3.055   8.206 -0.2154  0.2067 -0.1786
 6061TIP3    H139742   1.760   3.021   8.117 -0.9288  0.0493 -0.1883
 6061TIP3    H239743   1.675   3.112   8.203 -0.8829 -0.6283  0.5793
 6062TIP3   OH239744   6.482   0.957   0.589 -0.3346  0.5577  0.3014
 6062TIP3    H139745   6.508   0.888   0.650 -1.6044 -2.3883 -2.1886
 6062TIP3    H239746   6.387   0.958   0.593 -0.3524  1.8231 -0.0891
 6063TIP3   OH239747   0.443   3.692   8.592  0.2903 -0.2729  0.3146
 6063TIP3    H139748   0.349   3.701   8.583  0.2265  0.2319  1.3507
 6063TIP3    H239749   0.455   3.638   8.671  0.8532 -1.6336 -0.6642
 6064TIP3   OH239750   2.557   4.242   7.265 -0.7008  0.6865 -0.3459
 6064TIP3    H139751   2.487   4.229   7.201 -0.3205  1.8892 -1.0512
 6064TIP3    H239752   2.546   4.333   7.295 -0.0269  0.5847  0.2489
 6065TIP3   OH239753   4.564   1.770   7.667  0.3565 -0.2509 -0.2412
 6065TIP3    H139754   4.575   1.737   7.577  1.0576  0.4467 -0.4164
 6065TIP3    H239755   4.580   1.693   7.722  0.7299 -0.5060 -0.6924
 6066TIP3   OH239756   4.169   0.248   0.881  0.5268  0.3902 -0.0771
 6066TIP3    H139757   4.244   0.294   0.844  1.5583  0.0110  1.4261
 6066TIP3    H239758   4.112   0.230   0.806  2.1255  0.3292 -1.3369
 6067TIP3   OH239759   6.655   5.071   0.645 -0.3892 -0.2546 -0.4524
 6067TIP3    H139760   6.683   5.104   0.731 -0.5704  0.0289 -0.5008
 6067TIP3    H239761   6.725   5.094   0.585 -0.4503 -0.0842 -0.4586
 6068TIP3   OH239762   6.502   0.136   7.059  0.6813  0.0790  0.4566
 6068TIP3    H139763   6.496   0.168   6.968 -2.6099 -1.0611  0.1376
 6068TIP3    H239764   6.586   0.089   7.062  1.3895  1.0548 -1.6478
 6069TIP3   OH239765   3.280   0.708   7.013 -0.5085 -0.2969 -0.3697
 6069TIP3    H139766   3.348   0.643   6.997  0.1667 -0.1348  1.5058
 6069TIP3    H239767   3.300   0.779   6.953 -0.1021 -0.9945 -1.0863
 6070TIP3   OH239768   0.770   2.082   1.603 -0.5909  0.0953 -1.0049
 6070TIP3    H139769   0.805   1.994   1.592 -0.5179  0.0335 -0.3479
 6070TIP3    H239770   0.681   2.078   1.568 -0.4117 -0.1040 -1.4390
 6071TIP3   OH239771   0.826   6.439   7.517  0.4316  1.3778 -0.6752
 6071TIP3    H139772   0.843   6.423   7.610 -0.0766  0.3516 -0.7432
 6071TIP3    H239773   0.911   6.461   7.480  0.5661  2.2350  0.1125
 6072TIP3   OH239774   2.276   1.089   0.778  0.0339 -0.1264 -0.0477
 6072TIP3    H139775   2.269   1.182   0.757  3.1997 -0.1477 -1.8919
 6072TIP3    H239776   2.223   1.045   0.712 -0.7802  0.3094  0.3038
 6073TIP3   OH239777   5.276   6.430   2.398  0.1319  0.5511 -0.5105
 6073TIP3    H139778   5.362   6.399   2.372  0.0612 -0.7918  0.7431
 6073TIP3    H239779   5.293   6.509   2.450  0.6885 -0.2406  0.5311
 6074TIP3   OH239780   2.637   5.083   7.324  0.1918  0.4411  0.2438
 6074TIP3    H139781   2.552   5.115   7.353 -0.2051 -0.2125 -0.1692
 6074TIP3    H239782   2.621   5.051   7.235  0.3302 -1.7762  0.9573
 6075TIP3   OH239783   2.701   4.431   8.268 -0.4479  0.1961 -0.0859
 6075TIP3    H139784   2.696   4.481   8.186  1.6760 -0.2683 -0.5530
 6075TIP3    H239785   2.721   4.497   8.335 -1.1377  0.4314 -0.1058
 6076TIP3   OH239786   0.238   2.185   2.078 -0.5852 -0.5164  0.1679
 6076TIP3    H139787   0.242   2.093   2.054  0.1070  0.0591 -2.1353
 6076TIP3    H239788   0.329   2.212   2.087 -0.7787 -0.0149  0.7695
 6077TIP3   OH239789   6.349   5.400   8.299 -0.1256 -0.1630  0.5039
 6077TIP3    H139790   6.303   5.320   8.325  1.9858 -0.8610  2.3752
 6077TIP3    H239791   6.424   5.405   8.358  0.5646  2.5032 -0.4661
 6078TIP3   OH239792   5.792   3.981   0.345  0.2735 -0.2603  0.3781
 6078TIP3    H139793   5.748   4.052   0.391 -1.1344  1.3052 -3.0520
 6078TIP3    H239794   5.722   3.919   0.323  0.0593  0.9531 -2.8345
 6079TIP3   OH239795   0.173   2.901   1.439 -0.6902 -0.3195  0.0883
 6079TIP3    H139796   0.106   2.924   1.375  0.2405 -0.8309 -1.1106
 6079TIP3    H239797   0.159   2.808   1.457  0.3173 -0.7124 -0.9925
 6080TIP3   OH239798   2.129   3.776   0.191 -0.3613 -0.7732  0.2502
 6080TIP3    H139799   2.085   3.850   0.233  1.1565  2.3858 -3.1640
 6080TIP3    H239800   2.073   3.754   0.117  1.1141 -0.2903 -1.0539
 6081TIP3   OH239801   2.121   4.250   2.076 -0.0463  0.0074  0.0555
 6081TIP3    H139802   2.216   4.243   2.065  0.7155  0.3130  4.4534
 6081TIP3    H239803   2.111   4.304   2.154 -3.8452 -0.8257  0.3096
 6082TIP3   OH239804   4.697   4.287   1.766 -0.6252  0.0094 -0.3112
 6082TIP3    H139805   4.669   4.257   1.853  0.0681  1.5272  0.4777
 6082TIP3    H239806   4.713   4.380   1.777 -0.8918  0.3201 -2.1903
 6083TIP3   OH239807   5.202   6.101   8.555  0.3008 -0.2682  0.2763
 6083TIP3    H139808   5.254   6.068   8.628  2.0267 -0.2838 -0.8819
 6083TIP3    H239809   5.169   6.186   8.585  1.0875 -0.2167  1.0292
 6084TIP3   OH239810   4.307   6.360   1.217 -0.4709 -0.4105 -0.2226
 6084TIP3    H139811   4.366   6.348   1.143  0.1748 -0.6129  0.3111
 6084TIP3    H239812   4.289   6.271   1.249 -1.9150 -0.4257 -1.0185
 6085TIP3   OH239813   0.360   5.748   0.810  0.3315  0.0539 -0.1278
 6085TIP3    H139814   0.417   5.722   0.882  1.7295  1.7579 -0.5587
 6085TIP3    H239815   0.277   5.771   0.852  0.9490  0.5009  0.8722
 6086TIP3   OH239816   5.332   5.038   1.803 -0.3936  0.3096 -0.1947
 6086TIP3    H139817   5.402   5.007   1.746 -0.3538 -2.1008  0.9942
 6086TIP3    H239818   5.377   5.080   1.876 -0.1919 -0.4317  0.1209
 6087TIP3   OH239819   1.082   0.075   0.214 -0.5738  0.5255  0.1882
 6087TIP3    H139820   1.125   0.098   0.297 -2.9163  3.5227  0.7445
 6087TIP3    H239821   1.056  -0.016   0.224  1.2949  0.0869  1.7055
 6088TIP3   OH239822   0.169   3.438   8.377 -0.5136  0.1014 -0.4177
 6088TIP3    H139823   0.158   3.481   8.292  1.0272  0.1294 -0.6266
 6088TIP3    H239824   0.260   3.411   8.379 -1.3595 -3.0913 -0.2210
 6089TIP3   OH239825   5.990   1.632   1.469 -0.2966  0.2494 -0.1046
 6089TIP3    H139826   6.044   1.667   1.539  0.1536 -2.2377  0.8617
 6089TIP3    H239827   6.038   1.653   1.389  0.0973  1.5047  0.4342
 6090TIP3   OH239828   3.655   0.447   0.439 -0.0573 -0.2670  0.2362
 6090TIP3    H139829   3.647   0.511   0.369 -1.9165 -1.0220 -0.3004
 6090TIP3    H239830   3.687   0.497   0.514 -2.5889  1.6106  0.1948
 6091TIP3   OH239831   6.101   0.183   0.675  0.2833 -0.3312  0.2559
 6091TIP3    H139832   6.022   0.173   0.621  1.3096  0.0084 -1.3998
 6091TIP3    H239833   6.166   0.126   0.632  1.7280  1.5072 -0.1058
 6092TIP3   OH239834   6.515   3.506   0.138 -0.2056 -0.0204  0.1834
 6092TIP3    H139835   6.423   3.500   0.163 -0.4669  0.4963 -0.6402
 6092TIP3    H239836   6.517   3.566   0.064  0.4704 -1.8943 -1.4226
 6093TIP3   OH239837   0.189   4.692   1.337  0.0848 -0.1997 -0.4804
 6093TIP3    H139838   0.271   4.657   1.301 -0.5373 -0.9268 -1.2266
 6093TIP3    H239839   0.122   4.628   1.312 -0.7874  0.6094 -0.2807
 6094TIP3   OH239840   2.671   4.964   7.066  1.2684 -0.1154 -0.1107
 6094TIP3    H139841   2.638   4.889   7.115 -0.0894 -0.1769 -1.0520
 6094TIP3    H239842   2.620   4.963   6.985  3.0954  0.2498 -1.3261
 6095TIP3   OH239843   0.407   3.745   7.515 -0.1453 -0.5749  0.2266
 6095TIP3    H139844   0.501   3.767   7.514 -0.3039  0.1284  0.6375
 6095TIP3    H239845   0.392   3.703   7.430  0.0554  1.3931 -0.8359
 6096TIP3   OH239846   2.931   1.140   1.183  0.4289 -0.3590 -0.4467
 6096TIP3    H139847   2.851   1.125   1.234  0.4393 -0.7791 -0.5567
 6096TIP3    H239848   2.990   1.069   1.208  0.7622 -0.0619 -0.3848
 6097TIP3   OH239849   3.161   2.310   0.286  0.1812 -0.0084  0.0324
 6097TIP3    H139850   3.131   2.357   0.209 -0.3952  0.2603  0.4094
 6097TIP3    H239851   3.083   2.302   0.341  0.4085 -0.8666  0.2513
 6098TIP3   OH239852   3.430   3.398   0.311 -0.3979  0.3189 -0.0529
 6098TIP3    H139853   3.352   3.414   0.258  0.0959  1.3653 -0.4877
 6098TIP3    H239854   3.438   3.302   0.312 -1.6456  0.2004 -0.0444
 6099TIP3   OH239855   5.234   5.402   7.982  0.4376 -0.5375  0.3237
 6099TIP3    H139856   5.172   5.456   8.031  1.3046 -0.0915  0.9523
 6099TIP3    H239857   5.220   5.425   7.891  0.9352  0.9080  0.5943
 6100TIP3   OH239858   6.403   0.812   7.817 -0.2222  0.1209 -0.2225
 6100TIP3    H139859   6.401   0.743   7.751 -0.2171 -0.6466  0.5629
 6100TIP3    H239860   6.379   0.769   7.899  1.6721  0.6185  0.6595
 6101TIP3   OH239861   4.547   1.480   8.319  0.2394  0.0210  0.2457
 6101TIP3    H139862   4.463   1.519   8.345 -1.0375 -1.2882 -1.5865
 6101TIP3    H239863   4.613   1.542   8.348 -1.5388  2.5542 -0.8002
 6102TIP3   OH239864   1.741   1.930   6.283 -0.3230  0.6065 -0.6074
 6102TIP3    H139865   1.830   1.900   6.262 -0.8975  0.0115 -2.2825
 6102TIP3    H239866   1.686   1.853   6.272 -1.1830  1.1870 -0.4595
 6103TIP3   OH239867   0.669   1.817   0.336 -0.2187 -0.1949 -0.3162
 6103TIP3    H139868   0.694   1.817   0.244  0.3448 -0.6748 -0.1682
 6103TIP3    H239869   0.640   1.907   0.353 -0.2744 -0.0920 -0.9445
 6104TIP3   OH239870   0.149   1.959   7.909  0.3369  0.3189  0.1445
 6104TIP3    H139871   0.145   2.038   7.963 -0.6502 -0.6517  1.5649
 6104TIP3    H239872   0.215   1.904   7.952 -0.9470 -0.7474  0.8098
 6105TIP3   OH239873   1.694   3.753   6.909 -0.1461 -0.1827  0.4871
 6105TIP3    H139874   1.604   3.731   6.885 -0.5661  0.4337  1.4475
 6105TIP3    H239875   1.686   3.810   6.986  0.9762  1.2244 -0.3627
 6106TIP3   OH239876   3.585   3.753   0.121 -0.1246 -0.6270 -0.0935
 6106TIP3    H139877   3.545   3.833   0.155 -0.4609 -0.3305 -1.1306
 6106TIP3    H239878   3.650   3.784   0.057 -1.6705 -1.1705 -2.0335
 6107TIP3   OH239879   2.373   6.161   1.281 -0.2119 -0.0814 -0.1662
 6107TIP3    H139880   2.354   6.208   1.361 -1.2629  0.5846 -0.7758
 6107TIP3    H239881   2.377   6.069   1.307 -2.1054 -0.0368  0.4217
 6108TIP3   OH239882   5.824   6.553   7.041  0.0995  0.0899 -0.0816
 6108TIP3    H139883   5.807   6.476   6.986 -4.4578  0.6986  0.1507
 6108TIP3    H239884   5.858   6.619   6.981 -1.9750 -0.1938 -1.6574
 6109TIP3   OH239885   6.169   4.764   7.878  0.0324 -0.4884  0.2813
 6109TIP3    H139886   6.216   4.686   7.908 -1.7360 -1.2211  1.2804
 6109TIP3    H239887   6.081   4.755   7.915 -0.4149  1.6691 -0.1213
 6110TIP3   OH239888   0.141   2.216   1.829  0.2556  0.0415 -0.0502
 6110TIP3    H139889   0.137   2.204   1.924  0.1354  1.1290  0.0992
 6110TIP3    H239890   0.234   2.203   1.808  0.1094 -1.2641  0.0469
 6111TIP3   OH239891   5.258   6.159   1.607 -0.2558  0.0596 -0.3459
 6111TIP3    H139892   5.326   6.164   1.540 -0.8101 -0.6226 -0.9667
 6111TIP3    H239893   5.278   6.079   1.655 -0.3795  0.0807 -0.2598
 6112TIP3   OH239894   3.151   0.515   1.262 -0.5731  0.9103 -0.4309
 6112TIP3    H139895   3.229   0.500   1.315 -0.1387  1.0914 -1.0096
 6112TIP3    H239896   3.120   0.601   1.289  0.0856  1.3356 -1.0024
 6113TIP3   OH239897   2.274   3.291   1.338  0.3140 -0.2316  0.3461
 6113TIP3    H139898   2.242   3.207   1.372  0.0700  0.0823  0.9136
 6113TIP3    H239899   2.364   3.296   1.370  0.0852  0.0625  0.9629
 6114TIP3   OH239900   2.405   4.717   8.708 -0.1432 -0.2681  0.0103
 6114TIP3    H139901   2.309   4.721   8.707 -0.1322  0.1465 -1.6774
 6114TIP3    H239902   2.429   4.741   8.798 -1.6209 -0.8186  0.5764
 6115TIP3   OH239903   4.231   6.611   1.123  0.0922  0.1078  0.5069
 6115TIP3    H139904   4.250   6.524   1.157 -1.8430 -0.0427  1.2937
 6115TIP3    H239905   4.233   6.601   1.028 -0.6311 -0.9289  0.5865
 6116TIP3   OH239906   0.824   4.707   1.575 -0.5251  0.1825 -0.0180
 6116TIP3    H139907   0.808   4.692   1.668 -0.2300  1.7220  0.3006
 6116TIP3    H239908   0.886   4.638   1.550 -0.0762  0.1650  1.0858
 6117TIP3   OH239909   4.084   2.235   6.688 -0.1570 -0.3593 -0.1972
 6117TIP3    H139910   4.004   2.277   6.720 -0.3874  0.7993 -2.1117
 6117TIP3    H239911   4.078   2.145   6.718 -2.2639 -0.3313 -0.4057
 6118TIP3   OH239912   5.352   5.740   0.141  0.3190  0.0793  0.5927
 6118TIP3    H139913   5.291   5.764   0.211 -0.1520  1.7277 -0.3427
 6118TIP3    H239914   5.302   5.682   0.084  0.4208 -0.5409  1.1196
 6119TIP3   OH239915   6.651   2.730   8.818 -0.0259  0.2491  0.3752
 6119TIP3    H139916   6.584   2.773   8.870 -2.4096 -0.5297 -1.8687
 6119TIP3    H239917   6.623   2.638   8.813  0.4978  0.1537 -1.6103
 6120TIP3   OH239918   3.579   5.113   8.122  0.0253  0.5513  0.4765
 6120TIP3    H139919   3.619   5.138   8.206  0.0767  0.8597  0.3633
 6120TIP3    H239920   3.585   5.193   8.069  0.4345  0.2177  0.0127
 6121TIP3   OH239921   5.253   3.856   1.083 -0.0409 -0.1289  0.4660
 6121TIP3    H139922   5.202   3.786   1.124 -0.8231 -0.7461 -1.4350
 6121TIP3    H239923   5.254   3.833   0.990  0.7922  1.7255 -0.0246
 6122TIP3   OH239924   0.473   0.411   5.993  0.9819 -0.5287  0.1316
 6122TIP3    H139925   0.388   0.448   6.017  0.9363 -2.0685  2.7395
 6122TIP3    H239926   0.534   0.484   5.999  0.2975 -0.0254  1.2787
 6123TIP3   OH239927   6.670   1.335   0.214 -0.1170  0.0138  0.7806
 6123TIP3    H139928   6.689   1.395   0.141 -1.2110 -0.7734 -0.2079
 6123TIP3    H239929   6.731   1.262   0.201  1.2238  0.8710  1.9918
 6124TIP3   OH239930   1.514   4.443   7.434 -0.2465 -0.0798 -0.2706
 6124TIP3    H139931   1.420   4.453   7.414 -0.3415  0.5490  0.4628
 6124TIP3    H239932   1.525   4.482   7.520  1.4041  3.5540 -1.9313
 6125TIP3   OH239933   3.908   2.780   6.683  0.3485  0.0664 -0.2875
 6125TIP3    H139934   3.870   2.754   6.600  0.7654 -0.3086 -0.3686
 6125TIP3    H239935   3.838   2.826   6.729 -0.3466 -1.0377 -0.2280
 6126TIP3   OH239936   0.585   0.569   8.727 -0.2677 -0.2820  0.2639
 6126TIP3    H139937   0.561   0.477   8.729 -0.6867 -0.2336 -1.5012
 6126TIP3    H239938   0.650   0.576   8.657 -0.0302  0.7154  0.5660
 6127TIP3   OH239939   6.292   0.206   6.568 -0.1586  0.4415  0.2607
 6127TIP3    H139940   6.287   0.140   6.499 -1.4554  0.4660  0.3134
 6127TIP3    H239941   6.357   0.269   6.536 -1.1369  0.7476 -1.1972
 6128TIP3   OH239942   2.071   1.792   0.244  0.0952 -0.3027 -0.4217
 6128TIP3    H139943   2.105   1.871   0.201  0.5762 -0.5638 -0.5261
 6128TIP3    H239944   2.029   1.825   0.323  0.8589  0.0061 -0.1286
 6129TIP3   OH239945   2.741   6.535   8.869  0.0949  0.0077 -0.5529
 6129TIP3    H139946   2.692   6.511   8.948 -0.8408 -1.3006 -1.4918
 6129TIP3    H239947   2.684   6.598   8.824  0.0372 -0.2385 -0.8240
 6130TIP3   OH239948   4.956   6.670   6.704  0.2686 -0.2847 -0.6634
 6130TIP3    H139949   5.034   6.710   6.664 -0.1865 -0.1941 -1.4798
 6130TIP3    H239950   4.922   6.611   6.636 -1.9562  1.7088 -1.4152
 6131TIP3   OH239951   0.891   0.286   7.943 -0.1302 -0.3442  0.1786
 6131TIP3    H139952   0.956   0.338   7.991  2.1022 -3.7724  1.2282
 6131TIP3    H239953   0.907   0.307   7.851  2.2170 -0.6625  0.4329
 6132TIP3   OH239954   3.377   3.843   0.984  0.3792  0.0398  0.2915
 6132TIP3    H139955   3.358   3.936   0.995  1.6868  0.4444 -0.5401
 6132TIP3    H239956   3.354   3.825   0.893  3.6904  0.5682 -0.7814
 6133TIP3   OH239957   0.077   3.639   0.547  0.1570 -0.0385 -0.1076
 6133TIP3    H139958   0.065   3.560   0.599  1.1159  0.2507  0.5844
 6133TIP3    H239959   0.105   3.608   0.461 -0.0633 -0.4702 -0.0241
 6134TIP3   OH239960   6.722   6.490   1.727 -0.3593  0.1060 -0.2640
 6134TIP3    H139961   6.688   6.413   1.772 -1.7400  0.1417 -1.1875
 6134TIP3    H239962   6.800   6.514   1.777 -0.8115 -0.9201  1.0023
 6135TIP3   OH239963   6.179   3.388   0.968 -0.2516 -0.1673  0.7029
 6135TIP3    H139964   6.161   3.297   0.991  0.6968  0.3469  3.8244
 6135TIP3    H239965   6.118   3.439   1.021  0.1810  1.0847  0.0530
 6136TIP3   OH239966   3.887   1.066   0.237 -0.6101 -0.5182 -0.1280
 6136TIP3    H139967   3.819   1.122   0.274 -0.3933 -1.0817  1.1805
 6136TIP3    H239968   3.964   1.081   0.291 -0.2798 -1.3661 -0.3386
 6137TIP3   OH239969   6.425   6.617   0.346  0.1403 -0.5528  0.1036
 6137TIP3    H139970   6.427   6.549   0.413 -2.8236 -1.1442 -0.2717
 6137TIP3    H239971   6.347   6.598   0.294  1.6257  0.5865 -2.8066
 6138TIP3   OH239972   4.287   5.767   1.440 -0.1553 -0.1687  0.1487
 6138TIP3    H139973   4.193   5.762   1.459 -0.4677 -0.3767 -1.3454
 6138TIP3    H239974   4.296   5.846   1.387  0.3067 -0.8554 -0.8085
 6139TIP3   OH239975   3.789   0.046   0.029  0.4366  0.1964 -0.3171
 6139TIP3    H139976   3.719   0.103  -0.004  0.5886 -0.4631 -1.8501
 6139TIP3    H239977   3.854   0.045  -0.040  0.8462 -1.1364  0.0501
 6140TIP3   OH239978   2.068   2.131   7.474 -0.7417  0.3533 -0.5644
 6140TIP3    H139979   2.125   2.183   7.418 -0.0516  1.1609  0.8415
 6140TIP3    H239980   1.982   2.173   7.466 -0.4026  1.1386 -0.1716
 6141TIP3   OH239981   3.534   3.317   0.650  0.3630 -0.1093 -0.5571
 6141TIP3    H139982   3.582   3.386   0.696 -0.6444  0.2257  0.0107
 6141TIP3    H239983   3.442   3.342   0.658 -0.0496 -1.6576 -0.0726
 6142TIP3   OH239984   2.348   3.864   7.668  0.4718 -0.0853 -0.1785
 6142TIP3    H139985   2.405   3.852   7.592  0.9306  0.4303  0.0781
 6142TIP3    H239986   2.260   3.843   7.635  0.4229  1.6779 -1.2775
 6143TIP3   OH239987   2.123   4.458   2.343  0.4339 -0.1566 -0.5219
 6143TIP3    H139988   2.147   4.533   2.398  0.5742  1.7861 -3.0277
 6143TIP3    H239989   2.164   4.383   2.386  1.3638  1.3800  1.4492
 6144TIP3   OH239990   3.491   2.546   7.391 -0.0596 -0.1951 -0.7162
 6144TIP3    H139991   3.472   2.477   7.455  0.5479 -0.7434 -1.1133
 6144TIP3    H239992   3.523   2.500   7.314  1.1806  0.5780 -0.6881
 6145TIP3   OH239993   3.387   5.236   0.311  0.4621  0.5002  0.4610
 6145TIP3    H139994   3.479   5.220   0.330  0.1284 -0.3805  1.4650
 6145TIP3    H239995   3.360   5.303   0.374 -0.1294 -0.9016  1.7506
 6146TIP3   OH239996   2.266   1.142   7.185 -0.2405  0.1269  0.7406
 6146TIP3    H139997   2.327   1.116   7.116 -1.7446 -2.0207  0.1215
 6146TIP3    H239998   2.310   1.117   7.267  0.5338  0.4431  0.4251
 6147TIP3   OH239999   2.260   5.536   0.176 -0.0959  0.4251  0.3103
 6147TIP3    H140000   2.302   5.482   0.109  1.0175  2.4911 -0.7722
 6147TIP3    H240001   2.175   5.558   0.139 -0.4701 -0.3765  0.6668
 6148TIP3   OH240002   4.661   5.443   7.856  0.2532 -0.6152 -0.5144
 6148TIP3    H140003   4.578   5.396   7.846 -0.4248  0.5990 -0.8151
 6148TIP3    H240004   4.684   5.430   7.948 -0.9802  0.1140 -0.0654
 6149TIP3   OH240005   4.938   0.004   1.275 -0.3520 -0.1367  0.1995
 6149TIP3    H140006   4.887  -0.042   1.208 -0.4920 -1.2239  1.0166
 6149TIP3    H240007   5.010  -0.055   1.296 -0.1120  0.3421  0.7610
 6150TIP3   OH240008   1.518   1.169   7.585 -0.2172  0.0477  0.6638
 6150TIP3    H140009   1.548   1.220   7.660 -0.3727 -1.0279  1.4720
 6150TIP3    H240010   1.459   1.228   7.538  2.5592  2.0276 -0.6440
 6151TIP3   OH240011   1.958   6.256   0.525  0.1145 -0.2851 -0.3111
 6151TIP3    H140012   1.893   6.252   0.596  0.9022 -1.9541  0.3725
 6151TIP3    H240013   2.018   6.184   0.544  0.6937 -0.3934 -2.3756
 6152TIP3   OH240014   1.633   1.555   1.406 -0.6590 -0.0315  0.4598
 6152TIP3    H140015   1.631   1.630   1.346  1.5819 -0.5976 -0.4063
 6152TIP3    H240016   1.673   1.485   1.356 -0.8836 -1.2465  1.9030
 6153TIP3   OH240017   0.773   2.451   8.310 -0.4345  0.1544 -0.6316
 6153TIP3    H140018   0.803   2.365   8.340  0.6947  1.1699  1.3666
 6153TIP3    H240019   0.718   2.483   8.381  2.3456  2.6619  0.6261
 6154TIP3   OH240020   2.669   2.351   8.266 -0.1069  0.4031 -0.5665
 6154TIP3    H140021   2.705   2.408   8.334  0.3301 -1.3586  0.7446
 6154TIP3    H240022   2.603   2.299   8.311  0.7138 -1.3338 -1.2882
 6155TIP3   OH240023   1.066   3.729   0.531  0.0895 -0.1439 -0.4396
 6155TIP3    H140024   1.006   3.716   0.604 -1.8123  1.4453 -1.6058
 6155TIP3    H240025   1.149   3.692   0.561 -0.4898  0.7582  2.6682
 6156TIP3   OH240026   1.736   6.217   0.681  0.1529  0.3778 -0.7317
 6156TIP3    H140027   1.726   6.169   0.600 -1.0117 -0.4500 -0.1195
 6156TIP3    H240028   1.672   6.179   0.741  0.0666  1.8385  0.1745
 6157TIP3   OH240029   1.930   3.659   0.474 -0.4198 -0.5218 -0.3159
 6157TIP3    H140030   2.007   3.617   0.512 -0.4257 -0.3401 -0.1042
 6157TIP3    H240031   1.930   3.630   0.383  0.3848  0.1630 -0.5462
 6158TIP3   OH240032   3.476   1.590   1.895  0.1326 -0.5351  0.2538
 6158TIP3    H140033   3.556   1.537   1.900 -0.9068 -2.1434  0.5059
 6158TIP3    H240034   3.434   1.577   1.980  0.6848  2.1747  1.0410
 6159TIP3   OH240035   0.290   1.964   0.277 -0.1749 -0.0552  0.2338
 6159TIP3    H140036   0.353   1.993   0.343  0.9524  0.7646 -1.1565
 6159TIP3    H240037   0.227   2.035   0.271 -1.0445 -0.7016  1.3355
 6160TIP3   OH240038   3.167   5.732   8.418  0.3281 -0.3565 -0.1356
 6160TIP3    H140039   3.073   5.749   8.412  0.3092  0.4136  1.9018
 6160TIP3    H240040   3.190   5.699   8.331 -2.1540 -2.2725 -0.1766
 6161TIP3   OH240041   4.321   6.064   7.637 -0.1469 -0.0396  0.5322
 6161TIP3    H140042   4.334   6.088   7.545 -3.2127 -0.9990 -0.2518
 6161TIP3    H240043   4.265   5.987   7.634 -0.7809  0.2414  3.2326
 6162TIP3   OH240044   5.365   1.926   0.511 -0.1068 -0.6126 -0.0339
 6162TIP3    H140045   5.319   2.009   0.528  2.0284  0.9194 -1.3075
 6162TIP3    H240046   5.296   1.860   0.516 -2.3044  1.4448 -0.9561
 6163TIP3   OH240047   3.335   1.812   1.227 -0.3766  0.4851 -0.2244
 6163TIP3    H140048   3.297   1.727   1.205 -0.5009  0.4733  0.0268
 6163TIP3    H240049   3.336   1.861   1.145 -0.9267  0.4828 -0.2359
 6164TIP3   OH240050   3.186   3.504   0.839 -0.0582  0.1315  0.3854
 6164TIP3    H140051   3.186   3.600   0.850 -1.9798 -0.0022  2.0268
 6164TIP3    H240052   3.105   3.485   0.793 -0.3864 -0.7874  1.2938
 6165TIP3   OH240053   1.485   5.256   6.609 -0.5042 -0.3618  0.5286
 6165TIP3    H140054   1.458   5.212   6.689  1.3120 -0.7038  0.9934
 6165TIP3    H240055   1.486   5.186   6.543  3.0304 -1.3840  1.4074
 6166TIP3   OH240056   2.487   1.394   8.465  0.3622  0.3919  0.1845
 6166TIP3    H140057   2.563   1.340   8.443  0.4616  0.0910  1.2438
 6166TIP3    H240058   2.412   1.336   8.453  0.2259  0.8153 -1.3034
 6167TIP3   OH240059   5.522   4.681   0.478  0.3698 -0.0274 -0.0385
 6167TIP3    H140060   5.487   4.755   0.526  1.3783  2.0724 -2.2944
 6167TIP3    H240061   5.610   4.669   0.514 -0.2142 -0.9775  1.1408
 6168TIP3   OH240062   4.426   3.903   0.471  0.2750  0.0651 -0.3056
 6168TIP3    H140063   4.398   3.813   0.489  0.9628 -0.3652 -1.2772
 6168TIP3    H240064   4.461   3.934   0.554  0.2943 -0.6735 -0.0259
 6169TIP3   OH240065   4.608   5.543   0.495  0.3088  0.0721 -0.8254
 6169TIP3    H140066   4.555   5.464   0.486 -0.4222  0.5795 -1.1843
 6169TIP3    H240067   4.667   5.541   0.420  0.9608 -0.6119 -0.2997
 6170TIP3   OH240068   0.487   2.158   1.576  0.6609  0.7871  0.1305
 6170TIP3    H140069   0.414   2.105   1.546  1.3658  0.2502 -0.6985
 6170TIP3    H240070   0.517   2.204   1.497  0.6494  1.6916  0.6473
 6171TIP3   OH240071   1.615   1.608   8.615 -0.0634 -0.0499 -0.6338
 6171TIP3    H140072   1.547   1.619   8.549 -0.3842  0.7616 -0.1838
 6171TIP3    H240073   1.696   1.601   8.564 -0.2141  1.3053 -1.1052
 6172TIP3   OH240074   6.145   4.912   6.479  0.3626  0.9210  0.5410
 6172TIP3    H140075   6.076   4.937   6.540 -1.3601 -0.2731 -0.8246
 6172TIP3    H240076   6.192   4.842   6.523  0.7589  1.7728  1.5064
 6173TIP3   OH240077   0.939   0.131   7.165  0.0178  1.0799 -0.3373
 6173TIP3    H140078   0.936   0.092   7.253  1.4049  1.9534  0.1220
 6173TIP3    H240079   0.969   0.059   7.108 -0.7193  0.5596 -0.0886
 6174TIP3   OH240080   3.320   4.135   0.873 -0.2224  0.4170  0.7980
 6174TIP3    H140081   3.247   4.196   0.882 -1.0637 -0.3039 -0.7485
 6174TIP3    H240082   3.384   4.165   0.937 -0.8952  2.4981  0.5735
 6175TIP3   OH240083   2.002   4.663   0.448 -0.8636  0.0031 -0.2359
 6175TIP3    H140084   2.056   4.613   0.509 -1.8921 -1.0095 -0.1220
 6175TIP3    H240085   2.061   4.684   0.375  0.2465  0.8307  0.8662
 6176TIP3   OH240086   5.793   3.137   0.352 -0.5440 -0.0382 -0.1840
 6176TIP3    H140087   5.811   3.045   0.335 -1.5135 -0.8613  2.6885
 6176TIP3    H240088   5.704   3.151   0.318 -0.8785 -0.5245  0.4711
 6177TIP3   OH240089   3.076   6.393   1.818 -0.1962 -0.2078  0.5279
 6177TIP3    H140090   3.036   6.473   1.852 -1.6152 -0.8786  0.5053
 6177TIP3    H240091   3.088   6.338   1.895  0.0281 -0.2913  0.4336
 6178TIP3   OH240092   0.029   4.494   6.615  0.1044 -0.0461  0.4611
 6178TIP3    H140093   0.107   4.471   6.565 -0.1830 -3.5502  1.4039
 6178TIP3    H240094  -0.028   4.537   6.551  1.2297 -0.9876 -1.2536
 6179TIP3   OH240095   5.308   0.040   1.783 -0.3968  1.1130  0.7560
 6179TIP3    H140096   5.380   0.050   1.722 -1.0049  0.9377 -0.0093
 6179TIP3    H240097   5.350   0.022   1.867  0.4332  0.5776  0.2399
 6180TIP3   OH240098   5.089   5.383   1.355 -0.2355 -0.2119 -0.3085
 6180TIP3    H140099   5.020   5.389   1.421  0.1958  1.4323  0.0394
 6180TIP3    H240100   5.045   5.352   1.276 -1.5424  1.3865 -0.2689
 6181TIP3   OH240101   0.442   1.534   0.133 -0.0050 -0.0832  0.0217
 6181TIP3    H140102   0.372   1.474   0.109  0.8774 -0.5522 -1.5260
 6181TIP3    H240103   0.423   1.614   0.084  0.5352 -0.2152 -0.4091
 6182TIP3   OH240104   1.911   2.382   1.594 -0.8579  0.6081 -0.1186
 6182TIP3    H140105   2.004   2.390   1.613 -0.7620  0.2318 -0.4209
 6182TIP3    H240106   1.886   2.298   1.634 -0.7779  0.0799 -1.1613
 6183TIP3   OH240107   3.456   4.329   7.192 -0.1501  0.1854 -0.1644
 6183TIP3    H140108   3.445   4.420   7.218 -0.6086 -0.4117  2.0071
 6183TIP3    H240109   3.375   4.306   7.146 -0.6707  0.4998  0.5767
 6184TIP3   OH240110   2.378   5.377   1.220  0.1848 -0.1935 -0.1867
 6184TIP3    H140111   2.305   5.340   1.170 -0.5666  1.0451 -0.0557
 6184TIP3    H240112   2.406   5.307   1.279 -2.8882  0.1794  1.9316
 6185TIP3   OH240113   3.951   6.066   1.599 -0.7958 -0.2263 -0.8211
 6185TIP3    H140114   3.904   6.148   1.614 -0.7565 -0.3349 -0.0374
 6185TIP3    H240115   3.892   5.998   1.634 -0.3900 -0.4303 -0.5239
 6186TIP3   OH240116   4.903   1.621   1.114  0.1840 -0.4252 -0.1242
 6186TIP3    H140117   4.971   1.615   1.180  0.3911  0.8994 -0.1857
 6186TIP3    H240118   4.932   1.564   1.043  0.3840 -1.1750  0.5608
 6187TIP3   OH240119   5.800   3.059   1.099 -0.0234  0.7054  0.6574
 6187TIP3    H140120   5.758   2.979   1.070  0.1907  0.7394  0.2551
 6187TIP3    H240121   5.736   3.099   1.159  0.2944 -0.2710  1.6803
 6188TIP3   OH240122   5.464   4.172   0.843 -0.3158  0.0143  0.4922
 6188TIP3    H140123   5.439   4.263   0.859 -1.0019 -0.1184  0.2443
 6188TIP3    H240124   5.455   4.161   0.748  0.5644 -0.0878  0.4190
 6189TIP3   OH240125   5.795   0.760   2.145 -0.3792 -0.5902  0.1741
 6189TIP3    H140126   5.887   0.736   2.131 -0.4778 -0.2598 -1.2288
 6189TIP3    H240127   5.791   0.787   2.237  1.0141 -0.2484  0.1640
 6190TIP3   OH240128   3.794   4.637   1.388  0.0378 -0.3710 -0.1414
 6190TIP3    H140129   3.735   4.675   1.324  0.4408 -0.2893 -0.4660
 6190TIP3    H240130   3.737   4.603   1.457 -0.3124  1.4469  0.5170
 6191TIP3   OH240131   2.927   5.921   6.979  0.2254 -0.5755  0.6722
 6191TIP3    H140132   2.945   5.933   6.886 -1.2826 -1.7126  0.1963
 6191TIP3    H240133   2.952   6.005   7.019 -2.4329  1.3279 -1.2877
 6192TIP3   OH240134   5.095   6.305   7.696 -0.0035  0.1849 -1.3748
 6192TIP3    H140135   5.111   6.258   7.614  0.5365  1.0767 -1.7926
 6192TIP3    H240136   5.151   6.382   7.692 -1.0049  0.9832 -0.7914
 6193TIP3   OH240137   2.483   4.043   6.614  0.3998  0.7596  0.5807
 6193TIP3    H140138   2.457   4.060   6.523  0.9023 -2.8814 -0.4126
 6193TIP3    H240139   2.553   3.977   6.607  0.3853  0.2837  3.6063
 6194TIP3   OH240140   2.258   1.917   6.619  0.4623  0.1272 -0.7898
 6194TIP3    H140141   2.341   1.868   6.619  0.8619  0.7809 -0.3733
 6194TIP3    H240142   2.279   1.998   6.665 -0.8181 -0.4015  0.8201
 6195TIP3   OH240143   3.015   3.886   2.218 -0.0213  0.0382  0.1719
 6195TIP3    H140144   2.999   3.832   2.296 -3.2469  0.9805  0.3094
 6195TIP3    H240145   2.981   3.833   2.145 -2.2688  1.3412  0.1856
 6196TIP3   OH240146   6.672   1.904   8.766  0.6280 -0.0720 -0.0379
 6196TIP3    H140147   6.744   1.849   8.736 -0.8394 -2.6702  0.8410
 6196TIP3    H240148   6.593   1.851   8.751 -0.6607  0.5881  3.3937
 6197TIP3   OH240149   2.463   0.433   5.895  0.2348  0.3459 -0.0553
 6197TIP3    H140150   2.418   0.348   5.894  1.7297 -0.5041 -2.1213
 6197TIP3    H240151   2.393   0.497   5.885 -0.8471 -0.6898  0.6210
 6198TIP3   OH240152   5.423   5.935   7.115  0.0387  0.4688 -0.7114
 6198TIP3    H140153   5.459   5.874   7.179  1.3288 -0.3979 -2.1996
 6198TIP3    H240154   5.335   5.955   7.148  0.2737 -0.7497  0.7682
 6199TIP3   OH240155   4.072   6.145   1.353 -0.0683 -0.0637  0.0458
 6199TIP3    H140156   4.139   6.093   1.308 -1.1426 -0.5014 -1.0913
 6199TIP3    H240157   4.060   6.101   1.437 -0.0831 -0.9393 -0.4059
 6200TIP3   OH240158   4.245   3.868   8.416  0.4831 -0.1427 -0.3324
 6200TIP3    H140159   4.323   3.899   8.463  0.5420  1.1628 -1.2403
 6200TIP3    H240160   4.274   3.855   8.326 -0.0862 -0.7590 -0.4381
 6201TIP3   OH240161   6.080   2.608   1.467  0.5480 -0.9521  0.1152
 6201TIP3    H140162   6.055   2.527   1.510 -1.3917 -0.3576  0.2015
 6201TIP3    H240163   6.165   2.631   1.506 -1.1282 -0.3450  3.9079
 6202TIP3   OH240164   3.533   0.853   1.355 -0.0193  0.5229 -0.5559
 6202TIP3    H140165   3.584   0.915   1.408  1.0967 -0.8341  0.0194
 6202TIP3    H240166   3.585   0.841   1.276 -0.3541  0.4878 -0.7727
 6203TIP3   OH240167   5.826   2.330   6.707 -0.3072 -0.8960 -0.6363
 6203TIP3    H140168   5.774   2.352   6.629 -0.8732  2.0213  0.4316
 6203TIP3    H240169   5.761   2.301   6.771 -0.7298  2.3515  0.5623
 6204TIP3   OH240170   0.274   3.320   7.209 -0.7560  0.1265  0.5352
 6204TIP3    H140171   0.222   3.378   7.153 -1.0963 -1.0042 -0.3726
 6204TIP3    H240172   0.248   3.232   7.182 -1.1423 -0.4652  2.7183
 6205TIP3   OH240173   0.195   5.181   7.778 -0.1393 -0.0009 -0.0770
 6205TIP3    H140174   0.257   5.232   7.725  1.7657 -0.7198  1.3192
 6205TIP3    H240175   0.153   5.122   7.716  1.1451 -0.0047 -1.0011
 6206TIP3   OH240176   6.040   6.743   0.252  0.6164  0.1893  0.2391
 6206TIP3    H140177   6.063   6.651   0.264  2.3297  0.5744  0.2877
 6206TIP3    H240178   6.124   6.789   0.262 -0.2588  1.7794  0.5700
 6207TIP3   OH240179   5.352   1.396   1.451  0.0844  0.3575  0.3018
 6207TIP3    H140180   5.423   1.442   1.497  0.9521  0.3037 -0.9429
 6207TIP3    H240181   5.340   1.447   1.370 -0.8726 -0.0015  0.2118
 6208TIP3   OH240182   5.532   1.095   7.328  0.1670  0.0655  0.2628
 6208TIP3    H140183   5.451   1.054   7.297 -0.1077  1.4588 -0.9877
 6208TIP3    H240184   5.512   1.188   7.331  1.0618  0.2466  2.1263
 6209TIP3   OH240185   4.906   2.774   7.511  0.3381 -0.1902 -0.0650
 6209TIP3    H140186   4.826   2.734   7.545 -1.1227  2.1035 -0.5845
 6209TIP3    H240187   4.879   2.861   7.482  2.4800 -0.2351 -2.6321
 6210TIP3   OH240188   0.955   6.240   6.794 -0.5525  0.1142 -0.4255
 6210TIP3    H140189   1.003   6.158   6.798  2.6382  1.8555  2.2754
 6210TIP3    H240190   0.985   6.282   6.713 -0.3562 -0.4020 -0.6215
 6211TIP3   OH240191   2.186   4.396   8.632  0.1156  0.0612  0.1144
 6211TIP3    H140192   2.149   4.312   8.606 -0.2335 -0.4264  2.0348
 6211TIP3    H240193   2.196   4.444   8.550 -0.8621 -1.3662 -0.8917
 6212TIP3   OH240194   5.782   6.706   8.380 -0.0422  0.1439 -0.2390
 6212TIP3    H140195   5.776   6.616   8.412  0.4891  0.3863  0.5887
 6212TIP3    H240196   5.875   6.717   8.358 -0.2729  0.2000 -1.2620
 6213TIP3   OH240197   3.351   4.294   1.538 -0.2085 -0.5155  0.8037
 6213TIP3    H140198   3.437   4.311   1.577 -0.1511 -0.4797  0.6626
 6213TIP3    H240199   3.367   4.229   1.470 -0.1513  0.1040  0.2122
 6214TIP3   OH240200   1.017   3.914   1.932 -0.0693 -0.0724 -0.0812
 6214TIP3    H140201   1.020   3.844   1.997 -0.5208  2.1389  2.5234
 6214TIP3    H240202   0.924   3.927   1.915 -0.0768  0.6174  0.3951
 6215TIP3   OH240203   1.651   1.279   8.125 -0.0259  0.6182  0.3849
 6215TIP3    H140204   1.597   1.300   8.201 -1.1771 -0.5603 -0.0602
 6215TIP3    H240205   1.692   1.361   8.100 -0.7681  1.3169  1.4115
 6216TIP3   OH240206   4.387   0.354   7.572 -0.2068  0.0229  0.3709
 6216TIP3    H140207   4.432   0.438   7.565 -0.7747  0.5048  2.0557
 6216TIP3    H240208   4.423   0.302   7.500  0.2003  1.6660 -0.6723
 6217TIP3   OH240209   0.765   5.161   7.344 -0.1419 -0.4378  1.2423
 6217TIP3    H140210   0.842   5.169   7.288  0.1511  0.8515  1.7915
 6217TIP3    H240211   0.741   5.069   7.339  0.7945 -0.6461  0.2183
 6218TIP3   OH240212   6.765   5.979   7.431 -0.3358 -0.0750 -0.3152
 6218TIP3    H140213   6.756   5.890   7.396 -3.0205 -0.6067  1.4597
 6218TIP3    H240214   6.734   5.973   7.521 -0.6555  2.6746 -0.1572
 6219TIP3   OH240215   4.924   5.936   1.222  0.0605  0.2337  0.1965
 6219TIP3    H140216   4.860   6.007   1.219 -0.8896 -0.5507  0.9167
 6219TIP3    H240217   4.997   5.971   1.272 -1.8890 -0.3513  3.7934
 6220TIP3   OH240218   2.619   4.609   2.061 -0.2511 -0.3915 -0.4916
 6220TIP3    H140219   2.581   4.523   2.047 -1.0139 -0.1713  0.1674
 6220TIP3    H240220   2.544   4.667   2.074  0.2838  0.1455  0.3218
 6221TIP3   OH240221   3.807   1.867   8.857 -0.5754 -1.1321  0.4026
 6221TIP3    H140222   3.854   1.855   8.774 -0.8063 -1.1228  0.2674
 6221TIP3    H240223   3.861   1.928   8.906 -0.8755 -0.4475 -0.0996
 6222TIP3   OH240224   4.177   1.721   0.432 -0.3842  0.5249  0.6107
 6222TIP3    H140225   4.168   1.800   0.484 -1.3919 -0.4576  2.0227
 6222TIP3    H240226   4.110   1.662   0.467  1.9696 -1.8805  1.3837
 6223TIP3   OH240227   5.574   1.221   1.075  0.0758 -0.0891  0.6023
 6223TIP3    H140228   5.659   1.198   1.037 -0.5746  0.0115 -0.9657
 6223TIP3    H240229   5.585   1.309   1.109  1.3079 -0.9715  2.7112
 6224TIP3   OH240230   3.782   2.809   0.552  0.0345 -0.1867  0.0133
 6224TIP3    H140231   3.787   2.771   0.639  0.8272  0.7251  0.3932
 6224TIP3    H240232   3.831   2.891   0.559  1.1139 -0.6311 -1.5681
 6225TIP3   OH240233   6.644   0.295   0.693 -0.6897  0.5568 -0.4971
 6225TIP3    H140234   6.681   0.346   0.764 -1.2981  1.3752 -0.7448
 6225TIP3    H240235   6.674   0.339   0.613 -0.2902 -0.1516 -0.7479
 6226TIP3   OH240236   3.562   5.381   2.272 -0.5229 -0.0897 -0.6455
 6226TIP3    H140237   3.523   5.443   2.335 -2.6768 -1.5267 -0.4605
 6226TIP3    H240238   3.585   5.436   2.197  1.3334  1.5321  1.0000
 6227TIP3   OH240239   5.030   1.042   1.761 -0.3572 -0.3728 -0.6159
 6227TIP3    H140240   5.009   1.086   1.843 -2.4769 -0.4270 -1.0776
 6227TIP3    H240241   5.099   1.096   1.721 -1.6096  1.5162 -0.3327
 6228TIP3   OH240242   6.272   2.909   1.735 -0.1805  0.2379 -0.2927
 6228TIP3    H140243   6.358   2.949   1.720 -0.1769 -0.1148 -1.2418
 6228TIP3    H240244   6.216   2.946   1.668 -1.3036  1.9481  1.4896
 6229TIP3   OH240245   2.078   1.250   7.336  0.4865  0.0908 -0.1138
 6229TIP3    H140246   2.001   1.218   7.384  0.5838 -1.0874 -0.7052
 6229TIP3    H240247   2.119   1.171   7.301  1.6757  0.7468 -0.2629
 6230TIP3   OH240248   6.383   6.281   0.646 -0.3146 -0.1252  0.2706
 6230TIP3    H140249   6.444   6.241   0.708  1.4874 -0.1485 -1.4183
 6230TIP3    H240250   6.439   6.320   0.579 -2.1435 -1.2484 -2.0558
 6231TIP3   OH240251   1.969   3.253   7.684 -0.1503 -0.6212  0.6088
 6231TIP3    H140252   1.956   3.296   7.769 -0.5529 -0.7485  0.6180
 6231TIP3    H240253   1.900   3.290   7.629  0.3053 -0.3081  0.2459
 6232TIP3   OH240254   0.345   0.693   8.326 -0.1563 -0.2270 -0.8379
 6232TIP3    H140255   0.427   0.651   8.352 -0.4585 -1.2624 -1.4808
 6232TIP3    H240256   0.309   0.728   8.408  0.9888  0.3762 -0.5774
 6233TIP3   OH240257   2.739   4.651   8.405  0.4098  0.2787  0.4982
 6233TIP3    H140258   2.717   4.739   8.375 -1.7785 -0.5417 -0.5726
 6233TIP3    H240259   2.802   4.664   8.476 -0.2187  2.7287  0.6926
 6234TIP3   OH240260   4.968   4.172   8.832 -0.2125  0.2102 -0.6340
 6234TIP3    H140261   4.881   4.147   8.861  0.1456  0.8418  1.1135
 6234TIP3    H240262   4.975   4.138   8.743 -2.0551 -0.2536 -0.6314
 6235TIP3   OH240263   3.460   0.227   7.634  0.7028 -0.8434 -0.3170
 6235TIP3    H140264   3.479   0.134   7.639  0.5335 -0.9037 -0.7788
 6235TIP3    H240265   3.371   0.236   7.668  0.2636 -1.0109 -1.3856
 6236TIP3   OH240266   5.481   3.830   0.535  0.2816  0.3053 -0.4912
 6236TIP3    H140267   5.386   3.838   0.534  0.1580  1.2016  3.1787
 6236TIP3    H240268   5.513   3.912   0.497 -0.5112  1.3917  1.0998
 6237TIP3   OH240269   3.257   3.306   0.669  0.4992  0.0560 -0.1011
 6237TIP3    H140270   3.213   3.332   0.588  1.0300 -1.3364 -0.8765
 6237TIP3    H240271   3.240   3.378   0.730  1.0302  1.6833 -1.7742
 6238TIP3   OH240272   6.466   4.182   7.191  0.0598 -0.4611 -0.0428
 6238TIP3    H140273   6.400   4.248   7.169  0.3187  0.1641  0.9870
 6238TIP3    H240274   6.540   4.233   7.225  1.3913 -1.0730 -1.8043
 6239TIP3   OH240275   6.454   1.832   6.995 -0.2530  0.5292 -0.2936
 6239TIP3    H140276   6.418   1.846   6.907 -1.7012 -0.6766  0.0556
 6239TIP3    H240277   6.415   1.902   7.048  1.0545  1.5917 -0.6905
 6240TIP3   OH240278   3.105   4.356   7.572  0.0914 -0.0311  0.2414
 6240TIP3    H140279   3.116   4.311   7.488 -0.4826  0.8157 -0.3105
 6240TIP3    H240280   3.122   4.448   7.552 -0.5777  0.2536  0.9329
 6241TIP3   OH240281   3.195   3.828   0.060 -0.5873 -0.6787 -0.3168
 6241TIP3    H140282   3.133   3.901   0.048 -1.5693 -1.3541  0.4462
 6241TIP3    H240283   3.148   3.751   0.029  0.8003 -0.8994 -2.0361
 6242TIP3   OH240284   5.829   2.236   2.141 -0.2088 -0.1900  0.2651
 6242TIP3    H140285   5.760   2.216   2.077  1.5642  0.3340 -1.9686
 6242TIP3    H240286   5.783   2.243   2.225 -3.2941  2.4421 -1.3892
 6243TIP3   OH240287   3.682   4.183   6.931 -0.5963  0.1219  0.5324
 6243TIP3    H140288   3.760   4.226   6.897 -0.7542  0.0407  0.0540
 6243TIP3    H240289   3.679   4.207   7.023 -0.1532  0.3424  0.4916
 6244TIP3   OH240290   4.298   2.839   7.627 -0.5106  0.2472 -0.2573
 6244TIP3    H140291   4.210   2.820   7.594 -0.1828 -2.3915  0.1597
 6244TIP3    H240292   4.284   2.898   7.701 -1.9403 -0.1104 -0.2178
 6245TIP3   OH240293   4.529   1.226   0.602 -0.7909 -0.2525 -0.3160
 6245TIP3    H140294   4.621   1.252   0.614 -0.5744 -0.4360 -1.4451
 6245TIP3    H240295   4.534   1.143   0.555 -1.5119 -1.5990  1.8238
 6246TIP3   OH240296   0.675   5.569   7.252 -0.0359 -0.4953 -0.2887
 6246TIP3    H140297   0.696   5.476   7.252  0.1364 -0.5129 -2.6210
 6246TIP3    H240298   0.588   5.575   7.214 -0.3591  0.2641  0.5258
 6247TIP3   OH240299   3.811   1.305   7.398  0.0045  0.4947 -0.1730
 6247TIP3    H140300   3.825   1.242   7.469 -1.4388  0.6849  0.3172
 6247TIP3    H240301   3.730   1.350   7.422 -0.7053  0.3287 -2.1154
 6248TIP3   OH240302   0.819   4.428   0.405  0.4603  0.1539 -0.2694
 6248TIP3    H140303   0.891   4.367   0.418 -0.1640 -0.4076  0.6995
 6248TIP3    H240304   0.744   4.386   0.449 -0.1774  1.2348 -0.2951
 6249TIP3   OH240305   4.008   6.665   1.271  0.6895  0.5390  0.2804
 6249TIP3    H140306   4.080   6.642   1.212 -0.4092 -0.3578 -0.7448
 6249TIP3    H240307   4.034   6.629   1.356  1.1883 -0.3037 -0.2176
 6250TIP3   OH240308   4.042   4.294   7.744 -0.4982 -0.1215 -0.1017
 6250TIP3    H140309   3.950   4.303   7.768 -0.3720  1.3731 -0.1154
 6250TIP3    H240310   4.049   4.337   7.659  0.3496  0.4383  0.2355
 6251TIP3   OH240311   5.820   5.821   7.466 -0.1789  0.4424  0.9254
 6251TIP3    H140312   5.782   5.888   7.409 -1.2015  0.0196  1.0873
 6251TIP3    H240313   5.779   5.836   7.551 -2.4549 -1.9230  0.3982
 6252TIP3   OH240314   0.163   3.747   7.045  0.5931  0.1856 -0.4896
 6252TIP3    H140315   0.251   3.709   7.040  0.4797 -0.2980  0.8198
 6252TIP3    H240316   0.175   3.839   7.023  0.9753 -0.4213 -3.1701
 6253TIP3   OH240317   2.134   5.208   0.387 -0.2155 -0.0405 -0.0303
 6253TIP3    H140318   2.053   5.231   0.342  1.2655  1.0087 -2.3040
 6253TIP3    H240319   2.149   5.116   0.364  0.6433  0.5429 -1.9868
 6254TIP3   OH240320   6.112   2.956   0.816 -0.0773 -0.2517 -0.1446
 6254TIP3    H140321   6.050   3.028   0.819  1.7900  1.4142  0.6233
 6254TIP3    H240322   6.060   2.878   0.837 -2.0599  0.9141 -0.5209
 6255TIP3   OH240323   3.375   3.283   8.014  0.1438 -0.1469  0.2283
 6255TIP3    H140324   3.311   3.213   7.999 -0.6992  0.6469 -0.0206
 6255TIP3    H240325   3.343   3.356   7.960  0.9201  0.4731  0.5878
 6256TIP3   OH240326   5.506   0.569   0.163  0.6526 -0.2325 -0.6475
 6256TIP3    H140327   5.589   0.557   0.207  0.0453  0.9810  0.9278
 6256TIP3    H240328   5.450   0.612   0.227 -0.5082  0.9835 -2.3583
 6257TIP3   OH240329   3.160   0.836   7.417 -0.2351  0.0334  0.7421
 6257TIP3    H140330   3.166   0.741   7.427  0.1019 -0.0717 -0.3191
 6257TIP3    H240331   3.236   0.860   7.364 -0.8327  0.7600  0.1867
 6258TIP3   OH240332   0.453   3.373   0.399  0.7297  0.1583  0.0916
 6258TIP3    H140333   0.467   3.432   0.325 -2.4971  1.4165  0.3459
 6258TIP3    H240334   0.508   3.408   0.469 -1.6541  3.5394  0.4980
 6259TIP3   OH240335   5.723   5.905   1.284  0.0380 -0.5950 -0.1440
 6259TIP3    H140336   5.699   5.990   1.246  0.5400  0.3889  1.6003
 6259TIP3    H240337   5.691   5.910   1.374  1.1808 -1.7541  0.3572
 6260TIP3   OH240338   5.852   1.500   8.027 -0.3601  0.0080  0.4986
 6260TIP3    H140339   5.863   1.453   7.944 -0.8800  0.7249  0.0050
 6260TIP3    H240340   5.880   1.438   8.094 -0.0786 -0.6413 -0.2036
 6261TIP3   OH240341   0.569   0.098   1.415 -0.0258 -0.5736  0.6632
 6261TIP3    H140342   0.557   0.035   1.344  1.2998 -2.0507  1.6693
 6261TIP3    H240343   0.484   0.102   1.459 -0.3275 -1.1191  0.1442
 6262TIP3   OH240344   3.699   2.381   8.882 -0.3977 -0.7099  0.4827
 6262TIP3    H140345   3.704   2.458   8.939  0.6929 -0.8943  0.6539
 6262TIP3    H240346   3.636   2.406   8.814  0.4582  0.6303  0.1373
 6263TIP3   OH240347   5.969   6.770   6.925  0.4588 -0.2946 -0.1341
 6263TIP3    H140348   5.994   6.812   6.843 -0.5003 -1.0319 -0.8195
 6263TIP3    H240349   6.052   6.756   6.971  1.1121 -0.7676 -1.4132
 6264TIP3   OH240350   1.484   4.265   8.031 -0.7363 -0.1525  0.1540
 6264TIP3    H140351   1.515   4.238   7.945  1.5205  0.1579  0.7842
 6264TIP3    H240352   1.515   4.195   8.090 -0.7794  0.4566  0.9174
 6265TIP3   OH240353   5.248   5.703   6.414  0.0876  0.5746  0.2159
 6265TIP3    H140354   5.276   5.764   6.346  1.2070 -0.6734 -0.5047
 6265TIP3    H240355   5.330   5.667   6.449 -0.4940  0.8596  1.9150
 6266TIP3   OH240356   0.022   6.558   0.523  0.3523  0.0453 -0.3697
 6266TIP3    H140357   0.090   6.547   0.589  0.2327 -1.0155 -0.4061
 6266TIP3    H240358   0.014   6.653   0.512 -0.4021  0.3006  1.9540
 6267TIP3   OH240359   2.887   4.900   7.320 -0.0892  0.3740  0.0370
 6267TIP3    H140360   2.852   4.908   7.409  0.7385  0.6808  0.3437
 6267TIP3    H240361   2.818   4.936   7.264 -0.8390 -0.2974  0.5000
 6268TIP3   OH240362   1.329   0.775   1.425 -0.5647  0.0837  0.2678
 6268TIP3    H140363   1.241   0.797   1.393 -1.3587  0.5386  2.5522
 6268TIP3    H240364   1.363   0.858   1.460  0.1267 -0.4153  0.8050
 6269TIP3   OH240365   1.841   5.960   0.828  0.0301  1.0406 -0.4327
 6269TIP3    H140366   1.884   5.964   0.913 -0.8297 -3.0727  0.4481
 6269TIP3    H240367   1.910   5.978   0.764  1.3447  1.4586  1.0518
 6270TIP3   OH240368   2.804   1.248   2.506 -0.4691  0.4871 -0.2834
 6270TIP3    H140369   2.738   1.287   2.448  1.7024  1.0440 -2.5757
 6270TIP3    H240370   2.794   1.153   2.494 -1.5698  0.5217  0.2923
 6271TIP3   OH240371   1.771   2.841   1.159 -0.1891  0.0327  0.5845
 6271TIP3    H140372   1.849   2.809   1.114 -0.2804 -0.1575  0.5567
 6271TIP3    H240373   1.760   2.782   1.234 -0.0838  0.2996  0.8099
 6272TIP3   OH240374   2.525   0.960   0.809 -0.1137  0.2124  0.1809
 6272TIP3    H140375   2.480   0.885   0.770  0.3412 -0.0237  0.0982
 6272TIP3    H240376   2.465   1.033   0.796  0.9262  0.6684 -3.0802
 6273TIP3   OH240377   5.633   6.161   1.171 -0.2343 -0.5520 -0.0114
 6273TIP3    H140378   5.724   6.174   1.144 -0.3247  2.1770  0.7184
 6273TIP3    H240379   5.583   6.170   1.090 -0.0723  1.8356  0.0835
 6274TIP3   OH240380   5.355   1.395   8.242  0.1629 -0.1609 -0.5591
 6274TIP3    H140381   5.339   1.414   8.334 -1.7569  0.5189 -0.9699
 6274TIP3    H240382   5.424   1.455   8.216 -0.6114  0.9977 -0.0024
 6275TIP3   OH240383   3.106   1.534   2.621  0.4396  0.2926  0.2234
 6275TIP3    H140384   3.044   1.465   2.596  0.9089  0.3153 -1.0904
 6275TIP3    H240385   3.090   1.549   2.714 -2.0933  0.8496 -0.2241
 6276TIP3   OH240386   1.072   5.896   1.007 -0.0848  0.0112 -0.1366
 6276TIP3    H140387   0.998   5.921   0.952  0.0630  0.9562  0.0861
 6276TIP3    H240388   1.063   5.801   1.018 -1.8111  0.2296  0.6594
 6277TIP3   OH240389   1.240   2.307   8.832 -0.9125 -0.3853 -0.1813
 6277TIP3    H140390   1.219   2.322   8.740  2.3840 -0.5754 -1.1054
 6277TIP3    H240391   1.228   2.392   8.874 -2.0588 -0.2062 -0.8311
 6278TIP3   OH240392   3.057   3.753   1.236  0.2006  0.2952 -0.5675
 6278TIP3    H140393   3.132   3.694   1.239  0.9272  1.2142  2.4846
 6278TIP3    H240394   2.989   3.709   1.286 -1.1650 -0.2243 -2.7480
 6279TIP3   OH240395   4.462   2.581   8.877 -0.2099 -0.8820 -0.2430
 6279TIP3    H140396   4.506   2.640   8.939 -2.9532  1.3818 -0.2317
 6279TIP3    H240397   4.518   2.582   8.799  1.1690 -0.4318  0.7102
 6280TIP3   OH240398   1.962   3.612   1.182 -0.9646 -0.1314 -0.1184
 6280TIP3    H140399   1.965   3.643   1.272  0.9639  2.5303 -0.9691
 6280TIP3    H240400   1.875   3.637   1.151 -1.4910 -0.7102  0.8525
 6281TIP3   OH240401   0.204   2.273   0.094 -0.1002 -0.2874  0.3428
 6281TIP3    H140402   0.141   2.205   0.071  1.4161 -0.9692 -2.1017
 6281TIP3    H240403   0.254   2.288   0.014  2.5493  0.5468  2.0307
 6282TIP3   OH240404   5.389   6.709   0.204 -0.2244  0.2807 -0.4340
 6282TIP3    H140405   5.400   6.777   0.270  1.0777 -0.1344 -0.1874
 6282TIP3    H240406   5.326   6.745   0.142 -1.6909  0.5798  1.1497
 6283TIP3   OH240407   5.170   4.421   8.280  0.3243  0.3320  0.1480
 6283TIP3    H140408   5.212   4.378   8.355 -0.3146 -0.2685  0.1756
 6283TIP3    H240409   5.091   4.461   8.317 -1.3022 -1.9976 -0.5688
 6284TIP3   OH240410   4.665   6.384   7.679 -0.0559  0.2509  0.3035
 6284TIP3    H140411   4.598   6.336   7.727 -0.4502  1.3677  0.8980
 6284TIP3    H240412   4.671   6.340   7.594 -2.0350  0.5439 -0.0222
 6285TIP3   OH240413   4.962   1.032   7.222 -0.2871 -0.3949 -0.3041
 6285TIP3    H140414   4.978   1.006   7.132  0.2631  2.1341 -1.0193
 6285TIP3    H240415   4.870   1.059   7.224 -0.4739 -1.0505  0.0550
 6286TIP3   OH240416   4.536   3.599   1.368 -0.0228  0.1421  0.3062
 6286TIP3    H140417   4.582   3.530   1.319  2.8892  1.3554  1.0978
 6286TIP3    H240418   4.588   3.678   1.352 -1.6186  1.5409  1.7049
 6287TIP3   OH240419   0.812   3.881   1.649 -0.0367 -0.5254 -0.2967
 6287TIP3    H140420   0.901   3.913   1.667 -0.4907  0.0591  1.0729
 6287TIP3    H240421   0.756   3.935   1.704 -1.3368 -0.3601 -1.7360
 6288TIP3   OH240422   1.547   2.633   8.761 -0.1483  0.0511 -0.0114
 6288TIP3    H140423   1.470   2.620   8.706 -0.8493  0.3562  0.8852
 6288TIP3    H240424   1.548   2.558   8.820 -0.3196  0.5424  0.6247
 6289TIP3   OH240425   3.637   0.379   0.045 -0.3012  0.1778  0.1429
 6289TIP3    H140426   3.604   0.315  -0.018  0.0911  0.5074 -0.3980
 6289TIP3    H240427   3.678   0.326   0.113  0.4074 -0.1353 -0.5199
 6290TIP3   OH240428   0.641   5.433   1.042  0.3670 -0.3958  0.0495
 6290TIP3    H140429   0.708   5.370   1.015 -0.3038 -1.1502  0.1213
 6290TIP3    H240430   0.589   5.387   1.107 -0.1528  0.2206  0.0797
 6291TIP3   OH240431   2.435   3.182   7.294 -0.4290  0.4477  0.1364
 6291TIP3    H140432   2.454   3.137   7.376 -1.0438  0.6430  0.3862
 6291TIP3    H240433   2.494   3.257   7.294  0.9712 -0.5989 -0.5158
 6292TIP3   OH240434   3.697   5.762   0.538  0.9606  0.2100 -0.2470
 6292TIP3    H140435   3.611   5.745   0.499  1.5889 -0.8956 -1.2266
 6292TIP3    H240436   3.698   5.857   0.553 -0.8944  0.0717  0.9768
 6293TIP3   OH240437   4.887   6.409   7.867  0.0790  0.1550 -0.6840
 6293TIP3    H140438   4.958   6.356   7.832  0.4361  0.5017 -0.4857
 6293TIP3    H240439   4.816   6.400   7.803  0.0998 -0.6349 -0.6078
 6294TIP3   OH240440   2.747   0.928   8.550  0.4576 -0.1736 -0.4011
 6294TIP3    H140441   2.806   0.883   8.491  0.8195 -1.3441  0.8010
 6294TIP3    H240442   2.782   0.911   8.638 -1.4937 -0.7252  0.3436
 6295TIP3   OH240443   2.646   5.999   1.173 -0.1604 -0.2909  0.4145
 6295TIP3    H140444   2.710   5.963   1.111 -0.2146 -3.0533  1.8247
 6295TIP3    H240445   2.562   5.986   1.130  0.0342  1.7842 -0.7083
 6296TIP3   OH240446   6.611   4.778   1.156 -0.1305 -0.8743  0.3173
 6296TIP3    H140447   6.590   4.866   1.188  0.6638 -0.6097  0.1316
 6296TIP3    H240448   6.703   4.784   1.129 -0.8772 -0.9378 -2.5026
 6297TIP3   OH240449   3.512   2.611   8.289  0.0830  0.7303  0.1226
 6297TIP3    H140450   3.547   2.613   8.378 -2.5049 -0.2440  1.2772
 6297TIP3    H240451   3.442   2.677   8.290 -1.6752 -1.0149 -0.3088
 6298TIP3   OH240452   6.005   4.236   0.166 -0.1745  0.0997  0.3089
 6298TIP3    H140453   5.940   4.296   0.201 -0.4456 -1.0305  1.8650
 6298TIP3    H240454   6.084   4.251   0.218 -0.9064 -2.3599  2.3452
 6299TIP3   OH240455   5.390   5.127   8.844 -0.2060 -0.1894 -0.1030
 6299TIP3    H140456   5.365   5.116   8.752 -0.6312  2.0687 -0.3028
 6299TIP3    H240457   5.402   5.221   8.855  0.4904 -0.4684  2.0083
 6300TIP3   OH240458   5.612   1.503   8.139 -0.3131  0.5720 -0.2328
 6300TIP3    H140459   5.611   1.409   8.119 -1.2007  0.6574 -0.6414
 6300TIP3    H240460   5.682   1.538   8.083  0.0864  0.1439 -0.0097
 6301TIP3   OH240461   6.609   3.529   6.889 -0.4830 -0.0184 -0.0327
 6301TIP3    H140462   6.690   3.536   6.838  0.2794 -0.4209  1.0881
 6301TIP3    H240463   6.608   3.607   6.944 -0.9914  0.1109 -0.2191
 6302TIP3   OH240464   4.307   3.028   0.833  0.0939 -0.2941 -0.0538
 6302TIP3    H140465   4.338   3.058   0.748 -1.9000  0.2367 -0.6467
 6302TIP3    H240466   4.315   3.105   0.890 -2.0504  0.5246 -0.7658
 6303TIP3   OH240467   2.778   1.017   0.290 -0.0954  0.1236 -0.0998
 6303TIP3    H140468   2.795   1.061   0.374 -0.1407  0.5865 -0.3308
 6303TIP3    H240469   2.732   1.082   0.238 -0.5440 -0.3490 -0.2957
 6304TIP3   OH240470   6.229   5.561   6.915 -0.5645  0.5837 -0.1516
 6304TIP3    H140471   6.298   5.556   6.849  0.2417 -0.2042  0.7270
 6304TIP3    H240472   6.225   5.654   6.938 -1.7689  1.1066 -2.2051
 6305TIP3   OH240473   3.342   5.363   1.368 -0.4516 -0.4880 -0.2997
 6305TIP3    H140474   3.380   5.275   1.378 -0.4684 -0.3062  1.6669
 6305TIP3    H240475   3.382   5.396   1.287  2.9284 -0.6731  1.1156
 6306TIP3   OH240476   1.044   0.515   6.627  0.7420 -0.4184  0.9288
 6306TIP3    H140477   1.019   0.607   6.616 -0.5173 -0.8977 -0.4961
 6306TIP3    H240478   1.139   0.517   6.642  1.1625  0.9766 -1.4785
 6307TIP3   OH240479   4.619   2.609   7.926 -0.3270 -0.2567 -0.0473
 6307TIP3    H140480   4.559   2.642   7.992 -0.0062  0.3917 -0.0730
 6307TIP3    H240481   4.566   2.596   7.848 -0.6858 -0.9223  0.2941
 6308TIP3   OH240482   0.907   0.040   0.770  0.0171  0.0644 -0.2195
 6308TIP3    H140483   0.944   0.075   0.851  0.7163  0.1904 -0.5813
 6308TIP3    H240484   0.893   0.116   0.714 -0.7849  0.0148 -0.1029
 6309TIP3   OH240485   4.037   1.124   6.794  0.0996 -0.0859  0.3412
 6309TIP3    H140486   3.962   1.181   6.775  0.4074 -0.0181 -0.7344
 6309TIP3    H240487   4.010   1.038   6.764 -0.0501 -0.3422  1.1996
 6310TIP3   OH240488   3.229   0.468   8.402  0.1533 -0.1802  0.2983
 6310TIP3    H140489   3.310   0.453   8.353  1.0653 -3.1525  2.3726
 6310TIP3    H240490   3.236   0.558   8.433  1.1822  0.6109 -2.0020
 6311TIP3   OH240491   3.494   5.377   1.117  0.2413  0.4246 -0.4660
 6311TIP3    H140492   3.521   5.467   1.096 -0.8059  0.7486 -0.5070
 6311TIP3    H240493   3.574   5.325   1.109  0.9619  1.4265  0.0047
 6312TIP3   OH240494   6.688   1.864   8.325  0.2603 -0.3760 -0.1163
 6312TIP3    H140495   6.716   1.799   8.389 -0.9886 -0.9485 -0.1367
 6312TIP3    H240496   6.769   1.910   8.302  1.0155 -1.3160  0.5600
 6313TIP3   OH240497   1.729   5.103   0.371 -0.3854  0.2180  0.6326
 6313TIP3    H140498   1.764   5.015   0.374 -1.5192 -0.3209 -0.7679
 6313TIP3    H240499   1.726   5.132   0.462  0.7030 -0.8855  1.0307
 6314TIP3   OH240500   2.116   0.354   7.783 -0.5027 -0.2410  0.0198
 6314TIP3    H140501   2.084   0.292   7.849  0.1899  0.4282  1.0157
 6314TIP3    H240502   2.201   0.384   7.817 -0.9132  1.4136 -0.3272
 6315TIP3   OH240503   0.584   3.747   8.365  0.3621  0.4184  0.3086
 6315TIP3    H140504   0.569   3.687   8.291  1.7060 -1.3004  1.3370
 6315TIP3    H240505   0.547   3.702   8.441  2.9898 -0.0616  1.4185
 6316TIP3   OH240506   3.755   5.401   1.818 -0.1122  0.6201 -0.5400
 6316TIP3    H140507   3.740   5.308   1.802  0.2475  0.3501  0.6141
 6316TIP3    H240508   3.667   5.440   1.819 -0.3246  0.1366 -0.1396
 6317TIP3   OH240509   2.032   5.469   0.658 -0.2243 -0.3371  0.3678
 6317TIP3    H140510   2.052   5.556   0.692  0.1236  0.2528 -1.2600
 6317TIP3    H240511   2.084   5.462   0.577  0.4601 -2.4037  0.9191
 6318TIP3   OH240512   5.049   3.178   6.426 -0.0589  0.2587  0.3182
 6318TIP3    H140513   5.090   3.150   6.344  0.6823  0.4886  0.5953
 6318TIP3    H240514   5.065   3.106   6.486  1.9614  1.2561  1.0687
 6319TIP3   OH240515   5.251   4.655   8.632  0.1741 -0.1997  0.3112
 6319TIP3    H140516   5.327   4.614   8.674 -0.1371 -1.7300 -0.5297
 6319TIP3    H240517   5.176   4.624   8.684  0.0532  0.8750  0.8147
 6320TIP3   OH240518   4.476   3.407   0.423  0.3143  0.4237  0.0979
 6320TIP3    H140519   4.507   3.422   0.334 -0.1725  1.6329  0.1080
 6320TIP3    H240520   4.554   3.419   0.478  0.7297 -0.8476 -0.1829
 6321TIP3   OH240521   3.259   4.176   8.329 -0.6028  0.2128 -0.4015
 6321TIP3    H140522   3.234   4.170   8.236 -1.4080 -3.3855 -0.1079
 6321TIP3    H240523   3.203   4.245   8.364  0.2654  2.2149 -2.6822
 6322TIP3   OH240524   1.880   6.521   0.414  0.4141  0.2167  0.1000
 6322TIP3    H140525   1.903   6.558   0.499 -0.1571  0.8480 -0.0099
 6322TIP3    H240526   1.947   6.455   0.397  0.2574 -0.2631  1.2636
 6323TIP3   OH240527   3.495   0.612   0.124  0.0077  0.4555 -0.7130
 6323TIP3    H140528   3.556   0.657   0.182 -0.5492  0.3056  0.0200
 6323TIP3    H240529   3.537   0.529   0.104 -0.5945 -0.3584  1.1029
 6324TIP3   OH240530   6.719   4.202   8.389 -0.2686  0.1144  0.0369
 6324TIP3    H140531   6.658   4.129   8.404 -0.4446 -0.4024 -2.7085
 6324TIP3    H240532   6.710   4.221   8.296 -1.7647  5.0800  0.9043
 6325TIP3   OH240533   4.325   3.673   0.218 -0.4060  0.3615 -0.1605
 6325TIP3    H140534   4.420   3.680   0.232 -0.2461  1.0657 -1.4273
 6325TIP3    H240535   4.316   3.607   0.149 -0.6700  1.6893 -1.4510
 6326TIP3   OH240536   0.621   3.337   8.084  0.1460 -0.1082 -0.5640
 6326TIP3    H140537   0.563   3.382   8.022  1.0381 -1.1164 -2.2179
 6326TIP3    H240538   0.581   3.250   8.095 -0.6382  0.4531  1.2426
 6327TIP3   OH240539   4.674   1.474   0.406 -0.0252  0.4578 -0.3583
 6327TIP3    H140540   4.763   1.444   0.424  0.2217  1.6753  0.5656
 6327TIP3    H240541   4.684   1.543   0.341 -0.6161 -1.5086 -2.7085
 6328TIP3   OH240542   2.339   5.844   0.688  0.0631  0.0421  0.7541
 6328TIP3    H140543   2.273   5.806   0.746  1.2631 -1.7084  1.0496
 6328TIP3    H240544   2.393   5.770   0.662  1.5482  1.3270  0.0278
 6329TIP3   OH240545   1.666   1.779   1.858  0.3164 -0.2387  0.3815
 6329TIP3    H140546   1.706   1.729   1.787  1.4737 -2.4847  2.4779
 6329TIP3    H240547   1.573   1.759   1.853  0.5509 -1.3341  0.1674
 6330TIP3   OH240548   3.347   5.643   7.951  0.3991 -0.4728 -0.1110
 6330TIP3    H140549   3.368   5.732   7.923 -0.1743 -0.8391 -1.8337
 6330TIP3    H240550   3.428   5.611   7.992  0.7762  0.6433  0.0382
 6331TIP3   OH240551   5.118   5.763   1.856 -0.0747 -0.3647  0.3350
 6331TIP3    H140552   5.176   5.709   1.910 -0.9496 -0.0327  1.6495
 6331TIP3    H240553   5.032   5.756   1.898 -0.3532  1.5229  0.1596
 6332TIP3   OH240554   3.753   2.977   1.743 -0.2184 -0.2093 -0.3609
 6332TIP3    H140555   3.787   3.065   1.760  1.0111 -0.3708 -1.7561
 6332TIP3    H240556   3.750   2.935   1.829  0.9741  0.5872  0.0993
 6333TIP3   OH240557   1.922   2.132   8.723 -0.0638  0.0235  0.3781
 6333TIP3    H140558   1.860   2.122   8.651  0.6492  0.2231 -0.2731
 6333TIP3    H240559   1.984   2.198   8.693  1.9363 -1.9224 -0.0347
 6334TIP3   OH240560   4.576   4.297   0.980 -0.0244 -0.2442  0.3295
 6334TIP3    H140561   4.534   4.257   1.056 -2.5778 -1.5280 -1.5993
 6334TIP3    H240562   4.627   4.227   0.941  0.4599  0.1293  0.2783
 6335TIP3   OH240563   0.489   6.082   0.599 -0.0787 -0.6952  0.0923
 6335TIP3    H140564   0.439   6.074   0.518 -1.9607  1.3811  0.9392
 6335TIP3    H240565   0.427   6.119   0.662  2.3362  1.4178  1.4265
 6336TIP3   OH240566   6.426   1.523   8.118  0.5178  0.0461  0.4661
 6336TIP3    H140567   6.339   1.562   8.126 -0.0580 -1.2498  0.7922
 6336TIP3    H240568   6.475   1.559   8.192 -0.2135 -0.3667  1.1717
 6337TIP3   OH240569   2.275   2.985   1.711  0.7513  0.1021 -0.3317
 6337TIP3    H140570   2.205   2.942   1.761 -0.3576  0.0005 -1.8881
 6337TIP3    H240571   2.268   3.077   1.735  0.6045 -0.0228  0.1172
 6338TIP3   OH240572   1.183   2.313   7.731  0.3976  0.3285 -0.2946
 6338TIP3    H140573   1.216   2.279   7.647 -1.7140 -2.8963  0.0413
 6338TIP3    H240574   1.239   2.272   7.797  2.0180  2.8206  0.0338
 6339TIP3   OH240575   0.426   1.821   7.758 -0.2761  0.1814  0.4041
 6339TIP3    H140576   0.375   1.901   7.770 -0.0698  0.1093  1.9680
 6339TIP3    H240577   0.479   1.814   7.837  1.0522 -0.5590 -0.5027
 6340TIP3   OH240578   2.301   2.039   7.742  0.7697 -0.0919  0.4608
 6340TIP3    H140579   2.321   2.037   7.835  0.9400 -0.2469  0.4189
 6340TIP3    H240580   2.366   1.983   7.701  1.2105  0.6357  0.1531
 6341TIP3   OH240581   4.513   1.989   7.264  0.0434  0.0312  0.0587
 6341TIP3    H140582   4.475   1.933   7.196 -0.5161 -0.7159  0.9558
 6341TIP3    H240583   4.607   1.984   7.250  0.1587 -2.6505  1.2027
 6342TIP3   OH240584   4.988   1.182   1.238  0.5138 -0.0921 -0.3107
 6342TIP3    H140585   4.938   1.184   1.320  0.4441  0.6768 -0.3634
 6342TIP3    H240586   5.070   1.139   1.262  0.8237  0.8273  0.3750
 6343TIP3   OH240587   4.362   0.155   2.035 -0.4271  0.2522 -0.5204
 6343TIP3    H140588   4.349   0.125   2.125  0.7776 -1.5888 -0.9159
 6343TIP3    H240589   4.332   0.081   1.981 -1.5186  1.4818 -1.6717
 6344TIP3   OH240590   1.301   6.257   2.071  0.4800  0.1431 -0.5655
 6344TIP3    H140591   1.262   6.172   2.050 -0.3197  0.4514 -0.3713
 6344TIP3    H240592   1.364   6.238   2.140  0.1187 -0.2575 -0.3394
 6345TIP3   OH240593   5.038   0.250   1.241 -0.9432  0.0933  0.1265
 6345TIP3    H140594   5.047   0.295   1.325 -2.6090  1.4924 -0.3852
 6345TIP3    H240595   4.991   0.169   1.262  1.8752 -1.4295  1.0193
 6346TIP3   OH240596   2.206   5.240   8.405 -0.3664 -0.2635 -0.0340
 6346TIP3    H140597   2.144   5.217   8.474 -0.9031  0.8927 -0.1166
 6346TIP3    H240598   2.206   5.164   8.347  0.9882 -1.7682  1.8184
 6347TIP3   OH240599   2.890   0.845   7.498  0.4979  0.3446 -0.5973
 6347TIP3    H140600   2.975   0.837   7.454  2.3459  0.3377  2.7083
 6347TIP3    H240601   2.880   0.764   7.547  0.5311  1.8604  2.1290
 6348TIP3   OH240602   0.974   2.914   8.413  0.4750 -0.0717  0.1140
 6348TIP3    H140603   0.882   2.910   8.385  0.3935 -0.3008  0.4162
 6348TIP3    H240604   0.986   2.837   8.468  1.0342 -0.4128 -0.4685
 6349TIP3   OH240605   5.441   0.500   2.185  0.1129 -0.1679 -0.0294
 6349TIP3    H140606   5.532   0.478   2.204 -0.0794  0.3324  1.5975
 6349TIP3    H240607   5.390   0.426   2.220 -0.0968 -1.0373 -1.9868
 6350TIP3   OH240608   5.219   6.028   2.119 -0.1513 -0.7554  0.2737
 6350TIP3    H140609   5.197   6.059   2.206 -0.7508  0.5784 -0.3243
 6350TIP3    H240610   5.309   6.059   2.105  0.3212 -1.8525  0.7910
 6351TIP3   OH240611   4.797   4.969   8.748  0.1813  0.1712  0.2389
 6351TIP3    H140612   4.820   4.933   8.662 -3.2732 -1.3932 -0.2199
 6351TIP3    H240613   4.810   5.063   8.739  2.7562 -0.2162 -0.9290
 6352TIP3   OH240614   4.278   3.009   7.855  0.1368 -0.3314  0.1207
 6352TIP3    H140615   4.240   2.940   7.909 -0.6266  0.3936  0.5242
 6352TIP3    H240616   4.275   3.087   7.910  0.9896  0.0326 -0.3320
 6353TIP3   OH240617   1.362   0.913   7.399 -0.5427  0.3362 -0.5478
 6353TIP3    H140618   1.322   0.986   7.447 -1.2577  0.4369 -1.2618
 6353TIP3    H240619   1.429   0.954   7.344 -0.8698  0.4539 -0.8674
 6354TIP3   OH240620   0.864   3.383   8.829  0.2796 -0.1082  0.5506
 6354TIP3    H140621   0.833   3.429   8.751  0.6930  0.5681  0.7783
 6354TIP3    H240622   0.858   3.448   8.899 -1.0478 -0.9911  1.3058
 6355TIP3   OH240623   6.758   2.863   6.280 -0.1877 -0.1807 -0.1682
 6355TIP3    H140624   6.826   2.873   6.347  2.1644 -3.6559 -1.7121
 6355TIP3    H240625   6.683   2.825   6.327  0.3824  0.0141  0.9241
 6356TIP3   OH240626   0.166   5.016   7.585  0.5311  1.0845 -0.2343
 6356TIP3    H140627   0.197   4.986   7.499  0.6264 -0.0569  0.1873
 6356TIP3    H240628   0.072   4.997   7.584  0.8730 -0.8728  0.6703
 6357TIP3   OH240629   2.103   4.550   7.067 -0.2299 -0.1758  0.0751
 6357TIP3    H140630   2.071   4.476   7.119 -0.2728 -0.3429 -0.1886
 6357TIP3    H240631   2.038   4.560   6.998 -0.7245  0.7097  0.6552
 6358TIP3   OH240632   3.577   3.750   8.587 -0.2643 -0.2885  0.2390
 6358TIP3    H140633   3.507   3.744   8.522  2.0267 -2.2102 -2.2722
 6358TIP3    H240634   3.576   3.842   8.615 -1.3835  0.6450 -2.5492
 6359TIP3   OH240635   1.245   3.324   7.875 -0.2078  0.0263 -0.1649
 6359TIP3    H140636   1.320   3.274   7.843  0.1156  0.5276 -0.1936
 6359TIP3    H240637   1.236   3.396   7.813 -0.2589  0.3831  0.2577
 6360TIP3   OH240638   6.160   0.889   1.173  0.0887 -0.0526  0.2719
 6360TIP3    H140639   6.125   0.945   1.243  1.5196  1.6554 -0.3045
 6360TIP3    H240640   6.255   0.899   1.180  0.2716 -0.3606 -1.5030
 6361TIP3   OH240641   3.229   2.935   8.834  0.1728  0.0581  0.4944
 6361TIP3    H140642   3.292   2.908   8.901 -0.6555  1.3277  1.8244
 6361TIP3    H240643   3.274   3.004   8.786  0.7615 -0.8412 -0.2900
 6362TIP3   OH240644   0.812   4.176   1.875 -0.9870  0.0540 -0.2165
 6362TIP3    H140645   0.768   4.134   1.949 -0.8812  0.2171 -0.0601
 6362TIP3    H240646   0.754   4.248   1.850  0.1916  1.6644  1.3922
 6363TIP3   OH240647   3.810   4.977   1.211  0.0906 -0.0026 -0.0004
 6363TIP3    H140648   3.855   5.056   1.180  0.1125 -0.7848 -2.1324
 6363TIP3    H240649   3.830   4.910   1.146 -0.8379 -1.4906  1.1633
 6364TIP3   OH240650   2.713   0.538   5.975  0.1418 -0.1785 -0.0277
 6364TIP3    H140651   2.674   0.611   6.023  0.3617 -1.8165  2.8800
 6364TIP3    H240652   2.637   0.493   5.936 -0.2251  0.2237  0.2082
 6365TIP3   OH240653   5.832   1.547   7.643  0.3763  0.0663  0.5612
 6365TIP3    H140654   5.905   1.578   7.697  0.9583  0.3779 -0.3819
 6365TIP3    H240655   5.791   1.627   7.609 -0.5520 -0.0950  1.2451
 6366TIP3   OH240656   2.158   1.557   8.888 -0.2875 -0.5591  0.4308
 6366TIP3    H140657   2.142   1.485   8.828  1.7257 -0.0822 -0.7788
 6366TIP3    H240658   2.233   1.528   8.941 -0.1181  0.2187  0.6361
 6367TIP3   OH240659   3.495   0.058   8.046 -0.1725 -0.3653  0.1702
 6367TIP3    H140660   3.472   0.119   7.975  0.0905  0.9388  1.1556
 6367TIP3    H240661   3.589   0.046   8.037 -0.0708  0.1139  0.5006
 6368TIP3   OH240662   2.882   6.330   7.823  0.3828 -0.0207  0.3621
 6368TIP3    H140663   2.788   6.325   7.802 -0.0530 -0.0024  2.1818
 6368TIP3    H240664   2.890   6.285   7.907  2.1575 -0.7394 -0.1601
 6369TIP3   OH240665   1.722   6.377   0.946  0.4368 -0.2240 -0.2404
 6369TIP3    H140666   1.760   6.328   0.874  1.7165 -3.5706  2.4590
 6369TIP3    H240667   1.631   6.346   0.950  0.5889 -0.6418  0.0421
 6370TIP3   OH240668   1.839   0.049   8.494 -0.5801 -0.1379  0.8248
 6370TIP3    H140669   1.841  -0.035   8.447  2.0561  0.2853  0.0222
 6370TIP3    H240670   1.770   0.099   8.452  1.1737 -0.0620 -2.2103
 6371TIP3   OH240671   6.281   6.723   1.243 -0.2294 -0.1941 -0.0201
 6371TIP3    H140672   6.257   6.633   1.221 -0.9222  0.2274 -1.0752
 6371TIP3    H240673   6.368   6.716   1.282 -0.5853 -1.3945  0.6250
 6372TIP3   OH240674   6.629   5.306   7.621  0.2992 -0.0293  0.6075
 6372TIP3    H140675   6.547   5.336   7.581  0.5774 -0.1914 -0.1045
 6372TIP3    H240676   6.602   5.262   7.701 -0.1765  1.5700  1.3653
 6373TIP3   OH240677   5.058   1.085   8.020  0.2280 -0.4872  0.0614
 6373TIP3    H140678   5.130   1.023   8.004  0.4996  0.0756 -0.9679
 6373TIP3    H240679   4.980   1.031   8.022  0.5847 -1.0029  0.3038
 6374TIP3   OH240680   4.804   1.024   8.446 -0.1586  0.2820  0.8778
 6374TIP3    H140681   4.888   0.997   8.411 -1.0765 -1.4030 -0.1592
 6374TIP3    H240682   4.813   1.118   8.461  1.4131  0.4130 -0.6162
 6375TIP3   OH240683   3.140   6.754   7.540 -0.1872 -0.1324 -0.5133
 6375TIP3    H140684   3.052   6.792   7.538  0.5843  1.7901  0.5253
 6375TIP3    H240685   3.135   6.684   7.605 -1.8022 -2.5193 -2.9432
 6376TIP3   OH240686   3.798   6.259   7.927  0.1006  0.2486 -0.0924
 6376TIP3    H140687   3.843   6.338   7.960 -1.3358  0.9120  0.3378
 6376TIP3    H240688   3.707   6.270   7.955 -0.3185 -1.1197 -0.8603
 6377TIP3   OH240689   0.390   2.231   8.767  0.1381  0.0685 -0.3965
 6377TIP3    H140690   0.411   2.310   8.815 -0.4272 -0.7903  1.3449
 6377TIP3    H240691   0.363   2.261   8.680  0.3080  1.7254  0.1025
 6378TIP3   OH240692   3.207   4.713   6.621  0.4348  0.5749  0.1633
 6378TIP3    H140693   3.211   4.665   6.538 -1.7346  4.3799 -2.4572
 6378TIP3    H240694   3.292   4.756   6.627  0.5673  0.3669 -0.1502
 6379TIP3   OH240695   0.554   3.337   7.243  0.6202 -0.6358 -0.4729
 6379TIP3    H140696   0.467   3.300   7.231 -0.1585  0.6945  0.7592
 6379TIP3    H240697   0.576   3.374   7.157 -2.1716  3.2596  0.2222
 6380TIP3   OH240698   2.741   6.755   1.375  0.3903  0.0319 -0.5188
 6380TIP3    H140699   2.771   6.846   1.381 -0.0394  0.0899  1.4629
 6380TIP3    H240700   2.657   6.761   1.328  0.0810  0.7530  0.0939
 6381TIP3   OH240701   4.217   1.501   2.503 -0.7479  0.1149  0.2513
 6381TIP3    H140702   4.173   1.524   2.421 -0.3285 -0.5173 -0.1609
 6381TIP3    H240703   4.231   1.406   2.497  1.4479  0.3868 -0.0631
 6382TIP3   OH240704   5.381   1.365   0.525 -0.6312 -0.2364 -0.0507
 6382TIP3    H140705   5.368   1.291   0.467  0.8367 -0.1643 -0.5084
 6382TIP3    H240706   5.463   1.346   0.571 -2.3891 -1.0051  3.1236
 6383TIP3   OH240707   4.870   2.152   1.016 -0.0393 -0.3988 -0.1237
 6383TIP3    H140708   4.830   2.104   1.089 -0.5063 -0.6552 -0.5529
 6383TIP3    H240709   4.799   2.201   0.976 -0.0473 -1.2573 -1.2091
 6384TIP3   OH240710   4.307   5.078   8.156  0.1074 -0.0677  0.3146
 6384TIP3    H140711   4.290   4.991   8.192 -0.9278 -0.4415 -0.9664
 6384TIP3    H240712   4.220   5.110   8.130  0.5543  1.0726  0.1752
 6385TIP3   OH240713   4.752   3.302   7.551 -1.2532 -0.2918  0.2941
 6385TIP3    H140714   4.768   3.261   7.635  0.1879  3.2322  1.9487
 6385TIP3    H240715   4.657   3.316   7.548 -1.2082  0.6121  1.9644
 6386TIP3   OH240716   3.525   3.127   1.942  0.4835  0.1117  0.0201
 6386TIP3    H140717   3.581   3.108   2.017  0.4903 -0.7817 -0.1976
 6386TIP3    H240718   3.581   3.178   1.883  0.3758  1.1047  0.7447
 6387TIP3   OH240719   4.783   6.281   0.955  0.0673 -0.4205  0.0573
 6387TIP3    H140720   4.864   6.265   0.906 -0.6119 -0.3225 -1.1331
 6387TIP3    H240721   4.806   6.260   1.045  0.9669 -2.0598 -0.4925
 6388TIP3   OH240722   4.500   3.986   1.692 -1.2643 -0.5056  0.5354
 6388TIP3    H140723   4.486   3.898   1.727 -1.0512 -1.2046 -1.0309
 6388TIP3    H240724   4.521   4.040   1.768 -2.1445 -1.6478  1.6163
 6389TIP3   OH240725   3.294   1.351   1.778 -0.5499  0.1317  0.1976
 6389TIP3    H140726   3.305   1.282   1.843 -0.6761  0.5844  0.7077
 6389TIP3    H240727   3.345   1.425   1.813 -1.0371  0.5487  0.0444
 6390TIP3   OH240728   1.892   3.576   6.718 -0.7309 -0.3661 -0.4108
 6390TIP3    H140729   1.857   3.489   6.698  0.2267 -1.0539  0.7409
 6390TIP3    H240730   1.941   3.600   6.640 -0.6094 -1.0803 -0.5667
 6391TIP3   OH240731   1.794   1.194   1.362  0.5782  0.3671 -0.4728
 6391TIP3    H140732   1.848   1.118   1.384  1.6286  0.5546 -2.1720
 6391TIP3    H240733   1.802   1.202   1.266 -2.0376  0.7692 -0.7081
 6392TIP3   OH240734   5.334   1.661   7.153  0.1123 -0.4835  0.0707
 6392TIP3    H140735   5.355   1.631   7.065 -0.9904 -0.8814 -0.0773
 6392TIP3    H240736   5.253   1.711   7.143  0.1278 -0.2961  0.8108
 6393TIP3   OH240737   2.404   4.415   1.574 -0.1124  0.1877  0.0681
 6393TIP3    H140738   2.471   4.419   1.642  2.9112 -1.4962 -2.5510
 6393TIP3    H240739   2.412   4.326   1.538 -1.2519  1.0993 -2.7056
 6394TIP3   OH240740   0.811   0.846   1.176  0.6047  0.4342  0.0706
 6394TIP3    H140741   0.726   0.888   1.161  0.7690  0.5544 -0.5720
 6394TIP3    H240742   0.870   0.890   1.114  1.0903  0.2160  0.3744
 6395TIP3   OH240743   1.898   6.640   7.876  0.0034  0.0689 -0.3720
 6395TIP3    H140744   1.972   6.596   7.834 -1.6603 -1.5930 -1.7057
 6395TIP3    H240745   1.856   6.572   7.928 -0.5036  1.0465  0.5294
 6396TIP3   OH240746   2.152   1.993   0.782 -0.1080  0.0517  0.8520
 6396TIP3    H140747   2.118   2.082   0.780  0.8508  0.4203 -0.2124
 6396TIP3    H240748   2.203   1.985   0.701 -0.7197 -1.6771  0.5891
 6397TIP3   OH240749   5.801   2.434   0.759 -0.7199 -0.0297  0.2226
 6397TIP3    H140750   5.858   2.417   0.833  0.5761 -1.6648 -1.0683
 6397TIP3    H240751   5.782   2.347   0.723 -0.5891  0.7420 -1.8480
 6398TIP3   OH240752   6.155   2.279   8.770  0.6924  0.1061 -0.2868
 6398TIP3    H140753   6.090   2.213   8.745  1.5864 -0.5817 -0.8605
 6398TIP3    H240754   6.144   2.289   8.864 -1.6921  1.5985 -0.6511
 6399TIP3   OH240755   6.407   6.117   0.395  0.0759 -0.5541 -0.1672
 6399TIP3    H140756   6.472   6.180   0.427  2.3344 -1.6785 -2.2059
 6399TIP3    H240757   6.388   6.061   0.471  2.6292 -1.0507  0.1828
 6400TIP3   OH240758   3.028   2.880   0.888  0.3429 -0.0842  0.3381
 6400TIP3    H140759   2.981   2.887   0.804 -0.5592 -0.2613  0.8145
 6400TIP3    H240760   3.094   2.949   0.885  0.5317 -0.2953 -0.6562
 6401TIP3   OH240761   0.947   2.919   1.072  0.3047 -0.2027  0.1826
 6401TIP3    H140762   0.998   2.846   1.040  0.9075  1.0135 -1.7885
 6401TIP3    H240763   0.867   2.880   1.107  1.3514 -1.8999  0.7716
 6402TIP3   OH240764   5.249   3.559   1.665  0.8418 -0.1485  0.0427
 6402TIP3    H140765   5.262   3.469   1.695  0.9148  0.1981  1.0678
 6402TIP3    H240766   5.170   3.589   1.709  1.0979  0.4624  0.1057
 6403TIP3   OH240767   5.153   0.288   8.844 -0.3752  0.1258  0.4274
 6403TIP3    H140768   5.110   0.364   8.805 -0.1427  0.0664  0.0488
 6403TIP3    H240769   5.244   0.315   8.854  0.0619 -0.6356 -1.1797
 6404TIP3   OH240770   4.397   6.508   6.761  0.0736  0.3866 -0.2826
 6404TIP3    H140771   4.315   6.480   6.722  0.4237  0.9278 -1.4516
 6404TIP3    H240772   4.463   6.491   6.694  1.0450 -0.7492  0.9228
 6405TIP3   OH240773   3.232   1.901   8.758 -0.0409 -0.0727 -0.1564
 6405TIP3    H140774   3.209   1.981   8.805  2.7133  1.1983 -0.7658
 6405TIP3    H240775   3.257   1.839   8.828  1.0412  0.7658  0.2307
 6406TIP3   OH240776   5.714   5.935   1.557 -0.4301 -0.2735 -0.1107
 6406TIP3    H140777   5.682   5.852   1.592 -0.4254  0.0056  0.5802
 6406TIP3    H240778   5.732   5.988   1.635 -2.1120  1.0173 -0.5405
 6407TIP3   OH240779   4.721   5.666   7.498 -0.2612  0.4217 -0.1946
 6407TIP3    H140780   4.788   5.598   7.507 -0.8890 -0.1532  0.1833
 6407TIP3    H240781   4.746   5.733   7.560 -0.3249 -0.0372  0.3346
 6408TIP3   OH240782   3.564   0.435   1.764  0.4120  0.1735 -0.0566
 6408TIP3    H140783   3.471   0.454   1.766  0.0126 -1.6437  0.0831
 6408TIP3    H240784   3.583   0.397   1.850  1.5745  1.6574  0.3975
 6409TIP3   OH240785   2.608   4.171   1.086 -0.2263 -0.6569  0.4882
 6409TIP3    H140786   2.575   4.163   0.996  1.0466 -1.2945  0.0524
 6409TIP3    H240787   2.530   4.186   1.139 -1.3236 -2.7112 -0.4153
 6410TIP3   OH240788   3.941   0.901   8.391 -0.2403  0.3468 -0.5581
 6410TIP3    H140789   3.895   0.831   8.437 -0.2579  1.2022  0.7895
 6410TIP3    H240790   4.021   0.860   8.359 -1.1494 -0.7492 -1.4953
 6411TIP3   OH240791   2.696   2.445   7.655  0.4495  0.1432 -0.2308
 6411TIP3    H140792   2.729   2.382   7.718  1.4723  3.6760  3.1346
 6411TIP3    H240793   2.602   2.449   7.672  0.5688  0.3668  0.3975
 6412TIP3   OH240794   2.548   5.872   0.031  0.1448  0.1278 -0.1317
 6412TIP3    H140795   2.565   5.949   0.086  0.0643  0.7337 -0.9369
 6412TIP3    H240796   2.455   5.853   0.045  0.0936  0.3593 -0.1532
 6413TIP3   OH240797   0.727   2.768   1.147 -0.1427 -0.2275 -0.2995
 6413TIP3    H140798   0.684   2.809   1.222 -0.8878 -0.0161 -0.8247
 6413TIP3    H240799   0.662   2.707   1.112 -0.6219  1.1837 -2.0050
 6414TIP3   OH240800   5.849   5.660   8.133  0.1174 -0.4933  0.0247
 6414TIP3    H140801   5.935   5.701   8.147  0.0073 -0.3948  0.4217
 6414TIP3    H240802   5.862   5.604   8.057  0.4348 -0.1897 -0.1459
 6415TIP3   OH240803   3.543   3.841   2.305 -0.2666 -0.0747  1.0163
 6415TIP3    H140804   3.615   3.898   2.332  0.0538 -0.6214  1.3351
 6415TIP3    H240805   3.466   3.879   2.346 -0.2702  0.8964  0.1364
 6416TIP3   OH240806   4.790   0.903   6.678  0.2298 -0.1326  0.3056
 6416TIP3    H140807   4.709   0.923   6.727  0.8168 -2.9838  2.6851
 6416TIP3    H240808   4.763   0.840   6.612  0.5377 -1.5783  1.5135
 6417TIP3   OH240809   5.194   0.850   0.500 -0.4659  0.5178  0.8184
 6417TIP3    H140810   5.110   0.830   0.542 -0.4544  0.0305  0.6173
 6417TIP3    H240811   5.235   0.915   0.557 -1.9363  2.4605 -0.1903
 6418TIP3   OH240812   3.978   0.222   8.091  0.3101  0.4179  0.2043
 6418TIP3    H140813   4.006   0.309   8.064 -0.3527  0.4062 -0.5488
 6418TIP3    H240814   4.025   0.206   8.173  0.0992  1.6614  0.5889
 6419TIP3   OH240815   1.787   5.655   6.684  0.3379  0.1943  0.5727
 6419TIP3    H140816   1.816   5.732   6.635 -0.3816  0.4598  0.5504
 6419TIP3    H240817   1.726   5.610   6.625 -0.5777  0.5491  1.2222
 6420TIP3   OH240818   2.772   4.875   0.061  0.1363 -0.0278 -0.5900
 6420TIP3    H140819   2.849   4.860   0.006 -1.4877 -0.3842 -2.8804
 6420TIP3    H240820   2.774   4.803   0.124  1.3544 -0.3544 -0.9648
 6421TIP3   OH240821   2.289   2.474   0.266 -0.7303 -0.1874  0.2423
 6421TIP3    H140822   2.212   2.506   0.313 -2.1228 -0.2203 -1.8662
 6421TIP3    H240823   2.262   2.473   0.174  2.0775  0.5923 -0.6866
 6422TIP3   OH240824   5.153   2.525   7.989 -0.1097  0.4309  0.4881
 6422TIP3    H140825   5.066   2.497   7.961  1.1010 -1.1466 -1.9998
 6422TIP3    H240826   5.137   2.604   8.041 -3.0070  0.0654  0.3187
 6423TIP3   OH240827   2.075   0.114   7.924 -0.0095 -0.5870  0.8297
 6423TIP3    H140828   2.007   0.046   7.912 -0.4510 -0.1613  0.8959
 6423TIP3    H240829   2.080   0.126   8.018 -0.2672 -0.1944  0.7947
 6424TIP3   OH240830   5.991   4.855   7.277 -0.3278 -0.2262  0.0626
 6424TIP3    H140831   5.940   4.872   7.197  1.4762 -1.7658 -1.5066
 6424TIP3    H240832   5.928   4.813   7.336 -1.2850 -0.7189 -1.2410
 6425TIP3   OH240833   2.788   5.802   0.126 -0.5882 -0.0521 -0.7675
 6425TIP3    H140834   2.853   5.748   0.081 -1.0288 -0.8562 -0.4633
 6425TIP3    H240835   2.715   5.809   0.064 -0.6350 -0.0124 -0.7080
 6426TIP3   OH240836   3.943   5.151   8.863  0.3978  0.4267  0.2358
 6426TIP3    H140837   3.930   5.057   8.853  1.4770  0.4452 -2.0957
 6426TIP3    H240838   3.898   5.190   8.788  0.4797  1.7217  0.8295
 6427TIP3   OH240839   3.636   4.276   1.525  0.3643 -0.3209 -0.2554
 6427TIP3    H140840   3.645   4.371   1.535 -1.0395  0.0536 -2.1468
 6427TIP3    H240841   3.678   4.257   1.441  0.6988 -1.4137  0.1428
 6428TIP3   OH240842   0.574   2.536   7.953 -0.3686  0.1091 -0.2326
 6428TIP3    H140843   0.555   2.567   7.865  1.7850  0.4443 -0.6297
 6428TIP3    H240844   0.643   2.595   7.985 -0.0266 -0.9535  1.0777
 6429TIP3   OH240845   4.797   0.494   0.611  0.7079  0.2139  0.1270
 6429TIP3    H140846   4.768   0.427   0.673 -0.6522  0.1130 -0.5889
 6429TIP3    H240847   4.879   0.526   0.648  0.9335 -1.2071  0.9591
 6430TIP3   OH240848   3.492   5.536   8.347 -0.2554  0.5538  0.3508
 6430TIP3    H140849   3.419   5.524   8.286  0.1508  0.2750 -0.0950
 6430TIP3    H240850   3.552   5.596   8.301  0.1454  0.1899  0.3903
 6431TIP3   OH240851   4.513   3.867   2.133 -0.0847 -0.5339 -0.4633
 6431TIP3    H140852   4.535   3.780   2.099  1.0052 -0.4954  0.0956
 6431TIP3    H240853   4.419   3.875   2.119 -0.3240 -2.0760  0.0728
 6432TIP3   OH240854   1.328   2.588   0.059 -0.3554  0.0680  0.3869
 6432TIP3    H140855   1.352   2.678   0.037 -0.9409  0.2855  0.6082
 6432TIP3    H240856   1.407   2.537   0.043  0.3957  0.8237  1.5280
 6433TIP3   OH240857   6.439   0.711   0.310  0.3141  0.2416  0.0300
 6433TIP3    H140858   6.353   0.670   0.299  0.3781 -0.4888  1.8548
 6433TIP3    H240859   6.420   0.804   0.325 -0.1036  0.2210 -0.3677
 6434TIP3   OH240860   2.081   5.694   1.091 -0.0932  0.6578 -1.2466
 6434TIP3    H140861   2.026   5.744   1.151 -0.2796 -2.0635  1.0225
 6434TIP3    H240862   2.168   5.697   1.131 -0.5332 -2.5270  0.2495
 6435TIP3   OH240863   2.480   0.742   8.645  0.1934 -0.1114  0.5878
 6435TIP3    H140864   2.529   0.730   8.727  1.6751 -0.4338 -0.3085
 6435TIP3    H240865   2.454   0.835   8.646  0.4138 -0.0514  1.3001
 6436TIP3   OH240866   0.417   5.895   6.492  0.4378  0.1080 -0.5666
 6436TIP3    H140867   0.340   5.851   6.456 -0.1419  0.1786  0.5439
 6436TIP3    H240868   0.411   5.985   6.461  1.3570 -0.4204 -2.4310
 6437TIP3   OH240869   6.506   2.314   0.680  0.6209 -0.2228 -0.1485
 6437TIP3    H140870   6.565   2.246   0.712 -0.0765 -1.0466 -0.5857
 6437TIP3    H240871   6.520   2.388   0.739  0.8244 -1.0155  0.8122
 6438TIP3   OH240872   0.737   2.477   0.249 -0.3092  0.0238  0.1997
 6438TIP3    H140873   0.715   2.555   0.300 -1.0038  0.3985 -0.6583
 6438TIP3    H240874   0.832   2.482   0.237  0.0691 -0.7205  2.4758
 6439TIP3   OH240875   3.831   5.344   7.661 -0.2700 -0.2347  0.2346
 6439TIP3    H140876   3.736   5.352   7.652 -0.1322  1.3753 -0.0761
 6439TIP3    H240877   3.843   5.274   7.725 -1.6978  0.3430  1.1859
 6440TIP3   OH240878   1.415   4.685   7.622 -0.1903  0.5440 -0.4564
 6440TIP3    H140879   1.327   4.723   7.618 -0.0277  0.9596 -0.1046
 6440TIP3    H240880   1.472   4.758   7.646  0.1592  0.1355 -0.0297
 6441TIP3   OH240881   2.281   3.999   6.812 -0.4865 -0.0275  0.5732
 6441TIP3    H140882   2.221   3.985   6.738 -0.1894  0.6726  0.1899
 6441TIP3    H240883   2.367   4.009   6.771 -0.4407  1.2320  0.9365
 6442TIP3   OH240884   5.859   2.976   8.800  0.6130 -0.3516  0.0113
 6442TIP3    H140885   5.807   2.939   8.871 -0.3138  2.5229  0.9737
 6442TIP3    H240886   5.898   2.900   8.757 -1.7272 -2.4351  1.3030
 6443TIP3   OH240887   5.623   2.111   0.242 -0.4392 -0.0954  0.3648
 6443TIP3    H140888   5.562   2.038   0.234 -1.9487  1.2330 -1.2904
 6443TIP3    H240889   5.690   2.094   0.176 -1.7131  0.7503 -1.2410
 6444TIP3   OH240890   5.451   4.517   8.754 -0.1760 -0.0861 -0.4727
 6444TIP3    H140891   5.533   4.554   8.788 -0.1031 -0.0103 -0.7285
 6444TIP3    H240892   5.416   4.465   8.827  0.5790 -0.8890 -0.6646
 6445TIP3   OH240893   0.539   0.914   1.077 -0.0812  0.5477 -0.2568
 6445TIP3    H140894   0.455   0.869   1.082  0.6126 -0.7110  0.7444
 6445TIP3    H240895   0.566   0.907   0.985 -1.4417  1.7280 -0.7752
 6446TIP3   OH240896   5.505   3.919   0.085 -0.3728  0.6538  0.1470
 6446TIP3    H140897   5.478   3.828   0.097  0.5620  0.2726 -0.5618
 6446TIP3    H240898   5.432   3.960   0.039 -0.6637  0.1915  0.1905
 6447TIP3   OH240899   3.585   3.580   7.795 -0.0752 -0.0680  0.4812
 6447TIP3    H140900   3.572   3.552   7.886 -0.8789  1.6934  0.9559
 6447TIP3    H240901   3.630   3.507   7.753 -1.1273 -1.5751  1.8860
 6448TIP3   OH240902   1.913   2.797   8.562  0.0715 -0.4583 -0.0443
 6448TIP3    H140903   1.969   2.737   8.514 -1.0013 -0.9576 -0.7094
 6448TIP3    H240904   1.913   2.764   8.652  1.8333  0.2946  0.2687
 6449TIP3   OH240905   5.313   0.279   7.772 -0.0080 -0.8234 -0.0678
 6449TIP3    H140906   5.355   0.201   7.736  0.9990 -0.3459  0.0274
 6449TIP3    H240907   5.374   0.350   7.752  1.2884 -0.6759  3.5748
 6450TIP3   OH240908   6.062   6.739   1.011 -0.0631 -0.7047  0.2984
 6450TIP3    H140909   6.084   6.646   1.016  0.8149 -0.4378  3.0187
 6450TIP3    H240910   6.145   6.784   1.024 -0.1476  0.5782 -2.7536
 6451TIP3   OH240911   5.725   6.163   0.596  0.2710  0.1609 -0.0280
 6451TIP3    H140912   5.804   6.111   0.588  1.0010  1.3608 -1.1451
 6451TIP3    H240913   5.732   6.205   0.682  0.7019  0.0289  0.0032
 6452TIP3   OH240914   4.905   4.419   1.213 -0.0542  0.0353  0.0468
 6452TIP3    H140915   4.959   4.393   1.138 -0.2700 -1.7507  0.4549
 6452TIP3    H240916   4.967   4.452   1.278  0.6516 -2.0275  0.5226
 6453TIP3   OH240917   3.645   1.496   7.593  0.0190  0.9363  0.1585
 6453TIP3    H140918   3.669   1.562   7.528  1.0586  1.3249  0.9234
 6453TIP3    H240919   3.665   1.536   7.677 -1.4095  0.4813  0.7531
 6454TIP3   OH240920   1.076   0.261   6.776  0.2661  0.2409 -0.1236
 6454TIP3    H140921   1.028   0.304   6.705  1.0113  0.5050 -0.4775
 6454TIP3    H240922   1.151   0.319   6.792 -0.6587  0.9675  1.8946
 6455TIP3   OH240923   1.838   6.227   1.184 -0.1954  0.2101  0.3906
 6455TIP3    H140924   1.825   6.133   1.170  0.1508  0.2335 -0.0969
 6455TIP3    H240925   1.780   6.269   1.120 -0.0821  0.3271  0.3646
 6456TIP3   OH240926   6.429   5.906   7.780 -0.0883 -0.4527  0.9397
 6456TIP3    H140927   6.422   5.812   7.766 -0.9748 -0.1211 -1.1222
 6456TIP3    H240928   6.430   5.944   7.692 -1.2476  1.5651  1.7231
 6457TIP3   OH240929   3.948   4.636   0.531 -0.1362  0.3849 -0.4164
 6457TIP3    H140930   3.853   4.626   0.530 -0.0750 -0.3562 -1.8544
 6457TIP3    H240931   3.970   4.665   0.442  1.0464 -0.2225 -0.3458
 6458TIP3   OH240932   6.102   4.695   1.546  0.1909 -0.0211  0.1857
 6458TIP3    H140933   6.153   4.621   1.512 -0.5363 -1.0948  1.3746
 6458TIP3    H240934   6.144   4.717   1.629  0.6647  1.2178 -0.3465
 6459TIP3   OH240935   6.434   5.647   1.664 -0.0012  0.2838 -0.3622
 6459TIP3    H140936   6.504   5.695   1.708 -0.0819  0.0374  0.0335
 6459TIP3    H240937   6.362   5.645   1.727  0.3434 -1.2135  0.0344
 6460TIP3   OH240938   3.783   2.189   7.765 -0.8670  0.0484  0.7413
 6460TIP3    H140939   3.762   2.200   7.672 -1.0052 -1.2405  0.6095
 6460TIP3    H240940   3.699   2.199   7.810 -1.1088 -1.0499  0.5627
 6461TIP3   OH240941   3.300   5.935   7.330  0.3285  0.0171 -0.0560
 6461TIP3    H140942   3.316   5.983   7.411  0.5290 -0.4104  0.1603
 6461TIP3    H240943   3.226   5.981   7.290 -1.1975 -1.0024  1.4060
 6462TIP3   OH240944   3.376   0.046   8.335  0.0882  0.2640  0.1527
 6462TIP3    H140945   3.433   0.058   8.259  0.3815  0.2176  0.3647
 6462TIP3    H240946   3.291   0.021   8.297  0.7487 -1.7643 -0.1084
 6463TIP3   OH240947   0.686   4.468   7.664  0.2149 -0.2501  0.3019
 6463TIP3    H140948   0.757   4.467   7.727  1.8301 -2.9813 -1.3448
 6463TIP3    H240949   0.702   4.546   7.611  3.2701 -1.7175 -1.2057
 6464TIP3   OH240950   3.824   5.239   8.565 -0.9686 -0.1268 -0.0273
 6464TIP3    H140951   3.735   5.272   8.553 -1.0527 -1.2168 -3.2612
 6464TIP3    H240952   3.825   5.154   8.521  1.8288  0.1288 -0.6720
 6465TIP3   OH240953   4.374   1.278   6.664  0.6334  0.2106 -0.1402
 6465TIP3    H140954   4.339   1.221   6.733  0.2677 -0.8593 -1.1750
 6465TIP3    H240955   4.458   1.239   6.640 -0.6465 -1.3789 -2.4751
 6466TIP3   OH240956   3.501   4.994   1.776 -0.3156  0.5152  0.1017
 6466TIP3    H140957   3.440   5.000   1.703 -2.3453 -1.1960  1.5526
 6466TIP3    H240958   3.465   5.051   1.844  0.1543  0.1358  0.6869
 6467TIP3   OH240959   6.749   0.397   0.455  0.1158 -0.1321 -0.2105
 6467TIP3    H140960   6.713   0.419   0.370  1.1048  2.9147  0.0325
 6467TIP3    H240961   6.835   0.360   0.436  0.9939  1.9519 -0.5989
 6468TIP3   OH240962   2.536   6.680   6.653  0.1330 -0.1515  0.3761
 6468TIP3    H140963   2.578   6.595   6.669 -0.0044 -0.2466  0.2353
 6468TIP3    H240964   2.530   6.686   6.558 -1.5182 -0.8035  0.4138
 6469TIP3   OH240965   1.641   1.020   8.386 -0.2379 -0.7328 -0.1897
 6469TIP3    H140966   1.632   1.111   8.414 -0.3813 -1.3307  1.8836
 6469TIP3    H240967   1.723   1.019   8.337 -0.7492  0.6960 -1.1391
 6470TIP3   OH240968   4.011   5.320   0.660 -0.0487 -0.1829 -0.2059
 6470TIP3    H140969   3.975   5.408   0.654  4.1009  1.8763  1.1530
 6470TIP3    H240970   3.976   5.285   0.742 -0.3118  0.9931  0.1964
 6471TIP3   OH240971   2.727   0.320   7.813 -0.0999 -0.4776 -0.0026
 6471TIP3    H140972   2.670   0.396   7.802 -0.3033 -0.3086  1.8976
 6471TIP3    H240973   2.803   0.339   7.758 -0.9883  0.2146 -1.0130
 6472TIP3   OH240974   6.396   5.726   0.739 -0.3969 -0.3897 -0.3557
 6472TIP3    H140975   6.426   5.636   0.748  0.6202 -0.1317 -0.9057
 6472TIP3    H240976   6.381   5.756   0.829  1.9214 -0.2773  0.0678
 6473TIP3   OH240977   0.035   0.710   7.781  0.0779 -0.5861  0.3914
 6473TIP3    H140978   0.060   0.800   7.804  0.6357 -0.4571 -0.6532
 6473TIP3    H240979  -0.048   0.719   7.735  0.1959 -0.5775  0.1741
 6474TIP3   OH240980   5.080   0.214   1.537 -0.2040  0.2255  0.0423
 6474TIP3    H140981   5.170   0.229   1.506 -0.2886  0.9466  0.1356
 6474TIP3    H240982   5.070   0.119   1.535  0.2564  0.1813 -0.8327
 6475TIP3   OH240983   5.196   0.215   0.666  0.3383  0.3792 -0.2502
 6475TIP3    H140984   5.121   0.180   0.617 -0.1929  1.0769  0.0465
 6475TIP3    H240985   5.216   0.146   0.729  0.0254  0.1313 -0.4127
 6476TIP3   OH240986   0.829   2.250   6.721  0.2428  0.2825 -0.1268
 6476TIP3    H140987   0.832   2.283   6.811  0.0979 -0.2183  0.0642
 6476TIP3    H240988   0.808   2.157   6.730  0.7260  0.1165 -0.6537
 6477TIP3   OH240989   0.065   3.098   1.768  0.4650 -0.4851  0.0391
 6477TIP3    H140990  -0.021   3.140   1.779 -1.1759 -2.8745 -2.2741
 6477TIP3    H240991   0.125   3.151   1.820 -1.9023  2.9058 -0.4049
 6478TIP3   OH240992   2.974   2.883   8.862 -0.0083  0.5569 -0.1660
 6478TIP3    H140993   2.957   2.938   8.786 -1.7724  1.1093  0.5670
 6478TIP3    H240994   3.066   2.899   8.883 -0.2418  2.5925 -0.4969
 6479TIP3   OH240995   1.472   4.186   8.780  0.0266 -0.4190  0.2459
 6479TIP3    H140996   1.515   4.114   8.733 -1.7884 -1.8366  0.6374
 6479TIP3    H240997   1.484   4.164   8.872 -0.2821 -0.0611  0.3695
 6480TIP3   OH240998   3.335   1.378   7.161  0.5582  0.1640  0.1804
 6480TIP3    H140999   3.255   1.383   7.108  1.6973  0.0737 -1.6551
 6480TIP3    H241000   3.399   1.431   7.113  1.8105 -0.3858  1.1732
 6481TIP3   OH241001   4.446   2.132   7.503  0.3349 -0.6663  0.3287
 6481TIP3    H141002   4.500   2.110   7.579 -0.8298 -0.3162  1.2978
 6481TIP3    H241003   4.469   2.066   7.437  2.8062  0.1964  0.2282
 6482TIP3   OH241004   5.354   4.845   7.408 -0.4541 -0.0597  1.1324
 6482TIP3    H141005   5.409   4.901   7.463 -0.3424  1.5808 -0.5381
 6482TIP3    H241006   5.410   4.770   7.386  0.9049  1.1894  0.1021
 6483TIP3   OH241007   4.405   4.629   2.038 -0.0607  0.9385 -0.1052
 6483TIP3    H141008   4.393   4.665   1.950 -2.0648 -0.1638 -0.3425
 6483TIP3    H241009   4.344   4.680   2.092  3.2349  3.7045  1.3949
 6484TIP3   OH241010   0.961   4.610   7.691  0.1133  0.2781  0.0014
 6484TIP3    H141011   0.981   4.549   7.763 -1.2438 -0.2924 -0.0874
 6484TIP3    H241012   0.952   4.695   7.734 -1.2184 -0.1527  0.5948
 6485TIP3   OH241013   2.658   3.554   0.758 -0.4288  0.0357 -0.2727
 6485TIP3    H141014   2.592   3.488   0.780 -0.2157  0.0356  0.3821
 6485TIP3    H241015   2.706   3.569   0.839  0.6594 -0.2725 -0.8252
 6486TIP3   OH241016   3.816   1.325   6.705 -0.4462  0.2743 -0.3120
 6486TIP3    H141017   3.807   1.373   6.622  1.7308  1.9620  0.3218
 6486TIP3    H241018   3.757   1.370   6.765  0.0552  0.8514 -0.2457
 6487TIP3   OH241019   6.164   5.845   6.846  0.0074  0.5083 -0.6056
 6487TIP3    H141020   6.073   5.838   6.817 -0.4631 -1.5208  1.1626
 6487TIP3    H241021   6.207   5.895   6.776 -2.3535  1.1901 -1.6695
 6488TIP3   OH241022   4.219   2.118   2.400  0.1128  0.1216 -0.3212
 6488TIP3    H141023   4.310   2.099   2.378  0.3330  1.7352 -0.9225
 6488TIP3    H241024   4.178   2.138   2.315 -0.4091  0.9608  0.1196
 6489TIP3   OH241025   2.681   0.087   8.270  0.4714 -0.0045  0.3750
 6489TIP3    H141026   2.669  -0.001   8.305 -0.9859 -0.9641 -2.2695
 6489TIP3    H241027   2.599   0.132   8.287 -0.4377 -0.6341 -2.0006
 6490TIP3   OH241028   0.846   6.730   7.407 -0.1241  0.0773  0.4061
 6490TIP3    H141029   0.921   6.672   7.399  0.7467  1.4173 -2.8375
 6490TIP3    H241030   0.849   6.762   7.497  0.1130 -3.7087  1.9083
 6491TIP3   OH241031   6.304   1.307   0.151  0.0745  0.2346  0.0687
 6491TIP3    H141032   6.302   1.238   0.085  0.0320  0.5110 -0.2219
 6491TIP3    H241033   6.271   1.265   0.230  1.4162 -0.4744  0.2796
 6492TIP3   OH241034   6.760   4.502   1.236 -0.5402 -0.8663  0.8778
 6492TIP3    H141035   6.770   4.407   1.226 -3.2587 -1.4494  2.4914
 6492TIP3    H241036   6.666   4.517   1.227 -0.6537  1.1703  3.9032
 6493TIP3   OH241037   2.818   6.342   7.495 -0.5451 -0.3674 -0.0864
 6493TIP3    H141038   2.824   6.307   7.406 -2.3511 -0.6712 -0.1109
 6493TIP3    H241039   2.792   6.267   7.548 -0.4913  0.0512  0.5342
 6494TIP3   OH241040   3.705   4.706   8.688  0.4335  0.2897  0.1690
 6494TIP3    H141041   3.768   4.778   8.699  0.8280 -0.2974  2.0675
 6494TIP3    H241042   3.626   4.749   8.657  0.8488  1.4753  0.6717
 6495TIP3   OH241043   4.206   1.574   8.671 -0.3528 -0.0432 -0.3690
 6495TIP3    H141044   4.141   1.510   8.701 -0.0341  0.1360  0.7384
 6495TIP3    H241045   4.164   1.617   8.597 -0.9103 -0.9486 -0.5963
 6496TIP3   OH241046   0.112   3.891   7.539  0.1870  0.1742 -0.1064
 6496TIP3    H141047   0.161   3.969   7.564  1.7485 -0.8781  0.3095
 6496TIP3    H241048   0.070   3.914   7.456  0.4730  1.4964  0.1038
 6497TIP3   OH241049   4.464   4.668   8.847  0.2724 -0.3082  0.1634
 6497TIP3    H141050   4.438   4.708   8.931  1.6569  0.8889  0.0524
 6497TIP3    H241051   4.471   4.574   8.867 -0.2077 -0.1485  1.1693
 6498TIP3   OH241052   5.859   0.612   8.732 -0.0946 -0.4750  0.1456
 6498TIP3    H141053   5.849   0.545   8.665  0.0018 -0.5057  0.1615
 6498TIP3    H241054   5.782   0.668   8.722 -1.0480 -1.5431  1.2388
 6499TIP3   OH241055   0.512   4.082   0.672  0.2763  0.3020 -0.7030
 6499TIP3    H141056   0.424   4.087   0.710  0.7189  1.3436  0.2379
 6499TIP3    H241057   0.513   3.998   0.627 -1.0286  0.0325 -0.2964
 6500TIP3   OH241058   0.130   4.626   8.061  0.7577  0.2783 -0.3519
 6500TIP3    H141059   0.174   4.543   8.043  2.0909  0.9246 -0.1682
 6500TIP3    H241060   0.037   4.603   8.068  0.9922 -1.0382 -1.2624
 6501TIP3   OH241061   5.732   6.458   8.485  0.4702 -0.5220 -0.4967
 6501TIP3    H141062   5.722   6.364   8.478 -0.7997 -0.3068 -2.3802
 6501TIP3    H241063   5.695   6.480   8.571 -0.7421 -1.5838 -0.7164
 6502TIP3   OH241064   0.291   6.401   6.568  0.1496  0.2141 -0.4347
 6502TIP3    H141065   0.348   6.478   6.568  0.9532 -0.3360  1.1433
 6502TIP3    H241066   0.221   6.422   6.506  1.4149  1.3984 -1.5122
 6503TIP3   OH241067   6.515   6.454   0.055  0.7217 -0.2051  0.4296
 6503TIP3    H141068   6.453   6.522   0.028  1.0714  0.4821  1.2983
 6503TIP3    H241069   6.587   6.502   0.095  1.4076 -1.0453  0.2363
 6504TIP3   OH241070   3.830   5.015   8.398 -0.1618 -0.9306  0.2195
 6504TIP3    H141071   3.896   4.945   8.402  1.9667  0.9321 -0.2894
 6504TIP3    H241072   3.838   5.051   8.310  0.6450  1.5960  1.2418
 6505TIP3   OH241073   2.147   1.510   7.421  0.2732  0.2003  0.0305
 6505TIP3    H141074   2.199   1.529   7.499  1.4020  0.2244 -0.7150
 6505TIP3    H241075   2.167   1.419   7.401  0.1221  0.2475 -0.3372
 6506TIP3   OH241076   3.909   5.656   1.157 -0.1159  0.1965 -0.3697
 6506TIP3    H141077   3.942   5.570   1.183 -0.2053  0.8103  2.0330
 6506TIP3    H241078   3.988   5.707   1.136 -0.0423 -0.3452 -1.4643
 6507TIP3   OH241079   3.722   4.209   8.288 -0.2010  0.1592 -0.2247
 6507TIP3    H141080   3.702   4.261   8.366  1.4786 -0.3604  0.6029
 6507TIP3    H241081   3.660   4.136   8.291 -0.5049  0.4285  0.3278
 6508TIP3   OH241082   5.533   6.480   1.649 -0.2026 -0.6728 -0.2852
 6508TIP3    H141083   5.545   6.551   1.712  1.8249 -2.8774  2.0656
 6508TIP3    H241084   5.614   6.430   1.653 -0.8935 -2.2701 -3.0435
 6509TIP3   OH241085   1.495   2.080   7.614 -0.1685  0.0804  0.0524
 6509TIP3    H141086   1.587   2.064   7.635 -0.4165 -1.9404 -0.2531
 6509TIP3    H241087   1.453   2.096   7.699  0.1986 -0.4493  0.3349
 6510TIP3   OH241088   3.401   1.171   7.823 -0.0588 -0.2840 -0.1067
 6510TIP3    H141089   3.342   1.240   7.792  1.7192  0.7401 -1.4135
 6510TIP3    H241090   3.378   1.094   7.771 -1.1214 -0.3137  0.3754
 6511TIP3   OH241091   3.328   4.027   1.701 -0.1535 -0.2898 -0.3395
 6511TIP3    H141092   3.348   3.985   1.617 -0.2098  3.2690 -2.3585
 6511TIP3    H241093   3.245   4.072   1.685  0.1164  0.9437  1.4499
 6512TIP3   OH241094   2.358   4.342   0.454  0.3878 -0.5120 -0.6450
 6512TIP3    H141095   2.276   4.348   0.406  0.4132 -1.8385 -0.9092
 6512TIP3    H241096   2.380   4.432   0.478 -0.6083 -0.0420 -1.4619
 6513TIP3   OH241097   4.138   6.558   0.843  0.1677 -0.4275  0.5380
 6513TIP3    H141098   4.054   6.597   0.822  0.4758  0.2033  0.4464
 6513TIP3    H241099   4.192   6.574   0.766  0.5655 -0.2604  0.8471
 6514TIP3   OH241100   3.051   4.531   7.298  0.1724  0.2769  0.2410
 6514TIP3    H141101   3.002   4.450   7.310  1.4827 -0.6650 -0.4392
 6514TIP3    H241102   3.087   4.551   7.384 -0.6796  0.5023  0.5509
 6515TIP3   OH241103   6.346   5.143   0.376 -0.3260  0.5928 -0.5777
 6515TIP3    H141104   6.292   5.065   0.366  2.1447 -1.2491 -0.5907
 6515TIP3    H241105   6.302   5.209   0.323 -3.0358 -0.4311  0.1885
 6516TIP3   OH241106   0.823   5.516   6.874 -0.4333 -0.2837  0.1135
 6516TIP3    H141107   0.751   5.570   6.841 -0.1115  0.3314  0.4140
 6516TIP3    H241108   0.890   5.578   6.902  0.7612 -0.8559 -1.3283
 6517TIP3   OH241109   6.187   2.583   0.956 -0.0212  0.0275  0.4845
 6517TIP3    H141110   6.276   2.616   0.969 -0.4320  0.9621  1.0554
 6517TIP3    H241111   6.156   2.563   1.044 -1.7602  3.5119  0.8149
 6518TIP3   OH241112   4.025   0.916   8.872 -0.3083  0.7334  0.0357
 6518TIP3    H141113   3.975   0.898   8.952  0.0571  0.6265  0.2411
 6518TIP3    H241114   4.099   0.970   8.902 -0.2065  0.7459 -0.2403
 6519TIP3   OH241115   4.614   2.395   2.681  0.6137  0.0201 -0.3968
 6519TIP3    H141116   4.609   2.387   2.586 -1.0251  1.8189 -0.5137
 6519TIP3    H241117   4.706   2.416   2.698  0.9565 -0.4532 -1.5561
 6520TIP3   OH241118   5.446   0.888   1.230 -0.5091 -0.2185  0.2229
 6520TIP3    H141119   5.469   0.800   1.261  0.2480 -0.5190 -1.1243
 6520TIP3    H241120   5.517   0.944   1.260 -2.0516  0.4378  3.0259
 6521TIP3   OH241121   3.930   3.195   7.117 -0.0210 -0.0814  0.1101
 6521TIP3    H141122   3.913   3.102   7.106 -0.7047  0.0780 -0.2541
 6521TIP3    H241123   3.851   3.238   7.083  0.3570  0.6308  0.1080
 6522TIP3   OH241124   3.978   1.457   7.846  0.3858 -0.1396 -0.4872
 6522TIP3    H141125   3.940   1.390   7.902 -1.5835  0.4569 -1.0340
 6522TIP3    H241126   4.061   1.420   7.817  0.0018 -1.7327  0.3474
 6523TIP3   OH241127   3.716   3.801   1.591  0.3264 -1.1326  0.4076
 6523TIP3    H141128   3.684   3.759   1.670  0.0495  0.1736  1.0212
 6523TIP3    H241129   3.749   3.886   1.620 -1.6509  0.2532 -1.1070
 6524TIP3   OH241130   1.462   0.614   8.674 -0.2882 -0.0693  0.0673
 6524TIP3    H141131   1.472   0.628   8.768 -1.5467 -1.0891  0.3906
 6524TIP3    H241132   1.532   0.666   8.634  0.1569  0.5250  1.5464
 6525TIP3   OH241133   0.633   2.897   8.542  0.1459 -0.2586 -0.9851
 6525TIP3    H141134   0.681   2.828   8.588  0.2888  0.5920  0.1683
 6525TIP3    H241135   0.700   2.944   8.492  0.8007  1.6654  1.5310
 6526TIP3   OH241136   6.504   4.068   0.162  0.3725  0.3416  0.2161
 6526TIP3    H141137   6.585   4.071   0.214  0.7235  1.7417 -0.3549
 6526TIP3    H241138   6.484   3.975   0.154  2.0714 -0.0632  0.1711
 6527TIP3   OH241139   4.812   4.728   1.307  0.1456 -0.0350 -0.0870
 6527TIP3    H141140   4.889   4.735   1.251  0.5145 -3.2901 -0.2071
 6527TIP3    H241141   4.746   4.686   1.252  0.2082 -2.4132  1.5054
 6528TIP3   OH241142   5.318   5.989   8.893  0.1676 -0.5145 -0.0548
 6528TIP3    H141143   5.405   5.951   8.900  0.4097 -0.3357 -1.6790
 6528TIP3    H241144   5.333   6.082   8.879 -0.2928 -0.4270  0.0126
 6529TIP3   OH241145   5.915   1.873   0.063  0.0552  0.7365 -0.8179
 6529TIP3    H141146   5.998   1.905   0.029 -0.2454  0.3576 -1.9573
 6529TIP3    H241147   5.912   1.904   0.154  1.3049  0.9850 -0.8489
 6530TIP3   OH241148   5.423   3.635   1.419  0.3106 -0.6993 -0.3173
 6530TIP3    H141149   5.465   3.550   1.423  0.4664 -0.6192 -0.2329
 6530TIP3    H241150   5.371   3.640   1.500 -0.8913 -1.3269 -1.0263
 6531TIP3   OH241151   6.254   1.467   1.465 -0.1807 -0.1464 -0.0160
 6531TIP3    H141152   6.313   1.392   1.454  0.2484 -0.1859  2.0953
 6531TIP3    H241153   6.288   1.513   1.542 -1.6543  1.0646 -0.0485
 6532TIP3   OH241154   2.057   3.591   0.903 -0.1921  0.4261 -0.0992
 6532TIP3    H141155   2.048   3.671   0.852 -0.0280  1.1318  0.9353
 6532TIP3    H241156   2.047   3.620   0.994 -0.3327 -0.7632  0.2809
 6533TIP3   OH241157   1.617   4.012   1.353 -0.0097 -0.0485  0.5680
 6533TIP3    H141158   1.554   4.018   1.425 -1.2833 -0.2609 -0.4946
 6533TIP3    H241159   1.601   3.927   1.314 -1.1057  1.0502 -1.5305
 6534TIP3   OH241160   0.864   5.353   8.686 -0.0411  0.0183 -0.2859
 6534TIP3    H141161   0.886   5.336   8.595 -1.0213 -2.6621 -0.1012
 6534TIP3    H241162   0.942   5.326   8.735  0.0276  0.2838 -0.2463
 6535TIP3   OH241163   6.028   3.196   7.981 -0.5156 -0.1976  0.1205
 6535TIP3    H141164   6.011   3.290   7.987  0.5449 -0.0104  0.3876
 6535TIP3    H241165   6.025   3.166   8.071  0.1414 -0.2271  0.1377
 6536TIP3   OH241166   5.691   0.421   6.768  0.3114 -0.2385 -0.1369
 6536TIP3    H141167   5.606   0.446   6.732 -0.7167  0.0009  2.2466
 6536TIP3    H241168   5.698   0.471   6.849  2.5326 -0.6224 -0.0287
 6537TIP3   OH241169   6.512   3.042   1.225 -0.0783 -0.4343 -0.3640
 6537TIP3    H141170   6.464   3.028   1.306  0.8164 -1.3184  0.0348
 6537TIP3    H241171   6.451   3.015   1.156 -0.9223  0.5376 -0.0125
 6538TIP3   OH241172   3.559   5.114   8.762 -0.0131  0.2977  0.1533
 6538TIP3    H141173   3.629   5.130   8.825  0.1852  0.5843 -0.1375
 6538TIP3    H241174   3.529   5.202   8.737 -0.6693  0.1775  0.4908
 6539TIP3   OH241175   6.707   3.739   8.433 -0.0849  0.3161  0.1281
 6539TIP3    H141176   6.726   3.726   8.340  0.4308  0.3450  0.2256
 6539TIP3    H241177   6.673   3.828   8.439 -0.4219  0.2017 -0.0749
 6540TIP3   OH241178   1.457   5.814   7.493 -0.2825 -0.3125 -0.6854
 6540TIP3    H141179   1.547   5.832   7.467  0.1408  0.2371  1.0191
 6540TIP3    H241180   1.421   5.900   7.514 -1.2208 -0.5278 -1.3637
 6541TIP3   OH241181   4.983   5.199   2.169  0.3583 -0.0087 -0.0533
 6541TIP3    H141182   5.072   5.214   2.201  0.7165 -0.6737 -0.7209
 6541TIP3    H241183   4.931   5.265   2.215  1.2542  0.6642  0.0462
 6542TIP3   OH241184   6.511   2.785   0.148 -0.0868 -0.5675  0.1085
 6542TIP3    H141185   6.458   2.763   0.225  0.8821 -2.0452  0.3967
 6542TIP3    H241186   6.492   2.878   0.132 -2.0623 -0.8084  0.7177
 6543TIP3   OH241187   2.126   2.975   6.594 -0.2597  0.7936 -0.0776
 6543TIP3    H141188   2.178   2.928   6.659 -0.2555  1.0293  0.0921
 6543TIP3    H241189   2.071   3.034   6.645  1.3960  2.6683 -0.3343
 6544TIP3   OH241190   0.258   6.101   7.526 -0.1498 -0.3151  0.4958
 6544TIP3    H141191   0.179   6.097   7.473 -0.0904  1.3148  0.2358
 6544TIP3    H241192   0.307   6.176   7.492  2.2173 -2.0653 -0.2670
 6545TIP3   OH241193   4.143   3.267   7.289  0.1696 -0.0295  0.0165
 6545TIP3    H141194   4.071   3.229   7.238  0.8196 -0.4287 -0.6354
 6545TIP3    H241195   4.160   3.352   7.248  0.5670 -0.2673 -0.3192
 6546TIP3   OH241196   3.496   4.001   8.256  0.2958 -0.0270 -0.2521
 6546TIP3    H141197   3.419   4.058   8.261  2.0491  2.4631  0.1439
 6546TIP3    H241198   3.462   3.919   8.220 -2.2043  1.5801 -1.9179
 6547TIP3   OH241199   5.773   1.056   8.779 -0.0249 -1.1689  0.3641
 6547TIP3    H141200   5.680   1.039   8.765 -0.7339  3.1038 -1.5037
 6547TIP3    H241201   5.816   1.024   8.699  0.1908 -3.0368  1.1791
 6548TIP3   OH241202   1.190   6.346   8.588  0.3965 -0.4918  0.4708
 6548TIP3    H141203   1.127   6.277   8.605  0.4541 -0.8339 -0.6251
 6548TIP3    H241204   1.140   6.427   8.596 -0.2522 -0.7676 -0.6072
 6549TIP3   OH241205   2.058   6.476   1.563 -0.1048  0.3489  0.5536
 6549TIP3    H141206   2.119   6.481   1.490  0.0277 -0.9535  0.5604
 6549TIP3    H241207   1.981   6.432   1.527 -1.7521  3.3096  0.1038
 6550TIP3   OH241208   2.764   0.718   7.996  0.0016  0.4270 -0.1949
 6550TIP3    H141209   2.671   0.738   8.008  0.0908  0.8692 -0.2389
 6550TIP3    H241210   2.776   0.633   8.038 -0.4152  0.3900 -0.1538
 6551TIP3   OH241211   2.558   3.759   7.448 -0.1690 -0.0583 -0.0536
 6551TIP3    H141212   2.630   3.752   7.511  0.0620  0.6997 -0.2170
 6551TIP3    H241213   2.570   3.845   7.408 -0.8297 -0.1680 -0.5041
 6552TIP3   OH241214   2.918   6.204   0.337  0.2134  0.7914 -0.1299
 6552TIP3    H141215   2.828   6.225   0.312  0.5125  1.1762 -0.9282
 6552TIP3    H241216   2.935   6.259   0.413 -0.2343  0.7026  0.0371
 6553TIP3   OH241217   3.174   0.097   6.880 -0.4049  0.0443  0.0864
 6553TIP3    H141218   3.089   0.129   6.849  0.1563  1.1891 -0.3209
 6553TIP3    H241219   3.235   0.118   6.810 -0.0334 -2.3366 -0.3990
 6554TIP3   OH241220   5.385   4.949   0.864  0.5850  0.0738 -0.0232
 6554TIP3    H141221   5.315   4.954   0.930  0.1050  1.0139 -0.5701
 6554TIP3    H241222   5.446   5.018   0.891  1.1682 -0.5629  0.2946
 6555TIP3   OH241223   3.652   3.016   8.377  0.0359  0.4238  0.6088
 6555TIP3    H141224   3.646   2.945   8.312  0.8257  2.2245 -1.5713
 6555TIP3    H241225   3.580   3.075   8.355 -0.8149  0.2111  2.6063
 6556TIP3   OH241226   3.514   3.528   8.056  0.1558 -0.2723  0.1545
 6556TIP3    H141227   3.593   3.561   8.098  0.2946 -0.2963 -0.0826
 6556TIP3    H241228   3.519   3.433   8.067  0.6822 -0.3583 -0.7515
 6557TIP3   OH241229   2.939   1.003   5.992  0.8313  0.1742  0.5773
 6557TIP3    H141230   2.919   1.040   5.906 -1.5576 -0.4607  0.7840
 6557TIP3    H241231   3.011   1.057   6.026 -0.1648  2.3373 -0.5741
 6558TIP3   OH241232   1.946   4.365   1.922 -0.3399  0.7975  0.1250
 6558TIP3    H141233   2.004   4.334   1.991  1.7552  0.4373 -1.7153
 6558TIP3    H241234   1.887   4.427   1.966  0.6831  0.3110  2.2697
 6559TIP3   OH241235   1.107   1.185   7.959 -0.2397 -0.6502  0.1794
 6559TIP3    H141236   1.011   1.185   7.953 -0.2275 -1.0786 -0.0608
 6559TIP3    H241237   1.136   1.218   7.874 -0.1669 -0.9566  0.0854
 6560TIP3   OH241238   5.013   4.973   6.685 -0.2922  0.2149 -0.1115
 6560TIP3    H141239   4.957   4.983   6.608  0.1081 -1.4743 -0.6732
 6560TIP3    H241240   4.956   4.936   6.752 -0.3578  0.6018  0.0537
 6561TIP3   OH241241   6.543   5.761   0.468  0.2347 -0.3697 -0.2477
 6561TIP3    H141242   6.490   5.835   0.500 -1.2417 -0.2597 -2.6963
 6561TIP3    H241243   6.482   5.688   0.461  1.2066 -1.2468  0.1222
 6562TIP3   OH241244   4.894   5.752   0.208 -0.3122 -0.0724  0.0592
 6562TIP3    H141245   4.827   5.819   0.199 -0.5258 -0.2488  0.2775
 6562TIP3    H241246   4.967   5.782   0.155  0.6577  1.6752  2.2121
 6563TIP3   OH241247   2.217   1.755   7.293  0.2921 -0.2390 -0.0522
 6563TIP3    H141248   2.227   1.679   7.235 -0.9533 -0.3125 -0.2050
 6563TIP3    H241249   2.176   1.720   7.372 -1.1853  0.4007 -0.4995
 6564TIP3   OH241250   6.674   0.592   2.330  0.4105  0.2214  0.3881
 6564TIP3    H141251   6.734   0.566   2.400  0.6259 -1.9945 -0.5244
 6564TIP3    H241252   6.600   0.531   2.338  1.9470 -2.5536 -3.2268
 6565TIP3   OH241253   6.011   6.463   1.608 -0.0830  0.0738 -0.2200
 6565TIP3    H141254   6.053   6.453   1.693  0.4575  0.6651 -0.4180
 6565TIP3    H241255   5.922   6.493   1.629 -0.4048 -1.0824  0.1888
 6566TIP3   OH241256   3.541   2.538   0.788  0.3361  0.0897  0.6026
 6566TIP3    H141257   3.545   2.565   0.880  0.4034 -1.1403  0.9906
 6566TIP3    H241258   3.454   2.499   0.779  0.1797  0.5708  0.0334
 6567TIP3   OH241259   6.511   2.453   1.192  0.1197  0.3343  0.1590
 6567TIP3    H141260   6.574   2.382   1.181 -1.2863 -0.8062 -0.7854
 6567TIP3    H241261   6.464   2.433   1.272 -0.0134  0.4268  0.1049
 6568TIP3   OH241262   0.613   6.663   1.210 -0.2342  0.2515 -0.4384
 6568TIP3    H141263   0.637   6.659   1.117  1.5464 -1.2385  0.0069
 6568TIP3    H241264   0.615   6.571   1.239 -0.1599  0.7424  1.1968
 6569TIP3   OH241265   6.680   2.423   0.853 -0.0054  0.0463 -0.0129
 6569TIP3    H141266   6.714   2.369   0.924 -0.9587  0.6963  0.9805
 6569TIP3    H241267   6.733   2.502   0.855 -0.9957  0.7267  1.0288
 6570TIP3   OH241268   4.640   2.079   7.690  0.0538  0.3694  0.1142
 6570TIP3    H141269   4.685   1.994   7.685 -0.7263 -0.0306 -0.3622
 6570TIP3    H241270   4.704   2.138   7.730  0.9835 -0.1953 -0.4993
 6571TIP3   OH241271   0.117   6.154   0.601 -0.0402  0.3163  0.0831
 6571TIP3    H141272   0.107   6.086   0.535 -1.2415  0.9107 -0.3842
 6571TIP3    H241273   0.029   6.166   0.637  0.5419  0.1711  1.6457
 6572TIP3   OH241274   3.054   5.995   8.223  0.5998 -0.2231 -0.1461
 6572TIP3    H141275   3.105   5.962   8.148 -0.6337 -0.4256 -0.9352
 6572TIP3    H241276   3.117   6.001   8.294  1.8407  0.0480 -1.2200
 6573TIP3   OH241277   5.644   2.614   1.797  0.0591  0.1967 -0.0271
 6573TIP3    H141278   5.645   2.591   1.704  1.8966  4.3367 -1.2972
 6573TIP3    H241279   5.552   2.625   1.818 -0.3866 -0.6408 -1.3934
 6574TIP3   OH241280   6.171   4.626   8.173  0.4236  0.0670  0.2271
 6574TIP3    H141281   6.151   4.539   8.207  1.3052 -1.0167 -1.8386
 6574TIP3    H241282   6.248   4.654   8.221 -0.1373 -0.0550  1.2343
 6575TIP3   OH241283   0.760   3.160   8.396  0.1762 -0.0736  0.0417
 6575TIP3    H141284   0.706   3.225   8.440 -0.0948 -0.2812  0.0151
 6575TIP3    H241285   0.849   3.195   8.403  0.0115  0.3871 -0.1327
 6576TIP3   OH241286   6.412   0.830   8.628 -0.1656  0.4735 -0.5959
 6576TIP3    H141287   6.342   0.850   8.566  0.8124  1.3351 -1.4411
 6576TIP3    H241288   6.403   0.736   8.645 -2.1681  0.7393  0.1329
 6577TIP3   OH241289   2.794   4.520   7.774  0.1364  0.0475  0.4015
 6577TIP3    H141290   2.879   4.508   7.815  0.1003  0.1119  0.4953
 6577TIP3    H241291   2.751   4.435   7.779  1.1855 -0.7112 -1.8997
 6578TIP3   OH241292   2.715   3.864   1.156 -0.4084 -0.6188 -0.8832
 6578TIP3    H141293   2.759   3.873   1.072 -1.4958 -2.5846 -1.7322
 6578TIP3    H241294   2.655   3.939   1.159  1.1127  0.6373 -0.8696
 6579TIP3   OH241295   1.085   4.558   2.153  0.1916 -0.0630  0.3414
 6579TIP3    H141296   1.010   4.612   2.131  0.2411  0.6633  1.8134
 6579TIP3    H241297   1.052   4.495   2.216  0.8412  0.4573  1.2418
 6580TIP3   OH241298   6.510   2.110   0.911  0.2550  0.0058  0.5659
 6580TIP3    H141299   6.580   2.158   0.954  0.3088  0.7820 -0.3620
 6580TIP3    H241300   6.550   2.075   0.831 -0.4922  0.7736 -0.1636
 6581TIP3   OH241301   0.707   5.023   0.789 -0.0413  0.4428  0.0546
 6581TIP3    H141302   0.752   5.021   0.704 -0.9753  0.6331 -0.4607
 6581TIP3    H241303   0.631   5.079   0.774 -1.3760 -1.1889  0.4256
 6582TIP3   OH241304   6.343   3.235   0.638  0.2719 -0.1246  0.0409
 6582TIP3    H141305   6.372   3.276   0.556  1.5134 -0.3759  0.3386
 6582TIP3    H241306   6.410   3.258   0.702  0.3163 -1.5099  0.5255
 6583TIP3   OH241307   6.451   0.014   2.126  0.2217 -0.4561 -0.4987
 6583TIP3    H141308   6.516   0.075   2.091 -1.1585 -0.0942 -2.5775
 6583TIP3    H241309   6.397   0.066   2.185  2.4013 -1.0147  2.2550
 6584TIP3   OH241310   4.078   1.254   8.510 -0.0789  0.6791  0.0404
 6584TIP3    H141311   4.027   1.180   8.543  1.5975 -0.2977  0.5234
 6584TIP3    H241312   4.028   1.331   8.536 -0.9076 -0.2173  1.2003
 6585TIP3   OH241313   1.993   6.340   8.302 -0.1287  0.0233  0.2161
 6585TIP3    H141314   1.905   6.312   8.326  0.1704  1.3427  3.4323
 6585TIP3    H241315   2.051   6.282   8.352  0.6793  1.1965  0.7011
 6586TIP3   OH241316   3.134   1.091   2.068 -0.0885 -0.5225  0.3605
 6586TIP3    H141317   3.047   1.129   2.069 -0.3274 -1.0589  1.1949
 6586TIP3    H241318   3.134   1.031   1.994  0.7278  1.9958 -1.8264
 6587TIP3   OH241319   3.944   1.066   8.182 -0.0803  0.8888 -0.2268
 6587TIP3    H141320   3.868   1.035   8.133  0.7872  0.2452 -1.2035
 6587TIP3    H241321   3.947   1.008   8.258 -1.3548  1.8090  0.5729
 6588TIP3   OH241322   5.898   0.661   7.905 -0.0370 -0.7921  0.5109
 6588TIP3    H141323   5.860   0.635   7.821 -0.4759 -0.9897  0.7660
 6588TIP3    H241324   5.831   0.718   7.944 -0.4546 -1.8331  1.3424
 6589TIP3   OH241325   4.230   4.764   8.045  0.0128 -0.0529 -0.0590
 6589TIP3    H141326   4.163   4.695   8.038 -0.0743  0.0327 -0.0731
 6589TIP3    H241327   4.307   4.719   8.079  0.3012 -0.3901 -1.1113
 6590TIP3   OH241328   0.433   5.463   1.314  0.3364  0.1711 -0.2629
 6590TIP3    H141329   0.368   5.399   1.343  1.2667 -1.4925 -1.6224
 6590TIP3    H241330   0.506   5.453   1.376  1.1825 -1.4062 -1.4102
 6591TIP3   OH241331   3.754   1.103   7.791 -0.2212 -0.2718  0.4104
 6591TIP3    H141332   3.730   1.126   7.702 -2.9583 -0.5385  0.9798
 6591TIP3    H241333   3.715   1.172   7.845  3.6005  1.4120  1.3809
 6592TIP3   OH241334   3.423   0.577   1.356 -0.2483  0.5663 -0.0535
 6592TIP3    H141335   3.506   0.584   1.404 -1.3012  0.1051  1.9194
 6592TIP3    H241336   3.450   0.570   1.264  1.9374 -0.2811  0.5705
 6593TIP3   OH241337   6.359   3.332   8.076  0.4243  0.0363  0.1221
 6593TIP3    H141338   6.291   3.386   8.116  1.5875  1.2836  0.4995
 6593TIP3    H241339   6.350   3.247   8.118 -1.1014  0.0663 -0.0802
 6594TIP3   OH241340   5.732   5.186   6.986  0.0442  0.3009 -0.1770
 6594TIP3    H141341   5.820   5.176   7.023  0.1426  0.9123 -0.2354
 6594TIP3    H241342   5.744   5.176   6.892 -0.5691 -3.8657 -0.0002
 6595TIP3   OH241343   5.689   1.640   1.337  0.9649  0.1130  0.4612
 6595TIP3    H141344   5.752   1.568   1.344  0.7236 -0.1187  0.3048
 6595TIP3    H241345   5.643   1.640   1.421 -1.2003 -1.9752 -0.5784
 6596TIP3   OH241346   6.388   2.097   7.827  0.0591 -0.1540  1.3287
 6596TIP3    H141347   6.343   2.140   7.901 -0.8738 -0.0679  0.7284
 6596TIP3    H241348   6.321   2.090   7.760  0.7097 -0.8957  0.7459
 6597TIP3   OH241349   4.449   6.165   2.222 -0.4191  0.4904  0.2030
 6597TIP3    H141350   4.447   6.111   2.301 -1.8410  0.8806  0.4518
 6597TIP3    H241351   4.477   6.104   2.153 -0.4702 -0.1791  0.7577
 6598TIP3   OH241352   5.175   3.097   8.807 -0.3352  0.0031 -0.2704
 6598TIP3    H141353   5.123   3.132   8.735 -1.3702 -0.6674  0.1303
 6598TIP3    H241354   5.155   3.004   8.809  2.3137 -0.6742 -1.2651
 6599TIP3   OH241355   0.346   1.962   7.103 -0.3646  0.0044 -0.4048
 6599TIP3    H141356   0.418   1.918   7.059 -0.1238 -1.1745  1.0801
 6599TIP3    H241357   0.271   1.903   7.092 -0.8440  0.6881 -0.9689
 6600TIP3   OH241358   5.249   1.684   0.081 -0.1406  0.6823 -0.8819
 6600TIP3    H141359   5.171   1.732   0.112 -0.0247  1.4660 -1.7405
 6600TIP3    H241360   5.215   1.622   0.017 -0.0477  1.1087 -1.3460
 6601TIP3   OH241361   3.006   4.226   7.989 -0.4242  0.7851  0.2668
 6601TIP3    H141362   2.924   4.219   8.039 -0.3939  1.1788  0.3761
 6601TIP3    H241363   3.066   4.165   8.033 -1.0362 -0.4910 -0.5975
 6602TIP3   OH241364   4.281   5.876   0.102  0.2870  0.3338 -0.1708
 6602TIP3    H141365   4.237   5.950   0.144 -0.6272  1.2584 -2.6029
 6602TIP3    H241366   4.216   5.806   0.102  0.3631  0.2617  0.1260
 6603TIP3   OH241367   6.016   2.354   2.577 -0.0976  0.8416 -0.1489
 6603TIP3    H141368   6.101   2.352   2.533 -0.7688  0.2723 -1.4802
 6603TIP3    H241369   6.002   2.447   2.597  0.0033  1.1990 -1.6250
 6604TIP3   OH241370   3.591   2.472   1.395  0.3202  0.0689 -0.0150
 6604TIP3    H141371   3.539   2.393   1.410  0.5016 -0.6440 -2.6638
 6604TIP3    H241372   3.528   2.537   1.364  0.2026  0.9848  1.9849
 6605TIP3   OH241373   4.553   1.464   0.850  0.7794 -0.2250  0.3222
 6605TIP3    H141374   4.558   1.527   0.778 -1.3448 -0.3385 -0.0029
 6605TIP3    H241375   4.542   1.379   0.807  1.4259 -0.5400  0.7728
 6606TIP3   OH241376   5.027   5.963   6.843 -0.1241  0.0652 -0.2064
 6606TIP3    H141377   4.953   5.909   6.816 -0.8161  1.4552 -1.1549
 6606TIP3    H241378   5.102   5.926   6.796 -0.4271 -0.5737 -0.2013
 6607TIP3   OH241379   6.462   2.624   7.948  0.8647 -0.0136 -0.6443
 6607TIP3    H141380   6.547   2.614   7.991  1.7115  1.0152 -2.0198
 6607TIP3    H241381   6.479   2.679   7.872 -1.0343  0.1644 -0.9942
 6608TIP3   OH241382   3.518   5.288   7.679 -0.1089  0.4244  0.1408
 6608TIP3    H141383   3.504   5.288   7.585 -2.9124  1.8624  0.4588
 6608TIP3    H241384   3.446   5.237   7.715 -0.8769  2.4008  1.6359
 6609TIP3   OH241385   3.473   5.470   0.138 -0.0297  0.1010  0.2289
 6609TIP3    H141386   3.426   5.550   0.160 -0.3439  0.4523 -1.5894
 6609TIP3    H241387   3.431   5.402   0.190  0.0948  1.0562  1.6266
 6610TIP3   OH241388   5.406   3.441   7.539 -0.1401  0.0082  0.3126
 6610TIP3    H141389   5.392   3.368   7.600 -1.0174  0.1979  0.3458
 6610TIP3    H241390   5.354   3.418   7.462 -1.3925  1.1504  0.7810
 6611TIP3   OH241391   0.873   6.263   8.237  0.3107  0.0339 -0.3993
 6611TIP3    H141392   0.934   6.238   8.167 -0.1939 -0.9151 -0.5120
 6611TIP3    H241393   0.792   6.286   8.191  0.6385  1.5267 -0.2674
 6612TIP3   OH241394   1.551   5.749   2.585 -0.2202 -0.2145  0.0044
 6612TIP3    H141395   1.611   5.788   2.522 -1.3193 -1.8381 -2.2046
 6612TIP3    H241396   1.573   5.790   2.668  1.1718  2.2123 -1.4487
 6613TIP3   OH241397   5.439   6.690   7.913 -0.5170 -0.3336 -0.0020
 6613TIP3    H141398   5.531   6.670   7.895 -0.4959  0.2534 -0.5767
 6613TIP3    H241399   5.440   6.732   7.998 -0.1109  0.6888 -0.4951
 6614TIP3   OH241400   4.925   2.683   7.207 -0.4598 -0.4217 -0.0040
 6614TIP3    H141401   4.933   2.718   7.296  2.3871 -1.6132  0.3185
 6614TIP3    H241402   4.872   2.605   7.217 -1.8368  0.5212  0.2754
 6615TIP3   OH241403   4.682   5.642   8.518 -0.0098 -0.4978  0.0499
 6615TIP3    H141404   4.644   5.587   8.587 -0.2303  0.0780  0.3897
 6615TIP3    H241405   4.723   5.579   8.458  0.7343 -0.9662  1.0248
 6616TIP3   OH241406   3.895   1.767   0.918 -0.0936 -0.7111 -0.0941
 6616TIP3    H141407   3.894   1.719   1.001 -1.1017 -3.5670 -1.6241
 6616TIP3    H241408   3.971   1.733   0.871  0.1395  0.4579 -0.5991
 6617TIP3   OH241409   3.801   1.952   7.181 -0.0377  0.0961  0.0919
 6617TIP3    H141410   3.726   1.980   7.130  0.8578  2.3506 -0.1236
 6617TIP3    H241411   3.781   1.980   7.271  0.6697  1.1235 -0.0423
 6618TIP3   OH241412   3.726   5.414   0.450  0.4900 -0.9495 -0.1052
 6618TIP3    H141413   3.732   5.437   0.358  2.7659 -0.2133  0.1646
 6618TIP3    H241414   3.801   5.457   0.491 -1.6579  0.6809  2.5145
 6619TIP3   OH241415   4.980   4.747   0.129 -0.2654 -0.1838 -0.1368
 6619TIP3    H141416   4.984   4.841   0.149 -0.9061 -0.3230  0.6936
 6619TIP3    H241417   4.907   4.714   0.182 -0.0087 -1.1652 -0.3729
 6620TIP3   OH241418   1.242   1.279   0.624 -0.2620  1.3142  0.1955
 6620TIP3    H141419   1.174   1.339   0.595  0.6654  1.6619 -1.4388
 6620TIP3    H241420   1.291   1.259   0.544  0.0051 -0.9241  0.8530
 6621TIP3   OH241421   6.593   4.700   1.578 -0.2510  0.3904  0.1297
 6621TIP3    H141422   6.647   4.624   1.600  0.1127  0.3196 -0.9496
 6621TIP3    H241423   6.586   4.749   1.659 -2.6175 -2.0655  1.5856
 6622TIP3   OH241424   6.224   4.204   0.550 -0.3304 -0.1624 -0.2520
 6622TIP3    H141425   6.244   4.247   0.467 -0.2228 -1.0943 -0.7169
 6622TIP3    H241426   6.207   4.276   0.610 -0.0287  0.5360 -0.9823
 6623TIP3   OH241427   3.599   5.997   7.437  0.4916  0.5411 -0.3482
 6623TIP3    H141428   3.654   6.073   7.416  0.2835  0.2777 -2.0013
 6623TIP3    H241429   3.563   5.970   7.353 -0.5130 -0.5792  0.4122
 6624TIP3   OH241430   2.318   5.342   8.151 -0.5432 -0.6256 -0.6893
 6624TIP3    H141431   2.406   5.368   8.124 -0.6885  1.9385  0.9806
 6624TIP3    H241432   2.333   5.280   8.223 -0.1038 -0.2192 -0.4304
 6625TIP3   OH241433   1.073   5.475   8.416  0.1000 -0.3516 -0.3273
 6625TIP3    H141434   1.021   5.543   8.373 -2.4240 -1.2981  1.0166
 6625TIP3    H241435   1.127   5.522   8.479 -0.5450  0.5284 -0.4085
 6626TIP3   OH241436   5.212   4.548   2.268  0.5024 -0.6209 -0.0896
 6626TIP3    H141437   5.215   4.568   2.175 -0.7259 -0.7214 -0.1603
 6626TIP3    H241438   5.211   4.453   2.273  1.0131 -0.6239  0.0518
 6627TIP3   OH241439   5.876   1.787   7.955 -0.2858 -0.5051  0.1121
 6627TIP3    H141440   5.822   1.866   7.949 -0.8802 -0.9560 -0.5742
 6627TIP3    H241441   5.822   1.725   8.004 -0.2626 -0.8530 -0.2992
 6628TIP3   OH241442   1.625   3.683   1.663 -0.2542 -0.0588  0.2892
 6628TIP3    H141443   1.539   3.657   1.695 -0.6655  0.2369 -0.5489
 6628TIP3    H241444   1.661   3.603   1.623  0.2399 -0.4149  1.4233
 6629TIP3   OH241445   4.634   3.725   0.602 -0.1481 -0.4840 -0.3714
 6629TIP3    H141446   4.542   3.697   0.598 -0.6499  0.7283  1.5054
 6629TIP3    H241447   4.683   3.649   0.572 -1.7208 -1.4064 -0.7467
 6630TIP3   OH241448   3.409   2.160   2.499  0.2153  0.0953 -0.6071
 6630TIP3    H141449   3.391   2.243   2.542 -0.6779 -0.1904 -0.4041
 6630TIP3    H241450   3.341   2.101   2.531  1.2152 -0.8970 -0.2444
 6631TIP3   OH241451   3.047   5.483   8.643  0.1989  0.6560  0.0742
 6631TIP3    H141452   2.960   5.478   8.684  0.1579 -0.3744 -0.1075
 6631TIP3    H241453   3.108   5.476   8.716  0.1451  1.6003  0.2256
 6632TIP3   OH241454   2.575   5.011   6.808 -0.3005 -0.4136 -0.1995
 6632TIP3    H141455   2.655   5.034   6.760  0.0491  0.9956  0.9668
 6632TIP3    H241456   2.508   5.068   6.773 -0.6441 -1.1020 -0.6851
 6633TIP3   OH241457   3.836   5.526   7.993 -0.2711  0.4211  0.0221
 6633TIP3    H141458   3.878   5.513   7.909  0.4913 -1.3411  0.6375
 6633TIP3    H241459   3.903   5.569   8.047 -1.2033  2.8424 -0.5946
 6634TIP3   OH241460   2.554   2.128   8.704  0.0471 -0.4711  0.1262
 6634TIP3    H141461   2.628   2.121   8.644  1.2913 -0.0103  1.5442
 6634TIP3    H241462   2.575   2.068   8.776 -0.3022  0.6165  1.1713
 6635TIP3   OH241463   0.435   3.943   8.249  0.1772  0.0011  0.4848
 6635TIP3    H141464   0.457   3.896   8.329 -0.1931  0.4990  0.8842
 6635TIP3    H241465   0.423   3.874   8.184  1.1114 -0.3769  0.6914
 6636TIP3   OH241466   3.478   2.226   2.213 -0.1119 -0.1013 -0.2962
 6636TIP3    H141467   3.546   2.285   2.243 -1.3565  1.0840  0.2900
 6636TIP3    H241468   3.455   2.173   2.290 -1.8746  1.5388  0.3805
 6637TIP3   OH241469   2.901   5.815   2.065 -0.3138 -0.0082 -0.1575
 6637TIP3    H141470   2.928   5.885   2.124 -2.0432 -0.0564  0.7791
 6637TIP3    H241471   2.892   5.858   1.979 -4.2326  1.8093  0.9254
 6638TIP3   OH241472   5.278   3.989   8.631 -0.0864 -1.2743  0.7637
 6638TIP3    H141473   5.355   4.046   8.633  0.5453 -1.9358 -1.5301
 6638TIP3    H241474   5.308   3.910   8.585 -2.2929 -1.2632 -0.8226
 6639TIP3   OH241475   3.279   1.566   1.475  0.2244 -0.1910  0.1299
 6639TIP3    H141476   3.348   1.618   1.516  0.0968  0.2463 -0.2101
 6639TIP3    H241477   3.320   1.529   1.397  0.4341 -0.9362  0.5818
 6640TIP3   OH241478   5.844   5.306   1.201  0.0207 -0.0272 -0.1675
 6640TIP3    H141479   5.903   5.260   1.261 -1.1635 -1.8070 -0.3009
 6640TIP3    H241480   5.757   5.272   1.222 -0.6284  0.5493 -1.7873
 6641TIP3   OH241481   6.585   6.385   7.996 -0.2676  0.2706 -0.3083
 6641TIP3    H141482   6.650   6.407   7.928 -1.2851  0.3434 -1.2879
 6641TIP3    H241483   6.628   6.319   8.049  0.6347  0.3435 -0.9126
 6642TIP3   OH241484   5.939   4.870   8.530  0.0610  0.2461 -0.4002
 6642TIP3    H141485   6.029   4.837   8.523  0.7240  1.9655 -0.5227
 6642TIP3    H241486   5.893   4.804   8.581  0.8725 -1.6458 -1.9615
 6643TIP3   OH241487   6.124   1.193   8.178  0.0652  0.4727  0.5803
 6643TIP3    H141488   6.035   1.217   8.203  0.4010  1.3002  1.0221
 6643TIP3    H241489   6.113   1.118   8.119 -0.8587 -0.1472  1.5032
 6644TIP3   OH241490   2.379   3.761   0.660  0.1250 -0.1288 -0.1428
 6644TIP3    H141491   2.286   3.781   0.668  0.2763  0.8408 -0.6670
 6644TIP3    H241492   2.417   3.789   0.744 -0.2891 -2.1057  0.7634
 6645TIP3   OH241493   0.253   2.021   1.583  0.5322  0.2338  0.0179
 6645TIP3    H141494   0.200   1.960   1.635 -0.4217  1.9775  1.1735
 6645TIP3    H241495   0.189   2.071   1.532  0.8962  2.8998  1.9947
 6646TIP3   OH241496   3.569   5.559   2.060  0.3642  0.0690  0.3288
 6646TIP3    H141497   3.558   5.597   1.972  0.0775 -0.3825  0.1702
 6646TIP3    H241498   3.658   5.585   2.085  1.3360 -1.7365 -1.0540
 6647TIP3   OH241499   1.805   4.847   0.717  0.4887 -0.4513 -0.5935
 6647TIP3    H141500   1.743   4.917   0.735  0.8281 -0.1680 -0.5238
 6647TIP3    H241501   1.753   4.767   0.721  0.3220 -0.3054  0.4787
 6648TIP3   OH241502   2.328   4.190   7.553 -0.0382  0.6143  0.4101
 6648TIP3    H141503   2.368   4.134   7.487 -1.0000 -0.3961  0.6627
 6648TIP3    H241504   2.357   4.154   7.637  1.6633  2.2439  0.5973
 6649TIP3   OH241505   4.002   4.369   8.144 -0.0602  0.0448 -0.7851
 6649TIP3    H141506   4.018   4.435   8.076  0.4513  0.1761 -0.5463
 6649TIP3    H241507   4.023   4.414   8.226  1.2935 -0.7034 -0.6866
 6650TIP3   OH241508   0.649   0.339   1.579  0.4005 -0.0811 -0.1385
 6650TIP3    H141509   0.701   0.300   1.509 -1.8285 -1.7929 -0.9502
 6650TIP3    H241510   0.559   0.331   1.550 -0.4547  1.6324  1.7582
 6651TIP3   OH241511   5.634   5.209   1.352  0.0991 -0.0366 -0.7712
 6651TIP3    H141512   5.630   5.264   1.430  0.1319  1.6438 -1.8884
 6651TIP3    H241513   5.572   5.138   1.368 -0.4051  0.6637  0.4901
 6652TIP3   OH241514   5.726   3.730   7.556  0.1806 -0.2742 -0.4685
 6652TIP3    H141515   5.793   3.662   7.546  0.7463  0.3929 -1.2447
 6652TIP3    H241516   5.730   3.753   7.649  0.6239 -0.6396 -0.3905
 6653TIP3   OH241517   6.585   0.093   7.333  0.4723  0.2930  0.2281
 6653TIP3    H141518   6.624   0.037   7.266  1.2026 -0.1648  1.0232
 6653TIP3    H241519   6.495   0.106   7.303 -0.3539 -2.9011  0.9719
 6654TIP3   OH241520   0.953   2.763   6.958 -0.0796 -0.5982  0.1703
 6654TIP3    H141521   0.920   2.811   6.882 -0.9686 -1.0807  0.2494
 6654TIP3    H241522   1.041   2.736   6.933 -0.2425 -0.4662 -0.5535
 6655TIP3   OH241523   3.425   0.318   7.074 -0.0254 -0.4398  0.3724
 6655TIP3    H141524   3.515   0.329   7.105  0.4111 -1.1166 -0.5942
 6655TIP3    H241525   3.414   0.387   7.009 -0.1073 -0.5283  0.2918
 6656TIP3   OH241526   2.670   6.165   8.907  0.1152 -0.3328 -0.2655
 6656TIP3    H141527   2.611   6.128   8.973 -0.2121  0.1960 -0.2496
 6656TIP3    H241528   2.755   6.126   8.925 -0.1548 -0.8463 -0.0700
 6657TIP3   OH241529   5.286   3.298   7.355 -1.0233  0.2097  0.9040
 6657TIP3    H141530   5.302   3.326   7.265 -1.9910  0.3301  0.7665
 6657TIP3    H241531   5.191   3.293   7.363 -0.9373 -0.2080  1.7972
 6658TIP3   OH241532   1.162   3.396   6.715  0.4562 -0.7097 -0.1472
 6658TIP3    H141533   1.195   3.314   6.679  4.0525  0.8733 -0.8412
 6658TIP3    H241534   1.235   3.432   6.765 -2.0604  0.5997  2.9822
 6659TIP3   OH241535   1.443   3.288   8.714 -0.4822 -0.1084  0.5976
 6659TIP3    H141536   1.429   3.279   8.809 -1.3101 -1.5198  0.3629
 6659TIP3    H241537   1.377   3.351   8.686 -1.2594 -0.8544  0.7285
 6660TIP3   OH241538   1.524   1.549   8.156  0.0599 -0.1535  0.0609
 6660TIP3    H141539   1.567   1.625   8.194 -0.1981  0.0309 -0.0171
 6660TIP3    H241540   1.463   1.585   8.092 -0.6097 -0.3884  0.5555
 6661TIP3   OH241541   3.579   4.999   1.060 -0.0205  0.0954  0.1371
 6661TIP3    H141542   3.628   4.943   1.120  2.0046  0.1350 -1.3835
 6661TIP3    H241543   3.632   5.079   1.053 -1.6883  1.2964  0.4773
 6662TIP3   OH241544   0.989   1.670   7.921 -0.2672 -0.9529  0.2919
 6662TIP3    H141545   1.043   1.690   7.845 -0.8710  0.9652  0.3164
 6662TIP3    H241546   0.934   1.596   7.892 -0.0271 -0.6832 -0.8953
 6663TIP3   OH241547   5.947   1.933   0.332  0.0943  0.3800 -0.2517
 6663TIP3    H141548   5.971   2.019   0.366 -1.7605  1.1116 -0.6117
 6663TIP3    H241549   5.937   1.878   0.409 -1.2562  1.2335  0.2244
 6664TIP3   OH241550   5.158   5.047   8.233 -0.6585  0.0740  0.0870
 6664TIP3    H141551   5.128   5.058   8.143 -0.3077 -0.0640 -0.0479
 6664TIP3    H241552   5.252   5.029   8.225 -0.6663 -0.1460  0.4685
 6665TIP3   OH241553   0.828   0.105   8.190 -0.2755  0.8408 -0.4985
 6665TIP3    H141554   0.831   0.173   8.257  2.2808  2.4610 -2.0925
 6665TIP3    H241555   0.833   0.152   8.107  0.0444 -1.2199 -1.7145
 6666TIP3   OH241556   2.058   3.834   1.680 -0.9716 -0.3562  0.0281
 6666TIP3    H141557   1.976   3.844   1.633 -1.2204 -1.9211  0.0875
 6666TIP3    H241558   2.052   3.748   1.721  0.1951  0.0117  1.0342
 6667TIP3   OH241559   0.636   2.864   2.586  0.3950 -0.3879  0.6616
 6667TIP3    H141560   0.689   2.939   2.558 -0.3322 -0.3053 -0.5739
 6667TIP3    H241561   0.570   2.902   2.644 -0.0657 -0.0409 -0.0818
 6668TIP3   OH241562   5.703   3.640   8.692 -0.3746 -0.0230 -0.1662
 6668TIP3    H141563   5.720   3.661   8.784  0.0702  1.3166 -0.5245
 6668TIP3    H241564   5.609   3.628   8.687 -0.6941  1.9287  0.1308
 6669TIP3   OH241565   6.454   2.300   0.400  0.3698  0.3430  0.1670
 6669TIP3    H141566   6.539   2.308   0.357  0.2628 -0.3521 -0.1813
 6669TIP3    H241567   6.474   2.300   0.493  0.6868  0.9158  0.1034
 6670TIP3   OH241568   4.689   2.805   1.826 -0.1311 -0.0041  0.3428
 6670TIP3    H141569   4.746   2.737   1.862 -1.0730 -0.9711  0.0520
 6670TIP3    H241570   4.654   2.849   1.903  0.8367  0.4713  0.5274
 6671TIP3   OH241571   6.069   2.146   0.648  0.5450  0.0588 -0.0401
 6671TIP3    H141572   6.133   2.177   0.712  0.5170  0.2148 -0.0871
 6671TIP3    H241573   6.080   2.051   0.647  0.3930  0.0319  0.3631
 6672TIP3   OH241574   2.342   2.439   7.475  0.8747 -0.1697  0.3597
 6672TIP3    H141575   2.380   2.510   7.423  0.5700  0.1456  0.5675
 6672TIP3    H241576   2.357   2.465   7.566 -0.5676  0.3834  0.4735
 6673TIP3   OH241577   0.598   4.578   0.656  0.1162 -0.2408 -0.7413
 6673TIP3    H141578   0.504   4.567   0.666  0.2502  0.6082  2.2319
 6673TIP3    H241579   0.608   4.636   0.580 -1.7480  0.1155 -0.7507
 6674TIP3   OH241580   2.416   0.529   1.647 -0.4897 -0.4401  0.1164
 6674TIP3    H141581   2.321   0.540   1.654 -0.4774 -0.9703  1.6423
 6674TIP3    H241582   2.434   0.531   1.553 -2.3485 -2.9329 -0.4101
 6675TIP3   OH241583   5.805   5.045   7.931  0.1741  0.0279  0.7336
 6675TIP3    H141584   5.762   5.119   7.973 -4.3503 -1.6107 -0.4194
 6675TIP3    H241585   5.836   5.079   7.847  0.2491  1.0606  1.1700
 6676TIP3   OH241586   2.543   3.090   0.291 -0.1839 -0.1185 -0.8522
 6676TIP3    H141587   2.603   3.134   0.230 -1.0971  0.4596 -1.3542
 6676TIP3    H241588   2.478   3.048   0.234 -0.4886 -0.4034 -0.2998
 6677TIP3   OH241589   1.653   4.847   8.875 -0.4623  0.1129  0.1641
 6677TIP3    H141590   1.726   4.833   8.935 -1.8298 -0.2854  1.8473
 6677TIP3    H241591   1.649   4.768   8.822 -0.7390 -0.6628  1.2992
 6678TIP3   OH241592   1.016   1.424   0.577  0.3583  0.5146  0.3439
 6678TIP3    H141593   0.988   1.441   0.667 -0.7402  2.1129 -0.2564
 6678TIP3    H241594   0.962   1.482   0.523 -1.6154 -2.9056 -1.7332
 6679TIP3   OH241595   5.450   5.577   8.470  0.3103  1.1202  0.0929
 6679TIP3    H141596   5.473   5.601   8.380  0.0430 -0.6940 -0.4933
 6679TIP3    H241597   5.509   5.506   8.492 -1.9717 -0.9353 -0.0116
 6680TIP3   OH241598   0.418   5.669   7.115  0.3257 -0.0502 -0.1193
 6680TIP3    H141599   0.362   5.736   7.075 -0.1529 -0.3041  0.1185
 6680TIP3    H241600   0.373   5.645   7.196  0.1957 -1.0647 -0.4718
 6681TIP3   OH241601   3.875   1.141   8.880  0.1669 -0.0065 -0.1844
 6681TIP3    H141602   3.922   1.064   8.849 -0.2084  0.1017 -1.0779
 6681TIP3    H241603   3.895   1.147   8.973 -1.6020 -2.5048  0.4366
 6682TIP3   OH241604   6.644   2.226   1.984  0.0772 -0.3151  0.1234
 6682TIP3    H141605   6.663   2.256   2.073 -1.4526  0.3191  0.2745
 6682TIP3    H241606   6.708   2.272   1.930 -0.2027  0.8189  0.7043
 6683TIP3   OH241607   1.164   0.022   1.176  0.0149 -0.6401  0.7399
 6683TIP3    H141608   1.195  -0.055   1.224  0.8578 -1.0647 -0.4451
 6683TIP3    H241609   1.093  -0.011   1.122  0.2473 -0.5513  0.3778
 6684TIP3   OH241610   4.414   1.206   7.664 -0.1923 -0.3552 -0.0704
 6684TIP3    H141611   4.503   1.241   7.661  0.1903 -0.9625  2.1378
 6684TIP3    H241612   4.416   1.132   7.603  0.7757 -0.2776 -0.1610
 6685TIP3   OH241613   2.223   0.829   0.583  0.2127 -0.0373 -0.0971
 6685TIP3    H141614   2.242   0.761   0.648 -1.8003 -1.8302 -1.2584
 6685TIP3    H241615   2.300   0.828   0.525 -0.2728 -2.2960 -0.8151
 6686TIP3   OH241616   5.534   2.628   7.592  0.0142  0.3157 -0.0517
 6686TIP3    H141617   5.483   2.657   7.667  0.5717 -0.3359  0.5907
 6686TIP3    H241618   5.522   2.697   7.526 -0.6787  0.7644  0.5418
 6687TIP3   OH241619   0.527   2.877   7.164  0.2292 -0.2085 -0.1403
 6687TIP3    H141620   0.556   2.788   7.147 -0.7247 -0.9282  1.6806
 6687TIP3    H241621   0.443   2.884   7.118 -0.9421 -1.1705  1.7164
 6688TIP3   OH241622   1.625   1.017   7.277 -0.2211  0.5556 -0.5263
 6688TIP3    H141623   1.645   0.946   7.217 -0.5936 -0.4403  0.4905
 6688TIP3    H241624   1.593   1.088   7.221 -0.3471 -0.2542 -1.5111
 6689TIP3   OH241625   1.870   0.286   7.284 -0.2317 -0.0932 -0.4851
 6689TIP3    H141626   1.830   0.200   7.298 -2.2689  0.7407 -0.8863
 6689TIP3    H241627   1.948   0.284   7.339 -0.1230 -2.2510 -0.6028
 6690TIP3   OH241628   1.772   6.021   7.133 -0.1321 -0.0181 -0.2978
 6690TIP3    H141629   1.863   6.045   7.152 -0.2091 -0.0613  0.1239
 6690TIP3    H241630   1.769   5.926   7.146 -0.4027  0.0775  0.3617
 6691TIP3   OH241631   6.122   0.720   0.245  0.6533  0.9328  0.4515
 6691TIP3    H141632   6.107   0.802   0.292 -0.8417  0.6215  0.5657
 6691TIP3    H241633   6.034   0.683   0.232  1.3383 -1.0997  1.2051
 6692TIP3   OH241634   4.447   5.160   7.558  0.3676 -0.0532  0.2070
 6692TIP3    H141635   4.367   5.108   7.549  0.6550 -0.2530 -1.8400
 6692TIP3    H241636   4.511   5.099   7.595 -0.2568 -0.0574  1.3174
 6693TIP3   OH241637   3.165   0.001   8.170  0.3676  0.3510 -0.1558
 6693TIP3    H141638   3.113  -0.037   8.099  1.0173  1.0491 -1.0117
 6693TIP3    H241639   3.166   0.095   8.152  1.6962  0.3820 -0.0060
 6694TIP3   OH241640   2.662   6.241   1.528 -0.0247 -0.3662  0.6152
 6694TIP3    H141641   2.633   6.322   1.486  0.3635 -1.0247 -1.0123
 6694TIP3    H241642   2.585   6.184   1.527 -0.6263  0.3132  2.7765
 6695TIP3   OH241643   2.959   2.235   0.432  0.0632  0.4554 -0.4857
 6695TIP3    H141644   3.013   2.171   0.479  1.4410 -0.1381 -2.7265
 6695TIP3    H241645   2.916   2.184   0.363 -1.4240  1.3941 -0.2945
 6696TIP3   OH241646   3.393   2.091   7.659  0.0665  0.7285 -0.1929
 6696TIP3    H141647   3.426   2.030   7.725  0.7797 -0.5314 -1.6359
 6696TIP3    H241648   3.303   2.110   7.687  0.3962  0.3508  1.2026
 6697TIP3   OH241649   2.820   1.775   0.153  0.0511 -0.3696 -0.1760
 6697TIP3    H141650   2.851   1.704   0.210  0.7038  1.9288  2.5330
 6697TIP3    H241651   2.724   1.769   0.157  0.0881 -0.4859  0.9128
 6698TIP3   OH241652   2.052   3.744   6.904 -0.2990 -0.0852  0.5890
 6698TIP3    H141653   1.974   3.787   6.937 -0.4342  0.2026 -0.0791
 6698TIP3    H241654   2.020   3.687   6.834  0.2641  1.3242 -0.8669
 6699TIP3   OH241655   4.746   2.371   2.242 -0.0313 -0.3359  0.1946
 6699TIP3    H141656   4.766   2.295   2.186 -0.6137  0.0553 -0.5753
 6699TIP3    H241657   4.824   2.384   2.294  0.6237 -0.5773 -0.7045
 6700TIP3   OH241658   3.483   1.379   2.559  0.5937 -0.1988 -0.3894
 6700TIP3    H141659   3.568   1.346   2.532 -0.4134 -1.8937 -1.6707
 6700TIP3    H241660   3.433   1.301   2.582 -0.9430  0.6543 -0.6901
 6701TIP3   OH241661   3.236   2.455   1.714 -0.4967  0.1488 -0.5868
 6701TIP3    H141662   3.245   2.417   1.801 -0.7008 -1.7785 -1.3599
 6701TIP3    H241663   3.280   2.540   1.720  2.3653 -1.3107  0.5268
 6702TIP3   OH241664   6.203   6.574   7.950 -0.4828  0.2961  0.3830
 6702TIP3    H141665   6.238   6.605   8.034  0.8815 -0.4401  0.1154
 6702TIP3    H241666   6.280   6.566   7.894 -1.2196 -0.4703 -0.5430
 6703TIP3   OH241667   5.533   3.857   2.424  0.2409 -0.1239  0.1140
 6703TIP3    H141668   5.592   3.933   2.427  0.3647 -0.2282  0.4141
 6703TIP3    H241669   5.466   3.876   2.490 -0.2454  0.1408 -0.4525
 6704TIP3   OH241670   5.197   4.298   8.035  0.0588 -0.3735 -0.5084
 6704TIP3    H141671   5.146   4.219   8.047  1.3960 -1.3087 -0.7638
 6704TIP3    H241672   5.205   4.336   8.123  0.0352 -0.9235 -0.2666
 6705TIP3   OH241673   4.462   3.061   6.605 -0.0039  0.2457 -0.4275
 6705TIP3    H141674   4.522   3.112   6.551 -0.0161  0.4546 -0.2430
 6705TIP3    H241675   4.432   2.990   6.548  0.4015  0.1521 -0.5301
 6706TIP3   OH241676   3.018   5.217   1.373  0.6123  0.2506  0.0124
 6706TIP3    H141677   3.036   5.127   1.402 -0.2430  0.3286  0.8346
 6706TIP3    H241678   3.104   5.254   1.356  1.0173 -0.5149  0.3160
 6707TIP3   OH241679   3.581   2.018   2.062 -0.1468 -0.0267 -0.6575
 6707TIP3    H141680   3.537   2.083   2.118  0.7168  0.6857 -0.7874
 6707TIP3    H241681   3.628   1.961   2.123 -2.3328 -1.6990 -0.3971
 6708TIP3   OH241682   3.268   4.872   1.947 -0.1530 -0.1166  0.4044
 6708TIP3    H141683   3.266   4.967   1.957 -1.3612  0.1475 -1.7415
 6708TIP3    H241684   3.185   4.842   1.985 -0.1411 -0.2151  0.3530
 6709TIP3   OH241685   0.121   4.698   7.081  0.5524  0.2632  0.6241
 6709TIP3    H141686   0.178   4.678   7.007  0.3881  2.4932 -0.1782
 6709TIP3    H241687   0.166   4.767   7.130 -0.5165  0.6410  1.1236
 6710TIP3   OH241688   0.617   1.780   0.671  0.8136 -0.2330  0.8131
 6710TIP3    H141689   0.627   1.700   0.721 -4.0503 -1.0720  0.9619
 6710TIP3    H241690   0.601   1.751   0.581 -1.0554  0.4336  0.8729
 6711TIP3   OH241691   3.347   4.507   1.943  0.7593  0.1130 -0.2702
 6711TIP3    H141692   3.379   4.466   2.023  1.3187  2.3698  0.7414
 6711TIP3    H241693   3.301   4.437   1.897 -1.0190 -0.8982  2.7896
 6712TIP3   OH241694   3.531   1.808   8.125  0.6246  0.0312 -0.5454
 6712TIP3    H141695   3.616   1.852   8.121  0.2497  0.8004 -0.2540
 6712TIP3    H241696   3.544   1.736   8.187  1.1153  0.0259 -0.6505
 6713TIP3   OH241697   2.333   3.382   7.540  0.2553 -0.4113  0.1358
 6713TIP3    H141698   2.388   3.406   7.466  1.1236 -1.3684  0.4396
 6713TIP3    H241699   2.394   3.377   7.614 -0.4250 -0.4421  0.7055
 6714TIP3   OH241700   0.099   2.623   0.831  0.6533 -0.3027 -0.5212
 6714TIP3    H141701   0.066   2.684   0.897 -0.4134 -1.7704  0.3633
 6714TIP3    H241702   0.193   2.640   0.827  0.4155  1.2285 -0.1399
 6715TIP3   OH241703   6.054   6.394   8.315 -0.4371  0.4662  0.0093
 6715TIP3    H141704   6.065   6.309   8.271  1.6348  1.8132 -2.3269
 6715TIP3    H241705   6.112   6.389   8.391  0.2597  0.0470 -0.5407
 6716TIP3   OH241706   1.277   5.388   1.914  0.1002 -0.5285 -0.1088
 6716TIP3    H141707   1.257   5.398   2.007  1.2948 -0.0568  0.1116
 6716TIP3    H241708   1.222   5.315   1.885  0.6936 -1.5570  1.2806
 6717TIP3   OH241709   5.496   3.726   1.141  0.3370 -0.8966 -0.0358
 6717TIP3    H141710   5.497   3.691   1.230 -0.0195  0.1665  0.4060
 6717TIP3    H241711   5.415   3.776   1.136  0.5204 -0.6744 -0.8512
 6718TIP3   OH241712   2.262   2.127   1.178  0.5425  0.5760  0.0408
 6718TIP3    H141713   2.282   2.033   1.180  0.7677  0.6119 -0.4186
 6718TIP3    H241714   2.174   2.133   1.214  0.6686  0.2247  0.4134
 6719TIP3   OH241715   2.886   2.504   0.528  0.1037 -0.1697  0.5440
 6719TIP3    H141716   2.794   2.497   0.555  0.1609  0.6318  0.9848
 6719TIP3    H241717   2.919   2.415   0.533 -0.5947 -0.4376  0.5848
 6720TIP3   OH241718   3.374   6.455   1.867 -0.4283  1.0457 -0.0859
 6720TIP3    H141719   3.311   6.507   1.816 -0.9396  1.6624  1.1404
 6720TIP3    H241720   3.326   6.429   1.945 -0.0289 -0.8970 -0.4343
 6721TIP3   OH241721   2.000   1.373   1.447 -0.5170  0.2855  0.0509
 6721TIP3    H141722   1.921   1.323   1.426 -0.4891  0.3911 -0.3157
 6721TIP3    H241723   2.038   1.328   1.523 -0.5485 -0.1915 -0.2142
 6722TIP3   OH241724   3.164   3.773   6.342  0.0017  0.2783 -0.4798
 6722TIP3    H141725   3.127   3.861   6.327 -0.8315  0.1056  0.4891
 6722TIP3    H241726   3.240   3.788   6.398 -0.9430  0.2723  0.8392
 6723TIP3   OH241727   4.193   2.273   8.479  0.1269 -0.0014  0.0773
 6723TIP3    H141728   4.183   2.295   8.572  1.0479 -1.6693  0.6302
 6723TIP3    H241729   4.288   2.267   8.467  0.0048 -3.0281 -0.0797
 6724TIP3   OH241730   3.825   2.777   8.847 -0.4933 -0.2235  0.7060
 6724TIP3    H141731   3.796   2.868   8.852 -0.5252 -0.1981  0.1492
 6724TIP3    H241732   3.778   2.741   8.772  0.5667 -0.3088  0.0560
 6725TIP3   OH241733   4.777   2.103   8.177 -0.3479  0.7401  0.3299
 6725TIP3    H141734   4.782   2.188   8.134 -1.3468  0.0193 -1.3142
 6725TIP3    H241735   4.833   2.046   8.124 -2.1275 -0.3310 -0.5032
 6726TIP3   OH241736   0.401   5.054   0.764 -0.5067 -0.1860  0.8926
 6726TIP3    H141737   0.351   5.135   0.755  0.0485 -0.0412 -1.7135
 6726TIP3    H241738   0.336   4.984   0.753 -0.3464 -0.0003 -1.9932
 6727TIP3   OH241739   1.060   1.666   7.265 -0.5914  0.4506 -0.0761
 6727TIP3    H141740   1.152   1.653   7.284 -0.8814 -2.6343 -0.3198
 6727TIP3    H241741   1.059   1.724   7.189  1.0696  0.9720  0.2550
 6728TIP3   OH241742   5.357   0.474   1.029  0.0410 -0.3258  0.6068
 6728TIP3    H141743   5.450   0.481   1.008  0.2061  0.0163  1.4354
 6728TIP3    H241744   5.344   0.532   1.104 -0.7656 -0.6572  0.7368
 6729TIP3   OH241745   4.906   0.221   0.979 -0.1322 -0.8521 -0.7097
 6729TIP3    H141746   4.930   0.306   1.017  0.0826 -0.9219 -0.6881
 6729TIP3    H241747   4.951   0.157   1.034  1.3621 -0.9029 -1.9222
 6730TIP3   OH241748   4.020   6.653   2.351 -0.4692 -0.0622  0.0743
 6730TIP3    H141749   3.946   6.662   2.411 -0.5844  1.0507 -0.2294
 6730TIP3    H241750   4.039   6.559   2.352 -0.2876 -0.0527  2.0666
 6731TIP3   OH241751   4.852   5.791   1.890 -0.1949 -0.0512  0.1240
 6731TIP3    H141752   4.846   5.885   1.905  0.2978 -0.1555  1.0899
 6731TIP3    H241753   4.802   5.752   1.962  0.6669 -0.5492  0.4747
 6732TIP3   OH241754   1.034   3.777   0.935  0.4599 -0.2245  0.1113
 6732TIP3    H141755   1.066   3.721   1.006 -0.8234  1.1594  1.8707
 6732TIP3    H241756   0.944   3.746   0.920  0.7149 -0.4931 -0.9291
 6733TIP3   OH241757   3.814   5.621   2.153 -0.2896  0.5236  0.2652
 6733TIP3    H141758   3.876   5.628   2.081 -0.7802 -2.5455 -0.5885
 6733TIP3    H241759   3.865   5.585   2.225 -0.7258 -0.5876  0.0329
 6734TIP3   OH241760   5.116   0.783   1.434  0.1952 -0.5149 -0.3682
 6734TIP3    H141761   5.192   0.839   1.447  0.0127 -0.5912  1.1481
 6734TIP3    H241762   5.129   0.709   1.492 -3.0355  1.5699  3.4955
 6735TIP3   OH241763   1.471   0.471   1.151 -0.0402  0.2883 -0.1952
 6735TIP3    H141764   1.460   0.523   1.072  0.3432 -0.1297 -0.5259
 6735TIP3    H241765   1.550   0.418   1.135 -1.1786 -1.4281 -0.4576
 6736TIP3   OH241766   2.705   4.076   8.904 -0.2186  0.1966 -0.1176
 6736TIP3    H141767   2.629   4.019   8.920 -0.0518 -0.4114 -1.3769
 6736TIP3    H241768   2.668   4.157   8.872 -0.3883  0.3359  0.4155
 6737TIP3   OH241769   6.652   4.123   1.487 -0.2233  0.3954  0.2888
 6737TIP3    H141770   6.735   4.131   1.441  0.0874  3.1397  1.1592
 6737TIP3    H241771   6.588   4.164   1.429 -0.3759  1.1450  0.9700
 6738TIP3   OH241772   2.185   1.140   2.049  0.7545  0.0701 -0.7104
 6738TIP3    H141773   2.175   1.225   2.091 -0.8005  0.3109 -1.5027
 6738TIP3    H241774   2.275   1.141   2.015  1.3765  0.6306  0.8678
 6739TIP3   OH241775   6.678   3.373   8.864 -0.0649  0.2502  0.2883
 6739TIP3    H141776   6.614   3.391   8.934 -1.6294 -1.7230 -0.5261
 6739TIP3    H241777   6.667   3.445   8.803  0.7616  1.5858  1.6473
 6740TIP3   OH241778   4.260   3.073   7.431  0.3268 -0.2703  0.0084
 6740TIP3    H141779   4.221   3.149   7.388 -0.0146  0.4359  1.4873
 6740TIP3    H241780   4.226   2.998   7.382 -0.7289  0.4495 -0.4099
 6741TIP3   OH241781   2.439   2.742   1.224 -0.1173 -0.4084  0.1502
 6741TIP3    H141782   2.413   2.707   1.139 -1.7767  0.6974  0.1460
 6741TIP3    H241783   2.426   2.837   1.216  1.6764 -0.0498  0.9990
 6742TIP3   OH241784   6.618   6.069   2.237 -0.7355  0.2570 -0.6459
 6742TIP3    H141785   6.669   5.989   2.226 -3.9808 -1.8153 -2.1514
 6742TIP3    H241786   6.583   6.063   2.326 -1.4242 -0.3353 -0.9464
 6743TIP3   OH241787   3.511   1.650   8.564 -0.5819  0.1373 -0.2540
 6743TIP3    H141788   3.603   1.661   8.540 -0.5823  0.2894 -0.1903
 6743TIP3    H241789   3.502   1.696   8.648 -1.0693  1.5130 -1.0291
 6744TIP3   OH241790   0.772   0.166   1.159  0.0357  0.2955  0.2304
 6744TIP3    H141791   0.798   0.074   1.166 -1.3060 -0.0396  1.2240
 6744TIP3    H241792   0.695   0.173   1.216 -0.0749  1.9616 -0.0935
 6745TIP3   OH241793   6.636   2.157   8.068  0.0480 -0.4112  0.2691
 6745TIP3    H141794   6.581   2.234   8.053  0.1624 -0.1657  1.0918
 6745TIP3    H241795   6.592   2.110   8.139 -0.1151 -1.2035 -0.3356
 6746TIP3   OH241796   6.678   4.312   0.448 -0.1691  0.3200 -0.4045
 6746TIP3    H141797   6.771   4.330   0.441  0.2570 -1.8676 -1.1391
 6746TIP3    H241798   6.637   4.369   0.383  0.6366  1.3061 -0.0581
 6747TIP3   OH241799   5.355   0.834   8.891  0.0777 -0.3613  0.0405
 6747TIP3    H141800   5.344   0.739   8.881  0.0816 -0.1403 -2.8765
 6747TIP3    H241801   5.437   0.853   8.846  0.4225  0.9947  1.1710
 6748TIP3   OH241802   5.391   4.584   8.407  0.0249 -0.5216 -0.3977
 6748TIP3    H141803   5.370   4.551   8.494  0.9081 -1.4462 -0.5138
 6748TIP3    H241804   5.306   4.603   8.368 -0.4224 -0.8859  0.3666
 6749TIP3   OH241805   0.011   1.339   2.084 -0.3319  0.0351 -0.3980
 6749TIP3    H141806  -0.033   1.367   2.004  0.4111  1.1565 -0.4377
 6749TIP3    H241807  -0.008   1.408   2.148 -0.2843 -0.4689  0.1742
 6750TIP3   OH241808   4.711   0.755   1.054 -0.3965 -0.1160 -0.1828
 6750TIP3    H141809   4.639   0.739   1.116 -1.0848  0.8355 -0.7119
 6750TIP3    H241810   4.740   0.844   1.074 -0.6262  0.2053 -1.2221
 6751TIP3   OH241811   5.281   2.334   8.604 -0.0578  0.6088  0.0008
 6751TIP3    H141812   5.213   2.393   8.636  0.4576  0.0314  2.4151
 6751TIP3    H241813   5.339   2.321   8.680  1.3689 -0.8194 -1.2540
 6752TIP3   OH241814   3.044   3.934   6.791  0.2528  0.2296  0.6039
 6752TIP3    H141815   3.055   4.028   6.803 -0.2781  0.4771 -0.6831
 6752TIP3    H241816   2.968   3.912   6.844  0.9556  0.3263  1.6880
 6753TIP3   OH241817   0.016   4.126   6.357  0.2720  0.3480 -0.7797
 6753TIP3    H141818   0.097   4.128   6.307  1.2690 -0.0836  0.7366
 6753TIP3    H241819  -0.052   4.155   6.296  1.4292 -0.1300 -2.3280
 6754TIP3   OH241820   6.758   6.182   1.155 -0.0241 -0.0493 -0.2305
 6754TIP3    H141821   6.683   6.132   1.186  0.2400 -0.1683  0.2295
 6754TIP3    H241822   6.726   6.272   1.146 -0.0734  0.0112  0.5148
 6755TIP3   OH241823   3.476   6.526   8.489 -0.0746  0.2625 -0.1930
 6755TIP3    H141824   3.520   6.611   8.493 -1.5509  1.0650 -0.4430
 6755TIP3    H241825   3.487   6.497   8.399  0.2239  0.3040 -0.1704
 6756TIP3   OH241826   3.568   3.407   1.774  0.2697  0.4867  0.0251
 6756TIP3    H141827   3.633   3.349   1.735 -1.7009 -2.4493  0.8301
 6756TIP3    H241828   3.519   3.442   1.699  0.0106 -0.7674 -0.4099
 6757TIP3   OH241829   1.253   6.536   0.107 -0.8505 -0.5377  0.0278
 6757TIP3    H141830   1.183   6.547   0.172  0.9979  1.0271  1.9180
 6757TIP3    H241831   1.300   6.458   0.136  0.1171  0.2944  0.8001
 6758TIP3   OH241832   2.371   1.927   7.451 -0.3134 -0.0828 -0.2822
 6758TIP3    H141833   2.332   2.010   7.424 -0.6304 -0.3267 -0.6005
 6758TIP3    H241834   2.348   1.866   7.380  0.9792 -0.1514 -0.6678
 6759TIP3   OH241835   4.028   6.280   7.395 -0.2590  0.0349  0.3376
 6759TIP3    H141836   4.123   6.294   7.403 -0.4823  1.3112  1.2900
 6759TIP3    H241837   3.994   6.304   7.481 -1.3124 -1.9694  0.5430
 6760TIP3   OH241838   4.053   3.107   1.455 -0.2875  0.3285 -0.7491
 6760TIP3    H141839   4.020   3.172   1.517  0.7266  0.0158  0.1585
 6760TIP3    H241840   4.132   3.072   1.497  0.5723  0.2819 -2.3338
 6761TIP3   OH241841   2.705   3.877   6.623  0.2455 -0.0195 -0.1022
 6761TIP3    H141842   2.722   3.886   6.717 -2.4544 -2.3370  0.7467
 6761TIP3    H241843   2.785   3.838   6.588  0.8106 -0.3832  1.4944
 6762TIP3   OH241844   4.112   1.792   2.112 -0.1048  0.3997  0.1188
 6762TIP3    H141845   4.090   1.799   2.205 -0.1795  0.4657  0.0968
 6762TIP3    H241846   4.169   1.716   2.107 -0.9394 -0.2469  0.0771
 6763TIP3   OH241847   0.598   3.050   1.456  0.4862 -1.1350  0.2762
 6763TIP3    H141848   0.645   3.116   1.407  0.7124  0.1222  2.0842
 6763TIP3    H241849   0.649   2.970   1.444  2.5763 -0.0453  1.3627
 6764TIP3   OH241850   0.480   3.796   0.020 -0.2759  0.4056 -0.7216
 6764TIP3    H141851   0.545   3.832  -0.039 -2.5018  1.7450 -2.5487
 6764TIP3    H241852   0.445   3.720  -0.026 -1.3805  0.8964 -0.7246
 6765TIP3   OH241853   1.080   4.076   7.052  0.1050  0.3259 -0.2726
 6765TIP3    H141854   0.991   4.046   7.033 -0.3790  1.2048  0.5064
 6765TIP3    H241855   1.075   4.171   7.040  0.5263  0.5691  1.3287
 6766TIP3   OH241856   3.189   0.898   0.352 -0.0833  0.3024 -0.3864
 6766TIP3    H141857   3.265   0.855   0.392 -1.4365 -1.3345  0.4987
 6766TIP3    H241858   3.221   0.987   0.331  1.3442  0.5162  2.2876
 6767TIP3   OH241859   0.397   0.531   1.938  0.1092  0.0791 -0.0054
 6767TIP3    H141860   0.428   0.539   2.028  0.0088 -2.3700  0.3172
 6767TIP3    H241861   0.315   0.580   1.936 -0.3941 -0.6407  1.5176
 6768TIP3   OH241862   5.791   6.296   0.883 -0.2694 -0.5925  0.3222
 6768TIP3    H141863   5.786   6.368   0.946  0.5332  0.0873 -0.3554
 6768TIP3    H241864   5.884   6.273   0.881 -0.2211 -0.3792 -0.8299
 6769TIP3   OH241865   6.745   5.577   8.553 -0.3777 -0.1440 -0.0112
 6769TIP3    H141866   6.713   5.659   8.592 -0.6512  0.6141 -1.7307
 6769TIP3    H241867   6.666   5.531   8.525 -0.1588  0.0672 -1.0427
 6770TIP3   OH241868   2.843   4.569   0.438  0.0725  0.3364 -0.2819
 6770TIP3    H141869   2.845   4.505   0.509 -0.2222 -1.0626 -1.4880
 6770TIP3    H241870   2.929   4.560   0.396  0.2172  1.1049 -0.1702
 6771TIP3   OH241871   4.437   1.457   0.248 -0.0549 -0.1193  0.3708
 6771TIP3    H141872   4.447   1.545   0.212 -0.9717 -0.2761 -0.3094
 6771TIP3    H241873   4.515   1.444   0.303  0.5538  0.7511 -0.2654
 6772TIP3   OH241874   3.520   1.593   8.311 -0.4027  0.0952  0.3349
 6772TIP3    H141875   3.586   1.529   8.286 -0.1278  0.3497  0.4075
 6772TIP3    H241876   3.541   1.616   8.401  0.4011  1.3922 -0.1601
 6773TIP3   OH241877   1.234   1.058   1.070 -0.0144  0.7095 -0.5636
 6773TIP3    H141878   1.311   1.111   1.049  0.2176  0.8401  0.5439
 6773TIP3    H241879   1.267   0.969   1.074  0.5068  0.9541  1.7299
 6774TIP3   OH241880   1.033   2.296   2.126  0.1191 -0.5571 -0.0795
 6774TIP3    H141881   0.938   2.288   2.120  0.1673 -0.8756 -0.4340
 6774TIP3    H241882   1.059   2.229   2.190  0.3066 -1.9011 -1.5010
 6775TIP3   OH241883   2.268   5.047   0.084 -0.0047 -0.0430 -0.0274
 6775TIP3    H141884   2.254   5.110   0.014  0.4146 -1.2938 -1.2781
 6775TIP3    H241885   2.183   5.003   0.094 -0.2260  0.5206  0.6703
 6776TIP3   OH241886   5.883   3.281   0.568  0.4665  1.0887  0.0581
 6776TIP3    H141887   5.848   3.224   0.500  1.7735  0.2862  0.0219
 6776TIP3    H241888   5.953   3.330   0.525 -0.5538  2.6716  0.1240
 6777TIP3   OH241889   1.586   0.924   6.537  0.0293  0.2399 -0.0892
 6777TIP3    H141890   1.667   0.872   6.536 -0.3880 -0.4681 -2.0232
 6777TIP3    H241891   1.609   1.004   6.491 -0.0915  0.5121  0.3245
 6778TIP3   OH241892   5.248   0.647   1.208  0.1442 -0.0746 -0.2528
 6778TIP3    H141893   5.292   0.730   1.188 -0.9962  0.6038 -0.0847
 6778TIP3    H241894   5.162   0.674   1.241 -0.2034 -1.3340 -0.0890
 6779TIP3   OH241895   0.943   6.243   0.463  0.3989  0.5019  0.1645
 6779TIP3    H141896   0.893   6.168   0.431  0.4444  0.6061 -0.1547
 6779TIP3    H241897   0.877   6.309   0.483  0.3735  0.4533  0.2416
 6780TIP3   OH241898   6.496   2.306   1.462 -0.0827  0.5511 -0.6767
 6780TIP3    H141899   6.575   2.278   1.417 -0.2779 -0.7051 -0.2700
 6780TIP3    H241900   6.510   2.280   1.553 -1.8603 -1.7744 -0.9806
 6781TIP3   OH241901   2.210   3.830   2.253  0.2050  0.6090  0.6911
 6781TIP3    H141902   2.165   3.746   2.262  0.6639 -0.0281 -1.9543
 6781TIP3    H241903   2.298   3.807   2.222  0.5669  2.0371  0.5824
 6782TIP3   OH241904   4.654   1.979   8.887 -0.1689 -0.2378 -0.5933
 6782TIP3    H141905   4.593   1.905   8.896 -0.6263  0.2869  0.7169
 6782TIP3    H241906   4.624   2.043   8.951  0.8239  0.6883 -1.0348
 6783TIP3   OH241907   1.069   1.554   1.166 -0.3041 -0.0388  0.1298
 6783TIP3    H141908   1.046   1.641   1.200  1.6906  0.6212 -0.0957
 6783TIP3    H241909   1.000   1.535   1.103 -0.6256  1.5365 -0.0531
 6784TIP3   OH241910   1.747   2.287   0.880  0.0325  0.1646  0.0862
 6784TIP3    H141911   1.671   2.252   0.926 -1.2837  1.5249 -0.9274
 6784TIP3    H241912   1.760   2.374   0.918  1.1055 -0.0666  0.2644
 6785TIP3   OH241913   3.172   0.085   2.353  0.3106  0.1417  0.1941
 6785TIP3    H141914   3.137   0.040   2.429  1.2556  0.1051  0.6108
 6785TIP3    H241915   3.114   0.161   2.341  0.0898  0.0784  0.8670
 6786TIP3   OH241916   6.100   3.923   0.592 -0.1073  0.2080  0.0486
 6786TIP3    H141917   6.175   3.981   0.606  2.3236 -3.0004  1.7477
 6786TIP3    H241918   6.095   3.913   0.497  1.0365  1.2000 -0.1401
 6787TIP3   OH241919   2.622   0.974   8.138 -0.4603  0.1419  0.2145
 6787TIP3    H141920   2.711   0.952   8.165 -0.7442 -0.2627  0.8511
 6787TIP3    H241921   2.628   1.063   8.104  0.1512  0.1943  0.4574
 6788TIP3   OH241922   4.895   0.550   1.016 -0.3144  0.7810 -0.4198
 6788TIP3    H141923   4.830   0.621   1.014  1.2912  2.4200  1.1813
 6788TIP3    H241924   4.946   0.567   1.096  1.9833 -0.4781 -1.5187
 6789TIP3   OH241925   2.321   5.368   8.880  0.2990  0.2361  0.3276
 6789TIP3    H141926   2.393   5.309   8.857  2.0386  1.4428  2.3439
 6789TIP3    H241927   2.292   5.405   8.796  1.0209 -1.3473 -0.6650
 6790TIP3   OH241928   0.239   2.127   0.874  0.5451  0.0990  0.1772
 6790TIP3    H141929   0.262   2.197   0.935 -0.5507 -0.1746  0.9270
 6790TIP3    H241930   0.218   2.171   0.792  2.0370  0.4708 -0.0392
 6791TIP3   OH241931   4.793   1.262   1.040  0.8226 -0.7075 -0.7912
 6791TIP3    H141932   4.854   1.223   1.102 -0.5172 -0.4709  0.7365
 6791TIP3    H241933   4.740   1.322   1.093 -0.8872 -1.0720 -2.0129
 6792TIP3   OH241934   5.532   4.979   7.560 -0.2203 -1.1457  0.1002
 6792TIP3    H141935   5.490   5.059   7.589 -0.7498 -1.0439 -0.8782
 6792TIP3    H241936   5.625   5.000   7.555 -0.2882 -0.7753  0.4268
 6793TIP3   OH241937   3.108   4.183   2.113  0.0014 -0.3285  0.0595
 6793TIP3    H141938   3.191   4.187   2.161 -1.2423  0.5191  2.2989
 6793TIP3    H241939   3.097   4.271   2.077 -0.7671  0.1379  1.3684
 6794TIP3   OH241940   5.221   4.446   1.868  0.2905  0.5671  0.5114
 6794TIP3    H141941   5.209   4.368   1.813  1.0747  0.8393 -0.0715
 6794TIP3    H241942   5.283   4.419   1.935  1.5883  1.0334 -0.4637
 6795TIP3   OH241943   5.696   0.596   6.960 -0.1068  0.3230 -0.0934
 6795TIP3    H141944   5.746   0.612   7.040 -0.7396  0.5719  0.2600
 6795TIP3    H241945   5.689   0.682   6.919 -0.1409  0.2701 -0.1978
 6796TIP3   OH241946   5.953   0.906   8.605 -0.1595  0.4079  0.1816
 6796TIP3    H141947   6.020   0.943   8.549  0.0569 -1.4389 -0.8809
 6796TIP3    H241948   6.000   0.876   8.683  0.3832 -1.2580 -0.7402
 6797TIP3   OH241949   2.303   4.498   1.306 -0.3882 -0.2834 -0.3956
 6797TIP3    H141950   2.390   4.509   1.266 -0.3717 -1.2262 -0.6434
 6797TIP3    H241951   2.321   4.484   1.399 -0.3246  0.2988 -0.3193
 6798TIP3   OH241952   0.381   0.286   0.619 -0.3037  0.4910 -0.2836
 6798TIP3    H141953   0.350   0.301   0.709  2.2456  1.4917  0.4999
 6798TIP3    H241954   0.439   0.211   0.625  0.3373  0.9159 -0.9711
 6799TIP3   OH241955   1.814   2.019   1.901  0.2906 -0.5255  0.1363
 6799TIP3    H141956   1.771   1.933   1.894  0.4024 -0.6076  0.4344
 6799TIP3    H241957   1.827   2.047   1.811 -0.5203 -0.4385  0.0336
 6800TIP3   OH241958   6.705   2.344   0.319  0.3522  0.2595 -0.3021
 6800TIP3    H141959   6.699   2.429   0.276  0.0026 -0.3113 -1.4323
 6800TIP3    H241960   6.798   2.327   0.327  0.4284  0.9580  0.3738
 6801TIP3   OH241961   6.267   6.199   1.009  0.3195  0.1498 -0.2810
 6801TIP3    H141962   6.252   6.202   1.103  0.3237 -2.1197 -0.1573
 6801TIP3    H241963   6.180   6.187   0.971  0.0632  2.8933 -0.7728
 6802TIP3   OH241964   2.800   0.349   7.108  0.0158 -0.3553 -0.1677
 6802TIP3    H141965   2.867   0.371   7.043 -0.3886  0.1634 -0.4139
 6802TIP3    H241966   2.793   0.427   7.162  0.4113 -0.8164  0.5652
 6803TIP3   OH241967   2.423   3.006   1.457  0.6361 -0.0106  0.2281
 6803TIP3    H141968   2.345   2.968   1.417  0.8165 -1.3560  1.1106
 6803TIP3    H241969   2.405   3.003   1.551  1.0702  1.2321  0.3728
 6804TIP3   OH241970   6.445   5.743   1.401  0.6700 -0.3291  0.3466
 6804TIP3    H141971   6.349   5.745   1.405  0.6554  2.4445  0.5637
 6804TIP3    H241972   6.471   5.699   1.482 -0.4183 -0.2914  0.7315
 6805TIP3   OH241973   3.696   6.555   6.799  0.3330  0.5735 -0.5047
 6805TIP3    H141974   3.746   6.635   6.786 -1.2380  1.4779 -1.3701
 6805TIP3    H241975   3.762   6.485   6.797  1.6455  1.7612 -0.5970
 6806TIP3   OH241976   0.066   1.192   8.703 -0.0740 -1.0532 -0.1459
 6806TIP3    H141977   0.025   1.161   8.784 -0.6931 -1.7940 -0.7183
 6806TIP3    H241978   0.160   1.192   8.721 -0.2449 -0.6471  0.7581
 6807TIP3   OH241979   2.940   6.369   1.360 -0.0789  0.3922  0.0479
 6807TIP3    H141980   2.929   6.283   1.319  1.6942 -1.0841  2.3345
 6807TIP3    H241981   3.018   6.406   1.318  0.7951 -0.4156  0.8829
 6808TIP3   OH241982   4.891   2.766   0.069  0.3682  0.0482  0.3679
 6808TIP3    H141983   4.939   2.778   0.151  1.6230  0.0963 -0.3609
 6808TIP3    H241984   4.806   2.731   0.097  0.6021  0.4840  1.7177
 6809TIP3   OH241985   6.347   6.592   8.800 -0.0889  0.3600 -0.0046
 6809TIP3    H141986   6.426   6.624   8.757 -0.3664  1.6458  0.3877
 6809TIP3    H241987   6.315   6.522   8.743  3.4046 -3.0611  1.7163
 6810TIP3   OH241988   3.740   1.625   2.283 -0.9140 -0.1666  0.2900
 6810TIP3    H141989   3.702   1.545   2.247 -1.7802  0.4803 -0.2802
 6810TIP3    H241990   3.735   1.614   2.378 -1.6429 -0.5144  0.2164
 6811TIP3   OH241991   2.737   4.593   0.767 -0.3509 -0.1726  0.3224
 6811TIP3    H141992   2.772   4.530   0.704 -1.7388 -0.2625 -0.4224
 6811TIP3    H241993   2.803   4.599   0.836  1.6368  0.5575 -1.5320
 6812TIP3   OH241994   4.090   0.733   7.326 -0.0567  0.2323 -0.2337
 6812TIP3    H141995   4.131   0.814   7.296 -1.9282  0.9348 -1.0791
 6812TIP3    H241996   4.147   0.664   7.293  0.8294  1.1575 -0.7183
 6813TIP3   OH241997   6.286   1.616   0.619  0.4200  0.1388  0.3961
 6813TIP3    H141998   6.326   1.631   0.533  0.5446  0.3167  0.4828
 6813TIP3    H241999   6.194   1.598   0.600  0.3151  0.7857  0.2660
 6814TIP3   OH242000   3.585   5.817   8.607  0.7358 -0.0333  0.4533
 6814TIP3    H142001   3.505   5.791   8.562  0.5845  1.3533 -0.1513
 6814TIP3    H242002   3.611   5.898   8.563  1.2462  0.7354  2.1058
 6815TIP3   OH242003   5.854   5.428   8.307  0.2740 -0.2306 -0.5535
 6815TIP3    H142004   5.849   5.349   8.253  1.0814 -0.1851 -0.7094
 6815TIP3    H242005   5.824   5.499   8.249  1.2249 -0.1670 -0.9900
 6816TIP3   OH242006   5.483   1.962   7.790 -0.1551 -0.0298 -0.0629
 6816TIP3    H142007   5.484   2.051   7.757 -2.8407  0.5883  1.2589
 6816TIP3    H242008   5.532   1.967   7.872 -1.8618  0.7226  0.9592
 6817TIP3   OH242009   4.984   4.613   0.887  0.1813 -0.2610  0.0058
 6817TIP3    H142010   4.889   4.614   0.898  0.1951  1.2165  0.2797
 6817TIP3    H242011   5.008   4.520   0.889 -1.4157 -0.7664 -1.6766
 6818TIP3   OH242012   0.551   6.544   0.201  0.5199  0.3422  0.4373
 6818TIP3    H142013   0.488   6.610   0.171 -0.5898 -1.5018 -1.4862
 6818TIP3    H242014   0.636   6.577   0.171 -0.1066  0.5495 -1.2100
 6819TIP3   OH242015   5.497   0.873   6.236  0.1872  0.2539 -0.9691
 6819TIP3    H142016   5.506   0.844   6.145 -1.8247 -0.7197 -0.9161
 6819TIP3    H242017   5.579   0.917   6.256  1.9251 -2.1920 -2.2634
 6820TIP3   OH242018   1.660   2.071   6.517 -0.4884 -0.5492 -0.3591
 6820TIP3    H142019   1.688   2.033   6.434  0.6385  3.3859 -2.0061
 6820TIP3    H242020   1.581   2.121   6.495 -2.8341 -2.8936  2.0059
 6821TIP3   OH242021   3.388   1.221   7.378 -0.0851 -0.4408 -0.3699
 6821TIP3    H142022   3.309   1.247   7.425  0.8893  1.0062  0.5320
 6821TIP3    H242023   3.376   1.256   7.290  1.1108  3.1901  0.7471
 6822TIP3   OH242024   2.178   4.016   0.404 -0.4857  0.0002 -0.3803
 6822TIP3    H142025   2.213   4.094   0.447  0.2569 -0.5071 -0.0468
 6822TIP3    H242026   2.092   4.002   0.444  0.3863 -0.7461  1.3305
 6823TIP3   OH242027   3.258   0.186   8.520  0.1328 -0.0901  0.1861
 6823TIP3    H142028   3.323   0.144   8.464 -0.7257 -0.3881 -0.6117
 6823TIP3    H242029   3.226   0.115   8.576  0.0028 -0.0931  0.1083
 6824TIP3   OH242030   5.740   1.011   2.025 -0.0733 -0.1256 -0.1624
 6824TIP3    H142031   5.649   1.037   2.039 -0.3251 -1.2344  0.4264
 6824TIP3    H242032   5.744   0.921   2.057  1.4244  0.1732  0.6207
 6825TIP3   OH242033   4.491   2.044   2.223  0.4896  0.0480  0.3097
 6825TIP3    H142034   4.515   2.076   2.310  1.7650 -0.4392  0.1630
 6825TIP3    H242035   4.547   1.968   2.209 -0.5092 -0.5674 -0.4870
 6826TIP3   OH242036   6.708   0.292   7.540 -0.3967 -0.3440  0.1598
 6826TIP3    H142037   6.684   0.255   7.455 -1.3018 -0.1633  0.3272
 6826TIP3    H242038   6.661   0.374   7.545  1.2104  0.6298  0.0172
 6827TIP3   OH242039   2.201   3.369   7.932 -0.6492 -0.0439  0.0509
 6827TIP3    H142040   2.106   3.370   7.943 -0.7185  1.6052 -0.4475
 6827TIP3    H242041   2.234   3.322   8.008 -1.7355  1.3544  1.4444
 6828TIP3   OH242042   4.545   2.057   8.555  0.0884  0.0193  0.8120
 6828TIP3    H142043   4.561   2.111   8.478 -2.0494 -0.5988 -0.1312
 6828TIP3    H242044   4.548   2.118   8.629 -1.4310  1.2986 -0.1277
 6829TIP3   OH242045   4.287   1.634   8.178 -0.4446 -0.8526  0.1786
 6829TIP3    H142046   4.209   1.585   8.205  0.3521 -2.7226 -0.7197
 6829TIP3    H242047   4.337   1.572   8.125  0.2017  1.2321 -1.8360
 6830TIP3   OH242048   4.319   0.505   1.385 -0.4783 -0.3342 -0.0636
 6830TIP3    H142049   4.337   0.538   1.297 -1.5219 -0.6742 -0.4220
 6830TIP3    H242050   4.288   0.582   1.433  1.1934  0.1092  0.3698
 6831TIP3   OH242051   1.484   2.640   0.408 -0.3133  0.3673 -0.2110
 6831TIP3    H142052   1.458   2.731   0.419 -1.3004  0.0420  0.2331
 6831TIP3    H242053   1.403   2.590   0.416  0.0652 -0.4921 -1.4006
 6832TIP3   OH242054   2.968   3.760   8.576  0.1745 -0.7068 -0.5214
 6832TIP3    H142055   3.002   3.834   8.526  0.1442 -1.4841 -1.7534
 6832TIP3    H242056   2.884   3.790   8.610 -0.9342 -0.8674 -2.9011
 6833TIP3   OH242057   3.349   0.848   8.783 -0.3389  0.2981 -0.1954
 6833TIP3    H142058   3.308   0.892   8.709  0.9500  2.2487  0.1969
 6833TIP3    H242059   3.425   0.901   8.804  0.4611 -1.3281  1.2737
 6834TIP3   OH242060   2.174   3.673   1.997  0.6558 -0.3282  0.5829
 6834TIP3    H142061   2.114   3.599   1.986  0.2015 -0.0333  1.0123
 6834TIP3    H242062   2.193   3.673   2.091  0.6492  0.0995  0.5850
 6835TIP3   OH242063   4.871   5.350   0.431 -0.3043  0.5715  0.2994
 6835TIP3    H142064   4.808   5.392   0.371 -0.1835  1.4090  0.7435
 6835TIP3    H242065   4.817   5.319   0.504 -0.3941 -0.0763 -0.0303
 6836TIP3   OH242066   1.045   6.202   8.050 -0.1124  0.1981 -0.5469
 6836TIP3    H142067   1.097   6.263   7.997 -0.5830  1.5733  0.5022
 6836TIP3    H242068   1.109   6.138   8.081  1.0540  1.8999  0.7937
 6837TIP3   OH242069   5.350   2.012   6.892 -0.1909  0.1143 -0.0361
 6837TIP3    H142070   5.256   2.012   6.910 -0.0587  1.5231  0.7802
 6837TIP3    H242071   5.361   1.943   6.826 -1.7445 -0.2554  0.0360
 6838TIP3   OH242072   2.977   2.223   2.841 -0.1360  0.5379 -0.8045
 6838TIP3    H142073   2.944   2.269   2.763  0.4409  1.3241 -0.6006
 6838TIP3    H242074   2.988   2.132   2.813 -0.5563  0.6782 -1.4495
 6839TIP3   OH242075   3.412   0.757   0.439  0.0821  0.1149  0.1287
 6839TIP3    H142076   3.390   0.665   0.454  0.4553  0.1005  0.6216
 6839TIP3    H242077   3.507   0.757   0.422  0.4367  0.5736  1.8390
 6840TIP3   OH242078   5.222   1.112   2.109  0.6076  0.2049  0.1875
 6840TIP3    H142079   5.176   1.178   2.160  1.4869 -0.2579  1.6325
 6840TIP3    H242080   5.230   1.150   2.021 -0.4546  1.2421  0.5265
 6841TIP3   OH242081   3.409   5.697   0.276  0.0376  0.4888  0.0467
 6841TIP3    H142082   3.375   5.745   0.351 -2.3979 -0.7493 -0.1627
 6841TIP3    H242083   3.414   5.763   0.206 -0.7809  0.9965  0.4463
 6842TIP3   OH242084   5.578   4.779   8.567  0.0236  0.7624 -0.2613
 6842TIP3    H142085   5.559   4.726   8.490 -0.1899  0.5240 -0.0428
 6842TIP3    H242086   5.498   4.829   8.582 -0.6829 -0.6953  1.0291
 6843TIP3   OH242087   2.392   3.690   0.088 -0.2011  0.1937 -0.3201
 6843TIP3    H142088   2.333   3.735   0.149  0.9986 -1.3105  2.0979
 6843TIP3    H242089   2.355   3.709   0.002 -2.0203  2.4103  0.8152
 6844TIP3   OH242090   1.733   3.149   8.793 -0.1639  0.2156 -0.1112
 6844TIP3    H142091   1.737   3.087   8.866 -0.8657  1.7022  1.2487
 6844TIP3    H242092   1.825   3.159   8.766  0.4535  1.4750  2.2169
 6845TIP3   OH242093   5.825   4.245   0.873  0.1772  0.3249 -0.0688
 6845TIP3    H142094   5.877   4.166   0.857  1.5636  0.9197  1.2339
 6845TIP3    H242095   5.876   4.315   0.834 -0.8107  0.6641 -0.7884
 6846TIP3   OH242096   1.679   6.277   7.214  0.8558  0.2842  0.2633
 6846TIP3    H142097   1.758   6.331   7.216  0.7531  0.4268  0.4645
 6846TIP3    H242098   1.698   6.208   7.150  0.8752  0.7296 -0.2107
 6847TIP3   OH242099   2.802   3.339   7.324  0.0789  0.5221 -0.3240
 6847TIP3    H142100   2.889   3.300   7.315  0.8246  2.4531 -2.3607
 6847TIP3    H242101   2.814   3.431   7.299 -1.8720  1.7646  2.8211
 6848TIP3   OH242102   5.089   6.283   8.265 -0.4911 -0.4801 -0.2210
 6848TIP3    H142103   5.084   6.189   8.251  1.1842 -1.2246  3.1262
 6848TIP3    H242104   5.068   6.321   8.180 -0.4709 -3.8594 -1.9059
 6849TIP3   OH242105   3.918   0.041   1.784 -0.2531  0.0933 -0.2686
 6849TIP3    H142106   3.982  -0.031   1.783  1.5007  1.5751 -0.2775
 6849TIP3    H242107   3.880   0.041   1.696  0.1235 -0.4828 -0.4362
 6850TIP3   OH242108   2.760   4.857   1.220 -0.9021  0.0937 -0.2961
 6850TIP3    H142109   2.721   4.942   1.239 -0.8479  0.3479 -1.2466
 6850TIP3    H242110   2.824   4.843   1.289 -2.3548 -0.1408  1.0617
 6851TIP3   OH242111   1.143   2.709   0.701 -0.4350 -0.2966 -0.0322
 6851TIP3    H142112   1.158   2.615   0.707  0.4622 -0.1846 -0.4047
 6851TIP3    H242113   1.087   2.720   0.624 -0.7226 -0.5449  0.1421
 6852TIP3   OH242114   4.403   2.339   0.836  0.2959  0.1512  0.2131
 6852TIP3    H142115   4.439   2.418   0.796  0.7066 -0.0400  0.2063
 6852TIP3    H242116   4.337   2.372   0.897  0.8437  0.5285  0.6089
 6853TIP3   OH242117   0.248   2.235   7.048  0.0825 -0.3850  0.2254
 6853TIP3    H142118   0.300   2.155   7.061  0.1327 -0.3936 -0.0254
 6853TIP3    H242119   0.199   2.219   6.968 -1.8322 -1.1853  1.4777
 6854TIP3   OH242120   3.571   3.020   7.360 -0.0971 -0.2752  0.2279
 6854TIP3    H142121   3.510   3.006   7.432 -1.2819  0.5759 -0.5719
 6854TIP3    H242122   3.624   2.940   7.357 -0.6189 -0.6839  1.4650
 6855TIP3   OH242123   0.543   3.426   6.268  0.5219 -0.3300 -0.0786
 6855TIP3    H142124   0.595   3.494   6.224 -1.0747  1.5354  0.7673
 6855TIP3    H242125   0.588   3.412   6.351  0.7527 -0.1737 -0.1743
 6856TIP3   OH242126   1.966   3.947   0.563 -0.2857 -0.3615  0.1716
 6856TIP3    H142127   1.919   3.866   0.544 -1.7596  0.2085  1.2338
 6856TIP3    H242128   1.907   3.997   0.618  1.4812  0.4968  1.3987
 6857TIP3   OH242129   0.107   4.847   1.108  0.5898 -0.1094 -0.3341
 6857TIP3    H142130   0.133   4.810   1.192 -1.1041 -0.9176 -0.1224
 6857TIP3    H242131   0.183   4.834   1.051  1.4263 -0.3680  0.8140
 6858TIP3   OH242132   4.647   4.881   8.143 -0.2407 -0.0984 -0.3526
 6858TIP3    H142133   4.637   4.937   8.065  0.1352  1.5113  0.7056
 6858TIP3    H242134   4.741   4.865   8.149  0.0822  1.9430  1.1458
 6859TIP3   OH242135   5.794   5.665   0.498  0.5244  0.2717  0.2682
 6859TIP3    H142136   5.818   5.751   0.464  2.6673 -0.1872  0.4521
 6859TIP3    H242137   5.716   5.640   0.448  0.9201  1.5597 -1.0733
 6860TIP3   OH242138   3.072   1.347   2.273  0.3049  0.3789 -0.4991
 6860TIP3    H142139   3.000   1.291   2.244  0.4045  0.8641 -1.7114
 6860TIP3    H242140   3.029   1.424   2.310  0.1926  0.3939 -0.6597
 6861TIP3   OH242141   1.646   3.728   1.391 -0.1763 -0.0957 -0.4074
 6861TIP3    H142142   1.611   3.670   1.323 -1.2689  0.1484 -0.0768
 6861TIP3    H242143   1.595   3.707   1.469  0.7178 -0.0169  0.2140
 6862TIP3   OH242144   5.212   1.106   1.403 -0.4827  0.3022 -0.4067
 6862TIP3    H142145   5.264   1.185   1.391  0.2746 -0.1008  0.1566
 6862TIP3    H242146   5.270   1.046   1.449 -0.2569 -1.3775 -2.6954
 6863TIP3   OH242147   2.749   2.189   1.061 -0.0654 -0.0783  0.1186
 6863TIP3    H142148   2.712   2.235   0.986 -0.9653  2.5915  2.0526
 6863TIP3    H242149   2.674   2.156   1.110  0.1512  1.8248  1.9174
 6864TIP3   OH242150   2.279   0.010   0.370 -0.0240  0.1724  0.6238
 6864TIP3    H142151   2.267  -0.084   0.383 -1.2874 -0.0704 -1.7464
 6864TIP3    H242152   2.308   0.018   0.280 -0.5528  2.1084  0.5836
 6865TIP3   OH242153   0.822   4.014   6.899 -0.2146  0.2139 -0.1254
 6865TIP3    H142154   0.879   4.058   6.835 -1.1450  0.6977 -0.6461
 6865TIP3    H242155   0.802   3.929   6.860  0.2847 -0.0354  0.1454
 6866TIP3   OH242156   3.625   0.118   1.786 -0.3453  0.0600 -0.2143
 6866TIP3    H142157   3.592   0.030   1.768  2.4012 -1.0798 -0.1548
 6866TIP3    H242158   3.630   0.160   1.701  1.9414 -1.2918 -0.8370
 6867TIP3   OH242159   4.393   0.479   0.240  0.1420  0.2237  0.3607
 6867TIP3    H142160   4.456   0.456   0.172 -1.7524 -0.5410 -1.2466
 6867TIP3    H242161   4.349   0.397   0.260 -1.8085  1.0921 -0.1676
 6868TIP3   OH242162   2.962   6.713   7.982 -0.0413 -0.4678  0.4748
 6868TIP3    H142163   2.935   6.671   7.900 -0.4493 -1.9494  1.3372
 6868TIP3    H242164   2.895   6.780   7.998 -0.8232 -1.2302  0.4053
 6869TIP3   OH242165   1.635   0.256   1.789  0.3138  0.1222  0.1812
 6869TIP3    H142166   1.650   0.163   1.772 -0.2169  0.2112 -0.9202
 6869TIP3    H242167   1.614   0.261   1.882  3.1100 -0.4821  0.9250
 6870TIP3   OH242168   3.906   3.052   0.578 -0.7614  0.7836 -0.0687
 6870TIP3    H142169   3.843   3.080   0.645 -1.8341 -0.6836 -0.4329
 6870TIP3    H242170   3.920   3.131   0.524 -1.8031  1.2951  0.3842
 6871TIP3   OH242171   4.685   6.509   1.210 -0.1221  0.6261 -0.1260
 6871TIP3    H142172   4.738   6.466   1.277  0.4549  2.3591  0.5960
 6871TIP3    H242173   4.608   6.542   1.257 -1.6005 -1.2820 -1.0391
 6872TIP3   OH242174   5.270   0.306   8.092  0.2618 -0.0243  0.1219
 6872TIP3    H142175   5.210   0.233   8.108 -0.0343  0.1940  0.0144
 6872TIP3    H242176   5.282   0.306   7.997  0.1456  0.1573  0.1071
 6873TIP3   OH242177   6.331   4.871   2.000 -0.1993  0.0183 -0.6584
 6873TIP3    H142178   6.279   4.948   1.978 -2.5137 -0.8754  1.1897
 6873TIP3    H242179   6.344   4.877   2.095  0.2293 -1.4836 -0.5883
 6874TIP3   OH242180   2.733   2.452   7.225  0.2113  0.2295  0.3919
 6874TIP3    H142181   2.817   2.494   7.209 -0.8848  2.2026 -0.6898
 6874TIP3    H242182   2.728   2.382   7.160  0.6616  0.7069 -0.1740
 6875TIP3   OH242183   1.359   3.964   6.359 -0.3912 -0.4763  0.9520
 6875TIP3    H142184   1.268   3.982   6.383 -1.0919 -0.0088 -1.7376
 6875TIP3    H242185   1.355   3.881   6.312  0.3643  0.1480 -0.2520
 6876TIP3   OH242186   5.947   5.114   8.391 -0.6169  0.6788 -0.1576
 6876TIP3    H142187   5.900   5.181   8.439  0.8727  1.5415  0.1811
 6876TIP3    H242188   5.933   5.034   8.440 -1.4534  0.9727  0.0974
 6877TIP3   OH242189   3.671   5.874   1.064 -0.4197  0.0820 -0.0943
 6877TIP3    H142190   3.752   5.924   1.074 -0.4567  0.0913  0.1535
 6877TIP3    H242191   3.608   5.937   1.028 -0.8873  0.6240  1.5863
 6878TIP3   OH242192   5.653   4.146   0.148  0.3243 -0.4371 -0.5371
 6878TIP3    H142193   5.629   4.191   0.229  0.0467  0.5492 -1.1396
 6878TIP3    H242194   5.585   4.080   0.136 -0.6673  0.5968 -0.8659
 6879TIP3   OH242195   4.277   1.397   0.589 -0.0954  0.0687 -0.4943
 6879TIP3    H142196   4.302   1.469   0.530 -0.9972 -0.1736 -1.1894
 6879TIP3    H242197   4.357   1.346   0.599  0.1263  0.2319 -1.3481
 6880TIP3   OH242198   4.737   2.054   1.237  0.1342  0.2454 -0.1881
 6880TIP3    H142199   4.738   1.959   1.250 -0.0498  0.5215  2.1126
 6880TIP3    H242200   4.651   2.082   1.269  0.2562  1.2337 -0.6792
 6881TIP3   OH242201   3.106   2.425   7.041 -0.0940 -0.3690  0.1570
 6881TIP3    H142202   3.145   2.338   7.045  0.1009 -0.2405  3.2444
 6881TIP3    H242203   3.175   2.480   7.004  1.2990 -0.8593  1.8847
 6882TIP3   OH242204   3.750   1.402   1.576 -0.2652 -0.4367  0.1547
 6882TIP3    H142205   3.693   1.447   1.639  0.8582  0.1513  0.7818
 6882TIP3    H242206   3.817   1.360   1.630  0.2186 -0.6516 -0.5984
 6883TIP3   OH242207   1.593   6.275   7.889 -0.8357  0.0444  0.1456
 6883TIP3    H142208   1.661   6.333   7.924 -0.9861 -0.7116  1.7616
 6883TIP3    H242209   1.519   6.333   7.869  0.1809  0.8562 -1.5029
 6884TIP3   OH242210   6.580   5.091   8.224 -0.1591 -0.0369 -0.4746
 6884TIP3    H142211   6.552   5.175   8.187 -1.0406 -0.0917  0.0367
 6884TIP3    H242212   6.604   5.111   8.315  1.8619  0.0730 -0.9861
 6885TIP3   OH242213   3.105   5.766   0.326  0.1830 -0.5710 -0.1749
 6885TIP3    H142214   3.117   5.678   0.362  0.1575 -0.1094  1.0097
 6885TIP3    H242215   3.081   5.819   0.402  2.5922  0.9764 -0.3922
 6886TIP3   OH242216   5.235   2.279   0.727 -0.0543  0.4344 -0.0762
 6886TIP3    H142217   5.196   2.228   0.798  0.2687  0.1890 -0.0703
 6886TIP3    H242218   5.264   2.360   0.768 -0.4017  0.5433 -0.0461
 6887TIP3   OH242219   5.625   0.058   8.595  0.0843  0.0794 -0.2506
 6887TIP3    H142220   5.676   0.061   8.676 -1.0824 -1.4386  0.5960
 6887TIP3    H242221   5.685   0.024   8.529  0.7432  0.3145  0.2166
 6888TIP3   OH242222   0.856   0.577   8.253  0.2388  0.8540 -0.1430
 6888TIP3    H142223   0.946   0.581   8.283 -0.1054 -0.0849  1.1010
 6888TIP3    H242224   0.858   0.516   8.179  0.5147  0.2417  0.3617
 6889TIP3   OH242225   1.144   1.852   8.808  0.4574  0.0025  0.2357
 6889TIP3    H142226   1.203   1.859   8.733 -0.1575  0.1876 -0.2415
 6889TIP3    H242227   1.057   1.840   8.769  0.2208 -0.6481  0.9293
 6890TIP3   OH242228   0.746   1.373   1.492 -0.0395 -0.2928  0.2237
 6890TIP3    H142229   0.784   1.295   1.451  1.2163 -0.4614  1.6171
 6890TIP3    H242230   0.800   1.387   1.570  0.4277  2.5943 -0.5230
 6891TIP3   OH242231   3.493   4.507   6.640 -0.1235  0.6714  0.3726
 6891TIP3    H142232   3.585   4.531   6.651 -0.0238  0.2727  0.4216
 6891TIP3    H242233   3.474   4.448   6.713 -0.0797 -0.2070 -0.3015
 6892TIP3   OH242234   2.402   3.537   8.681 -0.4696  0.0823  0.1469
 6892TIP3    H142235   2.344   3.477   8.634  1.1494 -1.4723  0.0133
 6892TIP3    H242236   2.401   3.617   8.629 -0.7237 -0.7134 -1.1241
 6893TIP3   OH242237   1.359   0.592   7.392 -0.3725  0.7895 -0.4590
 6893TIP3    H142238   1.404   0.620   7.472 -0.1824  1.3299 -0.7487
 6893TIP3    H242239   1.389   0.502   7.377 -1.3486  0.2399  0.7442
 6894TIP3   OH242240   2.356   5.678   1.143  0.1066 -0.2846  0.1398
 6894TIP3    H142241   2.438   5.710   1.104 -0.7761  0.6423 -1.0318
 6894TIP3    H242242   2.336   5.598   1.095 -0.2547  0.1109 -0.3869
 6895TIP3   OH242243   6.211   4.984   7.155 -0.2740 -0.2046 -0.1559
 6895TIP3    H142244   6.160   4.927   7.212  0.0081  1.0478  1.4366
 6895TIP3    H242245   6.210   4.941   7.070 -3.0582 -0.7647  0.0716
 6896TIP3   OH242246   5.725   4.478   8.604 -0.1157  0.0356  0.6468
 6896TIP3    H142247   5.707   4.413   8.672 -0.6535  0.7783  1.2290
 6896TIP3    H242248   5.687   4.441   8.524  0.8988 -1.0482  0.6284
 6897TIP3   OH242249   1.527   6.708   8.110  0.1377  0.9715 -0.5906
 6897TIP3    H142250   1.558   6.630   8.064  3.2033  2.0792 -0.6582
 6897TIP3    H242251   1.543   6.780   8.049 -0.9373  1.8576  0.1422
 6898TIP3   OH242252   3.728   0.847   8.832 -0.0849 -0.0004  0.2439
 6898TIP3    H142253   3.732   0.802   8.916  0.9813  0.6187  0.5373
 6898TIP3    H242254   3.820   0.858   8.806 -0.3793  0.5683 -0.5962
 6899TIP3   OH242255   1.740   3.867   2.097 -0.0472  0.2204  0.5339
 6899TIP3    H142256   1.730   3.946   2.044  0.2910  0.3561  0.6647
 6899TIP3    H242257   1.835   3.851   2.098 -0.2505 -1.4208 -1.2714
 6900TIP3   OH242258   5.746   2.481   6.496 -0.8205  0.5997 -0.5648
 6900TIP3    H142259   5.685   2.534   6.546  1.7429  3.2776 -0.0164
 6900TIP3    H242260   5.756   2.526   6.412  0.6772  0.4768 -0.4852
 6901TIP3   OH242261   5.619   3.900   0.958 -0.0251 -0.1968  0.6399
 6901TIP3    H142262   5.558   3.973   0.968 -1.5027 -0.9629 -1.9256
 6901TIP3    H242263   5.601   3.843   1.033 -0.3159  1.0188  1.5282
 6902TIP3   OH242264   1.698   4.862   8.188 -0.8719 -0.1589 -0.4501
 6902TIP3    H142265   1.748   4.838   8.267  0.8614 -2.4688 -2.0974
 6902TIP3    H242266   1.762   4.906   8.132 -1.7438  0.3230 -1.0914
 6903TIP3   OH242267   0.466   6.542   7.264  0.6144 -0.4317 -0.1928
 6903TIP3    H142268   0.526   6.558   7.336 -0.0499  0.7416  0.1404
 6903TIP3    H242269   0.440   6.630   7.234  0.8242 -0.8856 -1.8216
 6904TIP3   OH242270   0.182   0.895   1.453  0.4312  0.2238 -0.1194
 6904TIP3    H142271   0.157   0.883   1.361  1.5987 -2.2926 -0.1935
 6904TIP3    H242272   0.274   0.924   1.449 -0.5872  4.0621  0.2719
 6905TIP3   OH242273   3.000   3.258   0.428  0.2880 -0.1330  0.1111
 6905TIP3    H142274   3.051   3.181   0.401 -0.3837 -0.8173  0.7274
 6905TIP3    H242275   2.981   3.303   0.346  1.5223 -0.0778 -0.1707
 6906TIP3   OH242276   2.959   0.483   8.296 -0.0182  0.0631 -0.7310
 6906TIP3    H142277   2.897   0.465   8.226 -0.5291  0.6419 -0.4390
 6906TIP3    H242278   2.948   0.577   8.315  0.4672  0.0250 -0.2252
 6907TIP3   OH242279   6.340   4.399   0.829 -0.9326 -0.0065 -0.1752
 6907TIP3    H142280   6.300   4.339   0.893  0.0268 -0.4362  0.0324
 6907TIP3    H242281   6.397   4.344   0.776  0.3380  0.7930  0.3305
 6908TIP3   OH242282   2.591   6.403   1.012 -0.4219 -0.3303 -0.2043
 6908TIP3    H142283   2.648   6.342   0.964  0.5723  0.8875 -0.6072
 6908TIP3    H242284   2.646   6.478   1.031 -1.4359  0.1692  0.9196
 6909TIP3   OH242285   3.848   0.545   1.847 -0.0318 -0.0034  0.3504
 6909TIP3    H142286   3.866   0.635   1.819  1.0109 -0.2552  0.1678
 6909TIP3    H242287   3.764   0.524   1.808 -0.2825  0.8870  0.3832
 6910TIP3   OH242288   5.051   3.244   0.488 -0.2882 -0.2064  0.4505
 6910TIP3    H142289   5.060   3.150   0.476  0.5390  0.0186 -1.0399
 6910TIP3    H242290   5.124   3.269   0.544  0.4711 -0.2643 -0.4753
 6911TIP3   OH242291   5.152   0.546   8.232  0.6484 -0.1367  0.4751
 6911TIP3    H142292   5.197   0.488   8.170  2.0547 -0.3822  1.6540
 6911TIP3    H242293   5.065   0.507   8.243  0.6639 -0.5390 -0.7092
 6912TIP3   OH242294   0.242   4.068   7.123  0.4069 -0.2867 -0.1384
 6912TIP3    H142295   0.305   4.030   7.062  0.7058  0.2854 -0.1907
 6912TIP3    H242296   0.295   4.123   7.181  0.4237 -2.3281  1.9059
 6913TIP3   OH242297   5.080   0.834   0.039 -0.0870 -0.2997 -0.2876
 6913TIP3    H142298   5.175   0.837   0.025  0.1043 -1.5535  0.5813
 6913TIP3    H242299   5.062   0.743   0.063 -1.4056  0.0967  0.3133
 6914TIP3   OH242300   0.050   1.890   7.488 -0.1301 -0.2877  0.3178
 6914TIP3    H142301   0.100   1.950   7.543  1.1433 -0.5455 -0.5328
 6914TIP3    H242302   0.115   1.833   7.449 -0.9304  0.1723 -1.8067
 6915TIP3   OH242303   5.264   5.984   7.956  0.5092 -0.2545 -0.5651
 6915TIP3    H142304   5.242   6.077   7.951 -0.0077 -0.3659 -0.4481
 6915TIP3    H242305   5.197   5.946   8.013 -0.2736 -1.0020 -1.9319
 6916TIP3   OH242306   4.627   1.335   7.580  0.1795  1.1197 -0.0719
 6916TIP3    H142307   4.561   1.394   7.544  0.4844  1.5143  0.0103
 6916TIP3    H242308   4.710   1.374   7.555  0.4026  1.4748  1.1768
 6917TIP3   OH242309   4.981   4.727   7.490  0.2013  0.3390 -0.7984
 6917TIP3    H142310   4.944   4.654   7.540  1.0839  1.3474  1.4271
 6917TIP3    H242311   5.066   4.695   7.461  0.5951  0.4652  0.1919
 6918TIP3   OH242312   0.228   6.224   1.503  0.2425 -0.0884  0.6798
 6918TIP3    H142313   0.247   6.250   1.593  0.9752  1.1406  0.1817
 6918TIP3    H242314   0.133   6.209   1.502  0.1589  0.3336  1.5437
 6919TIP3   OH242315   6.743   1.083   8.440  0.3712  0.0600  0.4451
 6919TIP3    H142316   6.717   1.161   8.490  1.2353  0.4871  0.2548
 6919TIP3    H242317   6.683   1.082   8.365  0.4684  0.6659  0.3458
 6920TIP3   OH242318   2.839   3.636   7.339 -0.1870 -0.1775  0.3256
 6920TIP3    H142319   2.761   3.675   7.379  0.0693 -0.2806  0.9321
 6920TIP3    H242320   2.896   3.615   7.413  2.4152  3.9506 -0.1825
 6921TIP3   OH242321   2.981   6.153   7.642  0.1131 -0.3287  0.0314
 6921TIP3    H142322   2.894   6.115   7.628  0.1359  0.1214 -1.4455
 6921TIP3    H242323   2.963   6.236   7.687 -0.0111 -1.4182  2.1398
 6922TIP3   OH242324   2.870   0.279   0.478 -0.2261 -1.0550 -0.2842
 6922TIP3    H142325   2.922   0.234   0.544 -0.5923 -0.9869  0.0577
 6922TIP3    H242326   2.917   0.266   0.396  1.1235  0.2657  0.2484
 6923TIP3   OH242327   5.755   2.768   2.162  0.2665 -0.5004 -0.1227
 6923TIP3    H142328   5.721   2.772   2.251 -0.8839 -2.7153 -0.3697
 6923TIP3    H242329   5.838   2.814   2.165 -0.1713  0.2443  1.8710
 6924TIP3   OH242330   1.276   1.947   7.018  0.6221  0.1311  0.2876
 6924TIP3    H142331   1.320   2.031   7.006 -0.3128  0.7637  1.1890
 6924TIP3    H242332   1.238   1.951   7.105 -0.5252 -0.7165 -0.1466
 6925TIP3   OH242333   4.708   1.250   8.789  0.4458 -0.0733 -0.1075
 6925TIP3    H142334   4.739   1.335   8.757 -0.1492  0.9284  1.8351
 6925TIP3    H242335   4.663   1.211   8.713 -0.0787  1.7538 -0.7911
 6926TIP3   OH242336   6.532   2.160   7.349 -0.1142  0.0328 -0.5787
 6926TIP3    H142337   6.477   2.093   7.308 -0.5442 -0.3707  0.6081
 6926TIP3    H242338   6.617   2.151   7.306 -0.3581 -0.8282 -0.9048
 6927TIP3   OH242339   4.633   1.240   7.938  0.4708  0.5728 -0.1693
 6927TIP3    H142340   4.604   1.150   7.927 -0.8949  0.9165  0.3876
 6927TIP3    H242341   4.688   1.258   7.862  3.3934 -1.6916  1.2144
 6928TIP3   OH242342   1.895   0.148   8.739  0.5782  0.0984 -0.0246
 6928TIP3    H142343   1.873   0.126   8.648  1.3185  1.1088 -0.4735
 6928TIP3    H242344   1.813   0.142   8.786 -0.1912  1.3139 -1.1346
 6929TIP3   OH242345   3.529   4.300   7.635  0.2398 -0.1156 -0.3261
 6929TIP3    H142346   3.464   4.243   7.674  0.0960 -0.0797 -0.5104
 6929TIP3    H242347   3.552   4.258   7.551 -0.0230  0.2024 -0.5602
 6930TIP3   OH242348   2.199   6.549   6.838  0.1182  0.8573  0.3697
 6930TIP3    H142349   2.170   6.598   6.760  0.2586 -0.0545 -0.2746
 6930TIP3    H242350   2.155   6.464   6.831  2.8016 -0.5815 -0.6345
 6931TIP3   OH242351   5.192   3.756   0.838  0.0422  0.4179  0.5303
 6931TIP3    H142352   5.116   3.700   0.829  0.2322  0.0733  1.0092
 6931TIP3    H242353   5.259   3.715   0.784  0.2084  0.1260  0.9508
 6932TIP3   OH242354   4.516   3.971   0.160  0.0344 -0.1647  0.1136
 6932TIP3    H142355   4.462   3.990   0.237 -1.2544 -1.9634 -0.2533
 6932TIP3    H242356   4.452   3.943   0.093  1.2382  0.0086 -1.1459
 6933TIP3   OH242357   3.283   1.787   7.781 -0.4749  0.1105 -0.1873
 6933TIP3    H142358   3.259   1.828   7.864 -0.5762  1.3003 -0.7857
 6933TIP3    H242359   3.372   1.818   7.764 -0.4896 -0.0522 -0.5674
 6934TIP3   OH242360   1.344   5.147   0.752 -0.3809 -0.1724 -0.4300
 6934TIP3    H142361   1.251   5.159   0.769  0.0582 -0.6755  3.0285
 6934TIP3    H242362   1.378   5.236   0.740 -1.0255  0.1406  0.0419
 6935TIP3   OH242363   5.305   5.362   0.239  0.4675  0.7871  0.1600
 6935TIP3    H142364   5.255   5.428   0.191 -0.3464 -0.3089 -0.5410
 6935TIP3    H242365   5.373   5.334   0.178  0.5663  0.6964  0.3109
 6936TIP3   OH242366   0.552   2.161   8.460 -0.7575  0.1812 -0.5988
 6936TIP3    H142367   0.604   2.149   8.540 -0.3062 -0.4042 -0.9723
 6936TIP3    H242368   0.505   2.243   8.474 -2.1973 -0.8338  1.1201
 6937TIP3   OH242369   0.142   0.826   7.325  0.2627 -0.7222 -0.0478
 6937TIP3    H142370   0.079   0.758   7.301 -0.8940  0.3027 -0.0367
 6937TIP3    H242371   0.198   0.835   7.248 -0.2182 -0.9985 -0.4376
 6938TIP3   OH242372   2.284   4.385   0.914 -0.4992 -0.1650 -0.5305
 6938TIP3    H142373   2.238   4.467   0.899  0.2592  0.2283 -0.7186
 6938TIP3    H242374   2.234   4.342   0.983 -1.7399 -0.2094 -1.4296
 6939TIP3   OH242375   6.122   6.051   0.641  0.1338  0.1330 -0.8129
 6939TIP3    H142376   6.086   6.119   0.699 -0.9003 -2.0044  1.1914
 6939TIP3    H242377   6.084   6.071   0.555 -0.0881  2.0987 -0.3182
 6940TIP3   OH242378   3.177   4.852   0.381  0.2829  0.5721  0.1592
 6940TIP3    H142379   3.233   4.907   0.437  1.5994 -0.9753  0.4396
 6940TIP3    H242380   3.144   4.785   0.440 -1.2098  0.9594 -0.2036
 6941TIP3   OH242381   5.573   5.133   0.956  0.0740  0.4680 -0.2839
 6941TIP3    H142382   5.661   5.099   0.971  0.3185  0.0519 -2.4330
 6941TIP3    H242383   5.569   5.213   1.009  1.7270  0.4791 -0.1341
 6942TIP3   OH242384   0.753   0.407   7.076 -0.1898 -0.4674  0.3963
 6942TIP3    H142385   0.827   0.443   7.125  0.8028 -0.8689 -0.7863
 6942TIP3    H242386   0.780   0.409   6.985 -1.5286 -0.8959 -0.0389
 6943TIP3   OH242387   6.687   6.287   2.070  0.2873  0.7963 -0.0587
 6943TIP3    H142388   6.618   6.347   2.099 -1.6551 -0.8457 -1.0635
 6943TIP3    H242389   6.660   6.202   2.104  0.8073 -0.2185 -2.0559
 6944TIP3   OH242390   2.862   2.584   2.749 -0.1224  0.6597  1.0444
 6944TIP3    H142391   2.896   2.500   2.721  1.4166  0.7758  2.4104
 6944TIP3    H242392   2.892   2.646   2.683 -0.2470  0.3136  0.6633
 6945TIP3   OH242393   5.345   5.944   1.093  0.2775 -0.2555  0.1243
 6945TIP3    H142394   5.293   6.021   1.116 -3.7663 -2.2105 -1.5396
 6945TIP3    H242395   5.404   5.975   1.024  2.0692  2.1811  2.4961
 6946TIP3   OH242396   1.432   2.246   6.464 -0.4419  0.0233  0.4355
 6946TIP3    H142397   1.348   2.275   6.427 -1.1489 -0.1068  1.8718
 6946TIP3    H242398   1.492   2.319   6.448 -1.0157  0.4185  0.0425
 6947TIP3   OH242399   5.672   0.584   1.982  0.2435  0.1981 -0.0149
 6947TIP3    H142400   5.713   0.628   2.057 -0.5674  0.2982  0.3728
 6947TIP3    H242401   5.605   0.528   2.020 -2.5150  2.6863 -0.7720
 6948TIP3   OH242402   5.174   4.519   0.124  0.1741 -0.0047 -0.1072
 6948TIP3    H142403   5.112   4.593   0.121 -0.2070 -0.3548 -1.1971
 6948TIP3    H242404   5.255   4.559   0.155 -0.2847  0.6798  0.2768
 6949TIP3   OH242405   1.865   1.172   0.091 -0.2297  0.6933 -0.6647
 6949TIP3    H142406   1.846   1.083   0.062  0.2382  0.1946  0.4853
 6949TIP3    H242407   1.920   1.161   0.169  1.0187  2.0150 -1.3183
 6950TIP3   OH242408   5.156   5.079   7.530 -0.1894 -0.6157 -0.2741
 6950TIP3    H142409   5.108   5.076   7.612 -0.8302  0.3236 -0.5938
 6950TIP3    H242410   5.119   5.008   7.478 -1.8009  0.5265 -0.7883
 6951TIP3   OH242411   2.554   2.068   1.918  0.4697 -0.0525 -0.2187
 6951TIP3    H142412   2.492   2.047   1.987  0.4234  0.8777  0.0321
 6951TIP3    H242413   2.506   2.053   1.836  0.3395 -0.5824 -0.0494
 6952TIP3   OH242414   5.577   5.159   6.314  0.0400 -0.5579  0.4326
 6952TIP3    H142415   5.486   5.137   6.335  0.5414  0.0603  3.7945
 6952TIP3    H242416   5.629   5.104   6.373  1.5674  3.4399  3.2772
 6953TIP3   OH242417   1.099   3.220   0.510 -0.2927 -0.8327 -0.6250
 6953TIP3    H142418   1.138   3.287   0.565 -0.2721 -0.7105 -0.7876
 6953TIP3    H242419   1.066   3.267   0.434 -0.8790 -0.9108 -0.4315
 6954TIP3   OH242420   3.648   2.521   7.740 -0.6550 -0.5243  0.3841
 6954TIP3    H142421   3.557   2.551   7.744  0.4099  3.3643 -0.6174
 6954TIP3    H242422   3.650   2.460   7.666 -2.0269  1.3649 -1.3090
 6955TIP3   OH242423   6.065   3.684   0.008  0.0323  0.1664 -0.7826
 6955TIP3    H142424   6.078   3.697  -0.086 -0.6241 -0.3551 -0.9580
 6955TIP3    H242425   5.971   3.665   0.017  0.0446  0.4299  0.0068
 6956TIP3   OH242426   3.361   0.070   1.045 -0.9680 -0.2448 -0.1215
 6956TIP3    H142427   3.382   0.159   1.074 -1.3677  0.2441 -1.2730
 6956TIP3    H242428   3.324   0.028   1.122  0.1817  0.2469  0.7406
 6957TIP3   OH242429   3.154   6.410   1.203  0.2292 -0.2834  0.6403
 6957TIP3    H142430   3.115   6.391   1.118  2.4510  0.7868 -0.7140
 6957TIP3    H242431   3.248   6.405   1.188  0.8582  3.7175  2.0070
 6958TIP3   OH242432   1.591   3.242   2.061 -0.3205 -0.4584 -0.0206
 6958TIP3    H142433   1.561   3.332   2.066  0.5177 -0.2070  0.8171
 6958TIP3    H242434   1.512   3.190   2.076 -0.8450  0.1197 -0.7014
 6959TIP3   OH242435   4.741   5.567   1.721 -0.3841  0.1543  0.7304
 6959TIP3    H142436   4.653   5.550   1.753 -0.3430  0.9290  1.2683
 6959TIP3    H242437   4.773   5.639   1.776  0.8997 -0.6887  1.1220
 6960TIP3   OH242438   3.357   1.840   1.989 -0.0802  0.1862  0.2534
 6960TIP3    H142439   3.430   1.901   2.001  1.1482 -1.1415 -0.2097
 6960TIP3    H242440   3.399   1.757   1.966 -1.7603 -0.5551 -0.2534
 6961TIP3   OH242441   4.643   3.183   6.469  0.8225 -0.2102  0.3951
 6961TIP3    H142442   4.633   3.257   6.528  0.7997 -1.6593  2.2716
 6961TIP3    H242443   4.666   3.223   6.385 -0.6606  1.9866  0.9604
 6962TIP3   OH242444   2.687   0.388   2.564  0.1658 -0.0168  0.0867
 6962TIP3    H142445   2.769   0.357   2.602  1.6898  1.0655 -2.0673
 6962TIP3    H242446   2.670   0.328   2.492 -0.2271  0.5275 -0.2776
 6963TIP3   OH242447   5.911   4.567   0.893 -0.5201 -0.2926 -0.0595
 6963TIP3    H142448   5.976   4.618   0.844 -1.7224 -0.5568 -2.0087
 6963TIP3    H242449   5.868   4.632   0.950  0.4547  0.1482  0.1943
 6964TIP3   OH242450   0.130   3.340   0.548  0.8856 -0.6555 -0.6145
 6964TIP3    H142451   0.123   3.261   0.602  2.6745 -0.5616 -0.1849
 6964TIP3    H242452   0.100   3.313   0.461  0.2985 -1.4653 -0.1691
 6965TIP3   OH242453   3.451   0.321   0.794  0.9699  0.6370 -0.5208
 6965TIP3    H142454   3.392   0.387   0.830 -1.5153 -0.8616 -1.5182
 6965TIP3    H242455   3.392   0.252   0.762  3.3628 -1.6045 -0.4238
 6966TIP3   OH242456   3.119   0.991   0.686 -0.2796  0.0854  0.2019
 6966TIP3    H142457   3.204   0.965   0.650 -0.7816 -1.3245 -0.0551
 6966TIP3    H242458   3.119   0.955   0.775  0.2845  2.0917  1.0556
 6967TIP3   OH242459   3.323   6.670   6.623  0.7050 -0.4148  0.0529
 6967TIP3    H142460   3.367   6.615   6.560  0.5571 -1.2058  0.6211
 6967TIP3    H242461   3.377   6.749   6.629 -0.0048  0.2810 -2.0530
 6968TIP3   OH242462   5.471   3.740   8.188  0.1044  0.3917  0.4243
 6968TIP3    H142463   5.463   3.835   8.180  0.9381  0.3261 -1.6940
 6968TIP3    H242464   5.528   3.714   8.116  0.9845 -1.5920  1.7534
 6969TIP3   OH242465   5.530   6.387   7.036  0.2097  0.6313 -0.6622
 6969TIP3    H142466   5.439   6.379   7.008  0.3803  0.2571 -1.1259
 6969TIP3    H242467   5.562   6.297   7.039  0.5113  0.7485 -0.3185
 6970TIP3   OH242468   4.436   1.543   6.671  0.2331 -0.3751 -0.0264
 6970TIP3    H142469   4.398   1.462   6.635  1.6862 -1.7686  1.4063
 6970TIP3    H242470   4.525   1.545   6.635 -0.2723  1.5210 -1.3491
 6971TIP3   OH242471   6.118   4.578   1.144  0.1146 -0.1672 -0.6991
 6971TIP3    H142472   6.213   4.578   1.158  0.2152 -2.7707 -0.8786
 6971TIP3    H242473   6.107   4.618   1.057  1.0833 -0.0860 -0.7963
 6972TIP3   OH242474   1.151   3.528   0.275  0.2026 -0.8009  0.8011
 6972TIP3    H142475   1.106   3.582   0.340  0.1599 -0.8993  0.8526
 6972TIP3    H242476   1.105   3.444   0.277 -0.7012 -0.3608 -0.3557
 6973TIP3   OH242477   6.422   3.406   8.615  0.3608 -0.4743  0.0315
 6973TIP3    H142478   6.346   3.416   8.672  0.6996  1.4572  0.2220
 6973TIP3    H242479   6.411   3.320   8.574 -1.5552 -0.5162  0.5555
 6974TIP3   OH242480   0.973   0.279   7.671 -0.2348  0.4229 -0.3092
 6974TIP3    H142481   0.927   0.318   7.596  1.5061 -0.2199 -1.7707
 6974TIP3    H242482   1.054   0.329   7.678 -0.3178  0.3819  1.0759
 6975TIP3   OH242483   0.993   6.643   7.076  0.1475 -0.3747  0.2610
 6975TIP3    H142484   0.991   6.548   7.085  0.9058 -0.4982 -0.6885
 6975TIP3    H242485   1.086   6.664   7.065  0.1631  0.6365  1.9755
 6976TIP3   OH242486   0.645   6.251   7.397  0.4326  0.2642  0.1294
 6976TIP3    H142487   0.692   6.174   7.429  1.4404  0.5833 -0.5539
 6976TIP3    H242488   0.691   6.325   7.437 -1.0114  0.5242  1.4236
 6977TIP3   OH242489   3.217   5.588   8.185 -0.0748  0.4423 -0.1101
 6977TIP3    H142490   3.237   5.624   8.098 -0.9077 -0.0385 -0.5109
 6977TIP3    H242491   3.137   5.537   8.172 -0.0924  0.1950  0.9022
 6978TIP3   OH242492   6.441   3.752   1.465  0.5474  0.0803 -0.8946
 6978TIP3    H142493   6.369   3.783   1.410 -2.5615  2.2622  3.8315
 6978TIP3    H242494   6.426   3.658   1.472 -0.4117  0.1405 -1.8323
 6979TIP3   OH242495   1.889   4.554   2.208  0.4374  0.0684  0.3968
 6979TIP3    H142496   1.962   4.534   2.266  1.2038 -0.5544 -0.7424
 6979TIP3    H242497   1.828   4.481   2.218  0.7138 -0.1899  0.1897
 6980TIP3   OH242498   0.311   4.370   7.474 -0.3281 -0.0304  0.0855
 6980TIP3    H142499   0.307   4.401   7.383 -0.3414 -0.3739 -0.0319
 6980TIP3    H242500   0.392   4.321   7.480 -0.7033 -0.6705  0.0429
 6981TIP3   OH242501   6.438   0.458   6.705 -0.0864 -0.2476 -0.7127
 6981TIP3    H142502   6.504   0.428   6.767  0.1094  0.5294 -0.5325
 6981TIP3    H242503   6.452   0.404   6.627  0.8847  0.0189 -0.7414
 6982TIP3   OH242504   0.017   6.149   7.219  0.2347 -0.4244 -0.1411
 6982TIP3    H142505   0.100   6.192   7.198  1.8254 -2.7782  0.8125
 6982TIP3    H242506   0.036   6.099   7.299 -2.1263 -1.0311  0.1075
 6983TIP3   OH242507   4.928   1.467   1.407 -0.2372 -0.5361  0.0954
 6983TIP3    H142508   4.919   1.562   1.402  0.4873 -0.4318  0.5441
 6983TIP3    H242509   4.865   1.440   1.474 -1.1059 -0.4873 -0.6933
 6984TIP3   OH242510   6.072   4.993   1.528  0.1703  0.3017  0.3216
 6984TIP3    H142511   6.125   5.018   1.603  1.1521  2.5732 -1.0225
 6984TIP3    H242512   6.104   4.906   1.504  0.1083 -0.2925  2.2336
 6985TIP3   OH242513   2.168   5.646   0.838  0.1461  0.2200 -0.7152
 6985TIP3    H142514   2.114   5.657   0.916  0.9319 -0.0156 -0.1361
 6985TIP3    H242515   2.222   5.569   0.856  0.4625  0.2669 -1.4208
 6986TIP3   OH242516   4.477   4.418   8.512 -0.1373 -0.9491  0.2111
 6986TIP3    H142517   4.472   4.324   8.498  0.4817 -1.1767  1.3521
 6986TIP3    H242518   4.490   4.456   8.425 -1.1032 -1.8519 -0.3398
 6987TIP3   OH242519   6.752   1.038   5.725  0.0985 -0.3551  0.6851
 6987TIP3    H142520   6.795   0.955   5.703  1.2484  0.3550  0.1745
 6987TIP3    H242521   6.735   1.032   5.819  0.8638 -0.8794  0.8023
 6988TIP3   OH242522   0.122   0.098   6.816 -0.2546  0.1571  0.2419
 6988TIP3    H142523   0.081   0.084   6.731 -1.0522 -0.8142  0.7611
 6988TIP3    H242524   0.201   0.044   6.813  0.0819  0.6604 -0.1216
 6989TIP3   OH242525   4.759   6.037   6.989  0.0757 -0.2578  0.1589
 6989TIP3    H142526   4.664   6.040   6.979  0.0437 -1.2482  0.0437
 6989TIP3    H242527   4.791   5.992   6.911  0.8248  1.6442 -0.6822
 6990TIP3   OH242528   3.354   0.960   7.235 -0.3176  0.1604 -0.6542
 6990TIP3    H142529   3.404   1.021   7.289 -1.6274  0.5195  0.1948
 6990TIP3    H242530   3.318   1.013   7.164 -0.7742  0.2125 -0.3845
 6991TIP3   OH242531   0.180   1.648   7.736 -0.5393 -0.1168 -0.1246
 6991TIP3    H142532   0.213   1.703   7.665  0.3423 -1.4190 -0.7781
 6991TIP3    H242533   0.243   1.660   7.807  0.5611 -1.4364 -0.8308
 6992TIP3   OH242534   5.692   6.244   1.685  0.3900 -0.5099  0.3711
 6992TIP3    H142535   5.769   6.263   1.739  0.2568 -0.3237  0.4981
 6992TIP3    H242536   5.630   6.203   1.745  0.2278 -0.2689  0.3706
 6993TIP3   OH242537   3.427   3.753   7.609 -0.6011  0.0243  0.2248
 6993TIP3    H142538   3.345   3.778   7.653 -1.1888 -1.4697  0.0322
 6993TIP3    H242539   3.483   3.720   7.680 -0.0281  1.2972  0.3990
 6994TIP3   OH242540   6.431   6.590   6.492  0.0418 -0.0243 -0.0990
 6994TIP3    H142541   6.497   6.551   6.436  1.0815 -0.9281  1.6437
 6994TIP3    H242542   6.397   6.664   6.443  2.4352  0.5430 -0.9984
 6995TIP3   OH242543   3.922   5.131   2.432 -0.1530  0.3034  0.0620
 6995TIP3    H142544   4.007   5.151   2.392  0.1047  0.0716  0.4935
 6995TIP3    H242545   3.943   5.093   2.517 -0.7059  1.6469  0.8359
 6996TIP3   OH242546   3.903   6.002   6.783 -0.2353  0.0196 -0.1253
 6996TIP3    H142547   3.942   5.929   6.734 -1.3910  0.0804 -1.1823
 6996TIP3    H242548   3.949   6.079   6.751 -0.3742 -0.0386 -0.4695
 6997TIP3   OH242549   6.211   1.828   7.408 -0.1490 -0.6355 -0.2785
 6997TIP3    H142550   6.299   1.791   7.412  0.0731 -0.0101  3.0400
 6997TIP3    H242551   6.224   1.920   7.383  0.3628 -0.1460  1.6375
 6998TIP3   OH242552   1.047   6.063   8.864  0.3096  0.3309 -0.5184
 6998TIP3    H142553   1.073   6.025   8.948 -2.0283 -2.0101 -0.7092
 6998TIP3    H242554   1.018   6.152   8.886 -0.2822 -0.2329  1.2110
 6999TIP3   OH242555   5.038   2.743   8.470  0.1200 -0.0741 -0.1539
 6999TIP3    H142556   5.017   2.836   8.469 -0.3989 -0.1602  1.2860
 6999TIP3    H242557   4.984   2.707   8.540  1.3523 -1.2222  0.2322
 7000TIP3   OH242558   0.480   3.680   1.031 -1.0695  0.1077 -0.4460
 7000TIP3    H142559   0.409   3.744   1.030  0.1114  1.4621 -0.8325
 7000TIP3    H242560   0.477   3.642   1.119 -2.5136 -0.1674 -0.5878
 7001TIP3   OH242561   2.233   5.312   2.034 -0.1760  0.1810 -0.8033
 7001TIP3    H142562   2.198   5.343   1.951 -1.7530  1.4660  0.2914
 7001TIP3    H242563   2.185   5.231   2.052 -1.8144  1.3031  0.1041
 7002TIP3   OH242564   3.169   0.471   8.101 -0.6257 -0.7114  0.2671
 7002TIP3    H142565   3.260   0.498   8.110 -0.0170 -2.4816 -0.3936
 7002TIP3    H242566   3.128   0.497   8.185 -0.0760  1.9776 -0.2063
 7003TIP3   OH242567   3.433   5.373   8.698 -0.6042 -0.0197 -0.4670
 7003TIP3    H142568   3.376   5.369   8.775 -1.5006 -0.1147 -1.1186
 7003TIP3    H242569   3.419   5.460   8.661 -0.1367  0.0479 -0.4935
 7004TIP3   OH242570   1.231   0.944   0.123 -0.1405  0.5054 -0.4946
 7004TIP3    H142571   1.203   0.909   0.207 -0.6024  0.0245 -0.8398
 7004TIP3    H242572   1.236   1.039   0.137  1.1405  0.3189  0.4582
 7005TIP3   OH242573   3.619   5.044   7.401  0.2244 -0.3821  0.2307
 7005TIP3    H142574   3.616   5.139   7.415  0.3936 -0.4564  0.8103
 7005TIP3    H242575   3.597   5.007   7.487 -0.4811 -0.8697 -0.1498
 7006TIP3   OH242576   4.160   1.029   7.003  0.6574  0.1118 -0.8246
 7006TIP3    H142577   4.138   0.936   6.999 -1.5476  0.4729  1.0957
 7006TIP3    H242578   4.109   1.069   6.933 -0.7083  0.2065  0.1776
 7007TIP3   OH242579   2.986   6.613   1.935  0.1005  0.0175 -0.3173
 7007TIP3    H142580   3.061   6.671   1.945 -0.0360  0.1336  0.0346
 7007TIP3    H242581   2.973   6.576   2.022 -0.8204  0.6990 -0.1533
 7008TIP3   OH242582   2.835   6.208   8.374  0.0305 -0.3980 -0.4509
 7008TIP3    H142583   2.811   6.125   8.416 -0.3500  0.2916  0.7545
 7008TIP3    H242584   2.922   6.227   8.408 -1.2048  1.3660  2.0958
 7009TIP3   OH242585   4.422   0.788   6.616 -0.1630  0.8957 -0.0154
 7009TIP3    H142586   4.377   0.722   6.669  0.2157  0.5267 -0.1503
 7009TIP3    H242587   4.427   0.865   6.673  2.3272 -0.2032  1.4096
 7010TIP3   OH242588   3.448   1.119   1.465  0.4764  0.2243  0.1162
 7010TIP3    H142589   3.477   1.131   1.375 -0.3262  0.3560 -0.1356
 7010TIP3    H242590   3.369   1.173   1.472  0.7572  0.5423  1.0190
 7011TIP3   OH242591   0.142   1.802   1.403 -0.2733 -0.3958  0.2314
 7011TIP3    H142592   0.234   1.789   1.426  0.6749  1.2145 -2.3056
 7011TIP3    H242593   0.136   1.775   1.312 -2.1990  0.0563  0.1918
 7012TIP3   OH242594   5.784   2.852   0.121  0.2175  0.0938 -0.4545
 7012TIP3    H142595   5.696   2.824   0.095  0.9452 -0.7232 -2.2031
 7012TIP3    H242596   5.820   2.778   0.169  0.4993 -0.1909 -1.0971
 7013TIP3   OH242597   5.087   1.195   0.475  0.2164  0.4133 -0.0098
 7013TIP3    H142598   5.144   1.210   0.551 -0.3920 -0.4374  0.6364
 7013TIP3    H242599   5.145   1.203   0.400  0.6126  2.4596  0.4533
 7014TIP3   OH242600   1.469   1.497   1.627  0.8328  0.2757 -0.4882
 7014TIP3    H142601   1.489   1.547   1.548  0.6954  0.3832 -0.4556
 7014TIP3    H242602   1.437   1.562   1.689  2.1378  0.3920  0.0891
 7015TIP3   OH242603   6.505   4.498   7.077 -0.2448 -0.2399 -0.5305
 7015TIP3    H142604   6.432   4.438   7.090  0.7445 -1.3725  0.0045
 7015TIP3    H242605   6.517   4.541   7.162 -0.4633  0.1475 -0.6952
 7016TIP3   OH242606   5.217   0.020   0.008 -0.5601  0.1218  0.0335
 7016TIP3    H142607   5.174   0.102  -0.013  1.5554  1.4680  0.6046
 7016TIP3    H242608   5.256  -0.009  -0.075  2.1558  1.9482  0.5272
 7017TIP3   OH242609   2.051   4.053   2.280 -0.3176  0.7429 -0.2908
 7017TIP3    H142610   2.065   4.037   2.187 -0.6402 -0.1398 -0.2028
 7017TIP3    H242611   2.112   3.994   2.324 -0.1800  1.1404  0.0595
 7018TIP3   OH242612   5.021   0.821   8.325 -0.4019 -0.3614  0.3174
 7018TIP3    H142613   5.105   0.780   8.304 -0.3412 -0.2493  0.3380
 7018TIP3    H242614   5.009   0.806   8.419  0.5238  1.2722  0.7448
 7019TIP3   OH242615   3.952   5.124   0.845  0.1239 -0.0478  0.2058
 7019TIP3    H142616   4.021   5.140   0.909  0.6115 -0.6004 -0.1709
 7019TIP3    H242617   3.989   5.059   0.785 -0.0273  1.0450 -1.1166
 7020TIP3   OH242618   5.419   1.672   8.680 -0.1927 -0.4083  0.0077
 7020TIP3    H142619   5.445   1.647   8.768  2.2837 -0.5963 -0.6947
 7020TIP3    H242620   5.439   1.765   8.674  0.7695 -0.6425 -0.6831
 7021TIP3   OH242621   5.644   5.706   1.686 -0.1577  0.3467 -0.3700
 7021TIP3    H142622   5.638   5.611   1.695 -0.7165  0.4373  0.4146
 7021TIP3    H242623   5.581   5.739   1.751  2.5904  1.3111  1.9928
 7022TIP3   OH242624   1.277   0.259   8.500  0.0634  0.2451  0.5092
 7022TIP3    H142625   1.320   0.242   8.584 -0.3537 -1.1574  0.4661
 7022TIP3    H242626   1.313   0.343   8.471 -0.2690  1.0947  2.3962
 7023TIP3   OH242627   4.515   0.085   7.489 -0.4112  0.3052  0.4061
 7023TIP3    H142628   4.512   0.074   7.394  0.0959 -0.4364  0.4681
 7023TIP3    H242629   4.537  -0.002   7.523 -0.7634  0.5192  1.2145
 7024TIP3   OH242630   3.842   3.161   1.294  0.1323 -0.0623  0.0251
 7024TIP3    H142631   3.920   3.134   1.343  1.5054 -0.3669 -2.2164
 7024TIP3    H242632   3.798   3.079   1.271  1.1028 -0.1400 -1.7095
 7025TIP3   OH242633   6.737   1.069   1.227 -0.7019 -0.1070  0.1069
 7025TIP3    H142634   6.698   1.114   1.303  0.5269  0.7691  0.2550
 7025TIP3    H242635   6.707   1.119   1.152 -0.7609 -0.1180  0.1225
 7026TIP3   OH242636   6.058   0.108   6.279 -0.1863 -0.8556  0.1178
 7026TIP3    H142637   5.986   0.048   6.298 -0.2031 -0.5391  1.0789
 7026TIP3    H242638   6.029   0.155   6.201 -0.4439 -1.6535 -0.2801
 7027TIP3   OH242639   1.622   0.726   8.409 -0.0807  0.1671  0.1693
 7027TIP3    H142640   1.574   0.792   8.359  1.9041  1.5943 -0.0014
 7027TIP3    H242641   1.652   0.663   8.344 -0.0108  0.4029 -0.0304
 7028TIP3   OH242642   0.709   4.902   6.861 -0.0823  0.3353 -0.3002
 7028TIP3    H142643   0.636   4.856   6.820 -0.0485  2.5574 -3.1732
 7028TIP3    H242644   0.678   4.993   6.870  2.0138  1.1436 -0.7870
 7029TIP3   OH242645   2.425   0.603   0.969 -0.3494 -0.4324 -0.6878
 7029TIP3    H142646   2.368   0.526   0.969 -1.5824  0.3752  2.1148
 7029TIP3    H242647   2.371   0.674   1.003  1.6884  0.8964 -0.0120
 7030TIP3   OH242648   2.353   6.697   1.069  0.1978  0.3472  0.0202
 7030TIP3    H142649   2.308   6.613   1.064  2.4543 -0.8845 -1.1305
 7030TIP3    H242650   2.303   6.748   1.133 -1.6692 -1.5721  0.1773
 7031TIP3   OH242651   3.229   4.677   1.030  0.4603  0.0872  0.0818
 7031TIP3    H142652   3.295   4.660   0.963 -1.2218  0.7552 -1.8550
 7031TIP3    H242653   3.197   4.590   1.054 -0.9737 -0.1296 -2.2565
 7032TIP3   OH242654   4.139   4.576   2.715 -0.1748 -0.3609  0.0235
 7032TIP3    H142655   4.087   4.602   2.639 -0.3525 -1.0892 -0.1164
 7032TIP3    H242656   4.128   4.481   2.720 -0.3515 -0.3065  1.0950
 7033TIP3   OH242657   0.170   5.498   0.563 -0.0030  0.1762  0.7420
 7033TIP3    H142658   0.098   5.513   0.624 -0.5167  2.1100 -0.2552
 7033TIP3    H242659   0.223   5.577   0.568  1.2657 -0.6217  0.4079
 7034TIP3   OH242660   0.976   6.454   7.774  0.4873  0.5526  0.6187
 7034TIP3    H142661   0.905   6.490   7.827  0.1092  0.3528  0.2576
 7034TIP3    H242662   1.056   6.478   7.821  0.2049  1.1940  0.7852
 7035TIP3   OH242663   0.337   5.959   1.982 -0.1845 -0.3246  0.1035
 7035TIP3    H142664   0.284   6.010   2.042 -2.1795 -1.5741 -0.4696
 7035TIP3    H242665   0.344   5.873   2.023  1.3538 -0.2299  0.1030
 7036TIP3   OH242666   2.594   5.570   8.443  0.0593 -0.0575  0.2578
 7036TIP3    H142667   2.687   5.550   8.434  0.0934 -0.9262  1.9984
 7036TIP3    H242668   2.551   5.486   8.430 -0.4199  0.1985  0.1881
 7037TIP3   OH242669   4.541   2.350   2.412  0.4141 -0.2953  0.0422
 7037TIP3    H142670   4.541   2.258   2.439 -0.4539 -0.8984 -1.8183
 7037TIP3    H242671   4.607   2.354   2.342  0.3749  0.4709  0.0431
 7038TIP3   OH242672   4.243   0.340   7.012  0.1883  0.1007  0.1054
 7038TIP3    H142673   4.319   0.284   7.030 -0.5563 -1.3453 -1.0688
 7038TIP3    H242674   4.222   0.324   6.920 -1.5648  0.4524  0.4108
 7039TIP3   OH242675   3.427   0.637   8.116  0.1197 -0.0077 -0.5987
 7039TIP3    H142676   3.428   0.716   8.169 -1.3569 -1.5181  1.8298
 7039TIP3    H242677   3.459   0.568   8.174 -1.7728 -1.7957 -1.5624
 7040TIP3   OH242678   4.226   6.142   0.200 -0.2776  0.6640 -0.3900
 7040TIP3    H142679   4.157   6.169   0.260 -0.3412 -1.6831  0.7301
 7040TIP3    H242680   4.290   6.213   0.204 -2.0850  2.4107 -0.6640
 7041TIP3   OH242681   3.147   3.676   7.973 -0.3917  0.5299 -0.0754
 7041TIP3    H142682   3.238   3.704   7.968 -0.3902  0.3116 -1.9392
 7041TIP3    H242683   3.150   3.594   8.022  0.5694 -0.0215 -1.0249
 7042TIP3   OH242684   3.889   1.711   7.226 -0.8660 -0.3072 -0.3323
 7042TIP3    H142685   3.894   1.646   7.156 -0.9343 -0.8098  0.1228
 7042TIP3    H242686   3.848   1.787   7.186 -0.4701 -0.4239 -0.9620
 7043TIP3   OH242687   2.434   1.979   0.924 -0.1246 -0.2125  0.0618
 7043TIP3    H142688   2.371   2.050   0.941 -0.6323 -0.7222  0.3642
 7043TIP3    H242689   2.477   2.003   0.843  0.5128  1.0136  0.7383
 7044TIP3   OH242690   4.781   6.474   0.104 -0.1008  0.3608  0.5205
 7044TIP3    H142691   4.770   6.430   0.188 -0.3852  0.4377  0.5229
 7044TIP3    H242692   4.711   6.440   0.049  1.1772 -1.0989 -0.2841
 7045TIP3   OH242693   3.855   3.566   1.038 -0.7582 -0.4890  0.4222
 7045TIP3    H142694   3.932   3.582   0.983  0.5296 -1.8068  1.7468
 7045TIP3    H242695   3.844   3.647   1.087  0.6550 -0.7477  1.2046
 7046TIP3   OH242696   2.431   2.195   7.240 -0.0710  0.3468 -0.3041
 7046TIP3    H142697   2.398   2.278   7.205 -1.3625  0.2882  0.6716
 7046TIP3    H242698   2.495   2.220   7.306  1.4357  0.4786 -1.7437
 7047TIP3   OH242699   6.624   5.827   1.769 -0.1349  0.0338  0.0583
 7047TIP3    H142700   6.642   5.882   1.845 -0.1345  1.0442 -0.6393
 7047TIP3    H242701   6.592   5.889   1.702  1.1180 -0.6061 -1.1875
 7048TIP3   OH242702   3.156   5.061   7.327  0.0632 -0.6713  0.0971
 7048TIP3    H142703   3.135   5.058   7.421 -0.4121  0.5803  0.0609
 7048TIP3    H242704   3.127   4.977   7.293  1.5001 -1.7058  1.2976
 7049TIP3   OH242705   3.834   4.990   0.510 -0.1611  0.2329  0.0483
 7049TIP3    H142706   3.894   4.938   0.563 -1.0132 -0.4179  0.3975
 7049TIP3    H242707   3.878   5.074   0.500  0.5008 -0.0001  0.8766
 7050TIP3   OH242708   3.218   1.260   2.863  0.2819 -0.9142  0.3987
 7050TIP3    H142709   3.213   1.355   2.877  0.0128 -1.0992  1.6694
 7050TIP3    H242710   3.140   1.240   2.811  2.3165  0.0775 -3.4736
 7051TIP3   OH242711   4.329   2.527   2.492 -0.3357 -0.1674  0.1511
 7051TIP3    H142712   4.354   2.614   2.460 -1.2290 -0.0737 -0.3333
 7051TIP3    H242713   4.395   2.468   2.457 -0.0240  0.2434  0.0372
 7052TIP3   OH242714   5.139   5.199   0.431 -0.3507 -0.4816  0.0748
 7052TIP3    H142715   5.204   5.266   0.409 -0.8608 -0.5424 -1.7275
 7052TIP3    H242716   5.056   5.247   0.439 -0.3984 -0.6494  0.6915
 7053TIP3   OH242717   4.195   4.140   1.097 -0.1847  0.2141  0.2602
 7053TIP3    H142718   4.180   4.095   1.014 -1.1026 -2.4325  1.7407
 7053TIP3    H242719   4.286   4.118   1.120 -0.0195  0.7146  0.0873
 7054TIP3   OH242720   1.444   5.363   0.371 -0.3152 -0.1151 -0.0062
 7054TIP3    H142721   1.377   5.386   0.435 -0.0498  2.1183 -0.4437
 7054TIP3    H242722   1.397   5.318   0.301 -1.0050 -0.4388  0.6609
 7055TIP3   OH242723   1.486   3.416   0.658  0.0124  0.4084 -0.0799
 7055TIP3    H142724   1.456   3.352   0.722  1.0136  0.7516  0.7568
 7055TIP3    H242725   1.532   3.364   0.592  2.5402  0.3482  1.5803
 7056TIP3   OH242726   2.651   5.542   1.578 -0.1760  0.5105 -0.0852
 7056TIP3    H142727   2.573   5.486   1.579  0.6968 -0.7355 -0.1717
 7056TIP3    H242728   2.663   5.566   1.486  1.4636 -2.1141 -0.6431
 7057TIP3   OH242729   3.151   1.848   0.731  0.7425 -0.2823  0.0290
 7057TIP3    H142730   3.245   1.859   0.740  0.7536  0.3235 -0.7195
 7057TIP3    H242731   3.130   1.888   0.646 -0.0988 -0.9427 -0.0875
 7058TIP3   OH242732   1.731   5.474   7.194 -0.2723  0.0335  0.5641
 7058TIP3    H142733   1.783   5.394   7.194  1.7215  1.2659 -0.1329
 7058TIP3    H242734   1.649   5.449   7.236 -0.4538 -2.8164 -1.2408
 7059TIP3   OH242735   5.192   3.428   2.073 -0.2497  0.1066 -0.1205
 7059TIP3    H142736   5.148   3.421   1.988  0.5392 -1.8339 -0.4319
 7059TIP3    H242737   5.122   3.415   2.137 -0.7297  0.8621 -0.4772
 7060TIP3   OH242738   0.446   3.793   8.017 -0.1612  0.2194  0.4661
 7060TIP3    H142739   0.520   3.830   7.969  0.1413 -0.9554 -0.0167
 7060TIP3    H242740   0.435   3.705   7.980 -0.5638 -0.3432  1.8706
 7061TIP3   OH242741   6.131   4.715   6.987 -0.1441  0.8602  0.5323
 7061TIP3    H142742   6.074   4.647   7.024  0.4481  0.9048  1.5572
 7061TIP3    H242743   6.071   4.780   6.951 -0.7244 -0.1973 -0.4910
 7062TIP3   OH242744   5.690   4.496   1.299 -0.0713 -0.1378  0.2013
 7062TIP3    H142745   5.644   4.578   1.317 -0.8583 -0.3600 -0.7021
 7062TIP3    H242746   5.783   4.520   1.297 -0.1574  0.4119  1.5419
 7063TIP3   OH242747   6.547   5.383   8.483  0.0867  0.1150 -0.2677
 7063TIP3    H142748   6.500   5.408   8.562 -0.0855  1.6170 -0.8191
 7063TIP3    H242749   6.576   5.293   8.500  0.2710  0.4824  1.6019
 7064TIP3   OH242750   6.238   2.616   7.615 -0.2030  0.0325 -0.3148
 7064TIP3    H142751   6.180   2.692   7.619 -0.3373 -0.0463 -0.6890
 7064TIP3    H242752   6.326   2.653   7.618 -0.2423  0.0657  1.8441
 7065TIP3   OH242753   4.707   2.546   0.935  0.2689 -0.2127 -0.0793
 7065TIP3    H142754   4.612   2.556   0.929  0.2515 -0.8974 -1.3351
 7065TIP3    H242755   4.741   2.635   0.936 -0.3543  0.0337 -0.4449
 7066TIP3   OH242756   5.074   6.760   6.353 -0.0121 -0.5713 -0.1783
 7066TIP3    H142757   5.011   6.818   6.397  1.6053  1.1349  0.0209
 7066TIP3    H242758   5.071   6.788   6.261  1.3090  0.3905  0.0491
 7067TIP3   OH242759   5.132   2.104   8.129  0.3783  0.2862  0.3512
 7067TIP3    H142760   5.223   2.077   8.131  0.1927 -0.4584 -0.5338
 7067TIP3    H242761   5.094   2.069   8.210  0.5913 -0.4628  0.1344
 7068TIP3   OH242762   1.808   0.070   5.855  0.1982  0.4704  0.2143
 7068TIP3    H142763   1.791   0.026   5.938  0.9688  0.9646  0.6428
 7068TIP3    H242764   1.898   0.045   5.833 -0.0498  0.2303 -0.5492
 7069TIP3   OH242765   6.295   4.696   7.233  0.4105 -0.1946  0.1584
 7069TIP3    H142766   6.229   4.648   7.285 -1.2349  0.4506 -1.2412
 7069TIP3    H242767   6.259   4.697   7.144  1.9713  0.8746 -0.4993
 7070TIP3   OH242768   2.900   6.499   8.195 -0.3056 -0.6465  0.6911
 7070TIP3    H142769   2.927   6.569   8.135  0.8829 -0.8971  0.9089
 7070TIP3    H242770   2.911   6.419   8.144  0.4659 -0.8406  1.1443
 7071TIP3   OH242771   6.733   5.655   0.680  0.4074 -0.2703  0.4918
 7071TIP3    H142772   6.692   5.588   0.734  1.1747 -0.6128  0.6675
 7071TIP3    H242773   6.665   5.680   0.618  0.5358 -2.3308 -0.5894
 7072LIG      O42774   0.785   4.654   0.924  0.4942 -0.9159  0.3138
 7072LIG     C142775   0.775   4.574   1.041 -0.4572 -0.6244  0.0997
 7072LIG     C242776   0.641   4.601   1.108 -0.1529  0.2743  0.5821
 7072LIG     C342777   0.813   4.435   0.995  0.4893  0.1503 -0.6637
 7072LIG     H142778   0.854   4.614   1.108 -2.3154 -0.3498  2.2328
 7072LIG     H242779   0.563   4.574   1.033 -1.4127  0.3940  1.8228
 7072LIG     H342780   0.635   4.702   1.155 -1.0771  1.3093 -1.6005
 7072LIG     H442781   0.621   4.529   1.190 -3.5528  0.5468  0.1243
 7072LIG     H542782   0.719   4.385   0.965 -0.4628  1.6083 -0.2621
 7072LIG     H642783   0.864   4.367   1.067 -0.3785  0.9376  0.7481
 7072LIG     H742784   0.870   4.442   0.900 -0.5488  2.7553 -1.1975
 7072LIG     H842785   0.723   4.615   0.862  0.4512 -0.0967 -0.1819
   6.77671   6.77671   8.91355
