* GENERATE LIGAND
*  DATE:     4/ 4/25      5:58:21      CREATED BY USER: charmm-gui
*
        49  EXT
         1         1  LIG       S               7.8414206300        1.4896108046        0.3767416917  LIG       1               0.0000000000
         2         1  LIG       F1             -3.8665743827        2.3339995161        2.1747384354  LIG       1               0.0000000000
         3         1  LIG       F2             -4.6755316084        3.7432835030       -0.1077033575  LIG       1               0.0000000000
         4         1  LIG       N1              4.8111131698        0.4223597374       -0.2384333350  LIG       1               0.0000000000
         5         1  LIG       N2             -2.5148973059       -2.3301207951        0.4296109547  LIG       1               0.0000000000
         6         1  LIG       C1              3.3805017250        0.1805855337        0.0047629417  LIG       1               0.0000000000
         7         1  LIG       C2              5.6783060274       -0.3169089345        0.7068338904  LIG       1               0.0000000000
         8         1  LIG       C3              5.1018300834        1.8696290390       -0.2528638531  LIG       1               0.0000000000
         9         1  LIG       C4              3.0146924440       -1.2132625032       -0.5207531606  LIG       1               0.0000000000
        10         1  LIG       C5              7.1597719782       -0.1958442388        0.2960573694  LIG       1               0.0000000000
        11         1  LIG       C6              6.5452890785        2.1327449176       -0.7267685501  LIG       1               0.0000000000
        12         1  LIG       C7              1.5567354590       -1.4531130539       -0.2548280311  LIG       1               0.0000000000
        13         1  LIG       C8             -3.6131274484       -1.8407775080       -0.4601071042  LIG       1               0.0000000000
        14         1  LIG       C9              0.6024579159       -1.0581906555       -1.1977147535  LIG       1               0.0000000000
        15         1  LIG       C10             1.1416953440       -2.0551493729        0.9447736933  LIG       1               0.0000000000
        16         1  LIG       C11            -1.1784519793       -1.9362278664        0.2127030993  LIG       1               0.0000000000
        17         1  LIG       C12            -0.7567417071       -1.2992735342       -0.9689050229  LIG       1               0.0000000000
        18         1  LIG       C13            -0.2211306371       -2.2971573692        1.1764227952  LIG       1               0.0000000000
        19         1  LIG       C14            -3.9008110343       -0.3441793440       -0.3078017620  LIG       1               0.0000000000
        20         1  LIG       C15            -4.9024975690       -2.6262186079       -0.1559005246  LIG       1               0.0000000000
        21         1  LIG       C16            -3.7578164023        0.3375820941        0.9155489933  LIG       1               0.0000000000
        22         1  LIG       C17            -4.3189743525        0.3780718457       -1.4439475332  LIG       1               0.0000000000
        23         1  LIG       C18            -4.0192399847        1.7016399710        0.9767222092  LIG       1               0.0000000000
        24         1  LIG       C19            -4.5751424212        1.7541594945       -1.3771017013  LIG       1               0.0000000000
        25         1  LIG       C20            -4.4226278506        2.4046422158       -0.1585168605  LIG       1               0.0000000000
        26         1  LIG       H1              2.7664133608        0.9459445260       -0.5222287385  LIG       1               0.0000000000
        27         1  LIG       H2              3.1711403676        0.2595395500        1.0950944321  LIG       1               0.0000000000
        28         1  LIG       H3              5.4225533467       -1.3977335820        0.7267626106  LIG       1               0.0000000000
        29         1  LIG       H4              5.5413226747        0.0872389990        1.7341887718  LIG       1               0.0000000000
        30         1  LIG       H5              4.9514924117        2.2981720946        0.7622004997  LIG       1               0.0000000000
        31         1  LIG       H6              4.4063774992        2.3802178512       -0.9559373550  LIG       1               0.0000000000
        32         1  LIG       H7              3.5889850433       -2.0259294181       -0.0380813438  LIG       1               0.0000000000
        33         1  LIG       H8              3.1951540673       -1.2666783115       -1.6174516269  LIG       1               0.0000000000
        34         1  LIG       H9              7.7453303301       -0.8522001391        0.9769568665  LIG       1               0.0000000000
        35         1  LIG       H10             7.2709274879       -0.6106487770       -0.7300050716  LIG       1               0.0000000000
        36         1  LIG       H11             6.6600070995        1.7056408469       -1.7472712382  LIG       1               0.0000000000
        37         1  LIG       H12             6.6677043940        3.2344129237       -0.8201722484  LIG       1               0.0000000000
        38         1  LIG       H13            -3.3390333047       -2.0832371292       -1.5146140153  LIG       1               0.0000000000
        39         1  LIG       H14             0.9169556629       -0.5819932585       -2.1140914043  LIG       1               0.0000000000
        40         1  LIG       H15             1.8751586026       -2.3478999606        1.6778360132  LIG       1               0.0000000000
        41         1  LIG       H16            -2.8031362963       -2.4557366640        1.3967558965  LIG       1               0.0000000000
        42         1  LIG       H17            -1.4641680470       -0.9972076074       -1.7225978396  LIG       1               0.0000000000
        43         1  LIG       H18            -0.5195354934       -2.7863198380        2.0910090245  LIG       1               0.0000000000
        44         1  LIG       H19            -5.2528414650       -2.4495585293        0.8818339883  LIG       1               0.0000000000
        45         1  LIG       H20            -4.7109478000       -3.7156962725       -0.2796450592  LIG       1               0.0000000000
        46         1  LIG       H21            -5.7125568733       -2.3434583148       -0.8612506430  LIG       1               0.0000000000
        47         1  LIG       H22            -3.4328815008       -0.1960715209        1.7952273197  LIG       1               0.0000000000
        48         1  LIG       H23            -4.4271277362       -0.1355809760       -2.3865253500  LIG       1               0.0000000000
        49         1  LIG       H24            -4.8825832847        2.2996649727       -2.2573941639  LIG       1               0.0000000000
