PSF EXT CMAP XPLOR

         2 !NTITLE
* GENERATE LIGAND                                                               
*  DATE:     4/ 4/25      5:58:21      CREATED BY USER: charmm-gui              

        49 !NATOM
         1 LIG      1        LIG      S        SG311   -0.294000       32.0600           0
         2 LIG      1        LIG      F1       FGR1    -0.134000       18.9980           0
         3 LIG      1        LIG      F2       FGR1    -0.134000       18.9980           0
         4 LIG      1        LIG      N1       NG301   -0.739000       14.0070           0
         5 LIG      1        LIG      N2       NG311   -0.428000       14.0070           0
         6 LIG      1        LIG      C1       CG321    0.700000E-01   12.0110           0
         7 LIG      1        LIG      C2       CG321    0.630000E-01   12.0110           0
         8 LIG      1        LIG      C3       CG321    0.630000E-01   12.0110           0
         9 LIG      1        LIG      C4       CG321   -0.211000       12.0110           0
        10 LIG      1        LIG      C5       CG321   -0.270000E-01   12.0110           0
        11 LIG      1        LIG      C6       CG321   -0.270000E-01   12.0110           0
        12 LIG      1        LIG      C7       CG2R61   0.120000E-01   12.0110           0
        13 LIG      1        LIG      C8       CG311   -0.500000E-02   12.0110           0
        14 LIG      1        LIG      C9       CG2R61  -0.111000       12.0110           0
        15 LIG      1        LIG      C10      CG2R61  -0.111000       12.0110           0
        16 LIG      1        LIG      C11      CG2R61   0.700000E-02   12.0110           0
        17 LIG      1        LIG      C12      CG2R61  -0.110000       12.0110           0
        18 LIG      1        LIG      C13      CG2R61  -0.110000       12.0110           0
        19 LIG      1        LIG      C14      CG2R61   0.690000E-01   12.0110           0
        20 LIG      1        LIG      C15      CG331   -0.265000       12.0110           0
        21 LIG      1        LIG      C16      CG2R61  -0.199000       12.0110           0
        22 LIG      1        LIG      C17      CG2R61  -0.770000E-01   12.0110           0
        23 LIG      1        LIG      C18      CG2R66   0.600000E-01   12.0110           0
        24 LIG      1        LIG      C19      CG2R61  -0.156000       12.0110           0
        25 LIG      1        LIG      C20      CG2R66   0.910000E-01   12.0110           0
        26 LIG      1        LIG      H1       HGA2     0.900000E-01   1.00800           0
        27 LIG      1        LIG      H2       HGA2     0.900000E-01   1.00800           0
        28 LIG      1        LIG      H3       HGA2     0.900000E-01   1.00800           0
        29 LIG      1        LIG      H4       HGA2     0.900000E-01   1.00800           0
        30 LIG      1        LIG      H5       HGA2     0.900000E-01   1.00800           0
        31 LIG      1        LIG      H6       HGA2     0.900000E-01   1.00800           0
        32 LIG      1        LIG      H7       HGA2     0.900000E-01   1.00800           0
        33 LIG      1        LIG      H8       HGA2     0.900000E-01   1.00800           0
        34 LIG      1        LIG      H9       HGA2     0.900000E-01   1.00800           0
        35 LIG      1        LIG      H10      HGA2     0.900000E-01   1.00800           0
        36 LIG      1        LIG      H11      HGA2     0.900000E-01   1.00800           0
        37 LIG      1        LIG      H12      HGA2     0.900000E-01   1.00800           0
        38 LIG      1        LIG      H13      HGA1     0.900000E-01   1.00800           0
        39 LIG      1        LIG      H14      HGR61    0.115000       1.00800           0
        40 LIG      1        LIG      H15      HGR61    0.115000       1.00800           0
        41 LIG      1        LIG      H16      HGPAM1   0.366000       1.00800           0
        42 LIG      1        LIG      H17      HGR61    0.115000       1.00800           0
        43 LIG      1        LIG      H18      HGR61    0.115000       1.00800           0
        44 LIG      1        LIG      H19      HGA3     0.900000E-01   1.00800           0
        45 LIG      1        LIG      H20      HGA3     0.900000E-01   1.00800           0
        46 LIG      1        LIG      H21      HGA3     0.900000E-01   1.00800           0
        47 LIG      1        LIG      H22      HGR62    0.157000       1.00800           0
        48 LIG      1        LIG      H23      HGR61    0.115000       1.00800           0
        49 LIG      1        LIG      H24      HGR62    0.165000       1.00800           0

        51 !NBOND: bonds
         1        10         1        11         2        23         3        25
         4         6         4         7         4         8         5        13
         5        16         5        41         6         9         6        26
         6        27         7        10         7        28         7        29
         8        11         8        30         8        31         9        12
         9        32         9        33        10        34        10        35
        11        36        11        37        12        14        12        15
        13        19        13        20        13        38        14        17
        14        39        15        18        15        40        16        17
        16        18        17        42        18        43        19        21
        19        22        20        44        20        45        20        46
        21        23        21        47        22        24        22        48
        23        25        24        25        24        49

        91 !NTHETA: angles
        10         1        11         6         4         7         6         4         8
         7         4         8        13         5        16        13         5        41
        16         5        41         4         6         9         4         6        26
         4         6        27         9         6        26         9         6        27
        26         6        27         4         7        10         4         7        28
         4         7        29        10         7        28        10         7        29
        28         7        29         4         8        11         4         8        30
         4         8        31        11         8        30        11         8        31
        30         8        31         6         9        12         6         9        32
         6         9        33        12         9        32        12         9        33
        32         9        33         1        10         7         1        10        34
         1        10        35         7        10        34         7        10        35
        34        10        35         1        11         8         1        11        36
         1        11        37         8        11        36         8        11        37
        36        11        37         9        12        14         9        12        15
        14        12        15         5        13        19         5        13        20
         5        13        38        19        13        20        19        13        38
        20        13        38        12        14        17        12        14        39
        17        14        39        12        15        18        12        15        40
        18        15        40         5        16        17         5        16        18
        17        16        18        14        17        16        14        17        42
        16        17        42        15        18        16        15        18        43
        16        18        43        13        19        21        13        19        22
        21        19        22        13        20        44        13        20        45
        13        20        46        44        20        45        44        20        46
        45        20        46        19        21        23        19        21        47
        23        21        47        19        22        24        19        22        48
        24        22        48         2        23        21         2        23        25
        21        23        25        22        24        25        22        24        49
        25        24        49         3        25        23         3        25        24
        23        25        24

       130 !NPHI: dihedrals
         1        10         7         4         1        10         7        28
         1        10         7        29         1        11         8         4
         1        11         8        30         1        11         8        31
         2        23        21        19         2        23        21        47
         2        23        25         3         2        23        25        24
         3        25        23        21         3        25        24        22
         3        25        24        49         4         6         9        12
         4         6         9        32         4         6         9        33
         4         7        10        34         4         7        10        35
         4         8        11        36         4         8        11        37
         5        13        19        21         5        13        19        22
         5        13        20        44         5        13        20        45
         5        13        20        46         5        16        17        14
         5        16        17        42         5        16        18        15
         5        16        18        43         6         4         7        10
         6         4         7        28         6         4         7        29
         6         4         8        11         6         4         8        30
         6         4         8        31         6         9        12        14
         6         9        12        15         7         4         6         9
         7         4         6        26         7         4         6        27
         7         4         8        11         7         4         8        30
         7         4         8        31         7        10         1        11
         8         4         6         9         8         4         6        26
         8         4         6        27         8         4         7        10
         8         4         7        28         8         4         7        29
         8        11         1        10         9        12        14        17
         9        12        14        39         9        12        15        18
         9        12        15        40        10         1        11        36
        10         1        11        37        11         1        10        34
        11         1        10        35        12         9         6        26
        12         9         6        27        12        14        17        16
        12        14        17        42        12        15        18        16
        12        15        18        43        13         5        16        17
        13         5        16        18        13        19        21        23
        13        19        21        47        13        19        22        24
        13        19        22        48        14        12         9        32
        14        12         9        33        14        12        15        18
        14        12        15        40        14        17        16        18
        15        12         9        32        15        12         9        33
        15        12        14        17        15        12        14        39
        15        18        16        17        16         5        13        19
        16         5        13        20        16         5        13        38
        16        17        14        39        16        18        15        40
        17        16         5        41        17        16        18        43
        18        16         5        41        18        16        17        42
        19        13         5        41        19        13        20        44
        19        13        20        45        19        13        20        46
        19        21        23        25        19        22        24        25
        19        22        24        49        20        13         5        41
        20        13        19        21        20        13        19        22
        21        19        13        38        21        19        22        24
        21        19        22        48        21        23        25        24
        22        19        13        38        22        19        21        23
        22        19        21        47        22        24        25        23
        23        25        24        49        25        23        21        47
        25        24        22        48        26         6         9        32
        26         6         9        33        27         6         9        32
        27         6         9        33        28         7        10        34
        28         7        10        35        29         7        10        34
        29         7        10        35        30         8        11        36
        30         8        11        37        31         8        11        36
        31         8        11        37        38        13         5        41
        38        13        20        44        38        13        20        45
        38        13        20        46        39        14        17        42
        40        15        18        43        48        22        24        49

         0 !NIMPHI: impropers


         0 !NDON: donors


         0 !NACC: acceptors


         0 !NNB

         0         0         0         0         0         0         0         0
         0         0         0         0         0         0         0         0
         0         0         0         0         0         0         0         0
         0         0         0         0         0         0         0         0
         0         0         0         0         0         0         0         0
         0         0         0         0         0         0         0         0
         0

         1         0 !NGRP NST2
         0         1         0

         0         0 !NUMLP NUMLPH

         0 !NCRTERM: cross-terms

