* GENERATED BY CHARMM-GUI (HTTP://WWW.CHARMM-GUI.ORG)
*
        25  EXT
         1         1  LIG       S               7.7721000000        1.4580000000        0.3522000000  LIG       1               0.0000000000
         2         1  LIG       F1             -3.8761000000        2.3529000000        2.1502000000  LIG       1               0.0000000000
         3         1  LIG       F2             -4.6718000000        3.7345000000       -0.0711000000  LIG       1               0.0000000000
         4         1  LIG       N1              4.8303000000        0.4077000000       -0.2955000000  LIG       1               0.0000000000
         5         1  LIG       N2             -2.5591000000       -2.1537000000        0.4983000000  LIG       1               0.0000000000
         6         1  LIG       C1              3.4143000000        0.1667000000       -0.0074000000  LIG       1               0.0000000000
         7         1  LIG       C2              5.6710000000       -0.3143000000        0.6718000000  LIG       1               0.0000000000
         8         1  LIG       C3              5.1076000000        1.8521000000       -0.2845000000  LIG       1               0.0000000000
         9         1  LIG       C4              2.9754000000       -1.2032000000       -0.5255000000  LIG       1               0.0000000000
        10         1  LIG       C5              7.1565000000       -0.2468000000        0.3254000000  LIG       1               0.0000000000
        11         1  LIG       C6              6.5252000000        2.1827000000       -0.7460000000  LIG       1               0.0000000000
        12         1  LIG       C7              1.5134000000       -1.4549000000       -0.2549000000  LIG       1               0.0000000000
        13         1  LIG       C8             -3.5922000000       -1.7927000000       -0.4225000000  LIG       1               0.0000000000
        14         1  LIG       C9              0.5553000000       -1.0778000000       -1.1958000000  LIG       1               0.0000000000
        15         1  LIG       C10             1.1190000000       -2.0642000000        0.9363000000  LIG       1               0.0000000000
        16         1  LIG       C11            -1.1914000000       -1.9194000000        0.2454000000  LIG       1               0.0000000000
        17         1  LIG       C12            -0.7971000000       -1.3101000000       -0.9458000000  LIG       1               0.0000000000
        18         1  LIG       C13            -0.2333000000       -2.2965000000        1.1865000000  LIG       1               0.0000000000
        19         1  LIG       C14            -3.8820000000       -0.3101000000       -0.3283000000  LIG       1               0.0000000000
        20         1  LIG       C15            -4.8248000000       -2.6582000000       -0.1689000000  LIG       1               0.0000000000
        21         1  LIG       C16            -3.7428000000        0.3515000000        0.8918000000  LIG       1               0.0000000000
        22         1  LIG       C17            -4.2884000000        0.3947000000       -1.4614000000  LIG       1               0.0000000000
        23         1  LIG       C18            -4.0097000000        1.7177000000        0.9787000000  LIG       1               0.0000000000
        24         1  LIG       C19            -4.5554000000        1.7609000000       -1.3746000000  LIG       1               0.0000000000
        25         1  LIG       C20            -4.4159000000        2.4224000000       -0.1544000000  LIG       1               0.0000000000
