;;
;; Generated by CHARMM-GUI (http://www.charmm-gui.org) v1.7
;;
;; psf2itp_mol.py
;;
;; Correspondance:
;; jul316@lehigh.edu or wonpil@lehigh.edu
;;
;; GROMACS topology file for LIG
;;


[ moleculetype ]
; name	nrexcl
LIG	     3

[ atoms ]
; nr	type	resnr	residu	atom	cgnr	charge	mass
     1      SG311      1      LIG     S1      1     -0.171    32.0600   ; qtot -0.171
     2     SG2R50      1      LIG     S2      2      0.000    32.0600   ; qtot -0.171
     3      SG311      1      LIG     S3      3     -0.166    32.0600   ; qtot -0.337
     4      OG2D1      1      LIG     O1      4     -0.469    15.9994   ; qtot -0.806
     5      OG311      1      LIG     O2      5     -0.671    15.9994   ; qtot -1.477
     6      OG2D1      1      LIG     O3      6     -0.532    15.9994   ; qtot -2.009
     7      OG2D1      1      LIG    OXT      7     -0.461    15.9994   ; qtot -2.470
     8     NG2R43      1      LIG     N1      8     -0.126    14.0070   ; qtot -2.596
     9      NG2S1      1      LIG     N2      9     -0.547    14.0070   ; qtot -3.143
    10     NG2R51      1      LIG     N3     10      0.247    14.0070   ; qtot -2.896
    11     NG2R50      1      LIG     N4     11     -0.583    14.0070   ; qtot -3.479
    12     NG2R50      1      LIG     N5     12     -0.321    14.0070   ; qtot -3.800
    13     NG2R50      1      LIG     N6     13     -0.093    14.0070   ; qtot -3.893
    14     CG3RC1      1      LIG     C1     14     -0.015    12.0110   ; qtot -3.908
    15     CG3C41      1      LIG    CA1     15      0.313    12.0110   ; qtot -3.595
    16     CG2R53      1      LIG     C2     16      0.254    12.0110   ; qtot -3.341
    17     CG2D1O      1      LIG    CA2     17      0.414    12.0110   ; qtot -2.927
    18      CG321      1      LIG     C3     18     -0.080    12.0110   ; qtot -3.007
    19     CG2DC1      1      LIG     C4     19     -0.045    12.0110   ; qtot -3.052
    20      CG2O1      1      LIG     C5     20      0.539    12.0110   ; qtot -2.513
    21      CG2O2      1      LIG     C6     21      0.417    12.0110   ; qtot -2.096
    22     CG2DC2      1      LIG     C7     22     -0.187    12.0110   ; qtot -2.283
    23      CG321      1      LIG     C8     23     -0.095    12.0110   ; qtot -2.378
    24     CG2DC2      1      LIG     C9     24     -0.113    12.0110   ; qtot -2.491
    25     CG2R51      1      LIG    C10     25      0.076    12.0110   ; qtot -2.415
    26      CG321      1      LIG    C11     26      0.005    12.0110   ; qtot -2.410
    27     CG2R51      1      LIG    C12     27     -0.204    12.0110   ; qtot -2.614
    28     CG2R51      1      LIG    C13     28     -0.220    12.0110   ; qtot -2.834
    29     CG2R51      1      LIG    C14     29     -0.247    12.0110   ; qtot -3.081
    30     CG2R53      1      LIG    C15     30      0.670    12.0110   ; qtot -2.411
    31      CG331      1      LIG    C16     31     -0.180    12.0110   ; qtot -2.591
    32       HGA1      1      LIG     H1     32      0.090     1.0080   ; qtot -2.501
    33       HGA1      1      LIG     HA     33      0.090     1.0080   ; qtot -2.411
    34       HGP1      1      LIG     H2     34      0.316     1.0080   ; qtot -2.095
    35       HGA2      1      LIG     H3     35      0.090     1.0080   ; qtot -2.005
    36       HGA2      1      LIG     H4     36      0.090     1.0080   ; qtot -1.915
    37       HGA4      1      LIG     H5     37      0.150     1.0080   ; qtot -1.765
    38       HGA2      1      LIG     H6     38      0.090     1.0080   ; qtot -1.675
    39       HGA2      1      LIG     H7     39      0.090     1.0080   ; qtot -1.585
    40       HGA4      1      LIG     H8     40      0.150     1.0080   ; qtot -1.435
    41       HGP1      1      LIG     H9     41      0.439     1.0080   ; qtot -0.996
    42       HGA2      1      LIG    H10     42      0.090     1.0080   ; qtot -0.906
    43       HGA2      1      LIG    H11     43      0.090     1.0080   ; qtot -0.816
    44      HGR51      1      LIG    H12     44      0.173     1.0080   ; qtot -0.643
    45      HGR51      1      LIG    H13     45      0.187     1.0080   ; qtot -0.456
    46      HGR52      1      LIG    H14     46      0.186     1.0080   ; qtot -0.270
    47       HGA3      1      LIG    H15     47      0.090     1.0080   ; qtot -0.180
    48       HGA3      1      LIG    H16     48      0.090     1.0080   ; qtot -0.090
    49       HGA3      1      LIG    H17     49      0.090     1.0080   ; qtot -0.000

[ bonds ]
; ai	aj	funct	b0	Kb
    1    14     1
    1    18     1
    2    25     1
    2    29     1
    3    26     1
    3    30     1
    4    16     1
    5    21     1
    5    41     1
    6    20     1
    7    21     1
    8    14     1
    8    16     1
    8    17     1
    9    15     1
    9    20     1
    9    34     1
   10    12     1
   10    30     1
   10    31     1
   11    13     1
   11    30     1
   12    13     1
   14    15     1
   14    32     1
   15    16     1
   15    33     1
   17    19     1
   17    21     1
   18    19     1
   18    35     1
   18    36     1
   19    22     1
   20    23     1
   22    24     1
   22    37     1
   23    25     1
   23    38     1
   23    39     1
   24    26     1
   24    40     1
   25    27     1
   26    42     1
   26    43     1
   27    28     1
   27    44     1
   28    29     1
   28    45     1
   29    46     1
   31    47     1
   31    48     1
   31    49     1

[ pairs ]
; ai	aj	funct	c6	c12
    1     9     1 
    1    16     1 
    1    17     1 
    1    22     1 
    1    33     1 
    2    20     1 
    2    38     1 
    2    39     1 
    2    44     1 
    2    45     1 
    3    12     1 
    3    13     1 
    3    22     1 
    3    31     1 
    3    40     1 
    4     9     1 
    4    14     1 
    4    17     1 
    4    33     1 
    5     8     1 
    5    19     1 
    6    15     1 
    6    25     1 
    6    34     1 
    6    38     1 
    6    39     1 
    7     8     1 
    7    19     1 
    7    41     1 
    8     9     1 
    8    14     1 
    8    16     1 
    8    18     1 
    8    22     1 
    8    33     1 
    9    25     1 
    9    32     1 
    9    38     1 
    9    39     1 
   10    26     1 
   11    26     1 
   11    31     1 
   12    47     1 
   12    48     1 
   12    49     1 
   13    31     1 
   14    15     1 
   14    19     1 
   14    20     1 
   14    21     1 
   14    34     1 
   14    35     1 
   14    36     1 
   15    16     1 
   15    17     1 
   15    18     1 
   15    23     1 
   16    19     1 
   16    20     1 
   16    21     1 
   16    32     1 
   16    34     1 
   17    24     1 
   17    32     1 
   17    35     1 
   17    36     1 
   17    37     1 
   17    41     1 
   18    21     1 
   18    24     1 
   18    32     1 
   18    37     1 
   19    26     1 
   19    40     1 
   20    27     1 
   20    33     1 
   21    22     1 
   22    35     1 
   22    36     1 
   22    42     1 
   22    43     1 
   23    28     1 
   23    29     1 
   23    34     1 
   23    44     1 
   24    30     1 
   25    45     1 
   25    46     1 
   26    37     1 
   27    38     1 
   27    39     1 
   27    46     1 
   29    44     1 
   30    42     1 
   30    43     1 
   30    47     1 
   30    48     1 
   30    49     1 
   32    33     1 
   33    34     1 
   37    40     1 
   40    42     1 
   40    43     1 
   44    45     1 
   45    46     1 

[ angles ] 
; ai	aj	ak	funct	th0	cth	S0	Kub
   14     1    18     5
   25     2    29     5
   26     3    30     5
   21     5    41     5
   14     8    16     5
   14     8    17     5
   16     8    17     5
   15     9    20     5
   15     9    34     5
   20     9    34     5
   12    10    30     5
   12    10    31     5
   30    10    31     5
   13    11    30     5
   10    12    13     5
   11    13    12     5
    1    14     8     5
    1    14    15     5
    1    14    32     5
    8    14    15     5
    8    14    32     5
   15    14    32     5
    9    15    14     5
    9    15    16     5
    9    15    33     5
   14    15    16     5
   14    15    33     5
   16    15    33     5
    4    16     8     5
    4    16    15     5
    8    16    15     5
    8    17    19     5
    8    17    21     5
   19    17    21     5
    1    18    19     5
    1    18    35     5
    1    18    36     5
   19    18    35     5
   19    18    36     5
   35    18    36     5
   17    19    18     5
   17    19    22     5
   18    19    22     5
    6    20     9     5
    6    20    23     5
    9    20    23     5
    5    21     7     5
    5    21    17     5
    7    21    17     5
   19    22    24     5
   19    22    37     5
   24    22    37     5
   20    23    25     5
   20    23    38     5
   20    23    39     5
   25    23    38     5
   25    23    39     5
   38    23    39     5
   22    24    26     5
   22    24    40     5
   26    24    40     5
    2    25    23     5
    2    25    27     5
   23    25    27     5
    3    26    24     5
    3    26    42     5
    3    26    43     5
   24    26    42     5
   24    26    43     5
   42    26    43     5
   25    27    28     5
   25    27    44     5
   28    27    44     5
   27    28    29     5
   27    28    45     5
   29    28    45     5
    2    29    28     5
    2    29    46     5
   28    29    46     5
    3    30    10     5
    3    30    11     5
   10    30    11     5
   10    31    47     5
   10    31    48     5
   10    31    49     5
   47    31    48     5
   47    31    49     5
   48    31    49     5

[ dihedrals ]
; ai	aj	ak	al	funct	phi0	cp	mult
   18     1    14    32     9
   14     1    18    19     9
   14     1    18    35     9
   14     1    18    36     9
   25     2    29    28     9
   25     2    29    46     9
   30     3    26    42     9
   30     3    26    43     9
   16     8    14    32     9
   17     8    14    32     9
   14     8    16    15     9
   14     8    17    19     9
   14     8    17    21     9
   16     8    17    19     9
   16     8    17    21     9
   20     9    15    33     9
   15     9    20    23     9
   12    10    31    47     9
   12    10    31    48     9
   12    10    31    49     9
   30    10    31    47     9
   30    10    31    48     9
   30    10    31    49     9
   13    12    10    30     9
   13    12    10    31     9
   10    12    13    11     9
   12    13    11    30     9
    8    14     1    18     9
   15    14     1    18     9
    1    14     8    16     9
    1    14     8    17     9
   15    14     8    16     9
   15    14     8    17     9
    1    14    15     9     9
    1    14    15    16     9
    1    14    15    33     9
    8    14    15     9     9
    8    14    15    16     9
    8    14    15    33     9
   32    14    15    33     9
   14    15     9    20     9
   14    15     9    34     9
   16    15     9    20     9
   16    15     9    34     9
   33    15     9    34     9
    9    15    14    32     9
   16    15    14    32     9
    4    16     8    14     9
    4    16     8    17     9
   15    16     8    17     9
    4    16    15     9     9
    4    16    15    14     9
    4    16    15    33     9
    8    16    15     9     9
    8    16    15    14     9
    8    16    15    33     9
    8    17    19    18     9
    8    17    19    22     9
   21    17    19    22     9
    1    18    19    17     9
    1    18    19    22     9
   18    19    17    21     9
   17    19    18    35     9
   17    19    18    36     9
   22    19    18    35     9
   22    19    18    36     9
   17    19    22    24     9
   17    19    22    37     9
   18    19    22    24     9
   18    19    22    37     9
    6    20     9    15     9
    6    20     9    34     9
   23    20     9    34     9
    6    20    23    25     9
    6    20    23    38     9
    6    20    23    39     9
    9    20    23    25     9
    9    20    23    38     9
    9    20    23    39     9
    7    21     5    41     9
   17    21     5    41     9
    5    21    17     8     9
    5    21    17    19     9
    7    21    17     8     9
    7    21    17    19     9
   19    22    24    26     9
   19    22    24    40     9
   37    22    24    40     9
   20    23    25    27     9
   26    24    22    37     9
   22    24    26    42     9
   22    24    26    43     9
   40    24    26    42     9
   40    24    26    43     9
   23    25     2    29     9
   27    25     2    29     9
    2    25    23    20     9
    2    25    23    38     9
    2    25    23    39     9
   27    25    23    38     9
   27    25    23    39     9
    2    25    27    28     9
    2    25    27    44     9
   23    25    27    28     9
   23    25    27    44     9
   24    26     3    30     9
    3    26    24    22     9
    3    26    24    40     9
   25    27    28    29     9
   25    27    28    45     9
   44    27    28    45     9
   29    28    27    44     9
   27    28    29    46     9
   45    28    29    46     9
    2    29    28    27     9
    2    29    28    45     9
   10    30     3    26     9
   11    30     3    26     9
    3    30    10    12     9
    3    30    10    31     9
   11    30    10    12     9
   11    30    10    31     9
    3    30    11    13     9
   10    30    11    13     9

[ dihedrals ]
; ai	aj	ak	al	funct	q0	cq
   16    15     8     4     2
   17    19    21     8     2
   20    23     9     6     2
   21    17     7     5     2
